Title
19927
    1ASP      N    1   4.195   3.566   2.941 -0.0348 -0.4377 -0.0445
    1ASP    HT1    2   4.193   3.556   2.838  1.1862 -1.6557  0.0385
    1ASP    HT2    3   4.274   3.632   2.952 -1.1246  0.5826  2.0354
    1ASP    HT3    4   4.108   3.618   2.966 -0.5312  0.0612 -2.6735
    1ASP     CA    5   4.208   3.440   3.022 -0.3089  0.1738 -0.4441
    1ASP     HA    6   4.312   3.419   3.042 -0.6167 -0.2711  0.7182
    1ASP     CB    7   4.138   3.451   3.154 -1.4266  0.1005 -0.6381
    1ASP    HB1    8   4.159   3.368   3.225 -0.1841  2.5846  2.0303
    1ASP    HB2    9   4.029   3.467   3.144 -1.4958  1.3904  1.7906
    1ASP     CG   10   4.201   3.550   3.250 -0.2522  0.1470 -0.0153
    1ASP    OD1   11   4.296   3.622   3.211 -0.1328  0.6561 -0.4156
    1ASP    OD2   12   4.141   3.563   3.366 -0.4001 -0.5625  0.7899
    1ASP      C   13   4.155   3.323   2.944 -0.3159 -0.8740 -0.4418
    1ASP      O   14   4.050   3.339   2.875 -0.7104 -0.1189 -0.6253
    2ALA      N   15   4.219   3.207   2.952 -0.3249 -0.2721  0.6697
    2ALA     HN   16   4.300   3.199   3.009  0.4200  1.2345 -0.1381
    2ALA     CA   17   4.173   3.090   2.887  0.8887  0.5228  0.1294
    2ALA     HA   18   4.175   3.110   2.780 -0.3703 -0.0979 -0.0153
    2ALA     CB   19   4.271   2.978   2.928  0.4271  0.1316 -0.6568
    2ALA    HB1   20   4.289   2.966   3.037  4.8332  3.0747 -0.9730
    2ALA    HB2   21   4.374   2.998   2.894  1.1122 -0.7558  0.8321
    2ALA    HB3   22   4.241   2.879   2.889 -1.7510  0.7076 -0.5190
    2ALA      C   23   4.024   3.057   2.914  0.2530  0.1223 -0.0699
    2ALA      O   24   3.936   3.050   2.824  0.0007  0.3698  0.1035
    3ASP      N   25   3.995   3.045   3.046  0.1266 -0.3663 -0.0961
    3ASP     HN   26   4.069   3.056   3.112 -1.2757  4.8355  0.7942
    3ASP     CA   27   3.862   3.052   3.102  0.1008 -0.1851  0.0109
    3ASP     HA   28   3.791   3.019   3.028 -1.6864 -0.8972  1.9604
    3ASP     CB   29   3.851   2.964   3.238  0.0564 -0.7076 -0.1949
    3ASP    HB1   30   3.745   2.963   3.269 -0.6261  0.3303 -2.4359
    3ASP    HB2   31   3.921   3.011   3.310 -1.9663  1.4661  0.3964
    3ASP     CG   32   3.878   2.812   3.225  0.5050  0.5865  0.0748
    3ASP    OD1   33   3.853   2.753   3.118  0.4236  0.4451  0.4244
    3ASP    OD2   34   3.909   2.749   3.329  0.4482  0.0756 -0.2884
    3ASP      C   35   3.834   3.204   3.127  0.3367  0.3102 -0.0544
    3ASP      O   36   3.895   3.268   3.211  0.5966  0.0856  0.1042
    4GLY      N   37   3.751   3.268   3.044 -0.6264  0.7773  0.5475
    4GLY     HN   38   3.719   3.216   2.965 -1.2639 -2.3451  2.7404
    4GLY     CA   39   3.726   3.413   3.043  0.6949 -0.5904  0.4946
    4GLY    HA1   40   3.683   3.426   2.945  1.2352  0.9134  0.4542
    4GLY    HA2   41   3.821   3.464   3.047  1.9795 -2.9604  1.9594
    4GLY      C   42   3.628   3.451   3.155 -0.2322  0.2624 -0.1032
    4GLY      O   43   3.626   3.383   3.256 -0.2138 -0.7343  0.1679
    5PRO      N   44   3.557   3.566   3.142  0.3270 -0.6103  0.3821
    5PRO     CD   45   3.579   3.669   3.041  0.3666 -0.2232  0.9335
    5PRO    HD1   46   3.534   3.623   2.951  0.1881 -0.6433  1.2344
    5PRO    HD2   47   3.687   3.692   3.038  0.5677 -0.9685  1.8802
    5PRO     CA   48   3.450   3.592   3.234 -0.2831  0.0388  0.0169
    5PRO     HA   49   3.481   3.632   3.330  0.7178  2.3907 -1.2399
    5PRO     CB   50   3.380   3.711   3.165  0.1888 -0.0621  0.7294
    5PRO    HB1   51   3.335   3.779   3.241  0.1942 -0.0299  0.7039
    5PRO    HB2   52   3.306   3.668   3.095  0.2730 -1.3814  1.4291
    5PRO     CG   53   3.485   3.781   3.077  0.0722 -0.4370  0.1758
    5PRO    HG1   54   3.435   3.823   2.987 -0.4425  1.8686  1.5170
    5PRO    HG2   55   3.531   3.860   3.140 -0.4011 -0.7484  0.9124
    5PRO      C   56   3.360   3.476   3.262 -0.0214 -0.0665  0.0970
    5PRO      O   57   3.302   3.424   3.164 -0.2405 -0.1089 -0.1150
    6GLY      N   58   3.337   3.443   3.389  0.2886  0.4107  0.1813
    6GLY     HN   59   3.384   3.496   3.459 -0.0920  1.4088 -0.3057
    6GLY     CA   60   3.243   3.337   3.422  0.4641  0.0187  0.5471
    6GLY    HA1   61   3.219   3.359   3.525  3.2476  1.6573  0.8869
    6GLY    HA2   62   3.279   3.237   3.404 -0.3367 -0.2128  0.2169
    6GLY      C   63   3.106   3.355   3.365  0.0824  0.2236 -0.5391
    6GLY      O   64   3.057   3.465   3.350 -0.1010 -0.3709 -0.8737
    7ASP      N   65   3.042   3.244   3.331 -0.5503  0.4994 -0.3964
    7ASP     HN   66   3.081   3.155   3.352 -0.9260  0.4533  0.1251
    7ASP     CA   67   2.906   3.238   3.273 -0.0119  0.1410 -0.2868
    7ASP     HA   68   2.909   3.310   3.193  3.8774  0.2868 -0.0941
    7ASP     CB   69   2.879   3.097   3.214 -0.7414 -0.3600  0.4645
    7ASP    HB1   70   2.912   3.013   3.279 -1.0891  0.7592  2.1123
    7ASP    HB2   71   2.955   3.093   3.134 -0.1888 -0.8993  1.0120
    7ASP     CG   72   2.741   3.072   3.158 -0.2435 -0.7402  0.2941
    7ASP    OD1   73   2.666   3.169   3.131  0.2871  0.2290 -0.1112
    7ASP    OD2   74   2.712   2.956   3.123 -0.8405  0.0963 -0.2916
    7ASP      C   75   2.808   3.284   3.382  0.0620 -0.2268 -0.2557
    7ASP      O   76   2.805   3.230   3.491 -0.2648 -0.6061 -0.0735
    8PRO      N   77   2.725   3.389   3.364  0.4499  0.4057 -0.1876
    8PRO     CD   78   2.738   3.492   3.265 -0.5768 -0.0200 -0.2303
    8PRO    HD1   79   2.731   3.461   3.159  0.3972 -1.1533  0.0278
    8PRO    HD2   80   2.835   3.545   3.276  1.3796 -3.2629 -1.3055
    8PRO     CA   81   2.647   3.425   3.485  0.0949  0.3914  0.4434
    8PRO     HA   82   2.705   3.417   3.575 -0.4119  0.3268  0.7627
    8PRO     CB   83   2.619   3.577   3.449  0.0051 -0.1154 -0.2700
    8PRO    HB1   84   2.706   3.638   3.482  2.0539 -2.7048 -0.6990
    8PRO    HB2   85   2.532   3.614   3.507 -0.3041 -1.7697  0.3391
    8PRO     CG   86   2.627   3.590   3.301  0.5127 -0.3640 -0.0037
    8PRO    HG1   87   2.529   3.557   3.260  0.1657  1.4484 -0.6793
    8PRO    HG2   88   2.641   3.695   3.268 -3.7333  1.0118  2.1795
    8PRO      C   89   2.520   3.349   3.481  0.7452  0.6829 -0.5618
    8PRO      O   90   2.446   3.356   3.579  0.1683  0.5063  0.1623
    9ASP      N   91   2.496   3.262   3.384  0.2898 -0.0904 -0.2417
    9ASP     HN   92   2.564   3.249   3.312  0.8527  1.2466  0.0172
    9ASP     CA   93   2.385   3.171   3.374  0.6423  0.0197  0.3064
    9ASP     HA   94   2.318   3.202   3.453  0.7718  1.4483 -0.1230
    9ASP     CB   95   2.304   3.183   3.235  0.1735  0.1252 -0.0003
    9ASP    HB1   96   2.217   3.114   3.238  0.4528 -0.1298  2.9311
    9ASP    HB2   97   2.374   3.156   3.153 -1.5950 -0.1513 -1.4504
    9ASP     CG   98   2.238   3.311   3.222 -0.3167 -1.1597 -0.3620
    9ASP    OD1   99   2.264   3.382   3.117 -0.3874 -0.0435 -0.0618
    9ASP    OD2  100   2.153   3.347   3.311  0.5059 -0.4818 -0.1909
    9ASP      C  101   2.433   3.031   3.418 -0.0715  0.5108 -0.1761
    9ASP      O  102   2.375   2.928   3.396 -0.2665  0.4572 -0.1647
   10ALA      N  103   2.552   3.030   3.490 -0.0971 -0.2160 -0.2189
   10ALA     HN  104   2.606   3.111   3.510 -1.1801  0.5208 -0.2776
   10ALA     CA  105   2.609   2.899   3.536  0.9285 -0.1946  0.3203
   10ALA     HA  106   2.564   2.829   3.468 -2.2225  2.5377 -0.5808
   10ALA     CB  107   2.765   2.888   3.514  0.0586  0.6286  0.5302
   10ALA    HB1  108   2.825   2.969   3.562  1.6183 -0.3344  0.2145
   10ALA    HB2  109   2.788   2.886   3.406 -1.1221 -0.1328  0.2818
   10ALA    HB3  110   2.787   2.785   3.549 -0.2357  0.1439 -0.7083
   10ALA      C  111   2.584   2.874   3.677 -0.2654 -0.5552 -0.2067
   10ALA      O  112   2.615   2.954   3.764  0.2389 -0.4184  0.3494
   11GLY      N  113   2.520   2.759   3.702 -0.1290  0.1081  0.1632
   11GLY     HN  114   2.487   2.704   3.626 -2.6011  2.0935 -0.2733
   11GLY     CA  115   2.489   2.708   3.836 -0.3277  0.0588  0.1741
   11GLY    HA1  116   2.532   2.777   3.908 -4.1507  1.6460  1.0282
   11GLY    HA2  117   2.513   2.603   3.844 -0.2500  0.2268  2.6224
   11GLY      C  118   2.341   2.718   3.857  0.6438  0.3387  0.3594
   11GLY    OT1  119   2.288   2.831   3.896 -0.0465  0.2632 -0.5492
   11GLY    OT2  120   2.267   2.619   3.836 -0.2102 -0.5080  0.0062
   12SOD    SOD  121   0.580   4.503   4.164  0.1612  0.0512 -0.2252
   13SOD    SOD  122   0.283   1.566   0.361 -0.3294 -0.1473  0.1551
   14SOD    SOD  123   6.451   0.200   4.132 -0.8200 -0.4469 -0.1028
   15SOD    SOD  124   0.915   0.813   1.792 -0.2737  0.0154  0.0095
   16SOD    SOD  125   5.678   2.572   1.064 -0.4644  0.0692  0.7499
   17SOD    SOD  126   4.024   3.088   0.897 -0.2430 -0.2919 -0.1328
   18SOD    SOD  127   3.765   5.673   0.767 -0.2301 -0.2045  0.4802
   19SOD    SOD  128   2.082   3.106   3.748 -0.3335 -0.2127  0.1968
   20SOD    SOD  129   5.822   0.574   3.051 -0.0192  0.0006  0.0777
   21SOD    SOD  130   1.102   5.152   5.038 -0.3245  0.0927 -0.5722
   22SOD    SOD  131   1.568   4.045   2.754 -0.1405  0.1239  0.1818
   23SOD    SOD  132   1.622   3.079   0.892  0.3550 -0.4420 -0.0506
   24SOD    SOD  133   4.327   2.985   4.729 -0.0440  0.4185  0.1215
   25SOD    SOD  134   6.198   4.182   3.647 -0.1989 -0.0303  0.0396
   26SOD    SOD  135   5.361   4.999   1.997  0.3468  0.2335 -0.3115
   27SOD    SOD  136   5.417   3.401   1.667  0.3820  0.6804 -0.2613
   28SOD    SOD  137   5.631   0.756   2.525  0.2014 -0.0303  0.3927
   29SOD    SOD  138   1.260   1.569   5.203  0.0082 -0.0099 -0.2095
   30SOD    SOD  139   2.782   4.848   4.320  0.0570  0.9612  0.1821
   31SOD    SOD  140   5.617   0.198   4.398  0.0292  0.1065  0.0337
   32SOD    SOD  141   2.149   1.858   4.712  0.1569 -0.0581  0.1653
   33SOD    SOD  142   0.847   4.357   0.328  0.3444 -0.3258  0.2151
   34CLA    CLA  143   2.904   4.691   5.234  0.3697  0.1211  0.0954
   35CLA    CLA  144   5.464   4.568   2.258 -0.1686 -0.1675  0.0559
   36CLA    CLA  145   5.978   1.106   2.011  0.0162  0.0528  0.1832
   37CLA    CLA  146   3.477   4.297   1.837 -0.2815  0.4444 -0.0774
   38CLA    CLA  147   3.853   5.553   2.904  0.1129  0.0883 -0.0058
   39CLA    CLA  148   0.879   1.132   1.517  0.0151 -0.2397  0.3484
   40CLA    CLA  149   4.549   0.557   3.953  0.4062  0.0540  0.0835
   41CLA    CLA  150   6.198   4.056   1.197  0.2091  0.3128  0.0721
   42CLA    CLA  151   3.437   3.443   4.176 -0.2451 -0.1390 -0.0396
   43CLA    CLA  152   6.251   0.468   3.442 -0.5540  0.0361  0.0878
   44CLA    CLA  153   3.404   4.681   0.164 -0.1126  0.3246  0.4876
   45CLA    CLA  154   5.771   4.751   1.815  0.1839  0.5058  0.2811
   46CLA    CLA  155   2.449   2.173   2.640  0.1284  0.0452  0.0334
   47CLA    CLA  156   0.610   4.768   4.133 -0.1804  0.1474 -0.0120
   48CLA    CLA  157   3.807   3.187   1.541  0.2521 -0.5782  0.3282
   49CLA    CLA  158   0.448   0.674   0.784 -0.1716 -0.0725 -0.3742
   50CLA    CLA  159   0.194   5.854   4.682 -0.1268 -0.3416  0.0244
   51CLA    CLA  160   2.262   1.329   0.068 -0.2465  0.1507 -0.0726
   52TIP3   OH2  161   6.189   4.569   2.953 -0.1296 -0.4187  0.0611
   52TIP3    H1  162   6.275   4.542   2.920  0.2407 -0.2478  0.8606
   52TIP3    H2  163   6.128   4.508   2.913  0.5414 -1.5295  0.6838
   53TIP3   OH2  164   3.275   2.116   0.922  0.6369 -0.0099 -0.3851
   53TIP3    H1  165   3.312   2.033   0.893  1.1883 -0.7401  2.2343
   53TIP3    H2  166   3.342   2.181   0.900  0.9549 -0.5000 -0.8789
   54TIP3   OH2  167   3.020   0.536   2.169 -0.1074  0.2124  0.0035
   54TIP3    H1  168   3.010   0.629   2.150 -1.6119  0.2919  1.0945
   54TIP3    H2  169   2.972   0.492   2.098 -1.4615  0.3511  0.8241
   55TIP3   OH2  170   4.188   5.645   2.714  0.5967  0.2739 -0.0545
   55TIP3    H1  171   4.161   5.565   2.759  0.2952  0.4441  0.0666
   55TIP3    H2  172   4.242   5.614   2.641  0.2305 -0.0516 -0.1866
   56TIP3   OH2  173   1.038   0.398   3.626  0.5286  0.5456 -0.0074
   56TIP3    H1  174   1.096   0.469   3.653 -0.7615  0.9649  1.7645
   56TIP3    H2  175   0.952   0.423   3.661 -0.0179 -1.6987  0.3424
   57TIP3   OH2  176   3.117   0.690   1.859 -0.3123  0.0652  0.1128
   57TIP3    H1  177   3.036   0.714   1.904 -0.6955  1.6081 -1.3476
   57TIP3    H2  178   3.186   0.736   1.907 -0.5875  0.7660 -0.1610
   58TIP3   OH2  179   3.812   0.716   3.622  0.5710  0.5548  0.2057
   58TIP3    H1  180   3.765   0.641   3.587 -0.7054  0.8991  1.1397
   58TIP3    H2  181   3.903   0.703   3.594  0.2582 -1.0390 -0.1146
   59TIP3   OH2  182   2.750   2.768   0.351 -0.3356 -0.3842  0.5716
   59TIP3    H1  183   2.706   2.770   0.266  1.5184 -0.0126 -0.4126
   59TIP3    H2  184   2.818   2.701   0.342  1.6458  1.5131  0.8226
   60TIP3   OH2  185   3.013   0.490   1.722  0.2500  0.3384 -0.1931
   60TIP3    H1  186   3.071   0.550   1.771 -0.4375  2.5583 -2.0046
   60TIP3    H2  187   3.062   0.469   1.643 -0.9036  1.2800 -1.1782
   61TIP3   OH2  188   0.977   5.373   1.515 -0.1096 -0.0328  0.0151
   61TIP3    H1  189   0.887   5.376   1.548 -0.6368 -2.9263 -0.9992
   61TIP3    H2  190   1.030   5.361   1.594 -0.9676 -2.0932  0.3269
   62TIP3   OH2  191   0.218   0.581   3.014 -0.1760 -0.2890  0.1260
   62TIP3    H1  192   0.248   0.573   3.104 -0.0159  0.0309  0.1008
   62TIP3    H2  193   0.200   0.674   3.002  0.0580 -0.2899 -0.2558
   63TIP3   OH2  194   0.314   0.089   3.643 -0.0946 -0.0361  0.0532
   63TIP3    H1  195   0.359   0.068   3.561 -1.0856 -0.5786 -0.3523
   63TIP3    H2  196   0.224   0.106   3.618 -0.4044 -0.1902  1.0359
   64TIP3   OH2  197   5.277   5.654   0.322  0.2990 -0.4128  0.2438
   64TIP3    H1  198   5.335   5.637   0.247  1.0620 -0.8342  0.9179
   64TIP3    H2  199   5.192   5.620   0.295  0.0623  1.2949 -1.2203
   65TIP3   OH2  200   6.220   4.943   1.614  0.3347  0.3042  0.1205
   65TIP3    H1  201   6.249   5.016   1.669  0.8616 -0.5739  1.0257
   65TIP3    H2  202   6.147   4.904   1.663 -0.1447  0.4158 -0.5082
   66TIP3   OH2  203   6.146   3.624   5.074 -0.4394  0.0416  0.4927
   66TIP3    H1  204   6.124   3.533   5.093  0.3882 -0.1146  0.7509
   66TIP3    H2  205   6.173   3.660   5.159 -0.1187  0.3347  0.2703
   67TIP3   OH2  206   5.611   3.445   4.993 -0.3528 -0.4311  0.2054
   67TIP3    H1  207   5.578   3.457   4.904 -1.7786  1.4150  0.9500
   67TIP3    H2  208   5.662   3.524   5.011  0.6205 -1.1776  0.7237
   68TIP3   OH2  209   0.973   5.874   0.505 -0.3506 -0.1407  0.3780
   68TIP3    H1  210   1.010   5.806   0.450 -1.4002  0.8890 -1.6508
   68TIP3    H2  211   0.886   5.842   0.529 -0.8854  0.4832 -0.6596
   69TIP3   OH2  212   0.994   5.053   2.585  0.1221 -0.6104  0.1956
   69TIP3    H1  213   1.063   4.990   2.562 -0.2624 -0.7164 -0.6929
   69TIP3    H2  214   0.916   4.999   2.597  0.1728 -0.4815  1.1227
   70TIP3   OH2  215   4.479   1.972   1.153  0.3446 -0.4152  0.1495
   70TIP3    H1  216   4.433   2.004   1.076 -1.5979 -0.1997  1.3538
   70TIP3    H2  217   4.463   2.038   1.220  2.2367 -0.4640  0.6893
   71TIP3   OH2  218   6.347   5.115   2.970 -0.3055 -0.0485  0.4049
   71TIP3    H1  219   6.360   5.113   2.875  1.2168  2.0172  0.5365
   71TIP3    H2  220   6.293   5.193   2.985 -0.6867 -0.4680  1.2325
   72TIP3   OH2  221   2.009   1.308   1.047 -0.3816 -0.9205  1.2924
   72TIP3    H1  222   2.083   1.336   0.993 -1.7886  1.1477  0.3702
   72TIP3    H2  223   2.042   1.314   1.137  0.9220 -1.0938  0.8314
   73TIP3   OH2  224   3.605   0.689   2.216  0.4618  0.1923  0.0009
   73TIP3    H1  225   3.527   0.653   2.258  0.3974 -1.0251 -1.1426
   73TIP3    H2  226   3.591   0.784   2.217 -1.7572 -0.0693 -1.5210
   74TIP3   OH2  227   2.689   2.182   2.440 -0.0187 -0.0182  0.4819
   74TIP3    H1  228   2.601   2.190   2.478 -1.4528 -1.7012 -2.2907
   74TIP3    H2  229   2.711   2.271   2.412 -0.5863  0.5188  1.7341
   75TIP3   OH2  230   0.806   5.951   1.611  0.3860 -0.0751 -0.6478
   75TIP3    H1  231   0.719   5.911   1.613  0.5619 -0.4412 -0.1969
   75TIP3    H2  232   0.846   5.924   1.694  0.8536  0.2595 -0.7658
   76TIP3   OH2  233   5.483   5.110   2.514 -0.0470  0.2380 -0.7455
   76TIP3    H1  234   5.575   5.120   2.489  0.3072 -2.7297 -0.7963
   76TIP3    H2  235   5.484   5.117   2.610 -0.0759  2.0821 -0.8520
   77TIP3   OH2  236   5.382   5.967   1.697 -0.7331 -0.0913  0.2854
   77TIP3    H1  237   5.361   6.060   1.702 -1.1315 -0.2395  1.5245
   77TIP3    H2  238   5.302   5.925   1.665 -0.5895 -0.0279 -0.1644
   78TIP3   OH2  239   1.863   1.124   1.956  0.4290  0.0169 -0.3982
   78TIP3    H1  240   1.956   1.104   1.960  0.7757  1.4059 -1.2750
   78TIP3    H2  241   1.845   1.172   2.037  0.3865 -0.5962 -0.0422
   79TIP3   OH2  242   2.552   0.749   1.861 -0.1407  0.0342 -0.7677
   79TIP3    H1  243   2.552   0.804   1.782 -2.6259 -1.8002 -2.1255
   79TIP3    H2  244   2.618   0.682   1.844  2.0682  1.8345  0.4027
   80TIP3   OH2  245   2.706   1.228   3.138 -0.0014  0.1382  0.0763
   80TIP3    H1  246   2.759   1.203   3.062 -0.0359  0.4187 -0.0396
   80TIP3    H2  247   2.771   1.249   3.206  0.0279 -2.0468  0.7634
   81TIP3   OH2  248   0.927   5.922   2.290 -0.0992  0.2282 -0.2667
   81TIP3    H1  249   0.898   6.012   2.274 -0.5235  0.6908  2.8021
   81TIP3    H2  250   0.846   5.870   2.286 -0.1781  0.3153  0.1960
   82TIP3   OH2  251   4.412   0.062   2.472  0.3460 -0.0467 -0.4082
   82TIP3    H1  252   4.419   0.099   2.560  0.5087 -1.0357 -0.0003
   82TIP3    H2  253   4.394   0.137   2.416 -1.0225  0.4275  0.6379
   83TIP3   OH2  254   2.877   0.669   0.957  0.0314 -0.2198  0.7009
   83TIP3    H1  255   2.802   0.727   0.973 -1.1116 -1.8859  1.5280
   83TIP3    H2  256   2.954   0.722   0.978 -0.8569  1.7875 -0.9188
   84TIP3   OH2  257   6.013   5.308   3.825  0.0329  0.4447 -0.2632
   84TIP3    H1  258   5.944   5.332   3.763  0.3909  0.1425 -0.7707
   84TIP3    H2  259   6.092   5.350   3.791  0.2745  0.0936 -0.1367
   85TIP3   OH2  260   2.559   0.861   1.607 -0.3670 -0.0266  0.1523
   85TIP3    H1  261   2.568   0.947   1.566 -2.4983  0.7040  1.1462
   85TIP3    H2  262   2.546   0.800   1.534 -1.9586  0.9458 -0.3767
   86TIP3   OH2  263   3.796   4.468   2.313 -0.2612  0.0046  0.2184
   86TIP3    H1  264   3.713   4.446   2.355 -1.4662 -0.3318 -2.2523
   86TIP3    H2  265   3.856   4.399   2.340 -1.1179 -0.4410  1.0113
   87TIP3   OH2  266   3.382   2.877   1.515  0.0006 -0.0166  0.0481
   87TIP3    H1  267   3.397   2.786   1.538  0.4833 -0.4114 -1.7118
   87TIP3    H2  268   3.287   2.889   1.526  0.3377  0.1527  3.1857
   88TIP3   OH2  269   1.786   1.510   0.838  0.7823 -0.4509 -0.5237
   88TIP3    H1  270   1.852   1.462   0.789  2.1228  2.0445 -1.2656
   88TIP3    H2  271   1.813   1.602   0.832 -1.5032  0.3966  1.0926
   89TIP3   OH2  272   2.741   4.422   4.867 -0.4071 -0.0679  0.1044
   89TIP3    H1  273   2.697   4.461   4.943 -0.5770  1.2011 -0.6275
   89TIP3    H2  274   2.736   4.328   4.882 -0.4416  0.1613  1.6648
   90TIP3   OH2  275   2.690   5.635   1.742  0.4116 -0.1418  0.1517
   90TIP3    H1  276   2.605   5.667   1.772 -0.8395 -2.1263 -1.1841
   90TIP3    H2  277   2.716   5.697   1.674 -0.2607  0.0803  0.0924
   91TIP3   OH2  278   0.273   5.556   2.446  0.2854 -0.1580 -0.8519
   91TIP3    H1  279   0.204   5.623   2.455  1.1433  1.0224 -2.7377
   91TIP3    H2  280   0.333   5.592   2.381  1.9089 -1.8493 -0.3359
   92TIP3   OH2  281   2.464   3.647   0.610  0.0981  0.8006 -0.4206
   92TIP3    H1  282   2.410   3.725   0.623 -0.1308  0.6853 -0.6780
   92TIP3    H2  283   2.402   3.577   0.592  0.3767  0.8977 -1.8772
   93TIP3   OH2  284   2.129   0.394   3.392 -0.0698 -0.4766  0.2831
   93TIP3    H1  285   2.108   0.376   3.484 -1.2000 -2.6408 -0.3703
   93TIP3    H2  286   2.072   0.467   3.369  0.8166  0.6358  1.5205
   94TIP3   OH2  287   1.454   5.575   3.035  0.6609 -0.1556 -0.4567
   94TIP3    H1  288   1.456   5.599   3.128 -0.7931 -0.5155 -0.3114
   94TIP3    H2  289   1.399   5.496   3.033 -0.1413  0.4224 -1.7308
   95TIP3   OH2  290   0.251   4.479   1.101 -0.3612 -0.6516 -0.5669
   95TIP3    H1  291   0.342   4.504   1.118 -0.7127  1.0599 -1.1311
   95TIP3    H2  292   0.226   4.427   1.177  0.8175 -0.3817  0.0153
   96TIP3   OH2  293   3.112   1.467   0.417 -0.2682  0.0343  0.2995
   96TIP3    H1  294   3.156   1.387   0.389 -1.0983 -0.4364  0.3200
   96TIP3    H2  295   3.113   1.523   0.340 -0.7968 -0.4946 -0.1001
   97TIP3   OH2  296   5.362   0.179   2.851 -0.0917  0.1552 -0.0795
   97TIP3    H1  297   5.279   0.145   2.819  0.4408 -0.5944 -0.7165
   97TIP3    H2  298   5.409   0.101   2.882 -0.7859  0.9186  3.0611
   98TIP3   OH2  299   1.867   5.831   2.692  0.0799 -0.1870  0.0437
   98TIP3    H1  300   1.832   5.824   2.781 -0.9567 -1.1077 -0.4408
   98TIP3    H2  301   1.932   5.902   2.698 -1.0988  0.8130  1.1654
   99TIP3   OH2  302   6.047   5.954   0.569 -0.2241 -0.5397  0.4359
   99TIP3    H1  303   6.069   6.020   0.502 -0.1937 -0.0804  0.8975
   99TIP3    H2  304   6.042   6.004   0.650 -2.5568 -0.7188  0.4208
  100TIP3   OH2  305   1.583   0.587   4.101 -0.2482  0.4590 -0.0608
  100TIP3    H1  306   1.656   0.649   4.098 -1.8566  2.4126 -0.0025
  100TIP3    H2  307   1.613   0.511   4.052  1.7688  1.2859 -0.1447
  101TIP3   OH2  308   6.064   4.312   2.467 -0.3876  0.0485 -0.2895
  101TIP3    H1  309   6.001   4.299   2.537 -0.8504  0.9703 -0.5254
  101TIP3    H2  310   6.021   4.276   2.389  0.9662 -2.9156  0.2463
  102TIP3   OH2  311   6.373   6.060   2.012  0.1080  0.0112  0.7092
  102TIP3    H1  312   6.414   5.974   2.013 -2.4531 -1.2853  0.1063
  102TIP3    H2  313   6.332   6.068   2.098 -0.2819  0.3070  0.4973
  103TIP3   OH2  314   2.112   1.293   1.290 -0.2640  0.4080  0.2736
  103TIP3    H1  315   2.123   1.201   1.266  2.6890  0.8333 -0.2103
  103TIP3    H2  316   2.093   1.292   1.384  1.4934 -0.6347  0.6353
  104TIP3   OH2  317   1.843   0.579   0.822 -0.1100 -0.2452 -0.4876
  104TIP3    H1  318   1.877   0.505   0.873  0.1168 -0.2248 -0.6068
  104TIP3    H2  319   1.921   0.616   0.779 -0.0220  0.8473  0.5821
  105TIP3   OH2  320   1.296   5.196   2.405 -0.5118  0.5771 -0.7189
  105TIP3    H1  321   1.243   5.121   2.380  0.3906 -0.4994  0.4798
  105TIP3    H2  322   1.237   5.271   2.400 -1.2526 -0.1187 -2.5374
  106TIP3   OH2  323   0.691   5.830   0.578  0.2831 -0.2415 -0.2222
  106TIP3    H1  324   0.717   5.832   0.670 -0.6066  2.2114  0.0382
  106TIP3    H2  325   0.609   5.780   0.577  1.1925 -1.7551  0.0414
  107TIP3   OH2  326   1.796   0.408   2.868  0.2044 -0.5046 -0.5211
  107TIP3    H1  327   1.720   0.378   2.918  0.4772 -1.8052 -0.8904
  107TIP3    H2  328   1.799   0.503   2.885 -1.6640 -0.3796 -0.7308
  108TIP3   OH2  329   3.497   0.268   0.542 -0.0706  0.0011  0.2983
  108TIP3    H1  330   3.471   0.330   0.611  0.9395  0.4768  0.2673
  108TIP3    H2  331   3.569   0.312   0.497 -1.4066  0.1562 -1.7501
  109TIP3   OH2  332   6.032   6.095   0.812 -0.1099  0.0850  0.7440
  109TIP3    H1  333   5.943   6.061   0.819 -0.4045  1.0222  1.7783
  109TIP3    H2  334   6.087   6.029   0.855 -0.4895  0.2035  1.4109
  110TIP3   OH2  335   3.960   0.644   2.583  0.6450 -0.4947  0.4953
  110TIP3    H1  336   4.033   0.694   2.619  1.1828 -0.5747 -0.4752
  110TIP3    H2  337   4.001   0.572   2.535 -0.0962 -1.2876  1.0353
  111TIP3   OH2  338   2.043   0.610   1.833  0.0821 -0.2113  0.6329
  111TIP3    H1  339   2.028   0.527   1.877 -1.2539  0.1515  0.8740
  111TIP3    H2  340   2.115   0.651   1.882  0.0415 -0.7583  1.1444
  112TIP3   OH2  341   1.227   0.405   0.404 -0.4854  0.0622 -0.4063
  112TIP3    H1  342   1.260   0.395   0.315  1.4816  0.9267  0.1932
  112TIP3    H2  343   1.305   0.401   0.459 -1.6014  0.2197  1.2323
  113TIP3   OH2  344   1.780   5.845   2.979  0.0131  0.3506 -0.0633
  113TIP3    H1  345   1.723   5.905   3.028  0.3461  2.0422 -1.7015
  113TIP3    H2  346   1.721   5.778   2.945 -0.7089  0.9893 -0.0844
  114TIP3   OH2  347   0.428   0.797   3.298 -0.9065 -0.7398 -0.3582
  114TIP3    H1  348   0.344   0.751   3.297 -0.9415 -0.7149  0.9312
  114TIP3    H2  349   0.449   0.806   3.391  0.9664 -1.5552 -0.6984
  115TIP3   OH2  350   3.180   1.007   0.088 -0.2867  0.1394 -0.1887
  115TIP3    H1  351   3.256   1.035   0.138 -0.0356 -0.1407 -0.4053
  115TIP3    H2  352   3.133   1.088   0.067 -1.4053  0.1098  2.0731
  116TIP3   OH2  353   3.658   1.500   2.638  0.0059  0.7741 -0.1224
  116TIP3    H1  354   3.612   1.451   2.569  0.0093  0.5500  0.0334
  116TIP3    H2  355   3.605   1.578   2.651 -0.0440  0.7739 -0.3166
  117TIP3   OH2  356   5.278   0.418   1.888 -0.1413 -0.2870  0.0825
  117TIP3    H1  357   5.225   0.398   1.966 -0.0848 -1.6014 -0.2053
  117TIP3    H2  358   5.219   0.402   1.815  0.2375 -0.4086 -0.1960
  118TIP3   OH2  359   2.532   4.878   1.263  0.3291 -0.0311 -0.3514
  118TIP3    H1  360   2.484   4.868   1.345  1.9546 -2.0873  0.4165
  118TIP3    H2  361   2.510   4.800   1.212  0.9213  0.2096 -0.9878
  119TIP3   OH2  362   2.546   1.062   0.616 -0.0695  0.8841 -0.1962
  119TIP3    H1  363   2.502   1.132   0.570 -2.8501  0.6567  1.9663
  119TIP3    H2  364   2.505   1.060   0.703 -0.7541 -3.9679 -0.4544
  120TIP3   OH2  365   5.256   5.073   1.327  0.2060 -0.2775  0.1019
  120TIP3    H1  366   5.246   5.133   1.401 -0.6471 -1.6009  1.0962
  120TIP3    H2  367   5.279   5.129   1.253 -1.2312  1.3407  0.8481
  121TIP3   OH2  368   3.385   6.034   1.056  0.7553  0.4101 -0.5856
  121TIP3    H1  369   3.403   6.104   1.119 -0.8832 -0.0336  0.4006
  121TIP3    H2  370   3.466   5.983   1.053  0.3624 -0.5163  2.4336
  122TIP3   OH2  371   6.213   5.518   0.876  0.1720  0.5772 -0.4231
  122TIP3    H1  372   6.213   5.435   0.828  1.0233  1.0104 -1.1877
  122TIP3    H2  373   6.231   5.585   0.809  0.0031  1.3294  0.2676
  123TIP3   OH2  374   4.656   1.878   5.087 -0.2130  0.4090 -0.4404
  123TIP3    H1  375   4.701   1.885   5.171  1.6786 -1.9692 -1.1967
  123TIP3    H2  376   4.672   1.962   5.044  1.3901  0.5241  0.3446
  124TIP3   OH2  377   1.086   5.363   1.764 -0.1748 -0.1662 -0.1510
  124TIP3    H1  378   1.071   5.458   1.755  0.5417 -0.0320  0.0687
  124TIP3    H2  379   1.091   5.348   1.858  2.7163  0.0636 -0.2214
  125TIP3   OH2  380   0.337   0.331   2.254 -0.3522 -0.3819 -0.1067
  125TIP3    H1  381   0.320   0.336   2.348 -0.1032 -0.1660 -0.0726
  125TIP3    H2  382   0.428   0.303   2.247  0.6192  2.5891 -0.2464
  126TIP3   OH2  383   5.712   1.805   3.574 -0.0926 -0.1675 -0.1792
  126TIP3    H1  384   5.713   1.725   3.626 -2.9707 -1.4174 -1.9371
  126TIP3    H2  385   5.663   1.782   3.495 -0.5733  3.1931 -0.9449
  127TIP3   OH2  386   2.548   2.162   1.451 -0.3879 -0.6254  0.8853
  127TIP3    H1  387   2.566   2.075   1.414 -0.6685 -0.3024 -0.0122
  127TIP3    H2  388   2.628   2.212   1.438 -1.0135 -0.0203 -0.7132
  128TIP3   OH2  389   3.103   1.359   1.692 -0.1431 -0.4141 -0.2227
  128TIP3    H1  390   3.126   1.271   1.661 -0.2679 -0.8476  0.8814
  128TIP3    H2  391   3.113   1.354   1.787 -0.5492  0.6542 -0.1163
  129TIP3   OH2  392   3.683   5.444   3.568  0.8970 -0.0758  0.2801
  129TIP3    H1  393   3.647   5.471   3.484 -0.4939 -0.1688  0.8372
  129TIP3    H2  394   3.654   5.353   3.578  0.2560  0.2317  1.2795
  130TIP3   OH2  395   1.290   0.892   1.832 -0.1166 -0.2976 -0.1318
  130TIP3    H1  396   1.214   0.902   1.776  0.3768 -1.7918 -1.0839
  130TIP3    H2  397   1.296   0.798   1.849  1.7596 -0.2473 -0.4086
  131TIP3   OH2  398   4.525   2.073   0.820 -0.4794 -0.5589 -0.0151
  131TIP3    H1  399   4.607   2.109   0.853 -0.4629 -0.9380  0.3612
  131TIP3    H2  400   4.476   2.150   0.789 -0.6903 -0.1401  1.3231
  132TIP3   OH2  401   5.956   4.180   2.203 -0.4972  0.5691 -0.0354
  132TIP3    H1  402   5.883   4.155   2.147 -0.5506  1.3523 -0.3194
  132TIP3    H2  403   6.034   4.145   2.159 -0.7084 -0.4805  0.3919
  133TIP3   OH2  404   2.713   1.231   0.297  0.7064 -0.1583 -0.8958
  133TIP3    H1  405   2.747   1.225   0.208 -0.1588 -1.2294 -1.1700
  133TIP3    H2  406   2.636   1.288   0.290  0.6731 -0.1943 -0.8259
  134TIP3   OH2  407   2.608   0.165   2.558 -0.0785  0.1264 -0.3197
  134TIP3    H1  408   2.678   0.217   2.597  0.2903  0.0297 -0.8520
  134TIP3    H2  409   2.527   0.210   2.583  0.0398 -0.8647  1.9743
  135TIP3   OH2  410   3.486   2.005   1.169  0.1283 -0.1559  0.7881
  135TIP3    H1  411   3.454   1.993   1.079  2.1024 -1.9068  0.2657
  135TIP3    H2  412   3.480   1.918   1.208  1.4818  0.0929  1.5816
  136TIP3   OH2  413   3.125   5.862   1.555 -0.3367  0.4924 -0.2128
  136TIP3    H1  414   3.190   5.829   1.618 -0.3108 -2.6229 -1.7680
  136TIP3    H2  415   3.177   5.889   1.479 -0.5968  1.1342 -0.1582
  137TIP3   OH2  416   4.690   5.431   0.192  0.2111  0.4647 -0.5074
  137TIP3    H1  417   4.667   5.341   0.213 -0.1402  0.3807 -1.2654
  137TIP3    H2  418   4.607   5.471   0.164  0.5068  0.8307 -0.8572
  138TIP3   OH2  419   6.143   3.099   4.700 -0.0190  0.5650 -0.0268
  138TIP3    H1  420   6.144   3.040   4.624  0.4052 -0.5502  0.8181
  138TIP3    H2  421   6.054   3.091   4.735  0.5863 -1.0675  1.2004
  139TIP3   OH2  422   5.078   1.877   4.183 -0.5839 -0.5132  0.5860
  139TIP3    H1  423   5.101   1.800   4.131  0.4045 -0.4306  0.8897
  139TIP3    H2  424   5.100   1.852   4.273 -1.0720 -0.1926  0.7942
  140TIP3   OH2  425   3.461   0.353   1.479 -0.0992 -0.7011 -0.0385
  140TIP3    H1  426   3.522   0.420   1.447 -1.0973  0.7629  1.0774
  140TIP3    H2  427   3.474   0.353   1.574  0.1213 -2.3363 -0.0609
  141TIP3   OH2  428   5.347   0.719   2.881  0.4018  0.3879 -0.2977
  141TIP3    H1  429   5.310   0.798   2.921  2.2852  0.7168  0.8856
  141TIP3    H2  430   5.293   0.647   2.913  0.9821  0.8146  1.7087
  142TIP3   OH2  431   0.935   2.603   4.892 -0.8141 -0.5491  0.0328
  142TIP3    H1  432   0.922   2.647   4.808  0.6958 -0.3755 -0.1291
  142TIP3    H2  433   0.846   2.588   4.926 -1.3891  3.5453  0.5949
  143TIP3   OH2  434   4.981   3.743   5.222 -0.0244  0.2112  0.0047
  143TIP3    H1  435   5.061   3.791   5.244  0.8616 -0.7552 -1.0695
  143TIP3    H2  436   5.001   3.699   5.139 -1.6097 -0.1743 -0.1822
  144TIP3   OH2  437   5.998   1.034   0.647 -0.3669  0.0441  0.1061
  144TIP3    H1  438   5.938   1.056   0.718  0.7932  0.4404  0.9702
  144TIP3    H2  439   5.981   0.941   0.630  0.4158 -0.4447  1.9267
  145TIP3   OH2  440   5.005   0.212   0.021 -0.6042  0.3889  0.6403
  145TIP3    H1  441   5.010   0.308   0.026 -1.4388  0.3949  1.4374
  145TIP3    H2  442   4.929   0.189   0.074 -1.7617 -0.5582 -1.3754
  146TIP3   OH2  443   5.552  -0.006   2.221  0.2874 -0.7283  0.6383
  146TIP3    H1  444   5.517  -0.048   2.143  2.5046 -2.1212  0.3646
  146TIP3    H2  445   5.605   0.067   2.187  0.9575 -1.1157  0.8420
  147TIP3   OH2  446   0.809   3.251   4.690 -0.0784  0.1652 -0.3172
  147TIP3    H1  447   0.798   3.261   4.785  1.5659 -0.0442 -0.0829
  147TIP3    H2  448   0.900   3.222   4.680 -0.2365  0.2105 -1.9647
  148TIP3   OH2  449   2.745   0.557   0.467 -0.3517  0.4020 -0.3909
  148TIP3    H1  450   2.828   0.513   0.450  0.2858  1.8789 -1.0955
  148TIP3    H2  451   2.753   0.643   0.426 -1.7770  1.0165  0.5596
  149TIP3   OH2  452   1.246   3.359   3.198  0.5976  0.6487 -0.2258
  149TIP3    H1  453   1.188   3.309   3.141 -1.8335  1.1134  1.7309
  149TIP3    H2  454   1.300   3.293   3.241 -2.1696 -0.3497  1.8833
  150TIP3   OH2  455   5.178   3.377   2.422 -0.6353  0.4284 -0.1044
  150TIP3    H1  456   5.118   3.306   2.399 -1.1435  0.2124  1.7613
  150TIP3    H2  457   5.124   3.455   2.424 -0.5019  0.5213 -0.1400
  151TIP3   OH2  458   3.051   5.849   1.861  0.6063  0.3580  0.5999
  151TIP3    H1  459   3.121   5.812   1.807  1.1442  0.8236  0.9762
  151TIP3    H2  460   3.084   5.844   1.951  0.7843  1.9407  0.6412
  152TIP3   OH2  461   1.256   3.412   3.759  0.3411  0.5378  0.1437
  152TIP3    H1  462   1.176   3.359   3.751  0.4912  0.0774  1.5307
  152TIP3    H2  463   1.296   3.408   3.673  0.5514 -1.9685  0.3334
  153TIP3   OH2  464   3.966   1.199   1.692 -0.3839 -0.5197 -0.7788
  153TIP3    H1  465   3.927   1.281   1.723 -0.0353 -0.9001  0.6833
  153TIP3    H2  466   3.927   1.185   1.606 -1.7081  0.3070 -0.3166
  154TIP3   OH2  467   5.201   0.673   2.083  0.1826 -0.1488 -0.6397
  154TIP3    H1  468   5.109   0.654   2.104  0.4761 -1.5224 -0.5508
  154TIP3    H2  469   5.251   0.630   2.152  0.9755 -1.2393 -1.8712
  155TIP3   OH2  470   1.583   5.743   0.637  0.6019 -0.0541 -0.8288
  155TIP3    H1  471   1.559   5.702   0.720  0.0434  1.2873 -0.3029
  155TIP3    H2  472   1.653   5.688   0.602  0.6888 -0.7616  0.4283
  156TIP3   OH2  473   1.984   2.714   3.925 -0.5064 -1.0235 -0.4611
  156TIP3    H1  474   2.076   2.694   3.911 -0.7483 -2.6718  0.1007
  156TIP3    H2  475   1.937   2.653   3.867 -1.2344  0.3740 -1.3762
  157TIP3   OH2  476   5.273   1.504   1.506 -0.3974  0.0156 -0.6475
  157TIP3    H1  477   5.225   1.438   1.455 -0.6433 -0.6222  0.3907
  157TIP3    H2  478   5.354   1.518   1.457 -0.2210 -1.2594 -0.7535
  158TIP3   OH2  479   2.516   0.324   0.053 -0.1043  0.0252  0.0589
  158TIP3    H1  480   2.554   0.324   0.141 -0.0584  0.7210  0.0409
  158TIP3    H2  481   2.428   0.358   0.064  0.5723  1.9982 -0.4418
  159TIP3   OH2  482   3.206   0.620   0.843 -0.0234  0.1959  0.2578
  159TIP3    H1  483   3.175   0.596   0.930  0.0704  0.0408  0.2483
  159TIP3    H2  484   3.125   0.635   0.793 -0.0727  0.6321  0.4660
  160TIP3   OH2  485   6.072   4.051   4.569 -0.1066  0.2550 -0.0737
  160TIP3    H1  486   6.111   3.967   4.542  0.3895  0.4886 -0.0901
  160TIP3    H2  487   6.022   4.029   4.647 -1.0824 -0.3159 -0.8425
  161TIP3   OH2  488   3.959   1.883   0.921  0.3188 -0.1758  0.1578
  161TIP3    H1  489   4.007   1.963   0.944  2.5144 -1.6559  0.8888
  161TIP3    H2  490   3.970   1.826   0.997 -0.4985 -1.5062 -0.7039
  162TIP3   OH2  491   3.744   0.885   1.183 -0.2144 -0.5393 -0.4781
  162TIP3    H1  492   3.741   0.793   1.159  0.1132 -0.7645  0.3188
  162TIP3    H2  493   3.837   0.904   1.195 -0.2940 -0.1600 -0.4613
  163TIP3   OH2  494   1.082   5.464   1.283  0.2328 -0.3197 -0.9279
  163TIP3    H1  495   1.032   5.437   1.360 -2.2930  2.0480 -1.6251
  163TIP3    H2  496   1.172   5.473   1.314 -0.4149 -1.1079  1.3006
  164TIP3   OH2  497   3.743   5.215   0.525 -0.0251  0.2281  0.5759
  164TIP3    H1  498   3.741   5.128   0.565 -0.2647  0.0470  0.1766
  164TIP3    H2  499   3.722   5.199   0.432 -0.6459  0.7729  0.6194
  165TIP3   OH2  500   2.131   4.651   0.213 -0.1561  0.0793 -0.0612
  165TIP3    H1  501   2.100   4.727   0.164  0.5988  1.7884  2.0392
  165TIP3    H2  502   2.206   4.619   0.163 -0.9272  0.2372 -1.3506
  166TIP3   OH2  503   4.811   1.601   2.565 -0.5407  0.2525  0.0216
  166TIP3    H1  504   4.760   1.530   2.604  0.4637 -0.0882  0.7257
  166TIP3    H2  505   4.748   1.649   2.511 -1.2974 -0.9775 -0.1984
  167TIP3   OH2  506   4.993   0.307   2.493  0.1480 -0.0108 -0.1391
  167TIP3    H1  507   5.051   0.350   2.555  0.5028 -0.1947 -0.3436
  167TIP3    H2  508   5.051   0.262   2.432 -0.1778  0.9308 -1.1666
  168TIP3   OH2  509   3.182   0.120   1.571  0.2410  0.1295  0.1998
  168TIP3    H1  510   3.156   0.149   1.484  2.4339 -1.4623 -1.0311
  168TIP3    H2  511   3.138   0.035   1.582  1.3156 -0.4766 -0.0799
  169TIP3   OH2  512   3.341   1.637   1.599  0.2263  0.1370  0.2359
  169TIP3    H1  513   3.331   1.603   1.688  0.4821 -0.2615  0.1103
  169TIP3    H2  514   3.257   1.681   1.581 -0.8924 -2.1914 -0.3734
  170TIP3   OH2  515   3.341   5.409   2.745 -0.2412  0.0020  0.2436
  170TIP3    H1  516   3.355   5.437   2.655  2.4967  2.2376  1.2936
  170TIP3    H2  517   3.429   5.393   2.779 -1.1432  0.5443  2.9568
  171TIP3   OH2  518   2.694   4.299   4.448  0.1031 -0.2683  0.4272
  171TIP3    H1  519   2.695   4.255   4.533  0.2256 -1.2634 -0.0774
  171TIP3    H2  520   2.701   4.228   4.384 -1.9541  0.2920 -0.4741
  172TIP3   OH2  521   1.549   5.745   1.694 -0.0478 -0.1700  0.0421
  172TIP3    H1  522   1.496   5.824   1.683  0.7210  0.7088  2.3221
  172TIP3    H2  523   1.558   5.736   1.789  1.8458 -1.6817 -0.2580
  173TIP3   OH2  524   5.380   0.099   0.382  0.1058 -0.6491  0.2777
  173TIP3    H1  525   5.452   0.136   0.433 -0.4389 -0.3248  0.8130
  173TIP3    H2  526   5.305   0.156   0.399 -0.6874 -1.8399  0.9441
  174TIP3   OH2  527   4.561   2.134   4.543 -0.4190  0.1641  0.0373
  174TIP3    H1  528   4.623   2.084   4.596  0.6610 -1.8780 -3.0454
  174TIP3    H2  529   4.614   2.203   4.504 -0.4003 -0.5993 -1.3076
  175TIP3   OH2  530   0.002   1.802   2.469 -0.0969  0.2541 -0.2902
  175TIP3    H1  531  -0.009   1.789   2.563  0.2299  0.0196 -0.2814
  175TIP3    H2  532   0.091   1.835   2.460  0.3988 -1.1424 -0.6390
  176TIP3   OH2  533   4.773   3.191   2.239  0.2496 -0.1795  0.4623
  176TIP3    H1  534   4.696   3.135   2.252  0.5207 -0.8514 -0.7535
  176TIP3    H2  535   4.768   3.217   2.148  1.6401 -0.4871  0.2901
  177TIP3   OH2  536   4.453   0.642   0.831  0.2684  0.0656 -0.3159
  177TIP3    H1  537   4.497   0.688   0.902  1.2343  0.4793 -1.1727
  177TIP3    H2  538   4.485   0.684   0.751 -3.0842  1.6509 -0.9231
  178TIP3   OH2  539   5.386   3.068   4.779 -0.0249  0.1608 -0.3045
  178TIP3    H1  540   5.402   3.128   4.706  0.1773  1.4540  0.7812
  178TIP3    H2  541   5.460   3.082   4.838 -0.1066 -0.9809  0.0872
  179TIP3   OH2  542   5.490   6.131   0.661  0.0238 -0.0926 -0.3775
  179TIP3    H1  543   5.483   6.112   0.754  2.5519  2.2882  0.3601
  179TIP3    H2  544   5.562   6.074   0.631 -1.1223 -1.2349 -1.0210
  180TIP3   OH2  545   2.374   3.034   4.612  0.6960  0.2629 -0.0354
  180TIP3    H1  546   2.299   3.069   4.566  1.4473 -0.3965 -1.8269
  180TIP3    H2  547   2.360   3.058   4.704 -0.6571  1.9075 -0.6453
  181TIP3   OH2  548   1.833   3.935   0.801 -0.0235 -0.0687  0.0270
  181TIP3    H1  549   1.804   3.874   0.733  1.9266 -1.4655  0.3900
  181TIP3    H2  550   1.902   3.887   0.847  1.2598  2.2709  0.5977
  182TIP3   OH2  551   4.287   1.484   1.826  0.6064  0.2393  0.2354
  182TIP3    H1  552   4.305   1.509   1.917 -0.5847 -1.4590  0.9546
  182TIP3    H2  553   4.201   1.522   1.808 -0.0591 -1.0891  0.5021
  183TIP3   OH2  554   1.126   5.056   1.872 -0.0656  0.7038 -0.2188
  183TIP3    H1  555   1.146   5.089   1.785  1.9544  0.1288 -0.0079
  183TIP3    H2  556   1.190   5.099   1.929  0.2807 -0.8307  0.5830
  184TIP3   OH2  557   3.756   0.619   0.979  0.3078  0.0075 -0.6021
  184TIP3    H1  558   3.663   0.631   0.961  0.6533  1.2417 -1.6442
  184TIP3    H2  559   3.775   0.530   0.948 -0.2112  0.3030 -1.8077
  185TIP3   OH2  560   1.511   5.739   0.229  0.1706  0.9595 -0.8507
  185TIP3    H1  561   1.591   5.692   0.209  1.0211  1.7850  0.4927
  185TIP3    H2  562   1.540   5.824   0.263 -1.2536  1.1717 -0.0809
  186TIP3   OH2  563   2.512   3.750   0.056  0.1864  0.1559  0.0210
  186TIP3    H1  564   2.517   3.713   0.144  1.6840 -0.0422 -0.1304
  186TIP3    H2  565   2.565   3.691   0.003 -0.9463  0.1134 -1.0828
  187TIP3   OH2  566   4.423   0.932   2.901  0.2980  0.2138  0.2891
  187TIP3    H1  567   4.450   0.970   2.818 -1.0486  0.7799  0.1081
  187TIP3    H2  568   4.384   1.005   2.950  0.6759 -0.2085  1.2399
  188TIP3   OH2  569   1.077   2.882   4.909  0.1703 -0.0833 -0.5971
  188TIP3    H1  570   1.000   2.862   4.963  0.5247  0.7311  0.2073
  188TIP3    H2  571   1.152   2.855   4.963  0.5128  0.4367 -0.8147
  189TIP3   OH2  572   1.407   6.127   4.984  0.7559 -0.1308 -0.3416
  189TIP3    H1  573   1.371   6.097   5.068  0.5355  2.5397  0.5674
  189TIP3    H2  574   1.436   6.047   4.941 -1.2686 -1.8050  1.2682
  190TIP3   OH2  575   5.587   1.282   1.889 -0.1609  0.1915  0.4724
  190TIP3    H1  576   5.574   1.315   1.800  2.8523  2.2898  0.7483
  190TIP3    H2  577   5.531   1.205   1.894 -1.3056  0.7300 -2.8392
  191TIP3   OH2  578   3.607   5.389   1.685  0.2208  0.0548  0.3117
  191TIP3    H1  579   3.567   5.393   1.598 -0.8417 -0.0211  0.7935
  191TIP3    H2  580   3.623   5.480   1.708 -0.3834  0.1332  0.4354
  192TIP3   OH2  581   5.639   0.709   4.651  0.2169  0.5125 -0.4262
  192TIP3    H1  582   5.591   0.769   4.593  0.0786  2.5542  1.6824
  192TIP3    H2  583   5.730   0.735   4.643  0.3531 -0.0598 -0.7123
  193TIP3   OH2  584   1.182   4.484   0.949 -0.2918  0.2301  0.5038
  193TIP3    H1  585   1.188   4.460   0.856  0.4279 -0.8227  0.8124
  193TIP3    H2  586   1.186   4.580   0.949 -1.0726  0.2834 -0.6015
  194TIP3   OH2  587   1.637   2.528   1.580  0.2605  0.3585  0.0260
  194TIP3    H1  588   1.557   2.535   1.529  0.7822 -0.3979 -0.9160
  194TIP3    H2  589   1.668   2.618   1.589 -1.6469  0.8471  1.9628
  195TIP3   OH2  590   4.073   1.339   2.602 -0.2623 -0.1787  0.4589
  195TIP3    H1  591   3.995   1.393   2.615  0.4007  1.0575 -0.7150
  195TIP3    H2  592   4.145   1.401   2.599  0.7093 -1.2796  0.8976
  196TIP3   OH2  593   4.938   0.153   1.797 -0.2024 -0.6580  0.0201
  196TIP3    H1  594   4.861   0.172   1.851  0.5723  0.4062  0.7659
  196TIP3    H2  595   4.949   0.058   1.805 -1.1198 -0.7458  0.3314
  197TIP3   OH2  596   5.454   0.276   2.278  0.7192  0.5093  0.2868
  197TIP3    H1  597   5.475   0.186   2.252  0.9553  0.3581  0.9877
  197TIP3    H2  598   5.504   0.290   2.358 -0.4987  0.7429  1.0129
  198TIP3   OH2  599   1.568   4.319   1.565 -0.0348  0.2604 -0.0002
  198TIP3    H1  600   1.484   4.315   1.611  0.2734 -0.3998  0.5073
  198TIP3    H2  601   1.554   4.267   1.485  0.5025 -1.5878  1.0754
  199TIP3   OH2  602   3.508   1.415   2.388 -0.3406  0.0636  0.0144
  199TIP3    H1  603   3.542   1.414   2.298  0.7544 -1.4325  0.4284
  199TIP3    H2  604   3.417   1.442   2.378  0.6492  3.2950 -1.2107
  200TIP3   OH2  605   2.701   1.604   1.891  0.6160  0.5195 -0.4146
  200TIP3    H1  606   2.791   1.572   1.901  0.8436  0.6706 -1.8988
  200TIP3    H2  607   2.706   1.697   1.913  1.1364  0.8800 -2.0148
  201TIP3   OH2  608   4.776   1.170   0.721 -0.6730 -0.1314  0.3768
  201TIP3    H1  609   4.804   1.191   0.810  0.2172 -2.4299  0.6806
  201TIP3    H2  610   4.695   1.120   0.733  0.2668 -1.7830  0.0106
  202TIP3   OH2  611   4.123   2.092   2.207 -0.3765  0.1009  0.4062
  202TIP3    H1  612   4.154   2.181   2.225 -0.5617  0.6128 -1.6335
  202TIP3    H2  613   4.135   2.081   2.112 -1.3715 -1.6539  0.4523
  203TIP3   OH2  614   2.510   5.075   2.600 -0.1815 -0.2987 -0.3783
  203TIP3    H1  615   2.458   5.056   2.679 -0.2697 -1.3523 -0.6777
  203TIP3    H2  616   2.597   5.096   2.634 -1.0387  2.5412  0.1910
  204TIP3   OH2  617   4.032   2.098   1.197  0.3168 -0.1830 -0.3889
  204TIP3    H1  618   4.094   2.072   1.265 -0.7402  1.0890  1.0918
  204TIP3    H2  619   3.946   2.075   1.233 -0.5399  3.7575  0.2490
  205TIP3   OH2  620   4.798   1.704   0.708  0.5023  0.1961  0.1202
  205TIP3    H1  621   4.714   1.748   0.723  1.1593  1.4673  0.1318
  205TIP3    H2  622   4.834   1.691   0.795  1.2993  1.6263  0.0274
  206TIP3   OH2  623   4.924   0.706   1.399 -0.4407 -0.2287  0.2438
  206TIP3    H1  624   4.855   0.758   1.440 -2.3154 -2.2498 -0.2660
  206TIP3    H2  625   4.909   0.617   1.430  2.8713 -0.5042  1.3337
  207TIP3   OH2  626   0.107   6.081   1.679 -0.5553  0.5684  0.2766
  207TIP3    H1  627   0.071   6.170   1.682 -0.1257  0.8100 -1.4609
  207TIP3    H2  628   0.031   6.025   1.667 -0.6529  0.8491 -0.4350
  208TIP3   OH2  629   1.696   1.988   5.025  0.1442 -0.1303 -0.1798
  208TIP3    H1  630   1.752   2.035   4.964  0.9542 -1.4059 -0.4405
  208TIP3    H2  631   1.756   1.931   5.073 -0.5687  0.3934  1.3658
  209TIP3   OH2  632   4.018   0.953   1.259 -0.1315  0.1568  0.8220
  209TIP3    H1  633   4.081   0.986   1.195 -1.6154  1.6894  0.1093
  209TIP3    H2  634   4.071   0.909   1.325  1.4050 -2.5932 -2.0821
  210TIP3   OH2  635   1.998   5.845   3.287 -0.1830  0.0024 -0.0309
  210TIP3    H1  636   2.066   5.788   3.324 -2.3198 -1.6711  1.4110
  210TIP3    H2  637   2.027   5.861   3.197  0.6380 -3.1079 -0.3771
  211TIP3   OH2  638   2.288   0.723   1.906 -0.3193  0.1182  0.0020
  211TIP3    H1  639   2.276   0.792   1.841 -0.9445 -0.4320 -0.4742
  211TIP3    H2  640   2.382   0.705   1.905 -0.3333  0.0838 -0.7776
  212TIP3   OH2  641   0.506   5.465   4.381  0.1650 -0.1808 -0.5187
  212TIP3    H1  642   0.551   5.544   4.350  1.6419  0.1454  2.2950
  212TIP3    H2  643   0.416   5.494   4.398  0.9860  1.2639  1.6437
  213TIP3   OH2  644   3.203   0.282   0.928  0.2930 -0.3551  0.4695
  213TIP3    H1  645   3.241   0.361   0.966  1.9103 -0.9886  0.1902
  213TIP3    H2  646   3.172   0.311   0.842 -0.9731  0.4431  1.1708
  214TIP3   OH2  647   5.808   3.214   4.721 -0.0977  0.0748  0.2367
  214TIP3    H1  648   5.785   3.136   4.771  2.1097 -1.6666 -1.3632
  214TIP3    H2  649   5.871   3.260   4.777  0.2419 -0.4116  0.2563
  215TIP3   OH2  650   4.105   1.893   1.838 -0.1030  0.6863 -0.3315
  215TIP3    H1  651   4.134   1.803   1.858  0.2633  1.3936  2.5325
  215TIP3    H2  652   4.024   1.904   1.888 -0.8533  1.5130 -1.7234
  216TIP3   OH2  653   1.812   3.632   5.223  0.3580 -0.0561  0.2907
  216TIP3    H1  654   1.740   3.692   5.205 -1.2678 -1.6252  1.3688
  216TIP3    H2  655   1.841   3.603   5.137 -1.3682 -0.5955 -0.1430
  217TIP3   OH2  656   4.062   5.930   0.036 -0.1240 -0.4085  0.5230
  217TIP3    H1  657   4.107   5.992   0.093 -0.4046 -0.2304  0.5487
  217TIP3    H2  658   4.132   5.881  -0.006  0.1296  0.8042 -0.4936
  218TIP3   OH2  659   5.574   0.187   3.340  0.0045  0.6578 -0.1865
  218TIP3    H1  660   5.667   0.209   3.343  0.1875 -0.2815  2.0352
  218TIP3    H2  661   5.557   0.143   3.424 -1.6440 -2.2470 -1.9401
  219TIP3   OH2  662   4.874   2.613   2.674 -0.0082  0.4695  0.2153
  219TIP3    H1  663   4.879   2.695   2.625 -1.2991 -0.2661 -1.2039
  219TIP3    H2  664   4.781   2.591   2.675  0.3478 -1.0921  0.3632
  220TIP3   OH2  665   1.065   6.121   0.508  0.8110 -0.0510 -0.1577
  220TIP3    H1  666   1.040   6.030   0.517  0.5594  0.1116  0.9733
  220TIP3    H2  667   1.029   6.163   0.587  0.2532  1.1660 -1.0392
  221TIP3   OH2  668   2.912   2.226   1.120  0.1461  0.2533 -0.7333
  221TIP3    H1  669   2.827   2.189   1.095 -0.1995  0.8633 -0.4635
  221TIP3    H2  670   2.947   2.263   1.039  0.0128  0.2872 -0.7757
  222TIP3   OH2  671   1.605   5.844   1.388 -0.5039  0.3146  0.0769
  222TIP3    H1  672   1.617   5.750   1.370 -0.2219  0.3083  0.2869
  222TIP3    H2  673   1.690   5.872   1.422 -0.3773  0.7993 -0.6415
  223TIP3   OH2  674   0.803   4.414   5.069  0.4439 -0.0733 -0.4092
  223TIP3    H1  675   0.796   4.319   5.081 -1.5501  0.1981  0.7531
  223TIP3    H2  676   0.830   4.447   5.155 -0.6132  0.5887 -0.3262
  224TIP3   OH2  677   6.103   2.906   0.898  0.3129  0.6914  0.0204
  224TIP3    H1  678   6.071   2.937   0.982  0.5592  0.9822  0.0063
  224TIP3    H2  679   6.125   2.985   0.849  0.5005  0.5146 -0.1874
  225TIP3   OH2  680   3.749   4.493   0.296  0.1349  0.0494  0.0394
  225TIP3    H1  681   3.732   4.501   0.390 -0.9719  1.4584 -0.2738
  225TIP3    H2  682   3.664   4.470   0.258  0.6446 -0.8349 -0.5860
  226TIP3   OH2  683   3.783   5.560   2.226  0.2117  0.3610  0.3845
  226TIP3    H1  684   3.815   5.504   2.155 -0.6582 -0.2608  0.4769
  226TIP3    H2  685   3.860   5.610   2.254  0.7085  0.1230 -0.5422
  227TIP3   OH2  686   2.405   0.710   1.224  0.5697 -0.1223  0.4299
  227TIP3    H1  687   2.378   0.798   1.200 -0.2202 -0.9475 -1.8404
  227TIP3    H2  688   2.362   0.694   1.308 -0.2098  1.2555  0.3068
  228TIP3   OH2  689   3.020   6.057   1.233 -0.3204  0.1809  0.0170
  228TIP3    H1  690   3.052   6.136   1.277  0.2858  0.7374 -1.3923
  228TIP3    H2  691   2.935   6.082   1.198 -0.1391  0.1954 -0.4094
  229TIP3   OH2  692   5.118   5.445   1.776  0.7547  0.0749  0.5827
  229TIP3    H1  693   5.027   5.425   1.799  0.7910 -0.1287  0.5496
  229TIP3    H2  694   5.128   5.539   1.794  1.0307 -0.2506  2.1918
  230TIP3   OH2  695   5.754   1.641   0.963  0.1172 -0.3700  0.0487
  230TIP3    H1  696   5.827   1.703   0.961 -1.3096  1.4485  1.7161
  230TIP3    H2  697   5.742   1.615   0.872  2.5483 -0.3597 -0.3007
  231TIP3   OH2  698   4.192   0.887   0.868 -0.2051  0.3915  0.0939
  231TIP3    H1  699   4.194   0.982   0.875 -0.0081  0.3837  0.1470
  231TIP3    H2  700   4.224   0.869   0.779 -0.8069  0.4015 -0.1261
  232TIP3   OH2  701   2.441   5.738   0.255 -0.5418  0.3412  0.4688
  232TIP3    H1  702   2.403   5.745   0.343 -0.6647 -1.2813  0.5724
  232TIP3    H2  703   2.482   5.651   0.254 -0.7316  0.2582 -1.1412
  233TIP3   OH2  704   1.098   0.159   3.174  0.1026  0.2969 -0.1185
  233TIP3    H1  705   1.158   0.164   3.249 -0.2417  0.5467  0.1429
  233TIP3    H2  706   1.140   0.098   3.113 -0.2165 -0.8669  0.8164
  234TIP3   OH2  707   2.590   3.762   4.445  0.1714 -0.4214  0.3592
  234TIP3    H1  708   2.605   3.742   4.353 -1.2950 -0.2275  0.0526
  234TIP3    H2  709   2.562   3.854   4.445 -0.5231 -0.6284  0.9166
  235TIP3   OH2  710   0.767   1.456   2.051  0.9396  0.4463 -0.5033
  235TIP3    H1  711   0.795   1.479   1.962  1.2487 -0.0512 -0.5381
  235TIP3    H2  712   0.815   1.375   2.071 -1.0378 -0.8441 -0.8297
  236TIP3   OH2  713   6.047   1.537   2.371 -0.5050 -0.7772  0.2525
  236TIP3    H1  714   5.953   1.548   2.367 -0.2157  1.5385 -0.8263
  236TIP3    H2  715   6.071   1.505   2.284  0.0508  1.7529 -0.5586
  237TIP3   OH2  716   0.692   1.174   1.262  0.0351 -0.4799  0.1694
  237TIP3    H1  717   0.733   1.163   1.347  1.1074 -0.4072 -0.3391
  237TIP3    H2  718   0.656   1.088   1.240  2.2853 -1.2413 -0.6157
  238TIP3   OH2  719   1.656   2.412   0.767 -0.0687  0.1877  0.0432
  238TIP3    H1  720   1.691   2.497   0.794 -0.1126  0.7388 -1.5946
  238TIP3    H2  721   1.577   2.401   0.820 -0.0083  1.1256  0.3452
  239TIP3   OH2  722   5.009   1.644   1.310  0.2449 -0.0804  0.8548
  239TIP3    H1  723   5.001   1.634   1.405  0.0754 -0.1997  0.8293
  239TIP3    H2  724   5.069   1.718   1.298 -0.7132  0.7396  1.0653
  240TIP3   OH2  725   5.230   3.725   2.960  0.4218 -0.5207 -0.1885
  240TIP3    H1  726   5.210   3.734   2.867  1.0975 -2.3174 -0.5194
  240TIP3    H2  727   5.237   3.631   2.975 -0.8254 -0.3294  1.9293
  241TIP3   OH2  728   2.043   5.257   4.267  0.0382  0.3973  0.2140
  241TIP3    H1  729   2.103   5.327   4.291  0.0216  0.6040 -0.3634
  241TIP3    H2  730   2.057   5.244   4.173  0.7904 -1.0647  0.5006
  242TIP3   OH2  731   5.793   0.767   0.709 -0.4345 -0.0860 -0.6691
  242TIP3    H1  732   5.723   0.706   0.689  0.0624 -1.4342  1.5678
  242TIP3    H2  733   5.870   0.730   0.666 -0.1963 -0.9125  0.4420
  243TIP3   OH2  734   6.046   4.356   2.830  0.2544  0.5541 -0.5314
  243TIP3    H1  735   6.048   4.261   2.842  0.5831  0.3637 -1.9984
  243TIP3    H2  736   5.987   4.370   2.755  0.3900  1.4836 -0.4777
  244TIP3   OH2  737   2.220   1.995   0.351 -0.5972 -0.1372  0.4443
  244TIP3    H1  738   2.152   1.932   0.326  0.8534 -1.1031 -1.1215
  244TIP3    H2  739   2.293   1.977   0.293  0.3880  2.0579  0.9363
  245TIP3   OH2  740   1.630   1.337   0.996  0.0940  0.3198 -0.3140
  245TIP3    H1  741   1.695   1.380   0.941 -0.2682  0.6081 -0.5207
  245TIP3    H2  742   1.576   1.287   0.934  1.4367 -1.6695  0.0630
  246TIP3   OH2  743   6.262   1.326   1.619  0.0436  0.2517  0.1283
  246TIP3    H1  744   6.209   1.248   1.638  1.2617 -0.1340  2.0929
  246TIP3    H2  745   6.238   1.350   1.530 -2.2487 -0.8620  0.4057
  247TIP3   OH2  746   0.679   2.065   1.558  0.6644 -0.4204 -0.2677
  247TIP3    H1  747   0.753   2.124   1.573 -0.6176  1.0892  0.2919
  247TIP3    H2  748   0.675   2.011   1.637 -1.3246  2.3003  1.6029
  248TIP3   OH2  749   0.396   2.443   4.302  0.1559  0.1255 -0.2890
  248TIP3    H1  750   0.319   2.492   4.273 -0.0624 -0.2053 -0.2679
  248TIP3    H2  751   0.465   2.468   4.241  0.2587  1.0783  0.2020
  249TIP3   OH2  752   0.108   0.771   3.561 -0.0931 -0.8651  0.1947
  249TIP3    H1  753   0.147   0.853   3.594  0.0759 -1.1166  0.6329
  249TIP3    H2  754   0.097   0.785   3.468  1.2513 -0.8598  0.0251
  250TIP3   OH2  755   6.164   1.273   2.874  0.1099 -0.0606 -0.1046
  250TIP3    H1  756   6.168   1.353   2.926  1.0930  0.1510 -0.5082
  250TIP3    H2  757   6.239   1.278   2.815  0.0500 -1.1652 -0.2930
  251TIP3   OH2  758   5.788   2.325   2.132 -0.0315  0.1192  0.2571
  251TIP3    H1  759   5.818   2.285   2.214  0.9678 -1.1059 -0.6931
  251TIP3    H2  760   5.856   2.302   2.068 -1.5334 -0.1828 -1.2571
  252TIP3   OH2  761   0.220   1.870   0.649 -0.0677  0.0672 -0.0035
  252TIP3    H1  762   0.253   1.938   0.708 -0.3477 -0.0689  0.3110
  252TIP3    H2  763   0.169   1.812   0.706  0.1314 -0.3780 -0.2795
  253TIP3   OH2  764   2.195   4.480   5.243  0.0334  0.0281  0.0089
  253TIP3    H1  765   2.222   4.413   5.180 -0.0825  1.0892 -1.1977
  253TIP3    H2  766   2.140   4.540   5.193 -1.2186  0.1368  1.4702
  254TIP3   OH2  767   0.985   2.646   0.249 -0.1533  0.0417  0.7098
  254TIP3    H1  768   0.896   2.628   0.278  1.0223 -1.5502  3.5299
  254TIP3    H2  769   1.040   2.617   0.322  2.7762 -0.7579 -1.7187
  255TIP3   OH2  770   1.735   0.695   1.295 -0.3668  0.0752 -0.2682
  255TIP3    H1  771   1.708   0.689   1.203  0.1851  1.5219 -0.5390
  255TIP3    H2  772   1.714   0.785   1.320 -0.5236 -0.3181  1.0372
  256TIP3   OH2  773   0.744   1.772   0.184  0.8182 -0.5389  0.5935
  256TIP3    H1  774   0.651   1.780   0.205  0.6724  2.0979 -0.8230
  256TIP3    H2  775   0.747   1.711   0.110 -0.4033  3.2207 -2.7561
  257TIP3   OH2  776   0.992   2.061   1.774  0.3840 -0.4600  0.0190
  257TIP3    H1  777   0.903   2.028   1.780  0.6909 -1.6635 -1.5732
  257TIP3    H2  778   1.044   2.000   1.827  0.3275 -0.1013  0.4780
  258TIP3   OH2  779   1.272   2.358   3.716 -0.1569 -0.1148 -0.5193
  258TIP3    H1  780   1.266   2.331   3.624 -2.1586 -1.1783 -0.0946
  258TIP3    H2  781   1.250   2.279   3.766  4.4834 -0.6052  1.0192
  259TIP3   OH2  782   1.812   1.239   0.284  0.0589 -0.1296 -0.2867
  259TIP3    H1  783   1.875   1.193   0.228 -0.6207 -2.6811  0.9626
  259TIP3    H2  784   1.731   1.241   0.232  0.2190  0.0847 -0.5293
  260TIP3   OH2  785   5.051   1.408   2.437  0.0104 -0.6126 -0.3154
  260TIP3    H1  786   5.142   1.379   2.443  0.0930 -0.6361 -1.5703
  260TIP3    H2  787   5.001   1.339   2.480  0.6681 -0.1287  1.2549
  261TIP3   OH2  788   5.679   3.583   3.202 -0.1310 -0.2617  0.2035
  261TIP3    H1  789   5.698   3.497   3.166  0.6203 -0.0933  0.1845
  261TIP3    H2  790   5.631   3.628   3.132  1.5235  0.1481 -0.7074
  262TIP3   OH2  791   2.655   2.657   1.645  0.1450  0.0548  0.2630
  262TIP3    H1  792   2.699   2.707   1.577  1.9538 -1.3627  0.3618
  262TIP3    H2  793   2.569   2.636   1.608 -0.4266  2.6535 -0.0157
  263TIP3   OH2  794   1.075   0.635   2.749 -0.0134 -0.9575  0.4005
  263TIP3    H1  795   1.139   0.706   2.751 -0.1035 -0.8712  0.2331
  263TIP3    H2  796   0.991   0.677   2.767  0.0962 -1.2129  1.5641
  264TIP3   OH2  797   0.760   2.879   1.525  0.2997 -0.3711  0.0572
  264TIP3    H1  798   0.707   2.818   1.576  0.2727 -1.7827 -1.6092
  264TIP3    H2  799   0.696   2.927   1.472  0.2908  1.3622  1.5787
  265TIP3   OH2  800   1.525   1.834   4.037 -0.0275 -0.3233  0.5032
  265TIP3    H1  801   1.582   1.841   4.114  0.6136  2.4703 -0.1709
  265TIP3    H2  802   1.462   1.905   4.048 -1.3434 -1.3281 -0.4400
  266TIP3   OH2  803   5.937   0.404   2.940  0.1467 -0.2716 -0.2907
  266TIP3    H1  804   5.941   0.352   2.860  1.6018 -0.9812  0.2370
  266TIP3    H2  805   6.012   0.375   2.992  0.1259  1.3142  0.6507
  267TIP3   OH2  806   1.746   4.384   3.242  0.5080  0.1015 -0.1562
  267TIP3    H1  807   1.784   4.342   3.319 -0.4765 -0.6758 -0.0783
  267TIP3    H2  808   1.780   4.334   3.168 -1.5044 -1.5575 -0.0079
  268TIP3   OH2  809   5.871   0.600   0.327 -0.1552 -0.3216  0.3897
  268TIP3    H1  810   5.822   0.546   0.388 -2.3008 -0.4577 -1.4199
  268TIP3    H2  811   5.809   0.622   0.257  1.2521  2.6546 -0.0443
  269TIP3   OH2  812   6.256   0.802   1.668  0.2015 -0.4654 -0.4480
  269TIP3    H1  813   6.186   0.757   1.716 -1.0320  1.3783 -0.4757
  269TIP3    H2  814   6.335   0.751   1.688 -0.3469 -0.0003  3.1736
  270TIP3   OH2  815   1.770   1.360   1.216  0.0548  0.0228 -0.1171
  270TIP3    H1  816   1.720   1.375   1.135  0.4363  1.0451 -0.1716
  270TIP3    H2  817   1.847   1.312   1.188 -2.1673 -4.0614  0.3354
  271TIP3   OH2  818   1.859   1.061   2.337 -0.5039  0.3233  0.0418
  271TIP3    H1  819   1.929   1.124   2.354  0.5195 -0.2398 -1.9302
  271TIP3    H2  820   1.899   0.995   2.281 -2.2583 -0.7333 -0.0031
  272TIP3   OH2  821   4.034   4.000   5.147 -0.1138  0.3587  0.3041
  272TIP3    H1  822   3.968   4.063   5.119  0.8025  0.3383 -2.0215
  272TIP3    H2  823   4.027   3.998   5.242 -1.4158  2.5944  0.2841
  273TIP3   OH2  824   3.848   4.349   5.340 -0.0553  0.0341 -0.3450
  273TIP3    H1  825   3.806   4.319   5.260  0.0206  0.0496 -0.3903
  273TIP3    H2  826   3.879   4.437   5.319 -0.4522  0.2257 -0.1521
  274TIP3   OH2  827   3.204   4.005   4.937  0.1451 -0.1069  0.0031
  274TIP3    H1  828   3.187   4.000   4.843  0.6672 -0.2618 -0.0814
  274TIP3    H2  829   3.298   4.019   4.945 -0.1195  1.5359  0.4686
  275TIP3   OH2  830   5.624   6.006   3.095  0.2483  0.0389  0.1755
  275TIP3    H1  831   5.542   5.957   3.107  0.1281  0.3207  0.5284
  275TIP3    H2  832   5.660   5.972   3.014 -0.4747  0.2650 -0.2508
  276TIP3   OH2  833   0.349   1.049   3.145  0.7848  0.4248 -0.2151
  276TIP3    H1  834   0.443   1.046   3.128  1.3270  1.1605  2.4813
  276TIP3    H2  835   0.341   1.029   3.238 -1.7969 -0.3101 -0.5675
  277TIP3   OH2  836   2.159   1.726   3.888  0.2304  0.1932 -0.3228
  277TIP3    H1  837   2.113   1.690   3.812 -1.4915  1.2911  0.1841
  277TIP3    H2  838   2.164   1.652   3.949 -2.3701  0.4651  0.2903
  278TIP3   OH2  839   0.772   2.411   2.705 -0.1330  0.1076  0.1172
  278TIP3    H1  840   0.766   2.460   2.788 -0.6167 -2.4744  1.6555
  278TIP3    H2  841   0.861   2.376   2.705 -0.5160 -0.8782  0.1276
  279TIP3   OH2  842   1.552   1.594   1.371 -0.0765  0.1817  0.2576
  279TIP3    H1  843   1.557   1.522   1.308  2.9820  0.1404  0.4610
  279TIP3    H2  844   1.584   1.670   1.323  0.3578  0.5795  1.1616
  280TIP3   OH2  845   5.991   0.897   2.491 -0.0615 -0.1088  0.2390
  280TIP3    H1  846   6.055   0.828   2.477 -1.4565 -1.1485 -1.2114
  280TIP3    H2  847   6.025   0.973   2.443  0.3871 -0.4649 -0.0013
  281TIP3   OH2  848   1.665   1.847   1.891  0.2431  0.0548 -0.1929
  281TIP3    H1  849   1.694   1.927   1.934  0.0964  0.0650 -0.1130
  281TIP3    H2  850   1.705   1.776   1.943  1.3937  0.1012 -1.0006
  282TIP3   OH2  851   5.223   4.600   5.219  0.5217 -0.5710 -0.0565
  282TIP3    H1  852   5.267   4.641   5.144  0.3181  0.2154  0.2539
  282TIP3    H2  853   5.157   4.544   5.179  0.9790 -0.8141 -0.4912
  283TIP3   OH2  854   1.709   2.659   0.851 -0.4179 -0.0484 -0.5917
  283TIP3    H1  855   1.697   2.746   0.812  1.3948 -0.4203 -2.0267
  283TIP3    H2  856   1.772   2.672   0.921  0.8552 -0.4289 -1.6576
  284TIP3   OH2  857   6.428   6.010   2.324 -0.4699  0.2528  0.0546
  284TIP3    H1  858   6.347   6.017   2.272 -0.5556 -1.6265 -0.1159
  284TIP3    H2  859   6.402   6.036   2.412 -1.4218 -0.8664  0.1260
  285TIP3   OH2  860   0.258   3.049   2.164 -0.3626 -0.0105 -0.3673
  285TIP3    H1  861   0.326   3.000   2.212 -1.2478 -0.1244  0.8009
  285TIP3    H2  862   0.249   3.002   2.081  1.3414  0.3038 -0.7578
  286TIP3   OH2  863   3.053   2.590   1.861 -0.0775 -0.3714 -0.3866
  286TIP3    H1  864   3.061   2.571   1.954  0.6111 -1.8325 -0.7365
  286TIP3    H2  865   2.962   2.569   1.840 -0.5324  0.9822  0.1680
  287TIP3   OH2  866   2.648   1.955   1.293  0.6156 -0.3373 -0.0651
  287TIP3    H1  867   2.737   1.930   1.270  0.1039 -0.3043 -2.2639
  287TIP3    H2  868   2.597   1.874   1.289  0.1448 -0.0107 -1.0374
  288TIP3   OH2  869   1.766   5.847   4.868  0.2543  0.1393 -0.2217
  288TIP3    H1  870   1.825   5.922   4.861 -0.4668  0.5432 -2.0932
  288TIP3    H2  871   1.821   5.772   4.845 -0.4478  0.7524 -4.2580
  289TIP3   OH2  872   1.943   0.967   1.680  0.4196 -0.4252 -0.0689
  289TIP3    H1  873   1.878   1.036   1.662 -0.2279 -0.9335  0.3056
  289TIP3    H2  874   1.959   0.973   1.774  2.2489  0.8604 -0.4438
  290TIP3   OH2  875   2.168   2.100   2.749  0.2771 -0.1112  0.0353
  290TIP3    H1  876   2.262   2.111   2.734  0.1151  1.0828 -0.1332
  290TIP3    H2  877   2.134   2.074   2.663  0.0253  2.3087 -0.6210
  291TIP3   OH2  878   2.963   4.673   2.178  0.0849  0.0683  0.1777
  291TIP3    H1  879   2.884   4.624   2.156 -0.1180  0.6377 -0.4009
  291TIP3    H2  880   2.935   4.732   2.248  0.2995 -0.5574  0.7941
  292TIP3   OH2  881   1.032   2.188   3.362  0.5443 -0.4437  0.0704
  292TIP3    H1  882   0.981   2.178   3.443 -0.1730  3.1818  0.1421
  292TIP3    H2  883   0.988   2.133   3.299 -1.3296 -0.1841  1.1095
  293TIP3   OH2  884   6.222   2.148   3.243 -0.2673  0.1735  0.7164
  293TIP3    H1  885   6.253   2.174   3.330  0.5862 -1.7655  1.0106
  293TIP3    H2  886   6.137   2.108   3.258  0.2004 -0.8256  0.7717
  294TIP3   OH2  887   2.217   1.388   0.892 -0.6209 -0.3157 -0.2487
  294TIP3    H1  888   2.219   1.438   0.811 -1.5464 -1.2601 -0.8668
  294TIP3    H2  889   2.305   1.351   0.901 -0.2416  0.5678 -0.3217
  295TIP3   OH2  890   3.547   2.487   1.317  0.1088  0.2409 -0.0979
  295TIP3    H1  891   3.485   2.421   1.286  2.4861 -1.3061 -1.7328
  295TIP3    H2  892   3.515   2.569   1.279 -0.3146 -0.7015 -1.8283
  296TIP3   OH2  893   1.926   2.316   0.938  0.1612 -0.1345  0.3860
  296TIP3    H1  894   1.991   2.245   0.936  0.0618 -0.2311  0.6048
  296TIP3    H2  895   1.882   2.311   0.854 -0.2819 -0.7345  0.6571
  297TIP3   OH2  896   5.869   0.331   4.914  0.0966 -0.0600  0.3582
  297TIP3    H1  897   5.789   0.383   4.904  1.2361  1.4852 -0.8491
  297TIP3    H2  898   5.911   0.366   4.992  0.6811  0.5898 -0.2458
  298TIP3   OH2  899   2.790   0.873   0.364  0.1053  0.1342 -0.2913
  298TIP3    H1  900   2.767   0.964   0.347 -0.6312  0.1203  0.6335
  298TIP3    H2  901   2.885   0.874   0.381 -0.0817  0.8601  0.7117
  299TIP3   OH2  902   4.951   5.699   1.941 -0.2809  0.0575 -0.5711
  299TIP3    H1  903   4.977   5.680   2.031 -4.4483  0.3935  0.8143
  299TIP3    H2  904   4.897   5.624   1.915 -0.8227  0.9315 -2.0426
  300TIP3   OH2  905   2.406   5.295   4.965 -0.4853  0.1687  0.0609
  300TIP3    H1  906   2.370   5.293   4.877  2.0327 -1.9445 -0.9915
  300TIP3    H2  907   2.432   5.205   4.983  1.0943  0.9748  2.0991
  301TIP3   OH2  908   1.411   2.093   1.232  0.2823 -0.5160  0.4835
  301TIP3    H1  909   1.367   2.039   1.166  1.8199  0.1619 -1.1259
  301TIP3    H2  910   1.431   2.032   1.303  1.5743 -1.9758 -1.1094
  302TIP3   OH2  911   6.238   5.452   2.317  0.1131  0.2563 -0.1516
  302TIP3    H1  912   6.257   5.385   2.382  2.1416  1.6333  0.7382
  302TIP3    H2  913   6.160   5.497   2.351 -1.6778 -2.0316 -1.1043
  303TIP3   OH2  914   2.869   0.211   0.491 -0.4669 -0.1254 -0.3142
  303TIP3    H1  915   2.854   0.131   0.440 -0.5645 -1.3088  1.5331
  303TIP3    H2  916   2.783   0.232   0.528 -0.2628  0.3775 -0.1282
  304TIP3   OH2  917   2.596   4.861   2.450  0.1688 -0.2244 -0.8189
  304TIP3    H1  918   2.628   4.895   2.534 -0.8959 -1.3643  0.0731
  304TIP3    H2  919   2.531   4.926   2.421 -1.9636 -1.4869  0.9428
  305TIP3   OH2  920   4.632   3.951   5.105  0.2827 -0.3269  0.0338
  305TIP3    H1  921   4.622   4.046   5.096 -0.3427 -0.3860  0.0748
  305TIP3    H2  922   4.647   3.920   5.016  1.3365 -0.0973  0.1229
  306TIP3   OH2  923   4.963   3.053   5.267  0.1197  0.0748 -0.0905
  306TIP3    H1  924   4.985   3.133   5.314  0.6206 -0.3477  0.3977
  306TIP3    H2  925   4.940   3.082   5.179 -0.5014  0.8380  0.3168
  307TIP3   OH2  926   6.077   2.761   1.402  0.4108  0.5893  0.6322
  307TIP3    H1  927   6.118   2.796   1.322  1.0478 -1.8505 -0.1303
  307TIP3    H2  928   6.144   2.705   1.441 -0.7972 -0.2531  1.5201
  308TIP3   OH2  929   5.807   0.304   3.776 -0.4778  0.2339 -0.1500
  308TIP3    H1  930   5.796   0.399   3.774 -0.8893  0.1985  0.2512
  308TIP3    H2  931   5.900   0.290   3.757 -0.2229  0.7656  0.6560
  309TIP3   OH2  932   2.730   1.338   1.723 -0.1505 -0.2538  0.2028
  309TIP3    H1  933   2.816   1.300   1.704 -0.1308  0.2336 -0.6765
  309TIP3    H2  934   2.739   1.372   1.812  1.1012  1.2995 -0.4992
  310TIP3   OH2  935   0.706   1.668   1.467  0.0465 -0.3736  0.0597
  310TIP3    H1  936   0.664   1.752   1.448  0.7370 -0.0636 -0.0883
  310TIP3    H2  937   0.710   1.622   1.383  1.2341  0.1567 -0.1842
  311TIP3   OH2  938   1.704   3.423   0.570 -0.0193 -0.3932 -0.5391
  311TIP3    H1  939   1.705   3.506   0.522  0.0563 -0.9251 -1.4663
  311TIP3    H2  940   1.632   3.374   0.530 -0.8807 -0.3013  0.8336
  312TIP3   OH2  941   2.831   2.345   3.505 -0.7884 -0.5161 -0.2980
  312TIP3    H1  942   2.837   2.422   3.449  1.1165 -1.2292 -1.1075
  312TIP3    H2  943   2.872   2.371   3.588 -0.0470 -0.7004 -0.6097
  313TIP3   OH2  944   5.016   5.099   5.113 -0.2377 -0.0230  0.0105
  313TIP3    H1  945   4.972   5.098   5.198 -1.2406 -1.9097 -0.5006
  313TIP3    H2  946   5.099   5.054   5.128 -0.7886 -1.1221 -0.1811
  314TIP3   OH2  947   2.391   2.532   0.272  0.2769 -0.4182  0.1190
  314TIP3    H1  948   2.457   2.467   0.252  2.1905  1.2519  0.8224
  314TIP3    H2  949   2.359   2.508   0.359 -1.3137 -2.2275 -0.9382
  315TIP3   OH2  950   4.768   1.959   0.572  0.0628 -0.1358 -0.1169
  315TIP3    H1  951   4.675   1.942   0.560  0.3141 -1.7290  0.0218
  315TIP3    H2  952   4.808   1.925   0.492  0.5681  0.1869 -0.0033
  316TIP3   OH2  953   3.003   2.203   0.853  0.0642  0.8968  0.0087
  316TIP3    H1  954   3.040   2.252   0.781  0.4743 -0.9482 -1.0722
  316TIP3    H2  955   3.077   2.155   0.890 -0.5740 -0.0290  0.1109
  317TIP3   OH2  956   2.023   1.539   0.524 -0.0335 -0.6400  0.4880
  317TIP3    H1  957   1.982   1.465   0.568  0.3621 -1.1235  0.0571
  317TIP3    H2  958   1.982   1.542   0.438 -0.2109 -0.2178  0.5869
  318TIP3   OH2  959   3.911   5.484   4.836 -0.6622 -0.3373  0.0901
  318TIP3    H1  960   3.952   5.562   4.799 -2.8559  0.9570  0.3172
  318TIP3    H2  961   3.914   5.498   4.930  0.4518 -1.3388  0.2204
  319TIP3   OH2  962   6.495   2.446   2.014  0.2395 -0.1255  0.5005
  319TIP3    H1  963   6.436   2.378   2.045 -0.0929 -0.3044 -0.5160
  319TIP3    H2  964   6.520   2.494   2.093 -2.3890  0.8687  0.7956
  320TIP3   OH2  965   1.001   1.620   1.531 -0.7184  0.1376  0.2411
  320TIP3    H1  966   0.922   1.617   1.477 -2.0519 -0.9228  2.2068
  320TIP3    H2  967   1.018   1.713   1.543 -0.8746  0.3811 -1.3145
  321TIP3   OH2  968   0.173   0.489   3.651  0.5629 -0.0787 -0.3968
  321TIP3    H1  969   0.158   0.561   3.590  1.1640  0.0746 -0.3704
  321TIP3    H2  970   0.096   0.489   3.707 -0.0584 -0.3138 -1.2433
  322TIP3   OH2  971   1.879   2.027   2.005  0.3297  0.3515  0.5428
  322TIP3    H1  972   1.902   1.951   2.059  0.6764  0.6240  0.7898
  322TIP3    H2  973   1.844   2.091   2.067 -0.3202  0.2476  0.2801
  323TIP3   OH2  974   2.582   2.989   2.563 -0.0620  0.1504 -0.1820
  323TIP3    H1  975   2.620   2.903   2.580  0.2517  0.4362  0.6101
  323TIP3    H2  976   2.645   3.032   2.506 -0.7757 -0.5593 -1.5278
  324TIP3   OH2  977   4.584   2.702   1.126  0.2059  0.3023  0.1491
  324TIP3    H1  978   4.531   2.699   1.206 -1.0591 -1.8807 -0.7331
  324TIP3    H2  979   4.522   2.686   1.056  1.6370  0.1863 -1.1114
  325TIP3   OH2  980   0.836   1.073   0.740  0.0814 -0.5615  0.5535
  325TIP3    H1  981   0.814   1.164   0.721 -3.3521 -1.2124  1.1659
  325TIP3    H2  982   0.791   1.054   0.822  0.4149 -2.9575  0.2235
  326TIP3   OH2  983   0.044   4.074   1.418 -1.0507 -0.2873  0.1752
  326TIP3    H1  984   0.032   4.114   1.332  0.0107  0.5082  0.3883
  326TIP3    H2  985   0.040   3.980   1.401 -0.7380 -0.1355 -0.7615
  327TIP3   OH2  986   5.040   3.190   2.310  0.0171 -0.3217  0.6762
  327TIP3    H1  987   4.951   3.163   2.287  0.1098  0.8783 -1.1767
  327TIP3    H2  988   5.096   3.121   2.275 -0.1696 -1.2869  2.1982
  328TIP3   OH2  989   6.237   2.431   2.594 -0.5384 -0.3379 -0.1790
  328TIP3    H1  990   6.251   2.405   2.503 -1.8304 -0.6983 -0.2908
  328TIP3    H2  991   6.310   2.392   2.642  0.4869  0.3613 -1.1378
  329TIP3   OH2  992   0.869   0.791   0.834  0.2183 -0.1442  0.1422
  329TIP3    H1  993   0.964   0.783   0.827  0.2421  0.1381  0.1234
  329TIP3    H2  994   0.847   0.860   0.772 -0.1434 -1.0563 -0.7487
  330TIP3   OH2  995   3.029   1.225   2.143 -0.2355  0.4225  0.4219
  330TIP3    H1  996   3.002   1.151   2.088 -3.0124  2.7390 -1.5351
  330TIP3    H2  997   3.071   1.286   2.082 -2.4381  2.5956  0.9806
  331TIP3   OH2  998   2.382   3.025   2.733  0.5855 -0.6988  0.2034
  331TIP3    H1  999   2.468   3.028   2.690  0.8428 -0.3837  0.7269
  331TIP3    H2 1000   2.394   2.963   2.805 -0.0358 -1.7453 -0.5815
  332TIP3   OH2 1001   2.163   3.217   1.000 -0.5820 -0.2708 -0.1599
  332TIP3    H1 1002   2.229   3.282   0.977 -0.5174 -0.5752 -0.8608
  332TIP3    H2 1003   2.154   3.224   1.095  0.3647 -0.1297 -0.0687
  333TIP3   OH2 1004   2.884   1.155   2.362  0.0519 -0.0457  0.2280
  333TIP3    H1 1005   2.797   1.192   2.347 -0.1447 -0.2017  0.9905
  333TIP3    H2 1006   2.936   1.186   2.288 -1.1000 -1.3842 -1.1848
  334TIP3   OH2 1007   0.099   0.389   0.144 -0.1441  0.6490 -0.3633
  334TIP3    H1 1008   0.110   0.312   0.200 -0.6044 -1.2395 -2.7921
  334TIP3    H2 1009   0.008   0.415   0.157 -0.5309 -0.3778 -0.9429
  335TIP3   OH2 1010   2.364   1.436   4.055 -0.5421  0.2368 -0.1544
  335TIP3    H1 1011   2.348   1.479   3.970 -0.4486  0.8730  0.1428
  335TIP3    H2 1012   2.450   1.396   4.045  0.0569  1.4292  0.0727
  336TIP3   OH2 1013   5.092   5.687   1.580  0.3135  0.3278  0.1964
  336TIP3    H1 1014   5.059   5.752   1.641 -0.0712  0.8698 -0.5809
  336TIP3    H2 1015   5.186   5.683   1.598  0.0522 -0.2697  1.5153
  337TIP3   OH2 1016   5.893   0.793   1.688 -0.1877  0.0797 -0.8437
  337TIP3    H1 1017   5.813   0.742   1.703 -0.4327  0.6907 -0.0355
  337TIP3    H2 1018   5.963   0.732   1.711 -0.5100  0.4089  1.1045
  338TIP3   OH2 1019   3.149   4.285   4.811  0.1497  0.3656 -0.1524
  338TIP3    H1 1020   3.135   4.362   4.867 -0.1573 -1.7155  2.7527
  338TIP3    H2 1021   3.239   4.258   4.829  0.2936  0.0914 -1.2463
  339TIP3   OH2 1022   2.761   3.026   0.771  0.2534 -0.1205  0.3504
  339TIP3    H1 1023   2.672   3.027   0.806 -0.1953 -1.2917 -0.7299
  339TIP3    H2 1024   2.754   2.979   0.688  1.5247  1.5341 -0.7255
  340TIP3   OH2 1025   2.286   1.604   0.146  0.2616  0.0364 -0.1738
  340TIP3    H1 1026   2.305   1.584   0.238 -3.5518  0.5313  0.7837
  340TIP3    H2 1027   2.274   1.518   0.105  0.8212 -0.1508  0.0531
  341TIP3   OH2 1028   2.933   2.932   0.268 -0.2433  0.0335  0.3660
  341TIP3    H1 1029   2.874   2.873   0.315 -0.3803  0.0688  0.2393
  341TIP3    H2 1030   3.000   2.874   0.230 -1.4972 -0.2554 -1.4288
  342TIP3   OH2 1031   2.686   5.785   1.097 -0.0769 -0.0831  0.0324
  342TIP3    H1 1032   2.592   5.801   1.101  0.3060  1.7117  3.0289
  342TIP3    H2 1033   2.699   5.706   1.148  0.2769  0.9785  1.6255
  343TIP3   OH2 1034   1.160   1.660   1.247  0.7517 -0.6997  0.2273
  343TIP3    H1 1035   1.234   1.680   1.190  2.0318 -1.7810  1.4688
  343TIP3    H2 1036   1.136   1.570   1.225 -0.6545 -0.1203 -0.6494
  344TIP3   OH2 1037   1.797   0.720   1.718 -0.3341  0.2723 -0.6917
  344TIP3    H1 1038   1.854   0.651   1.751 -1.1694 -0.0102  0.2052
  344TIP3    H2 1039   1.852   0.798   1.714 -0.3881  0.5356  2.2308
  345TIP3   OH2 1040   2.591   0.176   1.586 -0.2518  0.3358 -0.5649
  345TIP3    H1 1041   2.545   0.180   1.670  0.9492 -1.1492  0.1791
  345TIP3    H2 1042   2.548   0.106   1.539 -0.8202  1.0638 -1.1373
  346TIP3   OH2 1043   1.927   0.320   1.532  0.5748  0.0179  0.1411
  346TIP3    H1 1044   1.939   0.225   1.534 -0.7864 -0.1573  0.6061
  346TIP3    H2 1045   1.845   0.335   1.579  0.7985  1.4316  0.1148
  347TIP3   OH2 1046   0.921   2.450   2.366  0.5511  0.3411 -0.5129
  347TIP3    H1 1047   0.867   2.484   2.437 -0.1850 -1.9833  0.0727
  347TIP3    H2 1048   1.011   2.458   2.398  0.2416 -0.3771  0.5396
  348TIP3   OH2 1049   3.189   2.574   0.774  0.1829  0.1645 -0.0267
  348TIP3    H1 1050   3.162   2.665   0.763 -0.3478 -0.0122 -0.2441
  348TIP3    H2 1051   3.284   2.575   0.764 -0.0662  0.3225 -2.7032
  349TIP3   OH2 1052   0.508   0.813   2.251 -0.1048  0.9022 -0.0516
  349TIP3    H1 1053   0.421   0.853   2.246 -0.4170  0.2537  0.1864
  349TIP3    H2 1054   0.557   0.853   2.179 -0.1115  2.4530  0.7827
  350TIP3   OH2 1055   3.379   4.772   3.757  0.0977 -0.1821  0.0728
  350TIP3    H1 1056   3.340   4.841   3.811  0.4542  1.9217 -2.2850
  350TIP3    H2 1057   3.465   4.757   3.796  0.1460  0.9313  0.4094
  351TIP3   OH2 1058   2.497   2.336   1.661 -0.4555 -0.9535  0.1103
  351TIP3    H1 1059   2.502   2.266   1.596  1.9370 -0.9766  0.2560
  351TIP3    H2 1060   2.507   2.417   1.611 -0.6463 -0.8712  0.2073
  352TIP3   OH2 1061   2.084   3.944   1.411  0.0110  0.0633  0.4952
  352TIP3    H1 1062   2.085   4.016   1.347  1.0916 -0.0257  0.4103
  352TIP3    H2 1063   2.050   3.870   1.362  2.0568 -0.3397 -0.3566
  353TIP3   OH2 1064   2.068   1.985   1.361  0.4963 -0.6869  0.2946
  353TIP3    H1 1065   2.142   2.041   1.384  0.4914 -0.9781  1.0341
  353TIP3    H2 1066   2.104   1.920   1.301  0.6831 -0.4089  0.1040
  354TIP3   OH2 1067   5.648   1.427   0.721 -0.2404  0.0771  0.2231
  354TIP3    H1 1068   5.572   1.449   0.667 -0.9510 -2.0566  0.2749
  354TIP3    H2 1069   5.639   1.333   0.737  2.4756 -0.2462  0.1481
  355TIP3   OH2 1070   1.798   2.673   2.883 -0.4630 -0.4135 -0.2743
  355TIP3    H1 1071   1.716   2.677   2.932 -0.6906  2.8698 -0.8302
  355TIP3    H2 1072   1.778   2.710   2.798  2.2848  3.5844  0.6802
  356TIP3   OH2 1073   1.577   2.010   1.446 -0.0129  0.6784  0.6358
  356TIP3    H1 1074   1.560   2.080   1.510 -0.9025  0.2474  0.8804
  356TIP3    H2 1075   1.670   1.992   1.454  0.4138  2.4214 -0.0118
  357TIP3   OH2 1076   2.003   1.523   3.406 -0.0604  0.2612  0.0678
  357TIP3    H1 1077   2.063   1.451   3.383 -0.6933 -0.6305  1.1519
  357TIP3    H2 1078   1.916   1.482   3.408 -0.4093  1.0216  0.8581
  358TIP3   OH2 1079   2.372   1.622   0.399  0.0831 -0.3644 -0.2891
  358TIP3    H1 1080   2.407   1.709   0.417 -1.1460 -0.1886  1.3308
  358TIP3    H2 1081   2.354   1.584   0.485 -2.7662 -0.8138 -1.0189
  359TIP3   OH2 1082   6.315   5.114   3.660  0.1760  0.4991 -0.8187
  359TIP3    H1 1083   6.371   5.074   3.726  0.5510  0.8969 -0.8930
  359TIP3    H2 1084   6.294   5.201   3.696  0.0734  0.5712 -1.0505
  360TIP3   OH2 1085   2.839   0.704   2.857  0.4084 -0.6147 -0.3540
  360TIP3    H1 1086   2.795   0.619   2.850 -0.3058 -0.1878 -1.1949
  360TIP3    H2 1087   2.929   0.686   2.832  0.2645 -1.1439 -0.5038
  361TIP3   OH2 1088   6.413   0.479   5.001  0.1385  0.7354  0.4983
  361TIP3    H1 1089   6.355   0.553   5.019 -2.1700 -1.0424  0.5114
  361TIP3    H2 1090   6.416   0.474   4.905  0.3940  0.8964  0.4955
  362TIP3   OH2 1091   1.748   1.887   2.926  0.5824 -0.3102  0.0522
  362TIP3    H1 1092   1.729   1.970   2.883  0.3138 -1.2777 -1.7450
  362TIP3    H2 1093   1.843   1.883   2.932  0.6671 -0.5317 -1.2367
  363TIP3   OH2 1094   1.070   0.965   2.482 -0.1378 -0.0849 -0.0444
  363TIP3    H1 1095   1.092   0.972   2.575  0.1858 -0.2182 -0.1112
  363TIP3    H2 1096   1.136   0.906   2.446  0.3672  0.7727 -0.5594
  364TIP3   OH2 1097   2.591   4.596   4.685 -0.2525  0.2537  0.1047
  364TIP3    H1 1098   2.567   4.550   4.604 -1.0836  1.8066 -0.5568
  364TIP3    H2 1099   2.635   4.530   4.738  0.3500 -0.7767 -1.6342
  365TIP3   OH2 1100   2.679   3.981   2.782 -0.0983 -0.5123  0.3793
  365TIP3    H1 1101   2.770   4.009   2.791 -0.7824  1.8397  0.5005
  365TIP3    H2 1102   2.669   3.910   2.845  2.1457 -2.1482 -1.0118
  366TIP3   OH2 1103   0.489   2.023   0.928 -0.1452  0.5931  0.2032
  366TIP3    H1 1104   0.545   1.950   0.955 -1.7847 -1.1919 -1.0847
  366TIP3    H2 1105   0.421   2.027   0.996  0.5327  1.6125  0.8290
  367TIP3   OH2 1106   3.931   2.454   2.418 -0.3908 -0.1594 -0.2721
  367TIP3    H1 1107   3.869   2.404   2.471 -0.5647 -0.7012 -0.9782
  367TIP3    H2 1108   3.881   2.531   2.389 -0.8329 -0.7527 -1.0954
  368TIP3   OH2 1109   2.152   2.998   0.281 -0.0195 -0.0179 -0.5831
  368TIP3    H1 1110   2.226   3.059   0.283  0.6583 -0.8800  0.9697
  368TIP3    H2 1111   2.191   2.912   0.266 -0.7600 -0.3875 -0.4206
  369TIP3   OH2 1112   4.684   2.007   1.521  0.0426 -0.2111  0.2303
  369TIP3    H1 1113   4.722   1.963   1.445 -1.7241 -1.9186  0.3028
  369TIP3    H2 1114   4.615   2.062   1.485 -0.0622 -0.1747  0.4848
  370TIP3   OH2 1115   3.523   2.799   1.928  0.1663  0.4989  0.1746
  370TIP3    H1 1116   3.449   2.834   1.878  1.1591  1.6621 -0.5023
  370TIP3    H2 1117   3.581   2.762   1.862 -0.6130 -2.0422  0.8356
  371TIP3   OH2 1118   1.894   4.175   4.737 -0.0478 -0.5337  0.3290
  371TIP3    H1 1119   1.924   4.264   4.718 -1.5613  0.4580  2.3944
  371TIP3    H2 1120   1.930   4.122   4.666  1.0500  1.6857 -0.8251
  372TIP3   OH2 1121   4.846   4.040   5.259 -0.4933 -0.1644 -0.6602
  372TIP3    H1 1122   4.756   4.020   5.232 -0.2115 -1.4683 -0.6518
  372TIP3    H2 1123   4.878   3.959   5.298  0.0947  0.8146  0.9461
  373TIP3   OH2 1124   0.152   4.897   1.895  0.3019 -0.1657 -0.5893
  373TIP3    H1 1125   0.108   4.836   1.954  2.5869 -2.6328 -1.3562
  373TIP3    H2 1126   0.122   4.871   1.807 -0.8608  1.6352 -0.7457
  374TIP3   OH2 1127   1.326   2.878   1.914 -0.3610 -0.4908 -0.4413
  374TIP3    H1 1128   1.270   2.912   1.844  0.0108  0.3098 -0.3601
  374TIP3    H2 1129   1.351   2.790   1.885  1.6903  0.6916 -2.4381
  375TIP3   OH2 1130   2.833   1.044   0.632  0.2331  0.6114 -0.2084
  375TIP3    H1 1131   2.738   1.053   0.645  0.1037  1.3923 -1.5911
  375TIP3    H2 1132   2.841   0.983   0.559  0.8200  0.2155  0.1856
  376TIP3   OH2 1133   4.587   5.824   5.289 -0.5217 -0.6072  0.0955
  376TIP3    H1 1134   4.507   5.864   5.254  0.0990  0.2921 -0.3073
  376TIP3    H2 1135   4.614   5.881   5.360  0.0136 -0.6521 -0.0659
  377TIP3   OH2 1136   3.421   1.445   1.251 -0.4028  0.5222 -0.1567
  377TIP3    H1 1137   3.452   1.393   1.325 -2.1110 -0.7196 -0.2710
  377TIP3    H2 1138   3.449   1.396   1.174 -0.5692  0.6257 -0.2841
  378TIP3   OH2 1139   2.571   0.302   4.996  0.1492  0.1631 -0.4150
  378TIP3    H1 1140   2.633   0.265   4.933  1.7983 -1.0151  1.8395
  378TIP3    H2 1141   2.500   0.238   5.000  0.5593 -0.2885 -0.2851
  379TIP3   OH2 1142   2.558   2.318   0.226  0.2413  0.4040 -0.0702
  379TIP3    H1 1143   2.489   2.256   0.248  0.9171  0.3017  1.7899
  379TIP3    H2 1144   2.566   2.311   0.130 -0.4132 -1.5729 -0.0062
  380TIP3   OH2 1145   1.899   5.443   5.136  0.0576 -0.7655 -0.4873
  380TIP3    H1 1146   1.957   5.477   5.068 -1.2549 -0.9264 -1.7205
  380TIP3    H2 1147   1.933   5.355   5.154  1.9815  0.2406  0.9685
  381TIP3   OH2 1148   4.694   5.289   5.262 -0.1091  0.0394 -0.0736
  381TIP3    H1 1149   4.644   5.237   5.199  1.1164  0.2440 -1.2426
  381TIP3    H2 1150   4.753   5.226   5.303  0.7631  0.3200 -0.8653
  382TIP3   OH2 1151   0.389   6.053   0.052  0.0510 -0.4215  0.6576
  382TIP3    H1 1152   0.378   6.017   0.140  0.4930 -0.0692  0.8630
  382TIP3    H2 1153   0.484   6.065   0.043 -0.0463  0.1497  0.3831
  383TIP3   OH2 1154   4.271   5.164   5.132  0.2187  0.2568 -0.1169
  383TIP3    H1 1155   4.206   5.199   5.193 -0.0456 -0.7547  0.1872
  383TIP3    H2 1156   4.221   5.138   5.055  0.1129 -1.5564  0.5592
  384TIP3   OH2 1157   1.548   4.909   4.225 -0.2077  0.3605  0.3866
  384TIP3    H1 1158   1.610   4.836   4.233 -0.3406  0.1157 -0.7007
  384TIP3    H2 1159   1.600   4.981   4.191 -0.0231  0.8591  1.7083
  385TIP3   OH2 1160   2.323   3.754   3.339  0.0805 -0.2775  0.0920
  385TIP3    H1 1161   2.313   3.682   3.402 -0.7426 -0.2278  0.0173
  385TIP3    H2 1162   2.302   3.714   3.255 -0.2911  0.0336  0.0396
  386TIP3   OH2 1163   2.291   4.120   2.662  0.0925 -0.3894  0.4747
  386TIP3    H1 1164   2.375   4.090   2.626 -0.7277 -0.2131 -1.6741
  386TIP3    H2 1165   2.255   4.043   2.705  0.8270 -0.7941  0.3867
  387TIP3   OH2 1166   1.694   3.033   2.979 -0.1377  0.4535  0.2646
  387TIP3    H1 1167   1.666   3.118   3.013  0.4917  1.3694 -1.4409
  387TIP3    H2 1168   1.779   3.017   3.022  0.6471  1.5909 -0.8257
  388TIP3   OH2 1169   5.477   4.041   4.511  0.1575 -0.2273 -0.4983
  388TIP3    H1 1170   5.403   3.990   4.545  0.4302  0.4580  1.1415
  388TIP3    H2 1171   5.437   4.104   4.451 -0.6415  0.3129  0.5735
  389TIP3   OH2 1172   1.002   5.800   4.157 -0.0317 -0.4371 -0.6947
  389TIP3    H1 1173   1.004   5.705   4.145  1.4200 -0.2906 -1.9001
  389TIP3    H2 1174   1.022   5.835   4.070  1.2799  0.9375  0.1396
  390TIP3   OH2 1175   2.415   3.117   2.347 -0.1574  0.6312 -0.6090
  390TIP3    H1 1176   2.449   3.045   2.400  2.0053  1.2234 -1.1752
  390TIP3    H2 1177   2.488   3.177   2.338 -1.5233  2.2163 -1.3684
  391TIP3   OH2 1178   4.587   3.501   1.262  0.5671 -0.1290  0.4601
  391TIP3    H1 1179   4.662   3.556   1.283  0.1555  0.1466  1.1954
  391TIP3    H2 1180   4.585   3.435   1.331  1.9958 -2.0438 -1.2547
  392TIP3   OH2 1181   1.582   1.533   3.545 -0.2560  0.9202  0.2545
  392TIP3    H1 1182   1.517   1.466   3.567  1.3760 -0.2613  1.6376
  392TIP3    H2 1183   1.569   1.601   3.611 -0.2060  0.7700  0.4189
  393TIP3   OH2 1184   5.967   1.057   1.180 -0.4368  0.0013 -0.6952
  393TIP3    H1 1185   5.886   1.024   1.140 -1.6634  1.2694  0.6706
  393TIP3    H2 1186   5.979   1.003   1.258 -0.3104  0.2303 -0.5554
  394TIP3   OH2 1187   2.933   2.579   2.618 -0.5547  0.0561  0.2051
  394TIP3    H1 1188   2.864   2.640   2.592 -0.7482 -0.4776 -0.5666
  394TIP3    H2 1189   2.916   2.563   2.711 -0.1787  1.5763  0.5495
  395TIP3   OH2 1190   2.506   1.310   0.924  0.1372  0.3025  0.0174
  395TIP3    H1 1191   2.569   1.329   0.855  0.4212 -0.3657  0.0804
  395TIP3    H2 1192   2.534   1.364   0.997  1.8112 -1.3648  0.6828
  396TIP3   OH2 1193   5.838   1.926   1.695 -0.0737  0.4178 -0.0340
  396TIP3    H1 1194   5.911   1.871   1.664 -1.3224 -0.2787 -1.8433
  396TIP3    H2 1195   5.793   1.872   1.760  1.9021  1.4455  2.2384
  397TIP3   OH2 1196   3.830   0.156   2.633 -0.1289 -0.0158  0.2041
  397TIP3    H1 1197   3.792   0.244   2.628  1.9966  1.0270  1.6707
  397TIP3    H2 1198   3.821   0.131   2.725  0.1115 -0.9715 -0.0265
  398TIP3   OH2 1199   1.890   2.200   0.044  0.0251 -0.1547 -0.7185
  398TIP3    H1 1200   1.816   2.210  -0.017  0.8323 -1.4271 -1.9476
  398TIP3    H2 1201   1.876   2.115   0.084 -1.2719  1.2788  1.9963
  399TIP3   OH2 1202   1.381   3.569   1.176 -0.1416 -0.0911 -0.0988
  399TIP3    H1 1203   1.398   3.662   1.191 -1.6600  0.3276 -0.8778
  399TIP3    H2 1204   1.291   3.556   1.203  0.3143 -1.5424  0.8145
  400TIP3   OH2 1205   4.800   1.891   1.284  0.0151 -0.7663 -0.0815
  400TIP3    H1 1206   4.862   1.819   1.299 -1.0630 -1.5717  0.6223
  400TIP3    H2 1207   4.737   1.854   1.222 -1.3613 -0.9194  1.4019
  401TIP3   OH2 1208   2.121   1.045   0.998  0.4648  0.1204  0.0875
  401TIP3    H1 1209   2.121   1.022   1.091  1.2035  0.4636  0.1772
  401TIP3    H2 1210   2.063   1.120   0.992 -1.1145 -1.0798 -0.0394
  402TIP3   OH2 1211   5.103   0.436   1.289 -0.3313 -0.2725 -0.1133
  402TIP3    H1 1212   5.171   0.492   1.253  1.6377 -2.6427 -0.2215
  402TIP3    H2 1213   5.021   0.471   1.253  0.9389  1.8062 -1.0549
  403TIP3   OH2 1214   3.399   0.600   0.352  0.3279  0.0365  0.1113
  403TIP3    H1 1215   3.447   0.564   0.278  1.7751 -1.4259  1.7127
  403TIP3    H2 1216   3.308   0.603   0.323  0.8991 -0.3922 -1.7575
  404TIP3   OH2 1217   1.439   5.460   5.231  0.0076  0.0341  0.5198
  404TIP3    H1 1218   1.508   5.492   5.172  0.0785  1.6436  1.4436
  404TIP3    H2 1219   1.468   5.489   5.318 -0.7528 -1.1769  1.1823
  405TIP3   OH2 1220   2.059   6.015   2.556  0.6155 -0.0156 -0.1604
  405TIP3    H1 1221   2.100   6.101   2.552 -1.1656  0.7829 -2.6031
  405TIP3    H2 1222   2.119   5.957   2.510  0.0693  0.7178 -1.8513
  406TIP3   OH2 1223   2.837   0.922   1.746  0.2078 -0.4149 -0.6490
  406TIP3    H1 1224   2.765   0.942   1.686  0.3205  1.1473 -0.2813
  406TIP3    H2 1225   2.844   0.827   1.744 -0.7204 -0.4694 -2.0351
  407TIP3   OH2 1226   5.347   5.477   3.221 -0.3581  0.3877 -0.1969
  407TIP3    H1 1227   5.294   5.530   3.281 -0.9141 -0.6423  0.2255
  407TIP3    H2 1228   5.437   5.502   3.241 -0.5153 -0.2529  1.3527
  408TIP3   OH2 1229   1.388   1.696   2.217  0.4314  0.2926  0.3679
  408TIP3    H1 1230   1.297   1.723   2.202  0.3034 -0.5397 -0.3578
  408TIP3    H2 1231   1.410   1.641   2.142  1.1890 -0.3996  1.0862
  409TIP3   OH2 1232   0.803   4.214   1.491  0.6372  0.0694 -0.4541
  409TIP3    H1 1233   0.733   4.279   1.483  0.5223  0.6403  4.0150
  409TIP3    H2 1234   0.757   4.130   1.499  0.5951  0.0411 -0.9902
  410TIP3   OH2 1235   0.510   2.331   0.927 -0.5925 -0.0129 -0.1293
  410TIP3    H1 1236   0.496   2.237   0.927  0.3380 -0.1551  0.4033
  410TIP3    H2 1237   0.422   2.368   0.927 -0.9630 -0.8834  0.0719
  411TIP3   OH2 1238   1.855   3.525   4.947  0.1383 -0.6034  0.1459
  411TIP3    H1 1239   1.776   3.577   4.934  0.0229 -0.2692  2.0590
  411TIP3    H2 1240   1.822   3.437   4.967  0.2409 -0.4110  1.1709
  412TIP3   OH2 1241   2.059   2.099   3.584  0.4079  0.3023  0.5341
  412TIP3    H1 1242   2.099   2.018   3.614  3.4634  1.7290  0.4864
  412TIP3    H2 1243   2.032   2.080   3.494  0.3943 -0.8746  0.7726
  413TIP3   OH2 1244   5.410   4.365   5.215 -0.0611  0.1747 -0.7703
  413TIP3    H1 1245   5.373   4.310   5.146  0.1838 -2.1224  0.8807
  413TIP3    H2 1246   5.342   4.369   5.282  0.5429  0.5700 -0.1702
  414TIP3   OH2 1247   2.180   4.603   2.119  0.1847  0.1562 -0.0173
  414TIP3    H1 1248   2.195   4.527   2.174  1.2453  0.4704  0.1405
  414TIP3    H2 1249   2.224   4.582   2.036 -3.8140 -1.5257 -1.8211
  415TIP3   OH2 1250   3.991   0.775   0.210  0.2504 -0.4192  0.0439
  415TIP3    H1 1251   4.046   0.799   0.134  0.5060 -0.5446  0.1875
  415TIP3    H2 1252   4.001   0.848   0.271  1.2252 -0.9949  0.5862
  416TIP3   OH2 1253   2.369   1.232   0.527 -0.0682 -0.5914  0.5972
  416TIP3    H1 1254   2.298   1.169   0.521  0.6065 -1.4147  1.2159
  416TIP3    H2 1255   2.327   1.312   0.560 -0.9559 -0.6389 -0.3871
  417TIP3   OH2 1256   2.637   3.245   2.344  0.4651  0.2695 -0.6441
  417TIP3    H1 1257   2.609   3.307   2.277 -1.1354 -1.7215 -1.9013
  417TIP3    H2 1258   2.723   3.215   2.314  0.7162  0.9843 -0.6496
  418TIP3   OH2 1259   1.810   2.407   1.194 -0.3808  0.6431 -0.1570
  418TIP3    H1 1260   1.859   2.415   1.112 -1.5203 -1.3619 -1.0678
  418TIP3    H2 1261   1.813   2.314   1.215 -2.0619  0.8039  0.8795
  419TIP3   OH2 1262   1.621   3.548   0.915 -0.1832 -0.2923  0.3130
  419TIP3    H1 1263   1.566   3.592   0.851 -0.1886 -1.3485 -0.4119
  419TIP3    H2 1264   1.642   3.616   0.979  0.5399  1.0059 -1.2706
  420TIP3   OH2 1265   2.128   3.503   1.608 -0.4447 -0.4114  0.1080
  420TIP3    H1 1266   2.158   3.545   1.689  0.1047  1.4285 -1.0124
  420TIP3    H2 1267   2.157   3.412   1.615  0.6380  0.0313  1.4481
  421TIP3   OH2 1268   2.965   2.881   1.959  0.7203 -0.1300 -0.1383
  421TIP3    H1 1269   3.037   2.834   1.916  0.3838 -0.9166  0.1603
  421TIP3    H2 1270   2.991   2.885   2.051  0.2916 -0.5688 -0.0013
  422TIP3   OH2 1271   1.671   1.689   0.478 -0.7451  0.4397 -0.4251
  422TIP3    H1 1272   1.643   1.714   0.566 -1.5930  0.3156 -0.6502
  422TIP3    H2 1273   1.711   1.603   0.488  0.0376  0.8501 -0.0132
  423TIP3   OH2 1274   1.833   3.346   1.285 -0.3621  0.0931  0.3785
  423TIP3    H1 1275   1.742   3.365   1.259 -0.0503 -0.9318 -1.5457
  423TIP3    H2 1276   1.829   3.261   1.328 -0.2069 -0.3338 -0.4390
  424TIP3   OH2 1277   5.762   3.680   4.952 -0.2159 -0.2668  0.3031
  424TIP3    H1 1278   5.836   3.735   4.977 -0.2657 -0.1780  0.2550
  424TIP3    H2 1279   5.743   3.704   4.861 -2.2507  1.9293  1.2395
  425TIP3   OH2 1280   2.968   1.515   1.518  0.3455 -0.1864  0.0658
  425TIP3    H1 1281   2.980   1.428   1.479  0.6106 -0.7270  1.3300
  425TIP3    H2 1282   3.029   1.516   1.592 -0.4031  0.6982  0.6758
  426TIP3   OH2 1283   0.146   5.849   0.643 -0.2448  0.1188  0.3333
  426TIP3    H1 1284   0.125   5.912   0.574  0.1982  1.0557  1.0340
  426TIP3    H2 1285   0.209   5.790   0.602  0.1406  0.7638 -0.0204
  427TIP3   OH2 1286   1.691   0.924   0.508 -0.5290  0.2637  0.2249
  427TIP3    H1 1287   1.697   0.906   0.414 -1.8137  1.5762 -0.1310
  427TIP3    H2 1288   1.664   0.840   0.546 -1.1060  0.0106 -0.7142
  428TIP3   OH2 1289   0.703   1.774   2.661  0.2393 -0.3709 -0.2148
  428TIP3    H1 1290   0.653   1.855   2.649  0.2299 -0.2859  0.3753
  428TIP3    H2 1291   0.664   1.713   2.599 -1.6101 -0.7610  1.3034
  429TIP3   OH2 1292   3.507   2.112   1.627  0.3030 -0.0233 -0.5404
  429TIP3    H1 1293   3.564   2.043   1.661  0.5981  0.9572  0.9890
  429TIP3    H2 1294   3.568   2.176   1.590  0.1153  0.2902 -0.3040
  430TIP3   OH2 1295   4.182   4.063   4.779  0.1664 -0.5419  0.4119
  430TIP3    H1 1296   4.143   4.015   4.852 -1.6749  0.1143 -0.1165
  430TIP3    H2 1297   4.205   4.149   4.815  0.6650 -0.7423  0.5849
  431TIP3   OH2 1298   1.842   1.761   0.761 -0.3663 -0.4868  0.2874
  431TIP3    H1 1299   1.871   1.774   0.671  1.6662 -0.2243  0.9517
  431TIP3    H2 1300   1.794   1.841   0.782  1.5783  0.6838  0.3460
  432TIP3   OH2 1301   6.005   3.394   0.758 -0.3508 -0.3940  0.1500
  432TIP3    H1 1302   5.988   3.440   0.676 -1.2386 -0.2690  0.4003
  432TIP3    H2 1303   6.022   3.463   0.822 -1.5530 -0.4025  0.4955
  433TIP3   OH2 1304   1.923   0.941   0.103 -0.0573  0.4084 -0.0394
  433TIP3    H1 1305   2.002   0.978   0.143 -1.6418  0.8178  2.8475
  433TIP3    H2 1306   1.946   0.850   0.084  1.4074  0.7821 -0.1368
  434TIP3   OH2 1307   1.720   2.677   2.359 -0.2220 -0.2142 -0.9180
  434TIP3    H1 1308   1.797   2.723   2.392  0.0418  0.0850 -1.9423
  434TIP3    H2 1309   1.711   2.706   2.268 -1.7140 -0.0153 -0.7244
  435TIP3   OH2 1310   3.515   0.584   3.101  0.5902 -0.2873 -0.3270
  435TIP3    H1 1311   3.591   0.555   3.050  0.8282 -0.9783  0.4045
  435TIP3    H2 1312   3.552   0.619   3.181  0.1525 -0.2951 -0.1198
  436TIP3   OH2 1313   3.141   2.058   3.700 -0.1755  0.4025 -0.2885
  436TIP3    H1 1314   3.205   2.123   3.672 -0.8256 -0.1438 -3.2189
  436TIP3    H2 1315   3.152   1.985   3.639 -3.1716  0.0369 -0.4925
  437TIP3   OH2 1316   1.156   2.299   0.276  0.3288  0.1442  0.1633
  437TIP3    H1 1317   1.155   2.359   0.350  0.5020  1.5095 -0.9150
  437TIP3    H2 1318   1.247   2.270   0.269  0.0357 -1.1759  1.3818
  438TIP3   OH2 1319   3.889   1.950   1.992 -0.4310  0.1524  0.6008
  438TIP3    H1 1320   3.819   1.892   2.020 -0.3442  0.0767  0.6613
  438TIP3    H2 1321   3.881   2.028   2.048  0.9451 -0.8016  2.1798
  439TIP3   OH2 1322   2.396   3.028   0.437 -0.1143  0.1771  0.2407
  439TIP3    H1 1323   2.391   2.945   0.389  0.2628  2.0650 -3.2542
  439TIP3    H2 1324   2.489   3.048   0.443 -0.2103  0.4651  0.8948
  440TIP3   OH2 1325   4.973   2.810   0.584 -0.1407  0.0072 -0.0899
  440TIP3    H1 1326   5.049   2.809   0.642 -0.2166 -1.0390 -0.0060
  440TIP3    H2 1327   4.898   2.818   0.644 -0.2887 -2.2188  0.0377
  441TIP3   OH2 1328   0.349   3.888   2.021 -0.8234  0.5906  0.5976
  441TIP3    H1 1329   0.324   3.796   2.026 -4.1817  1.4417  0.4771
  441TIP3    H2 1330   0.322   3.925   2.105  0.1910  1.5505  0.5092
  442TIP3   OH2 1331   0.847   0.994   0.418  0.0214  0.2620 -0.7325
  442TIP3    H1 1332   0.782   0.969   0.353  1.1469 -1.1391 -1.3425
  442TIP3    H2 1333   0.797   1.037   0.488 -1.3898  0.2546 -1.7347
  443TIP3   OH2 1334   1.684   2.760   3.120  0.3161  0.0005 -0.0336
  443TIP3    H1 1335   1.644   2.835   3.165  0.5285  0.2327 -0.2277
  443TIP3    H2 1336   1.764   2.742   3.170 -0.2511 -0.7456  0.6174
  444TIP3   OH2 1337   2.804   2.539   1.830  0.1449 -0.0412  0.0821
  444TIP3    H1 1338   2.742   2.582   1.771  0.3376  1.5967  1.0658
  444TIP3    H2 1339   2.750   2.508   1.903  0.1343 -0.7794 -0.2284
  445TIP3   OH2 1340   0.600   0.565   3.318  0.3245 -0.1449  0.2769
  445TIP3    H1 1341   0.565   0.558   3.406 -0.0082  0.1210  0.1692
  445TIP3    H2 1342   0.560   0.644   3.283  1.1207  0.2186  0.1875
  446TIP3   OH2 1343   1.666   2.030   1.070 -0.1125  0.1026 -0.2223
  446TIP3    H1 1344   1.587   2.075   1.102 -0.1724 -1.6719  2.2509
  446TIP3    H2 1345   1.738   2.075   1.114  0.0115 -0.5342  0.2225
  447TIP3   OH2 1346   0.862   3.003   0.798  0.1327 -0.3120  0.0497
  447TIP3    H1 1347   0.911   2.932   0.839 -1.2135 -1.4058 -0.2117
  447TIP3    H2 1348   0.785   2.961   0.760 -0.2603  1.1651 -0.8319
  448TIP3   OH2 1349   3.027   1.853   0.780  0.0922 -0.3159  0.4434
  448TIP3    H1 1350   3.088   1.834   0.852 -0.0305 -0.3657  0.5351
  448TIP3    H2 1351   2.958   1.906   0.821 -0.1509 -0.6225  0.4384
  449TIP3   OH2 1352   5.315   2.742   1.140 -0.3442  0.0586  0.1252
  449TIP3    H1 1353   5.269   2.807   1.192 -0.1994 -0.1583  0.5310
  449TIP3    H2 1354   5.350   2.680   1.205 -0.6246 -0.5117 -0.2641
  450TIP3   OH2 1355   6.443   5.135   4.390  0.2414  0.3725 -0.1241
  450TIP3    H1 1356   6.364   5.184   4.366 -0.3007 -0.5318 -0.2152
  450TIP3    H2 1357   6.512   5.173   4.336 -0.1413  1.1236 -0.0957
  451TIP3   OH2 1358   1.965   0.053   1.551 -0.3712  0.1556  0.0795
  451TIP3    H1 1359   1.873   0.029   1.539 -0.3833  0.0615  0.3701
  451TIP3    H2 1360   2.008  -0.028   1.578  0.2912 -0.4259 -2.6093
  452TIP3   OH2 1361   4.513   5.333   3.183  0.2875  0.5841 -0.0007
  452TIP3    H1 1362   4.480   5.272   3.117 -0.0615  0.1910  0.5322
  452TIP3    H2 1363   4.450   5.405   3.181  0.2029  0.5108 -0.0046
  453TIP3   OH2 1364   2.931   2.523   0.973  0.6854 -0.0090 -0.9466
  453TIP3    H1 1365   2.998   2.490   0.913 -0.8659  0.8116 -3.2189
  453TIP3    H2 1366   2.860   2.551   0.916 -1.1154  0.2429  1.3472
  454TIP3   OH2 1367   2.239   5.865   4.885 -0.2002  0.4127  0.3865
  454TIP3    H1 1368   2.162   5.899   4.839 -0.5495 -0.0213  0.6458
  454TIP3    H2 1369   2.242   5.772   4.863  1.7664  0.9428 -1.7305
  455TIP3   OH2 1370   3.183   1.540   1.192  0.5113  0.2737 -0.9765
  455TIP3    H1 1371   3.258   1.499   1.236  0.1389  1.4894  0.8278
  455TIP3    H2 1372   3.152   1.607   1.253 -1.7778  0.1051 -1.8878
  456TIP3   OH2 1373   3.352   0.696   2.911 -0.1628  0.0624  0.2270
  456TIP3    H1 1374   3.409   0.655   2.976  0.4429  0.5845  0.0325
  456TIP3    H2 1375   3.401   0.689   2.829 -1.2672 -1.2966 -0.3226
  457TIP3   OH2 1376   3.085   2.828   1.418 -0.1476 -0.1730  0.7539
  457TIP3    H1 1377   2.994   2.811   1.392  0.5211 -2.2772 -0.3610
  457TIP3    H2 1378   3.136   2.769   1.362  1.8569  0.5658  1.7908
  458TIP3   OH2 1379   5.522   1.775   0.122  0.0617 -0.0466 -0.0401
  458TIP3    H1 1380   5.612   1.780   0.089  0.0019  1.5844  0.0142
  458TIP3    H2 1381   5.494   1.686   0.100  1.3903 -0.2891 -0.8331
  459TIP3   OH2 1382   4.879   4.800   4.271 -0.6960 -0.3493  0.0158
  459TIP3    H1 1383   4.812   4.868   4.264 -0.6270 -0.3411 -0.5173
  459TIP3    H2 1384   4.835   4.720   4.243 -0.7237 -0.4946  0.4703
  460TIP3   OH2 1385   3.045   0.753   0.065  0.1441  0.1712 -0.1172
  460TIP3    H1 1386   3.092   0.835   0.082  1.7077 -1.0426  1.7922
  460TIP3    H2 1387   3.108   0.699   0.017 -0.1260 -0.6152  0.3937
  461TIP3   OH2 1388   6.163   3.008   0.475 -0.3284 -0.4536 -0.2253
  461TIP3    H1 1389   6.227   2.950   0.517 -2.2629 -1.9030  0.7871
  461TIP3    H2 1390   6.148   2.970   0.389  1.8888  1.2226 -1.4288
  462TIP3   OH2 1391   5.140   5.102   4.866  0.4416  0.5775  0.2110
  462TIP3    H1 1392   5.083   5.114   4.943  2.5278  0.9812  1.7255
  462TIP3    H2 1393   5.120   5.177   4.810 -0.3705  0.8202  0.8052
  463TIP3   OH2 1394   0.474   0.094   3.353 -0.3269 -0.3785  0.2869
  463TIP3    H1 1395   0.565   0.085   3.382  0.5593  2.3294 -1.4437
  463TIP3    H2 1396   0.460   0.018   3.297  0.7874 -0.9826  0.8035
  464TIP3   OH2 1397   4.419   2.618   0.714  0.1318 -1.0500 -0.5142
  464TIP3    H1 1398   4.335   2.639   0.674  0.5211 -2.3301 -2.0816
  464TIP3    H2 1399   4.423   2.673   0.792 -1.0209  0.9653 -1.8088
  465TIP3   OH2 1400   4.603   0.488   0.103  0.3910 -0.4453  0.1043
  465TIP3    H1 1401   4.645   0.404   0.124  1.5270 -0.1511 -1.0022
  465TIP3    H2 1402   4.540   0.466   0.034  1.6115 -0.1639 -1.1103
  466TIP3   OH2 1403   1.180   0.868   5.144 -0.8367 -0.7244  0.2446
  466TIP3    H1 1404   1.129   0.801   5.097 -1.9332  0.6474 -0.5429
  466TIP3    H2 1405   1.225   0.819   5.213  1.1094 -2.8381 -2.4226
  467TIP3   OH2 1406   5.085   0.986   0.112 -0.2042 -0.3628 -0.5855
  467TIP3    H1 1407   5.058   0.909   0.163  2.4608  0.4286  2.1918
  467TIP3    H2 1408   5.117   0.949   0.030 -2.9749 -1.8215 -1.0977
  468TIP3   OH2 1409   4.101   2.635   0.185  0.1502 -0.7381 -0.6435
  468TIP3    H1 1410   4.144   2.609   0.104 -0.2078  0.5265 -1.2433
  468TIP3    H2 1411   4.103   2.731   0.184 -0.2900 -0.7036  0.6080
  469TIP3   OH2 1412   0.405   5.073   5.295 -0.5325 -0.2765  1.3661
  469TIP3    H1 1413   0.429   5.149   5.348 -0.3619  0.5110  0.1709
  469TIP3    H2 1414   0.331   5.101   5.243  1.9161  0.3731 -1.9370
  470TIP3   OH2 1415   0.641   4.513   4.839 -0.2627  0.0900  0.4275
  470TIP3    H1 1416   0.663   4.478   4.926  0.9916 -3.4778 -1.2360
  470TIP3    H2 1417   0.726   4.524   4.796 -0.8078  2.9679 -0.0009
  471TIP3   OH2 1418   1.244   1.230   1.721 -0.0603  0.2346 -0.3666
  471TIP3    H1 1419   1.231   1.257   1.630 -1.6065 -1.1297 -0.5932
  471TIP3    H2 1420   1.244   1.134   1.717  3.9329  0.1069  0.5666
  472TIP3   OH2 1421   2.215   6.078   1.532  0.1475 -0.0070  0.0305
  472TIP3    H1 1422   2.175   6.143   1.590 -1.0004  2.4169 -3.2848
  472TIP3    H2 1423   2.305   6.108   1.520 -0.3548  0.9368 -1.4269
  473TIP3   OH2 1424   4.511   1.040   0.670 -0.0776  0.0084 -0.2720
  473TIP3    H1 1425   4.550   0.953   0.662 -1.0942 -0.3170 -1.9282
  473TIP3    H2 1426   4.417   1.024   0.675 -0.2644  0.9902 -0.4718
  474TIP3   OH2 1427   3.683   1.739   1.949  0.0887  0.1396  0.3213
  474TIP3    H1 1428   3.704   1.659   1.996 -2.6452 -1.2789 -0.7282
  474TIP3    H2 1429   3.605   1.773   1.994 -0.7508  0.3767 -1.2483
  475TIP3   OH2 1430   4.498   3.164   0.244 -0.1414  0.0893  0.0759
  475TIP3    H1 1431   4.443   3.094   0.209 -0.7974  0.8576 -0.4377
  475TIP3    H2 1432   4.535   3.207   0.167 -0.1249  0.6162  0.3731
  476TIP3   OH2 1433   4.387   0.368   3.218  0.0365 -0.3087  0.1477
  476TIP3    H1 1434   4.376   0.414   3.301  1.0433 -0.2809  0.2731
  476TIP3    H2 1435   4.416   0.280   3.242  0.5865 -0.2207 -0.1661
  477TIP3   OH2 1436   4.495   4.724   4.936  0.0664 -0.5763 -0.0694
  477TIP3    H1 1437   4.518   4.654   4.998 -1.5681  0.0028  1.2147
  477TIP3    H2 1438   4.535   4.802   4.972  1.8735 -0.7986 -1.4974
  478TIP3   OH2 1439   3.272   0.800   2.031 -0.0686 -0.0680 -0.0592
  478TIP3    H1 1440   3.356   0.831   1.996  0.4966 -0.4466  0.9635
  478TIP3    H2 1441   3.260   0.849   2.112 -2.0972  1.8872 -1.4816
  479TIP3   OH2 1442   1.667   1.240   1.809  0.2961 -0.1703 -0.2710
  479TIP3    H1 1443   1.732   1.189   1.857  0.9042  0.4458 -0.4291
  479TIP3    H2 1444   1.694   1.235   1.717 -0.1576 -0.3177 -0.3989
  480TIP3   OH2 1445   0.722   1.902   1.182  0.0843  0.2519 -0.7163
  480TIP3    H1 1446   0.800   1.848   1.165 -0.6069 -0.6195 -1.2054
  480TIP3    H2 1447   0.651   1.853   1.140 -1.4041 -0.9972  3.0625
  481TIP3   OH2 1448   5.272   1.686   2.842 -0.2881 -0.2393  0.0625
  481TIP3    H1 1449   5.183   1.686   2.809 -0.5282  1.1831  0.6721
  481TIP3    H2 1450   5.307   1.600   2.818 -1.5531 -0.4993 -0.8673
  482TIP3   OH2 1451   5.050   1.865   0.651 -0.3327 -0.1616 -0.4538
  482TIP3    H1 1452   5.063   1.937   0.589  0.5654 -0.2755 -0.4084
  482TIP3    H2 1453   4.959   1.873   0.678  0.1254  1.7870  0.5837
  483TIP3   OH2 1454   1.726   4.706   4.831 -0.3478 -0.2172 -0.1944
  483TIP3    H1 1455   1.822   4.702   4.838 -0.2169 -1.1049 -2.0809
  483TIP3    H2 1456   1.696   4.732   4.918  1.4962 -2.0505  1.0228
  484TIP3   OH2 1457   5.579   4.834   4.346 -0.0993 -0.1326  0.2814
  484TIP3    H1 1458   5.601   4.746   4.374  0.2521  0.3393  1.5166
  484TIP3    H2 1459   5.603   4.837   4.253  1.3008 -0.8583  0.6116
  485TIP3   OH2 1460   3.837   2.049   1.533 -0.0725  0.4348 -0.1319
  485TIP3    H1 1461   3.913   1.996   1.511  0.8882  0.3354  3.1507
  485TIP3    H2 1462   3.794   2.001   1.604 -3.6282  0.1582 -2.3324
  486TIP3   OH2 1463   4.714   3.176   0.069  0.1260  0.0197 -0.9361
  486TIP3    H1 1464   4.770   3.123   0.012  0.1381 -1.0481  0.0448
  486TIP3    H2 1465   4.752   3.164   0.156 -0.5099  0.8012 -0.5511
  487TIP3   OH2 1466   4.655   2.426   0.464 -0.2619  0.3491  0.2103
  487TIP3    H1 1467   4.632   2.475   0.385 -0.6093 -0.7762 -0.4042
  487TIP3    H2 1468   4.741   2.460   0.489 -0.6103  1.4557 -0.0436
  488TIP3   OH2 1469   6.124   5.265   3.260 -0.2404  0.0623 -0.0463
  488TIP3    H1 1470   6.213   5.301   3.256 -0.3254  0.3300  0.4377
  488TIP3    H2 1471   6.137   5.170   3.266  0.0351  0.1560  0.9261
  489TIP3   OH2 1472   4.299   1.897   2.627 -0.2835  0.0504 -0.1174
  489TIP3    H1 1473   4.317   1.928   2.539 -0.7485  1.4918  0.2860
  489TIP3    H2 1474   4.205   1.882   2.630 -0.6578  2.3742  0.8500
  490TIP3   OH2 1475   5.236   4.136   4.765 -0.5851  0.4042 -0.3568
  490TIP3    H1 1476   5.217   4.111   4.674  0.3575 -0.2624 -0.3829
  490TIP3    H2 1477   5.176   4.083   4.817  0.5977 -1.1189 -0.4798
  491TIP3   OH2 1478   2.957   0.414   0.338 -0.4337  0.0424 -0.1233
  491TIP3    H1 1479   2.924   0.379   0.255 -2.1372  0.3715  0.3758
  491TIP3    H2 1480   2.945   0.343   0.401  3.1900 -1.0910 -0.6238
  492TIP3   OH2 1481   4.509   4.647   4.373 -0.4925  0.0325  0.2350
  492TIP3    H1 1482   4.492   4.666   4.466 -0.0362 -0.5692  0.4437
  492TIP3    H2 1483   4.554   4.562   4.374 -1.5165 -0.5254 -0.6186
  493TIP3   OH2 1484   0.531   2.481   0.574 -0.1157  0.2793  0.2542
  493TIP3    H1 1485   0.585   2.402   0.575  0.1669  0.4689  0.0266
  493TIP3    H2 1486   0.464   2.464   0.508  0.7969  0.7970 -0.8124
  494TIP3   OH2 1487   0.198   2.686   0.441 -0.5648  0.4273  0.0581
  494TIP3    H1 1488   0.244   2.721   0.365 -0.4858 -0.5741 -0.3680
  494TIP3    H2 1489   0.212   2.751   0.510  0.2439  0.8378 -0.4866
  495TIP3   OH2 1490   1.639   5.294   4.371  0.1403 -0.2600  1.0772
  495TIP3    H1 1491   1.609   5.279   4.460  2.3167 -1.5653  1.6208
  495TIP3    H2 1492   1.578   5.244   4.317 -0.3985 -0.5300  1.9289
  496TIP3   OH2 1493   2.408   2.339   0.596 -0.6428  0.6611 -0.4439
  496TIP3    H1 1494   2.407   2.267   0.658  1.1389 -0.1450 -1.3310
  496TIP3    H2 1495   2.370   2.302   0.516  1.8537  0.1790 -1.4381
  497TIP3   OH2 1496   4.400   1.284   0.437 -0.6572  0.2017  0.2935
  497TIP3    H1 1497   4.471   1.284   0.373 -0.6816  1.3081  0.2582
  497TIP3    H2 1498   4.425   1.217   0.501  0.6727  0.9573  0.5695
  498TIP3   OH2 1499   3.651   2.324   1.533  0.1295 -0.6674 -0.3693
  498TIP3    H1 1500   3.737   2.299   1.501 -0.2207 -0.0419 -1.8282
  498TIP3    H2 1501   3.604   2.354   1.456 -0.5667  1.3455  0.7907
  499TIP3   OH2 1502   5.329   3.514   4.794  0.2683  0.0784  0.4548
  499TIP3    H1 1503   5.272   3.473   4.860 -1.9597  0.9283 -0.8701
  499TIP3    H2 1504   5.310   3.607   4.800  0.2558  0.1989 -1.1756
  500TIP3   OH2 1505   5.041   4.701   4.765  0.2863  0.2459  0.0691
  500TIP3    H1 1506   5.094   4.748   4.701 -1.5930 -0.0477 -1.7380
  500TIP3    H2 1507   5.079   4.614   4.768  2.8556  1.3738  2.3372
  501TIP3   OH2 1508   0.915   3.187   0.042  0.1294  0.1108 -0.1090
  501TIP3    H1 1509   0.910   3.094   0.065 -1.4796 -0.1518 -1.4047
  501TIP3    H2 1510   0.997   3.195  -0.006  0.5060 -0.5447  0.4078
  502TIP3   OH2 1511   5.615   2.380   0.456  0.1744 -0.4924 -0.3920
  502TIP3    H1 1512   5.693   2.325   0.444  0.8749  0.4705 -0.3233
  502TIP3    H2 1513   5.647   2.469   0.441 -1.2912 -0.2433 -2.0605
  503TIP3   OH2 1514   5.856   2.439   0.749  0.4230  0.6222  0.1105
  503TIP3    H1 1515   5.934   2.430   0.693  0.8295  2.4253  0.3297
  503TIP3    H2 1516   5.854   2.359   0.801  1.0739 -0.2745 -1.1972
  504TIP3   OH2 1517   5.132   2.037   0.460  0.1613 -0.1881  0.2769
  504TIP3    H1 1518   5.089   2.090   0.393  0.0506  0.5608  0.9308
  504TIP3    H2 1519   5.170   2.101   0.520  1.1596 -0.8439  0.3590
  505TIP3   OH2 1520   2.612   4.628   0.261  0.3174  0.2825 -0.0807
  505TIP3    H1 1521   2.575   4.680   0.332  0.2874  0.0381  0.0833
  505TIP3    H2 1522   2.536   4.602   0.208  0.1646 -0.8368  0.6660
  506TIP3   OH2 1523   2.451   2.018   4.898 -0.2543  0.4019 -0.1020
  506TIP3    H1 1524   2.519   2.061   4.950 -1.4815 -0.1689  2.0550
  506TIP3    H2 1525   2.497   1.984   4.821  2.1057 -0.7680  1.7424
  507TIP3   OH2 1526   1.720   5.519   0.533  0.3224  0.5586  0.1893
  507TIP3    H1 1527   1.782   5.450   0.555  0.3837  0.2593 -0.9140
  507TIP3    H2 1528   1.635   5.476   0.531  0.4212  0.3909 -1.0047
  508TIP3   OH2 1529   3.738   2.820   0.801 -0.0072 -0.6535  0.5474
  508TIP3    H1 1530   3.756   2.838   0.893  0.4300  1.3546  0.0818
  508TIP3    H2 1531   3.644   2.800   0.798 -0.4562  1.2664  1.1630
  509TIP3   OH2 1532   5.747   5.090   0.742  0.3457  0.5815  0.2257
  509TIP3    H1 1533   5.735   5.098   0.837 -0.8468 -0.0928  0.1415
  509TIP3    H2 1534   5.791   5.171   0.717 -0.0318  1.1102  1.2363
  510TIP3   OH2 1535   4.140   0.969   0.067 -0.3023 -0.2508 -0.1717
  510TIP3    H1 1536   4.203   1.041   0.066 -1.2494  0.6125  1.0291
  510TIP3    H2 1537   4.187   0.895   0.026  0.7206  0.9933 -1.3029
  511TIP3   OH2 1538   4.936   0.263   1.431 -0.0130 -0.0352  0.0574
  511TIP3    H1 1539   4.993   0.340   1.421  0.5531 -0.5063 -0.3753
  511TIP3    H2 1540   4.980   0.195   1.381 -1.3722 -0.1940 -0.9244
  512TIP3   OH2 1541   5.392   1.983   1.306  0.2041  0.2498 -0.6377
  512TIP3    H1 1542   5.363   2.029   1.227 -0.0768  0.5365 -0.3687
  512TIP3    H2 1543   5.320   1.995   1.369 -0.8284 -2.3391 -1.2386
  513TIP3   OH2 1544   1.104   5.418   2.045  0.0721 -0.2016 -0.3072
  513TIP3    H1 1545   1.043   5.385   2.110  0.1244  0.5184  0.1136
  513TIP3    H2 1546   1.191   5.402   2.082  0.0806  1.6716  0.5524
  514TIP3   OH2 1547   4.175   2.946   4.360  0.4864  0.1196  0.0204
  514TIP3    H1 1548   4.153   2.909   4.446 -3.2300 -0.6347 -1.1456
  514TIP3    H2 1549   4.168   3.041   4.373 -1.0012 -0.0128  0.3830
  515TIP3   OH2 1550   5.079   1.041   0.703  0.1906  0.2932 -0.2873
  515TIP3    H1 1551   5.153   1.103   0.700 -0.1263  0.6531 -0.7479
  515TIP3    H2 1552   5.003   1.095   0.721  0.2230 -0.2547  1.5270
  516TIP3   OH2 1553   5.209   1.485   1.864 -0.2392 -0.8514  0.6052
  516TIP3    H1 1554   5.230   1.567   1.909  1.3742  0.3941 -2.2819
  516TIP3    H2 1555   5.133   1.507   1.810  1.1752 -0.7183 -1.4127
  517TIP3   OH2 1556   1.837   2.915   1.880  0.6502 -1.1313  0.3339
  517TIP3    H1 1557   1.928   2.937   1.859 -0.2695  1.6686 -0.8905
  517TIP3    H2 1558   1.811   2.978   1.947 -0.8953 -0.8129 -0.5337
  518TIP3   OH2 1559   3.044   3.478   1.343 -0.3490  0.6733 -0.0794
  518TIP3    H1 1560   3.061   3.508   1.253  5.0813 -0.2090  0.5183
  518TIP3    H2 1561   3.035   3.559   1.393 -0.5659  1.2014 -0.9510
  519TIP3   OH2 1562   1.368   0.557   4.857 -0.4374  0.3617  0.1643
  519TIP3    H1 1563   1.358   0.469   4.892 -1.9613  0.8793  1.0467
  519TIP3    H2 1564   1.432   0.599   4.914  0.0699 -0.0636 -0.0837
  520TIP3   OH2 1565   1.258   1.545   1.644 -0.2673 -0.0919  0.1000
  520TIP3    H1 1566   1.184   1.600   1.620 -0.6382 -0.3244  0.6773
  520TIP3    H2 1567   1.336   1.596   1.622 -0.5995  0.1666 -0.4782
  521TIP3   OH2 1568   0.124   2.874   4.153  0.9916 -0.0286 -0.2556
  521TIP3    H1 1569   0.093   2.844   4.068  0.3460 -1.0159  0.3241
  521TIP3    H2 1570   0.217   2.852   4.154  1.1575  0.5972 -0.9656
  522TIP3   OH2 1571   4.152   2.135   1.924 -0.2590 -0.0278  0.2385
  522TIP3    H1 1572   4.079   2.178   1.879  0.7231 -0.0126 -1.3926
  522TIP3    H2 1573   4.150   2.045   1.892  0.1756 -0.1343  0.5104
  523TIP3   OH2 1574   3.907   1.633   1.643  0.5252  0.0381 -0.0747
  523TIP3    H1 1575   3.814   1.616   1.654  0.5277  0.0422 -0.0464
  523TIP3    H2 1576   3.939   1.562   1.588  0.7347 -0.6195  0.8870
  524TIP3   OH2 1577   3.188   2.056   1.653  0.2991 -0.7707 -0.5949
  524TIP3    H1 1578   3.158   2.111   1.580 -0.6038 -1.7999 -0.9969
  524TIP3    H2 1579   3.283   2.069   1.655 -0.0390  1.9767  0.2685
  525TIP3   OH2 1580   6.379   3.801   5.262  0.0320  0.0467  0.4781
  525TIP3    H1 1581   6.407   3.822   5.173 -0.4674 -0.0795  0.2913
  525TIP3    H2 1582   6.443   3.737   5.292  1.0623  1.1839  0.7438
  526TIP3   OH2 1583   4.993   0.800   2.991 -0.2359  0.2111 -0.0710
  526TIP3    H1 1584   5.073   0.847   2.966 -0.0242  0.7946  1.6497
  526TIP3    H2 1585   4.925   0.868   2.993 -0.5206 -0.0649 -0.3280
  527TIP3   OH2 1586   1.441   3.859   4.727  0.1022  0.2607 -0.1472
  527TIP3    H1 1587   1.471   3.925   4.789 -1.9286 -0.2703  1.4413
  527TIP3    H2 1588   1.490   3.780   4.750  1.6596  0.8618 -1.2886
  528TIP3   OH2 1589   6.042   3.813   1.129 -0.1976 -0.1824 -0.1687
  528TIP3    H1 1590   6.090   3.895   1.137  1.1518 -0.7452 -2.1756
  528TIP3    H2 1591   6.028   3.784   1.220  0.0999  1.7844  0.5224
  529TIP3   OH2 1592   2.442   0.993   1.240 -0.0534  0.0358 -0.1499
  529TIP3    H1 1593   2.460   1.037   1.157 -0.0030 -1.0900 -0.7476
  529TIP3    H2 1594   2.507   1.029   1.301  0.9971 -0.3387 -1.0313
  530TIP3   OH2 1595   4.461   2.958   1.324 -0.6552  0.1386  0.5214
  530TIP3    H1 1596   4.450   2.873   1.367 -1.4446 -0.3947 -0.6950
  530TIP3    H2 1597   4.390   3.012   1.360 -1.9298 -0.6098 -0.8127
  531TIP3   OH2 1598   0.424   5.343   0.103  0.3182  0.2432  0.0333
  531TIP3    H1 1599   0.429   5.396   0.183 -1.2277 -1.3824  1.2648
  531TIP3    H2 1600   0.478   5.389   0.040  1.9614  1.3393  2.1693
  532TIP3   OH2 1601   2.805   1.077   1.225 -0.6132  0.0956  0.1959
  532TIP3    H1 1602   2.873   1.139   1.196  0.9917 -0.9545  1.5937
  532TIP3    H2 1603   2.735   1.133   1.258  0.8517  1.2239  1.5117
  533TIP3   OH2 1604   5.438   3.554   5.209 -0.0525 -0.0206 -0.6383
  533TIP3    H1 1605   5.492   3.504   5.148  0.5534 -1.0422  0.7032
  533TIP3    H2 1606   5.492   3.629   5.233  1.1132 -1.3784  1.2062
  534TIP3   OH2 1607   2.398   5.337   4.270  0.3455 -0.4230  0.0104
  534TIP3    H1 1608   2.395   5.264   4.332  0.8700  1.4861  2.3525
  534TIP3    H2 1609   2.487   5.336   4.237  0.6482 -0.2294  0.8089
  535TIP3   OH2 1610   6.380   5.116   4.901 -0.1427  0.2222 -0.2301
  535TIP3    H1 1611   6.286   5.128   4.888  0.1815  2.4598 -0.6536
  535TIP3    H2 1612   6.418   5.123   4.814  0.4385 -0.7734 -0.0709
  536TIP3   OH2 1613   3.468   0.517   0.119 -0.3116 -0.2127 -0.3732
  536TIP3    H1 1614   3.471   0.589   0.056  0.1674 -0.1709 -0.3050
  536TIP3    H2 1615   3.463   0.438   0.064  0.8845 -0.2229 -0.4952
  537TIP3   OH2 1616   2.703   1.716   0.250  1.0070 -0.7609 -0.6628
  537TIP3    H1 1617   2.651   1.656   0.198  1.0540 -0.1875 -1.3730
  537TIP3    H2 1618   2.775   1.742   0.192 -0.3537  1.8718 -1.2099
  538TIP3   OH2 1619   3.751   2.087   1.277  0.1790  0.4225 -0.6037
  538TIP3    H1 1620   3.674   2.049   1.234  0.7346 -0.3152 -0.9676
  538TIP3    H2 1621   3.748   2.050   1.366  1.0367 -0.9703 -1.1303
  539TIP3   OH2 1622   5.866   5.639   3.636  0.5471 -0.0795 -0.8138
  539TIP3    H1 1623   5.941   5.693   3.660  1.1437 -0.5784 -1.5164
  539TIP3    H2 1624   5.798   5.662   3.699  1.1289  0.7373 -0.4777
  540TIP3   OH2 1625   3.736   2.987   5.041 -0.3820 -0.4137 -0.2818
  540TIP3    H1 1626   3.786   3.016   4.965 -2.0561  1.7690 -0.5822
  540TIP3    H2 1627   3.713   3.067   5.088 -2.4608 -1.4550  0.5671
  541TIP3   OH2 1628   5.115   1.792   0.302  0.4137  0.2973 -0.0940
  541TIP3    H1 1629   5.111   1.875   0.349  0.6583  0.8540 -1.0226
  541TIP3    H2 1630   5.086   1.814   0.213 -1.0863 -0.9449  0.0691
  542TIP3   OH2 1631   6.001   2.421   1.268 -0.1603  0.5691  0.5281
  542TIP3    H1 1632   5.929   2.390   1.213 -0.4202  1.0764  0.5803
  542TIP3    H2 1633   5.973   2.508   1.297 -1.3862 -0.9003  3.9731
  543TIP3   OH2 1634   1.561   2.117   4.098 -0.5055  0.8411  0.0751
  543TIP3    H1 1635   1.497   2.175   4.058 -0.5105  1.3290  0.7829
  543TIP3    H2 1636   1.523   2.094   4.183  0.8954  2.2582  1.1041
  544TIP3   OH2 1637   6.001   5.496   4.345  0.0987  0.6141 -0.3828
  544TIP3    H1 1638   6.064   5.425   4.357 -1.3442 -0.5774  0.4964
  544TIP3    H2 1639   5.918   5.459   4.377 -0.9776  2.2245 -1.2315
  545TIP3   OH2 1640   4.564   0.963   1.658 -0.5849 -0.3866  0.4574
  545TIP3    H1 1641   4.534   1.044   1.616 -1.0851 -1.4302 -1.2386
  545TIP3    H2 1642   4.516   0.960   1.741  0.2463  1.5809  1.0276
  546TIP3   OH2 1643   2.361   3.109   1.842 -0.0998 -0.0315 -0.1004
  546TIP3    H1 1644   2.405   3.031   1.878 -0.1205 -0.0257 -0.0631
  546TIP3    H2 1645   2.378   3.178   1.906  1.1066  0.3536 -0.8051
  547TIP3   OH2 1646   0.523   4.675   4.632  0.3603 -0.2303  0.8239
  547TIP3    H1 1647   0.492   4.690   4.721 -1.1956 -1.1862  0.4556
  547TIP3    H2 1648   0.552   4.584   4.631  0.2680 -0.2587  0.3342
  548TIP3   OH2 1649   4.208   2.311   0.072 -0.0968  0.3934 -1.0226
  548TIP3    H1 1650   4.216   2.381   0.006 -1.3073 -0.5196 -2.1712
  548TIP3    H2 1651   4.217   2.231   0.021 -1.1250 -0.3275 -0.0627
  549TIP3   OH2 1652   2.663   3.044   0.411  0.2065  0.2364  0.0891
  549TIP3    H1 1653   2.706   2.961   0.428  0.9038  0.8239  1.2886
  549TIP3    H2 1654   2.735   3.108   0.407 -0.3249  0.7960 -0.7201
  550TIP3   OH2 1655   3.436   5.862   0.168  0.3801 -0.1874 -0.2127
  550TIP3    H1 1656   3.367   5.808   0.131  0.3554 -0.5757  0.3920
  550TIP3    H2 1657   3.456   5.821   0.252  0.1141  0.9518  0.4125
  551TIP3   OH2 1658   4.551   1.806   0.858 -0.0832 -0.2918 -0.7704
  551TIP3    H1 1659   4.466   1.764   0.874 -0.2559  0.5975  0.6958
  551TIP3    H2 1660   4.530   1.899   0.850  1.0480  0.2739  2.2169
  552TIP3   OH2 1661   3.957   1.012   0.329  0.1015 -0.4478 -0.1694
  552TIP3    H1 1662   3.953   1.087   0.388  0.3496 -0.3782 -0.2401
  552TIP3    H2 1663   4.027   1.033   0.268 -0.7956 -0.0807 -1.0887
  553TIP3   OH2 1664   3.854   1.074   0.038  0.3321  0.7534 -0.3035
  553TIP3    H1 1665   3.933   1.032   0.003  0.0607 -0.9511  1.0526
  553TIP3    H2 1666   3.883   1.161   0.065  1.4302  0.6432 -1.0876
  554TIP3   OH2 1667   4.624   1.444   0.110 -0.1904 -0.7058  0.5476
  554TIP3    H1 1668   4.711   1.478   0.132  0.2563 -1.2194 -0.3701
  554TIP3    H2 1669   4.566   1.483   0.175  0.1335  2.5355 -0.9904
  555TIP3   OH2 1670   0.555   0.395   4.793 -0.2456 -0.3031  0.3631
  555TIP3    H1 1671   0.642   0.426   4.819  0.1715 -2.1707  1.3051
  555TIP3    H2 1672   0.520   0.354   4.871 -2.3444  1.1357  0.2175
  556TIP3   OH2 1673   0.429   1.833   5.295  0.7202 -0.1036  0.2326
  556TIP3    H1 1674   0.518   1.816   5.325  0.5868 -1.1956  0.0409
  556TIP3    H2 1675   0.419   1.778   5.217  0.0010  0.2918  0.0399
  557TIP3   OH2 1676   4.745   0.430   1.193 -0.3660  0.5721  0.1949
  557TIP3    H1 1677   4.749   0.519   1.228  2.4094  0.4683  0.2508
  557TIP3    H2 1678   4.748   0.374   1.271 -1.4545  0.3998  0.1244
  558TIP3   OH2 1679   2.697   2.011   0.050 -0.2932  0.6286  0.7382
  558TIP3    H1 1680   2.755   1.990   0.123  1.0753 -0.4722 -0.6271
  558TIP3    H2 1681   2.669   1.926   0.015  0.8983  1.0695 -1.4175
  559TIP3   OH2 1682   1.271   6.060   1.983  0.3375 -0.0039  0.3458
  559TIP3    H1 1683   1.217   6.133   1.952 -0.6150 -0.2872  1.3187
  559TIP3    H2 1684   1.359   6.080   1.949 -0.3759  0.4102 -1.3316
  560TIP3   OH2 1685   5.218   0.193   1.313 -0.2478 -0.3044  0.6302
  560TIP3    H1 1686   5.310   0.189   1.336 -0.1809  1.4872  0.7900
  560TIP3    H2 1687   5.194   0.285   1.328 -1.3104 -0.0655 -2.1581
  561TIP3   OH2 1688   2.097   2.974   0.948  0.2453  0.4267 -0.1455
  561TIP3    H1 1689   2.103   3.069   0.962  2.3958  0.3230 -0.1748
  561TIP3    H2 1690   2.163   2.956   0.881  0.7416 -1.2740  0.7817
  562TIP3   OH2 1691   5.745   0.944   1.069  0.2454  0.3963 -0.0368
  562TIP3    H1 1692   5.700   0.862   1.051  0.7654  0.4229 -1.4446
  562TIP3    H2 1693   5.684   0.992   1.126 -0.6310 -0.4118 -0.2812
  563TIP3   OH2 1694   4.349   5.984   5.228  0.3672 -0.1531  0.3747
  563TIP3    H1 1695   4.260   5.989   5.192  0.8280 -0.5103 -0.8145
  563TIP3    H2 1696   4.363   6.070   5.268  0.8129  1.1648 -2.5522
  564TIP3   OH2 1697   4.275   0.835   1.125  0.3698 -0.3716 -0.1463
  564TIP3    H1 1698   4.247   0.864   1.038 -0.6142  0.1570  0.3353
  564TIP3    H2 1699   4.366   0.864   1.132  0.6322 -0.9145 -1.2191
  565TIP3   OH2 1700   6.158   4.473   4.313 -0.2029  0.2061  0.3096
  565TIP3    H1 1701   6.238   4.514   4.280 -0.0258  0.2871  0.8315
  565TIP3    H2 1702   6.183   4.436   4.398 -0.2905 -1.1981 -0.2536
  566TIP3   OH2 1703   5.433   2.481   0.112 -0.1933  0.6893  0.6268
  566TIP3    H1 1704   5.481   2.540   0.169 -0.8963 -0.6931  2.6925
  566TIP3    H2 1705   5.360   2.449   0.165 -1.9288  0.7501 -1.6164
  567TIP3   OH2 1706   2.952   0.304   3.461  0.0937  0.1300  0.1273
  567TIP3    H1 1707   2.905   0.387   3.465 -0.1215  0.0288 -0.3253
  567TIP3    H2 1708   3.041   0.325   3.491  0.1249  0.5764 -0.2775
  568TIP3   OH2 1709   4.150   5.605   4.351  0.3787 -0.5068 -0.2904
  568TIP3    H1 1710   4.159   5.520   4.394  3.9419 -1.3489 -2.4848
  568TIP3    H2 1711   4.240   5.638   4.343 -0.7804  2.5983 -1.1947
  569TIP3   OH2 1712   3.499   0.945   2.455 -0.1992 -0.3923 -0.0933
  569TIP3    H1 1713   3.531   0.957   2.365  2.0594 -0.6685  0.6298
  569TIP3    H2 1714   3.484   1.034   2.487 -0.2995 -0.2607 -0.5032
  570TIP3   OH2 1715   5.966   0.234   4.076  0.2856 -0.3216 -0.0931
  570TIP3    H1 1716   6.045   0.191   4.109 -0.2947 -0.5047  1.0962
  570TIP3    H2 1717   5.945   0.188   3.995  2.4323  0.9201 -1.4331
  571TIP3   OH2 1718   4.490   3.865   1.359 -0.4529  0.4564 -0.0142
  571TIP3    H1 1719   4.413   3.883   1.412 -0.7784 -0.8520 -0.0252
  571TIP3    H2 1720   4.561   3.854   1.422 -1.1926 -2.9543  0.3491
  572TIP3   OH2 1721   4.340   3.252   2.389 -0.5332  0.8240 -0.1803
  572TIP3    H1 1722   4.346   3.156   2.390 -0.4609  0.8005  3.0781
  572TIP3    H2 1723   4.251   3.271   2.418  0.2431  1.7333  1.7128
  573TIP3   OH2 1724   4.901   1.428   0.243  0.2452 -0.4032  0.2790
  573TIP3    H1 1725   4.996   1.430   0.230  0.2452 -1.1698  0.1276
  573TIP3    H2 1726   4.887   1.467   0.329  0.7549 -0.8414  0.5667
  574TIP3   OH2 1727   5.116   2.554   0.676 -0.2387  0.4255  0.6496
  574TIP3    H1 1728   5.148   2.583   0.762 -0.3045  0.6153  0.6090
  574TIP3    H2 1729   5.186   2.577   0.615 -0.6133  1.1830  0.5029
  575TIP3   OH2 1730   1.246   3.595   4.217  0.0256  0.0893 -0.2201
  575TIP3    H1 1731   1.257   3.512   4.170  2.1126  0.3169 -0.1851
  575TIP3    H2 1732   1.333   3.635   4.216 -0.7124  1.7789  0.7175
  576TIP3   OH2 1733   5.134   1.270   1.424  0.1889 -0.1435 -0.5189
  576TIP3    H1 1734   5.064   1.301   1.482 -0.2843 -0.2629 -1.0279
  576TIP3    H2 1735   5.167   1.191   1.468  1.5826  1.2000  0.9167
  577TIP3   OH2 1736   4.806   2.884   1.054  0.2200  0.2112 -0.2028
  577TIP3    H1 1737   4.717   2.857   1.078  0.6212 -0.5261  0.4911
  577TIP3    H2 1738   4.862   2.814   1.089  0.9973  0.2098 -1.4167
  578TIP3   OH2 1739   4.752   2.499   0.996 -0.1867 -0.0435 -0.2323
  578TIP3    H1 1740   4.803   2.511   1.076  0.2103 -1.4747 -0.2572
  578TIP3    H2 1741   4.679   2.560   1.005  1.3847  1.8721 -0.0915
  579TIP3   OH2 1742   2.825   1.563   0.881  0.3327 -0.1940 -0.0420
  579TIP3    H1 1743   2.814   1.468   0.875 -1.0020  0.0348 -1.4277
  579TIP3    H2 1744   2.901   1.582   0.827  1.0240 -0.5364  0.7897
  580TIP3   OH2 1745   5.625   3.758   5.202  0.2254 -0.2142 -0.0788
  580TIP3    H1 1746   5.680   3.747   5.125 -0.0569  0.8553 -0.4444
  580TIP3    H2 1747   5.577   3.839   5.186  1.2274  0.7947  1.8786
  581TIP3   OH2 1748   1.484   0.251   4.659  0.3263  0.1426 -0.2669
  581TIP3    H1 1749   1.528   0.238   4.743  1.4664 -0.1488 -0.8948
  581TIP3    H2 1750   1.551   0.292   4.604  0.3619 -1.8833 -1.7762
  582TIP3   OH2 1751   0.667   5.337   3.802 -0.2656 -0.2780  0.5383
  582TIP3    H1 1752   0.626   5.302   3.722 -0.4313 -1.1219  0.9907
  582TIP3    H2 1753   0.725   5.267   3.832  1.4550  0.8678 -0.0410
  583TIP3   OH2 1754   2.527   0.814   3.141 -0.1147 -0.2367 -0.0749
  583TIP3    H1 1755   2.512   0.762   3.220 -0.0689  0.1933  0.2145
  583TIP3    H2 1756   2.622   0.828   3.139 -0.0644 -0.6380 -0.4497
  584TIP3   OH2 1757   3.298   3.720   1.725 -0.2437  0.1771  0.3392
  584TIP3    H1 1758   3.389   3.694   1.712  0.0457  0.9237  0.7802
  584TIP3    H2 1759   3.270   3.756   1.641  0.5890  2.0145  0.8151
  585TIP3   OH2 1760   6.272   0.968   0.607 -0.4070 -0.6452  0.1880
  585TIP3    H1 1761   6.268   0.902   0.537 -2.5868 -0.0234 -0.3015
  585TIP3    H2 1762   6.183   1.002   0.613  0.2137  0.7273  1.9286
  586TIP3   OH2 1763   4.147   0.479   0.557 -0.2460 -0.7903  0.4100
  586TIP3    H1 1764   4.143   0.416   0.629 -0.3663  0.3477  1.4283
  586TIP3    H2 1765   4.093   0.553   0.587 -0.1810 -0.2419 -0.7906
  587TIP3   OH2 1766   4.787   4.570   1.146  0.5774 -0.4106  0.3134
  587TIP3    H1 1767   4.847   4.496   1.149  0.4145 -0.5528  0.1189
  587TIP3    H2 1768   4.710   4.540   1.194  1.2530  0.3194  1.8804
  588TIP3   OH2 1769   3.975   4.080   1.955  0.0167 -0.7977  0.0530
  588TIP3    H1 1770   4.026   4.137   1.897  0.8797  0.3957  1.9069
  588TIP3    H2 1771   3.884   4.102   1.937  0.2901 -0.0821 -0.4928
  589TIP3   OH2 1772   5.704   3.795   4.725 -0.2097 -0.0921 -0.7015
  589TIP3    H1 1773   5.714   3.719   4.667  1.6910 -0.2355 -0.2234
  589TIP3    H2 1774   5.761   3.861   4.687 -1.6718  1.0431 -0.9725
  590TIP3   OH2 1775   0.500   1.262   0.769  0.0951 -0.3476 -0.5598
  590TIP3    H1 1776   0.489   1.334   0.708  0.7569 -0.1938 -0.5050
  590TIP3    H2 1777   0.414   1.251   0.809  0.0652  0.6346 -0.3250
  591TIP3   OH2 1778   3.476   3.583   1.411  0.5134  0.2873 -0.2657
  591TIP3    H1 1779   3.433   3.660   1.375  1.9650  0.9527 -0.6089
  591TIP3    H2 1780   3.489   3.604   1.503 -0.4510 -0.1765 -0.0148
  592TIP3   OH2 1781   5.969   0.454   2.541 -0.1367 -0.4788  0.0266
  592TIP3    H1 1782   5.968   0.390   2.612 -2.2209 -0.1971  0.2930
  592TIP3    H2 1783   6.061   0.478   2.532  0.1976 -0.6310  2.5246
  593TIP3   OH2 1784   0.004   0.423   2.426 -0.1172 -0.0421  0.3107
  593TIP3    H1 1785   0.022   0.350   2.367  0.3615  0.5992 -0.3376
  593TIP3    H2 1786   0.002   0.500   2.370  1.0636  0.6759  1.2285
  594TIP3   OH2 1787   5.211   2.141   1.876  0.5441 -0.4872 -0.0863
  594TIP3    H1 1788   5.144   2.157   1.943 -1.3781 -1.0978 -1.8375
  594TIP3    H2 1789   5.243   2.228   1.853  1.4266 -0.2747  1.7780
  595TIP3   OH2 1790   0.708   1.926   1.795  0.0629  0.4312 -0.1476
  595TIP3    H1 1791   0.640   1.945   1.860 -0.1449  1.1210 -0.5584
  595TIP3    H2 1792   0.717   1.831   1.797 -2.0405  0.1864 -1.2034
  596TIP3   OH2 1793   4.745   4.851   5.101  0.6738 -0.0335 -0.1352
  596TIP3    H1 1794   4.791   4.907   5.037  0.6606 -0.5139 -0.5661
  596TIP3    H2 1795   4.777   4.763   5.083  0.3343 -0.2321  0.2336
  597TIP3   OH2 1796   3.669   1.222   0.331  0.3186  0.4616 -0.2604
  597TIP3    H1 1797   3.678   1.130   0.306  0.4862  0.2452  0.5819
  597TIP3    H2 1798   3.651   1.268   0.248 -1.3334 -0.5314 -0.4603
  598TIP3   OH2 1799   4.124   1.705   1.423 -0.0875  0.3363  0.3334
  598TIP3    H1 1800   4.109   1.787   1.470  0.0091  0.0007  0.9565
  598TIP3    H2 1801   4.067   1.642   1.467 -0.5307  0.1784 -0.4629
  599TIP3   OH2 1802   0.257   1.626   1.120  0.1417  0.2024  0.3931
  599TIP3    H1 1803   0.216   1.543   1.144  4.2730 -1.4799  1.9086
  599TIP3    H2 1804   0.245   1.681   1.197  0.5731 -0.2227  0.7658
  600TIP3   OH2 1805   1.965   2.306   0.433  0.3274  0.3579  0.6542
  600TIP3    H1 1806   1.949   2.298   0.339 -0.3105 -0.0471  0.7977
  600TIP3    H2 1807   2.051   2.347   0.439 -0.1646  1.5453 -0.1225
  601TIP3   OH2 1808   5.547   4.571   1.939  0.1792 -0.4137  0.2120
  601TIP3    H1 1809   5.494   4.581   2.018  0.5486  0.2807  0.3757
  601TIP3    H2 1810   5.618   4.634   1.949 -0.1352  0.1430 -0.9786
  602TIP3   OH2 1811   1.260   3.593   1.544  0.3350  0.2538 -0.2491
  602TIP3    H1 1812   1.315   3.515   1.535 -2.8208 -2.2167  0.8891
  602TIP3    H2 1813   1.201   3.589   1.469  0.0009  1.4522 -0.0544
  603TIP3   OH2 1814   6.397   0.530   0.729  0.1583  0.0272  0.2983
  603TIP3    H1 1815   6.423   0.453   0.678  0.0687 -0.5206  1.0644
  603TIP3    H2 1816   6.458   0.598   0.701 -0.6345  0.0602 -1.3765
  604TIP3   OH2 1817   6.074   2.283   2.062 -0.0880 -0.0324 -0.4328
  604TIP3    H1 1818   6.126   2.359   2.035 -0.1583 -0.5243 -2.0228
  604TIP3    H2 1819   6.126   2.241   2.130  1.0626  0.1351 -1.1944
  605TIP3   OH2 1820   1.939   4.303   4.431  0.0360 -0.1487  0.8444
  605TIP3    H1 1821   2.004   4.237   4.456  0.2312 -0.1050  0.4589
  605TIP3    H2 1822   1.969   4.335   4.346  0.7794  1.5326  1.7223
  606TIP3   OH2 1823   4.576   0.711   1.455 -0.3615  0.1308  0.4192
  606TIP3    H1 1824   4.490   0.679   1.429  0.1393  0.4172 -1.6687
  606TIP3    H2 1825   4.558   0.789   1.507 -1.4056 -0.7226  1.3631
  607TIP3   OH2 1826   0.427   4.522   5.065  0.7349 -0.3589 -0.4387
  607TIP3    H1 1827   0.384   4.539   4.981  0.9096  1.5658 -0.1739
  607TIP3    H2 1828   0.454   4.430   5.061 -0.2083 -0.5826 -2.0486
  608TIP3   OH2 1829   0.413   2.619   1.071  0.1129  0.0801 -0.4716
  608TIP3    H1 1830   0.428   2.539   1.121 -1.1460 -0.6339 -1.2248
  608TIP3    H2 1831   0.484   2.678   1.098  0.2355 -0.7794  1.1218
  609TIP3   OH2 1832   5.093   4.524   1.795  0.1823  0.0978 -0.1664
  609TIP3    H1 1833   5.105   4.464   1.721  1.1645  0.5881 -0.4262
  609TIP3    H2 1834   5.125   4.476   1.871 -0.0079 -0.0853 -0.2004
  610TIP3   OH2 1835   5.980   3.874   4.976 -0.6630  0.2680  0.6759
  610TIP3    H1 1836   6.024   3.789   4.970 -1.1662 -0.1748  2.9127
  610TIP3    H2 1837   6.050   3.938   4.977 -0.1761 -0.2691  1.3491
  611TIP3   OH2 1838   0.084   0.252   3.323  0.0561 -0.3838  0.1542
  611TIP3    H1 1839   0.109   0.274   3.413 -0.0309  1.0907 -0.1728
  611TIP3    H2 1840   0.038   0.169   3.331 -0.1761 -0.1425  1.5165
  612TIP3   OH2 1841   2.754   3.327   2.601 -0.2406  0.0441  0.3053
  612TIP3    H1 1842   2.840   3.288   2.619  0.1336  0.2717 -0.9473
  612TIP3    H2 1843   2.733   3.298   2.512 -1.0548  0.7380  0.2696
  613TIP3   OH2 1844   5.117   2.145   1.432  0.4126  0.0744  0.8206
  613TIP3    H1 1845   5.196   2.168   1.482  0.1684  2.1055  0.3109
  613TIP3    H2 1846   5.045   2.160   1.493  0.1698  1.8637  0.1492
  614TIP3   OH2 1847   1.837   5.595   4.216  0.1018  0.2756 -0.4822
  614TIP3    H1 1848   1.899   5.532   4.254 -0.6432  0.9912  2.0307
  614TIP3    H2 1849   1.751   5.561   4.240 -0.2983  2.3588  1.1830
  615TIP3   OH2 1850   4.698   3.214   4.980  0.7291  0.4835  0.2015
  615TIP3    H1 1851   4.784   3.173   4.975  1.2200  1.6457 -1.5260
  615TIP3    H2 1852   4.715   3.307   4.967 -0.5845  0.9868  1.8889
  616TIP3   OH2 1853   1.077   1.944   1.244 -0.0469  0.2254 -0.1903
  616TIP3    H1 1854   1.082   1.946   1.148  0.6066  1.0142 -0.1363
  616TIP3    H2 1855   1.111   1.858   1.268  1.0620  0.5503 -0.5858
  617TIP3   OH2 1856   3.170   1.354   1.958  0.4116 -0.5337  0.3291
  617TIP3    H1 1857   3.181   1.449   1.963 -1.6537 -0.1937 -1.0109
  617TIP3    H2 1858   3.251   1.323   1.919  0.0612  0.9835 -1.6923
  618TIP3   OH2 1859   5.458   4.991   4.575  0.5599 -0.3745 -0.1450
  618TIP3    H1 1860   5.534   4.990   4.516  1.3296 -0.9792  0.8317
  618TIP3    H2 1861   5.488   4.944   4.653 -0.5804  0.0476  0.5610
  619TIP3   OH2 1862   4.587   1.712   1.952  0.0792 -0.1923 -0.2772
  619TIP3    H1 1863   4.649   1.754   1.892 -0.5133 -0.2365 -0.9328
  619TIP3    H2 1864   4.524   1.780   1.974 -1.2587 -0.8612 -1.8539
  620TIP3   OH2 1865   3.951   1.441   1.442  0.4586  0.0371 -0.4328
  620TIP3    H1 1866   3.893   1.373   1.408 -0.7615  0.4879  0.6584
  620TIP3    H2 1867   4.026   1.441   1.384 -0.5263 -0.7670 -1.7340
  621TIP3   OH2 1868   2.119   3.023   1.932 -0.0128 -0.1275  0.2930
  621TIP3    H1 1869   2.124   3.119   1.937  2.4031 -0.1566 -1.1675
  621TIP3    H2 1870   2.173   2.992   2.004 -0.4923 -0.4127  0.5350
  622TIP3   OH2 1871   3.933   3.280   0.483  0.2701  0.5498 -0.2401
  622TIP3    H1 1872   3.902   3.295   0.573  0.6540 -0.9157  0.1409
  622TIP3    H2 1873   3.924   3.366   0.440  1.0480  1.5176  1.4809
  623TIP3   OH2 1874   6.188   2.011   2.102 -0.0176 -0.3958 -0.4801
  623TIP3    H1 1875   6.233   1.995   2.185 -0.3738 -1.5338 -0.4887
  623TIP3    H2 1876   6.212   2.100   2.078 -0.9307  0.4054  1.4905
  624TIP3   OH2 1877   5.015   4.010   0.768  0.6739 -0.3123 -0.0925
  624TIP3    H1 1878   5.012   4.085   0.827  1.2593 -0.1118 -0.3175
  624TIP3    H2 1879   4.963   4.037   0.692 -1.0617 -1.0043  0.8189
  625TIP3   OH2 1880   5.802   3.096   2.487  0.1231  0.0424 -0.1566
  625TIP3    H1 1881   5.838   3.023   2.436  3.1807  2.2775 -1.3658
  625TIP3    H2 1882   5.854   3.096   2.567 -0.2604  0.5380  0.0901
  626TIP3   OH2 1883   3.970   0.114   1.930  0.2613  0.0275 -0.9333
  626TIP3    H1 1884   3.994   0.092   2.020 -0.5870  1.2486 -0.4019
  626TIP3    H2 1885   3.909   0.045   1.903 -0.4923  0.3699 -0.1210
  627TIP3   OH2 1886   3.485   1.107   0.633 -0.1266 -0.1247 -0.0854
  627TIP3    H1 1887   3.430   1.067   0.701  0.2092 -1.1025 -0.3933
  627TIP3    H2 1888   3.496   1.039   0.567  1.6095  0.0056  0.0605
  628TIP3   OH2 1889   4.303   1.188   3.037  0.3684 -0.0371  0.0791
  628TIP3    H1 1890   4.268   1.268   2.998 -0.1756  1.2413  3.0253
  628TIP3    H2 1891   4.392   1.212   3.065  0.3883 -0.5984  0.4995
  629TIP3   OH2 1892   5.592   2.083   0.674 -0.2619 -0.1797  0.3338
  629TIP3    H1 1893   5.512   2.037   0.649 -1.2871  2.1221 -0.7043
  629TIP3    H2 1894   5.648   2.077   0.596 -0.5753  0.7262  0.0417
  630TIP3   OH2 1895   4.828   0.037   5.261  0.5319  0.0601 -0.0544
  630TIP3    H1 1896   4.879  -0.044   5.259 -0.5577 -0.5910 -2.7194
  630TIP3    H2 1897   4.763   0.023   5.330  0.2708 -1.3808 -0.5914
  631TIP3   OH2 1898   2.053   3.221   0.744  0.3071  0.2513  0.3956
  631TIP3    H1 1899   2.076   3.246   0.833  0.3716  0.6222  0.2758
  631TIP3    H2 1900   2.129   3.173   0.712  0.6851  0.9844  0.1943
  632TIP3   OH2 1901   0.413   5.449   0.354 -0.1368 -0.3719 -0.3957
  632TIP3    H1 1902   0.492   5.475   0.401 -0.3950  0.2484 -0.2960
  632TIP3    H2 1903   0.352   5.421   0.423 -0.2761 -0.1107 -0.4122
  633TIP3   OH2 1904   4.740   3.959   2.500  0.2270 -0.0880 -0.4750
  633TIP3    H1 1905   4.833   3.941   2.516 -0.2209 -0.4791  1.8619
  633TIP3    H2 1906   4.723   4.042   2.544 -0.6819 -0.3891 -0.2359
  634TIP3   OH2 1907   2.649   0.303   0.304 -0.2869 -0.4338 -0.3500
  634TIP3    H1 1908   2.702   0.223   0.308 -0.7978 -0.7867 -0.6380
  634TIP3    H2 1909   2.668   0.348   0.386 -0.2752 -1.0313 -0.0187
  635TIP3   OH2 1910   1.493   2.281   5.250 -0.6304 -0.0374 -0.3525
  635TIP3    H1 1911   1.490   2.359   5.306 -0.0312  0.0493 -0.4270
  635TIP3    H2 1912   1.415   2.231   5.273 -0.0791 -0.3099  1.0081
  636TIP3   OH2 1913   3.943   0.471   0.099  0.0579 -0.1185 -0.3419
  636TIP3    H1 1914   3.921   0.561   0.123  0.7613 -0.0973  0.2588
  636TIP3    H2 1915   3.860   0.423   0.106  0.1758 -0.0768  2.0293
  637TIP3   OH2 1916   4.001   0.628   1.120  0.5281 -0.0596 -0.1147
  637TIP3    H1 1917   3.927   0.624   1.059 -0.3634  0.5991  0.9142
  637TIP3    H2 1918   4.042   0.712   1.103 -0.7740  0.9008  1.3899
  638TIP3   OH2 1919   2.415   0.579   0.219 -0.5195  0.1378  0.3392
  638TIP3    H1 1920   2.376   0.525   0.151 -0.5477  0.6114 -0.0165
  638TIP3    H2 1921   2.494   0.615   0.179 -0.6793  0.6321  0.4656
  639TIP3   OH2 1922   4.149   1.192   0.422  0.7248  0.0404 -0.0604
  639TIP3    H1 1923   4.228   1.225   0.379  1.1397  1.1855  1.5296
  639TIP3    H2 1924   4.120   1.265   0.478  0.4243 -1.5367  1.8998
  640TIP3   OH2 1925   2.819   5.781   0.634  0.4217 -0.5353  0.0376
  640TIP3    H1 1926   2.893   5.798   0.693  0.6520 -0.5989 -0.2297
  640TIP3    H2 1927   2.853   5.717   0.571 -0.4804 -2.1173  1.1287
  641TIP3   OH2 1928   3.769   1.690   0.198  0.3918  0.0389 -0.2385
  641TIP3    H1 1929   3.764   1.599   0.169  1.0978 -0.2117  0.4319
  641TIP3    H2 1930   3.856   1.719   0.171 -0.0266  0.6787 -0.9217
  642TIP3   OH2 1931   5.681   3.129   4.464  0.4622  0.2415  0.4654
  642TIP3    H1 1932   5.731   3.170   4.535 -1.4784  2.5019  0.5822
  642TIP3    H2 1933   5.589   3.148   4.485 -0.2332 -0.3246 -1.8773
  643TIP3   OH2 1934   3.625   1.892   0.312 -0.0876  0.0115  0.1117
  643TIP3    H1 1935   3.661   1.810   0.279 -0.8858 -0.6568  0.8983
  643TIP3    H2 1936   3.698   1.954   0.308  0.2555 -0.4846 -1.3709
  644TIP3   OH2 1937   4.132   0.827   1.517 -0.3187 -0.1276  0.0330
  644TIP3    H1 1938   4.051   0.780   1.537 -1.3668  1.1171 -1.1740
  644TIP3    H2 1939   4.138   0.894   1.585 -0.6779  0.2119 -0.2630
  645TIP3   OH2 1940   3.409   0.978   1.817  0.1402 -0.4488  0.0111
  645TIP3    H1 1941   3.446   0.890   1.815 -3.0778 -1.9520  2.4180
  645TIP3    H2 1942   3.343   0.978   1.748  1.4019  0.7285 -1.2263
  646TIP3   OH2 1943   2.902   3.416   0.661  0.2126  0.4569  0.2171
  646TIP3    H1 1944   2.848   3.492   0.685  0.9546  0.4875  1.8773
  646TIP3    H2 1945   2.875   3.347   0.721 -0.9773 -0.8474 -1.7823
  647TIP3   OH2 1946   2.055   4.395   4.185 -0.0938  0.1337  0.2726
  647TIP3    H1 1947   2.087   4.329   4.124  1.3575  0.3157  0.8108
  647TIP3    H2 1948   2.006   4.457   4.131 -0.3748 -0.6874 -0.4242
  648TIP3   OH2 1949   4.412   1.137   1.431  0.6388  0.7466 -0.6202
  648TIP3    H1 1950   4.353   1.064   1.450  1.3787  0.4793  0.7263
  648TIP3    H2 1951   4.390   1.164   1.342  1.1328 -1.8671 -1.5780
  649TIP3   OH2 1952   0.425   3.911   0.089 -0.2085 -0.0357  0.0743
  649TIP3    H1 1953   0.472   3.873   0.163  2.0218 -0.9328 -1.7510
  649TIP3    H2 1954   0.454   4.002   0.087 -0.7591  0.1588  0.6621
  650TIP3   OH2 1955   2.508  -0.014   4.168 -0.1342  0.0432 -0.0903
  650TIP3    H1 1956   2.553   0.035   4.237 -0.9032 -0.5719  0.8663
  650TIP3    H2 1957   2.475   0.053   4.108 -0.0333  0.6193  0.4938
  651TIP3   OH2 1958   3.715   1.563   1.062  0.0366  0.0590 -0.2922
  651TIP3    H1 1959   3.794   1.592   1.016  0.1637  0.4191  0.1535
  651TIP3    H2 1960   3.649   1.555   0.993  0.7058 -1.1488 -0.8056
  652TIP3   OH2 1961   5.672   3.172   1.544  0.1713  0.4232 -0.7792
  652TIP3    H1 1962   5.674   3.223   1.625  1.6263 -1.5732  0.5071
  652TIP3    H2 1963   5.699   3.234   1.476  0.0466  1.8469  0.4475
  653TIP3   OH2 1964   4.245   2.861   0.365 -0.4434  0.1104 -0.3598
  653TIP3    H1 1965   4.179   2.808   0.410 -0.8461  0.3845 -0.6247
  653TIP3    H2 1966   4.225   2.850   0.272 -0.1579  0.2518 -0.4395
  654TIP3   OH2 1967   0.582   5.270   4.568 -0.0344  0.2780  0.5542
  654TIP3    H1 1968   0.651   5.224   4.520 -1.0996 -1.2400  0.4423
  654TIP3    H2 1969   0.559   5.344   4.512 -0.8686 -1.1621 -1.0433
  655TIP3   OH2 1970   5.130   3.437   2.022  0.7858  0.2341  0.2004
  655TIP3    H1 1971   5.037   3.420   2.003  1.2237 -2.1336  0.0057
  655TIP3    H2 1972   5.129   3.504   2.089 -1.0620  0.8535 -0.4185
  656TIP3   OH2 1973   3.093   4.767   0.140  0.0051  0.4847  0.0592
  656TIP3    H1 1974   3.185   4.742   0.149 -0.3132 -0.8087 -0.1427
  656TIP3    H2 1975   3.045   4.694   0.178 -1.0500 -0.6479 -3.2313
  657TIP3   OH2 1976   4.513   3.551   1.571  0.4746  0.4350 -0.0397
  657TIP3    H1 1977   4.583   3.612   1.551 -0.6598  1.7613  0.0008
  657TIP3    H2 1978   4.546   3.500   1.645  1.0108  1.6989  0.6040
  658TIP3   OH2 1979   0.116   3.222   1.566 -0.3764  0.3079  0.1187
  658TIP3    H1 1980   0.046   3.169   1.529 -0.5100 -0.5002  1.4942
  658TIP3    H2 1981   0.086   3.243   1.655  1.2529 -0.3220  0.8361
  659TIP3   OH2 1982   6.429   4.870   1.136 -0.0298  0.5894 -0.0729
  659TIP3    H1 1983   6.376   4.790   1.132  0.3530  0.3981 -1.6496
  659TIP3    H2 1984   6.519   4.838   1.145 -0.1011  0.9004  1.8964
  660TIP3   OH2 1985   3.104   0.822   4.024 -0.3670 -0.3878  0.3891
  660TIP3    H1 1986   3.076   0.909   4.050 -2.4236 -1.7741  3.0102
  660TIP3    H2 1987   3.082   0.817   3.931 -0.4375  1.7606  0.2648
  661TIP3   OH2 1988   6.377   4.620   1.401  0.9569  0.7753 -0.7064
  661TIP3    H1 1989   6.426   4.601   1.321  0.5433 -2.2246 -0.3239
  661TIP3    H2 1990   6.299   4.565   1.394  0.0412  1.8334  0.9353
  662TIP3   OH2 1991   6.224   2.347   1.408  0.3637  0.2768  0.3786
  662TIP3    H1 1992   6.154   2.369   1.347  1.1499  1.9377  0.0405
  662TIP3    H2 1993   6.206   2.257   1.435 -1.0933  0.2118 -0.7854
  663TIP3   OH2 1994   1.158   5.351   5.174  0.3211 -0.0700  0.1549
  663TIP3    H1 1995   1.089   5.384   5.233 -1.8492 -3.0390 -0.6109
  663TIP3    H2 1996   1.238   5.393   5.206 -1.2411  0.6485  3.3884
  664TIP3   OH2 1997   2.715   5.476   4.402  0.3859  0.3937  0.1014
  664TIP3    H1 1998   2.659   5.428   4.463 -1.2519  1.8193 -0.2444
  664TIP3    H2 1999   2.731   5.560   4.445  1.7089  0.2575 -0.1098
  665TIP3   OH2 2000   5.142   1.906   0.906 -0.3571  0.4165 -0.2064
  665TIP3    H1 2001   5.138   1.889   0.812  0.1228  2.5676 -0.6459
  665TIP3    H2 2002   5.177   1.994   0.913 -1.4868  0.7389  1.9614
  666TIP3   OH2 2003   1.907   4.933   4.574 -0.1695  0.2460  0.5722
  666TIP3    H1 2004   1.918   4.960   4.666  2.2645  1.5885 -0.0808
  666TIP3    H2 2005   1.898   5.014   4.526  0.9055 -0.3584 -0.6667
  667TIP3   OH2 2006   3.733   6.015   0.224 -0.1724  0.3802 -0.9467
  667TIP3    H1 2007   3.681   6.038   0.147 -1.3627  2.3586  0.4279
  667TIP3    H2 2008   3.753   5.922   0.212 -2.3060  0.0932 -2.4995
  668TIP3   OH2 2009   0.329   0.484   0.452  0.3275  0.4861 -0.4161
  668TIP3    H1 2010   0.321   0.450   0.542 -0.8538 -0.0989 -0.7291
  668TIP3    H2 2011   0.242   0.516   0.431  0.6206  0.6788 -1.3359
  669TIP3   OH2 2012   6.390   4.526   5.093 -0.4864 -0.7112 -0.3172
  669TIP3    H1 2013   6.328   4.559   5.158 -1.1990 -0.6204 -1.0413
  669TIP3    H2 2014   6.470   4.510   5.143 -0.4343  1.1698  0.2291
  670TIP3   OH2 2015   5.796   5.178   2.302 -0.0338  0.1387 -0.0654
  670TIP3    H1 2016   5.874   5.203   2.253 -0.3161  1.5748  0.2099
  670TIP3    H2 2017   5.739   5.255   2.299 -1.2951 -0.7625  0.0381
  671TIP3   OH2 2018   6.128   2.314   0.662 -0.3612  0.0988 -0.1222
  671TIP3    H1 2019   6.216   2.325   0.697 -0.4287 -1.8372  0.7335
  671TIP3    H2 2020   6.121   2.378   0.591  1.4836  0.7166  0.2392
  672TIP3   OH2 2021   4.490  -0.024   0.259  0.0428  0.0383  0.3526
  672TIP3    H1 2022   4.584  -0.010   0.265  0.1770 -0.0601 -1.2925
  672TIP3    H2 2023   4.453   0.065   0.262  0.3230  0.2119 -1.0231
  673TIP3   OH2 2024   2.520   4.502   4.437 -0.2394  0.7012 -0.3173
  673TIP3    H1 2025   2.582   4.430   4.443 -1.4321 -0.4398 -1.5131
  673TIP3    H2 2026   2.441   4.464   4.398 -0.0038  3.1546 -3.4229
  674TIP3   OH2 2027   5.339   0.683   4.124  0.2248 -0.3195  0.7789
  674TIP3    H1 2028   5.404   0.724   4.067  0.8983 -0.3177  1.5355
  674TIP3    H2 2029   5.284   0.632   4.065  0.9236 -0.3305  0.1285
  675TIP3   OH2 2030   1.292   4.990   4.188  0.5106  0.2381 -0.0413
  675TIP3    H1 2031   1.315   5.081   4.207 -0.0095  0.4429 -0.3833
  675TIP3    H2 2032   1.363   4.939   4.226  0.9052  0.7993 -0.0227
  676TIP3   OH2 2033   4.368   3.732   0.765 -0.3204  0.1000 -0.0888
  676TIP3    H1 2034   4.430   3.729   0.838 -1.4845 -1.8692  0.8809
  676TIP3    H2 2035   4.420   3.714   0.687  0.5175 -0.3968  0.5807
  677TIP3   OH2 2036   5.037   2.171   2.129  0.2491  0.1475  0.1717
  677TIP3    H1 2037   5.080   2.242   2.176  1.6125 -0.2813 -0.4110
  677TIP3    H2 2038   4.947   2.171   2.162  0.0320  2.5816 -0.2950
  678TIP3   OH2 2039   6.284   1.623   0.262 -0.3509 -0.0072 -0.1384
  678TIP3    H1 2040   6.203   1.603   0.309 -1.5592  2.0188 -1.2362
  678TIP3    H2 2041   6.294   1.552   0.199 -1.2537 -0.3043  0.0527
  679TIP3   OH2 2042   5.836   1.272   0.289 -0.0461  0.0176 -0.4104
  679TIP3    H1 2043   5.881   1.299   0.208 -1.1617  1.8831 -0.4401
  679TIP3    H2 2044   5.907   1.253   0.350  0.8190 -1.2858 -1.7716
  680TIP3   OH2 2045   0.067   0.471   0.959 -0.1041  0.1390  0.1540
  680TIP3    H1 2046   0.023   0.553   0.985 -2.0842 -0.6660 -0.5036
  680TIP3    H2 2047   0.051   0.465   0.865 -1.9497 -2.1116  0.5589
  681TIP3   OH2 2048   2.624   2.211   1.118  0.5474 -0.2920 -0.4496
  681TIP3    H1 2049   2.598   2.172   1.034 -0.1782 -1.4789  0.3217
  681TIP3    H2 2050   2.611   2.142   1.182 -1.8242  1.5199  1.1258
  682TIP3   OH2 2051   6.315   0.139   1.392  0.3836  0.1548  0.2541
  682TIP3    H1 2052   6.376   0.135   1.318 -0.4043  1.1664 -0.4770
  682TIP3    H2 2053   6.254   0.209   1.368 -0.6254 -0.3530  1.3048
  683TIP3   OH2 2054   5.855   3.341   1.369 -0.5759  0.5272  0.1883
  683TIP3    H1 2055   5.892   3.335   1.280 -0.5617  0.1052  0.2179
  683TIP3    H2 2056   5.801   3.419   1.368 -0.7061  0.4329 -0.2452
  684TIP3   OH2 2057   4.797   3.798   1.037  0.5795  0.0951  0.2636
  684TIP3    H1 2058   4.773   3.869   1.095  1.9220  0.6666  0.1531
  684TIP3    H2 2059   4.775   3.829   0.950  1.0444  0.3327  0.2279
  685TIP3   OH2 2060   3.309   4.388   2.481  0.1576 -0.1162 -0.0773
  685TIP3    H1 2061   3.298   4.439   2.401 -1.3810 -1.4563 -0.7367
  685TIP3    H2 2062   3.255   4.433   2.546  1.2120  0.8269  0.1701
  686TIP3   OH2 2063   5.078   0.561   0.465 -0.5080 -0.2996  0.0864
  686TIP3    H1 2064   5.090   0.628   0.533  1.2468 -0.2432 -0.2590
  686TIP3    H2 2065   5.069   0.479   0.513 -1.4248  0.0114  0.4628
  687TIP3   OH2 2066   1.804   4.868   5.145  0.0576 -0.1420  0.0994
  687TIP3    H1 2067   1.770   4.957   5.137  0.6301  0.0871  0.1826
  687TIP3    H2 2068   1.732   4.818   5.183 -0.8682 -0.1092 -1.5847
  688TIP3   OH2 2069   1.457   1.105   0.399 -0.2652 -0.6625 -0.1073
  688TIP3    H1 2070   1.442   1.012   0.384 -0.1483 -0.9606  1.5836
  688TIP3    H2 2071   1.547   1.110   0.432  0.2460  0.2133 -1.5498
  689TIP3   OH2 2072   0.228   2.886   0.640  0.1480  0.0187 -0.1372
  689TIP3    H1 2073   0.312   2.886   0.595  1.3252  0.6661  1.9959
  689TIP3    H2 2074   0.248   2.858   0.729 -1.7504  1.0353  0.6501
  690TIP3   OH2 2075   5.012   3.580   1.045  0.4228 -0.2820  0.0340
  690TIP3    H1 2076   4.994   3.587   0.951 -0.7175 -0.6979  0.2168
  690TIP3    H2 2077   4.935   3.536   1.081  0.8052 -0.0245  1.1837
  691TIP3   OH2 2078   5.185   1.053   1.570  0.1303  0.0907 -0.2467
  691TIP3    H1 2079   5.264   1.008   1.601 -0.7545 -0.9574  0.5057
  691TIP3    H2 2080   5.119   0.985   1.566 -1.1286  1.2490  0.5198
  692TIP3   OH2 2081   0.973   0.784   2.011  0.7922  0.7352 -0.3014
  692TIP3    H1 2082   1.062   0.758   2.036 -0.1488 -1.2446  1.1029
  692TIP3    H2 2083   0.917   0.749   2.080 -1.2818  0.3326 -2.1406
  693TIP3   OH2 2084   4.968   6.009   0.039  0.4563  0.3820  0.3324
  693TIP3    H1 2085   4.945   6.044   0.125  0.4472  1.2192 -0.0077
  693TIP3    H2 2086   4.961   6.084  -0.020  2.8600  0.3925  0.0139
  694TIP3   OH2 2087   0.823   3.518   4.304  0.3002  0.1298 -0.5702
  694TIP3    H1 2088   0.861   3.440   4.344  2.1260  0.8751 -0.8054
  694TIP3    H2 2089   0.810   3.495   4.212 -0.2952 -0.2953 -0.3813
  695TIP3   OH2 2090   0.184   2.231   1.965  0.2982  0.5803 -0.0241
  695TIP3    H1 2091   0.134   2.309   1.943 -1.0588 -1.1496 -3.4421
  695TIP3    H2 2092   0.138   2.193   2.040  1.3479  3.3080  2.0905
  696TIP3   OH2 2093   5.485   0.389   0.301  0.0715 -0.1983  0.0662
  696TIP3    H1 2094   5.532   0.327   0.245 -0.8719  0.5055 -1.5296
  696TIP3    H2 2095   5.551   0.421   0.362  0.9476 -1.5215 -0.1660
  697TIP3   OH2 2096   1.863   1.425   4.973  0.0112 -0.4427 -0.3337
  697TIP3    H1 2097   1.895   1.337   4.956 -1.9107 -1.2152 -0.0753
  697TIP3    H2 2098   1.883   1.474   4.894  1.9030 -0.8416 -0.1401
  698TIP3   OH2 2099   6.148   2.932   3.979  0.3828  0.5242  0.3198
  698TIP3    H1 2100   6.137   2.858   4.038  0.5532  0.5620  0.3976
  698TIP3    H2 2101   6.206   2.899   3.910 -2.0081 -0.4016 -1.3212
  699TIP3   OH2 2102   5.484   3.551   2.344 -0.1199 -0.4136 -0.1659
  699TIP3    H1 2103   5.469   3.545   2.438 -1.0546 -0.4328 -0.3086
  699TIP3    H2 2104   5.527   3.635   2.331 -1.6679  0.4240  0.0774
  700TIP3   OH2 2105   1.055   3.750   5.196  0.0336  1.0848  0.0441
  700TIP3    H1 2106   1.083   3.721   5.283  0.9220 -0.0159 -0.6075
  700TIP3    H2 2107   1.099   3.692   5.135 -2.3323  0.4056 -1.0955
  701TIP3   OH2 2108   4.985   0.624   0.863  0.0263 -0.2756  0.7005
  701TIP3    H1 2109   4.991   0.554   0.928 -2.7935 -1.2212  0.0348
  701TIP3    H2 2110   4.940   0.695   0.910  0.6518  0.1549  0.6490
  702TIP3   OH2 2111   2.258   5.268   0.771 -0.1954  0.3312 -0.0813
  702TIP3    H1 2112   2.288   5.342   0.719 -1.2040  0.1788 -0.8931
  702TIP3    H2 2113   2.329   5.204   0.766  0.8141  1.3485  0.8767
  703TIP3   OH2 2114   3.078   0.873   4.367 -0.6594  0.2857 -0.2811
  703TIP3    H1 2115   3.065   0.937   4.297  1.1046 -1.8240 -2.6337
  703TIP3    H2 2116   3.143   0.914   4.425 -1.3701  1.6082 -0.3857
  704TIP3   OH2 2117   3.699   4.014   2.170  0.8195 -0.6114 -0.3940
  704TIP3    H1 2118   3.633   3.982   2.232  0.7148 -0.2722 -0.3337
  704TIP3    H2 2119   3.781   3.976   2.201  1.1086  1.1999  1.1438
  705TIP3   OH2 2120   5.135   3.076   1.126 -0.2011  0.4727  0.4674
  705TIP3    H1 2121   5.097   3.082   1.038  0.3603  0.5697  0.2327
  705TIP3    H2 2122   5.162   3.165   1.147 -0.1095  0.4046  0.6399
  706TIP3   OH2 2123   1.777   2.741   2.085 -0.2930 -0.0653 -0.4454
  706TIP3    H1 2124   1.801   2.810   2.024  2.0593 -0.4031  0.0276
  706TIP3    H2 2125   1.791   2.660   2.035 -1.3663 -0.2673 -0.4359
  707TIP3   OH2 2126   0.103   4.202   1.179  0.3400  0.3003 -0.6838
  707TIP3    H1 2127   0.197   4.185   1.182  0.0730 -0.9828  0.9918
  707TIP3    H2 2128   0.074   4.160   1.098  0.8301 -1.2308 -0.0703
  708TIP3   OH2 2129   0.090   1.052   1.701  0.5075 -0.0311  0.7279
  708TIP3    H1 2130   0.009   1.036   1.652  0.3360 -1.2859  1.4022
  708TIP3    H2 2131   0.158   1.059   1.633  0.1012 -0.6744  0.2530
  709TIP3   OH2 2132   5.143   1.493   0.194  0.5587 -0.3608 -0.0591
  709TIP3    H1 2133   5.149   1.521   0.103 -1.7131  2.0303  0.4769
  709TIP3    H2 2134   5.170   1.570   0.245 -2.5179 -0.1688  1.3756
  710TIP3   OH2 2135   6.264   1.654   1.718 -0.1511  0.1179  0.5412
  710TIP3    H1 2136   6.188   1.700   1.684 -0.2753  0.8183  1.7318
  710TIP3    H2 2137   6.263   1.672   1.812  0.8408 -0.8027  0.7398
  711TIP3   OH2 2138   2.812   3.026   2.395  0.0498 -0.2037  0.3314
  711TIP3    H1 2139   2.871   3.102   2.393 -0.4138  0.1453 -0.1986
  711TIP3    H2 2140   2.795   3.006   2.304 -0.0563 -0.7743  0.4777
  712TIP3   OH2 2141   5.554   2.759   0.998 -0.4370 -0.3575 -0.1305
  712TIP3    H1 2142   5.475   2.793   1.040  1.3374 -0.0804  3.0964
  712TIP3    H2 2143   5.607   2.837   0.980  0.1088 -0.7448 -0.1919
  713TIP3   OH2 2144   1.287   2.991   1.351  0.1904 -0.5487 -0.9243
  713TIP3    H1 2145   1.280   2.898   1.326  0.3092 -0.9198  0.3642
  713TIP3    H2 2146   1.329   2.989   1.437 -2.0534  0.5553  0.2520
  714TIP3   OH2 2147   0.352   1.949   1.156  0.1194 -0.5229 -0.0320
  714TIP3    H1 2148   0.419   1.990   1.211 -1.6325  0.7293  1.2038
  714TIP3    H2 2149   0.286   1.918   1.217 -1.2457 -0.2534 -1.3441
  715TIP3   OH2 2150   5.376   5.854   0.753  0.4352  0.2238  0.2389
  715TIP3    H1 2151   5.401   5.833   0.663 -0.7202 -0.2801  0.0291
  715TIP3    H2 2152   5.314   5.926   0.744  1.0882  0.8571  0.7013
  716TIP3   OH2 2153   5.182   3.382   0.684 -0.2143  0.5950 -0.2023
  716TIP3    H1 2154   5.120   3.455   0.679 -0.9453 -0.1104 -1.7266
  716TIP3    H2 2155   5.192   3.353   0.593  0.4471 -0.8928  0.3390
  717TIP3   OH2 2156   0.957   2.726   0.651 -0.4098  0.3216 -0.2827
  717TIP3    H1 2157   0.930   2.692   0.736 -1.4995  1.7292 -0.0493
  717TIP3    H2 2158   1.024   2.792   0.671 -0.5127  0.5015 -0.5219
  718TIP3   OH2 2159   0.593   4.250   1.284  0.5968 -0.1683 -0.3006
  718TIP3    H1 2160   0.574   4.157   1.267 -3.2246  0.6890 -1.0736
  718TIP3    H2 2161   0.643   4.278   1.208  1.4196 -1.4702 -0.2619
  719TIP3   OH2 2162   5.075   3.563   0.490  0.0453  0.4937  0.0893
  719TIP3    H1 2163   5.076   3.650   0.451 -0.0394  0.2865 -0.3751
  719TIP3    H2 2164   5.128   3.509   0.431 -0.6756  0.0185 -0.1298
  720TIP3   OH2 2165   6.486   3.682   2.147 -0.2476  0.1994  0.0804
  720TIP3    H1 2166   6.422   3.610   2.143  0.1861 -0.1791 -0.1659
  720TIP3    H2 2167   6.463   3.731   2.225  0.4658 -1.1658  1.1653
  721TIP3   OH2 2168   3.277   4.541   1.772 -0.1294 -0.0361 -0.1718
  721TIP3    H1 2169   3.331   4.463   1.788 -1.6371 -1.0446  0.1444
  721TIP3    H2 2170   3.189   4.516   1.801 -0.7560  1.6096 -0.5696
  722TIP3   OH2 2171   5.338   0.806   0.900 -0.2051 -0.3331 -0.4042
  722TIP3    H1 2172   5.301   0.825   0.814 -0.4906 -0.0666 -0.2263
  722TIP3    H2 2173   5.262   0.791   0.956 -0.0885  1.1952  0.1900
  723TIP3   OH2 2174   1.807   4.358   1.049 -0.0221 -0.2511 -0.2284
  723TIP3    H1 2175   1.787   4.317   0.965 -1.0594  0.6707 -0.4354
  723TIP3    H2 2176   1.780   4.449   1.039 -0.2054 -0.1396  1.1185
  724TIP3   OH2 2177   0.797   1.894   3.758 -0.8097 -0.0838  0.4220
  724TIP3    H1 2178   0.884   1.907   3.796 -0.8021 -0.0561  0.3951
  724TIP3    H2 2179   0.790   1.799   3.745  0.0276  0.0862 -1.4768
  725TIP3   OH2 2180   4.946   4.967   1.865 -0.1128  0.3138  0.4617
  725TIP3    H1 2181   4.976   5.028   1.797 -0.4082  0.2974  0.3144
  725TIP3    H2 2182   5.026   4.925   1.897 -0.0082  0.0216 -0.1662
  726TIP3   OH2 2183   3.514   1.946   4.769 -0.8990  0.3164  0.2445
  726TIP3    H1 2184   3.453   1.996   4.714  2.3601  2.4453 -1.5957
  726TIP3    H2 2185   3.548   1.878   4.711 -0.3558  0.1212  0.7901
  727TIP3   OH2 2186   5.886   3.838   2.530  0.0855 -0.3579  0.3135
  727TIP3    H1 2187   5.809   3.858   2.476  0.6101  1.1974  0.1142
  727TIP3    H2 2188   5.929   3.766   2.485 -0.7917 -0.6783 -0.0289
  728TIP3   OH2 2189   2.068   5.467   0.560  0.3266 -0.0833  0.0007
  728TIP3    H1 2190   2.149   5.464   0.611 -0.7265 -1.1821  1.6226
  728TIP3    H2 2191   2.071   5.552   0.516  2.1823  0.0408  0.3376
  729TIP3   OH2 2192   6.097   4.337   0.495  0.1508  0.0075 -0.6440
  729TIP3    H1 2193   6.020   4.341   0.552  0.1082 -0.6700 -0.6470
  729TIP3    H2 2194   6.106   4.426   0.460  1.0291  0.7942  1.5402
  730TIP3   OH2 2195   0.111   3.800   1.426 -0.3833 -0.4732  0.0771
  730TIP3    H1 2196   0.079   3.808   1.336  1.0712 -0.0938 -0.4238
  730TIP3    H2 2197   0.197   3.758   1.417 -0.3017 -0.5906  1.3100
  731TIP3   OH2 2198   2.947   5.156   5.136  0.3393  0.0867  0.0552
  731TIP3    H1 2199   3.026   5.185   5.090 -0.9268  0.6567 -1.8276
  731TIP3    H2 2200   2.926   5.229   5.195  1.8736 -0.5757  1.4682
  732TIP3   OH2 2201   2.228   3.904   1.066 -0.0467  0.4999 -0.2834
  732TIP3    H1 2202   2.295   3.836   1.062 -0.6290  0.0138 -4.6223
  732TIP3    H2 2203   2.275   3.985   1.048  0.2947  0.9808  2.6742
  733TIP3   OH2 2204   0.040   2.334   1.559  0.1872 -0.7639 -0.3831
  733TIP3    H1 2205   0.047   2.425   1.588  0.2652 -1.2470  1.1632
  733TIP3    H2 2206   0.032   2.339   1.463  1.3070  0.7937 -0.3962
  734TIP3   OH2 2207   6.333   2.897   2.113  0.2420 -0.0481  0.3419
  734TIP3    H1 2208   6.251   2.850   2.101 -0.7290  1.5875  0.4258
  734TIP3    H2 2209   6.388   2.868   2.040 -1.3976  0.9137 -1.3171
  735TIP3   OH2 2210   3.565   5.575   3.948 -0.4903  0.3140 -0.1413
  735TIP3    H1 2211   3.481   5.560   3.905 -1.1785 -0.5545  1.4588
  735TIP3    H2 2212   3.630   5.536   3.889 -1.3615 -0.4187 -0.6238
  736TIP3   OH2 2213   1.482   4.254   0.769 -0.5498 -0.0197  0.2474
  736TIP3    H1 2214   1.394   4.225   0.745 -0.1974 -1.4773  0.6802
  736TIP3    H2 2215   1.526   4.266   0.685 -1.1830  0.7877  0.0256
  737TIP3   OH2 2216   0.127   2.543   1.791  0.2868  0.3056  0.3466
  737TIP3    H1 2217   0.064   2.591   1.738 -0.1546 -0.2340  0.3798
  737TIP3    H2 2218   0.074   2.498   1.857  0.6628 -0.4441  0.1492
  738TIP3   OH2 2219   1.599   4.778   1.160 -0.6637  0.0015  0.1099
  738TIP3    H1 2220   1.663   4.719   1.121 -0.7175  0.4402 -0.6560
  738TIP3    H2 2221   1.559   4.727   1.230 -1.9122 -1.4750 -1.6335
  739TIP3   OH2 2222   1.509   2.147   2.990  0.1655 -0.3461  0.4074
  739TIP3    H1 2223   1.549   2.073   3.034 -2.7615 -1.8271  0.7265
  739TIP3    H2 2224   1.578   2.183   2.935  1.8599 -2.8101  0.8444
  740TIP3   OH2 2225   0.971   1.388   0.238 -0.1081  0.0557  0.3179
  740TIP3    H1 2226   0.938   1.414   0.152 -0.8954 -0.5123  0.4452
  740TIP3    H2 2227   0.920   1.441   0.299  1.3337  1.4050  0.4008
  741TIP3   OH2 2228   5.032   5.416   2.594 -0.2658 -0.1562 -0.5396
  741TIP3    H1 2229   5.039   5.435   2.688 -2.1349  1.8304 -0.7765
  741TIP3    H2 2230   4.938   5.421   2.575  0.0853 -0.6229 -2.5207
  742TIP3   OH2 2231   4.290   4.893   2.109 -0.1195  0.1951  0.3744
  742TIP3    H1 2232   4.217   4.951   2.130 -0.5814 -0.2193 -0.0598
  742TIP3    H2 2233   4.314   4.853   2.193 -1.2351 -0.6267  0.3195
  743TIP3   OH2 2234   6.492   4.775   1.681  0.4895  0.2493  0.5063
  743TIP3    H1 2235   6.490   4.693   1.631  2.0378  0.8616 -0.6275
  743TIP3    H2 2236   6.457   4.840   1.620  1.0195  0.7467  0.7326
  744TIP3   OH2 2237   5.738   2.630   0.437  0.4268 -0.3373 -0.2135
  744TIP3    H1 2238   5.746   2.629   0.532  1.0305 -1.9112 -0.2637
  744TIP3    H2 2239   5.771   2.717   0.411  2.1869 -0.6602  0.8648
  745TIP3   OH2 2240   1.375   3.244   2.277  1.2323  0.8590 -0.7355
  745TIP3    H1 2241   1.321   3.175   2.239  1.4243  0.3828 -0.1602
  745TIP3    H2 2242   1.360   3.320   2.222  0.8736  0.4054 -1.2670
  746TIP3   OH2 2243   4.718   4.412   0.694 -0.4478  0.1632 -0.2119
  746TIP3    H1 2244   4.731   4.328   0.649 -2.6945 -0.0011 -0.5859
  746TIP3    H2 2245   4.624   4.420   0.705 -0.1416  1.7527  1.5764
  747TIP3   OH2 2246   1.628   4.628   2.910  0.5982  0.1815 -0.0393
  747TIP3    H1 2247   1.659   4.572   2.839  1.1383  0.4985 -0.0554
  747TIP3    H2 2248   1.621   4.569   2.986  0.5973 -0.0314 -0.2059
  748TIP3   OH2 2249   0.178  -0.010   2.385 -0.5050  0.3662  0.1258
  748TIP3    H1 2250   0.093  -0.051   2.402 -0.7720  0.7680 -0.2039
  748TIP3    H2 2251   0.156   0.081   2.365 -0.1189  0.1500 -1.3300
  749TIP3   OH2 2252   6.409   1.641   0.648 -0.3186  0.3084  0.0612
  749TIP3    H1 2253   6.314   1.630   0.655 -0.5627  1.5332 -1.0109
  749TIP3    H2 2254   6.420   1.734   0.628  1.0436 -0.0472 -0.9056
  750TIP3   OH2 2255   5.809   2.906   1.419  0.1360 -0.2393  0.3888
  750TIP3    H1 2256   5.769   2.965   1.483  0.4819  0.5848 -0.1381
  750TIP3    H2 2257   5.900   2.897   1.449  0.1293 -0.3651  0.3716
  751TIP3   OH2 2258   2.125   2.971   1.675  0.0420 -0.0062  0.9040
  751TIP3    H1 2259   2.143   2.984   1.768  0.8385  0.1068  0.7355
  751TIP3    H2 2260   2.112   3.059   1.641  0.8672  0.0286  0.6822
  752TIP3   OH2 2261   1.516   3.297   0.895 -0.2331  0.2147  0.1963
  752TIP3    H1 2262   1.424   3.324   0.903  0.0269  0.8056  1.2807
  752TIP3    H2 2263   1.566   3.375   0.919  0.5311 -1.1445  3.2707
  753TIP3   OH2 2264   1.250   4.769   2.704  0.2314 -0.1192  0.1775
  753TIP3    H1 2265   1.158   4.743   2.712 -0.0010  0.7386  0.3042
  753TIP3    H2 2266   1.292   4.728   2.780 -0.0592 -0.4388  0.1706
  754TIP3   OH2 2267   0.057   4.899   3.016  0.9412 -0.0261  0.1307
  754TIP3    H1 2268   0.034   4.854   3.097 -0.1527  0.7184  0.2384
  754TIP3    H2 2269   0.026   4.989   3.029  2.6081  0.6317 -0.2995
  755TIP3   OH2 2270   0.278   5.675   4.926  0.6154  1.0100 -0.1588
  755TIP3    H1 2271   0.346   5.627   4.879  0.0217 -0.3885  0.3959
  755TIP3    H2 2272   0.227   5.718   4.858  2.0374  2.0778 -0.5807
  756TIP3   OH2 2273   5.683   0.649   1.343  0.8132 -0.2644 -0.2800
  756TIP3    H1 2274   5.639   0.663   1.259  0.6629  0.0230 -0.1520
  756TIP3    H2 2275   5.618   0.672   1.409  1.1586  0.1737 -0.0936
  757TIP3   OH2 2276   5.924   3.798   2.105  0.3672 -0.0279  0.0067
  757TIP3    H1 2277   5.889   3.714   2.077  0.1921  0.2457 -0.6046
  757TIP3    H2 2278   5.847   3.855   2.111  0.2990 -0.2816  1.7904
  758TIP3   OH2 2279   5.068   3.614   2.221 -0.0947 -0.1888  0.2161
  758TIP3    H1 2280   5.007   3.584   2.289 -2.2788 -0.1255 -1.6246
  758TIP3    H2 2281   5.131   3.669   2.267 -2.6332  1.4009  1.8924
  759TIP3   OH2 2282   2.198   5.455   5.061  0.1193  0.4000 -0.0375
  759TIP3    H1 2283   2.194   5.528   4.999  0.9976 -0.7941 -1.5455
  759TIP3    H2 2284   2.286   5.417   5.049  0.5227  0.4590  2.3316
  760TIP3   OH2 2285   0.892   3.434   0.219  0.6192 -0.4180 -0.0573
  760TIP3    H1 2286   0.929   3.350   0.193  2.6556  0.2641  0.5361
  760TIP3    H2 2287   0.964   3.497   0.207 -1.2207  1.4613 -1.6711
  761TIP3   OH2 2288   6.371   2.604   0.337  0.1185 -0.8139  0.3301
  761TIP3    H1 2289   6.347   2.638   0.251 -2.6306 -0.9993  0.9903
  761TIP3    H2 2290   6.412   2.519   0.318  1.2670 -0.0042 -0.8970
  762TIP3   OH2 2291   0.105   2.602   1.491  0.2469  0.2491  0.2059
  762TIP3    H1 2292   0.195   2.579   1.515  0.4322 -0.3346 -1.0204
  762TIP3    H2 2293   0.102   2.591   1.396 -1.2903 -0.3475  0.3094
  763TIP3   OH2 2294   0.749   5.027   3.316 -0.2429 -0.0293 -0.8341
  763TIP3    H1 2295   0.737   5.060   3.227 -1.2460  0.5708 -0.4876
  763TIP3    H2 2296   0.681   4.961   3.327 -0.4785  0.2951 -0.3218
  764TIP3   OH2 2297   6.152   3.948   2.090  0.0603  0.1438  0.3484
  764TIP3    H1 2298   6.072   3.902   2.116  0.2008  0.3135  1.1066
  764TIP3    H2 2299   6.175   3.911   2.005 -0.4774 -0.3486  0.4150
  765TIP3   OH2 2300   6.416   3.217   4.457  0.5024 -0.3718 -0.1414
  765TIP3    H1 2301   6.419   3.210   4.552 -1.6823  0.4034  0.0038
  765TIP3    H2 2302   6.432   3.127   4.427 -1.1558 -1.0749  1.0201
  766TIP3   OH2 2303   4.847   4.966   3.371  0.5135  0.0475  0.2912
  766TIP3    H1 2304   4.911   5.038   3.372  1.1513 -0.5024  0.0054
  766TIP3    H2 2305   4.847   4.932   3.460  1.8970 -1.0397 -0.0939
  767TIP3   OH2 2306   1.662   3.641   1.471 -0.1321  0.0311  0.9199
  767TIP3    H1 2307   1.727   3.611   1.535 -1.1036  0.6233  2.1951
  767TIP3    H2 2308   1.714   3.675   1.398  0.9929 -2.7636  0.3642
  768TIP3   OH2 2309   0.525   1.076   2.602  0.1049 -0.4185  0.8248
  768TIP3    H1 2310   0.582   1.138   2.648  0.1122 -0.0847  0.3767
  768TIP3    H2 2311   0.566   1.068   2.515 -1.0559  0.5657  0.1637
  769TIP3   OH2 2312   5.944   2.106   0.693  0.3148  0.0302  0.4374
  769TIP3    H1 2313   5.879   2.092   0.624 -0.0008 -2.0388  1.1080
  769TIP3    H2 2314   6.003   2.172   0.657 -0.1657 -0.6000 -1.5888
  770TIP3   OH2 2315   1.493   2.794   2.897  0.3299  0.2495  0.0655
  770TIP3    H1 2316   1.544   2.832   2.969 -0.7439  1.8083  0.0456
  770TIP3    H2 2317   1.552   2.796   2.822  0.5986  1.0754  0.2860
  771TIP3   OH2 2318   2.061   3.564   2.647 -0.0463  0.0146  0.0292
  771TIP3    H1 2319   2.145   3.606   2.666  1.1196 -1.2407 -2.1066
  771TIP3    H2 2320   2.036   3.521   2.728  1.2984  0.5273  0.7286
  772TIP3   OH2 2321   1.887   2.469   1.499  0.4575 -0.9366 -0.4505
  772TIP3    H1 2322   1.867   2.404   1.432  1.4373 -2.7941  1.0240
  772TIP3    H2 2323   1.802   2.490   1.538  0.0144 -0.5826 -1.5822
  773TIP3   OH2 2324   2.303   3.477   0.997 -0.0610  0.1621 -0.4184
  773TIP3    H1 2325   2.229   3.514   1.044 -1.7336 -3.2857 -0.1485
  773TIP3    H2 2326   2.282   3.489   0.905 -0.2021  0.5557 -0.3359
  774TIP3   OH2 2327   4.578   2.534   4.347  0.4298  0.1841 -0.0731
  774TIP3    H1 2328   4.637   2.482   4.403  1.9449  1.6243 -0.2932
  774TIP3    H2 2329   4.523   2.469   4.304  1.7084 -1.1884  0.3146
  775TIP3   OH2 2330   2.239   5.572   4.805  0.6492 -0.5449 -0.1582
  775TIP3    H1 2331   2.161   5.586   4.753  1.0744  0.0392 -0.6519
  775TIP3    H2 2332   2.274   5.488   4.775  0.5556 -0.5019 -0.3871
  776TIP3   OH2 2333   4.413   0.961   3.821 -0.2036 -0.4488 -0.2846
  776TIP3    H1 2334   4.358   1.035   3.795 -1.5455 -1.0381  0.8283
  776TIP3    H2 2335   4.356   0.907   3.876  1.0842 -1.7696 -0.2319
  777TIP3   OH2 2336   0.799   3.549   1.247 -0.2096  0.0856  0.1509
  777TIP3    H1 2337   0.756   3.523   1.329  2.1736  0.2027  1.5101
  777TIP3    H2 2338   0.818   3.643   1.259  1.8547 -0.3173  0.3171
  778TIP3   OH2 2339   1.394   2.109   1.725  0.1458  0.1535  0.1471
  778TIP3    H1 2340   1.429   2.197   1.738  1.2937 -0.3693  0.6242
  778TIP3    H2 2341   1.460   2.051   1.761 -0.9445 -0.8783  0.5295
  779TIP3   OH2 2342   5.520   5.422   2.090  0.0350 -0.1096 -0.8103
  779TIP3    H1 2343   5.432   5.438   2.123  0.6234 -0.4803  1.0052
  779TIP3    H2 2344   5.535   5.490   2.025 -0.6876  1.4640  0.6348
  780TIP3   OH2 2345   0.877   4.488   0.514  0.4061 -0.8579 -0.3635
  780TIP3    H1 2346   0.898   4.477   0.606  0.4411  0.1130 -0.2494
  780TIP3    H2 2347   0.831   4.572   0.509 -0.8543 -1.5601 -1.0238
  781TIP3   OH2 2348   5.835   4.059   1.808 -0.1619 -0.0793  0.4574
  781TIP3    H1 2349   5.784   4.133   1.774 -0.0173  0.8235  2.1618
  781TIP3    H2 2350   5.926   4.084   1.792 -0.1734 -1.0519 -1.2796
  782TIP3   OH2 2351   2.973   2.388   3.769 -0.4167 -0.5436 -0.1045
  782TIP3    H1 2352   3.020   2.451   3.824 -0.2625  0.6948 -1.6139
  782TIP3    H2 2353   2.883   2.389   3.803  0.0337 -0.9174  1.0889
  783TIP3   OH2 2354   4.725   4.840   1.238  0.0315  0.1032 -0.0441
  783TIP3    H1 2355   4.659   4.823   1.305 -0.3305 -2.4741 -0.9914
  783TIP3    H2 2356   4.742   4.755   1.199  2.1774  1.1265 -1.4569
  784TIP3   OH2 2357   0.206   3.036   3.897  0.1913  0.2982 -0.0295
  784TIP3    H1 2358   0.275   3.086   3.853  1.2719 -1.6126 -0.5508
  784TIP3    H2 2359   0.166   2.984   3.827 -1.3256  0.8721  0.3981
  785TIP3   OH2 2360   0.297   2.619   2.017  0.5127  0.4503 -0.5921
  785TIP3    H1 2361   0.239   2.598   1.944  0.9222 -0.0920 -0.7664
  785TIP3    H2 2362   0.342   2.536   2.036 -0.5263  0.2535  1.1209
  786TIP3   OH2 2363   5.270   4.320   2.382  0.0779  0.1811  0.2400
  786TIP3    H1 2364   5.311   4.391   2.332 -0.5629  0.3095 -0.1095
  786TIP3    H2 2365   5.234   4.363   2.459  2.0802 -0.1888  1.4369
  787TIP3   OH2 2366   1.741   2.759   1.685  0.4294 -0.2036  0.5009
  787TIP3    H1 2367   1.770   2.783   1.773 -1.6901  1.1214  0.8640
  787TIP3    H2 2368   1.733   2.842   1.638 -0.8127 -0.6960 -0.1953
  788TIP3   OH2 2369   0.728   4.149   2.200 -0.4276 -0.5696  0.1808
  788TIP3    H1 2370   0.816   4.187   2.205  0.0261 -1.2652 -1.9981
  788TIP3    H2 2371   0.678   4.211   2.147 -0.7915 -1.0273 -0.0097
  789TIP3   OH2 2372   2.654   4.778   2.019 -0.2535  0.4462  0.0524
  789TIP3    H1 2373   2.724   4.841   2.000  0.3940  0.1447  1.3263
  789TIP3    H2 2374   2.594   4.825   2.076 -1.6512  1.0312 -1.8558
  790TIP3   OH2 2375   5.728   0.009   5.211  0.1542  0.1897 -0.1708
  790TIP3    H1 2376   5.705   0.091   5.255 -1.4852  0.4441 -1.4674
  790TIP3    H2 2377   5.737  -0.054   5.283 -2.1299  0.6879  0.6057
  791TIP3   OH2 2378   0.011   4.509   1.208 -0.0620  0.3166 -0.0502
  791TIP3    H1 2379   0.061   4.529   1.130 -0.5748  0.9957 -0.2091
  791TIP3    H2 2380  -0.062   4.455   1.177 -0.3818  0.7617 -0.0668
  792TIP3   OH2 2381   0.536   1.680   1.019  0.3341  0.6931 -0.1083
  792TIP3    H1 2382   0.450   1.672   1.058  0.2882  1.4776 -0.0443
  792TIP3    H2 2383   0.545   1.602   0.964  0.6946 -0.8002  2.0090
  793TIP3   OH2 2384   1.864   1.646   1.234 -0.2920  0.3451  0.1981
  793TIP3    H1 2385   1.771   1.665   1.222 -0.5393 -1.5078 -1.1037
  793TIP3    H2 2386   1.870   1.551   1.228  1.7640  0.4731 -0.2401
  794TIP3   OH2 2387   5.845   3.084   1.788 -0.2590 -0.3448 -0.3578
  794TIP3    H1 2388   5.874   3.110   1.700  2.2139 -0.9476  0.2530
  794TIP3    H2 2389   5.877   3.154   1.845  1.7598 -1.9877  0.5882
  795TIP3   OH2 2390   3.137   2.429   0.167 -0.2309 -0.4008 -0.0926
  795TIP3    H1 2391   3.184   2.493   0.220  0.3016  0.8097 -1.9891
  795TIP3    H2 2392   3.103   2.365   0.230  1.6207  0.2141  1.5451
  796TIP3   OH2 2393   1.202   4.074   1.212  0.2061 -0.2869  0.2056
  796TIP3    H1 2394   1.140   4.147   1.210  0.0132 -0.4642 -0.4522
  796TIP3    H2 2395   1.264   4.097   1.281 -0.3530  0.0922  0.5803
  797TIP3   OH2 2396   0.722   5.543   4.799  0.3897 -0.0157  0.0811
  797TIP3    H1 2397   0.645   5.595   4.777  0.0339 -0.5994 -0.0456
  797TIP3    H2 2398   0.773   5.541   4.717 -0.0448 -0.6429 -0.1751
  798TIP3   OH2 2399   0.478   3.168   0.381 -0.4421 -0.1434  0.2054
  798TIP3    H1 2400   0.523   3.252   0.378 -0.6195 -0.0857 -1.4178
  798TIP3    H2 2401   0.534   3.109   0.330 -2.2720 -0.0138 -2.0108
  799TIP3   OH2 2402   3.921   1.533   4.409  0.4724  0.3395  0.4963
  799TIP3    H1 2403   3.842   1.530   4.356  2.6092  1.8474 -2.9935
  799TIP3    H2 2404   3.934   1.443   4.439 -1.9759 -0.1210  0.2318
  800TIP3   OH2 2405   5.631   3.432   4.165  0.5691  0.3490  0.0428
  800TIP3    H1 2406   5.597   3.518   4.192 -0.9631 -0.1009 -0.4066
  800TIP3    H2 2407   5.712   3.422   4.214 -0.7169  0.7799  2.3564
  801TIP3   OH2 2408   0.920   1.418   4.688  0.3671  0.0172 -0.2458
  801TIP3    H1 2409   0.947   1.372   4.608 -0.6867 -1.2460  0.1129
  801TIP3    H2 2410   0.967   1.373   4.758 -0.6361 -0.4879  0.1037
  802TIP3   OH2 2411   2.738   4.256   1.008  0.3119  0.7478  0.2166
  802TIP3    H1 2412   2.746   4.194   1.080 -1.8354 -0.5618 -0.6103
  802TIP3    H2 2413   2.660   4.307   1.029  0.3504  1.1501 -0.6009
  803TIP3   OH2 2414   3.722   3.785   1.414 -0.3365 -0.1738  0.5641
  803TIP3    H1 2415   3.724   3.694   1.444 -0.0772 -0.7929 -1.2620
  803TIP3    H2 2416   3.791   3.790   1.348 -0.0903  1.4588  0.9245
  804TIP3   OH2 2417   0.681   2.483   1.415 -0.1011  0.8167 -0.2550
  804TIP3    H1 2418   0.761   2.445   1.449 -1.0673 -0.6588  0.4349
  804TIP3    H2 2419   0.689   2.478   1.320  0.3173  0.0139 -0.1779
  805TIP3   OH2 2420  -0.002   2.817   1.918 -0.0343 -1.0286  0.1348
  805TIP3    H1 2421  -0.025   2.778   1.833  0.3172 -0.3378 -0.2812
  805TIP3    H2 2422   0.086   2.851   1.905 -0.1839 -0.4473  0.6197
  806TIP3   OH2 2423   1.395   2.721   0.758  0.1829 -1.0733 -0.4937
  806TIP3    H1 2424   1.443   2.690   0.835  0.7116 -0.8936 -0.7497
  806TIP3    H2 2425   1.369   2.641   0.712 -0.6925 -1.2024  0.2054
  807TIP3   OH2 2426   1.008   4.820   0.190  0.0036  0.1582  0.1419
  807TIP3    H1 2427   1.090   4.808   0.238 -1.2407 -0.9482  2.0238
  807TIP3    H2 2428   0.956   4.878   0.245 -1.4704 -1.1948  0.1986
  808TIP3   OH2 2429   4.969   5.934   1.234  0.3122  0.4682 -0.3291
  808TIP3    H1 2430   5.054   5.947   1.192  0.4124  0.5122 -0.1132
  808TIP3    H2 2431   4.966   5.998   1.304  1.7069 -2.0148  2.1021
  809TIP3   OH2 2432   3.129   2.721   1.094 -0.0544 -0.1013 -0.0068
  809TIP3    H1 2433   3.036   2.706   1.077  0.1441  0.4560 -1.7521
  809TIP3    H2 2434   3.143   2.813   1.069  1.3506 -0.7170 -1.6078
  810TIP3   OH2 2435   0.696   3.159   1.822  0.8809 -0.3019 -0.4915
  810TIP3    H1 2436   0.744   3.080   1.798  1.0370 -0.0755 -0.9370
  810TIP3    H2 2437   0.604   3.135   1.810  0.9382 -0.3388 -0.8857
  811TIP3   OH2 2438   5.761   4.830   5.149  0.2529  0.4005  0.1609
  811TIP3    H1 2439   5.731   4.891   5.216  0.8997 -0.1624  0.9858
  811TIP3    H2 2440   5.714   4.748   5.168 -0.8036  0.6926 -1.0910
  812TIP3   OH2 2441   2.027   0.673   0.617  0.2939  0.2521  0.1226
  812TIP3    H1 2442   2.064   0.727   0.687 -0.9732  1.4573 -0.0915
  812TIP3    H2 2443   2.059   0.713   0.536  0.9912 -0.5577  0.0019
  813TIP3   OH2 2444   3.090   6.012   4.131 -0.2565 -0.3209  0.0183
  813TIP3    H1 2445   2.996   6.026   4.118 -0.1379 -0.1497 -0.6798
  813TIP3    H2 2446   3.130   6.039   4.048  0.4356 -0.1275  0.4092
  814TIP3   OH2 2447   1.185   3.958   0.441  0.5138  0.1226 -0.5351
  814TIP3    H1 2448   1.222   3.938   0.355  0.4124  1.1382 -0.8164
  814TIP3    H2 2449   1.113   4.018   0.423  0.6651  0.5529  0.2826
  815TIP3   OH2 2450   2.042   1.996   1.009 -0.0113  0.0187  0.3242
  815TIP3    H1 2451   2.013   1.985   0.918 -1.3741  0.1499  0.7327
  815TIP3    H2 2452   2.067   1.908   1.037  0.6048  0.0103 -0.2397
  816TIP3   OH2 2453   3.448   1.899   0.835  0.1150 -0.5338 -0.7559
  816TIP3    H1 2454   3.496   1.817   0.847  2.1495  0.8942  1.4152
  816TIP3    H2 2455   3.471   1.927   0.746  1.2421 -1.1680 -0.6754
  817TIP3   OH2 2456   2.757   2.995   1.358 -0.3356  1.1293 -0.5885
  817TIP3    H1 2457   2.834   3.051   1.346 -1.5847  3.0198  0.1708
  817TIP3    H2 2458   2.711   3.032   1.433 -1.3230 -0.7677 -0.2286
  818TIP3   OH2 2459   1.160   4.797   1.970 -0.3655 -0.5070 -0.5983
  818TIP3    H1 2460   1.068   4.784   1.949 -1.2520  0.2645  2.4793
  818TIP3    H2 2461   1.177   4.889   1.953 -0.6809 -0.2331  0.4906
  819TIP3   OH2 2462   5.702   0.612   4.896 -0.3298  0.3300  0.2592
  819TIP3    H1 2463   5.707   0.685   4.957  0.2379  0.3134  0.2359
  819TIP3    H2 2464   5.677   0.651   4.812  1.4820  0.7145 -0.1252
  820TIP3   OH2 2465   2.665   4.520   2.123  0.1524 -0.1751 -0.2807
  820TIP3    H1 2466   2.677   4.601   2.073 -1.0506  0.0151 -0.2811
  820TIP3    H2 2467   2.638   4.455   2.058 -0.5870 -0.1398 -0.0100
  821TIP3   OH2 2468   2.226   1.931   2.248  0.0600 -0.2871  0.4442
  821TIP3    H1 2469   2.316   1.937   2.282  0.3402 -0.5335 -0.2385
  821TIP3    H2 2470   2.191   1.851   2.286 -0.2892  0.4408  1.6761
  822TIP3   OH2 2471   1.412   1.530   0.136  0.2804  0.2547 -0.2950
  822TIP3    H1 2472   1.348   1.532   0.064 -0.0800  0.5927  0.0332
  822TIP3    H2 2473   1.397   1.447   0.180 -0.7139  0.8279  0.4793
  823TIP3   OH2 2474   1.482   1.433   1.778 -0.5080 -0.1314  0.6551
  823TIP3    H1 2475   1.538   1.357   1.792  0.5432  0.9834  2.7702
  823TIP3    H2 2476   1.393   1.397   1.771  0.0449 -1.5963  0.9881
  824TIP3   OH2 2477   5.905   5.374   4.855  0.1089 -0.1247 -0.4977
  824TIP3    H1 2478   5.988   5.327   4.855 -0.3655 -0.9765 -0.8724
  824TIP3    H2 2479   5.921   5.452   4.801  1.4845  1.2221  1.7721
  825TIP3   OH2 2480   0.741   2.334   0.482 -1.1523  0.1223 -0.3785
  825TIP3    H1 2481   0.717   2.422   0.453  0.8096  0.8778  0.1814
  825TIP3    H2 2482   0.795   2.299   0.411 -2.1406 -0.7342 -0.7136
  826TIP3   OH2 2483   4.096   0.490   5.236 -0.2948 -0.4129 -0.6581
  826TIP3    H1 2484   4.107   0.395   5.236  0.7268 -0.3066 -1.6435
  826TIP3    H2 2485   4.154   0.523   5.304 -1.9147 -0.6068  0.8625
  827TIP3   OH2 2486   2.040   5.120   0.703 -0.2416  0.0153  0.3249
  827TIP3    H1 2487   2.053   5.036   0.748 -1.7103 -0.4608 -0.0867
  827TIP3    H2 2488   2.109   5.177   0.737  1.2132 -1.5707  0.0729
  828TIP3   OH2 2489   1.200   3.299   2.514  0.0336 -0.0500  0.4853
  828TIP3    H1 2490   1.168   3.380   2.473  1.5300 -0.0337 -0.6864
  828TIP3    H2 2491   1.273   3.271   2.458  1.4281 -0.6077  2.5571
  829TIP3   OH2 2492   1.255   4.086   1.500 -0.4060 -0.0639 -0.0017
  829TIP3    H1 2493   1.312   4.140   1.554 -2.3239  4.3575 -2.1445
  829TIP3    H2 2494   1.187   4.055   1.560 -1.4570  3.2017  0.5701
  830TIP3   OH2 2495   2.382   4.539   1.246 -0.4031 -0.3273  0.3988
  830TIP3    H1 2496   2.468   4.531   1.287 -0.1321 -2.4334 -0.5204
  830TIP3    H2 2497   2.320   4.514   1.314 -0.0728 -1.8738  0.1636
  831TIP3   OH2 2498   3.906   5.526   5.099  0.5234 -0.0730 -0.5482
  831TIP3    H1 2499   3.874   5.576   5.174  0.6540  0.4748 -0.8561
  831TIP3    H2 2500   3.875   5.436   5.115  1.1215 -0.0952  0.4897
  832TIP3   OH2 2501   2.463   3.996   0.875 -0.4428  0.3333  0.4159
  832TIP3    H1 2502   2.510   4.026   0.952  0.9347 -2.5033  0.7274
  832TIP3    H2 2503   2.427   3.911   0.899 -2.7719  0.8565 -1.0092
  833TIP3   OH2 2504   4.842   4.267   3.566 -0.5762 -0.1515  0.5380
  833TIP3    H1 2505   4.827   4.326   3.639 -1.9856 -1.3468  1.2482
  833TIP3    H2 2506   4.882   4.189   3.605 -0.2855 -0.3493 -0.1378
  834TIP3   OH2 2507   3.719   3.643   4.857  0.0976  0.2021 -0.3725
  834TIP3    H1 2508   3.749   3.620   4.769 -0.5677  1.7754 -1.0262
  834TIP3    H2 2509   3.639   3.592   4.869  0.2562 -0.1080 -0.6281
  835TIP3   OH2 2510   1.448   5.106   0.447 -0.7929  0.1914 -0.4503
  835TIP3    H1 2511   1.356   5.077   0.450 -0.8379  0.2846 -0.9899
  835TIP3    H2 2512   1.487   5.054   0.377 -0.6205  0.7096 -0.7385
  836TIP3   OH2 2513   0.799   2.558   2.933 -0.6266 -0.0934  0.3853
  836TIP3    H1 2514   0.843   2.552   3.018 -0.4542  0.5636  0.3444
  836TIP3    H2 2515   0.818   2.647   2.902 -1.6173  0.0512  0.1676
  837TIP3   OH2 2516   1.954   4.687   2.013 -0.2450 -0.2051 -0.4939
  837TIP3    H1 2517   2.016   4.651   2.077 -0.3865  0.3817 -0.0241
  837TIP3    H2 2518   2.006   4.700   1.934  0.4963  1.2943  0.2268
  838TIP3   OH2 2519   0.622   0.537   3.963 -0.9801  0.0620 -0.3813
  838TIP3    H1 2520   0.549   0.577   3.915 -0.3825  0.5593 -0.8757
  838TIP3    H2 2521   0.595   0.445   3.974 -1.4716  0.1302 -0.9763
  839TIP3   OH2 2522   1.140   0.738   4.801  0.2361  0.3360 -0.2076
  839TIP3    H1 2523   1.219   0.684   4.808  0.0862  0.1212 -0.1724
  839TIP3    H2 2524   1.089   0.715   4.879 -0.2878 -0.2154 -0.7063
  840TIP3   OH2 2525   5.861   0.054   4.969 -0.0840  0.1480 -0.1765
  840TIP3    H1 2526   5.826   0.142   4.960 -2.0335 -0.5974 -0.2378
  840TIP3    H2 2527   5.816   0.018   5.046  0.3888 -0.9184 -0.3850
  841TIP3   OH2 2528   0.490   4.213   0.169 -0.4198 -0.2648 -0.0434
  841TIP3    H1 2529   0.468   4.142   0.230 -0.9032 -0.2969 -0.2550
  841TIP3    H2 2530   0.486   4.292   0.223  3.0489 -0.6703  0.9178
  842TIP3   OH2 2531   2.519   1.699   1.396  0.1930 -0.5560 -0.0880
  842TIP3    H1 2532   2.441   1.709   1.452 -0.7676 -0.2340 -1.4666
  842TIP3    H2 2533   2.564   1.623   1.432 -0.5034 -0.4602  1.0210
  843TIP3   OH2 2534   0.272   1.329   0.889 -0.0739  0.2869 -0.1159
  843TIP3    H1 2535   0.278   1.307   0.982 -0.5815 -0.2016 -0.1946
  843TIP3    H2 2536   0.178   1.330   0.871  0.0088  0.8775 -0.5036
  844TIP3   OH2 2537   2.488   3.962   2.046 -0.1142 -0.1855 -0.7286
  844TIP3    H1 2538   2.449   3.875   2.043  0.8297 -0.6161 -0.7606
  844TIP3    H2 2539   2.568   3.951   2.097 -1.0551  1.1057  1.0650
  845TIP3   OH2 2540   2.570   3.352   0.734  0.0603 -0.0805  0.5951
  845TIP3    H1 2541   2.629   3.282   0.763  0.4844 -0.1492 -0.3976
  845TIP3    H2 2542   2.601   3.429   0.781  0.8730 -0.1472  0.1900
  846TIP3   OH2 2543   1.452   2.526   1.207  0.6741 -0.1776 -0.1992
  846TIP3    H1 2544   1.430   2.459   1.272 -0.0207 -0.6080 -0.8783
  846TIP3    H2 2545   1.469   2.476   1.127 -0.8490  0.5302 -0.9777
  847TIP3   OH2 2546   2.074   2.750   2.182 -0.1321  0.2935  0.1466
  847TIP3    H1 2547   2.161   2.788   2.179  1.1474 -2.0966  3.2606
  847TIP3    H2 2548   2.078   2.675   2.122  0.1812 -0.1508  0.7107
  848TIP3   OH2 2549   1.646   2.432   2.448  0.2335  0.7944  0.0730
  848TIP3    H1 2550   1.674   2.513   2.407  1.3123  1.3176  1.7935
  848TIP3    H2 2551   1.570   2.404   2.397 -0.1903  2.9118 -0.5028
  849TIP3   OH2 2552   1.057   1.283   2.544  0.0909 -0.1714  0.5490
  849TIP3    H1 2553   1.088   1.202   2.503  2.8556  0.4070  1.4033
  849TIP3    H2 2554   0.961   1.274   2.547  0.2703 -2.7308 -0.7283
  850TIP3   OH2 2555   0.534   0.305   5.066 -0.6879 -0.4236  0.3629
  850TIP3    H1 2556   0.497   0.228   5.110  0.8076 -1.2196  0.2637
  850TIP3    H2 2557   0.626   0.283   5.053 -0.0460  1.7434  1.0909
  851TIP3   OH2 2558   1.275   2.246   3.467  0.1522  0.2350 -1.1014
  851TIP3    H1 2559   1.182   2.234   3.449 -0.2303 -0.1114  0.9232
  851TIP3    H2 2560   1.313   2.159   3.456 -0.2969 -0.2412  0.7834
  852TIP3   OH2 2561   4.510   4.696   4.640 -0.0159  1.1692 -0.0526
  852TIP3    H1 2562   4.548   4.782   4.621 -1.4704  2.0466  0.9637
  852TIP3    H2 2563   4.530   4.681   4.732  0.9424  0.0389 -0.4315
  853TIP3   OH2 2564   3.411   4.131   1.327  0.0349  0.5450 -0.0343
  853TIP3    H1 2565   3.474   4.164   1.262 -0.3585  0.7501 -0.3102
  853TIP3    H2 2566   3.432   4.179   1.407  2.1507 -1.4545  0.6951
  854TIP3   OH2 2567   1.371   4.195   2.688  0.6153 -0.7593  0.0352
  854TIP3    H1 2568   1.382   4.230   2.599  1.2408 -1.7660 -0.2957
  854TIP3    H2 2569   1.376   4.272   2.745 -0.1310 -0.0628 -0.8208
  855TIP3   OH2 2570   3.372   4.407   1.185 -0.1897 -0.4422 -0.1892
  855TIP3    H1 2571   3.458   4.429   1.222 -0.5732 -0.0104  0.4597
  855TIP3    H2 2572   3.315   4.398   1.261 -1.0274  0.5897 -0.6934
  856TIP3   OH2 2573   1.458   2.171   2.122 -0.1604 -0.0876  0.2777
  856TIP3    H1 2574   1.367   2.144   2.111 -0.2082 -0.1154  0.7285
  856TIP3    H2 2575   1.501   2.095   2.162  0.7112 -1.1437 -2.5659
  857TIP3   OH2 2576   1.054   2.210   1.295  0.6416  0.3188 -0.3116
  857TIP3    H1 2577   1.138   2.251   1.317  0.6994  1.1561 -1.9681
  857TIP3    H2 2578   1.077   2.121   1.267  0.6315 -0.5177  2.2692
  858TIP3   OH2 2579   1.255   3.244   1.267 -0.4725  0.3851 -0.7791
  858TIP3    H1 2580   1.256   3.150   1.281  0.4272  0.3453 -1.0895
  858TIP3    H2 2581   1.332   3.277   1.315  0.2621  0.7333 -2.1523
  859TIP3   OH2 2582   6.471   2.902   0.322 -0.4390  0.0278 -0.1471
  859TIP3    H1 2583   6.446   2.904   0.414 -1.7429  0.6892 -0.5130
  859TIP3    H2 2584   6.518   2.819   0.312 -1.0413 -0.4489  0.9154
  860TIP3   OH2 2585   0.762   4.426   1.042  0.3161  0.5630 -0.6141
  860TIP3    H1 2586   0.791   4.483   0.972 -0.2608  0.4227 -0.9708
  860TIP3    H2 2587   0.694   4.475   1.087 -0.7450 -0.1534 -1.4189
  861TIP3   OH2 2588   3.992   4.326   0.117 -0.9426  0.2680  0.2287
  861TIP3    H1 2589   4.057   4.355   0.181 -1.2575  0.7917  0.3116
  861TIP3    H2 2590   3.943   4.405   0.094 -0.5632  0.1624 -0.9720
  862TIP3   OH2 2591   1.246   4.018   3.222 -0.2413  0.0778 -0.0752
  862TIP3    H1 2592   1.259   4.057   3.308 -2.4212  0.7301 -0.0207
  862TIP3    H2 2593   1.238   4.094   3.163 -1.1676 -0.3241 -0.4715
  863TIP3   OH2 2594   0.705   3.252   2.336  0.0196  0.2253  0.5910
  863TIP3    H1 2595   0.633   3.254   2.272 -0.2124 -0.6937  0.8194
  863TIP3    H2 2596   0.661   3.247   2.421  0.3504  0.2018  0.7590
  864TIP3   OH2 2597   2.128   3.569   1.887 -0.4802 -0.5881 -0.3735
  864TIP3    H1 2598   2.190   3.608   1.949  0.2733 -1.2501 -0.7023
  864TIP3    H2 2599   2.042   3.598   1.918  0.0831  1.8114 -0.9486
  865TIP3   OH2 2600   0.579   3.442   0.907  0.3543 -0.1487 -0.7124
  865TIP3    H1 2601   0.579   3.483   0.994  1.1314 -0.1029 -0.7360
  865TIP3    H2 2602   0.503   3.480   0.863 -0.0197 -0.1428 -0.0665
  866TIP3   OH2 2603   2.193   5.799   1.104 -0.0081  0.0037  0.1286
  866TIP3    H1 2604   2.138   5.877   1.106 -1.1827 -0.8120 -0.0814
  866TIP3    H2 2605   2.134   5.728   1.079  1.6926 -0.4230 -2.9257
  867TIP3   OH2 2606   2.852   2.105   1.923 -0.1435  0.9782 -0.5204
  867TIP3    H1 2607   2.758   2.118   1.927 -0.1061  1.0385  0.2500
  867TIP3    H2 2608   2.877   2.138   1.836 -0.8272  0.9542 -0.7278
  868TIP3   OH2 2609   6.341   2.219   1.756 -0.3262  0.1765 -0.8422
  868TIP3    H1 2610   6.284   2.172   1.696 -0.4404  0.2804 -0.8149
  868TIP3    H2 2611   6.419   2.238   1.704  0.0185 -0.6689 -0.6449
  869TIP3   OH2 2612   1.033   2.720   1.791  0.5659  0.1682  0.6056
  869TIP3    H1 2613   0.955   2.682   1.831 -0.2316  0.7068 -0.4071
  869TIP3    H2 2614   1.096   2.648   1.787 -0.2842 -0.5629  0.3719
  870TIP3   OH2 2615   0.873   2.361   1.716 -0.4899  0.1047 -1.1351
  870TIP3    H1 2616   0.921   2.311   1.782  1.6620  0.7590 -2.1633
  870TIP3    H2 2617   0.785   2.369   1.751 -0.4370 -2.9849 -0.1855
  871TIP3   OH2 2618   0.900   5.573   3.261  0.1150  0.4777  0.1549
  871TIP3    H1 2619   0.841   5.499   3.268 -0.6814  1.0723 -0.2762
  871TIP3    H2 2620   0.980   5.537   3.223 -1.3890  0.4434 -3.1541
  872TIP3   OH2 2621   3.492   4.383   0.950  0.3634 -0.0363  0.0256
  872TIP3    H1 2622   3.442   4.360   1.028  0.6951  0.0960  0.2800
  872TIP3    H2 2623   3.547   4.456   0.977 -0.0033  0.4504 -0.5210
  873TIP3   OH2 2624   6.176   0.639   5.016 -0.3761 -0.5128  0.3119
  873TIP3    H1 2625   6.207   0.707   4.955 -0.9108 -0.8974 -0.3997
  873TIP3    H2 2626   6.109   0.592   4.966  0.0069 -1.5813  0.7994
  874TIP3   OH2 2627   1.611   3.166   0.201 -0.2236 -0.2133 -0.3203
  874TIP3    H1 2628   1.642   3.192   0.288  1.1640  0.2055 -0.9239
  874TIP3    H2 2629   1.520   3.137   0.215  0.9004 -2.9131  1.7355
  875TIP3   OH2 2630   4.382   4.466   0.712  0.5813  0.2980  0.5294
  875TIP3    H1 2631   4.340   4.510   0.786 -1.6035  0.4763 -0.7957
  875TIP3    H2 2632   4.409   4.537   0.654 -0.2470  0.0166 -0.1951
  876TIP3   OH2 2633   1.890   2.166   1.525  0.3084 -0.2361  0.0894
  876TIP3    H1 2634   1.976   2.126   1.515 -0.0137 -1.2421  1.1754
  876TIP3    H2 2635   1.868   2.153   1.617 -0.6660  0.6990 -0.0016
  877TIP3   OH2 2636   0.772   3.878   1.134 -0.0331 -0.1045 -0.1075
  877TIP3    H1 2637   0.799   3.969   1.124  2.4990 -0.5810  1.9362
  877TIP3    H2 2638   0.821   3.830   1.067  1.3962 -0.4501  1.1694
  878TIP3   OH2 2639   1.481   2.939   2.532 -0.3988 -0.1115 -0.2438
  878TIP3    H1 2640   1.544   2.975   2.471  1.2083 -2.3998  0.0215
  878TIP3    H2 2641   1.468   3.008   2.597  0.9870  0.7898 -0.9127
  879TIP3   OH2 2642   1.362   4.594   0.193  0.3782  0.3510 -0.6287
  879TIP3    H1 2643   1.439   4.564   0.241 -0.0975  1.3401  0.7771
  879TIP3    H2 2644   1.327   4.515   0.152  1.6655 -0.2429 -0.6034
  880TIP3   OH2 2645   2.349   4.509   4.963  0.2973  0.1405 -0.0754
  880TIP3    H1 2646   2.287   4.536   4.895  0.1393 -0.3611 -0.1316
  880TIP3    H2 2647   2.404   4.586   4.977  1.0600 -0.1039 -1.5838
  881TIP3   OH2 2648   2.848   3.863   1.089  0.5693  0.2130  0.6066
  881TIP3    H1 2649   2.935   3.834   1.115  0.1482 -1.4894  0.1731
  881TIP3    H2 2650   2.802   3.783   1.063 -0.6187  1.2582 -0.6388
  882TIP3   OH2 2651   4.320   2.250   1.197 -0.6911  0.2331  0.7426
  882TIP3    H1 2652   4.367   2.211   1.270 -0.0585  2.2158  1.4023
  882TIP3    H2 2653   4.387   2.266   1.131 -0.8674  0.6658  0.6695
  883TIP3   OH2 2654   2.452   1.983   2.395 -0.3126 -0.6636  1.0519
  883TIP3    H1 2655   2.535   1.941   2.372 -0.0064  1.0189 -1.1556
  883TIP3    H2 2656   2.472   2.031   2.475  0.4368 -1.4858  1.3665
  884TIP3   OH2 2657   5.986   3.022   1.139  0.2041 -0.0659  0.3146
  884TIP3    H1 2658   6.058   3.073   1.174 -1.3346  1.3773  1.4499
  884TIP3    H2 2659   5.958   2.965   1.211 -0.5300  0.2097  0.2561
  885TIP3   OH2 2660   3.228   5.419   4.436  0.0751  0.3096 -0.0623
  885TIP3    H1 2661   3.157   5.431   4.498 -1.0980  0.4015 -1.3941
  885TIP3    H2 2662   3.209   5.334   4.394  1.7571 -0.5532  0.8588
  886TIP3   OH2 2663   2.002   5.637   0.160  0.1890  0.1596  0.3480
  886TIP3    H1 2664   2.040   5.713   0.116  0.1025  0.5600  0.9529
  886TIP3    H2 2665   2.007   5.659   0.253 -0.9169 -0.0700  0.4618
  887TIP3   OH2 2666   1.730   2.678   0.005 -0.2978 -0.4224  0.0703
  887TIP3    H1 2667   1.734   2.773   0.009 -1.0658 -0.3135 -1.4863
  887TIP3    H2 2668   1.813   2.649   0.043  0.9411  0.9323 -1.5368
  888TIP3   OH2 2669   5.682   3.270   3.510 -0.0730 -0.0937  0.1947
  888TIP3    H1 2670   5.647   3.350   3.548  1.8024  0.8832 -0.0685
  888TIP3    H2 2671   5.773   3.267   3.539  0.6307 -0.7439 -1.9626
  889TIP3   OH2 2672   1.668   4.293   3.569  0.1513  0.1911  0.2222
  889TIP3    H1 2673   1.737   4.235   3.538  0.2202  0.3954 -0.0096
  889TIP3    H2 2674   1.586   4.251   3.541  0.0952 -0.9413  2.0066
  890TIP3   OH2 2675   5.693   3.574   1.324  0.1913  0.3408  0.3343
  890TIP3    H1 2676   5.626   3.637   1.296 -0.0607 -0.1030 -0.0695
  890TIP3    H2 2677   5.775   3.623   1.321 -0.2546  1.2169  1.9100
  891TIP3   OH2 2678   2.490   3.241   1.109  0.2408 -0.8785  0.5243
  891TIP3    H1 2679   2.424   3.310   1.106 -0.4166 -1.4454  1.7122
  891TIP3    H2 2680   2.563   3.279   1.158  0.9152 -0.1612 -1.0163
  892TIP3   OH2 2681   2.132   4.385   3.399 -0.1034  0.2137  0.5237
  892TIP3    H1 2682   2.159   4.476   3.393 -0.0185  0.1025 -1.0147
  892TIP3    H2 2683   2.205   4.335   3.362 -0.9291 -0.3332 -0.3970
  893TIP3   OH2 2684   4.433   5.577   4.369  0.5675 -0.2485  0.3110
  893TIP3    H1 2685   4.519   5.607   4.341  0.9177 -1.6246 -0.1416
  893TIP3    H2 2686   4.432   5.484   4.347 -0.8643 -0.3453  0.7344
  894TIP3   OH2 2687   1.236   3.239   0.345 -0.7108  0.2414 -0.4352
  894TIP3    H1 2688   1.223   3.309   0.281 -1.1527  0.7099  0.1664
  894TIP3    H2 2689   1.169   3.254   0.412  0.6827  0.6344  0.9121
  895TIP3   OH2 2690   6.083   4.010   0.491 -0.3713 -0.3791  0.4574
  895TIP3    H1 2691   6.066   4.100   0.465  0.0571 -0.3995  0.0932
  895TIP3    H2 2692   6.030   3.997   0.570 -0.8560  0.0173  0.1999
  896TIP3   OH2 2693   6.179   5.048   1.247  0.0017  0.2131  0.7221
  896TIP3    H1 2694   6.128   4.987   1.300  0.7620 -0.3119  0.8469
  896TIP3    H2 2695   6.246   4.995   1.205  0.0873  0.8072  0.0901
  897TIP3   OH2 2696   2.276   4.662   4.540 -0.6805  0.4351  0.2706
  897TIP3    H1 2697   2.362   4.621   4.551 -1.0326 -0.2618  0.4588
  897TIP3    H2 2698   2.290   4.732   4.475  0.1819  0.8065  0.8553
  898TIP3   OH2 2699   0.061   4.511   0.908  0.2749 -0.3352  0.1983
  898TIP3    H1 2700   0.087   4.484   0.820  1.2298  1.0560  0.0332
  898TIP3    H2 2701   0.139   4.496   0.962  0.3270  0.5886  0.4063
  899TIP3   OH2 2702   6.081   2.793   4.997 -0.5244 -0.0513  0.0293
  899TIP3    H1 2703   6.065   2.716   5.051  0.2357 -0.5609 -0.4661
  899TIP3    H2 2704   5.995   2.836   4.990 -1.6157 -2.5104 -2.2303
  900TIP3   OH2 2705   4.365   0.643   5.206  0.5045 -0.4255  0.1828
  900TIP3    H1 2706   4.297   0.655   5.140  1.6484 -1.0261 -1.1062
  900TIP3    H2 2707   4.414   0.566   5.177  1.5487 -0.1834  1.2702
  901TIP3   OH2 2708   0.609   3.788   0.798  0.4802 -0.0861  0.2868
  901TIP3    H1 2709   0.531   3.742   0.769  0.8114  1.3427 -3.0247
  901TIP3    H2 2710   0.679   3.723   0.791  0.7532  0.5035 -3.3438
  902TIP3   OH2 2711   0.335   3.301   2.220 -0.5144  0.5036 -1.0119
  902TIP3    H1 2712   0.282   3.229   2.184 -1.0248  0.5318 -0.3412
  902TIP3    H2 2713   0.335   3.284   2.315 -0.7272  1.4424 -0.8438
  903TIP3   OH2 2714   2.494   5.005   5.013 -0.5277 -0.5337  0.5876
  903TIP3    H1 2715   2.514   4.944   4.941  2.0571  2.1178 -1.0317
  903TIP3    H2 2716   2.565   4.992   5.076  0.4013  1.2831 -0.0831
  904TIP3   OH2 2717   3.814   3.151   0.848 -0.1301  0.2384 -0.1301
  904TIP3    H1 2718   3.786   3.128   0.760  2.2927 -0.1223 -0.8321
  904TIP3    H2 2719   3.750   3.216   0.877 -0.9425  0.3829 -2.1700
  905TIP3   OH2 2720   2.074   2.848   1.205 -0.5275 -0.5937 -0.2036
  905TIP3    H1 2721   2.084   2.918   1.141  1.2454 -2.5862 -2.1909
  905TIP3    H2 2722   2.153   2.854   1.259 -0.4650 -0.9150 -0.2549
  906TIP3   OH2 2723   5.121   5.566   4.686 -0.2370  0.0131  0.1674
  906TIP3    H1 2724   5.216   5.561   4.690 -0.1516 -0.5673 -1.7756
  906TIP3    H2 2725   5.103   5.653   4.652 -0.2953 -0.5156 -1.2255
  907TIP3   OH2 2726   1.685   2.755   2.662 -0.4741 -0.1594  0.5520
  907TIP3    H1 2727   1.671   2.836   2.613  1.3779 -0.2316 -0.1178
  907TIP3    H2 2728   1.678   2.686   2.596  0.4835 -0.3650  0.6562
  908TIP3   OH2 2729   1.213   0.567   5.102  0.6023 -0.0132  0.2511
  908TIP3    H1 2730   1.212   0.487   5.048  3.5993  0.8417 -1.1518
  908TIP3    H2 2731   1.298   0.606   5.086 -0.9933  3.7857  0.5344
  909TIP3   OH2 2732   1.755   4.487   1.700 -0.9657 -0.5976 -0.1661
  909TIP3    H1 2733   1.702   4.442   1.634 -1.4412  0.8663 -0.8164
  909TIP3    H2 2734   1.698   4.491   1.777 -1.4616  0.1195 -0.5586
  910TIP3   OH2 2735   0.402   5.030   1.819  0.1367  0.2770 -0.0240
  910TIP3    H1 2736   0.439   5.075   1.895  0.2985 -0.5170  0.3711
  910TIP3    H2 2737   0.316   5.000   1.849 -0.4571  1.3151 -0.6496
  911TIP3   OH2 2738   2.640   5.557   2.127 -0.3060  0.5182  0.3023
  911TIP3    H1 2739   2.656   5.466   2.149  1.1510  0.8949  0.8726
  911TIP3    H2 2740   2.711   5.580   2.066 -0.0118  1.5657  1.0160
  912TIP3   OH2 2741   0.859   3.024   2.506  0.1117  0.1911  0.3644
  912TIP3    H1 2742   0.907   3.090   2.455 -0.2952  1.0028  1.0092
  912TIP3    H2 2743   0.843   2.953   2.444  1.8875  0.0378  0.0730
  913TIP3   OH2 2744   0.038   1.530   0.430  0.2293 -0.1792  0.3676
  913TIP3    H1 2745  -0.013   1.552   0.353  1.1011  0.2849 -0.0920
  913TIP3    H2 2746  -0.012   1.566   0.503 -0.9346 -1.2245  0.0815
  914TIP3   OH2 2747   2.827   2.424   0.547  0.0727  0.1546  0.3792
  914TIP3    H1 2748   2.908   2.387   0.581 -0.0702 -0.5398 -0.0188
  914TIP3    H2 2749   2.807   2.496   0.606  2.2800  1.9164 -0.9462
  915TIP3   OH2 2750   2.742   2.147   0.614  0.5338 -0.2695 -0.2634
  915TIP3    H1 2751   2.766   2.240   0.611  1.7042 -0.5386  0.3851
  915TIP3    H2 2752   2.826   2.101   0.627 -0.0831 -1.3828 -0.1555
  916TIP3   OH2 2753   0.378   0.591   4.885 -0.5106 -0.1326 -0.3788
  916TIP3    H1 2754   0.323   0.548   4.950 -0.5128  0.4829  0.0378
  916TIP3    H2 2755   0.392   0.525   4.818  0.6133 -1.2195  0.9003
  917TIP3   OH2 2756   3.196   5.385   2.165 -0.0252  0.0085 -0.7087
  917TIP3    H1 2757   3.173   5.307   2.114 -1.7672 -1.2751  1.9642
  917TIP3    H2 2758   3.292   5.381   2.172  0.2312 -0.0032 -3.4370
  918TIP3   OH2 2759   1.732   4.053   0.357 -0.0257  0.3264  0.1393
  918TIP3    H1 2760   1.761   4.142   0.337 -0.1306 -0.2016 -2.6732
  918TIP3    H2 2761   1.767   4.000   0.285 -1.7833 -1.5379  0.5959
  919TIP3   OH2 2762   0.442   1.857   0.147  0.6529  0.1318 -0.0827
  919TIP3    H1 2763   0.475   1.846   0.058 -0.2855 -1.1555 -0.2937
  919TIP3    H2 2764   0.378   1.787   0.157  0.0807  0.8381  1.2950
  920TIP3   OH2 2765   1.088   2.956   0.493  0.0488  0.6372 -0.1227
  920TIP3    H1 2766   1.167   2.916   0.458  0.8227  2.5640 -0.6598
  920TIP3    H2 2767   1.096   2.947   0.588  0.7567  0.5408 -0.1926
  921TIP3   OH2 2768   2.754   3.649   2.125 -0.4051  0.1224  0.5499
  921TIP3    H1 2769   2.774   3.739   2.152  1.2523 -0.9113  2.8621
  921TIP3    H2 2770   2.839   3.609   2.108 -1.1173 -1.1704 -0.0580
  922TIP3   OH2 2771   4.851   0.661   5.074 -0.2998  0.3672  0.0851
  922TIP3    H1 2772   4.854   0.593   5.007  0.9219  1.2504 -0.7841
  922TIP3    H2 2773   4.823   0.740   5.027  1.7175  1.2691  0.3358
  923TIP3   OH2 2774   6.428   3.294   1.737  0.0503 -0.0254  0.4810
  923TIP3    H1 2775   6.395   3.244   1.812 -1.7126  1.3956  0.7067
  923TIP3    H2 2776   6.357   3.289   1.672  0.3098  1.2220  0.0908
  924TIP3   OH2 2777   1.581   5.258   1.663  0.6903  0.4657 -0.3038
  924TIP3    H1 2778   1.610   5.168   1.650  0.7672  0.3510  0.6468
  924TIP3    H2 2779   1.649   5.311   1.620 -0.2508  0.0247 -2.3869
  925TIP3   OH2 2780   1.064   3.682   1.814  0.6887  0.2313 -0.3629
  925TIP3    H1 2781   1.094   3.650   1.729  2.6756  1.4504 -0.1500
  925TIP3    H2 2782   0.972   3.702   1.800  1.4857  2.4505 -2.8739
  926TIP3   OH2 2783   1.151   3.274   1.589 -0.1238 -0.2061 -0.0413
  926TIP3    H1 2784   1.152   3.239   1.500  0.0280 -2.3411  0.7705
  926TIP3    H2 2785   1.134   3.368   1.578 -1.8876 -0.7368 -2.2212
  927TIP3   OH2 2786   0.694   4.573   2.022 -0.2947  0.2389  0.0853
  927TIP3    H1 2787   0.654   4.494   2.057  1.2588  0.1525  1.7437
  927TIP3    H2 2788   0.621   4.622   1.984 -1.5043 -1.2303  0.4675
  928TIP3   OH2 2789   3.361   1.083   0.869  0.4916 -0.2082 -0.2723
  928TIP3    H1 2790   3.280   1.133   0.876  0.4234 -0.3883  0.3197
  928TIP3    H2 2791   3.332   0.991   0.868  0.7206 -0.3100  0.8493
  929TIP3   OH2 2792   0.790   0.816   2.447 -0.5951 -0.2348  0.1927
  929TIP3    H1 2793   0.753   0.760   2.515  2.6453 -1.5463  1.0188
  929TIP3    H2 2794   0.883   0.823   2.470  0.2431  0.7651 -3.1146
  930TIP3   OH2 2795   0.429   2.395   2.067 -0.2882 -0.1785 -0.0617
  930TIP3    H1 2796   0.394   2.306   2.058  1.4633 -0.7014 -1.9555
  930TIP3    H2 2797   0.471   2.395   2.153 -2.3525 -0.4242  0.9841
  931TIP3   OH2 2798   2.690   2.923   2.180 -0.1617 -0.1585 -0.0695
  931TIP3    H1 2799   2.688   2.867   2.102  2.9787 -1.0959  0.4417
  931TIP3    H2 2800   2.628   2.883   2.240 -0.8820 -0.7794 -1.2125
  932TIP3   OH2 2801   4.896   2.709   2.935  0.4090  0.0567 -0.6183
  932TIP3    H1 2802   4.940   2.789   2.905  1.1005 -0.0282  0.1396
  932TIP3    H2 2803   4.894   2.653   2.857  0.7562  0.4480 -0.9176
  933TIP3   OH2 2804   6.304   0.926   2.402 -0.2008  0.6011 -0.3083
  933TIP3    H1 2805   6.221   0.953   2.363  0.1881 -0.8129 -2.2130
  933TIP3    H2 2806   6.291   0.835   2.426  0.4287  0.7117  0.4702
  934TIP3   OH2 2807   0.107   2.415   0.491  0.4663 -0.7802  0.0655
  934TIP3    H1 2808   0.187   2.364   0.500  0.6522 -0.9053 -2.1030
  934TIP3    H2 2809   0.135   2.500   0.456 -0.3334 -0.8304 -0.7345
  935TIP3   OH2 2810   6.203   3.649   1.613 -0.5450 -0.2217  0.0136
  935TIP3    H1 2811   6.284   3.621   1.571 -0.8706 -0.8584 -0.2021
  935TIP3    H2 2812   6.181   3.732   1.571  0.6716  0.5996  0.9694
  936TIP3   OH2 2813   6.142   0.458   4.793 -0.0692  0.0604 -0.3121
  936TIP3    H1 2814   6.092   0.384   4.757  0.3619  0.2758 -1.3804
  936TIP3    H2 2815   6.227   0.421   4.817 -0.3857 -0.1001  0.5741
  937TIP3   OH2 2816   2.702   3.607   0.732  0.7966 -0.4855  0.2154
  937TIP3    H1 2817   2.621   3.625   0.683 -0.4829 -0.9244  2.1035
  937TIP3    H2 2818   2.747   3.691   0.736  0.5141 -0.2664 -0.9856
  938TIP3   OH2 2819   3.946   2.179   0.660  0.4818 -0.2786  0.1989
  938TIP3    H1 2820   3.941   2.263   0.706  1.9377 -0.6104  0.9929
  938TIP3    H2 2821   4.019   2.189   0.600 -0.4112 -0.4044 -0.9246
  939TIP3   OH2 2822   5.691   0.560   5.178  0.4261  0.1753  0.1928
  939TIP3    H1 2823   5.741   0.618   5.235  0.6007  0.7173 -0.5175
  939TIP3    H2 2824   5.750   0.539   5.106 -1.0686  2.5890 -1.8108
  940TIP3   OH2 2825   1.600   2.095   0.467  0.4406 -0.1388  0.4278
  940TIP3    H1 2826   1.671   2.128   0.522  1.0550 -0.8143  0.0391
  940TIP3    H2 2827   1.637   2.020   0.422 -0.4236 -0.2971 -0.0278
  941TIP3   OH2 2828   0.980   3.002   1.244  0.3906  0.0146 -0.0375
  941TIP3    H1 2829   1.023   2.998   1.329  2.6831  1.2714 -1.0976
  941TIP3    H2 2830   0.934   3.086   1.244  2.8055  1.3820 -1.1118
  942TIP3   OH2 2831   2.797   4.873   0.214  0.1639 -0.0946  0.1858
  942TIP3    H1 2832   2.841   4.871   0.298  1.1458  1.3053 -0.2784
  942TIP3    H2 2833   2.777   4.781   0.195 -0.5794 -0.3665  2.1896
  943TIP3   OH2 2834   1.781   0.196   5.210 -0.0181 -0.0562  0.1095
  943TIP3    H1 2835   1.855   0.163   5.259 -0.6480 -2.9689 -0.7928
  943TIP3    H2 2836   1.820   0.245   5.137  1.0027 -1.2055 -0.1212
  944TIP3   OH2 2837   3.175   4.592   5.285  0.0212  0.1285 -0.3620
  944TIP3    H1 2838   3.093   4.642   5.289  0.5592  0.8691  2.2530
  944TIP3    H2 2839   3.242   4.657   5.265  0.0446 -0.4227 -2.1542
  945TIP3   OH2 2840   0.685   1.550   0.573  0.3011 -0.0900 -0.7308
  945TIP3    H1 2841   0.655   1.464   0.544  0.4633  0.0242 -1.2412
  945TIP3    H2 2842   0.733   1.585   0.498  0.5500  0.2919 -0.3946
  946TIP3   OH2 2843   6.127   3.548   1.986 -0.5612 -0.2083 -0.4131
  946TIP3    H1 2844   6.111   3.641   1.971 -1.4584 -0.4144 -0.7819
  946TIP3    H2 2845   6.056   3.504   1.940  0.4655 -1.1214 -1.1589
  947TIP3   OH2 2846   5.282   5.464   5.187  0.3402  0.0299 -0.1709
  947TIP3    H1 2847   5.195   5.441   5.155  0.2255  0.5923 -0.2597
  947TIP3    H2 2848   5.274   5.463   5.283 -0.3234  2.1916 -0.1793
  948TIP3   OH2 2849   1.934   2.702   1.027 -0.2829 -0.0244 -0.3162
  948TIP3    H1 2850   1.993   2.758   1.078  0.0722 -0.4031 -0.3089
  948TIP3    H2 2851   1.891   2.647   1.092 -0.2659 -0.1035 -0.3727
  949TIP3   OH2 2852   3.064   3.709   1.480 -0.1006  0.8293 -0.4352
  949TIP3    H1 2853   3.036   3.700   1.571  1.7744  1.9038  0.2736
  949TIP3    H2 2854   3.121   3.786   1.480 -0.1384  0.8841 -2.5405
  950TIP3   OH2 2855   4.100   3.356   2.553 -0.3613 -1.0539 -0.5910
  950TIP3    H1 2856   4.050   3.369   2.472 -0.9595 -0.2487 -0.0927
  950TIP3    H2 2857   4.037   3.316   2.613  0.0231 -1.4418 -0.4488
  951TIP3   OH2 2858   1.759   2.101   1.736  0.1443  0.0227 -0.0386
  951TIP3    H1 2859   1.768   2.035   1.805 -0.6790 -0.8554 -0.7807
  951TIP3    H2 2860   1.696   2.164   1.771  1.8969  1.1332  1.2113
  952TIP3   OH2 2861   1.685   3.769   1.006  0.0736  0.8711 -0.2798
  952TIP3    H1 2862   1.733   3.799   0.929 -1.0236  1.4890 -0.7338
  952TIP3    H2 2863   1.611   3.830   1.013 -0.6053 -0.0307  0.4503
  953TIP3   OH2 2864   1.831   2.620   3.463  0.1204  0.5316  0.6844
  953TIP3    H1 2865   1.762   2.561   3.432  0.0111  0.3476  1.2696
  953TIP3    H2 2866   1.909   2.594   3.414 -0.4604  1.4094 -0.7110
  954TIP3   OH2 2867   4.150   1.877   0.727  0.4209 -0.3717 -0.4118
  954TIP3    H1 2868   4.215   1.829   0.779 -0.0849 -0.3792  0.2242
  954TIP3    H2 2869   4.066   1.841   0.755  0.1066  0.0958 -0.7536
  955TIP3   OH2 2870   0.593   0.238   4.574  0.4526  0.5311 -0.0068
  955TIP3    H1 2871   0.651   0.167   4.603  1.0713  1.5062  1.1501
  955TIP3    H2 2872   0.579   0.291   4.652 -0.1506  1.5987 -0.8358
  956TIP3   OH2 2873   0.907   2.749   1.198  0.0295  0.4104  0.2357
  956TIP3    H1 2874   0.984   2.694   1.213  0.3187  0.0226 -2.3988
  956TIP3    H2 2875   0.929   2.833   1.239  1.7059  0.1888 -0.1591
  957TIP3   OH2 2876   1.183   3.085   1.775 -0.8865  0.4989  0.2103
  957TIP3    H1 2877   1.127   3.113   1.847  0.9500  1.6923  1.2105
  957TIP3    H2 2878   1.168   3.151   1.706 -1.3043  0.3572  0.1619
  958TIP3   OH2 2879   2.194   2.225   2.986  0.2043 -0.1221  0.4288
  958TIP3    H1 2880   2.256   2.172   3.036 -1.2180 -1.7270  0.5303
  958TIP3    H2 2881   2.180   2.177   2.905 -0.9264  0.2201  0.4162
  959TIP3   OH2 2882   3.704   2.322   0.175  0.1027 -0.3995 -0.3323
  959TIP3    H1 2883   3.613   2.331   0.148  0.2217 -0.2476 -0.7020
  959TIP3    H2 2884   3.714   2.382   0.248 -0.2122 -0.7636  0.0089
  960TIP3   OH2 2885   1.524   4.749   5.032  0.4214  0.0202  0.5052
  960TIP3    H1 2886   1.483   4.663   5.025  3.8051 -1.5479 -1.3799
  960TIP3    H2 2887   1.471   4.806   4.976 -0.4125 -1.4316 -0.2146
  961TIP3   OH2 2888   6.329   1.889   3.153 -0.1177  0.1848  0.0125
  961TIP3    H1 2889   6.312   1.983   3.155  2.8304  0.7849 -0.7207
  961TIP3    H2 2890   6.257   1.853   3.100 -0.9797  2.0856 -0.1555
  962TIP3   OH2 2891   1.818   4.063   1.496 -0.5872 -0.0338  0.4321
  962TIP3    H1 2892   1.840   4.126   1.565 -0.7783  0.0715  0.3965
  962TIP3    H2 2893   1.902   4.045   1.453 -0.7181  1.0444 -0.2739
  963TIP3   OH2 2894   6.504   5.450   1.008 -0.1596  0.3178  0.0564
  963TIP3    H1 2895   6.417   5.410   1.011  0.5350 -1.4138 -1.5442
  963TIP3    H2 2896   6.501   5.508   0.932 -0.3107  1.2262  0.7552
  964TIP3   OH2 2897   1.204   4.569   2.151 -0.2545 -0.2317  0.0356
  964TIP3    H1 2898   1.185   4.640   2.091  0.9434  0.7865  0.8310
  964TIP3    H2 2899   1.262   4.510   2.101  0.4873  0.4524  0.0759
  965TIP3   OH2 2900   5.315   0.606   1.303 -0.3025 -0.1732  0.0303
  965TIP3    H1 2901   5.394   0.596   1.249 -0.4264  0.0389 -0.1901
  965TIP3    H2 2902   5.309   0.700   1.319 -0.5305 -0.1874  0.0238
  966TIP3   OH2 2903   3.078   5.072   0.610 -0.1349 -0.4084 -0.6248
  966TIP3    H1 2904   3.015   5.017   0.657 -0.7651  2.0247  1.4846
  966TIP3    H2 2905   3.163   5.032   0.629 -0.5331 -0.3536  1.3780
  967TIP3   OH2 2906   2.212   5.119   1.049  0.0603  0.1120  0.0260
  967TIP3    H1 2907   2.304   5.112   1.075 -0.1111 -0.1328  0.5666
  967TIP3    H2 2908   2.201   5.210   1.024 -0.3250  0.9036  2.9215
  968TIP3   OH2 2909   5.267   0.463   0.858 -0.1364  0.0167  0.5807
  968TIP3    H1 2910   5.286   0.402   0.929  1.1022  2.5657  2.5139
  968TIP3    H2 2911   5.186   0.506   0.884 -0.2546  0.1991 -0.0773
  969TIP3   OH2 2912   2.814   2.749   1.411 -0.2329 -0.1864  0.0753
  969TIP3    H1 2913   2.762   2.677   1.375  0.7452 -0.6016 -0.5376
  969TIP3    H2 2914   2.780   2.827   1.368 -1.1788 -0.2987  0.6080
  970TIP3   OH2 2915   1.717   2.644   1.286 -0.3045  0.1157  0.8072
  970TIP3    H1 2916   1.767   2.566   1.263 -1.8036 -0.6354 -0.0048
  970TIP3    H2 2917   1.626   2.620   1.270 -0.8950  1.6417  1.6879
  971TIP3   OH2 2918   3.786   4.881   5.140 -0.6036 -0.1064 -0.4366
  971TIP3    H1 2919   3.796   4.803   5.194  0.0014 -0.8397 -1.5946
  971TIP3    H2 2920   3.694   4.881   5.113 -0.3711 -0.9421 -1.2274
  972TIP3   OH2 2921   3.058   2.839   2.221 -0.3527 -0.4168  0.4454
  972TIP3    H1 2922   2.978   2.828   2.271 -1.6991 -0.0759 -1.5655
  972TIP3    H2 2923   3.105   2.909   2.267 -1.6702  0.0682  1.0917
  973TIP3   OH2 2924   0.015   3.796   1.892 -0.0144 -0.2439 -0.2694
  973TIP3    H1 2925   0.040   3.705   1.905  0.7450  0.0001  0.0392
  973TIP3    H2 2926  -0.027   3.821   1.974 -0.1591 -0.2974 -0.3275
  974TIP3   OH2 2927   0.751   2.024   0.639 -0.3601 -0.7038 -0.5700
  974TIP3    H1 2928   0.805   2.064   0.571  0.6493  0.0465  0.6405
  974TIP3    H2 2929   0.767   2.078   0.716 -0.2120 -2.5205  0.6958
  975TIP3   OH2 2930   0.104   1.749   4.344 -0.1904  0.1841  0.1242
  975TIP3    H1 2931   0.159   1.674   4.319 -1.2618 -0.5494 -0.0389
  975TIP3    H2 2932   0.066   1.779   4.262 -0.5538  0.2792  0.3296
  976TIP3   OH2 2933   2.806   3.264   0.884 -0.2168  0.2885  0.0282
  976TIP3    H1 2934   2.819   3.178   0.844 -0.7627  0.2643 -0.0921
  976TIP3    H2 2935   2.822   3.249   0.977  0.7181  0.2741 -0.1287
  977TIP3   OH2 2936   2.907   3.539   2.839  0.0805  0.3861 -0.2652
  977TIP3    H1 2937   2.939   3.563   2.926 -0.5571 -1.6062  0.5472
  977TIP3    H2 2938   2.945   3.453   2.822  1.4236  1.3866 -2.6338
  978TIP3   OH2 2939   3.841   3.226   1.249  0.8333  0.6588  0.0822
  978TIP3    H1 2940   3.846   3.196   1.340 -0.2081 -0.4888 -0.2255
  978TIP3    H2 2941   3.790   3.307   1.254 -0.1630  0.0296  0.4111
  979TIP3   OH2 2942   0.784   2.168   1.260 -0.0304 -0.2810  0.4370
  979TIP3    H1 2943   0.878   2.186   1.265 -0.3821  2.3416 -1.1708
  979TIP3    H2 2944   0.778   2.074   1.243  2.2759 -0.5165  0.7927
  980TIP3   OH2 2945   2.136   2.525   1.376 -0.4461 -0.0756  0.2768
  980TIP3    H1 2946   2.075   2.518   1.450  0.8403 -2.4153  1.1839
  980TIP3    H2 2947   2.083   2.503   1.299 -1.5854  1.5062  0.5803
  981TIP3   OH2 2948   4.506   2.974   1.066 -0.0384 -0.0132  0.4210
  981TIP3    H1 2949   4.587   3.025   1.064 -0.0376 -0.0160  0.3864
  981TIP3    H2 2950   4.484   2.969   1.159  0.3665 -0.5779  0.4920
  982TIP3   OH2 2951   0.704   0.780   4.453 -0.3835  0.3015 -0.1559
  982TIP3    H1 2952   0.789   0.806   4.488 -0.4680  0.3936 -0.0209
  982TIP3    H2 2953   0.705   0.684   4.456 -0.9261  0.3358  1.3788
  983TIP3   OH2 2954   2.483   2.869   1.947  0.3284 -0.0315  0.1322
  983TIP3    H1 2955   2.437   2.808   1.890 -0.1491 -0.0588  0.5469
  983TIP3    H2 2956   2.572   2.873   1.911  0.3672 -0.9774  0.1119
  984TIP3   OH2 2957   0.278   5.301   1.256 -0.3350  0.2790 -0.0270
  984TIP3    H1 2958   0.365   5.306   1.296  0.1423  1.4114 -1.1614
  984TIP3    H2 2959   0.295   5.304   1.162 -1.5648 -0.2585 -0.2763
  985TIP3   OH2 2960   0.218   1.808   3.467  0.3477  0.2765 -0.7935
  985TIP3    H1 2961   0.214   1.742   3.399  1.8542  0.0046 -0.6382
  985TIP3    H2 2962   0.134   1.801   3.513  0.3953 -1.3591 -0.9303
  986TIP3   OH2 2963   5.355   2.609   0.506  0.0340 -0.9196 -0.1138
  986TIP3    H1 2964   5.399   2.633   0.588 -0.5308 -0.6754  0.1231
  986TIP3    H2 2965   5.384   2.520   0.488  1.9739 -0.1613 -0.8706
  987TIP3   OH2 2966   2.274   4.368   2.267  0.2450 -0.2631 -0.0415
  987TIP3    H1 2967   2.274   4.330   2.180  1.2941  0.7438 -0.4916
  987TIP3    H2 2968   2.362   4.354   2.300  0.4307  1.0931  0.0786
  988TIP3   OH2 2969   3.305   0.038   1.007  0.1334  0.4413 -0.0662
  988TIP3    H1 2970   3.264   0.124   0.998  0.9267  0.7156 -1.2185
  988TIP3    H2 2971   3.395   0.050   0.974  0.5511 -0.5904  0.6600
  989TIP3   OH2 2972   5.677   3.231   0.423  0.0235 -0.4358  0.7737
  989TIP3    H1 2973   5.749   3.180   0.462  0.6267 -0.2913 -0.1220
  989TIP3    H2 2974   5.605   3.169   0.416  0.3136 -0.7969  0.9580
  990TIP3   OH2 2975   4.556   3.794   2.642 -0.2780  0.1750 -0.1317
  990TIP3    H1 2976   4.623   3.832   2.586  0.6433 -0.4233  0.5629
  990TIP3    H2 2977   4.540   3.707   2.606 -1.5483  0.7334 -1.0047
  991TIP3   OH2 2978   2.193   4.217   0.951 -0.3747  0.3736 -0.3770
  991TIP3    H1 2979   2.150   4.177   1.027 -0.1356  0.4898 -0.1776
  991TIP3    H2 2980   2.227   4.300   0.984  2.4409 -0.9542  0.2161
  992TIP3   OH2 2981   2.875   4.034   0.869 -0.0192 -0.7380  0.1123
  992TIP3    H1 2982   2.862   3.977   0.946 -2.9973 -1.1591 -0.6280
  992TIP3    H2 2983   2.841   4.119   0.897 -0.3118 -0.6681 -0.4569
  993TIP3   OH2 2984   2.927   3.319   1.693  0.2589  0.3536 -0.8262
  993TIP3    H1 2985   2.941   3.313   1.787  2.1839  1.6422 -1.0043
  993TIP3    H2 2986   2.941   3.230   1.661 -1.0644 -0.2267  0.1772
  994TIP3   OH2 2987   6.132   0.824   4.428  0.0144 -0.0383  0.2430
  994TIP3    H1 2988   6.214   0.874   4.429 -1.1091  1.8309  1.4476
  994TIP3    H2 2989   6.136   0.770   4.507  0.5367 -0.7623 -0.2614
  995TIP3   OH2 2990   4.396   2.767   0.933 -0.3117 -0.1709 -0.2565
  995TIP3    H1 2991   4.442   2.848   0.957  1.3205 -1.4955  1.2934
  995TIP3    H2 2992   4.333   2.753   1.004  1.1450 -1.5324  0.8192
  996TIP3   OH2 2993   5.236   3.004   2.179 -0.6728  0.1246  0.2064
  996TIP3    H1 2994   5.299   2.950   2.226 -1.1391 -0.5489  0.0640
  996TIP3    H2 2995   5.283   3.085   2.159  0.8421 -1.1836 -1.7553
  997TIP3   OH2 2996   3.446   3.048   0.476  0.3494  0.7068  0.0787
  997TIP3    H1 2997   3.371   3.040   0.534  0.8733 -0.4188  0.6110
  997TIP3    H2 2998   3.408   3.074   0.391 -0.6433  0.0249  0.3128
  998TIP3   OH2 2999   3.119   4.389   1.027 -0.2192  0.4958 -0.4083
  998TIP3    H1 3000   3.155   4.425   0.945  0.0976  0.3284 -0.3477
  998TIP3    H2 3001   3.189   4.403   1.091 -0.4842  0.6598 -0.1605
  999TIP3   OH2 3002   0.148   0.885   3.008 -0.5455  0.6289  0.4252
  999TIP3    H1 3003   0.163   0.919   2.920 -0.3960  1.9175  0.9476
  999TIP3    H2 3004   0.225   0.912   3.057 -1.6291  1.8015  1.5065
 1000TIP3   OH2 3005   3.556   3.903   4.258  0.3202 -0.0135 -0.1997
 1000TIP3    H1 3006   3.649   3.926   4.250  0.3120 -0.4616 -1.6681
 1000TIP3    H2 3007   3.517   3.933   4.176 -0.5723 -1.0904 -0.1709
 1001TIP3   OH2 3008   3.768   1.353   1.225 -0.3268  0.1661 -0.2860
 1001TIP3    H1 3009   3.768   1.424   1.161  0.4239  0.7729  0.3645
 1001TIP3    H2 3010   3.784   1.274   1.174 -0.8439  0.5045 -0.9818
 1002TIP3   OH2 3011   4.103   2.236   0.964 -0.1440  0.1689  0.2152
 1002TIP3    H1 3012   4.093   2.181   1.042 -1.2049 -0.9518 -0.7025
 1002TIP3    H2 3013   4.179   2.199   0.918  1.7071  2.0212  1.6623
 1003TIP3   OH2 3014   3.130   1.327   4.148  0.2857  0.4129 -0.1136
 1003TIP3    H1 3015   3.147   1.414   4.182  0.5010  0.1376  0.5019
 1003TIP3    H2 3016   3.088   1.341   4.063  0.1520  1.1114  0.0693
 1004TIP3   OH2 3017   4.514   3.049   2.162 -0.3711  0.1420 -0.2685
 1004TIP3    H1 3018   4.518   3.005   2.247 -0.8145  0.7390  0.0655
 1004TIP3    H2 3019   4.423   3.044   2.136 -0.2018 -0.1997 -0.8006
 1005TIP3   OH2 3020   2.913   3.290   1.142  0.1545  0.0778 -0.4069
 1005TIP3    H1 3021   2.977   3.349   1.102  0.9428 -1.2129 -1.0837
 1005TIP3    H2 3022   2.956   3.259   1.222  0.3239 -0.6877 -0.7920
 1006TIP3   OH2 3023   3.586   4.310   4.821  0.1519 -0.3998  0.3329
 1006TIP3    H1 3024   3.574   4.222   4.785 -2.2195  0.9387 -2.3143
 1006TIP3    H2 3025   3.519   4.316   4.890  0.0034 -0.5041  0.1988
 1007TIP3   OH2 3026   5.880   4.059   0.224  0.2479  0.6277  0.7606
 1007TIP3    H1 3027   5.820   4.085   0.294  1.1929  1.3253  1.3322
 1007TIP3    H2 3028   5.910   3.972   0.250 -0.8244  0.0910  0.2526
 1008TIP3   OH2 3029   4.168   0.460   0.295 -0.2706 -0.0879 -0.0491
 1008TIP3    H1 3030   4.147   0.488   0.384 -4.2362 -3.3197  0.1809
 1008TIP3    H2 3031   4.085   0.465   0.248  1.7062  1.3383 -3.5663
 1009TIP3   OH2 3032   2.569   1.678   4.408 -0.3238  0.4916 -0.4049
 1009TIP3    H1 3033   2.481   1.686   4.370 -0.4896 -0.4328 -0.2117
 1009TIP3    H2 3034   2.627   1.710   4.340 -0.7009 -0.2044 -1.0632
 1010TIP3   OH2 3035   3.950   3.512   0.374 -0.3542  0.0812  0.0283
 1010TIP3    H1 3036   3.984   3.500   0.285 -0.3879 -0.9886  0.1554
 1010TIP3    H2 3037   4.027   3.532   0.426 -0.1549 -0.5654 -0.0119
 1011TIP3   OH2 3038   6.071   2.658   2.567 -0.8259  0.2658  0.2362
 1011TIP3    H1 3039   6.105   2.570   2.580  1.1560  0.7384 -1.4205
 1011TIP3    H2 3040   5.983   2.646   2.531 -0.5867 -1.0240  0.0793
 1012TIP3   OH2 3041   1.416   3.689   0.784 -0.0718  0.3537  0.1389
 1012TIP3    H1 3042   1.373   3.604   0.796  0.8008 -0.1256 -0.1248
 1012TIP3    H2 3043   1.344   3.749   0.761 -0.4957 -0.6069 -1.1083
 1013TIP3   OH2 3044   4.267   4.433   0.223  0.2652 -0.3116 -0.3024
 1013TIP3    H1 3045   4.352   4.399   0.250  0.8301 -0.1594 -1.8434
 1013TIP3    H2 3046   4.259   4.408   0.131 -0.8416  0.7020 -0.4968
 1014TIP3   OH2 3047   1.546   5.020   0.182 -0.4375  0.3303 -0.2633
 1014TIP3    H1 3048   1.582   5.104   0.209  1.8560 -1.0044  0.9719
 1014TIP3    H2 3049   1.468   5.043   0.131  0.7292  3.2042 -0.8542
 1015TIP3   OH2 3050   5.637   5.884   4.783 -0.3160  0.1095 -0.3256
 1015TIP3    H1 3051   5.676   5.971   4.769 -0.6795  0.1855 -0.8405
 1015TIP3    H2 3052   5.672   5.856   4.868  1.1004  0.0477 -0.9242
 1016TIP3   OH2 3053   0.927   2.240   4.203 -0.4304  0.6299  0.3751
 1016TIP3    H1 3054   0.979   2.202   4.273 -0.7452 -0.4372  0.0379
 1016TIP3    H2 3055   0.837   2.239   4.237 -0.2868  2.1814  0.8357
 1017TIP3   OH2 3056   1.024   0.632   4.297  0.3111 -0.1075  0.2481
 1017TIP3    H1 3057   1.034   0.566   4.366  0.5142 -0.2326  0.1019
 1017TIP3    H2 3058   0.973   0.702   4.338 -0.6192 -0.7225  0.1466
 1018TIP3   OH2 3059   2.449   3.352   0.164  0.5316  0.2256 -0.0794
 1018TIP3    H1 3060   2.537   3.357   0.127 -0.0340 -0.9755 -1.6307
 1018TIP3    H2 3061   2.463   3.327   0.255  1.8515  1.2250 -0.0006
 1019TIP3   OH2 3062   3.618   2.901   1.626  0.0244 -0.2615 -0.2738
 1019TIP3    H1 3063   3.529   2.900   1.593  0.0762 -0.1534 -0.4152
 1019TIP3    H2 3064   3.657   2.980   1.590  0.3246 -0.5589 -0.6130
 1020TIP3   OH2 3065   1.880   5.304   0.623  0.0128  0.6411  0.2699
 1020TIP3    H1 3066   1.928   5.234   0.668 -0.1205  0.5132  0.2136
 1020TIP3    H2 3067   1.947   5.367   0.599 -0.1183  1.5147  2.1052
 1021TIP3   OH2 3068   3.486   5.388   1.440 -0.1472  0.3047 -0.7756
 1021TIP3    H1 3069   3.478   5.308   1.389 -0.1873 -0.1216 -0.1105
 1021TIP3    H2 3070   3.396   5.418   1.452 -0.3451 -0.9541  1.1573
 1022TIP3   OH2 3071   4.042   5.358   1.651 -0.0004 -0.1004 -0.1353
 1022TIP3    H1 3072   4.051   5.337   1.744  0.6778  1.1553  0.0878
 1022TIP3    H2 3073   4.041   5.454   1.648 -3.9583 -0.1005 -1.0486
 1023TIP3   OH2 3074   0.192   1.819   4.920  0.1188  0.0507  0.3845
 1023TIP3    H1 3075   0.199   1.727   4.895  0.5617  0.0778  0.4142
 1023TIP3    H2 3076   0.282   1.849   4.929 -0.0088  0.8268 -0.8669
 1024TIP3   OH2 3077   5.481   4.410   2.662  0.0372 -0.1038  0.4172
 1024TIP3    H1 3078   5.507   4.370   2.746 -2.3918  0.1839  1.3482
 1024TIP3    H2 3079   5.386   4.412   2.666  0.0063  3.0491 -0.9149
 1025TIP3   OH2 3080   2.193   2.478   1.052  0.8176  0.1691 -0.2499
 1025TIP3    H1 3081   2.182   2.383   1.054 -0.7520  0.3143 -0.8293
 1025TIP3    H2 3082   2.161   2.503   0.965  0.7220  1.2845  0.1032
 1026TIP3   OH2 3083   2.135   4.706   0.498  0.2209  0.9127 -0.1387
 1026TIP3    H1 3084   2.054   4.747   0.466  1.3364  3.3752  0.1020
 1026TIP3    H2 3085   2.193   4.705   0.421  0.5194  0.6158  0.0903
 1027TIP3   OH2 3086   2.405   3.142   1.441  0.3288 -0.6472  0.5590
 1027TIP3    H1 3087   2.441   3.203   1.376 -1.4170 -0.2915 -0.0871
 1027TIP3    H2 3088   2.479   3.122   1.499  1.5257  0.1776 -0.6717
 1028TIP3   OH2 3089   0.834   1.041   4.523 -0.0403  0.3698 -0.4544
 1028TIP3    H1 3090   0.889   0.979   4.571 -0.3152 -0.2888 -0.9775
 1028TIP3    H2 3091   0.753   1.045   4.574  0.0691  0.4802 -0.2899
 1029TIP3   OH2 3092   2.039   4.076   1.172 -0.8289  0.0109  0.2159
 1029TIP3    H1 3093   2.054   3.987   1.143 -0.3352  0.7271 -1.7828
 1029TIP3    H2 3094   1.943   4.084   1.177 -0.9460  0.0269 -1.7461
 1030TIP3   OH2 3095   3.515   2.180   3.739  0.1234 -0.0592 -0.0179
 1030TIP3    H1 3096   3.464   2.249   3.782  0.7839  0.3536  0.1042
 1030TIP3    H2 3097   3.606   2.208   3.748  0.2224  0.5805 -2.6335
 1031TIP3   OH2 3098   1.631   4.786   1.803  0.0359 -0.1563  0.4705
 1031TIP3    H1 3099   1.570   4.857   1.784 -0.5755 -0.8673 -0.2642
 1031TIP3    H2 3100   1.615   4.765   1.895  1.0499  1.4410  1.0256
 1032TIP3   OH2 3101   5.719   2.959   0.896 -0.4000 -0.6649  0.2936
 1032TIP3    H1 3102   5.642   2.986   0.845 -0.5526  0.6893  1.1962
 1032TIP3    H2 3103   5.760   3.042   0.922  0.5402 -1.3630  1.0559
 1033TIP3   OH2 3104   3.161   1.747   4.827  0.7865  0.1681  0.4566
 1033TIP3    H1 3105   3.084   1.694   4.808  1.8514 -1.6114  1.0485
 1033TIP3    H2 3106   3.195   1.772   4.741 -0.7479  1.4517  0.1930
 1034TIP3   OH2 3107   1.316   2.461   0.643 -0.3179  0.6784 -0.0283
 1034TIP3    H1 3108   1.276   2.403   0.707 -2.4202 -0.4400 -2.2529
 1034TIP3    H2 3109   1.361   2.401   0.583  2.7204  1.7782  1.0740
 1035TIP3   OH2 3110   5.649   4.211   1.707  0.0003  0.5845 -0.3126
 1035TIP3    H1 3111   5.654   4.280   1.641  0.1168  0.5569 -0.3335
 1035TIP3    H2 3112   5.586   4.243   1.771 -0.4725  0.4006 -0.6874
 1036TIP3   OH2 3113   4.125   3.894   0.318  0.0495 -0.3280  0.3507
 1036TIP3    H1 3114   4.040   3.906   0.274 -0.7098 -0.0914  1.8567
 1036TIP3    H2 3115   4.173   3.974   0.298 -1.0631  0.6815  1.6157
 1037TIP3   OH2 3116   5.938   2.482   0.162 -0.4109  0.0364 -0.1018
 1037TIP3    H1 3117   5.925   2.428   0.240  0.0472 -1.6461 -1.1509
 1037TIP3    H2 3118   5.913   2.570   0.189 -0.4085 -0.5485  1.8915
 1038TIP3   OH2 3119   2.628   3.128   1.618 -0.2621  0.6303 -0.1089
 1038TIP3    H1 3120   2.579   3.071   1.678  0.4511  0.5002  0.3592
 1038TIP3    H2 3121   2.664   3.197   1.673  2.2381 -0.7112 -0.0041
 1039TIP3   OH2 3122   0.886   1.615   0.370  1.0323  0.3579  0.1977
 1039TIP3    H1 3123   0.981   1.617   0.359  0.9902  1.8392  0.0074
 1039TIP3    H2 3124   0.852   1.654   0.290  0.3375  1.3522  0.9590
 1040TIP3   OH2 3125   2.564   1.259   4.574  0.5141  0.2663 -0.3134
 1040TIP3    H1 3126   2.477   1.221   4.560  1.0845 -1.0468 -0.3578
 1040TIP3    H2 3127   2.588   1.296   4.488 -0.1500  0.9679 -0.2031
 1041TIP3   OH2 3128   4.109   4.040   2.172  0.1968  0.8329  0.9562
 1041TIP3    H1 3129   4.113   3.947   2.150 -2.2367  0.2829  2.6076
 1041TIP3    H2 3130   4.059   4.080   2.101 -0.8035  0.4471  1.4332
 1042TIP3   OH2 3131   4.677   0.896   3.155  0.3429  0.0996  0.2318
 1042TIP3    H1 3132   4.666   0.991   3.165 -1.8050 -0.0448 -0.6011
 1042TIP3    H2 3133   4.749   0.874   3.215 -0.4841  1.9332  1.9581
 1043TIP3   OH2 3134   4.488   5.981   4.760  0.1017  0.8398 -0.1513
 1043TIP3    H1 3135   4.493   6.053   4.822 -1.1194 -1.0955  2.3171
 1043TIP3    H2 3136   4.394   5.975   4.738  0.1723 -0.0517 -0.2408
 1044TIP3   OH2 3137   0.228   0.122   1.408  0.1990 -0.7477 -0.1679
 1044TIP3    H1 3138   0.287   0.047   1.396  0.3672 -0.6944  0.3279
 1044TIP3    H2 3139   0.217   0.157   1.320  0.1251 -1.3493 -0.4045
 1045TIP3   OH2 3140   3.877   1.724   3.913  0.4461 -0.4158  0.2367
 1045TIP3    H1 3141   3.867   1.660   3.842  0.1452 -0.8545  0.6714
 1045TIP3    H2 3142   3.883   1.808   3.868 -0.2563 -0.6350 -0.2943
 1046TIP3   OH2 3143   0.993   1.082   5.017  0.0375 -0.1104  0.2689
 1046TIP3    H1 3144   1.025   1.023   5.085 -0.9403 -2.1742 -0.9970
 1046TIP3    H2 3145   0.909   1.044   4.990 -0.7232  1.9900 -0.4464
 1047TIP3   OH2 3146   1.817   4.642   1.025  0.3515  0.2400  0.0244
 1047TIP3    H1 3147   1.912   4.655   1.013  0.3560  0.0516 -0.1435
 1047TIP3    H2 3148   1.780   4.661   0.939  0.5372 -2.6880 -0.7499
 1048TIP3   OH2 3149   2.003   3.537   2.367 -0.0109 -0.2639 -0.1403
 1048TIP3    H1 3150   1.909   3.517   2.370 -0.8782  3.3685 -0.1704
 1048TIP3    H2 3151   2.031   3.534   2.458 -1.0397  2.1247  0.3035
 1049TIP3   OH2 3152   2.551   2.462   2.233 -0.2792 -0.9118 -0.1282
 1049TIP3    H1 3153   2.530   2.474   2.140  0.0062 -0.9359 -0.1951
 1049TIP3    H2 3154   2.496   2.389   2.261  0.2226 -1.4286 -0.4759
 1050TIP3   OH2 3155   1.472   4.594   0.738 -0.0139  0.7879 -0.2076
 1050TIP3    H1 3156   1.473   4.539   0.816 -2.5859  0.4225 -0.3868
 1050TIP3    H2 3157   1.483   4.683   0.772 -0.7574  0.6022  0.5288
 1051TIP3   OH2 3158   0.836   1.031   1.810  0.4740 -0.1888  0.4108
 1051TIP3    H1 3159   0.836   1.082   1.729  2.1895 -0.3474  0.3105
 1051TIP3    H2 3160   0.752   1.053   1.852 -1.3978 -1.7436 -2.4158
 1052TIP3   OH2 3161   6.248   3.379   0.489 -0.1580  0.9448  0.0403
 1052TIP3    H1 3162   6.219   3.295   0.526  0.7328  1.0459  1.0059
 1052TIP3    H2 3163   6.175   3.408   0.434 -1.4064  0.6318  1.4975
 1053TIP3   OH2 3164   1.676   2.167   3.622  0.4974 -0.4977 -0.4694
 1053TIP3    H1 3165   1.629   2.152   3.704 -1.1896 -0.1578 -1.3379
 1053TIP3    H2 3166   1.767   2.145   3.642  0.2309  0.1880  1.6547
 1054TIP3   OH2 3167   2.959   5.336   0.649 -0.1849  0.5349  0.0460
 1054TIP3    H1 3168   2.955   5.353   0.743 -3.2525 -1.7838  0.4276
 1054TIP3    H2 3169   3.010   5.256   0.641 -0.7963  0.1633 -0.1657
 1055TIP3   OH2 3170   2.838   4.987   0.478 -0.1174 -0.5712 -0.2789
 1055TIP3    H1 3171   2.807   4.963   0.565 -0.5897 -0.5626 -0.4395
 1055TIP3    H2 3172   2.916   5.041   0.493 -0.4932 -0.1466  0.1530
 1056TIP3   OH2 3173   2.143   3.326   1.285 -0.6212 -0.1079  0.0308
 1056TIP3    H1 3174   2.147   3.379   1.365 -0.7108 -0.0058 -0.0333
 1056TIP3    H2 3175   2.070   3.362   1.236 -0.0987  0.3113 -0.4447
 1057TIP3   OH2 3176   4.412   0.289   0.248 -0.2425 -0.1773  0.2226
 1057TIP3    H1 3177   4.329   0.333   0.264 -0.5278 -0.3977 -0.6497
 1057TIP3    H2 3178   4.447   0.271   0.336 -0.4835  1.0918  0.5932
 1058TIP3   OH2 3179   3.337   2.523   0.344 -0.2750 -0.4527 -0.5493
 1058TIP3    H1 3180   3.400   2.464   0.385 -2.6837 -1.0178  2.5247
 1058TIP3    H2 3181   3.344   2.605   0.392 -1.6974 -0.4544 -0.3026
 1059TIP3   OH2 3182   3.133   4.112   0.980 -0.0223  0.5708  0.5545
 1059TIP3    H1 3183   3.118   4.203   1.007 -1.1771  0.4635  0.3138
 1059TIP3    H2 3184   3.069   4.098   0.910  0.4449 -0.2984  0.3041
 1060TIP3   OH2 3185   3.468   0.815   1.108 -0.3508 -0.1368 -0.9053
 1060TIP3    H1 3186   3.480   0.804   1.014  1.0499  0.4629 -0.8068
 1060TIP3    H2 3187   3.516   0.895   1.129 -1.8372  0.5141  0.0877
 1061TIP3   OH2 3188   3.990   2.837   1.547 -0.0284  0.2527  0.2257
 1061TIP3    H1 3189   3.910   2.854   1.596 -1.0005  0.5168 -1.3974
 1061TIP3    H2 3190   4.036   2.921   1.546  0.0897  0.2000  0.8230
 1062TIP3   OH2 3191   3.937   3.051   0.336  0.0070  0.7333 -0.2975
 1062TIP3    H1 3192   3.915   2.996   0.411  0.8115  1.2592  0.3420
 1062TIP3    H2 3193   3.929   3.141   0.369  0.7764  0.9592 -0.7134
 1063TIP3   OH2 3194   4.065   4.966   2.776 -0.4727 -0.3558  0.2787
 1063TIP3    H1 3195   4.153   4.997   2.796 -0.2959 -0.8100  0.2150
 1063TIP3    H2 3196   4.066   4.952   2.681 -0.1232 -1.8543  0.4829
 1064TIP3   OH2 3197   5.250   0.550   1.585 -0.0958 -0.1337  0.2698
 1064TIP3    H1 3198   5.291   0.518   1.505 -0.8912 -0.3718 -0.0466
 1064TIP3    H2 3199   5.168   0.501   1.591  0.2879 -0.6365  1.6049
 1065TIP3   OH2 3200   1.435   2.322   1.007 -0.2313 -0.6673  0.5074
 1065TIP3    H1 3201   1.436   2.264   1.083  0.9053 -1.8157 -0.3615
 1065TIP3    H2 3202   1.346   2.312   0.971 -0.5703 -0.5912  1.3077
 1066TIP3   OH2 3203   5.083   3.841   1.014 -0.2658 -0.1533  0.2583
 1066TIP3    H1 3204   5.054   3.886   0.934  0.0577 -0.9185 -0.2881
 1066TIP3    H2 3205   5.018   3.772   1.027  0.2649 -0.6872  0.0773
 1067TIP3   OH2 3206   3.877   3.530   1.908  0.1792  0.4718 -1.2466
 1067TIP3    H1 3207   3.852   3.507   1.819  3.0123  1.3294 -2.3229
 1067TIP3    H2 3208   3.888   3.625   1.907 -0.2223  0.5514  0.1484
 1068TIP3   OH2 3209   3.226   4.501   0.814 -0.0031 -0.0119 -0.3261
 1068TIP3    H1 3210   3.276   4.466   0.740  1.1304  2.8446 -1.0133
 1068TIP3    H2 3211   3.191   4.584   0.781 -0.6497  0.6298  1.8993
 1069TIP3   OH2 3212   1.601   5.977   2.242 -0.0966 -0.3980  0.0918
 1069TIP3    H1 3213   1.520   5.941   2.279  0.5646  0.6324  2.6756
 1069TIP3    H2 3214   1.671   5.934   2.292  0.8680  0.4994 -0.4693
 1070TIP3   OH2 3215   2.689   5.519   1.201  0.0695  0.8238  0.1859
 1070TIP3    H1 3216   2.661   5.457   1.268  0.3006  0.7642  0.2268
 1070TIP3    H2 3217   2.615   5.523   1.140  0.3650 -0.0554 -0.2208
 1071TIP3   OH2 3218   1.944   1.402   4.143 -0.5491  0.5387 -0.4428
 1071TIP3    H1 3219   1.870   1.369   4.194  0.9522 -0.4318  1.1999
 1071TIP3    H2 3220   1.919   1.490   4.116 -2.3716  0.1352 -0.0924
 1072TIP3   OH2 3221   4.308   3.674   0.329 -0.3337 -0.4037  0.0390
 1072TIP3    H1 3222   4.231   3.729   0.318 -1.1342 -1.3075  1.0246
 1072TIP3    H2 3223   4.346   3.668   0.241  0.4974  2.6974  0.1201
 1073TIP3   OH2 3224   4.962   3.288   1.301  0.2518 -0.1694 -0.0585
 1073TIP3    H1 3225   4.979   3.241   1.219  0.8739 -1.6220  0.8942
 1073TIP3    H2 3226   4.871   3.319   1.292 -0.3844 -2.0850 -0.4618
 1074TIP3   OH2 3227   3.599   3.899   1.011  0.1892 -0.3825  0.1707
 1074TIP3    H1 3228   3.694   3.892   1.012  0.2388  0.3170  1.7980
 1074TIP3    H2 3229   3.581   3.979   0.962  0.4786  0.0308  0.7381
 1075TIP3   OH2 3230   3.891   5.030   2.352  0.2042 -0.2638 -0.3471
 1075TIP3    H1 3231   3.895   5.074   2.267 -1.8373  1.0611  0.2171
 1075TIP3    H2 3232   3.913   4.939   2.333 -1.4872 -0.2587 -2.5284
 1076TIP3   OH2 3233   2.220   2.590   0.549  0.2625 -0.7240 -0.1480
 1076TIP3    H1 3234   2.287   2.552   0.606 -1.0177  0.1205  1.9585
 1076TIP3    H2 3235   2.156   2.628   0.609 -0.9124  0.5548 -2.1636
 1077TIP3   OH2 3236   5.928   2.564   4.312 -0.6087  0.1987  0.3168
 1077TIP3    H1 3237   5.945   2.473   4.335 -0.9685 -0.0959 -0.5870
 1077TIP3    H2 3238   5.833   2.572   4.310 -0.6000 -0.0058 -1.9137
 1078TIP3   OH2 3239   2.457   5.829   1.577 -1.2564  0.1852  0.2410
 1078TIP3    H1 3240   2.466   5.829   1.672  1.7729 -0.7787  0.0096
 1078TIP3    H2 3241   2.501   5.908   1.548 -0.5466 -0.4628 -0.4824
 1079TIP3   OH2 3242   3.060   4.501   1.929 -0.5831  0.2058  0.1081
 1079TIP3    H1 3243   3.066   4.577   1.987  0.4466  0.0167  0.2461
 1079TIP3    H2 3244   3.116   4.435   1.968 -2.7332 -1.2286  0.8724
 1080TIP3   OH2 3245   3.733   1.838   2.629  0.1577 -0.1285  0.4834
 1080TIP3    H1 3246   3.697   1.916   2.672  0.2462 -0.3075  0.8863
 1080TIP3    H2 3247   3.700   1.765   2.681 -0.4446 -0.3947 -0.2697
 1081TIP3   OH2 3248   3.885   1.748   3.098 -0.7804  0.2864 -0.4301
 1081TIP3    H1 3249   3.824   1.809   3.056 -0.9741  0.1794 -0.3014
 1081TIP3    H2 3250   3.832   1.673   3.122 -0.2960 -0.5036 -1.7606
 1082TIP3   OH2 3251   0.303   5.999   4.927  0.1783  0.1259 -0.4106
 1082TIP3    H1 3252   0.255   5.949   4.861  0.9988  1.0637 -1.7215
 1082TIP3    H2 3253   0.395   5.978   4.911  0.3581 -0.1126  0.8329
 1083TIP3   OH2 3254   1.774   5.441   1.590 -0.5654 -0.2997 -0.1621
 1083TIP3    H1 3255   1.829   5.459   1.514 -1.3575 -0.7948 -0.8539
 1083TIP3    H2 3256   1.803   5.505   1.656  2.7421 -2.2715  0.4421
 1084TIP3   OH2 3257   1.614   2.863   0.436 -0.8079 -0.2813 -0.0452
 1084TIP3    H1 3258   1.671   2.816   0.496 -0.8044 -0.3524 -0.1046
 1084TIP3    H2 3259   1.674   2.913   0.380 -0.7431 -1.4063 -0.9901
 1085TIP3   OH2 3260   4.520   2.380   0.701  0.5473 -0.4321  0.0685
 1085TIP3    H1 3261   4.491   2.466   0.733  0.8778 -0.9325  1.8097
 1085TIP3    H2 3262   4.562   2.398   0.617 -0.2519  0.9803 -0.0454
 1086TIP3   OH2 3263   5.836   4.055   5.158  0.0883  0.7324  0.1017
 1086TIP3    H1 3264   5.902   4.073   5.225  0.5055  0.6946 -0.2907
 1086TIP3    H2 3265   5.867   3.974   5.115 -0.4026  0.5176  0.1526
 1087TIP3   OH2 3266   2.116   3.665   1.362 -0.3542 -0.2271 -0.3002
 1087TIP3    H1 3267   2.098   3.610   1.438  1.9357 -0.5543  0.0480
 1087TIP3    H2 3268   2.191   3.717   1.387 -2.0766  2.6372 -0.8824
 1088TIP3   OH2 3269   1.330   0.217   5.318 -0.3944  0.5582  0.0048
 1088TIP3    H1 3270   1.343   0.125   5.296  1.7177  0.3435  1.9576
 1088TIP3    H2 3271   1.359   0.265   5.241 -0.0536 -0.3721 -0.4465
 1089TIP3   OH2 3272   4.463   4.988   2.421  0.0767 -0.7712  0.3149
 1089TIP3    H1 3273   4.411   4.925   2.371  1.4607 -0.8232 -1.1257
 1089TIP3    H2 3274   4.464   4.953   2.510 -0.6990 -1.8130 -0.0728
 1090TIP3   OH2 3275   2.005   4.123   4.983 -0.2079 -0.2136  0.2375
 1090TIP3    H1 3276   1.966   4.164   4.905  1.0035  0.7749  0.1355
 1090TIP3    H2 3277   2.076   4.069   4.949  0.2528  0.1347  0.6441
 1091TIP3   OH2 3278   1.963   2.297   2.585 -0.2027 -0.6045  0.0395
 1091TIP3    H1 3279   1.976   2.230   2.519 -1.8326  1.2552 -2.2251
 1091TIP3    H2 3280   2.021   2.368   2.559 -0.1644 -0.2245  1.1365
 1092TIP3   OH2 3281   4.315   1.672   0.859 -0.3709 -0.1680  0.2644
 1092TIP3    H1 3282   4.261   1.624   0.922  0.6794 -1.4756  0.1722
 1092TIP3    H2 3283   4.304   1.625   0.777 -0.1389  0.3574 -0.0736
 1093TIP3   OH2 3284   4.070   2.869   0.854 -0.6320 -0.3743  0.3003
 1093TIP3    H1 3285   4.151   2.860   0.905 -1.2797  0.4494  1.4947
 1093TIP3    H2 3286   4.051   2.780   0.823  1.0078 -0.4831 -0.4387
 1094TIP3   OH2 3287   0.193   0.425   5.054 -0.2284 -0.4744 -0.5961
 1094TIP3    H1 3288   0.200   0.397   5.146 -0.2615  0.8861 -0.1678
 1094TIP3    H2 3289   0.103   0.454   5.045 -0.5561 -1.7188 -1.3974
 1095TIP3   OH2 3290   2.147   3.438   0.177 -0.0468 -0.1972  0.4083
 1095TIP3    H1 3291   2.159   3.462   0.085 -3.7392  0.5689  0.0549
 1095TIP3    H2 3292   2.192   3.507   0.226 -0.6123  1.0258 -0.7784
 1096TIP3   OH2 3293   6.322   1.773   2.708 -0.8037  0.1733  0.7094
 1096TIP3    H1 3294   6.353   1.699   2.761  0.6551 -0.5151 -1.0469
 1096TIP3    H2 3295   6.357   1.850   2.753 -0.2389 -0.3584  1.1998
 1097TIP3   OH2 3296   4.149   4.242   1.806 -0.0594  0.0520  0.0055
 1097TIP3    H1 3297   4.244   4.242   1.795  0.2845  0.0598  2.7400
 1097TIP3    H2 3298   4.124   4.335   1.802  0.3144  0.2157  1.1858
 1098TIP3   OH2 3299   4.694   3.560   2.863 -0.0484  0.0512 -0.7208
 1098TIP3    H1 3300   4.684   3.651   2.834  0.0869  0.1618 -0.4238
 1098TIP3    H2 3301   4.631   3.551   2.934  0.4935  0.1413 -0.2314
 1099TIP3   OH2 3302   1.582   3.440   0.135  0.2663  0.1706  0.3755
 1099TIP3    H1 3303   1.604   3.349   0.154  1.6782  0.3617 -0.3274
 1099TIP3    H2 3304   1.581   3.483   0.220  2.4436  0.1184  0.4373
 1100TIP3   OH2 3305   3.512   1.766   3.271 -0.0419 -0.9746 -0.3293
 1100TIP3    H1 3306   3.418   1.753   3.284  0.0675  0.1031  1.6800
 1100TIP3    H2 3307   3.522   1.861   3.266  0.9138 -1.0991 -0.8402
 1101TIP3   OH2 3308   1.368   0.858   0.382 -0.0968  0.3426  0.3317
 1101TIP3    H1 3309   1.298   0.904   0.335  0.3961  1.1741  0.3988
 1101TIP3    H2 3310   1.340   0.859   0.473 -0.1458  0.4022  0.3165
 1102TIP3   OH2 3311   6.332   0.860   5.177 -0.3879  0.1054 -0.2791
 1102TIP3    H1 3312   6.405   0.800   5.191  0.2867  0.9356 -0.1795
 1102TIP3    H2 3313   6.328   0.871   5.082 -0.2620  0.1979 -0.2746
 1103TIP3   OH2 3314   3.391   5.772   2.417 -0.2431  0.1491  0.0235
 1103TIP3    H1 3315   3.457   5.719   2.371 -0.3841  1.6750 -1.9858
 1103TIP3    H2 3316   3.308   5.744   2.378 -0.4162  1.0084 -0.2320
 1104TIP3   OH2 3317   0.757   0.164   2.479 -0.3648  0.3106 -0.3123
 1104TIP3    H1 3318   0.773   0.074   2.507  1.3097  0.8761  0.6532
 1104TIP3    H2 3319   0.676   0.190   2.522  0.1897 -0.0898  0.9806
 1105TIP3   OH2 3320   3.190   4.019   0.509 -0.1219 -0.6812  0.1626
 1105TIP3    H1 3321   3.284   4.034   0.500  0.3176 -2.7481  0.9848
 1105TIP3    H2 3322   3.183   3.933   0.552 -2.3796 -0.8549 -0.4597
 1106TIP3   OH2 3323   1.318   2.679   3.356 -0.1819 -0.7570  0.0825
 1106TIP3    H1 3324   1.338   2.591   3.324  0.3643  0.5976 -3.5171
 1106TIP3    H2 3325   1.403   2.724   3.354 -1.0183  0.7890 -1.2835
 1107TIP3   OH2 3326   5.312   3.854   0.549  0.0126  0.3433  0.5245
 1107TIP3    H1 3327   5.350   3.941   0.541 -2.9889  1.4932 -2.0612
 1107TIP3    H2 3328   5.354   3.803   0.478 -1.1693  0.8373 -0.5458
 1108TIP3   OH2 3329   1.457   5.575   1.968 -0.4573  0.2555  0.0696
 1108TIP3    H1 3330   1.460   5.516   1.892  0.3840 -0.9207  1.0047
 1108TIP3    H2 3331   1.414   5.523   2.036 -0.5714  1.0694  0.6237
 1109TIP3   OH2 3332   1.519   1.600   0.808 -0.2718  0.3287  0.0154
 1109TIP3    H1 3333   1.528   1.683   0.761 -0.2723 -0.0105 -0.5935
 1109TIP3    H2 3334   1.609   1.572   0.825 -0.2756  0.7060  0.6805
 1110TIP3   OH2 3335   1.789   0.757   5.148 -0.2082 -0.4580  0.5044
 1110TIP3    H1 3336   1.776   0.836   5.201 -0.5048 -0.5297  0.5415
 1110TIP3    H2 3337   1.784   0.686   5.212 -1.0178 -0.5751  0.3205
 1111TIP3   OH2 3338   2.275   5.308   0.015 -0.0062  0.0885 -0.4527
 1111TIP3    H1 3339   2.352   5.255  -0.005  0.0310  0.3879 -1.1020
 1111TIP3    H2 3340   2.302   5.364   0.087  1.2894  2.2121 -2.5473
 1112TIP3   OH2 3341   1.945   4.390   0.601 -1.1586 -0.5274  0.3431
 1112TIP3    H1 3342   1.858   4.430   0.590 -1.3810 -1.1151 -0.1270
 1112TIP3    H2 3343   1.933   4.326   0.671 -0.7952  0.2417  1.1185
 1113TIP3   OH2 3344   1.149   4.006   2.596 -0.0596 -0.5917  0.1146
 1113TIP3    H1 3345   1.183   3.940   2.537 -0.3162 -1.1052  0.5361
 1113TIP3    H2 3346   1.226   4.055   2.625  0.1591 -0.8723  0.0036
 1114TIP3   OH2 3347   4.174   3.536   0.834  0.3570 -0.4779  0.1671
 1114TIP3    H1 3348   4.242   3.597   0.808  0.3102 -0.7023 -0.4994
 1114TIP3    H2 3349   4.093   3.587   0.830  0.4332 -0.3291  0.5309
 1115TIP3   OH2 3350   6.350   2.851   5.240 -0.0234 -0.4878 -0.2102
 1115TIP3    H1 3351   6.262   2.838   5.276  1.0471 -2.4291  1.7973
 1115TIP3    H2 3352   6.406   2.866   5.316  1.4274  0.6282 -1.4596
 1116TIP3   OH2 3353   1.437   4.113   4.051 -0.4442  0.1586 -0.6470
 1116TIP3    H1 3354   1.464   4.205   4.057 -0.9264  0.3555 -1.4751
 1116TIP3    H2 3355   1.350   4.116   4.012 -1.0171 -0.5786  0.5669
 1117TIP3   OH2 3356   2.747   2.633   0.794  0.6182 -0.4073  0.4106
 1117TIP3    H1 3357   2.720   2.708   0.742  1.4920  1.1634  2.1713
 1117TIP3    H2 3358   2.670   2.613   0.848  1.0967  0.5610  1.4542
 1118TIP3   OH2 3359   2.948   0.865   2.340 -0.4183  0.3372 -0.5350
 1118TIP3    H1 3360   2.970   0.833   2.428 -2.2060 -0.0583 -0.2081
 1118TIP3    H2 3361   2.897   0.945   2.356  1.8742  2.0136 -1.3037
 1119TIP3   OH2 3362   4.831   3.166   1.711 -0.3982  0.1651  0.3544
 1119TIP3    H1 3363   4.761   3.114   1.751 -1.7485  0.6758 -1.2806
 1119TIP3    H2 3364   4.786   3.243   1.676  1.2539  1.3603  0.8084
 1120TIP3   OH2 3365   4.778   4.257   4.870  0.5380 -0.1317 -0.0271
 1120TIP3    H1 3366   4.783   4.352   4.857 -0.0530 -0.2710 -1.3290
 1120TIP3    H2 3367   4.714   4.246   4.940  0.4733  0.4204  0.0034
 1121TIP3   OH2 3368   6.281   1.336   4.267 -0.0220 -0.0866  0.5654
 1121TIP3    H1 3369   6.318   1.348   4.355 -0.9302  0.1088  0.9304
 1121TIP3    H2 3370   6.246   1.247   4.268  0.7155 -0.3778  0.1209
 1122TIP3   OH2 3371   4.305   2.334   1.833 -0.2312 -0.0462 -0.2236
 1122TIP3    H1 3372   4.340   2.390   1.903 -0.1741  1.6205 -1.5384
 1122TIP3    H2 3373   4.249   2.271   1.878 -1.5871  2.0758  1.1779
 1123TIP3   OH2 3374   3.727   3.855   1.735  0.0520  0.4021  0.4700
 1123TIP3    H1 3375   3.653   3.891   1.686  0.6248  2.5577  1.1451
 1123TIP3    H2 3376   3.714   3.885   1.825  0.6224 -0.9974  1.0364
 1124TIP3   OH2 3377   4.689   2.093   0.299 -0.1307 -0.2877 -0.2406
 1124TIP3    H1 3378   4.733   2.008   0.308  0.7805  0.2094 -0.0351
 1124TIP3    H2 3379   4.750   2.157   0.335 -1.6643  0.2426  1.5094
 1125TIP3   OH2 3380   1.091   0.083   1.141  0.6604  0.3840 -0.1141
 1125TIP3    H1 3381   1.060   0.158   1.192 -0.6242 -0.6390  0.6335
 1125TIP3    H2 3382   1.185   0.079   1.159  0.6319  1.4665  0.3024
 1126TIP3   OH2 3383   5.523   2.959   1.561 -0.7436  0.5201 -0.0689
 1126TIP3    H1 3384   5.543   2.929   1.650  2.2089 -1.3379 -1.2982
 1126TIP3    H2 3385   5.566   3.045   1.555 -1.5560  0.9721  0.5223
 1127TIP3   OH2 3386   4.312   4.329   1.122 -0.7117  0.2059  0.1714
 1127TIP3    H1 3387   4.318   4.355   1.213  1.4314  2.7959 -0.6534
 1127TIP3    H2 3388   4.305   4.411   1.073 -1.2836 -1.1019 -2.0393
 1128TIP3   OH2 3389   4.566   3.469   4.324  0.1947 -0.0183  0.4052
 1128TIP3    H1 3390   4.599   3.394   4.276 -1.1082  0.0644 -0.6593
 1128TIP3    H2 3391   4.631   3.538   4.311  0.3973 -0.3429 -0.3055
 1129TIP3   OH2 3392   3.406   5.091   0.895 -0.3702  0.6273 -0.5680
 1129TIP3    H1 3393   3.368   5.096   0.808 -2.1197 -0.0753  0.1213
 1129TIP3    H2 3394   3.347   5.143   0.950 -1.6120 -2.2344  0.9250
 1130TIP3   OH2 3395   1.126   2.714   2.426 -0.1238 -0.5071  1.1047
 1130TIP3    H1 3396   1.114   2.680   2.515  1.0068 -2.0468  0.6807
 1130TIP3    H2 3397   1.217   2.744   2.424 -0.2532 -0.1448  0.5655
 1131TIP3   OH2 3398   1.918   2.120   4.899  0.0762 -0.2377 -0.0955
 1131TIP3    H1 3399   1.952   2.106   4.988  0.0613 -1.6929 -0.2964
 1131TIP3    H2 3400   1.893   2.212   4.897  0.7627 -0.0065  1.1768
 1132TIP3   OH2 3401   0.173   0.021   0.616 -0.0765  0.1371  0.0777
 1132TIP3    H1 3402   0.227  -0.058   0.621 -0.2703 -0.0910 -1.2115
 1132TIP3    H2 3403   0.232   0.089   0.584 -0.0217  0.4122  0.7542
 1133TIP3   OH2 3404   5.781   3.745   1.020 -0.1096  0.0652  0.0375
 1133TIP3    H1 3405   5.754   3.837   1.022 -0.3380  0.0472 -1.8049
 1133TIP3    H2 3406   5.864   3.744   1.066  0.1917  1.3057 -0.4533
 1134TIP3   OH2 3407   4.156   2.295   0.359 -0.1953 -0.0108 -0.5518
 1134TIP3    H1 3408   4.152   2.199   0.361 -0.8546  0.0257 -0.0523
 1134TIP3    H2 3409   4.130   2.318   0.270 -2.5260 -0.1907  0.0479
 1135TIP3   OH2 3410   1.579   5.740   2.838  0.3011 -0.0450 -0.2876
 1135TIP3    H1 3411   1.526   5.683   2.893  0.9956  0.0440  0.4884
 1135TIP3    H2 3412   1.570   5.704   2.750  1.3487 -1.8479  0.3011
 1136TIP3   OH2 3413   0.907   0.406   0.799 -0.2924  0.2937  0.0090
 1136TIP3    H1 3414   0.826   0.394   0.750  0.8742 -1.0946 -1.6341
 1136TIP3    H2 3415   0.967   0.447   0.736  0.7827 -0.1985  0.6907
 1137TIP3   OH2 3416   0.942   1.164   2.303 -0.0237  0.0919 -0.6762
 1137TIP3    H1 3417   1.002   1.096   2.332 -0.6358 -0.0025  0.3913
 1137TIP3    H2 3418   0.995   1.244   2.301  0.2187 -0.0536 -0.0696
 1138TIP3   OH2 3419   4.227   3.854   1.453 -0.3722 -0.0331 -0.1508
 1138TIP3    H1 3420   4.237   3.762   1.426 -0.5462 -0.1139  0.0577
 1138TIP3    H2 3421   4.136   3.860   1.483 -0.6689  0.4571 -1.1217
 1139TIP3   OH2 3422   0.176   1.665   0.838  0.3554  0.1833  0.7054
 1139TIP3    H1 3423   0.233   1.656   0.914 -0.3059  2.2131  1.4827
 1139TIP3    H2 3424   0.183   1.581   0.793  1.7945 -0.5808  2.2743
 1140TIP3   OH2 3425   4.855   0.376   5.005  0.4845  0.6528  0.7061
 1140TIP3    H1 3426   4.931   0.334   5.044  0.5564 -0.7682 -0.9289
 1140TIP3    H2 3427   4.781   0.342   5.054  0.6321 -0.5491  0.0953
 1141TIP3   OH2 3428   4.137   4.976   2.523 -0.2512 -0.3500  0.3266
 1141TIP3    H1 3429   4.074   5.005   2.456 -0.6251  2.1028  1.6996
 1141TIP3    H2 3430   4.191   5.053   2.540  1.5970 -1.7543  0.9108
 1142TIP3   OH2 3431   5.685   0.461   2.102 -0.3350  0.2848 -0.4403
 1142TIP3    H1 3432   5.642   0.546   2.105 -2.1325 -0.6404  1.1010
 1142TIP3    H2 3433   5.624   0.404   2.056  0.7787 -0.2280 -1.3031
 1143TIP3   OH2 3434   2.165   0.763   4.414 -0.1541  0.4226  0.1876
 1143TIP3    H1 3435   2.240   0.821   4.402 -0.2243  0.8787  1.7568
 1143TIP3    H2 3436   2.109   0.779   4.338  0.1628  1.9043  0.2612
 1144TIP3   OH2 3437   4.910   3.286   1.969 -0.5053  0.8666  0.2099
 1144TIP3    H1 3438   4.999   3.251   1.980 -0.9418 -0.4463 -0.2657
 1144TIP3    H2 3439   4.890   3.272   1.876 -1.1561  1.2515  0.2906
 1145TIP3   OH2 3440   5.476   2.978   0.691  0.2362  0.2687  0.0253
 1145TIP3    H1 3441   5.475   3.065   0.731 -1.2273  0.6540 -0.8467
 1145TIP3    H2 3442   5.496   2.994   0.599 -1.2860 -0.1984 -0.4007
 1146TIP3   OH2 3443   0.411   3.138   1.873 -0.6413  0.0357  0.0744
 1146TIP3    H1 3444   0.337   3.079   1.891 -0.3063 -0.9497 -1.6835
 1146TIP3    H2 3445   0.398   3.211   1.933 -1.3291 -1.5919  1.9646
 1147TIP3   OH2 3446   0.739   5.902   0.313 -0.3375  0.1172  0.1824
 1147TIP3    H1 3447   0.717   5.890   0.406 -0.8481  0.3004  0.0859
 1147TIP3    H2 3448   0.688   5.834   0.268  0.3737 -0.3659  0.0902
 1148TIP3   OH2 3449   5.167   2.542   4.903 -0.3345  0.1614  0.2576
 1148TIP3    H1 3450   5.231   2.543   4.832 -0.8563  2.1487 -0.2071
 1148TIP3    H2 3451   5.215   2.576   4.978 -0.8307  1.6802 -0.0979
 1149TIP3   OH2 3452   2.002   0.303   0.677  0.7602 -0.2423 -0.2263
 1149TIP3    H1 3453   2.005   0.362   0.753  2.0047  0.1004 -0.5299
 1149TIP3    H2 3454   2.092   0.273   0.666  0.3899 -1.1231 -0.9257
 1150TIP3   OH2 3455   2.408   0.282   3.753  0.4236 -0.0621 -0.2503
 1150TIP3    H1 3456   2.451   0.368   3.755  0.4250 -0.0624 -0.2583
 1150TIP3    H2 3457   2.315   0.302   3.746  0.4323 -0.0615 -0.3729
 1151TIP3   OH2 3458   1.766   5.211   0.187  0.1725  0.2294 -0.3105
 1151TIP3    H1 3459   1.752   5.192   0.094 -1.4611 -1.5169  0.2758
 1151TIP3    H2 3460   1.859   5.234   0.192  0.0371  1.4863 -2.5418
 1152TIP3   OH2 3461   1.790   4.255   0.797  0.2740 -0.2193 -0.0289
 1152TIP3    H1 3462   1.819   4.164   0.792  0.4523 -0.0452 -3.1468
 1152TIP3    H2 3463   1.702   4.254   0.759  0.0021  0.7993  0.5720
 1153TIP3   OH2 3464   1.720   3.579   1.813  0.2341 -0.3987  0.3819
 1153TIP3    H1 3465   1.658   3.511   1.787  1.2385 -0.9723 -0.5697
 1153TIP3    H2 3466   1.766   3.601   1.732  0.1752  1.1569  0.7545
 1154TIP3   OH2 3467   1.597   4.547   0.367 -0.0086 -0.1178  0.5358
 1154TIP3    H1 3468   1.632   4.616   0.310  2.0015 -0.8502  0.8547
 1154TIP3    H2 3469   1.644   4.559   0.450 -2.3825  0.4801  1.8390
 1155TIP3   OH2 3470   0.725   5.616   2.526 -0.8277  0.4462 -0.0227
 1155TIP3    H1 3471   0.678   5.697   2.509 -2.4464 -0.2283  1.1504
 1155TIP3    H2 3472   0.795   5.642   2.586 -1.1945  1.0203  0.1622
 1156TIP3   OH2 3473   1.037   3.949   4.982 -0.2210  0.4686  0.0131
 1156TIP3    H1 3474   0.944   3.965   4.965  0.0969  0.9175 -1.4017
 1156TIP3    H2 3475   1.039   3.898   5.063 -1.7322 -0.1683 -0.3490
 1157TIP3   OH2 3476   1.818   3.875   0.157  0.2645  0.2075 -0.1451
 1157TIP3    H1 3477   1.887   3.809   0.153  0.1717  0.1000  0.0109
 1157TIP3    H2 3478   1.842   3.940   0.091  0.8469  0.4808  0.3253
 1158TIP3   OH2 3479   3.749   0.350   0.453 -0.0624  0.4710  0.3143
 1158TIP3    H1 3480   3.802   0.429   0.451 -0.4532  0.7099 -1.1520
 1158TIP3    H2 3481   3.812   0.279   0.469  0.5384  0.8729 -0.2623
 1159TIP3   OH2 3482   4.231   5.768   4.962  0.0432 -0.5285 -0.1317
 1159TIP3    H1 3483   4.273   5.717   5.031  1.3938  2.6185  1.4825
 1159TIP3    H2 3484   4.171   5.826   5.009  0.2071  0.9343 -1.6747
 1160TIP3   OH2 3485   4.089   6.021   5.155 -0.1948 -0.2067 -0.1770
 1160TIP3    H1 3486   4.049   6.091   5.103 -0.8245 -1.5129 -1.4887
 1160TIP3    H2 3487   4.035   6.016   5.234  0.0904  1.0315  0.1162
 1161TIP3   OH2 3488   0.381   2.318   0.012  0.3657  0.3881  0.5415
 1161TIP3    H1 3489   0.318   2.266  -0.038  1.7271 -0.5350 -0.2741
 1161TIP3    H2 3490   0.403   2.264   0.088  0.0456  0.7832  0.9184
 1162TIP3   OH2 3491   3.911   0.242   0.909  0.3695  0.3322  0.4434
 1162TIP3    H1 3492   3.819   0.267   0.910  0.3917  0.4748 -0.2742
 1162TIP3    H2 3493   3.911   0.149   0.888  0.3317 -0.0298  1.9983
 1163TIP3   OH2 3494   4.842   5.864   3.900 -0.4497  0.3951  0.0333
 1163TIP3    H1 3495   4.769   5.850   3.961  0.3354  0.2762  0.9570
 1163TIP3    H2 3496   4.844   5.784   3.847 -1.5003  0.7430 -0.5447
 1164TIP3   OH2 3497   3.228   1.198   2.332 -0.1134 -0.6110 -0.1709
 1164TIP3    H1 3498   3.194   1.266   2.273 -1.4622 -1.0939  0.0224
 1164TIP3    H2 3499   3.215   1.117   2.283  0.7937 -0.7984 -0.0929
 1165TIP3   OH2 3500   1.303   0.514   1.753 -0.0495  0.0455  0.5300
 1165TIP3    H1 3501   1.259   0.442   1.797 -0.5830  0.0264 -0.0146
 1165TIP3    H2 3502   1.390   0.517   1.791  0.2019 -1.3119  0.0830
 1166TIP3   OH2 3503   0.336   0.957   5.292  0.9424  0.1045  0.4616
 1166TIP3    H1 3504   0.421   0.987   5.325  0.3877  0.5722  1.4673
 1166TIP3    H2 3505   0.341   0.861   5.297  0.7399  0.1774  2.2370
 1167TIP3   OH2 3506   1.196   4.734  -0.025  0.6264  0.2679  0.2128
 1167TIP3    H1 3507   1.213   4.823   0.006  1.6189  0.0429  0.3429
 1167TIP3    H2 3508   1.239   4.678   0.040 -0.6390 -0.3430  0.5479
 1168TIP3   OH2 3509   1.989   5.199   1.201  0.2924  0.4933 -0.2407
 1168TIP3    H1 3510   2.074   5.193   1.157  0.5558 -0.7219  0.3933
 1168TIP3    H2 3511   1.937   5.128   1.163 -0.6636  1.6404 -1.0874
 1169TIP3   OH2 3512   4.427   5.227   0.897  0.5079  0.1418  0.0245
 1169TIP3    H1 3513   4.347   5.270   0.869 -0.0153 -0.8133  0.0333
 1169TIP3    H2 3514   4.400   5.138   0.920  1.4024  0.0899  0.9265
 1170TIP3   OH2 3515   2.916   0.542   0.682 -0.5022 -0.0543  0.1952
 1170TIP3    H1 3516   2.878   0.563   0.767 -0.1233 -0.5437  0.4894
 1170TIP3    H2 3517   2.843   0.547   0.621 -0.8373  0.0042  0.5967
 1171TIP3   OH2 3518   0.883   4.994   1.775  0.1552 -0.2399  0.0808
 1171TIP3    H1 3519   0.961   5.044   1.798 -0.0002  0.1401 -0.2235
 1171TIP3    H2 3520   0.914   4.926   1.715 -0.1697  1.5327 -2.1509
 1172TIP3   OH2 3521   3.278   5.550   4.848 -0.6179 -0.0856  0.1091
 1172TIP3    H1 3522   3.194   5.508   4.868 -0.4595 -0.6361 -0.3906
 1172TIP3    H2 3523   3.254   5.627   4.795 -0.7579 -0.6433 -0.6500
 1173TIP3   OH2 3524   0.840   3.215   5.100  0.3736  0.4466 -0.2976
 1173TIP3    H1 3525   0.811   3.124   5.092  1.0285  0.0561  1.5753
 1173TIP3    H2 3526   0.791   3.250   5.174  0.9704  1.2850 -0.2887
 1174TIP3   OH2 3527   1.817   5.062   0.426  0.0225  0.0233 -0.4516
 1174TIP3    H1 3528   1.831   5.134   0.489 -1.5305 -0.2004  0.1554
 1174TIP3    H2 3529   1.802   5.106   0.343  0.7315  0.3520 -0.4171
 1175TIP3   OH2 3530   1.511   5.110   2.578  0.0513  0.1563  0.4395
 1175TIP3    H1 3531   1.464   5.082   2.657 -0.1134 -0.5189  0.1088
 1175TIP3    H2 3532   1.446   5.159   2.528 -0.9586 -2.5295 -0.9938
 1176TIP3   OH2 3533   3.595   5.758   3.200  0.2784 -0.2563 -0.0571
 1176TIP3    H1 3534   3.640   5.787   3.121  0.2804  1.5000  0.5722
 1176TIP3    H2 3535   3.652   5.689   3.236  1.0872  0.0630 -0.7120
 1177TIP3   OH2 3536   4.669   1.166   5.048  0.0813 -0.0179 -0.4644
 1177TIP3    H1 3537   4.702   1.256   5.051  0.5002 -0.1976  0.8133
 1177TIP3    H2 3538   4.728   1.122   4.987 -0.1242  0.5709 -1.0983
 1178TIP3   OH2 3539   5.455   4.886   1.835  0.5969 -0.3834 -0.2938
 1178TIP3    H1 3540   5.393   4.873   1.763  0.5217 -2.7557  0.1681
 1178TIP3    H2 3541   5.531   4.834   1.811 -0.2614 -2.9898  2.3092
 1179TIP3   OH2 3542   0.955   5.099   1.454 -0.0690 -0.2764 -0.3334
 1179TIP3    H1 3543   0.983   5.188   1.478 -0.9094  0.2028 -1.1246
 1179TIP3    H2 3544   0.990   5.044   1.524  0.0777  0.7317  0.3998
 1180TIP3   OH2 3545   1.902   4.799   0.441  0.1392 -0.0066  0.4730
 1180TIP3    H1 3546   1.888   4.894   0.447  0.6085  0.0770  0.2649
 1180TIP3    H2 3547   1.834   4.769   0.381 -1.0879 -0.0535  1.8491
 1181TIP3   OH2 3548   5.446   0.778   2.386  0.0302 -0.0556 -0.3299
 1181TIP3    H1 3549   5.478   0.751   2.300  1.1817  2.4240 -0.7075
 1181TIP3    H2 3550   5.351   0.773   2.378  0.1651 -2.9537 -0.6854
 1182TIP3   OH2 3551   0.699   3.540   2.056  0.6172  0.3931  0.3500
 1182TIP3    H1 3552   0.755   3.475   2.098 -2.1493 -1.2777  1.6110
 1182TIP3    H2 3553   0.675   3.600   2.127  1.3147  1.4693 -0.3125
 1183TIP3   OH2 3554   1.409   2.933   3.527  0.9111  0.8480  0.1893
 1183TIP3    H1 3555   1.365   2.941   3.611  1.6296  0.7135  0.5906
 1183TIP3    H2 3556   1.492   2.890   3.548  1.5609  1.7776 -0.4358
 1184TIP3   OH2 3557   5.574   0.928   5.218  0.7533 -0.1398  0.8014
 1184TIP3    H1 3558   5.597   1.006   5.167  1.0854 -0.2406  0.7936
 1184TIP3    H2 3559   5.541   0.865   5.154 -0.5513  0.3875  0.9512
 1185TIP3   OH2 3560   2.734   6.093   2.800  0.0055  0.6094  0.3455
 1185TIP3    H1 3561   2.732   6.079   2.895 -0.1021  0.9998  0.4002
 1185TIP3    H2 3562   2.676   6.024   2.765 -1.2832  1.4914  0.6920
 1186TIP3   OH2 3563   2.898   5.871   2.615  0.0443  0.3109 -0.1907
 1186TIP3    H1 3564   2.804   5.879   2.627 -0.0418  2.4013 -2.0035
 1186TIP3    H2 3565   2.911   5.783   2.579 -1.2664  0.2526 -0.5213
 1187TIP3   OH2 3566   4.560   0.251   0.587  0.0540 -0.4197  0.0563
 1187TIP3    H1 3567   4.510   0.328   0.616 -1.6424 -1.5680  0.2212
 1187TIP3    H2 3568   4.649   0.267   0.621 -0.6000  0.8197  1.2701
 1188TIP3   OH2 3569   0.557   4.090   0.943 -0.2690  0.1816 -0.4884
 1188TIP3    H1 3570   0.650   4.092   0.965 -0.3408 -0.4493 -0.1313
 1188TIP3    H2 3571   0.544   4.008   0.896 -0.5556  0.4848 -0.9521
 1189TIP3   OH2 3572   0.377   5.324   2.860 -0.0291 -0.6315  0.1339
 1189TIP3    H1 3573   0.293   5.369   2.854  0.8308  0.9935  0.2210
 1189TIP3    H2 3574   0.406   5.314   2.769  0.7514  0.8497  0.2090
 1190TIP3   OH2 3575   0.940   1.658   4.436 -0.3276 -0.2195  0.6773
 1190TIP3    H1 3576   0.936   1.651   4.531 -1.1853 -0.8478  0.6015
 1190TIP3    H2 3577   1.033   1.667   4.416 -0.0338 -1.3789  1.4848
 1191TIP3   OH2 3578   5.237   5.008   3.546 -0.1687  0.2769 -0.0141
 1191TIP3    H1 3579   5.172   5.042   3.484 -0.6334 -0.3678  0.1037
 1191TIP3    H2 3580   5.236   5.070   3.619 -1.3666 -0.2373  0.4270
 1192TIP3   OH2 3581   0.613   4.875   1.085 -0.0609  0.1678  0.5226
 1192TIP3    H1 3582   0.629   4.955   1.135 -1.5457  0.5336  0.4384
 1192TIP3    H2 3583   0.630   4.899   0.994 -1.0950  0.5624  0.4291
 1193TIP3   OH2 3584   5.744   0.552   0.065 -0.3944  0.0442  0.1533
 1193TIP3    H1 3585   5.661   0.596   0.083 -1.0057 -1.2568  0.5491
 1193TIP3    H2 3586   5.729   0.461   0.088  1.0583 -0.2676 -0.0542
 1194TIP3   OH2 3587   6.328   4.332   1.139 -0.8859  0.0140  0.2357
 1194TIP3    H1 3588   6.249   4.317   1.191  0.2426 -2.0258  1.4366
 1194TIP3    H2 3589   6.386   4.260   1.163  1.7601  2.0461  0.2067
 1195TIP3   OH2 3590   1.037   3.980   0.778  0.8730 -0.2643  0.4748
 1195TIP3    H1 3591   1.071   3.893   0.759 -1.7193 -1.2812  0.3482
 1195TIP3    H2 3592   0.972   3.966   0.847 -0.8457  1.3231 -0.7813
 1196TIP3   OH2 3593   3.741   1.742   1.387  0.3596 -0.0985  0.3282
 1196TIP3    H1 3594   3.734   1.677   1.457  0.2865  0.7760  1.1342
 1196TIP3    H2 3595   3.654   1.742   1.346  0.3874 -0.5672  0.2585
 1197TIP3   OH2 3596   4.752   1.836   1.738 -0.1177  0.3976  0.1576
 1197TIP3    H1 3597   4.722   1.884   1.661 -2.0220 -2.6159 -1.0586
 1197TIP3    H2 3598   4.845   1.822   1.722 -0.6756 -1.0413 -2.1533
 1198TIP3   OH2 3599   0.482   5.516   0.999  0.2021 -0.0072  0.3185
 1198TIP3    H1 3600   0.565   5.503   1.044  1.6803  1.0646 -1.9940
 1198TIP3    H2 3601   0.456   5.606   1.022  0.5022  0.2249 -0.2476
 1199TIP3   OH2 3602   2.260   5.923   1.910 -0.0726 -0.0687 -1.0459
 1199TIP3    H1 3603   2.274   5.949   2.002 -0.9696 -0.8806 -0.6683
 1199TIP3    H2 3604   2.231   6.003   1.867  0.6999  0.4029 -0.6974
 1200TIP3   OH2 3605   2.113   4.246   1.382 -0.0781 -0.0081  0.6109
 1200TIP3    H1 3606   2.123   4.206   1.296  0.6361 -0.1415  0.7467
 1200TIP3    H2 3607   2.035   4.301   1.375 -0.1873 -0.2430 -0.0317
 1201TIP3   OH2 3608   1.263   5.850   1.588 -0.2708 -0.1070  0.1878
 1201TIP3    H1 3609   1.210   5.893   1.654  1.0763  0.3969  0.9761
 1201TIP3    H2 3610   1.337   5.910   1.574 -0.5139 -0.2256 -1.7354
 1202TIP3   OH2 3611   0.260   0.946   2.172  0.4526  0.0980 -0.4100
 1202TIP3    H1 3612   0.170   0.966   2.197  0.5664  1.8295 -1.3306
 1202TIP3    H2 3613   0.252   0.910   2.083  0.3425 -3.2312  0.8597
 1203TIP3   OH2 3614   0.654   1.266   5.268 -0.1700 -0.1344  0.5863
 1203TIP3    H1 3615   0.606   1.349   5.268 -1.0666 -0.6480 -0.2384
 1203TIP3    H2 3616   0.745   1.291   5.251 -0.0793  0.8698  2.4013
 1204TIP3   OH2 3617   1.036   3.772   2.300  0.4303 -0.0509 -0.4182
 1204TIP3    H1 3618   0.941   3.781   2.304  0.6155  1.8052  0.3868
 1204TIP3    H2 3619   1.061   3.812   2.217  0.4489 -1.3392 -1.0527
 1205TIP3   OH2 3620   1.428   3.600   0.532 -0.5727  0.7080  0.2527
 1205TIP3    H1 3621   1.381   3.520   0.555  1.0238 -0.3410 -0.0481
 1205TIP3    H2 3622   1.450   3.640   0.616  1.0068 -0.5975  0.4814
 1206TIP3   OH2 3623   0.067   3.471   2.493 -0.2565  0.2386  0.0621
 1206TIP3    H1 3624   0.138   3.502   2.437  0.9761 -0.4703  1.2029
 1206TIP3    H2 3625   0.069   3.530   2.569 -0.0501 -0.5720  0.6904
 1207TIP3   OH2 3626   4.189   2.309   4.414 -0.1417 -0.3630 -0.3534
 1207TIP3    H1 3627   4.190   2.302   4.510  2.8267  0.1185 -0.2868
 1207TIP3    H2 3628   4.229   2.227   4.384 -0.0291 -0.0285 -1.1373
 1208TIP3   OH2 3629   3.346   4.957   0.554 -0.0690  0.0397 -0.4097
 1208TIP3    H1 3630   3.349   4.862   0.571 -0.6034  0.0090 -0.4862
 1208TIP3    H2 3631   3.402   4.969   0.477  0.6434 -0.1062  0.0805
 1209TIP3   OH2 3632   2.715   5.960   1.356 -0.6198  0.1435 -0.1285
 1209TIP3    H1 3633   2.735   5.882   1.305 -1.0843  0.1147 -0.2757
 1209TIP3    H2 3634   2.716   5.931   1.447 -1.1223 -0.1087 -0.2030
 1210TIP3   OH2 3635   6.063   1.508   0.130  0.1212  0.1779 -0.2304
 1210TIP3    H1 3636   5.996   1.562   0.088  2.3697  2.2509 -1.2504
 1210TIP3    H2 3637   6.054   1.422   0.088 -0.5237  1.0091 -1.8463
 1211TIP3   OH2 3638   2.776   0.050   1.824 -0.0637 -0.3087 -0.0649
 1211TIP3    H1 3639   2.751   0.038   1.732 -0.2351 -1.3916  0.1124
 1211TIP3    H2 3640   2.693   0.069   1.869  0.2410  1.9801 -0.3882
 1212TIP3   OH2 3641   6.435   5.121   0.529 -0.1575  0.0861 -0.3791
 1212TIP3    H1 3642   6.437   5.166   0.445  0.8043 -0.4371 -0.6376
 1212TIP3    H2 3643   6.509   5.061   0.526  0.5129  0.8130  1.2695
 1213TIP3   OH2 3644   0.278   0.632   2.221 -0.0467  0.4676  0.1551
 1213TIP3    H1 3645   0.224   0.637   2.300  0.3743  0.7088  0.4321
 1213TIP3    H2 3646   0.364   0.663   2.249  0.4578 -0.6778 -0.0857
 1214TIP3   OH2 3647   2.469   6.122   1.408  0.0124  0.2676  0.4356
 1214TIP3    H1 3648   2.547   6.068   1.396  0.7174  1.3581 -0.0925
 1214TIP3    H2 3649   2.413   6.101   1.334 -0.4865 -0.9861  1.1583
 1215TIP3   OH2 3650   1.547   2.964   2.118  0.4732  0.4008  0.5497
 1215TIP3    H1 3651   1.504   3.003   2.194  1.3553 -0.4016  1.4776
 1215TIP3    H2 3652   1.535   2.870   2.130  1.7926  0.2070  0.4079
 1216TIP3   OH2 3653   2.459   5.838   5.057 -0.6902 -0.4391  0.5007
 1216TIP3    H1 3654   2.491   5.926   5.038 -0.5328 -0.5120  0.4278
 1216TIP3    H2 3655   2.393   5.821   4.990  0.0963 -0.8210 -0.1874
 1217TIP3   OH2 3656   3.345   4.616   0.495  0.7133  0.2892  0.0040
 1217TIP3    H1 3657   3.352   4.621   0.400 -1.4144  0.9471 -0.1678
 1217TIP3    H2 3658   3.423   4.570   0.524  1.6004  0.4937 -2.0279
 1218TIP3   OH2 3659   0.359   3.717   1.568  0.1032 -0.2199 -0.2605
 1218TIP3    H1 3660   0.295   3.760   1.625 -1.3296 -0.1371 -1.8917
 1218TIP3    H2 3661   0.406   3.789   1.526  0.0239 -0.2635 -0.4258
 1219TIP3   OH2 3662   2.589   5.196   2.260  0.4721  0.2754 -0.1565
 1219TIP3    H1 3663   2.612   5.206   2.352  0.3888  0.9856 -0.2105
 1219TIP3    H2 3664   2.672   5.180   2.215  0.6877  1.3863 -0.1568
 1220TIP3   OH2 3665   3.831   4.377   0.537 -0.9706  0.2028 -0.5410
 1220TIP3    H1 3666   3.917   4.412   0.514 -0.1027  0.2673  2.5890
 1220TIP3    H2 3667   3.850   4.297   0.586 -2.8059 -1.6351 -2.7276
 1221TIP3   OH2 3668   1.029   2.928   1.506  0.8613  0.1802  0.3506
 1221TIP3    H1 3669   0.939   2.904   1.527  0.7594  0.0324 -0.2396
 1221TIP3    H2 3670   1.063   2.966   1.587  0.2385  0.3208  0.5539
 1222TIP3   OH2 3671   5.735   1.199   4.264 -1.0018 -0.4252 -0.0380
 1222TIP3    H1 3672   5.640   1.192   4.274 -1.1453  0.0670 -0.9730
 1222TIP3    H2 3673   5.747   1.223   4.173  0.0029 -0.0114  0.2001
 1223TIP3   OH2 3674   2.570   5.527   4.695  0.0101 -0.2304  0.0841
 1223TIP3    H1 3675   2.628   5.537   4.770 -0.2675  1.7607  0.0513
 1223TIP3    H2 3676   2.485   5.508   4.733  0.1225 -0.4444  0.2291
 1224TIP3   OH2 3677   6.173   2.986   4.445  0.0600 -0.3660  0.1701
 1224TIP3    H1 3678   6.265   2.997   4.421 -0.0077 -0.2835 -0.0562
 1224TIP3    H2 3679   6.131   3.066   4.413  0.0704  0.0105  1.0852
 1225TIP3   OH2 3680   1.757   4.482   0.067  0.3769 -0.4642 -0.5160
 1225TIP3    H1 3681   1.836   4.467   0.016  0.4818 -0.9998 -0.2016
 1225TIP3    H2 3682   1.687   4.441   0.016  0.4160 -0.6192 -0.4474
 1226TIP3   OH2 3683   2.585   5.938   0.687  0.1952  0.7404 -0.1056
 1226TIP3    H1 3684   2.616   5.943   0.778 -0.8825  2.4164  0.1948
 1226TIP3    H2 3685   2.664   5.949   0.634  0.9578 -1.1449  0.6144
 1227TIP3   OH2 3686   4.475   3.195   3.075 -0.2341  0.1942 -0.0864
 1227TIP3    H1 3687   4.531   3.258   3.030 -0.3081  2.3619  2.7578
 1227TIP3    H2 3688   4.535   3.139   3.124 -0.3139 -0.3932 -0.6500
 1228TIP3   OH2 3689   4.427   4.175   1.811 -0.1144 -0.2761 -0.0846
 1228TIP3    H1 3690   4.486   4.223   1.870 -0.6779  0.3466 -0.0257
 1228TIP3    H2 3691   4.451   4.083   1.824 -0.1756 -0.1438  1.0665
 1229TIP3   OH2 3692   3.936   0.786   1.715  0.3500  0.2831  0.5386
 1229TIP3    H1 3693   3.898   0.702   1.692  0.9286  0.3923 -0.8920
 1229TIP3    H2 3694   4.020   0.764   1.755  0.7261  0.1906 -0.2934
 1230TIP3   OH2 3695   2.667   5.452   0.101 -0.0532  0.6097 -0.1074
 1230TIP3    H1 3696   2.648   5.409   0.184  0.9668  0.4110  0.0249
 1230TIP3    H2 3697   2.751   5.496   0.115  0.5555 -0.1399 -1.3014
 1231TIP3   OH2 3698   6.496   0.513   5.254  0.2019 -0.6348 -0.3787
 1231TIP3    H1 3699   6.538   0.595   5.279 -0.0567 -1.0483  1.4293
 1231TIP3    H2 3700   6.427   0.539   5.193  1.7796  0.2336 -1.8476
 1232TIP3   OH2 3701   4.497   3.472   2.338  0.8551 -0.8492 -0.1182
 1232TIP3    H1 3702   4.441   3.395   2.332  0.0751 -0.4342  1.6483
 1232TIP3    H2 3703   4.437   3.544   2.358  1.7644 -0.0463 -0.2395
 1233TIP3   OH2 3704   3.760   4.787   1.435  0.1185 -0.0713  0.6016
 1233TIP3    H1 3705   3.819   4.808   1.508 -1.0557  3.2093  0.6736
 1233TIP3    H2 3706   3.674   4.814   1.465 -0.8500 -1.3281 -0.9527
 1234TIP3   OH2 3707   1.823   3.876   1.220  0.2590 -0.3221  0.2776
 1234TIP3    H1 3708   1.789   3.813   1.157 -1.2146 -1.4541  2.1472
 1234TIP3    H2 3709   1.747   3.924   1.250  0.7643 -0.5178  1.9543
 1235TIP3   OH2 3710   2.047   5.870   1.699  0.9713 -0.1741 -0.7201
 1235TIP3    H1 3711   2.118   5.923   1.663  1.0823  0.1912  0.0352
 1235TIP3    H2 3712   2.057   5.878   1.794 -1.0436  1.1929 -0.5929
 1236TIP3   OH2 3713  -0.030   1.410   4.481  0.1164 -0.5696 -0.3468
 1236TIP3    H1 3714   0.020   1.467   4.422 -0.6800 -0.6985 -1.1599
 1236TIP3    H2 3715   0.035   1.348   4.515  1.1326  1.2263  1.0831
 1237TIP3   OH2 3716   4.399   6.060   1.699 -1.2551 -0.0400  0.3765
 1237TIP3    H1 3717   4.428   6.029   1.613 -0.9584  0.0438  0.4467
 1237TIP3    H2 3718   4.407   5.983   1.756  1.1779  0.6173  0.9598
 1238TIP3   OH2 3719   5.783   2.822   4.092 -0.1968 -0.0136 -0.3059
 1238TIP3    H1 3720   5.731   2.875   4.152  0.3195 -0.4825  0.5660
 1238TIP3    H2 3721   5.719   2.766   4.048 -0.5272  0.0379  0.1091
 1239TIP3   OH2 3722   1.612   3.927   3.312  0.7716 -0.0822  0.2551
 1239TIP3    H1 3723   1.572   3.943   3.226  0.8407 -0.9175  0.0623
 1239TIP3    H2 3724   1.694   3.976   3.309  2.8378 -3.4240 -1.7877
 1240TIP3   OH2 3725   2.877   4.748   2.449 -0.2744  0.3613 -0.4055
 1240TIP3    H1 3726   2.781   4.752   2.449 -0.2396  1.3886 -1.8798
 1240TIP3    H2 3727   2.906   4.838   2.460  0.5248  0.1076 -0.3715
 1241TIP3   OH2 3728   0.725   0.252   1.301 -0.0211 -0.0391 -0.3838
 1241TIP3    H1 3729   0.748   0.168   1.262  0.6416  0.3858 -0.9084
 1241TIP3    H2 3730   0.737   0.315   1.231  0.3240  0.6151  0.2603
 1242TIP3   OH2 3731   3.175   2.982   0.637 -0.1923 -0.1562 -0.3464
 1242TIP3    H1 3732   3.174   3.071   0.672  1.7875 -0.6408  1.0239
 1242TIP3    H2 3733   3.099   2.939   0.677  0.1883  0.2475  0.8350
 1243TIP3   OH2 3734   3.866   2.549   5.288 -0.4156  0.0379 -0.1262
 1243TIP3    H1 3735   3.870   2.632   5.241  0.3576 -0.9708 -1.9175
 1243TIP3    H2 3736   3.832   2.571   5.374  0.4086  2.2957 -0.3590
 1244TIP3   OH2 3737   6.452   0.189   1.639 -0.0648 -0.4689 -0.6957
 1244TIP3    H1 3738   6.432   0.165   1.549  1.2094 -0.7711 -0.9116
 1244TIP3    H2 3739   6.508   0.118   1.671 -0.4689 -0.3480  0.3214
 1245TIP3   OH2 3740   2.254   1.613   3.575 -0.0602 -0.3855  0.1918
 1245TIP3    H1 3741   2.174   1.562   3.582 -0.2187 -0.1154  0.3372
 1245TIP3    H2 3742   2.324   1.548   3.574 -0.1653 -0.5321  1.8929
 1246TIP3   OH2 3743   4.502   4.870   0.338  0.0536  0.0120  0.2135
 1246TIP3    H1 3744   4.495   4.821   0.256 -0.1275  2.9559 -1.5861
 1246TIP3    H2 3745   4.419   4.917   0.344  0.2897  0.2304  1.8267
 1247TIP3   OH2 3746   5.313   5.793   5.265 -0.5755  0.0285  0.1420
 1247TIP3    H1 3747   5.406   5.805   5.247 -0.8133  0.5145 -0.7473
 1247TIP3    H2 3748   5.283   5.732   5.198 -0.8340 -0.3936  0.6328
 1248TIP3   OH2 3749   2.562   1.437   2.439 -0.3762  0.1064 -0.2864
 1248TIP3    H1 3750   2.507   1.460   2.514 -1.3603 -0.5281 -0.8038
 1248TIP3    H2 3751   2.651   1.453   2.469 -0.7442 -0.3690  1.1120
 1249TIP3   OH2 3752   1.604   5.652   0.895  0.1179 -0.1209  0.1226
 1249TIP3    H1 3753   1.566   5.600   0.966  0.3004 -1.3337 -0.6477
 1249TIP3    H2 3754   1.652   5.722   0.939 -0.5599 -0.3094  1.1682
 1250TIP3   OH2 3755   5.869   5.576   1.973 -0.2590 -0.3787 -0.0977
 1250TIP3    H1 3756   5.921   5.579   1.893  1.3589 -0.6344  0.9118
 1250TIP3    H2 3757   5.780   5.557   1.944 -0.0583  1.3736 -1.9830
 1251TIP3   OH2 3758   1.938   4.909   2.384 -0.4192  0.2212  0.2503
 1251TIP3    H1 3759   1.883   4.960   2.324  0.8356  0.8794 -0.3429
 1251TIP3    H2 3760   1.876   4.871   2.446 -1.5423  1.0472 -0.3501
 1252TIP3   OH2 3761   5.465   0.091   2.538 -0.3913 -0.5160 -0.2848
 1252TIP3    H1 3762   5.539   0.034   2.561  0.2671 -0.5323 -2.3646
 1252TIP3    H2 3763   5.389   0.032   2.534  0.0579 -1.0544 -1.1681
 1253TIP3   OH2 3764   2.163   2.306   5.251 -0.3743 -0.4082  0.0155
 1253TIP3    H1 3765   2.097   2.250   5.210  1.3341 -1.3501 -1.5024
 1253TIP3    H2 3766   2.237   2.248   5.267  1.0154  1.1853 -0.5614
 1254TIP3   OH2 3767   3.258   5.627   1.313 -0.1063 -0.5073  0.2970
 1254TIP3    H1 3768   3.245   5.721   1.325  1.9596  0.1377 -2.0889
 1254TIP3    H2 3769   3.346   5.619   1.277 -0.9680 -3.2096 -1.4226
 1255TIP3   OH2 3770   2.072   2.083   3.300  0.3153 -0.6414 -0.1688
 1255TIP3    H1 3771   2.157   2.113   3.269  1.2325 -1.2314  1.7541
 1255TIP3    H2 3772   2.070   1.989   3.282  0.8605 -0.9916  1.5394
 1256TIP3   OH2 3773   2.682   3.351   1.292 -0.8225  0.0999  0.1758
 1256TIP3    H1 3774   2.764   3.330   1.248 -1.8439 -0.5766 -1.4406
 1256TIP3    H2 3775   2.709   3.386   1.377  1.1986  1.6612 -1.0530
 1257TIP3   OH2 3776   4.230   4.823   1.631  0.2363  0.6699  0.0116
 1257TIP3    H1 3777   4.239   4.911   1.669 -0.9371  1.4270 -1.3976
 1257TIP3    H2 3778   4.188   4.838   1.546  2.3655 -1.0159 -1.4161
 1258TIP3   OH2 3779   2.301   4.931   2.774 -0.4195  0.2049  0.1118
 1258TIP3    H1 3780   2.284   4.844   2.809 -1.6292  0.2465 -0.3400
 1258TIP3    H2 3781   2.283   4.923   2.680  0.4078  0.7039 -0.0955
 1259TIP3   OH2 3782   4.020   4.262   1.419 -0.0972  0.2170  0.1163
 1259TIP3    H1 3783   3.956   4.241   1.487 -1.5849  0.6172 -1.1152
 1259TIP3    H2 3784   4.103   4.227   1.452 -0.5389  1.3757  2.6273
 1260TIP3   OH2 3785   1.137   1.330   1.464  0.1247 -0.0044  0.5846
 1260TIP3    H1 3786   1.133   1.419   1.498 -1.5281 -0.2564  1.0654
 1260TIP3    H2 3787   1.053   1.291   1.486 -1.5826  0.1833 -4.7854
 1261TIP3   OH2 3788   1.087   1.012   4.747  0.1573 -0.3030  0.1794
 1261TIP3    H1 3789   1.116   0.921   4.749 -0.7717 -0.6130 -0.1458
 1261TIP3    H2 3790   1.081   1.037   4.839 -1.0398 -1.0542  0.3228
 1262TIP3   OH2 3791   5.697   2.079   0.923  0.4979  0.0889 -0.2953
 1262TIP3    H1 3792   5.645   2.136   0.980  0.2741 -1.6431  1.2656
 1262TIP3    H2 3793   5.656   2.089   0.836 -0.3477  1.2842  0.2191
 1263TIP3   OH2 3794   0.624   4.464   1.520 -0.3642  0.2370  0.2626
 1263TIP3    H1 3795   0.566   4.446   1.446  0.5758  3.2984 -1.3504
 1263TIP3    H2 3796   0.566   4.498   1.588 -1.0255 -1.0367  0.3532
 1264TIP3   OH2 3797   3.642   0.944   2.772  0.1706  0.2520  0.2726
 1264TIP3    H1 3798   3.663   0.935   2.679 -1.0906 -0.3374  0.0351
 1264TIP3    H2 3799   3.687   0.870   2.813 -0.8372 -0.6158 -0.1460
 1265TIP3   OH2 3800   1.853   4.431   2.121  0.5736 -0.5688 -0.1575
 1265TIP3    H1 3801   1.892   4.494   2.060  0.6496 -1.2200 -0.7917
 1265TIP3    H2 3802   1.841   4.351   2.069 -0.0650 -0.8970  0.4798
 1266TIP3   OH2 3803   2.113   2.769   4.600  0.7223  0.4045  0.4925
 1266TIP3    H1 3804   2.099   2.861   4.577  0.0671  0.2312  0.1763
 1266TIP3    H2 3805   2.075   2.759   4.688 -0.1041  0.2126  0.1223
 1267TIP3   OH2 3806   3.200   2.871   0.367 -0.5602 -0.1408 -0.5368
 1267TIP3    H1 3807   3.281   2.827   0.395  0.7228  2.0250 -0.7160
 1267TIP3    H2 3808   3.162   2.905   0.448  0.1403  1.1586 -0.7380
 1268TIP3   OH2 3809   3.266   0.903   4.599 -0.0677  0.2338 -0.4808
 1268TIP3    H1 3810   3.361   0.909   4.584 -0.4045 -0.8766 -3.5241
 1268TIP3    H2 3811   3.252   0.812   4.626 -0.2335  0.4917  0.3077
 1269TIP3   OH2 3812   6.092   5.629   3.136  0.0598 -0.5218 -0.2438
 1269TIP3    H1 3813   6.151   5.642   3.062  0.0788 -0.9880 -0.3085
 1269TIP3    H2 3814   6.085   5.716   3.176  1.2033 -0.5690  0.0728
 1270TIP3   OH2 3815   4.379   5.358   3.929 -0.0993  0.1596 -0.1828
 1270TIP3    H1 3816   4.328   5.423   3.977 -1.4427 -1.6240  0.9067
 1270TIP3    H2 3817   4.469   5.391   3.931 -0.8419  2.2439 -0.1579
 1271TIP3   OH2 3818   1.096   1.512   5.061 -0.5042 -0.0705 -0.2442
 1271TIP3    H1 3819   1.092   1.442   4.997  0.7523  0.9398 -1.4751
 1271TIP3    H2 3820   1.078   1.592   5.011 -1.2802  0.5566  1.0054
 1272TIP3   OH2 3821   4.024   0.358   3.508 -0.3170 -0.0680 -0.3471
 1272TIP3    H1 3822   4.108   0.393   3.479 -0.3334 -0.8779 -1.3702
 1272TIP3    H2 3823   3.959   0.405   3.456 -0.4020 -0.6852 -0.8099
 1273TIP3   OH2 3824   3.612   1.075   4.359  0.1100  0.3400 -0.2386
 1273TIP3    H1 3825   3.673   1.063   4.431  0.3147 -0.4049 -0.5325
 1273TIP3    H2 3826   3.546   1.006   4.372  0.3944 -0.0878 -1.0121
 1274TIP3   OH2 3827   6.199   2.546   0.095  0.1928 -0.3939  0.4994
 1274TIP3    H1 3828   6.237   2.480   0.038 -3.0514 -0.5954 -1.6177
 1274TIP3    H2 3829   6.108   2.518   0.107 -0.3564  1.9402  2.2248
 1275TIP3   OH2 3830   5.134   5.930   2.408  0.2823 -0.4371  0.5220
 1275TIP3    H1 3831   5.180   5.860   2.455  1.5243  0.2596  0.3740
 1275TIP3    H2 3832   5.091   5.981   2.477 -0.0230 -0.9164  0.6876
 1276TIP3   OH2 3833   3.383   4.991   4.567 -0.2527  0.0049 -0.1283
 1276TIP3    H1 3834   3.391   5.086   4.574  0.5012 -0.0050 -0.8323
 1276TIP3    H2 3835   3.445   4.967   4.499 -0.4470 -0.9947  0.0487
 1277TIP3   OH2 3836   5.724   3.900   4.430 -0.4062  0.1427 -0.5436
 1277TIP3    H1 3837   5.765   3.927   4.348 -0.1706 -0.1311 -0.5164
 1277TIP3    H2 3838   5.643   3.951   4.434  0.1027  0.9450 -0.4226
 1278TIP3   OH2 3839   2.285   1.210   2.881  0.0347 -0.3543 -0.0858
 1278TIP3    H1 3840   2.311   1.123   2.910 -0.9652 -0.3817  0.7355
 1278TIP3    H2 3841   2.358   1.267   2.907  0.6887 -0.9368 -0.6236
 1279TIP3   OH2 3842   3.000   2.282   2.253 -0.1766  0.2772  1.3061
 1279TIP3    H1 3843   2.961   2.195   2.242 -1.2829  0.7698  1.2769
 1279TIP3    H2 3844   2.936   2.331   2.305 -0.8322  1.9023 -0.9397
 1280TIP3   OH2 3845   5.501   3.018   0.361 -0.1700  0.2442  0.1457
 1280TIP3    H1 3846   5.467   2.932   0.335  1.9640 -0.6812  0.2739
 1280TIP3    H2 3847   5.435   3.080   0.332 -1.6682 -1.4326 -0.1254
 1281TIP3   OH2 3848   0.649   6.008   3.832  0.0679  0.8162  0.0456
 1281TIP3    H1 3849   0.629   6.025   3.924 -0.3921 -1.0215  0.3219
 1281TIP3    H2 3850   0.690   5.921   3.832 -1.6723 -0.0686 -1.6601
 1282TIP3   OH2 3851   0.520   1.639   3.799  0.0010  0.1696  0.2973
 1282TIP3    H1 3852   0.515   1.693   3.721  2.1055 -2.0464 -1.4329
 1282TIP3    H2 3853   0.593   1.675   3.849  0.9096 -0.5445 -0.4876
 1283TIP3   OH2 3854   2.541   1.483   5.168  0.0976 -0.0024  0.2250
 1283TIP3    H1 3855   2.570   1.547   5.103 -0.3671  0.1019  0.1176
 1283TIP3    H2 3856   2.572   1.517   5.252  1.3868 -0.5301 -0.0086
 1284TIP3   OH2 3857   0.717   5.580   1.109  0.1628 -0.1586  0.0653
 1284TIP3    H1 3858   0.812   5.589   1.117  0.1176 -0.0959  0.5780
 1284TIP3    H2 3859   0.691   5.651   1.051  0.6673 -1.4122 -1.7333
 1285TIP3   OH2 3860   5.364   3.513   0.208 -0.0970  0.3547 -0.0164
 1285TIP3    H1 3861   5.419   3.542   0.135  0.0532 -0.7337 -0.3402
 1285TIP3    H2 3862   5.285   3.567   0.201  0.0699  0.5058 -0.7699
 1286TIP3   OH2 3863   6.142   1.069   3.496 -1.0438  0.5000 -0.1856
 1286TIP3    H1 3864   6.136   0.993   3.438  1.1507 -0.0730  0.2820
 1286TIP3    H2 3865   6.234   1.072   3.522 -1.6030  1.8600  1.7749
 1287TIP3   OH2 3866   5.304   5.513   4.251  0.1194  0.3836 -0.3026
 1287TIP3    H1 3867   5.257   5.432   4.231  1.8825 -0.3998 -1.4047
 1287TIP3    H2 3868   5.362   5.526   4.175 -0.3311  2.8100 -0.2589
 1288TIP3   OH2 3869   6.064   0.286   3.628  0.2169  0.0929 -0.0128
 1288TIP3    H1 3870   6.110   0.333   3.558 -1.4500  0.7052 -0.7294
 1288TIP3    H2 3871   6.031   0.207   3.586 -0.9953  0.5791 -0.0007
 1289TIP3   OH2 3872   1.993   0.199   3.006 -0.2163  0.2138 -0.6428
 1289TIP3    H1 3873   2.051   0.153   2.946  0.3495 -0.0556  0.0939
 1289TIP3    H2 3874   1.966   0.278   2.959  0.2607  0.0346 -1.2197
 1290TIP3   OH2 3875   1.335   1.111   1.425  0.4596  0.1976  0.0385
 1290TIP3    H1 3876   1.275   1.176   1.389 -0.6414 -2.3046 -2.8158
 1290TIP3    H2 3877   1.422   1.143   1.401  0.0974  1.9827  1.0298
 1291TIP3   OH2 3878   3.227   5.253   1.020 -0.3238 -0.4295 -0.2429
 1291TIP3    H1 3879   3.145   5.298   1.002  1.0526  2.1621 -0.1514
 1291TIP3    H2 3880   3.270   5.306   1.087  0.2232 -3.2403  1.7173
 1292TIP3   OH2 3881   2.838   1.066   1.986  0.1226 -0.1377  0.6996
 1292TIP3    H1 3882   2.871   1.043   1.900 -0.5066  1.7847 -0.0868
 1292TIP3    H2 3883   2.758   1.116   1.969 -1.5354 -2.0994  2.4871
 1293TIP3   OH2 3884   2.602   4.720   0.735  0.0597 -0.0163 -0.3420
 1293TIP3    H1 3885   2.633   4.632   0.711 -0.6323 -0.1436 -0.8229
 1293TIP3    H2 3886   2.516   4.704   0.774 -0.3136  0.4940 -0.9498
 1294TIP3   OH2 3887   6.159   6.041   4.584  0.4437 -0.2462 -0.1670
 1294TIP3    H1 3888   6.172   5.946   4.586  1.2553 -0.1627 -0.9926
 1294TIP3    H2 3889   6.247   6.077   4.570  0.0781  0.6014 -0.3052
 1295TIP3   OH2 3890   6.396   1.800   4.562 -0.0323  0.3439  0.1503
 1295TIP3    H1 3891   6.463   1.790   4.494 -0.6289  0.4064 -0.4467
 1295TIP3    H2 3892   6.444   1.835   4.637  0.9830 -1.4112  0.3525
 1296TIP3   OH2 3893   4.952   2.144   0.663  0.2565  0.5422 -0.3990
 1296TIP3    H1 3894   4.877   2.096   0.628  0.9532 -0.9918  0.1837
 1296TIP3    H2 3895   4.914   2.207   0.725 -0.5072 -0.5233  0.2204
 1297TIP3   OH2 3896   3.079   1.871   2.873  0.2758  0.5540  0.2763
 1297TIP3    H1 3897   3.052   1.930   2.802 -2.6134 -0.7950  0.1751
 1297TIP3    H2 3898   3.011   1.882   2.939  0.8674 -1.1091  1.1674
 1298TIP3   OH2 3899   0.380   0.561   3.819  0.2268  0.2053 -0.2368
 1298TIP3    H1 3900   0.311   0.541   3.755  1.7998 -0.4072 -1.7604
 1298TIP3    H2 3901   0.335   0.556   3.904 -1.6272 -0.1140 -1.2090
 1299TIP3   OH2 3902   6.447   5.978   4.559 -0.1376 -0.0720  0.1020
 1299TIP3    H1 3903   6.444   5.916   4.486 -0.4798  0.3999 -0.2937
 1299TIP3    H2 3904   6.519   5.947   4.614 -0.8946 -1.3311  0.3877
 1300TIP3   OH2 3905   1.140   5.748   5.219  0.3407 -0.2906 -0.0706
 1300TIP3    H1 3906   1.099   5.833   5.234  0.4226 -0.3029  0.2238
 1300TIP3    H2 3907   1.111   5.694   5.292 -0.5448 -0.8232 -0.8142
 1301TIP3   OH2 3908   5.558   3.483   0.434 -0.4144 -0.1215 -0.3636
 1301TIP3    H1 3909   5.628   3.419   0.419  1.4769  2.2170 -1.7764
 1301TIP3    H2 3910   5.490   3.459   0.371 -0.1776 -1.3869 -0.1458
 1302TIP3   OH2 3911   3.664   3.424   0.388  0.0104 -0.4217 -0.1362
 1302TIP3    H1 3912   3.756   3.400   0.378  0.2227 -0.1730  1.1278
 1302TIP3    H2 3913   3.651   3.431   0.483 -1.7652 -2.1995 -0.1957
 1303TIP3   OH2 3914   1.084   3.319   5.109 -0.1710  0.1332 -0.3057
 1303TIP3    H1 3915   0.995   3.292   5.088 -0.1191  0.8308 -1.5126
 1303TIP3    H2 3916   1.075   3.409   5.140  0.2290  0.6748 -1.6932
 1304TIP3   OH2 3917   2.292   1.408   5.207 -0.1382  0.7486  0.0571
 1304TIP3    H1 3918   2.247   1.469   5.149 -0.6348  1.3356  1.0512
 1304TIP3    H2 3919   2.384   1.433   5.201 -0.2287  1.0170 -0.2346
 1305TIP3   OH2 3920   3.312   2.107   0.230  0.0239 -0.1861 -0.2940
 1305TIP3    H1 3921   3.226   2.067   0.215 -0.5421  0.1282  1.8749
 1305TIP3    H2 3922   3.352   2.051   0.297  0.3320  1.3013  0.7892
 1306TIP3   OH2 3923   1.478   2.975   4.380  0.0275  0.4670 -0.1923
 1306TIP3    H1 3924   1.439   2.959   4.294 -2.9557 -2.0927  1.5029
 1306TIP3    H2 3925   1.525   2.894   4.400  0.3411  0.8805  0.7616
 1307TIP3   OH2 3926   1.405   0.475   2.631 -0.1344 -0.6219  0.4330
 1307TIP3    H1 3927   1.353   0.551   2.607  1.2356  0.1329 -0.2159
 1307TIP3    H2 3928   1.380   0.408   2.567 -0.8596 -0.5086  0.5965
 1308TIP3   OH2 3929   4.895   2.553   0.503 -0.5556 -0.0631  0.1594
 1308TIP3    H1 3930   4.968   2.521   0.558  0.7782  0.3191 -1.3484
 1308TIP3    H2 3931   4.897   2.648   0.515  0.9043  0.2101 -1.8885
 1309TIP3   OH2 3932   4.704   1.734   0.090  0.0155  0.0654  0.2418
 1309TIP3    H1 3933   4.683   1.810   0.036  2.1165 -0.0834 -0.8490
 1309TIP3    H2 3934   4.645   1.665   0.059 -1.1882  0.9643  0.5390
 1310TIP3   OH2 3935   5.219   4.166   3.718  0.2630 -0.0390 -0.0759
 1310TIP3    H1 3936   5.296   4.136   3.669  0.6588 -0.3733  0.7374
 1310TIP3    H2 3937   5.195   4.249   3.677  0.0804 -0.7186 -1.3791
 1311TIP3   OH2 3938   1.645   0.350   3.968  0.0845  0.3567 -0.0752
 1311TIP3    H1 3939   1.556   0.322   3.952  0.2936 -0.4858  0.2270
 1311TIP3    H2 3940   1.700   0.283   3.928  0.5858 -0.3834  1.8178
 1312TIP3   OH2 3941   0.042   2.350   3.112  0.5245  0.2563 -0.2279
 1312TIP3    H1 3942   0.136   2.361   3.096  0.5900 -1.4219 -1.1258
 1312TIP3    H2 3943   0.036   2.283   3.179 -0.0234  0.8577  0.3318
 1313TIP3   OH2 3944   5.267   5.798   4.316  0.3170  0.1760  0.4388
 1313TIP3    H1 3945   5.277   5.715   4.271 -1.9863  0.2130 -0.2243
 1313TIP3    H2 3946   5.260   5.775   4.409  3.6518 -0.0178  0.6718
 1314TIP3   OH2 3947   4.401   2.787   0.015 -0.3455  0.2525  0.2832
 1314TIP3    H1 3948   4.464   2.745   0.073  2.0915 -0.0498 -2.4513
 1314TIP3    H2 3949   4.368   2.716  -0.040  0.0115  1.0410 -0.9876
 1315TIP3   OH2 3950   1.676   0.366   4.501 -0.1161  0.4316 -0.3635
 1315TIP3    H1 3951   1.758   0.413   4.516 -0.6173  1.3187 -0.3398
 1315TIP3    H2 3952   1.629   0.421   4.437 -1.2547  0.6199  0.6240
 1316TIP3   OH2 3953   2.219   0.421   4.048  0.0440 -0.2157 -0.5464
 1316TIP3    H1 3954   2.129   0.452   4.038  0.1421 -0.5773 -2.8277
 1316TIP3    H2 3955   2.210   0.326   4.062  0.0170 -0.0285  0.7909
 1317TIP3   OH2 3956   5.688   0.874   3.783  0.4623  0.1596  0.3880
 1317TIP3    H1 3957   5.763   0.933   3.768  0.1960  0.9269  2.0040
 1317TIP3    H2 3958   5.616   0.916   3.736  0.7802 -0.0091 -0.2607
 1318TIP3   OH2 3959   1.365   0.169   4.386 -0.1936 -0.7713  0.8379
 1318TIP3    H1 3960   1.401   0.198   4.302 -0.5124 -2.1877  0.1979
 1318TIP3    H2 3961   1.440   0.133   4.434  0.0086  0.1332  1.2240
 1319TIP3   OH2 3962   0.832   1.629   3.641  0.2535 -0.4292  0.5007
 1319TIP3    H1 3963   0.839   1.663   3.552 -0.8233  1.8637  1.2336
 1319TIP3    H2 3964   0.869   1.541   3.637  0.2441 -0.3465 -2.1937
 1320TIP3   OH2 3965   6.182   0.111   4.242 -0.3332 -0.1535  0.6089
 1320TIP3    H1 3966   6.139   0.035   4.280 -1.2427  0.0129 -0.0714
 1320TIP3    H2 3967   6.192   0.173   4.314 -0.2462 -0.6335  1.0031
 1321TIP3   OH2 3968   6.223   5.575   4.881 -0.4387  0.5178 -0.1737
 1321TIP3    H1 3969   6.289   5.508   4.865 -0.4235  0.4632  0.1227
 1321TIP3    H2 3970   6.269   5.658   4.871 -0.4451  0.4827 -0.4875
 1322TIP3   OH2 3971   1.407   5.623   3.834  0.1115  0.1841  0.0053
 1322TIP3    H1 3972   1.340   5.591   3.774 -0.8016 -0.1594  1.2017
 1322TIP3    H2 3973   1.489   5.614   3.785 -0.5425 -0.7145 -0.9398
 1323TIP3   OH2 3974   2.638   0.769   3.854 -0.5862 -0.2368  0.0156
 1323TIP3    H1 3975   2.687   0.691   3.828 -1.0947 -0.7089  0.4599
 1323TIP3    H2 3976   2.705   0.835   3.871 -0.0417 -1.2204  1.7805
 1324TIP3   OH2 3977   1.358   0.704   1.230 -0.4668  0.4667  0.0942
 1324TIP3    H1 3978   1.409   0.774   1.189 -1.3394  1.5120  0.7641
 1324TIP3    H2 3979   1.409   0.625   1.215  0.4437  1.2201 -0.8402
 1325TIP3   OH2 3980   5.100   5.008   3.050 -0.0568 -0.0978 -0.5464
 1325TIP3    H1 3981   5.108   5.014   2.955  2.4191  0.3250 -0.3363
 1325TIP3    H2 3982   5.158   4.935   3.074  0.3752  0.6555  0.7487
 1326TIP3   OH2 3983   5.992   1.236   3.334  0.5537  0.0993 -0.3400
 1326TIP3    H1 3984   6.025   1.164   3.388  0.7219 -1.5207 -2.5483
 1326TIP3    H2 3985   6.070   1.285   3.308  0.5256  0.5398  0.3974
 1327TIP3   OH2 3986   4.209   5.891   3.110  0.2652 -0.0599 -0.1072
 1327TIP3    H1 3987   4.155   5.860   3.183 -0.7063 -0.0571 -0.8034
 1327TIP3    H2 3988   4.164   5.858   3.032  0.0079  1.8669 -0.8047
 1328TIP3   OH2 3989   5.069   6.116   3.445  0.2835 -0.2517 -0.7981
 1328TIP3    H1 3990   5.086   6.122   3.539  1.6315  0.1427 -1.0693
 1328TIP3    H2 3991   5.102   6.030   3.420  0.0320 -0.3091 -0.9344
 1329TIP3   OH2 3992   2.235   0.102   4.522  0.2210  0.2883 -0.2386
 1329TIP3    H1 3993   2.187   0.028   4.558 -0.6708 -0.1692 -2.2810
 1329TIP3    H2 3994   2.168   0.169   4.506  1.0270  1.5902  1.6510
 1330TIP3   OH2 3995   4.122   3.141   0.678  0.0961 -0.0110 -0.4540
 1330TIP3    H1 3996   4.195   3.203   0.684 -0.1104  0.0724  1.7674
 1330TIP3    H2 3997   4.096   3.143   0.586  0.3943  2.8414 -0.5172
 1331TIP3   OH2 3998   5.128   3.727   1.445 -0.0346 -0.2021  0.3700
 1331TIP3    H1 3999   5.078   3.648   1.461  1.0227 -0.6725  1.4607
 1331TIP3    H2 4000   5.189   3.704   1.374  0.4664 -0.4664  0.8792
 1332TIP3   OH2 4001   4.728   5.875   4.798 -0.4563  0.0276 -0.1605
 1332TIP3    H1 4002   4.640   5.912   4.796 -1.6237 -2.7117 -1.0214
 1332TIP3    H2 4003   4.736   5.835   4.884 -0.0829  0.1427 -0.1402
 1333TIP3   OH2 4004   3.631   5.811   2.943 -0.1631  0.0032  0.1612
 1333TIP3    H1 4005   3.545   5.776   2.920  0.2796 -1.5701  0.8154
 1333TIP3    H2 4006   3.692   5.741   2.921  0.9553  1.1107 -0.3098
 1334TIP3   OH2 4007   1.589   2.511   4.243 -0.2244  0.5928 -0.5519
 1334TIP3    H1 4008   1.656   2.576   4.265  1.2534 -1.2898  0.5474
 1334TIP3    H2 4009   1.636   2.443   4.195 -1.4984 -0.3997 -0.4033
 1335TIP3   OH2 4010   4.404   1.175   4.068  0.3425  0.3638 -0.1568
 1335TIP3    H1 4011   4.372   1.265   4.074 -1.4209 -0.3167  1.1096
 1335TIP3    H2 4012   4.456   1.174   3.988 -0.4211  2.2623 -0.7211
 1336TIP3   OH2 4013   0.024   1.378   4.778 -0.3357 -0.1561 -0.1252
 1336TIP3    H1 4014   0.063   1.318   4.841 -0.7628 -0.0312  0.2554
 1336TIP3    H2 4015   0.087   1.381   4.706 -0.2249 -0.9188 -0.0662
 1337TIP3   OH2 4016   4.066   2.582   0.821 -0.0380  0.4672 -0.0008
 1337TIP3    H1 4017   4.092   2.522   0.892 -0.2707 -1.3145 -1.3901
 1337TIP3    H2 4018   3.980   2.551   0.793  0.5396  0.4580 -1.8187
 1338TIP3   OH2 4019   4.506   4.738   0.786 -0.2215  0.1172  0.5310
 1338TIP3    H1 4020   4.588   4.708   0.826  1.2240  1.4232 -1.3374
 1338TIP3    H2 4021   4.530   4.759   0.696 -2.1700  2.4186  0.4969
 1339TIP3   OH2 4022   5.593   1.793   2.969 -0.0713  0.4109 -0.6656
 1339TIP3    H1 4023   5.616   1.751   2.886 -0.1867 -2.0616  0.4904
 1339TIP3    H2 4024   5.548   1.724   3.019  1.1952  1.3942  1.9600
 1340TIP3   OH2 4025   6.200   5.542   2.726 -0.0583  0.0915  0.3810
 1340TIP3    H1 4026   6.135   5.612   2.732 -0.5668 -0.3261 -0.1934
 1340TIP3    H2 4027   6.270   5.579   2.673 -0.4008  0.1076 -0.0587
 1341TIP3   OH2 4028   5.520   2.380   2.755  0.6777 -0.0967 -0.4429
 1341TIP3    H1 4029   5.434   2.385   2.796  1.0007 -0.0727  0.2389
 1341TIP3    H2 4030   5.540   2.470   2.729 -1.1827 -0.6223 -4.1548
 1342TIP3   OH2 4031   5.709   0.095   3.061 -0.1327  0.4625  0.1007
 1342TIP3    H1 4032   5.774   0.063   2.998  0.5103  0.3919  0.7866
 1342TIP3    H2 4033   5.631   0.043   3.043 -0.4342  1.4577 -1.6178
 1343TIP3   OH2 4034   0.758   3.468   2.789  0.1754 -0.2247  0.1956
 1343TIP3    H1 4035   0.800   3.383   2.779 -1.9572 -1.2679 -0.1697
 1343TIP3    H2 4036   0.737   3.495   2.700  2.2088  1.4263  0.1859
 1344TIP3   OH2 4037   2.192   2.926   3.663 -0.0980  0.4550  0.3353
 1344TIP3    H1 4038   2.162   2.840   3.633 -0.6178  0.9565 -0.6241
 1344TIP3    H2 4039   2.245   2.908   3.741 -0.5814 -0.6889  0.4024
 1345TIP3   OH2 4040   3.334   3.204   0.262  0.5265 -0.2069  0.5624
 1345TIP3    H1 4041   3.389   3.154   0.202  0.4215  0.3571 -0.0082
 1345TIP3    H2 4042   3.366   3.294   0.256  0.4848 -0.1384  1.3149
 1346TIP3   OH2 4043   2.078   1.608   1.594  0.4401  0.0182 -0.5394
 1346TIP3    H1 4044   2.026   1.645   1.666  0.4890 -0.0236 -0.4823
 1346TIP3    H2 4045   2.139   1.677   1.571  1.0999 -0.3231  0.1359
 1347TIP3   OH2 4046   3.788   0.313   4.470  0.3307  0.2829  0.8335
 1347TIP3    H1 4047   3.713   0.346   4.420 -0.7996 -0.3118  2.1012
 1347TIP3    H2 4048   3.824   0.243   4.416  0.5767  1.2296 -0.2391
 1348TIP3   OH2 4049   1.446   2.957   1.582 -0.4946 -0.1930  0.3959
 1348TIP3    H1 4050   1.425   2.864   1.596  1.3314 -0.5003  1.2080
 1348TIP3    H2 4051   1.489   2.984   1.663  0.9734  0.7717 -0.6757
 1349TIP3   OH2 4052   0.211   0.578   4.067  0.0584 -0.3410  0.1472
 1349TIP3    H1 4053   0.238   0.509   4.128 -0.5609  1.3164  2.4063
 1349TIP3    H2 4054   0.120   0.595   4.091  0.6887  2.3783  0.8055
 1350TIP3   OH2 4055   0.599   1.170   1.986 -0.3110  0.5791  0.5198
 1350TIP3    H1 4056   0.529   1.236   1.983 -0.8326  0.0922  1.5941
 1350TIP3    H2 4057   0.671   1.215   2.030 -0.1864  0.8620  0.0305
 1351TIP3   OH2 4058   1.533   0.743   3.354 -0.0405 -0.0891  0.1861
 1351TIP3    H1 4059   1.506   0.835   3.353  0.8614  0.1874 -0.0547
 1351TIP3    H2 4060   1.599   0.738   3.423 -0.9703 -0.8353  1.0387
 1352TIP3   OH2 4061   3.623   0.561   1.411  0.4399  0.0189 -0.2612
 1352TIP3    H1 4062   3.713   0.593   1.420  0.9589 -1.6130  0.6001
 1352TIP3    H2 4063   3.569   0.638   1.429  1.6559  0.7590  0.3260
 1353TIP3   OH2 4064   2.179   0.981   3.152 -0.2486  0.2832 -0.1576
 1353TIP3    H1 4065   2.258   0.983   3.097 -0.6602  1.4354 -0.7220
 1353TIP3    H2 4066   2.178   0.893   3.189  0.6846 -0.1182 -1.0580
 1354TIP3   OH2 4067   6.108   4.806   0.758  0.1356  0.4327  0.3120
 1354TIP3    H1 4068   6.157   4.854   0.691  0.8925  0.9674  1.2389
 1354TIP3    H2 4069   6.171   4.744   0.794 -0.5546 -0.5657 -0.1695
 1355TIP3   OH2 4070   0.563   5.716   4.220  0.2414  0.0905  0.1080
 1355TIP3    H1 4071   0.610   5.742   4.141 -0.4259  0.1638 -0.2616
 1355TIP3    H2 4072   0.479   5.682   4.189  1.1310 -2.6444  0.5619
 1356TIP3   OH2 4073   2.906   1.921   3.078  0.3884  0.4813  0.1027
 1356TIP3    H1 4074   2.883   1.887   3.165  0.4845  1.0370  0.3456
 1356TIP3    H2 4075   2.924   2.014   3.092  1.5554  0.3300 -0.3050
 1357TIP3   OH2 4076   6.129   4.084   5.037 -0.2561  0.0747  0.1525
 1357TIP3    H1 4077   6.126   4.170   4.997 -0.5300  0.3376  0.7365
 1357TIP3    H2 4078   6.217   4.077   5.072  0.0858 -0.2796 -0.7579
 1358TIP3   OH2 4079   2.953   1.646   3.974 -0.3474  0.5549 -0.4927
 1358TIP3    H1 4080   2.996   1.699   3.907  0.6428  0.2028 -0.1561
 1358TIP3    H2 4081   2.962   1.698   4.055  1.0307 -0.3172 -0.0727
 1359TIP3   OH2 4082   0.432   1.351   4.959  0.5225 -0.5530 -0.1003
 1359TIP3    H1 4083   0.453   1.259   4.975 -0.1098 -0.9280 -1.3803
 1359TIP3    H2 4084   0.490   1.377   4.887 -0.1921 -0.3189 -0.6004
 1360TIP3   OH2 4085   5.424   1.211   4.951 -0.2045 -0.0663  0.0205
 1360TIP3    H1 4086   5.518   1.194   4.963  0.6798  2.3671 -2.7635
 1360TIP3    H2 4087   5.419   1.262   4.870 -3.8597  0.8897  0.7377
 1361TIP3   OH2 4088   1.713   0.381   2.611 -0.2448 -0.3996  0.2105
 1361TIP3    H1 4089   1.637   0.440   2.618  0.3024  0.5527 -1.3901
 1361TIP3    H2 4090   1.773   0.411   2.679 -1.1092 -0.8719  1.1931
 1362TIP3   OH2 4091   0.064   1.171   4.958 -0.1987  0.5383 -0.2286
 1362TIP3    H1 4092   0.095   1.165   5.048 -1.6590  1.6157  0.3561
 1362TIP3    H2 4093  -0.022   1.129   4.959  0.1201 -0.1774 -1.3041
 1363TIP3   OH2 4094   5.560   4.565   5.077  0.5389 -0.2276  0.4475
 1363TIP3    H1 4095   5.526   4.549   4.989  1.3421 -1.0958  0.2851
 1363TIP3    H2 4096   5.513   4.503   5.132 -0.3079  0.6416  0.7160
 1364TIP3   OH2 4097   0.435   3.089   3.743  0.6600 -0.1135  0.1717
 1364TIP3    H1 4098   0.409   3.069   3.653  1.4036  0.6744 -0.2219
 1364TIP3    H2 4099   0.490   3.016   3.769  0.2022 -0.4904  0.0976
 1365TIP3   OH2 4100   3.999   6.072   4.743  0.3212  0.3177  0.7233
 1365TIP3    H1 4101   3.956   6.021   4.674  0.6255  0.1160  0.6812
 1365TIP3    H2 4102   4.029   6.006   4.805 -0.0340  0.5044  1.0953
 1366TIP3   OH2 4103   0.573   1.732   3.149 -0.6088  0.8230  0.4998
 1366TIP3    H1 4104   0.528   1.711   3.067  0.5278  0.7072 -0.0931
 1366TIP3    H2 4105   0.559   1.826   3.160  0.5176  1.1398 -0.6196
 1367TIP3   OH2 4106   5.329   1.039   3.877 -0.5076 -0.2920 -0.5617
 1367TIP3    H1 4107   5.382   1.055   3.955 -2.0023 -1.9724  0.8584
 1367TIP3    H2 4108   5.314   1.126   3.840  0.8739  0.4546  0.5686
 1368TIP3   OH2 4109   5.710   1.267   3.989  0.1790  1.0324 -0.2550
 1368TIP3    H1 4110   5.692   1.257   3.895 -0.0615  0.5661 -0.1586
 1368TIP3    H2 4111   5.638   1.321   4.022  0.1293  0.9857 -0.2873
 1369TIP3   OH2 4112   5.445   1.470   3.615 -0.3902 -0.5661 -0.0882
 1369TIP3    H1 4113   5.481   1.410   3.549  0.2687  1.2506 -1.4357
 1369TIP3    H2 4114   5.373   1.514   3.570 -2.2427 -1.8486  1.5710
 1370TIP3   OH2 4115   5.700   1.866   4.105  0.2083  0.2045  0.2344
 1370TIP3    H1 4116   5.779   1.865   4.158 -0.8370  0.3296  1.8411
 1370TIP3    H2 4117   5.659   1.951   4.124  0.1412  0.5291 -1.2718
 1371TIP3   OH2 4118   0.647   5.552   3.982 -0.1443 -0.3293 -0.4943
 1371TIP3    H1 4119   0.556   5.576   3.995  0.5476  2.5336 -0.5836
 1371TIP3    H2 4120   0.645   5.483   3.916 -2.1907  0.1157 -0.9186
 1372TIP3   OH2 4121   3.938   0.255   4.092 -0.0806  0.4227 -0.0078
 1372TIP3    H1 4122   3.964   0.344   4.069  0.1219  0.4298  0.2473
 1372TIP3    H2 4123   3.996   0.199   4.039  2.9159  0.3912  3.0964
 1373TIP3   OH2 4124   3.294   0.307   2.784 -0.1192 -0.1709 -0.3983
 1373TIP3    H1 4125   3.253   0.312   2.870  0.4956 -1.5008 -0.0203
 1373TIP3    H2 4126   3.298   0.213   2.764 -0.7028  0.1425 -2.0965
 1374TIP3   OH2 4127   3.025   1.402   3.894 -0.6589  0.0640  0.4901
 1374TIP3    H1 4128   3.108   1.420   3.851 -1.0619 -0.2752 -0.4517
 1374TIP3    H2 4129   2.987   1.489   3.910 -0.2291  0.2086  0.7152
 1375TIP3   OH2 4130   4.426   0.281   2.282  0.3074 -0.2316  0.2693
 1375TIP3    H1 4131   4.338   0.314   2.262 -0.1428 -1.1448  0.6817
 1375TIP3    H2 4132   4.478   0.359   2.300 -0.2896  0.3535 -0.4866
 1376TIP3   OH2 4133   6.352   4.685   2.268 -0.3195 -0.3541  0.1713
 1376TIP3    H1 4134   6.300   4.724   2.198 -1.5774 -1.3307  0.5344
 1376TIP3    H2 4135   6.343   4.590   2.255  3.0305 -0.5850 -0.9561
 1377TIP3   OH2 4136   4.086   0.363   3.804  0.6970  0.2004 -0.1301
 1377TIP3    H1 4137   4.166   0.416   3.803  0.4314  0.6242  0.4288
 1377TIP3    H2 4138   4.062   0.354   3.712  1.2726  0.2547 -0.2883
 1378TIP3   OH2 4139   5.291   5.969   4.083 -0.1197  0.2976  0.3686
 1378TIP3    H1 4140   5.251   5.938   4.002  0.4609  1.5788 -0.4302
 1378TIP3    H2 4141   5.280   5.897   4.145  1.2798 -1.5271 -1.4543
 1379TIP3   OH2 4142   2.585   0.549   2.710  0.3617 -0.3407  0.1134
 1379TIP3    H1 4143   2.588   0.572   2.803 -0.7499 -1.2647  0.3858
 1379TIP3    H2 4144   2.572   0.633   2.665  0.5768  0.0684  0.7992
 1380TIP3   OH2 4145   2.409   0.345   2.597  0.0999  1.0689  0.5457
 1380TIP3    H1 4146   2.370   0.329   2.683 -0.3934  1.4998  0.4006
 1380TIP3    H2 4147   2.460   0.425   2.607 -1.1280  1.9205  0.0567
 1381TIP3   OH2 4148   1.261   4.830   0.327  0.1367 -0.0066  0.9554
 1381TIP3    H1 4149   1.263   4.822   0.422  0.8851  0.0176  0.9465
 1381TIP3    H2 4150   1.309   4.753   0.295 -0.2092 -0.0746  0.5928
 1382TIP3   OH2 4151   2.461   1.544   1.754  0.9382 -0.1727  0.3799
 1382TIP3    H1 4152   2.406   1.607   1.801  0.1875 -1.0096  0.6397
 1382TIP3    H2 4153   2.547   1.550   1.798  1.2229  1.5140 -0.3738
 1383TIP3   OH2 4154   5.252   2.365   0.268  0.3136  0.1815  0.3205
 1383TIP3    H1 4155   5.165   2.405   0.267 -0.1220 -0.7593 -0.8328
 1383TIP3    H2 4156   5.247   2.296   0.203  2.5025  1.3142 -1.0990
 1384TIP3   OH2 4157   3.561   0.488   1.999  0.2327 -0.3730  0.7672
 1384TIP3    H1 4158   3.579   0.573   2.040  0.9619 -0.3707  0.4407
 1384TIP3    H2 4159   3.646   0.445   1.995 -0.0448 -0.8850  0.3949
 1385TIP3   OH2 4160   0.921   5.535   4.068  0.3108  0.4702  0.9809
 1385TIP3    H1 4161   0.826   5.526   4.074  0.3602  0.1303  1.3169
 1385TIP3    H2 4162   0.943   5.504   3.980  0.1835 -0.1569  1.1633
 1386TIP3   OH2 4163   5.272   2.234   3.956 -0.3423  0.0259  0.1173
 1386TIP3    H1 4164   5.239   2.153   3.997 -0.5103  0.0278 -0.0131
 1386TIP3    H2 4165   5.332   2.203   3.888 -1.6419 -0.0456 -1.0235
 1387TIP3   OH2 4166   4.121   2.086   3.262  0.0531 -0.1829  0.0657
 1387TIP3    H1 4167   4.099   2.024   3.192  0.8264 -0.1240 -0.2355
 1387TIP3    H2 4168   4.192   2.139   3.225 -0.6131  0.8936  0.3148
 1388TIP3   OH2 4169   0.132   5.783   3.209  0.1356  0.3081 -0.1756
 1388TIP3    H1 4170   0.049   5.789   3.257  0.9581 -0.6123  1.3929
 1388TIP3    H2 4171   0.132   5.694   3.174  0.2126  0.4959 -0.6560
 1389TIP3   OH2 4172   1.292   5.124   2.995  0.2987 -0.3711 -0.5810
 1389TIP3    H1 4173   1.311   5.131   2.902 -0.4798  1.7008 -0.6062
 1389TIP3    H2 4174   1.197   5.124   3.000  0.3389  0.1155  0.2503
 1390TIP3   OH2 4175   5.580   5.384   5.153  0.0042  0.0935 -0.4249
 1390TIP3    H1 4176   5.606   5.378   5.245  2.3208  0.1122 -1.0311
 1390TIP3    H2 4177   5.485   5.376   5.154 -0.0393  0.4570  1.9975
 1391TIP3   OH2 4178   1.699   5.040   3.181 -0.3698  0.1356  0.0737
 1391TIP3    H1 4179   1.726   4.979   3.112  1.4611  1.3274 -0.2999
 1391TIP3    H2 4180   1.606   5.022   3.194 -0.5749 -0.6001 -2.1919
 1392TIP3   OH2 4181   2.117   2.344   0.145  0.3658 -0.5467 -0.2179
 1392TIP3    H1 4182   2.063   2.421   0.129 -0.0079 -1.0224 -1.3242
 1392TIP3    H2 4183   2.074   2.274   0.096  0.3746 -1.5935  1.2313
 1393TIP3   OH2 4184   1.193   1.353   3.809 -0.4798 -0.1654  0.1976
 1393TIP3    H1 4185   1.190   1.389   3.898  0.7714  0.5507 -0.0475
 1393TIP3    H2 4186   1.138   1.274   3.814 -0.0200 -0.4154  1.7306
 1394TIP3   OH2 4187   3.148   4.132   0.024 -0.1101 -0.0333 -0.6748
 1394TIP3    H1 4188   3.138   4.228   0.025 -0.0502 -0.0102 -1.7347
 1394TIP3    H2 4189   3.083   4.103  -0.040 -0.2528 -0.7254 -0.2162
 1395TIP3   OH2 4190   4.828   1.207   3.747 -0.2109 -0.0052  0.0880
 1395TIP3    H1 4191   4.863   1.294   3.727 -0.5134 -0.0882 -0.8363
 1395TIP3    H2 4192   4.894   1.167   3.804  1.9336 -0.6850 -2.7467
 1396TIP3   OH2 4193   6.357   3.884   2.631 -0.7228 -0.2053  0.6485
 1396TIP3    H1 4194   6.417   3.810   2.643 -0.3146  0.0667  0.2898
 1396TIP3    H2 4195   6.327   3.875   2.540 -0.0334  0.5419  0.3432
 1397TIP3   OH2 4196   4.887   1.716   2.060  0.6004 -0.4749 -0.0204
 1397TIP3    H1 4197   4.795   1.694   2.075  0.6567 -0.9945 -0.4099
 1397TIP3    H2 4198   4.934   1.672   2.130  0.3692  1.4281  1.3502
 1398TIP3   OH2 4199   2.591   0.161   4.384 -0.1447  0.2461 -0.1955
 1398TIP3    H1 4200   2.683   0.136   4.375  0.1760  0.8508  1.1456
 1398TIP3    H2 4201   2.568   0.136   4.474 -0.7804  1.6304  0.0504
 1399TIP3   OH2 4202   1.289   1.248   2.289  0.4129  0.0823 -0.0765
 1399TIP3    H1 4203   1.346   1.288   2.354  1.4045  0.3957 -1.1203
 1399TIP3    H2 4204   1.216   1.310   2.280 -0.2842 -0.4834  1.5019
 1400TIP3   OH2 4205   6.292   5.167   1.776  0.1509  0.2867 -0.4803
 1400TIP3    H1 4206   6.318   5.259   1.769  0.6787  0.1779 -0.0237
 1400TIP3    H2 4207   6.366   5.124   1.819 -0.1201 -0.3407 -0.6271
 1401TIP3   OH2 4208   3.428   1.862   2.039  0.0056 -0.3428 -0.4183
 1401TIP3    H1 4209   3.450   1.943   1.994  1.4966 -0.3522  0.2671
 1401TIP3    H2 4210   3.377   1.890   2.115  0.6203 -0.0380 -0.1176
 1402TIP3   OH2 4211   0.984   4.491   0.166  0.1931  0.4701 -0.2153
 1402TIP3    H1 4212   0.989   4.585   0.184 -1.0026  0.6812 -0.8958
 1402TIP3    H2 4213   1.071   4.468   0.134  0.5226  1.3323  0.0571
 1403TIP3   OH2 4214   2.818   0.556   3.840  0.3526 -0.0054 -0.1326
 1403TIP3    H1 4215   2.872   0.553   3.919  0.7394  1.5103 -0.3212
 1403TIP3    H2 4216   2.881   0.555   3.768 -0.0148 -1.8873 -0.4514
 1404TIP3   OH2 4217   3.689   4.047   1.425  0.6903 -0.4982 -0.1110
 1404TIP3    H1 4218   3.682   4.093   1.341 -1.1519 -0.5335  0.0077
 1404TIP3    H2 4219   3.716   3.959   1.401  0.3814 -0.4504 -0.6552
 1405TIP3   OH2 4220   1.775   4.952   2.695  0.2432  0.8147 -0.7470
 1405TIP3    H1 4221   1.741   4.946   2.606 -0.4897 -0.0925 -0.4157
 1405TIP3    H2 4222   1.765   5.044   2.718  1.2416  1.2279 -1.9054
 1406TIP3   OH2 4223   0.169   4.956   2.264  0.1575 -0.8512 -0.3778
 1406TIP3    H1 4224   0.207   5.043   2.281 -1.4197 -0.0622 -0.7401
 1406TIP3    H2 4225   0.161   4.917   2.351  1.2051 -0.7791 -0.2416
 1407TIP3   OH2 4226   1.020   0.341   1.215 -0.7104  0.2190 -0.1301
 1407TIP3    H1 4227   1.079   0.367   1.287  0.1060  1.4478 -1.2181
 1407TIP3    H2 4228   1.030   0.410   1.150 -1.3004 -0.9797 -1.5227
 1408TIP3   OH2 4229   1.543   0.325   5.172 -0.0890 -0.2568 -0.2488
 1408TIP3    H1 4230   1.623   0.276   5.191 -0.0447 -0.9233 -2.1014
 1408TIP3    H2 4231   1.573   0.404   5.126 -0.3341  0.5468  0.9376
 1409TIP3   OH2 4232   3.395   1.092   2.806 -0.5010 -0.1571 -0.4104
 1409TIP3    H1 4233   3.416   1.141   2.727 -1.3931 -1.4238 -1.4476
 1409TIP3    H2 4234   3.467   1.030   2.816 -0.5351 -0.1917 -0.3772
 1410TIP3   OH2 4235   1.199   1.084   4.501  0.5612 -0.1025  0.1605
 1410TIP3    H1 4236   1.142   1.051   4.571  1.5824 -1.5082  0.3637
 1410TIP3    H2 4237   1.152   1.063   4.420  0.0784  0.1521  0.3734
 1411TIP3   OH2 4238   1.211   5.780   2.075  0.1780 -0.1717 -0.3913
 1411TIP3    H1 4239   1.246   5.729   2.003 -0.3666 -1.0515 -0.0420
 1411TIP3    H2 4240   1.252   5.866   2.066  1.6555 -0.8840 -0.5563
 1412TIP3   OH2 4241   3.845   0.920   2.562  0.3015  0.6389  0.4876
 1412TIP3    H1 4242   3.923   0.974   2.568  0.5109  0.6332 -1.7198
 1412TIP3    H2 4243   3.876   0.837   2.526 -0.7424  0.7013 -0.5868
 1413TIP3   OH2 4244   1.513   1.686   4.400  0.5268 -0.0973  0.3598
 1413TIP3    H1 4245   1.566   1.741   4.342 -0.5551 -1.3405 -1.8870
 1413TIP3    H2 4246   1.546   1.705   4.488  2.1126  1.9632 -0.6232
 1414TIP3   OH2 4247   0.339   4.852   0.975 -0.1656 -0.6583 -0.2545
 1414TIP3    H1 4248   0.415   4.900   1.007 -0.4226 -0.1848 -0.3472
 1414TIP3    H2 4249   0.285   4.837   1.052 -1.0470  0.9568 -0.5229
 1415TIP3   OH2 4250   2.272   1.312   3.573 -0.2716 -0.6588  0.7810
 1415TIP3    H1 4251   2.283   1.219   3.553  2.8210 -0.0442 -0.7863
 1415TIP3    H2 4252   2.240   1.350   3.491 -1.0408 -0.2741  1.2587
 1416TIP3   OH2 4253   1.968   0.245   4.523 -0.0268 -0.1291 -0.0888
 1416TIP3    H1 4254   1.978   0.340   4.530 -1.6326  0.0100  0.6192
 1416TIP3    H2 4255   1.966   0.228   4.429 -0.5338  0.6373 -0.2254
 1417TIP3   OH2 4256   2.820   0.802   4.467 -0.3858  0.6892  0.4947
 1417TIP3    H1 4257   2.783   0.884   4.499  0.1693  0.2625  2.2749
 1417TIP3    H2 4258   2.903   0.828   4.426 -0.7640  1.1556  0.0151
 1418TIP3   OH2 4259   4.312   3.576   1.379  0.6991  0.0110 -0.3459
 1418TIP3    H1 4260   4.303   3.494   1.330  1.7303  0.0808 -0.6514
 1418TIP3    H2 4261   4.384   3.561   1.439  0.2357  0.3531  0.3060
 1419TIP3   OH2 4262   3.864   1.545   2.111  0.5201  0.2924  0.2260
 1419TIP3    H1 4263   3.877   1.455   2.141  2.0127 -0.1625 -1.6507
 1419TIP3    H2 4264   3.840   1.594   2.189  1.7517 -1.3403  1.6630
 1420TIP3   OH2 4265   1.061   1.431   2.226  0.5105 -0.4525  0.6723
 1420TIP3    H1 4266   1.031   1.514   2.263 -0.0017 -0.8642  1.1892
 1420TIP3    H2 4267   1.055   1.443   2.132 -0.6358 -0.2957  0.7605
 1421TIP3   OH2 4268   3.596   2.397   0.836 -0.0660  0.3333  0.4733
 1421TIP3    H1 4269   3.563   2.317   0.796 -1.1953  0.1944  1.6290
 1421TIP3    H2 4270   3.638   2.368   0.917  0.4735  0.8104  0.3749
 1422TIP3   OH2 4271   2.513   5.292   1.862 -0.4782  0.0572  0.0757
 1422TIP3    H1 4272   2.473   5.277   1.948 -1.7516  2.2075 -0.0993
 1422TIP3    H2 4273   2.587   5.349   1.880  0.5601 -1.2363 -0.0167
 1423TIP3   OH2 4274   1.509   5.840   4.925 -0.9958 -0.4938 -0.0298
 1423TIP3    H1 4275   1.604   5.844   4.911 -0.9777  0.2381  0.2845
 1423TIP3    H2 4276   1.474   5.805   4.843 -0.5073 -0.1852 -0.3720
 1424TIP3   OH2 4277   3.407   4.063   4.466 -0.0283 -0.0876  0.3623
 1424TIP3    H1 4278   3.401   4.148   4.423 -1.7718  0.0038  0.7233
 1424TIP3    H2 4279   3.484   4.022   4.428  1.6829  2.2115  1.1910
 1425TIP3   OH2 4280   5.425   4.676   0.686  0.1363 -0.4276  0.0293
 1425TIP3    H1 4281   5.513   4.680   0.722 -0.2973  0.2419  1.0499
 1425TIP3    H2 4282   5.412   4.761   0.643 -0.5467  0.0810  1.2077
 1426TIP3   OH2 4283   1.467   0.455   1.110 -0.1371  0.1549  0.7220
 1426TIP3    H1 4284   1.550   0.501   1.096  1.5844 -3.0629 -0.1136
 1426TIP3    H2 4285   1.412   0.482   1.037  0.2593  2.0402  1.0865
 1427TIP3   OH2 4286   2.755   4.949   3.708  0.2512  1.0254 -0.3789
 1427TIP3    H1 4287   2.776   5.042   3.707  1.1598  0.8227 -0.7444
 1427TIP3    H2 4288   2.825   4.908   3.657 -1.5265  0.4192 -2.4260
 1428TIP3   OH2 4289   2.466   0.152   2.069 -0.2668 -1.2838 -0.1797
 1428TIP3    H1 4290   2.411   0.106   2.132 -1.9165 -0.1633 -0.7579
 1428TIP3    H2 4291   2.545   0.175   2.118 -1.6545 -0.1469  1.6079
 1429TIP3   OH2 4292   2.464   4.982   3.171 -0.5882  0.1890 -0.1787
 1429TIP3    H1 4293   2.444   4.984   3.265  1.2788  0.5179  0.2249
 1429TIP3    H2 4294   2.513   4.900   3.159 -0.1446  0.5325 -0.7259
 1430TIP3   OH2 4295   5.609   4.580   0.235 -0.3286  0.1439  0.0168
 1430TIP3    H1 4296   5.564   4.643   0.292 -1.2375  0.0917 -0.6371
 1430TIP3    H2 4297   5.553   4.502   0.236 -0.4324  0.1957 -1.0693
 1431TIP3   OH2 4298   2.715   0.408   0.922 -0.2744  0.0289 -0.1101
 1431TIP3    H1 4299   2.633   0.441   0.959 -0.0328  0.5202  0.0020
 1431TIP3    H2 4300   2.780   0.424   0.991 -0.1038 -0.4555 -0.1565
 1432TIP3   OH2 4301   5.553   3.645   0.028 -0.3839  0.1483 -0.0032
 1432TIP3    H1 4302   5.571   3.732  -0.007  0.4429 -0.4856 -1.2040
 1432TIP3    H2 4303   5.640   3.604   0.035 -0.8546 -0.8967 -0.2937
 1433TIP3   OH2 4304   2.015   0.570   2.555  0.3541  0.0255  0.4677
 1433TIP3    H1 4305   1.936   0.606   2.593 -1.2828 -1.5244 -1.3309
 1433TIP3    H2 4306   2.025   0.616   2.472  0.4658 -0.8417 -0.0101
 1434TIP3   OH2 4307   0.050   4.981   3.912  0.1852  0.0913  0.3459
 1434TIP3    H1 4308   0.128   4.957   3.861 -0.2407 -0.4982 -0.0381
 1434TIP3    H2 4309   0.009   4.897   3.933 -0.0480  0.3747  1.0219
 1435TIP3   OH2 4310   3.499   0.910   0.440  0.0388  0.0426 -0.2014
 1435TIP3    H1 4311   3.451   0.828   0.439 -1.7666  1.0760 -1.1651
 1435TIP3    H2 4312   3.548   0.911   0.358 -2.5284  1.3729 -1.7785
 1436TIP3   OH2 4313   1.783   5.812   1.098 -0.0209  0.5993  0.4479
 1436TIP3    H1 4314   1.784   5.733   1.151 -0.1806  0.9425  0.9595
 1436TIP3    H2 4315   1.829   5.878   1.151  1.3864  0.4675 -0.5637
 1437TIP3   OH2 4316   1.629   0.512   2.087 -1.1783 -0.4791  0.0835
 1437TIP3    H1 4317   1.628   0.591   2.032 -0.1030 -0.7845 -0.3851
 1437TIP3    H2 4318   1.679   0.448   2.036 -1.0609 -1.0998  0.9657
 1438TIP3   OH2 4319   6.480   0.463   3.230 -0.2959 -0.3772  0.0613
 1438TIP3    H1 4320   6.506   0.371   3.240 -0.5288 -0.4809 -0.3023
 1438TIP3    H2 4321   6.402   0.472   3.285 -0.9685 -0.6906 -0.8399
 1439TIP3   OH2 4322   1.653   5.679   2.562 -0.5662 -0.4850 -0.3078
 1439TIP3    H1 4323   1.727   5.728   2.598 -0.1815 -1.2078 -0.1076
 1439TIP3    H2 4324   1.666   5.681   2.467 -0.9200  0.3756 -0.3451
 1440TIP3   OH2 4325   2.731   1.928   2.379 -0.5624  0.4061 -0.1268
 1440TIP3    H1 4326   2.724   2.019   2.407 -0.7001  0.7589 -1.2716
 1440TIP3    H2 4327   2.782   1.932   2.298 -0.0655 -0.5972  0.1288
 1441TIP3   OH2 4328   2.656   0.388   3.996 -0.4856  0.1765 -0.1663
 1441TIP3    H1 4329   2.716   0.452   3.958 -0.3815  0.9202  1.2118
 1441TIP3    H2 4330   2.709   0.345   4.064 -0.6918 -1.0585 -0.7745
 1442TIP3   OH2 4331   1.299   0.570   3.363  0.5993 -0.0226 -0.6282
 1442TIP3    H1 4332   1.353   0.644   3.335 -0.8113 -0.3604 -4.5495
 1442TIP3    H2 4333   1.221   0.611   3.402  0.5807  0.5639 -1.2703
 1443TIP3   OH2 4334   2.691   1.950   4.326  0.3371 -0.4201  0.0697
 1443TIP3    H1 4335   2.657   1.896   4.254 -0.6218  0.6357 -0.2847
 1443TIP3    H2 4336   2.785   1.953   4.311  0.0841  0.2766 -1.5184
 1444TIP3   OH2 4337   3.141   0.334   3.927 -0.0046  0.1439  0.1456
 1444TIP3    H1 4338   3.060   0.285   3.943 -0.8026  0.7925 -1.6973
 1444TIP3    H2 4339   3.112   0.411   3.878  1.8541 -0.1495 -1.4807
 1445TIP3   OH2 4340   1.755   1.312   2.645  0.1105 -0.1610 -0.2167
 1445TIP3    H1 4341   1.758   1.319   2.550 -0.4503  0.7782 -0.1756
 1445TIP3    H2 4342   1.663   1.325   2.667  0.4449  1.0069  0.5398
 1446TIP3   OH2 4343   4.000   0.716   0.641  0.3289  0.3431 -0.0231
 1446TIP3    H1 4344   4.066   0.760   0.695  0.7628  0.2494 -0.4757
 1446TIP3    H2 4345   3.930   0.781   0.630  1.3494  1.2335 -1.3993
 1447TIP3   OH2 4346   3.008   0.542   3.649 -1.0213  0.6087  0.2694
 1447TIP3    H1 4347   3.085   0.490   3.626 -2.2343 -0.4948 -1.3508
 1447TIP3    H2 4348   3.042   0.630   3.661  0.4438  0.2234 -0.8962
 1448TIP3   OH2 4349   0.528   5.158   2.044  0.4658 -0.4285  0.2059
 1448TIP3    H1 4350   0.521   5.249   2.074  0.1606 -0.8247  1.3637
 1448TIP3    H2 4351   0.621   5.145   2.030  0.4781  0.1637 -0.2815
 1449TIP3   OH2 4352   2.418   6.064   3.501  0.0261 -0.0877 -0.4724
 1449TIP3    H1 4353   2.444   6.009   3.427 -0.7019  0.0331 -0.8217
 1449TIP3    H2 4354   2.346   6.118   3.467 -0.7619 -0.5095  0.5100
 1450TIP3   OH2 4355   0.375   5.617   4.011  0.2209  0.9570 -0.0501
 1450TIP3    H1 4356   0.340   5.705   4.020  0.5064  1.1443 -0.7189
 1450TIP3    H2 4357   0.300   5.559   4.025 -0.5853  1.3718 -2.4837
 1451TIP3   OH2 4358   4.176   1.218   2.004 -0.0917  0.1347  0.0253
 1451TIP3    H1 4359   4.123   1.139   1.991  0.0424  0.1900 -0.8911
 1451TIP3    H2 4360   4.224   1.228   1.921 -2.4671  2.9681 -1.0818
 1452TIP3   OH2 4361   1.352   4.375   2.015 -0.3967 -0.2177  0.2078
 1452TIP3    H1 4362   1.387   4.317   2.083  0.9981 -0.1489 -0.4388
 1452TIP3    H2 4363   1.286   4.322   1.970 -0.8480 -0.4870  1.1760
 1453TIP3   OH2 4364   3.085   1.943   1.910 -0.4243 -0.3190 -0.9358
 1453TIP3    H1 4365   2.999   1.982   1.929 -0.2807 -0.4397 -0.0052
 1453TIP3    H2 4366   3.146   2.017   1.915 -0.3833 -0.3527 -0.9403
 1454TIP3   OH2 4367   1.590   5.951   3.414  0.5124 -0.4967 -0.0763
 1454TIP3    H1 4368   1.633   6.035   3.427  1.6185 -0.8903 -1.0268
 1454TIP3    H2 4369   1.611   5.900   3.492 -1.3192  0.5661  1.1358
 1455TIP3   OH2 4370   6.250   4.906   0.525 -0.0673 -0.6223  0.5968
 1455TIP3    H1 4371   6.315   4.974   0.508  0.5631 -1.1253  0.9665
 1455TIP3    H2 4372   6.192   4.909   0.449  2.3135 -2.3945 -1.3740
 1456TIP3   OH2 4373   3.915   2.508   2.773  0.4507 -0.7762 -0.1409
 1456TIP3    H1 4374   4.007   2.485   2.771  0.7167  0.1119  1.2382
 1456TIP3    H2 4375   3.913   2.602   2.789 -0.6808 -0.8920  0.5245
 1457TIP3   OH2 4376   2.601   1.222   2.284  0.2483  0.0139  0.0910
 1457TIP3    H1 4377   2.589   1.295   2.346 -3.0015 -0.3839  0.0460
 1457TIP3    H2 4378   2.565   1.146   2.330  1.6976 -1.1531 -0.6772
 1458TIP3   OH2 4379   2.870   1.537   3.479  0.1173  0.3588 -0.3766
 1458TIP3    H1 4380   2.906   1.618   3.516  1.2398 -0.6420  0.7545
 1458TIP3    H2 4381   2.807   1.507   3.544  0.5336 -0.2722 -0.2568
 1459TIP3   OH2 4382   2.434   1.098   3.524  0.1049 -0.6895  0.4464
 1459TIP3    H1 4383   2.400   1.025   3.473 -0.9163 -1.2313  1.8519
 1459TIP3    H2 4384   2.447   1.062   3.612  2.3924  0.0593  0.4460
 1460TIP3   OH2 4385   0.269   5.855   4.089  0.8262 -0.0381  0.0588
 1460TIP3    H1 4386   0.296   5.946   4.084  0.1551  0.1371 -0.5468
 1460TIP3    H2 4387   0.259   5.838   4.183 -1.1013  1.1481  0.1070
 1461TIP3   OH2 4388   6.408   1.470   3.382 -0.3845  0.4078 -0.3968
 1461TIP3    H1 4389   6.492   1.504   3.352 -0.2705 -0.0869 -0.6520
 1461TIP3    H2 4390   6.353   1.548   3.393 -0.0586  0.6925 -0.7490
 1462TIP3   OH2 4391   2.435   0.959   3.776 -0.3648 -0.1277 -0.2828
 1462TIP3    H1 4392   2.370   0.941   3.844 -0.0325  1.5684  0.5158
 1462TIP3    H2 4393   2.499   0.887   3.785 -0.3545  0.0410  1.1713
 1463TIP3   OH2 4394   5.346   4.583   0.440 -0.4454  0.2673 -0.1389
 1463TIP3    H1 4395   5.368   4.593   0.532 -0.6932 -0.6944  0.0364
 1463TIP3    H2 4396   5.260   4.540   0.440 -0.4184  0.2052 -0.8073
 1464TIP3   OH2 4397   5.781   2.862   1.929  0.0589 -0.1262  0.1372
 1464TIP3    H1 4398   5.820   2.946   1.903  0.1177  0.0222  0.6931
 1464TIP3    H2 4399   5.851   2.799   1.917 -0.1668 -0.2057 -0.8729
 1465TIP3   OH2 4400   3.108   0.676   2.791  0.3967 -0.4427 -0.4449
 1465TIP3    H1 4401   3.115   0.599   2.734  2.7727 -0.3899 -0.2977
 1465TIP3    H2 4402   3.191   0.676   2.840 -0.3467  1.2055  0.8483
 1466TIP3   OH2 4403   3.141   1.272   4.425  0.0871  0.0147  0.2770
 1466TIP3    H1 4404   3.152   1.279   4.330  1.0189 -0.0887  0.3686
 1466TIP3    H2 4405   3.053   1.237   4.437  0.8558 -2.3464 -0.6415
 1467TIP3   OH2 4406   3.806   1.061   2.313 -0.5395  0.1559  0.2990
 1467TIP3    H1 4407   3.800   1.031   2.403  0.0806  0.5313  0.4664
 1467TIP3    H2 4408   3.880   1.122   2.312  1.6186 -2.3912 -1.1678
 1468TIP3   OH2 4409   1.321   6.006   5.215 -0.3221  0.1689 -0.3815
 1468TIP3    H1 4410   1.358   5.920   5.235  1.9494  0.8068 -1.6715
 1468TIP3    H2 4411   1.246   6.014   5.274  1.5101 -1.2183  2.2213
 1469TIP3   OH2 4412   3.612   0.661   0.613 -0.2681  0.1641 -0.2381
 1469TIP3    H1 4413   3.641   0.621   0.531 -2.4269 -0.2073 -0.8473
 1469TIP3    H2 4414   3.663   0.743   0.619  0.9793 -0.5212 -1.1783
 1470TIP3   OH2 4415   2.127   1.244   2.645 -0.7093  0.0847 -0.2360
 1470TIP3    H1 4416   2.141   1.261   2.738 -0.5727  0.4717 -0.3264
 1470TIP3    H2 4417   2.073   1.166   2.643 -2.4099  1.2252  0.2116
 1471TIP3   OH2 4418   1.246   0.792   2.339  0.4597  0.2059 -0.0501
 1471TIP3    H1 4419   1.315   0.849   2.304  1.3687 -0.8804 -0.0723
 1471TIP3    H2 4420   1.286   0.704   2.339 -0.7794 -0.3643  0.3412
 1472TIP3   OH2 4421   3.206   0.439   1.511 -0.0317  0.3545  0.0270
 1472TIP3    H1 4422   3.185   0.453   1.419 -0.4469 -0.4035  0.0016
 1472TIP3    H2 4423   3.288   0.388   1.510  0.0938  0.5521  0.0836
 1473TIP3   OH2 4424   4.136   1.947   1.563  0.1650  0.2987 -0.3734
 1473TIP3    H1 4425   4.126   1.914   1.652  0.3247 -0.2947 -0.5751
 1473TIP3    H2 4426   4.187   2.028   1.573  0.8691 -0.1839  0.0033
 1474TIP3   OH2 4427   4.674   0.278   1.455  0.3020 -0.1514  0.0825
 1474TIP3    H1 4428   4.635   0.195   1.429 -0.6251 -0.1186  1.3280
 1474TIP3    H2 4429   4.766   0.257   1.472  0.3607 -0.6560 -0.8268
 1475TIP3   OH2 4430   0.859   6.019   1.290  0.0579 -0.0009  0.2160
 1475TIP3    H1 4431   0.873   6.020   1.385  0.1533 -1.3137  0.2303
 1475TIP3    H2 4432   0.933   5.969   1.256  0.3963  1.0542 -0.6272
 1476TIP3   OH2 4433   0.748   5.993   2.759  0.1127 -0.1214  0.3020
 1476TIP3    H1 4434   0.838   6.018   2.737 -0.3672  0.9578 -0.5086
 1476TIP3    H2 4435   0.748   5.985   2.854  0.7103  1.3880  0.4432
 1477TIP3   OH2 4436   3.586   0.359   4.058  0.7670  0.4627  0.2519
 1477TIP3    H1 4437   3.665   0.328   4.014  1.8638  0.2792  2.2677
 1477TIP3    H2 4438   3.606   0.351   4.151 -1.8377 -0.0948  0.8083
 1478TIP3   OH2 4439   1.902   5.671   3.948 -0.1131  0.5280 -0.1022
 1478TIP3    H1 4440   1.888   5.645   4.039  0.2039 -0.0439 -0.2188
 1478TIP3    H2 4441   1.970   5.738   3.952  0.6957 -0.2998 -0.0292
 1479TIP3   OH2 4442   2.066   1.337   1.566 -0.3768  0.0129 -0.4402
 1479TIP3    H1 4443   2.155   1.309   1.586 -1.6117 -2.7657  1.4154
 1479TIP3    H2 4444   2.072   1.433   1.561  1.9491  0.2263  3.8803
 1480TIP3   OH2 4445   0.030   6.043   3.311 -0.0540  0.6605  0.6448
 1480TIP3    H1 4446  -0.012   6.128   3.298  1.7142  1.9355  2.8521
 1480TIP3    H2 4447   0.108   6.046   3.255 -1.1090 -0.3515 -0.8797
 1481TIP3   OH2 4448   4.534   0.983   2.626  0.7084 -0.3686  0.7017
 1481TIP3    H1 4449   4.536   0.896   2.587 -0.3578 -0.4924  0.9136
 1481TIP3    H2 4450   4.626   1.010   2.630  0.7711  0.1162 -2.8725
 1482TIP3   OH2 4451   3.041   1.251   2.593 -0.2069  0.1866 -0.4198
 1482TIP3    H1 4452   3.059   1.241   2.499 -1.0039 -2.7093 -0.3022
 1482TIP3    H2 4453   3.112   1.205   2.636 -0.3613  0.6921  0.3726
 1483TIP3   OH2 4454   0.230   5.832   4.358  0.2257 -1.0241  0.3001
 1483TIP3    H1 4455   0.242   5.842   4.452 -0.1387  1.3287  0.1318
 1483TIP3    H2 4456   0.145   5.873   4.340  0.6588 -0.7090 -1.1412
 1484TIP3   OH2 4457   0.853   0.921   4.117 -0.7785  0.1112  0.0122
 1484TIP3    H1 4458   0.862   0.885   4.028  1.8281  0.4269  0.1130
 1484TIP3    H2 4459   0.803   0.854   4.164  0.8423 -1.7086 -0.7785
 1485TIP3   OH2 4460   5.264   1.756   4.363 -0.2078  0.0229  0.0275
 1485TIP3    H1 4461   5.329   1.731   4.297 -1.0411 -0.9362 -0.4438
 1485TIP3    H2 4462   5.274   1.690   4.432 -0.5261  0.0155  0.0636
 1486TIP3   OH2 4463   0.415   5.659   2.195  0.1765 -0.1423 -0.2372
 1486TIP3    H1 4464   0.368   5.743   2.195  1.6981  0.7365  0.1664
 1486TIP3    H2 4465   0.505   5.682   2.172  0.9987 -1.4319  1.5685
 1487TIP3   OH2 4466   0.934   2.498   4.543 -0.9368 -0.3341  0.0682
 1487TIP3    H1 4467   0.971   2.428   4.596  0.9322  0.8647  0.4032
 1487TIP3    H2 4468   0.953   2.578   4.592 -0.8090  0.6325 -1.5016
 1488TIP3   OH2 4469   3.298   0.856   3.604  0.1656  0.0829 -0.2480
 1488TIP3    H1 4470   3.300   0.916   3.679 -1.0859  1.9198 -1.6413
 1488TIP3    H2 4471   3.350   0.780   3.632 -0.3055  0.7284  2.4700
 1489TIP3   OH2 4472   0.637   5.635   2.865 -0.0001  0.3950  0.0269
 1489TIP3    H1 4473   0.706   5.569   2.866 -0.2479  0.0398 -2.7569
 1489TIP3    H2 4474   0.671   5.704   2.808 -0.8525  1.4764  0.7931
 1490TIP3   OH2 4475   3.739   0.937   5.269 -0.5833 -0.0252  0.1854
 1490TIP3    H1 4476   3.780   0.851   5.269  0.1470  0.3166  0.6328
 1490TIP3    H2 4477   3.731   0.960   5.361 -0.7484  0.3990  0.0687
 1491TIP3   OH2 4478   2.779   0.107   4.753 -0.2214  0.2805 -0.9390
 1491TIP3    H1 4479   2.696   0.064   4.730 -0.5806  0.4614  0.0198
 1491TIP3    H2 4480   2.820   0.048   4.816 -0.8249  1.4336  0.5657
 1492TIP3   OH2 4481   1.843   5.859   5.287 -0.3880  1.0088 -0.6932
 1492TIP3    H1 4482   1.903   5.856   5.212 -1.3617  0.1372 -1.4533
 1492TIP3    H2 4483   1.857   5.776   5.332  1.0139  1.9963  0.7800
 1493TIP3   OH2 4484   6.204   6.099   3.993  0.2421 -0.7002 -0.3467
 1493TIP3    H1 4485   6.121   6.075   3.950 -0.4191 -1.5978  1.3679
 1493TIP3    H2 4486   6.187   6.086   4.086  2.5315 -1.5713 -0.0127
 1494TIP3   OH2 4487   3.950   2.332   4.308 -0.1704  0.0849  0.2688
 1494TIP3    H1 4488   4.042   2.319   4.330 -0.4418 -0.0060  1.3903
 1494TIP3    H2 4489   3.929   2.259   4.249 -0.5543 -2.2882  3.1791
 1495TIP3   OH2 4490   0.386   5.984   0.801  0.0666  0.1264  0.8556
 1495TIP3    H1 4491   0.437   6.063   0.818 -0.1673  0.4822 -0.0758
 1495TIP3    H2 4492   0.408   5.960   0.710  0.8637 -1.4142  1.4351
 1496TIP3   OH2 4493   3.440   1.912   5.026 -0.2024 -0.0351 -0.2664
 1496TIP3    H1 4494   3.469   1.897   4.936  1.2477  0.0361  0.1751
 1496TIP3    H2 4495   3.422   1.824   5.061  1.1173 -0.2221 -0.0235
 1497TIP3   OH2 4496   2.185   1.260   4.146  0.0536  0.0086  0.2378
 1497TIP3    H1 4497   2.100   1.303   4.143 -1.0250 -2.1309 -1.2397
 1497TIP3    H2 4498   2.245   1.324   4.106 -0.8349  1.5116  1.2592
 1498TIP3   OH2 4499   2.112   1.516   2.057 -0.1652  0.2286 -0.3943
 1498TIP3    H1 4500   2.193   1.557   2.086  0.0732 -0.6692  0.2097
 1498TIP3    H2 4501   2.070   1.582   2.002  0.6346  0.9551 -0.1314
 1499TIP3   OH2 4502   4.670   0.313   3.768  0.2548 -0.1168 -0.2878
 1499TIP3    H1 4503   4.736   0.346   3.707  2.9991 -0.0565  2.6266
 1499TIP3    H2 4504   4.655   0.385   3.830 -0.3601 -1.1927  0.8390
 1500TIP3   OH2 4505   0.718   3.533   3.055  0.2846  0.1859 -0.0635
 1500TIP3    H1 4506   0.736   3.510   2.964 -0.9558 -0.1215 -0.2390
 1500TIP3    H2 4507   0.622   3.531   3.062  0.3787 -0.0964  1.3194
 1501TIP3   OH2 4508   1.971   0.847   4.217  0.4599 -0.4582  0.0366
 1501TIP3    H1 4509   1.915   0.908   4.170 -1.9163 -2.2282  0.4384
 1501TIP3    H2 4510   1.918   0.818   4.292  2.3675 -1.2799  1.1097
 1502TIP3   OH2 4511   5.615   6.036   1.503  0.1957 -0.6540  0.7893
 1502TIP3    H1 4512   5.560   6.026   1.581 -0.3445 -1.6044  0.3018
 1502TIP3    H2 4513   5.688   6.090   1.531 -0.6457  0.0507  1.6293
 1503TIP3   OH2 4514   2.669   5.511   4.947  0.3208  0.0504 -0.4130
 1503TIP3    H1 4515   2.742   5.528   5.006  0.3878 -0.7442 -0.2578
 1503TIP3    H2 4516   2.595   5.494   5.006  0.3976 -0.7810 -0.5552
 1504TIP3   OH2 4517   3.652   1.117   3.849  0.1120  0.1239  0.8357
 1504TIP3    H1 4518   3.651   1.022   3.838  1.0493  0.1800  0.1562
 1504TIP3    H2 4519   3.631   1.151   3.762  0.2909  0.5461  0.9573
 1505TIP3   OH2 4520   0.126   5.314   2.101  0.0506  0.1670  0.2244
 1505TIP3    H1 4521   0.181   5.361   2.038  0.6492  0.2945  0.8366
 1505TIP3    H2 4522   0.188   5.281   2.167 -0.6597  0.9100  1.2935
 1506TIP3   OH2 4523   0.345   3.789   1.149 -0.3078 -0.1911  0.1180
 1506TIP3    H1 4524   0.320   3.798   1.057  0.0442  0.6751  0.1014
 1506TIP3    H2 4525   0.317   3.701   1.173 -0.8433 -0.2447 -0.6828
 1507TIP3   OH2 4526   4.639   2.991   1.906  0.6023  0.2515 -0.4833
 1507TIP3    H1 4527   4.620   3.023   1.994 -0.6218  1.4532 -1.1704
 1507TIP3    H2 4528   4.565   2.935   1.884  1.9628 -1.8322  0.0826
 1508TIP3   OH2 4529   6.450   2.953   0.600  0.0997 -1.0305  0.6837
 1508TIP3    H1 4530   6.477   3.044   0.614 -0.2157 -0.3197 -2.8969
 1508TIP3    H2 4531   6.532   2.903   0.598  0.4897 -0.3619 -0.3049
 1509TIP3   OH2 4532   1.044   4.942   5.072 -0.7678  0.0725 -0.0658
 1509TIP3    H1 4533   1.063   4.848   5.077 -0.4347  0.0089 -2.2187
 1509TIP3    H2 4534   0.963   4.948   5.022  0.0578  1.0141 -1.3131
 1510TIP3   OH2 4535   2.757   1.277   2.642  0.3322  0.4794  0.0902
 1510TIP3    H1 4536   2.738   1.312   2.729 -1.1501 -2.5655  1.0888
 1510TIP3    H2 4537   2.849   1.250   2.648 -0.1555 -1.0239  1.2349
 1511TIP3   OH2 4538   3.825   0.244   3.811  0.1687 -0.0057  0.1325
 1511TIP3    H1 4539   3.915   0.275   3.820  0.5736 -1.0314 -0.3398
 1511TIP3    H2 4540   3.828   0.153   3.838 -0.9183  0.2057  1.0051
 1512TIP3   OH2 4541   2.741   1.417   1.269  0.2776 -0.5143  0.2997
 1512TIP3    H1 4542   2.655   1.433   1.232 -0.3228 -2.9157  0.5221
 1512TIP3    H2 4543   2.731   1.434   1.363 -0.3212 -1.9767  0.5194
 1513TIP3   OH2 4544   5.157   0.611   3.546  0.2756  0.2774  0.2294
 1513TIP3    H1 4545   5.172   0.635   3.637  0.5888 -0.3621  0.3450
 1513TIP3    H2 4546   5.112   0.527   3.550  0.1397  0.3266 -0.2050
 1514TIP3   OH2 4547   2.451   0.506   4.160  0.0107  0.0095  0.3740
 1514TIP3    H1 4548   2.514   0.456   4.108 -0.3555 -1.0763  0.9496
 1514TIP3    H2 4549   2.367   0.492   4.116 -0.0909  0.1210  0.5337
 1515TIP3   OH2 4550   0.195   0.347   2.026  0.6491 -0.1421  0.5797
 1515TIP3    H1 4551   0.250   0.381   1.956  0.6731 -0.9618  0.1833
 1515TIP3    H2 4552   0.236   0.376   2.107  1.3726 -0.3088  0.2746
 1516TIP3   OH2 4553   2.562   1.611   2.743  0.4396  0.2704 -0.0688
 1516TIP3    H1 4554   2.626   1.673   2.709  0.8629 -0.8847 -1.4310
 1516TIP3    H2 4555   2.477   1.654   2.729  0.5979 -0.1582 -2.6676
 1517TIP3   OH2 4556   3.574   1.254   1.421  0.1297  0.4095  0.7657
 1517TIP3    H1 4557   3.653   1.292   1.382 -1.4683  1.1860 -1.8198
 1517TIP3    H2 4558   3.587   1.160   1.416  1.4610  0.5297  1.6134
 1518TIP3   OH2 4559   4.232  -0.011   4.951  0.2104  0.1874  0.4418
 1518TIP3    H1 4560   4.277   0.040   4.883 -1.0138 -1.0126 -1.3148
 1518TIP3    H2 4561   4.158   0.043   4.976 -1.0729 -0.6491 -1.4047
 1519TIP3   OH2 4562   4.385   1.519   0.230  0.1681 -0.0711  0.2736
 1519TIP3    H1 4563   4.291   1.505   0.234  0.2980 -0.7288  1.1393
 1519TIP3    H2 4564   4.410   1.549   0.317  0.5672  1.3970 -0.3346
 1520TIP3   OH2 4565   2.667   0.348   0.658 -0.3696 -0.5126  0.1659
 1520TIP3    H1 4566   2.667   0.371   0.751  0.8539 -0.0288  0.0547
 1520TIP3    H2 4567   2.595   0.399   0.621 -0.0777  0.2481  0.6304
 1521TIP3   OH2 4568   1.315   5.827   1.280 -0.8282 -0.0651 -0.4358
 1521TIP3    H1 4569   1.391   5.850   1.334 -1.0424 -0.3377 -0.0119
 1521TIP3    H2 4570   1.263   5.768   1.336 -2.5163  1.9189  0.1399
 1522TIP3   OH2 4571   3.504   2.098   1.927 -0.3616 -0.4927  0.1700
 1522TIP3    H1 4572   3.547   2.082   1.844  0.3931 -0.0705  0.4770
 1522TIP3    H2 4573   3.437   2.163   1.906  0.2070  0.0436 -0.0010
 1523TIP3   OH2 4574   6.367   5.664   1.696 -0.3375  0.6850  0.7130
 1523TIP3    H1 4575   6.433   5.663   1.766 -1.2992 -0.5499  1.6482
 1523TIP3    H2 4576   6.360   5.572   1.670 -1.1130  0.9267  0.0770
 1524TIP3   OH2 4577   5.384   2.870   4.394 -0.5129 -0.1561 -0.1050
 1524TIP3    H1 4578   5.320   2.941   4.399 -1.5030 -1.0111 -0.5461
 1524TIP3    H2 4579   5.418   2.861   4.483 -1.1640  0.1565  0.1725
 1525TIP3   OH2 4580   2.235   5.116   1.688 -0.2388  0.1803 -0.4703
 1525TIP3    H1 4581   2.255   5.207   1.712 -0.2962 -0.1843  1.0072
 1525TIP3    H2 4582   2.173   5.123   1.616 -0.5252  1.3114 -0.1240
 1526TIP3   OH2 4583   6.494   6.068   3.863 -0.4482  0.6166 -0.1757
 1526TIP3    H1 4584   6.511   6.077   3.769 -1.4733  0.5150 -0.3728
 1526TIP3    H2 4585   6.405   6.102   3.874 -1.3174 -1.7527  0.3544
 1527TIP3   OH2 4586   3.375   2.594   3.046 -0.5827 -0.3163 -0.1072
 1527TIP3    H1 4587   3.315   2.591   3.121 -0.6863 -1.7317 -0.2402
 1527TIP3    H2 4588   3.323   2.565   2.972 -0.5391  1.2988 -0.7882
 1528TIP3   OH2 4589   4.571   1.208   3.820 -0.2478 -0.7020  0.8173
 1528TIP3    H1 4590   4.535   1.144   3.759  0.1915 -0.0224 -0.1766
 1528TIP3    H2 4591   4.665   1.189   3.822 -0.2433 -0.6549  1.2197
 1529TIP3   OH2 4592   1.480   4.644   1.607  0.3396 -0.2715  0.4192
 1529TIP3    H1 4593   1.394   4.657   1.648 -0.0908  0.6471 -0.7677
 1529TIP3    H2 4594   1.539   4.695   1.662 -0.2743  1.1494 -0.2204
 1530TIP3   OH2 4595   0.256   5.882   2.153  0.2924  0.2371  0.4262
 1530TIP3    H1 4596   0.170   5.857   2.120 -0.2697  0.2505  1.8226
 1530TIP3    H2 4597   0.256   5.978   2.149  0.7546  0.1943 -0.7969
 1531TIP3   OH2 4598   2.778   1.224   0.030 -0.3951  0.2391  0.1902
 1531TIP3    H1 4599   2.764   1.131   0.014  0.9462 -0.0014  0.3000
 1531TIP3    H2 4600   2.695   1.266   0.007 -0.8080 -0.9169 -0.4607
 1532TIP3   OH2 4601   4.222   0.967   3.458 -0.3589 -0.4365 -0.9188
 1532TIP3    H1 4602   4.228   1.045   3.514 -1.3158 -0.9771 -0.0347
 1532TIP3    H2 4603   4.214   1.002   3.369  0.9296  0.4398 -0.7103
 1533TIP3   OH2 4604   0.026   0.490   4.438 -0.0302  0.4573  0.0347
 1533TIP3    H1 4605   0.005   0.466   4.348  1.2156  1.7115 -0.6111
 1533TIP3    H2 4606   0.106   0.542   4.431 -0.8435  2.0133  1.6758
 1534TIP3   OH2 4607   3.446   1.069   3.134  0.2676  0.7113  0.6336
 1534TIP3    H1 4608   3.370   1.040   3.085  1.2125  0.0464 -0.4658
 1534TIP3    H2 4609   3.432   1.036   3.223 -0.6708  0.5147  0.4138
 1535TIP3   OH2 4610   2.296   0.337   1.944  0.3183  0.0280 -0.2389
 1535TIP3    H1 4611   2.347   0.269   1.987 -0.2040  0.8512  1.7277
 1535TIP3    H2 4612   2.249   0.380   2.015 -1.8347  0.3535 -1.8371
 1536TIP3   OH2 4613   3.629   1.618   1.624  0.0026 -0.4808 -0.0185
 1536TIP3    H1 4614   3.644   1.576   1.709 -1.0502 -1.6298 -0.3878
 1536TIP3    H2 4615   3.535   1.610   1.609  0.1473 -0.1020 -1.1974
 1537TIP3   OH2 4616   2.079   1.580   5.100  0.7712 -0.2084 -0.2178
 1537TIP3    H1 4617   2.087   1.601   5.193 -0.3683  0.1682 -0.1852
 1537TIP3    H2 4618   1.991   1.544   5.092  1.7827 -2.6207 -0.7377
 1538TIP3   OH2 4619   2.295   1.596   2.926  0.1450  0.2569  0.2494
 1538TIP3    H1 4620   2.219   1.576   2.872 -0.7603  1.0558  1.2226
 1538TIP3    H2 4621   2.358   1.527   2.905 -0.5875 -0.0232 -1.0564
 1539TIP3   OH2 4622   3.771   0.204   4.886 -0.3665  0.0812 -0.6969
 1539TIP3    H1 4623   3.700   0.157   4.929 -0.5063  0.3259 -0.6574
 1539TIP3    H2 4624   3.727   0.256   4.818 -0.0255 -1.2343 -1.9472
 1540TIP3   OH2 4625   1.032   2.755   3.503  0.2974 -0.0920 -0.0317
 1540TIP3    H1 4626   0.990   2.670   3.500 -1.8900  0.9511  0.2060
 1540TIP3    H2 4627   1.122   2.739   3.472 -0.3292 -2.2961 -0.7750
 1541TIP3   OH2 4628   5.052   5.051   1.630  0.3678  0.1174  0.2481
 1541TIP3    H1 4629   5.094   4.974   1.590  1.0290  0.8598 -0.5046
 1541TIP3    H2 4630   4.991   5.082   1.563  2.7148  2.3947 -0.9318
 1542TIP3   OH2 4631   6.197   5.983   4.252  0.0036  0.2116  0.0359
 1542TIP3    H1 4632   6.124   5.940   4.297  1.2706 -1.0578  0.8844
 1542TIP3    H2 4633   6.276   5.944   4.289  1.1414  1.5869 -0.8621
 1543TIP3   OH2 4634   1.715   1.663   3.081  0.1336  0.0258  0.2527
 1543TIP3    H1 4635   1.807   1.641   3.065  0.1839  0.2582  0.2196
 1543TIP3    H2 4636   1.708   1.755   3.055  0.3304  0.5640  2.0749
 1544TIP3   OH2 4637   1.897   0.247   3.841  0.3807 -0.2106  0.2100
 1544TIP3    H1 4638   1.910   0.201   3.924  1.8509  1.0632  0.7184
 1544TIP3    H2 4639   1.912   0.181   3.774  0.0339 -1.0493  0.9419
 1545TIP3   OH2 4640   3.450   2.999   3.119  0.3084  0.1009 -0.0221
 1545TIP3    H1 4641   3.462   3.013   3.213  0.5126  1.2361 -0.2086
 1545TIP3    H2 4642   3.510   2.928   3.098 -0.8755 -1.2158  0.9955
 1546TIP3   OH2 4643   2.571   1.738   3.861  0.0345 -0.6409  0.5118
 1546TIP3    H1 4644   2.637   1.782   3.807 -0.5450 -0.6615 -0.2315
 1546TIP3    H2 4645   2.491   1.787   3.844  0.0706  0.0106  2.1943
 1547TIP3   OH2 4646   2.491   2.054   3.385 -0.2681  0.0798 -0.4350
 1547TIP3    H1 4647   2.426   2.111   3.427 -1.4960 -1.3193 -0.4166
 1547TIP3    H2 4648   2.483   2.074   3.292  0.9609  1.6240 -0.2406
 1548TIP3   OH2 4649   2.161   1.638   4.774 -0.3747 -0.0387 -0.2354
 1548TIP3    H1 4650   2.217   1.602   4.705 -2.0378 -0.1317 -1.5835
 1548TIP3    H2 4651   2.178   1.583   4.850  2.2939  0.7264 -0.2322
 1549TIP3   OH2 4652   1.709   1.231   3.796 -0.1006  0.2275  0.2034
 1549TIP3    H1 4653   1.674   1.194   3.715  2.4949 -1.3120 -0.2488
 1549TIP3    H2 4654   1.707   1.159   3.859  1.0858  0.4626  0.5217
 1550TIP3   OH2 4655   2.762   5.975   0.914 -0.8590  0.1564 -0.1974
 1550TIP3    H1 4656   2.832   5.979   0.979  0.8245 -1.5740 -1.8172
 1550TIP3    H2 4657   2.725   5.887   0.925 -0.8788  0.0295 -1.2589
 1551TIP3   OH2 4658   2.637   1.469   1.522 -0.3686  0.4051  0.3623
 1551TIP3    H1 4659   2.690   1.408   1.574 -0.5148  0.5323  0.6583
 1551TIP3    H2 4660   2.582   1.514   1.585  0.6615  1.7800  0.3028
 1552TIP3   OH2 4661   5.553   4.263   4.638  0.4928 -0.2777  0.1294
 1552TIP3    H1 4662   5.501   4.186   4.616  0.2310  0.3744 -1.6387
 1552TIP3    H2 4663   5.635   4.251   4.591 -0.2786  1.3854 -1.7285
 1553TIP3   OH2 4664   4.606   0.312   4.327 -0.2905 -0.1187  0.0132
 1553TIP3    H1 4665   4.604   0.400   4.365 -0.0824 -0.5940  1.1676
 1553TIP3    H2 4666   4.676   0.315   4.262 -0.5612  0.6800 -0.2430
 1554TIP3   OH2 4667   3.742   3.163   1.858  0.0931  0.4188  0.5740
 1554TIP3    H1 4668   3.796   3.242   1.864  1.3530 -0.3236 -0.6221
 1554TIP3    H2 4669   3.752   3.134   1.767 -0.7804 -0.8319  0.8598
 1555TIP3   OH2 4670   4.469   2.760   2.643  0.4462 -0.1472 -0.0099
 1555TIP3    H1 4671   4.418   2.778   2.722 -1.9700 -0.1019 -1.5341
 1555TIP3    H2 4672   4.542   2.706   2.673 -0.2583  0.1532  2.3027
 1556TIP3   OH2 4673   5.706   1.377   4.701 -0.3803 -0.0495 -0.5211
 1556TIP3    H1 4674   5.790   1.337   4.679 -0.1414  1.1525 -1.8432
 1556TIP3    H2 4675   5.644   1.340   4.639 -0.7108 -0.4660  0.0534
 1557TIP3   OH2 4676   3.948   5.297   2.258  0.1576 -0.1640  0.1767
 1557TIP3    H1 4677   3.907   5.299   2.344 -0.4051 -0.8861 -0.0739
 1557TIP3    H2 4678   3.958   5.389   2.234 -0.0085  0.0307  0.8593
 1558TIP3   OH2 4679   5.556   0.905   3.115 -0.3717  0.5854 -0.5586
 1558TIP3    H1 4680   5.583   0.921   3.205  0.0726  1.3651 -0.8257
 1558TIP3    H2 4681   5.593   0.819   3.094 -0.9350  0.1557  0.1730
 1559TIP3   OH2 4682   5.158   1.453   4.470  0.8089 -0.4448  0.7182
 1559TIP3    H1 4683   5.217   1.499   4.530  0.5337  0.7981  0.0606
 1559TIP3    H2 4684   5.087   1.515   4.454  0.3445 -1.1669 -0.0655
 1560TIP3   OH2 4685   4.342   2.360   3.488 -0.0985 -0.5192 -0.3883
 1560TIP3    H1 4686   4.265   2.415   3.471 -0.2944 -0.9438 -0.9073
 1560TIP3    H2 4687   4.405   2.418   3.529 -1.4301 -0.6216  1.9264
 1561TIP3   OH2 4688   3.658   1.526   3.205 -0.1838  0.3492  0.5762
 1561TIP3    H1 4689   3.593   1.596   3.216 -0.9289 -0.1934 -0.3030
 1561TIP3    H2 4690   3.609   1.453   3.168  1.0142  0.0624 -0.4728
 1562TIP3   OH2 4691   3.921   1.204   3.095  0.3156 -0.4590  0.3050
 1562TIP3    H1 4692   3.833   1.191   3.060  0.8460  1.0090 -1.6251
 1562TIP3    H2 4693   3.967   1.122   3.074  0.5240  0.2738 -2.1476
 1563TIP3   OH2 4694   4.921   0.383   4.746 -1.3565  0.0006  0.2853
 1563TIP3    H1 4695   4.866   0.453   4.711 -3.0375 -1.5848 -0.3239
 1563TIP3    H2 4696   4.914   0.394   4.841  0.4465  2.1920  0.1997
 1564TIP3   OH2 4697   4.785   0.375   2.061  0.2722  0.1687 -0.1600
 1564TIP3    H1 4698   4.743   0.302   2.016  2.6517 -1.0207 -0.5669
 1564TIP3    H2 4699   4.716   0.413   2.115 -1.1622 -2.0515 -0.3550
 1565TIP3   OH2 4700   0.197   5.465   0.708 -0.5092 -0.2014 -0.1078
 1565TIP3    H1 4701   0.207   5.528   0.779 -0.9590 -2.2692  1.8138
 1565TIP3    H2 4702   0.113   5.422   0.724  0.0185 -1.6538 -1.0972
 1566TIP3   OH2 4703   2.685   5.987   3.074 -0.0834 -0.8235  0.0232
 1566TIP3    H1 4704   2.694   5.953   3.163  0.7317 -1.3386 -0.2477
 1566TIP3    H2 4705   2.638   5.919   3.027 -0.3888 -0.6125  0.0211
 1567TIP3   OH2 4706   5.124   2.277   2.641  0.2130  0.0410 -0.3893
 1567TIP3    H1 4707   5.139   2.193   2.597 -1.0292 -1.4658  1.9544
 1567TIP3    H2 4708   5.099   2.336   2.571  0.0839 -1.8211 -1.9726
 1568TIP3   OH2 4709   4.632   1.400   2.629  0.0982  0.2750 -0.1167
 1568TIP3    H1 4710   4.677   1.321   2.599  2.5064  1.5364  0.1061
 1568TIP3    H2 4711   4.564   1.367   2.688  0.7521 -1.6418 -0.3868
 1569TIP3   OH2 4712   5.455   1.894   1.731  0.2078  0.3663 -0.3253
 1569TIP3    H1 4713   5.531   1.862   1.780 -0.6839  2.6809  2.7655
 1569TIP3    H2 4714   5.381   1.877   1.790 -0.9966  2.6710 -1.1555
 1570TIP3   OH2 4715   0.071   0.896   2.523 -0.0357  0.1141  0.5197
 1570TIP3    H1 4716   0.005   0.923   2.459  0.5221 -0.0841 -0.1488
 1570TIP3    H2 4717   0.045   0.808   2.548 -0.6547  0.4569  1.1020
 1571TIP3   OH2 4718   2.225   5.698   3.373 -0.0365  0.3162  0.2939
 1571TIP3    H1 4719   2.177   5.622   3.341 -0.4270 -0.3833  2.5010
 1571TIP3    H2 4720   2.318   5.674   3.365 -0.0843  0.5396 -1.1866
 1572TIP3   OH2 4721   4.521   0.981   3.540 -0.5073 -0.5045 -0.2897
 1572TIP3    H1 4722   4.437   0.962   3.498 -0.4924  0.6208 -0.8336
 1572TIP3    H2 4723   4.538   0.903   3.594 -1.2127 -1.3491 -1.2545
 1573TIP3   OH2 4724   5.378   5.617   4.018 -0.0891  0.1043 -0.2277
 1573TIP3    H1 4725   5.302   5.622   3.959  0.5811 -1.5302 -1.2684
 1573TIP3    H2 4726   5.441   5.678   3.980  0.4029 -1.0642 -1.3335
 1574TIP3   OH2 4727   4.648   1.116   4.219  0.1303 -0.0544  0.4686
 1574TIP3    H1 4728   4.574   1.164   4.182  0.4356  0.1671  0.1493
 1574TIP3    H2 4729   4.616   1.084   4.304 -0.9793 -1.5762 -0.4999
 1575TIP3   OH2 4730   4.066   0.602   3.015 -0.0644 -0.4354  0.1883
 1575TIP3    H1 4731   4.048   0.526   3.071 -1.2176  0.0442  0.4869
 1575TIP3    H2 4732   4.114   0.662   3.071 -0.1980 -0.4445  0.3127
 1576TIP3   OH2 4733   3.313   1.899   3.019 -0.3840  0.1799  0.5302
 1576TIP3    H1 4734   3.242   1.891   2.954  0.9550 -0.3854 -0.8885
 1576TIP3    H2 4735   3.330   1.809   3.046  1.0219  0.1221 -0.4992
 1577TIP3   OH2 4736   4.238   0.237   5.239  0.3829 -0.6130 -0.4498
 1577TIP3    H1 4737   4.153   0.192   5.238  0.6635 -1.1342 -1.9527
 1577TIP3    H2 4738   4.270   0.225   5.329 -1.0643 -0.5217  0.1022
 1578TIP3   OH2 4739   3.679   1.123   3.005 -0.2516 -0.8920 -0.1157
 1578TIP3    H1 4740   3.614   1.092   3.068  1.8249 -3.8134  0.7323
 1578TIP3    H2 4741   3.667   1.067   2.928  0.4289 -0.6592 -0.3969
 1579TIP3   OH2 4742   4.650   0.030   4.331 -0.4435  0.4389  0.4503
 1579TIP3    H1 4743   4.739   0.007   4.306 -0.4113  0.5103  0.4988
 1579TIP3    H2 4744   4.627   0.103   4.272 -1.2210 -0.9407 -0.9829
 1580TIP3   OH2 4745   2.495   5.117   1.103  0.4023 -0.2096 -0.0879
 1580TIP3    H1 4746   2.533   5.031   1.084 -0.1614 -0.9132  1.9068
 1580TIP3    H2 4747   2.488   5.120   1.198 -4.5104 -0.1239 -0.3246
 1581TIP3   OH2 4748   1.314   3.178   5.043  0.0465  0.9565  0.0201
 1581TIP3    H1 4749   1.386   3.203   5.102  0.8559  0.0815 -0.5851
 1581TIP3    H2 4750   1.240   3.231   5.072  0.2030 -0.0356  2.3391
 1582TIP3   OH2 4751   0.850   1.177   4.164 -0.1833 -0.0605 -0.2678
 1582TIP3    H1 4752   0.830   1.083   4.168  2.4633 -0.7540 -1.9199
 1582TIP3    H2 4753   0.856   1.196   4.070  3.3829  0.7773  0.0467
 1583TIP3   OH2 4754   5.305   0.331   3.476  0.4507  0.1960 -0.2337
 1583TIP3    H1 4755   5.326   0.300   3.388 -0.4903 -2.0896  0.3170
 1583TIP3    H2 4756   5.388   0.325   3.524  0.5939 -0.1420 -0.5191
 1584TIP3   OH2 4757   6.242   3.002   1.238 -0.1128 -0.0562  0.2010
 1584TIP3    H1 4758   6.293   3.071   1.280 -0.0147  1.2040 -1.8987
 1584TIP3    H2 4759   6.286   2.988   1.154 -0.6910 -2.0140  0.1992
 1585TIP3   OH2 4760   3.120   0.793   3.372 -1.0283 -0.3866 -0.1021
 1585TIP3    H1 4761   3.042   0.848   3.367  1.2975  2.8939 -1.0923
 1585TIP3    H2 4762   3.167   0.824   3.450 -0.6777 -2.3528  0.5045
 1586TIP3   OH2 4763   5.787   1.073   4.813  0.4431 -0.1336 -0.7775
 1586TIP3    H1 4764   5.833   0.991   4.797  2.7850  1.1725 -0.8925
 1586TIP3    H2 4765   5.816   1.131   4.744 -1.1246  0.8479 -0.6326
 1587TIP3   OH2 4766   4.434   2.659   3.246 -0.1438  0.3009  0.5989
 1587TIP3    H1 4767   4.521   2.626   3.266  0.0662  0.8768  0.6701
 1587TIP3    H2 4768   4.394   2.674   3.332 -0.6585 -0.8424  0.5611
 1588TIP3   OH2 4769   3.238   1.773   3.795 -0.0734  0.0409 -0.1341
 1588TIP3    H1 4770   3.262   1.733   3.879  0.8749 -0.1067 -0.4738
 1588TIP3    H2 4771   3.241   1.867   3.813  1.0185  0.0340 -0.2327
 1589TIP3   OH2 4772   2.538   0.458   1.537 -0.1530  0.1909  0.1848
 1589TIP3    H1 4773   2.452   0.450   1.578  0.9744 -2.1735  2.1689
 1589TIP3    H2 4774   2.547   0.379   1.485  2.0491 -1.0588  2.3932
 1590TIP3   OH2 4775   1.758   1.859   3.693  0.1462 -0.4134  0.4769
 1590TIP3    H1 4776   1.813   1.781   3.698  0.9184  0.0808 -0.0740
 1590TIP3    H2 4777   1.768   1.901   3.779  0.2561 -0.5744  0.5431
 1591TIP3   OH2 4778   3.701   0.423   3.485 -0.4533 -0.0312  0.2871
 1591TIP3    H1 4779   3.655   0.341   3.470  0.5617 -0.6041  0.2965
 1591TIP3    H2 4780   3.681   0.476   3.408 -1.5820 -0.0570  0.5442
 1592TIP3   OH2 4781   6.214   3.967   0.900  0.7204 -0.0553 -0.0126
 1592TIP3    H1 4782   6.184   3.974   0.990  1.1915  0.1170  0.1283
 1592TIP3    H2 4783   6.221   4.057   0.869  0.4415 -0.1161 -0.2633
 1593TIP3   OH2 4784   5.765   1.355   1.512 -0.5855 -0.2449 -0.2038
 1593TIP3    H1 4785   5.677   1.365   1.548 -0.0322 -1.5179  1.5351
 1593TIP3    H2 4786   5.821   1.339   1.587  1.0151 -0.3161 -1.3762
 1594TIP3   OH2 4787   2.277   4.783   4.283  0.2046  0.5329  0.1817
 1594TIP3    H1 4788   2.234   4.774   4.198 -0.2093 -0.1970  0.4632
 1594TIP3    H2 4789   2.370   4.767   4.265  0.1985  0.9139 -0.2178
 1595TIP3   OH2 4790   4.059   0.187   3.004  0.1422 -0.3867  0.0306
 1595TIP3    H1 4791   3.970   0.171   2.970 -0.1728  1.2948  0.0182
 1595TIP3    H2 4792   4.096   0.251   2.943  0.0706  1.6223  2.0475
 1596TIP3   OH2 4793   5.903   1.210   4.600  0.0935 -0.1748  0.0947
 1596TIP3    H1 4794   5.998   1.214   4.616 -0.1030  0.0778  1.2290
 1596TIP3    H2 4795   5.895   1.178   4.510  1.3817  4.4592 -1.8194
 1597TIP3   OH2 4796   5.229   2.302   5.053 -0.0483 -0.3245  0.0610
 1597TIP3    H1 4797   5.180   2.313   4.972  0.0068 -1.9888 -0.2134
 1597TIP3    H2 4798   5.316   2.273   5.025  0.7836  1.5325  0.5997
 1598TIP3   OH2 4799   0.882   5.034   0.360  0.3746 -0.2636  0.1535
 1598TIP3    H1 4800   0.790   5.061   0.350  0.2950 -1.2540 -2.2933
 1598TIP3    H2 4801   0.920   5.100   0.417 -1.8174  0.2862  1.0400
 1599TIP3   OH2 4802   4.297   1.446   2.922  0.1819 -1.0808  0.2686
 1599TIP3    H1 4803   4.250   1.492   2.852 -0.5091 -1.4151  0.4993
 1599TIP3    H2 4804   4.264   1.485   3.003  2.4568  0.7059  0.3856
 1600TIP3   OH2 4805   5.800   5.921   5.032  0.7296 -0.6211 -0.2562
 1600TIP3    H1 4806   5.869   5.977   5.069  0.1303  0.2767 -0.4859
 1600TIP3    H2 4807   5.845   5.839   5.011  1.5949 -0.2693  0.1912
 1601TIP3   OH2 4808   4.195   2.934   2.447  0.0630  0.3134  0.4782
 1601TIP3    H1 4809   4.116   2.976   2.481 -0.3041 -0.3399  0.4516
 1601TIP3    H2 4810   4.206   2.856   2.503  0.4026  0.1326  0.1608
 1602TIP3   OH2 4811   4.026   1.835   2.584  0.3350 -0.3942  0.0185
 1602TIP3    H1 4812   3.933   1.827   2.604  0.3984 -0.1838  0.4018
 1602TIP3    H2 4813   4.028   1.879   2.498  0.1028  1.1642  0.7948
 1603TIP3   OH2 4814   0.588   2.719   0.124 -0.1863 -0.2011 -0.3784
 1603TIP3    H1 4815   0.518   2.654   0.113  0.7637 -1.2680 -0.2027
 1603TIP3    H2 4816   0.617   2.737   0.035  0.0171 -0.5434 -0.3838
 1604TIP3   OH2 4817   4.657   1.803   2.960  0.6203  0.5380  0.4534
 1604TIP3    H1 4818   4.696   1.741   3.021 -0.6355  1.1903  1.9737
 1604TIP3    H2 4819   4.564   1.806   2.986 -0.1778 -0.0657 -2.2518
 1605TIP3   OH2 4820   5.599   5.235   0.293  0.0225 -0.4042  0.0891
 1605TIP3    H1 4821   5.646   5.152   0.299 -0.0949 -0.4031  1.3467
 1605TIP3    H2 4822   5.552   5.241   0.377 -0.7598  0.4518 -0.4045
 1606TIP3   OH2 4823   4.457   2.051   3.020 -0.2301 -0.3206  0.1187
 1606TIP3    H1 4824   4.406   1.986   2.971 -0.4971  0.2137 -0.3093
 1606TIP3    H2 4825   4.479   2.006   3.102  2.0249 -1.9663 -1.3453
 1607TIP3   OH2 4826   5.661   2.074   3.541 -0.2591 -0.3806 -0.6178
 1607TIP3    H1 4827   5.718   2.000   3.563 -0.9282 -0.7216  0.0045
 1607TIP3    H2 4828   5.590   2.036   3.490 -2.1277 -0.6851  2.0923
 1608TIP3   OH2 4829   4.856   5.411   1.856 -0.4104 -0.1295 -0.2381
 1608TIP3    H1 4830   4.841   5.476   1.788 -0.1271  1.5433  1.2441
 1608TIP3    H2 4831   4.786   5.347   1.845 -3.9167  3.2216  1.5231
 1609TIP3   OH2 4832   3.717   1.934   3.014 -0.0685  0.2599 -0.2002
 1609TIP3    H1 4833   3.645   1.913   3.073  0.6193  0.5722  0.7589
 1609TIP3    H2 4834   3.744   2.023   3.038  1.1623 -0.1532  0.0193
 1610TIP3   OH2 4835   4.429   1.603   4.731 -0.0257  0.3494 -0.1789
 1610TIP3    H1 4836   4.369   1.647   4.792 -0.0571  0.7850 -0.5238
 1610TIP3    H2 4837   4.505   1.661   4.726  0.1094  0.1596 -0.3088
 1611TIP3   OH2 4838   4.428   1.257   1.741  0.3792  0.3683 -0.6199
 1611TIP3    H1 4839   4.468   1.214   1.817  0.9076  0.3253 -0.9245
 1611TIP3    H2 4840   4.373   1.326   1.779 -0.9657 -0.9493 -0.0911
 1612TIP3   OH2 4841   4.297   0.031   1.831 -0.5091  0.2740 -0.2629
 1612TIP3    H1 4842   4.210   0.072   1.826 -1.1523 -0.8983  0.9513
 1612TIP3    H2 4843   4.357   0.099   1.800 -1.7736  1.4058 -0.2904
 1613TIP3   OH2 4844   1.064   5.876   2.522 -0.2709 -0.9515  0.3500
 1613TIP3    H1 4845   1.062   5.950   2.583  1.3905  0.7177 -1.5192
 1613TIP3    H2 4846   0.993   5.894   2.461  0.4204 -0.6504 -0.3722
 1614TIP3   OH2 4847   1.540   5.094   2.042  0.1230  0.2937 -0.0612
 1614TIP3    H1 4848   1.599   5.020   2.025 -0.8166 -0.2503 -1.0230
 1614TIP3    H2 4849   1.459   5.053   2.070  0.2582  1.0516  1.4696
 1615TIP3   OH2 4850   5.537   2.136   3.833  0.5697 -0.1560  0.1437
 1615TIP3    H1 4851   5.585   2.071   3.782  1.1430  2.7163 -3.1916
 1615TIP3    H2 4852   5.601   2.170   3.895  0.3711 -2.4154  1.6405
 1616TIP3   OH2 4853   4.229   1.595   3.485  0.0191  0.8624  0.0181
 1616TIP3    H1 4854   4.168   1.536   3.530 -0.2117 -1.0663 -2.6565
 1616TIP3    H2 4855   4.172   1.653   3.433  0.3303  1.9145  0.8415
 1617TIP3   OH2 4856   1.875   5.821   1.471 -0.0275  0.4428  0.3695
 1617TIP3    H1 4857   1.950   5.774   1.435 -0.0008 -0.8387  2.0493
 1617TIP3    H2 4858   1.908   5.861   1.551 -1.1044  0.0122  1.0281
 1618TIP3   OH2 4859   0.361   3.338   5.134  0.1246  0.2942 -0.0125
 1618TIP3    H1 4860   0.319   3.299   5.057 -0.2254  1.5750 -0.5024
 1618TIP3    H2 4861   0.376   3.265   5.193  1.0689 -0.8344 -1.6001
 1619TIP3   OH2 4862   5.236   1.087   4.188  0.0383  0.1248 -0.2981
 1619TIP3    H1 4863   5.201   1.167   4.149  1.6889  1.7116  1.3687
 1619TIP3    H2 4864   5.159   1.041   4.221 -0.8184  1.8399  0.1609
 1620TIP3   OH2 4865   4.025   0.357   2.479 -0.0721 -0.1296  0.5415
 1620TIP3    H1 4866   4.043   0.264   2.492 -1.6300 -0.6817 -0.9739
 1620TIP3    H2 4867   3.931   0.366   2.498  0.6342  1.6717  3.3914
 1621TIP3   OH2 4868   5.203   0.374   4.800  0.0057 -0.2411  0.3454
 1621TIP3    H1 4869   5.255   0.297   4.775  1.1174  0.7128 -0.3405
 1621TIP3    H2 4870   5.113   0.351   4.775  0.4872 -0.9217 -0.8187
 1622TIP3   OH2 4871   5.942   4.847   0.419 -0.0495  0.1495 -0.0285
 1622TIP3    H1 4872   5.873   4.839   0.485 -0.0725  1.5575  0.1278
 1622TIP3    H2 4873   5.939   4.939   0.392  1.8364  0.2568  0.0705
 1623TIP3   OH2 4874   5.632   0.549   2.601 -0.4840 -0.1299  0.1889
 1623TIP3    H1 4875   5.694   0.498   2.653  0.6350 -2.0744 -2.8834
 1623TIP3    H2 4876   5.557   0.491   2.589 -1.4696  0.9489  1.0479
 1624TIP3   OH2 4877   5.189   0.034   0.134 -0.1156 -0.5024 -0.1647
 1624TIP3    H1 4878   5.220   0.086   0.208  0.8504  0.1883 -1.0483
 1624TIP3    H2 4879   5.121   0.089   0.094 -0.5069 -0.7970  0.0877
 1625TIP3   OH2 4880   6.351   1.986   2.335 -0.1006  0.5245  0.0695
 1625TIP3    H1 4881   6.368   2.077   2.361  0.6517  0.6205 -0.7147
 1625TIP3    H2 4882   6.391   1.934   2.405  0.9526  0.7907 -0.3198
 1626TIP3   OH2 4883   5.193   0.440   4.054  0.2961  0.5325 -0.6009
 1626TIP3    H1 4884   5.190   0.352   4.017 -0.5351  1.0833 -1.8638
 1626TIP3    H2 4885   5.146   0.434   4.137  0.6877 -0.3219 -0.4427
 1627TIP3   OH2 4886   1.125   5.943   1.794 -0.6668  0.1442 -0.1595
 1627TIP3    H1 4887   1.149   5.936   1.886 -1.4836 -1.2567 -0.0299
 1627TIP3    H2 4888   1.058   6.011   1.791  1.9336  2.7698 -0.2665
 1628TIP3   OH2 4889   4.321   2.294   3.215  0.1818  0.3772 -0.0257
 1628TIP3    H1 4890   4.411   2.310   3.186  1.1744 -1.3871  1.8731
 1628TIP3    H2 4891   4.324   2.308   3.310 -1.3907 -0.4025  0.1534
 1629TIP3   OH2 4892   4.742   1.512   1.072 -0.0078  0.1848  0.0788
 1629TIP3    H1 4893   4.806   1.566   1.026 -0.4465  0.5730 -0.0947
 1629TIP3    H2 4894   4.680   1.576   1.109 -0.5581 -0.1974 -0.1684
 1630TIP3   OH2 4895   1.311   5.928   4.463 -0.3712 -0.3590  0.1309
 1630TIP3    H1 4896   1.310   6.018   4.429  1.3552 -0.1708  0.5120
 1630TIP3    H2 4897   1.220   5.910   4.486 -0.5245  1.7900  1.3408
 1631TIP3   OH2 4898   0.113   2.436   2.538  0.4437 -0.1088  0.5583
 1631TIP3    H1 4899   0.200   2.407   2.513  0.2425 -2.2781  2.2273
 1631TIP3    H2 4900   0.107   2.526   2.505  2.2356 -0.8883 -2.0141
 1632TIP3   OH2 4901   2.755   6.051   4.249  0.0710 -0.1067 -0.2600
 1632TIP3    H1 4902   2.766   6.034   4.155 -0.1000  1.8006 -0.6397
 1632TIP3    H2 4903   2.779   5.968   4.291 -0.0429 -1.0480 -1.9900
 1633TIP3   OH2 4904   0.473   1.768   3.557  0.6830 -0.2845  0.1873
 1633TIP3    H1 4905   0.382   1.787   3.533  1.7419  2.6852 -1.7091
 1633TIP3    H2 4906   0.495   1.691   3.505 -0.9397 -1.4487  1.1830
 1634TIP3   OH2 4907   0.784   1.554   4.102 -1.0972  0.3462  0.2718
 1634TIP3    H1 4908   0.848   1.491   4.136 -1.1239  0.3646  0.3574
 1634TIP3    H2 4909   0.715   1.555   4.168 -2.3604 -1.4823 -0.9883
 1635TIP3   OH2 4910   5.738   2.321   4.420  0.1809  0.4105  0.1189
 1635TIP3    H1 4911   5.792   2.348   4.495  1.2143 -0.4444 -0.3088
 1635TIP3    H2 4912   5.663   2.379   4.424  0.9265  1.3534  0.9750
 1636TIP3   OH2 4913   4.916   2.312   3.150  0.2226  0.0281  0.2563
 1636TIP3    H1 4914   4.932   2.323   3.056  1.0565 -2.2304  0.1000
 1636TIP3    H2 4915   4.875   2.226   3.157  0.2494  0.1511  1.9598
 1637TIP3   OH2 4916   2.961   0.404   1.234 -0.4309  0.1055 -0.0318
 1637TIP3    H1 4917   2.884   0.357   1.264 -0.7790  0.4010 -0.4634
 1637TIP3    H2 4918   3.032   0.339   1.240 -0.4866  0.1559  1.4111
 1638TIP3   OH2 4919   2.205   0.206   1.707  0.1301  0.4942 -0.1676
 1638TIP3    H1 4920   2.219   0.251   1.791 -2.4301  0.0196  0.5475
 1638TIP3    H2 4921   2.159   0.270   1.653  0.9449  0.4675 -0.9028
 1639TIP3   OH2 4922   4.393   0.327   3.779 -0.2213 -0.7407 -0.0881
 1639TIP3    H1 4923   4.473   0.377   3.799 -0.0830 -1.1304  0.3192
 1639TIP3    H2 4924   4.411   0.239   3.810 -0.2859 -1.1711 -1.2580
 1640TIP3   OH2 4925   5.950   2.492   3.955  0.5284 -0.7790 -0.1955
 1640TIP3    H1 4926   5.933   2.555   4.025 -1.1858 -2.8613  1.3655
 1640TIP3    H2 4927   5.989   2.417   3.999  0.8021 -1.5583 -1.7205
 1641TIP3   OH2 4928   2.657   1.821   3.403 -0.0673 -0.0493 -0.0101
 1641TIP3    H1 4929   2.588   1.887   3.397 -0.1572 -0.0863  0.6385
 1641TIP3    H2 4930   2.735   1.865   3.368 -0.1243  0.3948  0.4210
 1642TIP3   OH2 4931   6.065   2.082   3.551 -0.8902  0.0254 -0.8975
 1642TIP3    H1 4932   6.010   2.106   3.477  0.3455  1.2344 -1.4429
 1642TIP3    H2 4933   6.140   2.141   3.545 -1.6430  1.3728  2.3795
 1643TIP3   OH2 4934   3.785   0.429   2.542  0.4404 -0.6298 -0.6494
 1643TIP3    H1 4935   3.693   0.430   2.568  0.8972 -1.0628  1.0660
 1643TIP3    H2 4936   3.818   0.515   2.566  0.5159 -0.5247 -1.1300
 1644TIP3   OH2 4937   5.826   1.185   2.879  0.1123  0.7221 -0.6898
 1644TIP3    H1 4938   5.914   1.174   2.914  1.5935  0.4200 -4.2987
 1644TIP3    H2 4939   5.819   1.120   2.809 -3.3277  0.1451  0.0911
 1645TIP3   OH2 4940   0.007   5.428   4.679 -0.1339  0.2897  0.4693
 1645TIP3    H1 4941  -0.027   5.347   4.639  0.9397  0.0602 -0.0002
 1645TIP3    H2 4942   0.081   5.398   4.732  0.3725  0.9863  0.1557
 1646TIP3   OH2 4943   1.426   4.930   4.854 -0.5115 -0.2737  0.5674
 1646TIP3    H1 4944   1.370   4.913   4.779 -2.0008 -0.3506  1.6745
 1646TIP3    H2 4945   1.393   5.012   4.891  0.4586 -0.0276  0.9251
 1647TIP3   OH2 4946   4.255   1.198   3.620 -0.1766 -0.4938  0.5716
 1647TIP3    H1 4947   4.330   1.255   3.604  0.4369 -1.2489  0.7174
 1647TIP3    H2 4948   4.233   1.211   3.712  0.6595 -1.3004  0.8966
 1648TIP3   OH2 4949   2.562   1.543   3.464  0.5101  0.0995 -0.0195
 1648TIP3    H1 4950   2.521   1.505   3.386  0.3835 -0.4410  0.3102
 1648TIP3    H2 4951   2.575   1.635   3.442  1.2202 -0.2269 -0.9949
 1649TIP3   OH2 4952   2.798   5.936   2.120 -0.3855 -0.4390 -0.4771
 1649TIP3    H1 4953   2.708   5.924   2.153 -0.1164 -0.8620  0.1167
 1649TIP3    H2 4954   2.836   6.001   2.179  0.2883 -1.6366  0.4099
 1650TIP3   OH2 4955   3.259   1.361   2.803  0.6576 -0.1491  1.0078
 1650TIP3    H1 4956   3.308   1.323   2.730 -1.9616 -0.0091 -0.8814
 1650TIP3    H2 4957   3.246   1.288   2.863 -0.1338 -1.1034 -0.3026
 1651TIP3   OH2 4958   3.604   1.221   1.679 -0.0345 -0.4260  0.2127
 1651TIP3    H1 4959   3.660   1.147   1.658  0.0890 -0.0086 -1.0222
 1651TIP3    H2 4960   3.569   1.249   1.594  2.3578  2.8456  0.1854
 1652TIP3   OH2 4961   0.299   0.746   1.073 -0.0259 -0.1163  0.2477
 1652TIP3    H1 4962   0.340   0.702   0.999  0.4706  1.6682 -0.5603
 1652TIP3    H2 4963   0.267   0.675   1.128 -0.8783 -1.4657 -1.9284
 1653TIP3   OH2 4964   2.873   1.271   3.364  0.3666 -0.1421 -0.1196
 1653TIP3    H1 4965   2.855   1.364   3.377 -0.1979 -0.0167 -1.6481
 1653TIP3    H2 4966   2.960   1.268   3.325  0.6076 -0.2949  0.4228
 1654TIP3   OH2 4967   3.552   3.648   1.661 -0.1725  0.1716  0.0505
 1654TIP3    H1 4968   3.594   3.562   1.657 -0.1856  0.2226 -2.6256
 1654TIP3    H2 4969   3.620   3.707   1.692  0.5101 -0.4350 -0.2857
 1655TIP3   OH2 4970   4.254   5.086   1.730  0.2916 -0.3645 -0.2970
 1655TIP3    H1 4971   4.186   5.100   1.797 -0.8838 -1.7314 -1.1718
 1655TIP3    H2 4972   4.333   5.123   1.769 -0.7780  0.5652  1.0754
 1656TIP3   OH2 4973   4.898   2.444   3.443 -0.5177  0.4143 -0.7762
 1656TIP3    H1 4974   4.885   2.441   3.348  1.6116  1.5763 -1.1319
 1656TIP3    H2 4975   4.905   2.352   3.469  0.7854  0.1267 -2.0536
 1657TIP3   OH2 4976   3.884   2.543   1.154 -0.2377  0.3375 -1.0367
 1657TIP3    H1 4977   3.901   2.481   1.083  0.2097 -0.4264 -0.2721
 1657TIP3    H2 4978   3.825   2.497   1.213  2.4549 -0.5335  1.0757
 1658TIP3   OH2 4979   1.816   5.102   2.256  0.1512  0.0445  0.3313
 1658TIP3    H1 4980   1.772   5.054   2.186  2.4174 -0.1934 -0.9837
 1658TIP3    H2 4981   1.767   5.183   2.265 -0.9342 -0.4919 -0.6450
 1659TIP3   OH2 4982   4.945   1.078   2.962  0.4876 -0.7293 -0.0531
 1659TIP3    H1 4983   4.891   1.117   3.031  0.5023 -2.0336  0.7139
 1659TIP3    H2 4984   5.033   1.111   2.980  0.6499 -1.7609  1.0977
 1660TIP3   OH2 4985   1.333   3.727   0.318  0.1780 -0.5208  0.3387
 1660TIP3    H1 4986   1.371   3.697   0.401 -1.1265  1.0692  1.5234
 1660TIP3    H2 4987   1.387   3.802   0.293  1.5021 -1.8862 -1.0533
 1661TIP3   OH2 4988   4.616   2.524   2.746 -0.3536  0.2831  0.0257
 1661TIP3    H1 4989   4.600   2.429   2.747 -1.6863  0.4884  1.0311
 1661TIP3    H2 4990   4.568   2.556   2.823  0.8427  1.6575  0.2177
 1662TIP3   OH2 4991   2.768   5.593   3.432 -0.3932  0.0020  0.6100
 1662TIP3    H1 4992   2.831   5.534   3.473 -0.1504 -0.3637 -0.2948
 1662TIP3    H2 4993   2.726   5.541   3.363  0.7307  1.2395 -1.0538
 1663TIP3   OH2 4994   5.445   1.203   4.284  0.2569 -0.5797 -0.8915
 1663TIP3    H1 4995   5.435   1.270   4.216 -1.8722  0.0828  0.0220
 1663TIP3    H2 4996   5.367   1.147   4.274  0.2405 -0.8341  0.5885
 1664TIP3   OH2 4997   6.375   5.153   2.264  0.7054  0.1799  0.3694
 1664TIP3    H1 4998   6.463   5.120   2.244  0.9430  1.5862 -0.9974
 1664TIP3    H2 4999   6.369   5.236   2.216 -1.1907  0.3401  0.8520
 1665TIP3   OH2 5000   1.261   2.475   4.824  0.1872 -0.9643 -0.3525
 1665TIP3    H1 5001   1.348   2.454   4.791  0.7485  0.4712  0.1808
 1665TIP3    H2 5002   1.224   2.535   4.759  0.1166 -0.5297  0.0862
 1666TIP3   OH2 5003   5.690   1.165   5.054 -0.3362  0.4062  0.8235
 1666TIP3    H1 5004   5.745   1.139   4.980  1.2701 -0.4625  2.2893
 1666TIP3    H2 5005   5.734   1.240   5.092  0.4891 -1.0099  2.7122
 1667TIP3   OH2 5006   1.837   0.244   0.244 -0.1902 -0.5365 -0.0420
 1667TIP3    H1 5007   1.841   0.235   0.149 -0.2055 -3.3635  0.1960
 1667TIP3    H2 5008   1.751   0.284   0.261 -0.6872 -1.1321 -1.1260
 1668TIP3   OH2 5009   1.495   3.399   1.436 -0.3210 -0.0311  0.5935
 1668TIP3    H1 5010   1.546   3.480   1.444 -3.5498  2.0964  0.3913
 1668TIP3    H2 5011   1.561   3.332   1.417  2.3981  2.5838  0.3249
 1669TIP3   OH2 5012   5.902   1.911   1.005  0.0184 -0.2921 -0.3941
 1669TIP3    H1 5013   5.972   1.913   0.940 -0.7131 -2.3293 -1.2885
 1669TIP3    H2 5014   5.839   1.976   0.975  0.8384  0.5145 -0.3741
 1670TIP3   OH2 5015   4.329   2.009   2.365  0.1347 -0.1688  1.2534
 1670TIP3    H1 5016   4.286   2.025   2.280 -0.6337  0.0495  1.6793
 1670TIP3    H2 5017   4.423   2.011   2.345  0.0014  1.7412  0.7143
 1671TIP3   OH2 5018   3.003   3.318   1.956 -0.2586  0.1116  0.5404
 1671TIP3    H1 5019   2.954   3.265   2.020 -1.4730 -1.6166 -1.7525
 1671TIP3    H2 5020   3.083   3.268   1.940  0.3181  0.8366  1.1247
 1672TIP3   OH2 5021   4.206   1.632   2.156 -0.1358  0.2475 -0.2742
 1672TIP3    H1 5022   4.154   1.642   2.076 -1.0384  1.6561  0.4554
 1672TIP3    H2 5023   4.141   1.627   2.226  0.6649 -0.1811  0.4453
 1673TIP3   OH2 5024   4.658   0.761   2.890 -0.2086  0.2557  0.0078
 1673TIP3    H1 5025   4.688   0.809   2.967 -0.1916  0.5039 -0.1538
 1673TIP3    H2 5026   4.580   0.808   2.861  0.7123  1.1277 -1.0921
 1674TIP3   OH2 5027   6.059   0.323   3.259  0.2177 -0.2442  0.5951
 1674TIP3    H1 5028   6.128   0.285   3.204  0.2837  0.9615 -0.1972
 1674TIP3    H2 5029   6.107   0.375   3.324  0.0625  0.9168 -0.2022
 1675TIP3   OH2 5030   1.842   1.296   2.905 -0.1211  0.7439 -0.7491
 1675TIP3    H1 5031   1.819   1.329   2.819  0.4125 -0.2921 -1.3012
 1675TIP3    H2 5032   1.785   1.219   2.917  0.0113  0.7152 -0.3087
 1676TIP3   OH2 5033   4.285   1.426   4.117 -0.7580 -0.3474  0.4291
 1676TIP3    H1 5034   4.217   1.479   4.075  0.0882  0.3381 -0.0951
 1676TIP3    H2 5035   4.325   1.484   4.181 -0.8494 -0.8364  0.9296
 1677TIP3   OH2 5036   0.228   2.220   4.355 -0.0412  0.3143 -0.1842
 1677TIP3    H1 5037   0.273   2.140   4.328 -0.0991  0.6109 -1.1846
 1677TIP3    H2 5038   0.284   2.290   4.323 -0.7696  0.6823 -0.6421
 1678TIP3   OH2 5039   5.709   0.949   2.408 -0.1129  0.2165 -0.1452
 1678TIP3    H1 5040   5.798   0.921   2.387 -0.1760 -0.9981  1.1205
 1678TIP3    H2 5041   5.664   0.949   2.324  0.1683 -2.5852 -0.3475
 1679TIP3   OH2 5042   4.440   1.531   3.283 -0.1541  0.4109 -1.1957
 1679TIP3    H1 5043   4.465   1.442   3.308  2.0453  1.6130  1.1597
 1679TIP3    H2 5044   4.368   1.554   3.342 -0.4479  0.3273 -1.5227
 1680TIP3   OH2 5045   6.006   0.352   0.046 -0.1400 -0.2083  0.1950
 1680TIP3    H1 5046   6.069   0.413   0.010  1.4545 -2.4648 -0.9604
 1680TIP3    H2 5047   5.938   0.407   0.086  1.9959  2.2454  0.5198
 1681TIP3   OH2 5048   5.552   0.883   4.473  0.1233 -0.1131  0.2088
 1681TIP3    H1 5049   5.464   0.918   4.462  0.7252  1.0125 -1.0803
 1681TIP3    H2 5050   5.610   0.956   4.452  1.3749 -1.0948  0.2093
 1682TIP3   OH2 5051   6.104   1.549   0.971 -0.3883  0.1283  0.1803
 1682TIP3    H1 5052   6.037   1.520   0.910  1.1911 -1.9415 -0.6258
 1682TIP3    H2 5053   6.090   1.496   1.050 -0.5328  0.6449  0.5056
 1683TIP3   OH2 5054   1.051   3.549   3.469 -0.6094  0.1292  0.5387
 1683TIP3    H1 5055   1.009   3.465   3.488 -0.6928 -0.2261 -1.1334
 1683TIP3    H2 5056   0.993   3.614   3.508 -0.9441 -0.5451  1.1790
 1684TIP3   OH2 5057   1.441   3.015   1.018 -0.2113  0.4103  0.0410
 1684TIP3    H1 5058   1.433   3.110   1.026 -1.3402  0.4829 -1.7911
 1684TIP3    H2 5059   1.357   2.981   1.050  0.5026 -0.0286  1.4830
 1685TIP3   OH2 5060   2.045   5.906   3.029  0.2695 -0.3477 -0.1607
 1685TIP3    H1 5061   1.951   5.889   3.027  0.0380  0.8141  0.3272
 1685TIP3    H2 5062   2.083   5.840   2.970 -0.6023 -2.2725  1.3693
 1686TIP3   OH2 5063   3.228   5.279   5.090  0.3031  0.4108 -0.3147
 1686TIP3    H1 5064   3.210   5.329   5.010  0.8717 -1.6930 -1.8020
 1686TIP3    H2 5065   3.297   5.217   5.065 -0.0396 -0.7889  1.5894
 1687TIP3   OH2 5066   3.438   5.144   4.953  0.6958  0.4316  0.3018
 1687TIP3    H1 5067   3.475   5.057   4.966  1.1718  0.9118  2.4739
 1687TIP3    H2 5068   3.515   5.201   4.942  0.4407  0.7736  0.2665
 1688TIP3   OH2 5069   2.009   4.430   0.317 -0.0457  0.5755 -0.4084
 1688TIP3    H1 5070   2.013   4.522   0.292 -0.7015  0.7998  0.3150
 1688TIP3    H2 5071   2.015   4.430   0.412 -1.6171 -0.0248 -0.2984
 1689TIP3   OH2 5072   3.018   0.875   1.243  0.1538  0.3298 -0.1417
 1689TIP3    H1 5073   2.964   0.817   1.296  0.3420 -0.2349 -0.5615
 1689TIP3    H2 5074   2.968   0.956   1.237 -1.0353 -0.4791 -1.2430
 1690TIP3   OH2 5075   4.467   1.082   4.871 -0.3554 -0.4673  0.0842
 1690TIP3    H1 5076   4.454   0.993   4.905  0.9597 -0.5185  0.4757
 1690TIP3    H2 5077   4.543   1.114   4.918 -0.0211  0.3867 -1.0341
 1691TIP3   OH2 5078   4.368   0.620   1.994 -0.2304 -0.1164 -0.2786
 1691TIP3    H1 5079   4.330   0.598   2.079 -1.1077  1.1433 -0.3315
 1691TIP3    H2 5080   4.294   0.648   1.941  0.3174 -0.8339 -1.4552
 1692TIP3   OH2 5081   1.342   3.446   4.006 -0.3657  0.0782 -0.5141
 1692TIP3    H1 5082   1.308   3.434   3.918  0.1670  2.3134 -1.0524
 1692TIP3    H2 5083   1.412   3.510   3.996 -0.3741  0.4410  1.5521
 1693TIP3   OH2 5084   5.868   4.411   3.107  0.0290 -0.2095  0.9005
 1693TIP3    H1 5085   5.866   4.451   3.020 -0.3353  1.1992  1.5323
 1693TIP3    H2 5086   5.776   4.400   3.131  0.0465  2.4957  2.4455
 1694TIP3   OH2 5087   4.257   2.195   1.590 -0.1505  0.1214  0.2575
 1694TIP3    H1 5088   4.172   2.237   1.582  0.1416  0.3939 -1.6572
 1694TIP3    H2 5089   4.289   2.222   1.676 -1.7870  0.3779  0.8044
 1695TIP3   OH2 5090   5.282   0.274   1.057  0.1507  0.0577 -0.4175
 1695TIP3    H1 5091   5.355   0.319   1.100 -1.6921  1.9828  0.8157
 1695TIP3    H2 5092   5.223   0.252   1.128  0.1205 -2.6945 -1.2530
 1696TIP3   OH2 5093   5.221   1.844   1.844 -0.7085  0.4543 -0.8589
 1696TIP3    H1 5094   5.212   1.791   1.923  0.0498  1.2307 -0.2448
 1696TIP3    H2 5095   5.191   1.931   1.870  1.4424  1.2286 -0.8458
 1697TIP3   OH2 5096   6.324   2.174   0.438 -0.4671  0.1939 -0.0299
 1697TIP3    H1 5097   6.379   2.180   0.360  0.1009 -1.1798  0.2541
 1697TIP3    H2 5098   6.359   2.239   0.498 -2.6663  3.2822 -1.9633
 1698TIP3   OH2 5099   4.394   0.151   3.415  0.0981  0.1517  0.1280
 1698TIP3    H1 5100   4.335   0.082   3.446  1.2482  0.3095  2.8386
 1698TIP3    H2 5101   4.362   0.230   3.459  1.9616  0.3297  1.1874
 1699TIP3   OH2 5102   0.668   3.026   3.191  0.2854  0.3438  1.1513
 1699TIP3    H1 5103   0.759   3.052   3.181 -0.0100  1.5046  1.3421
 1699TIP3    H2 5104   0.622   3.071   3.120  0.0625 -1.3372  0.2145
 1700TIP3   OH2 5105   0.039   2.774   1.036 -0.3899 -0.2356 -0.3409
 1700TIP3    H1 5106  -0.013   2.852   1.053 -1.0335 -0.5932 -0.6449
 1700TIP3    H2 5107   0.116   2.805   0.989 -0.2363  0.3201  0.2630
 1701TIP3   OH2 5108   0.818   4.776   4.955 -0.2401 -0.1326 -0.2940
 1701TIP3    H1 5109   0.858   4.692   4.935  0.5901  0.1634  0.1194
 1701TIP3    H2 5110   0.791   4.811   4.870  2.4416  0.7029 -0.8540
 1702TIP3   OH2 5111   4.215   0.202   1.307 -0.4795 -0.5852  0.5310
 1702TIP3    H1 5112   4.264   0.137   1.256  2.9218  1.1145  1.4459
 1702TIP3    H2 5113   4.181   0.263   1.242  2.5262  0.7096  0.0688
 1703TIP3   OH2 5114   3.553   0.711   1.807  0.6358  0.0781 -0.4303
 1703TIP3    H1 5115   3.486   0.644   1.795 -0.1146  0.9740 -1.3453
 1703TIP3    H2 5116   3.611   0.701   1.731  0.6003  0.3603 -0.4982
 1704TIP3   OH2 5117   5.218   1.066   3.570 -0.2887 -0.1267  0.2588
 1704TIP3    H1 5118   5.186   1.090   3.657 -0.2271  0.2565  0.1759
 1704TIP3    H2 5119   5.191   0.975   3.559  1.4184 -0.7951  1.4793
 1705TIP3   OH2 5120   6.059   5.832   3.740 -0.7230  0.4022 -0.1615
 1705TIP3    H1 5121   6.124   5.789   3.797 -2.5590 -0.4014  1.3826
 1705TIP3    H2 5122   6.038   5.913   3.785 -1.6072  0.1326 -0.0876
 1706TIP3   OH2 5123   3.571   6.001   2.381  0.5884 -0.5836 -1.0997
 1706TIP3    H1 5124   3.579   5.908   2.359 -1.6108 -1.0299 -0.1515
 1706TIP3    H2 5125   3.509   6.035   2.317  0.6744  0.0303 -0.8591
 1707TIP3   OH2 5126   3.316   3.848   1.472  0.3500 -0.1587 -0.2721
 1707TIP3    H1 5127   3.393   3.885   1.513  1.3794 -4.0531  1.5679
 1707TIP3    H2 5128   3.319   3.879   1.381  1.9464  2.7706  0.7156
 1708TIP3   OH2 5129   5.651   1.291   3.052 -0.2431  0.7093 -0.0131
 1708TIP3    H1 5130   5.721   1.241   3.011 -0.2580  0.8399 -0.1966
 1708TIP3    H2 5131   5.627   1.357   2.987 -0.0013  1.1608  0.3585
 1709TIP3   OH2 5132   3.650   5.312   4.896  0.0118  0.1051 -0.6863
 1709TIP3    H1 5133   3.669   5.404   4.881 -1.0861  0.3425 -0.6510
 1709TIP3    H2 5134   3.719   5.283   4.955  0.4971  0.8491 -0.8854
 1710TIP3   OH2 5135   3.063   5.947   4.409 -0.6360 -0.3110  0.2329
 1710TIP3    H1 5136   3.107   5.865   4.429 -0.1175  0.5636  2.9880
 1710TIP3    H2 5137   3.073   5.958   4.314  0.9867 -2.4317  0.1245
 1711TIP3   OH2 5138   0.062   4.182   0.228  0.1545 -0.0146 -0.1557
 1711TIP3    H1 5139   0.036   4.091   0.214  1.3719 -0.6757  1.7136
 1711TIP3    H2 5140   0.106   4.207   0.147 -0.2214 -1.0626 -0.6943
 1712TIP3   OH2 5141   4.863   4.346   3.869  0.0468  0.2528  0.6030
 1712TIP3    H1 5142   4.783   4.398   3.865 -2.1788 -3.1953 -1.4881
 1712TIP3    H2 5143   4.920   4.384   3.802 -1.7880 -0.2949 -1.3242
 1713TIP3   OH2 5144   4.056   1.601   1.878 -0.0116 -0.6140  0.2859
 1713TIP3    H1 5145   4.009   1.554   1.947 -2.4044  1.0064 -0.1664
 1713TIP3    H2 5146   3.991   1.615   1.809  1.7714 -0.3450 -1.3987
 1714TIP3   OH2 5147   3.200   1.882   3.483  0.0423 -0.0228  0.6711
 1714TIP3    H1 5148   3.198   1.796   3.440 -1.6720 -0.4365  1.5240
 1714TIP3    H2 5149   3.187   1.944   3.411  0.5531 -0.5151  0.1467
 1715TIP3   OH2 5150   3.040   5.927   3.768 -0.2044  0.2815  0.2218
 1715TIP3    H1 5151   2.981   5.944   3.694  0.6622 -0.8189 -0.7356
 1715TIP3    H2 5152   2.993   5.962   3.844 -1.3894  0.8555 -0.7496
 1716TIP3   OH2 5153   1.235   4.379   0.090 -0.3101  0.0061 -0.5588
 1716TIP3    H1 5154   1.292   4.302   0.095 -1.5052 -0.9479 -1.3556
 1716TIP3    H2 5155   1.168   4.356   0.025 -2.2335  0.6897  1.1272
 1717TIP3   OH2 5156   4.075   1.301   4.893  0.4232 -0.0210 -0.0081
 1717TIP3    H1 5157   4.133   1.316   4.968 -0.2581 -0.2290  0.5576
 1717TIP3    H2 5158   4.113   1.356   4.823  1.3189 -0.1771  0.3450
 1718TIP3   OH2 5159   2.750   1.624   2.216  0.1765  0.8863 -0.0696
 1718TIP3    H1 5160   2.838   1.636   2.181  0.4978  2.1338  1.0816
 1718TIP3    H2 5161   2.764   1.585   2.302 -0.3933  1.0161  0.0843
 1719TIP3   OH2 5162   1.526   5.482   4.125  0.2688 -0.2253  0.2124
 1719TIP3    H1 5163   1.508   5.576   4.137 -1.3808 -0.5043  0.0487
 1719TIP3    H2 5164   1.492   5.441   4.205 -0.3912 -0.8466 -0.3861
 1720TIP3   OH2 5165   3.760   5.918   4.205  0.3773  0.0686  0.8150
 1720TIP3    H1 5166   3.679   5.965   4.187  1.0963  1.0122  0.0037
 1720TIP3    H2 5167   3.732   5.827   4.217 -0.7852  0.3596  0.4001
 1721TIP3   OH2 5168   4.326   0.932   4.532 -0.0589 -0.0966 -0.3643
 1721TIP3    H1 5169   4.305   0.963   4.620  0.2023 -3.5625  0.9948
 1721TIP3    H2 5170   4.243   0.934   4.484 -0.7327 -0.5958  0.7672
 1722TIP3   OH2 5171   5.382   2.498   3.079  0.2230  0.4908  0.5500
 1722TIP3    H1 5172   5.304   2.506   3.134 -0.7891 -1.3752 -0.5884
 1722TIP3    H2 5173   5.351   2.518   2.991  1.5744  2.1750  0.4202
 1723TIP3   OH2 5174   3.118   1.804   1.594 -0.5597 -0.6276  0.0965
 1723TIP3    H1 5175   3.174   1.861   1.541 -0.3715 -1.7760 -0.9498
 1723TIP3    H2 5176   3.072   1.864   1.653  2.3884  0.2832  1.5737
 1724TIP3   OH2 5177   5.271   2.011   3.546  0.0806 -0.0078  0.3861
 1724TIP3    H1 5178   5.258   2.103   3.568  3.1154  0.5092  0.2677
 1724TIP3    H2 5179   5.316   2.012   3.462 -0.4625 -1.6180  0.0547
 1725TIP3   OH2 5180   2.696   2.732   2.671  0.1840 -0.5429  0.2959
 1725TIP3    H1 5181   2.742   2.791   2.731  0.3280 -1.4024  1.0533
 1725TIP3    H2 5182   2.611   2.719   2.712 -0.3926  0.3012 -0.6250
 1726TIP3   OH2 5183   0.013   5.818   2.045 -0.4867  0.1690  0.6291
 1726TIP3    H1 5184  -0.027   5.739   2.082 -0.5196  0.0736  0.3886
 1726TIP3    H2 5185   0.038   5.793   1.956 -1.4310  0.7427  0.1924
 1727TIP3   OH2 5186   2.877   1.139   0.882  0.2516  0.3408  0.3461
 1727TIP3    H1 5187   2.878   1.102   0.793 -0.0867  2.2073 -0.4483
 1727TIP3    H2 5188   2.815   1.083   0.930 -0.6103  0.1428 -0.9621
 1728TIP3   OH2 5189   5.374   0.774   3.830  0.0825  0.2699 -0.7123
 1728TIP3    H1 5190   5.377   0.869   3.820  1.0168  0.2693 -0.4779
 1728TIP3    H2 5191   5.442   0.741   3.771  1.3328 -0.1079  0.8975
 1729TIP3   OH2 5192   4.189   1.145   1.108 -0.0090  0.1973  0.3002
 1729TIP3    H1 5193   4.285   1.141   1.108 -0.0316 -0.7225 -0.9599
 1729TIP3    H2 5194   4.167   1.174   1.019 -0.9235 -0.2389  0.3850
 1730TIP3   OH2 5195   5.505   3.096   3.414  0.4318 -0.1146 -0.0534
 1730TIP3    H1 5196   5.577   3.158   3.424  0.5555 -0.4478  1.3593
 1730TIP3    H2 5197   5.483   3.098   3.321  1.6984  0.6214 -0.3476
 1731TIP3   OH2 5198   1.245   1.161   0.556 -0.4451  0.1803 -0.0043
 1731TIP3    H1 5199   1.319   1.147   0.497 -1.1387  1.0557 -1.1148
 1731TIP3    H2 5200   1.268   1.240   0.605 -0.1329 -0.2002  0.4530
 1732TIP3   OH2 5201   0.968   2.430   1.473 -0.2338 -0.0852 -0.3736
 1732TIP3    H1 5202   1.019   2.357   1.437 -0.5424 -1.3717  1.7145
 1732TIP3    H2 5203   0.945   2.402   1.561 -2.5067  1.4942 -0.4140
 1733TIP3   OH2 5204   5.495   6.093   3.433 -0.2044 -0.3069 -0.3892
 1733TIP3    H1 5205   5.468   6.167   3.488 -2.0099 -2.4487  1.7299
 1733TIP3    H2 5206   5.588   6.107   3.419  0.1604  0.7513  2.6562
 1734TIP3   OH2 5207   4.625   1.343   1.512 -0.3179 -0.5251  0.0616
 1734TIP3    H1 5208   4.581   1.427   1.529  0.8300  0.3350 -1.0573
 1734TIP3    H2 5209   4.580   1.280   1.569 -0.8016  0.9680  1.3747
 1735TIP3   OH2 5210   5.223   1.528   0.749 -0.4971 -0.9451  0.0428
 1735TIP3    H1 5211   5.164   1.594   0.712 -2.0693 -2.2814  0.1003
 1735TIP3    H2 5212   5.266   1.572   0.821  2.6127  1.7427 -3.2581
 1736TIP3   OH2 5213   5.512   1.400   1.666  0.1915 -0.2998 -0.0201
 1736TIP3    H1 5214   5.499   1.478   1.612 -0.5553  0.2576  0.9718
 1736TIP3    H2 5215   5.429   1.387   1.711  0.8089 -0.7858  0.9935
 1737TIP3   OH2 5216   5.232   0.563   3.091 -0.4289  0.8607 -0.5074
 1737TIP3    H1 5217   5.172   0.489   3.105 -0.9104  1.2536 -0.4692
 1737TIP3    H2 5218   5.219   0.618   3.168  0.5135  0.5849 -0.1522
 1738TIP3   OH2 5219   0.219   2.342   3.775  0.4529 -0.2345  0.1123
 1738TIP3    H1 5220   0.258   2.307   3.855  1.2100  0.5400  0.0893
 1738TIP3    H2 5221   0.292   2.355   3.715  0.2379  1.5452  0.1872
 1739TIP3   OH2 5222   0.132   1.066   0.963 -0.5322  0.0490 -0.2016
 1739TIP3    H1 5223   0.225   1.046   0.966 -0.4800  0.2404 -0.5986
 1739TIP3    H2 5224   0.113   1.107   1.048 -0.3415 -0.3564  0.0410
 1740TIP3   OH2 5225   5.824   2.026   1.439 -0.0146 -0.3140 -0.4121
 1740TIP3    H1 5226   5.857   1.949   1.393 -1.4517 -0.5878 -1.0323
 1740TIP3    H2 5227   5.812   1.996   1.529 -0.9996 -0.9700 -0.7465
 1741TIP3   OH2 5228   5.783   0.057   0.412 -0.0790  0.3419  0.6964
 1741TIP3    H1 5229   5.815   0.134   0.366 -1.0813  0.3144 -0.0885
 1741TIP3    H2 5230   5.822  -0.017   0.365 -3.1780  0.2097 -1.8859
 1742TIP3   OH2 5231   5.087   0.738   2.370 -0.3092 -0.0998 -0.2573
 1742TIP3    H1 5232   5.117   0.687   2.446 -1.8559 -1.0444 -0.2574
 1742TIP3    H2 5233   5.018   0.684   2.331  0.9283  0.0728 -2.7468
 1743TIP3   OH2 5234   0.889   2.620   1.994  0.3039  0.7183  0.8241
 1743TIP3    H1 5235   0.907   2.547   2.053  0.1878  0.7535  0.9035
 1743TIP3    H2 5236   0.802   2.602   1.960  1.1439 -0.3143 -0.8339
 1744TIP3   OH2 5237   5.360   0.050   3.909 -0.3545 -0.0704  0.7672
 1744TIP3    H1 5238   5.291   0.097   3.955  0.6774  3.9738 -1.5878
 1744TIP3    H2 5239   5.322   0.027   3.825  0.4020  0.1043  0.3712
 1745TIP3   OH2 5240   3.640   4.474   1.236  0.2985  0.3456  0.4259
 1745TIP3    H1 5241   3.641   4.495   1.330 -2.2601  1.7143  0.1784
 1745TIP3    H2 5242   3.690   4.544   1.195 -0.2430  0.8184  0.5714
 1746TIP3   OH2 5243   5.249   0.558   2.545 -0.0113 -0.7655  0.0054
 1746TIP3    H1 5244   5.193   0.558   2.623 -0.5816 -0.2610 -0.4025
 1746TIP3    H2 5245   5.338   0.548   2.580 -0.3696 -1.7792  0.6426
 1747TIP3   OH2 5246   5.817   1.561   1.259  0.6116  0.0893 -0.1893
 1747TIP3    H1 5247   5.874   1.499   1.214  1.3655 -0.1862  1.1253
 1747TIP3    H2 5248   5.758   1.507   1.311  1.9552  0.4576  1.7809
 1748TIP3   OH2 5249   5.718   1.761   1.859 -0.0406 -0.8105 -0.6506
 1748TIP3    H1 5250   5.718   1.668   1.884  0.2811 -0.5900  0.1685
 1748TIP3    H2 5251   5.670   1.804   1.930  0.2206 -0.2848 -0.7957
 1749TIP3   OH2 5252   5.559   5.476   2.634  0.1085  0.0694  0.0453
 1749TIP3    H1 5253   5.654   5.471   2.619  0.2581  1.0291  0.6133
 1749TIP3    H2 5254   5.538   5.394   2.679  0.6065 -0.3012 -0.3818
 1750TIP3   OH2 5255   5.747   0.695   3.262 -0.0952 -0.2649 -0.2462
 1750TIP3    H1 5256   5.736   0.617   3.317 -0.4312  0.5119  0.7967
 1750TIP3    H2 5257   5.698   0.764   3.307 -0.2352  0.4293 -1.4341
 1751TIP3   OH2 5258   5.706   0.093   1.193 -0.1787  0.1736  0.7657
 1751TIP3    H1 5259   5.770   0.137   1.250 -0.3611  0.9171  0.3946
 1751TIP3    H2 5260   5.743   0.100   1.105  0.0561 -0.8960  0.7703
 1752TIP3   OH2 5261   4.932   0.595   2.146 -0.3919  0.1363 -0.1017
 1752TIP3    H1 5262   4.878   0.535   2.095  2.5223 -2.4175 -0.2819
 1752TIP3    H2 5263   4.906   0.578   2.237 -1.0413  0.1048 -0.2891
 1753TIP3   OH2 5264   5.497   2.457   1.145  0.3431  0.2379 -0.2493
 1753TIP3    H1 5265   5.455   2.400   1.081  2.8040 -1.0029 -0.8417
 1753TIP3    H2 5266   5.473   2.420   1.230 -1.4129  0.7881 -0.4843
 1754TIP3   OH2 5267   2.620   5.857   2.699  0.0908  0.2998 -0.1187
 1754TIP3    H1 5268   2.563   5.840   2.773  1.9777 -1.9401  0.9026
 1754TIP3    H2 5269   2.588   5.800   2.629  0.9331 -0.8495  0.4092
 1755TIP3   OH2 5270   1.411   1.740   0.351 -0.3905 -0.8361  0.6817
 1755TIP3    H1 5271   1.416   1.679   0.278  0.4122 -0.3410  0.3125
 1755TIP3    H2 5272   1.491   1.722   0.402  1.1344  1.5767 -0.7727
 1756TIP3   OH2 5273   0.815   3.909   5.219 -0.0131 -0.2472 -0.2998
 1756TIP3    H1 5274   0.896   3.861   5.238  2.2377  2.3012 -3.0485
 1756TIP3    H2 5275   0.772   3.858   5.151  1.0182  0.1504 -1.2697
 1757TIP3   OH2 5276   6.136   1.720   0.608 -0.0492  0.3645  0.0350
 1757TIP3    H1 5277   6.077   1.687   0.676  1.0575 -1.8911 -0.0692
 1757TIP3    H2 5278   6.106   1.679   0.527  1.2595 -0.2961 -0.1257
 1758TIP3   OH2 5279   5.802   0.145   2.097 -0.1560 -0.0010 -0.3794
 1758TIP3    H1 5280   5.800   0.229   2.143 -0.3249 -0.6040  0.7342
 1758TIP3    H2 5281   5.882   0.148   2.045  2.1728 -0.8917  2.9898
 1759TIP3   OH2 5282   5.826   1.732   0.597  0.1276 -0.0078 -0.2978
 1759TIP3    H1 5283   5.821   1.754   0.503  2.5197  1.3874 -0.1544
 1759TIP3    H2 5284   5.787   1.807   0.641 -0.5042 -0.4227 -0.1479
 1760TIP3   OH2 5285   4.878   1.271   0.979 -0.4179  0.6045 -0.4176
 1760TIP3    H1 5286   4.907   1.220   1.054 -0.2322  1.1270 -0.1294
 1760TIP3    H2 5287   4.846   1.353   1.017  0.0168  1.0183 -0.9348
 1761TIP3   OH2 5288   5.360   2.117   1.610  0.3228  0.0879  0.1011
 1761TIP3    H1 5289   5.405   2.039   1.645 -1.1522 -0.4511  0.8315
 1761TIP3    H2 5290   5.330   2.163   1.688 -0.7066  0.2530 -0.3965
 1762TIP3   OH2 5291   4.298   2.447   3.935 -0.0889 -0.1021  0.6775
 1762TIP3    H1 5292   4.240   2.371   3.936  0.1830 -0.3026  1.2707
 1762TIP3    H2 5293   4.274   2.497   4.012  0.7353 -0.3480  1.1001
 1763TIP3   OH2 5294   5.924   0.817   2.925  0.9957 -0.0706  0.0259
 1763TIP3    H1 5295   5.907   0.895   2.979  0.6171  1.0001 -1.5900
 1763TIP3    H2 5296   6.017   0.821   2.906  1.0912 -0.3461  0.4130
 1764TIP3   OH2 5297   0.455   2.565   2.635 -0.0293 -0.3213 -0.0577
 1764TIP3    H1 5298   0.409   2.649   2.637 -0.9098 -0.7843  3.1051
 1764TIP3    H2 5299   0.545   2.588   2.613 -0.5834  1.2741 -0.7502
 1765TIP3   OH2 5300   6.405   1.469   2.426 -0.1802  0.0513 -0.3983
 1765TIP3    H1 5301   6.374   1.454   2.337  0.3153 -0.8164 -0.4307
 1765TIP3    H2 5302   6.457   1.550   2.420 -0.6481  0.3230 -0.7731
 1766TIP3   OH2 5303   4.259   1.551   2.569 -0.3567  0.1958  0.5799
 1766TIP3    H1 5304   4.349   1.581   2.559 -0.3816  0.2259  0.4442
 1766TIP3    H2 5305   4.222   1.607   2.637 -0.5484  0.7955 -0.0163
 1767TIP3   OH2 5306   0.594   1.180   1.658 -0.0038 -0.6437  0.3107
 1767TIP3    H1 5307   0.565   1.163   1.568  0.1420  1.8436 -0.2579
 1767TIP3    H2 5308   0.682   1.216   1.649 -0.6005  1.1431  1.2997
 1768TIP3   OH2 5309   0.417   0.353   3.368  0.0628 -0.0474  0.1297
 1768TIP3    H1 5310   0.431   0.258   3.359  0.7776  0.1008 -0.4008
 1768TIP3    H2 5311   0.494   0.392   3.326 -0.1144  0.7666  0.5584
 1769TIP3   OH2 5312   6.035   4.810   2.859  0.4543 -0.2412  0.4437
 1769TIP3    H1 5313   5.956   4.804   2.912 -1.1428 -0.1101 -1.8142
 1769TIP3    H2 5314   6.082   4.729   2.878 -0.2680 -0.3752  1.7511
 1770TIP3   OH2 5315   4.394   0.298   1.491 -0.1385  0.5089  0.1504
 1770TIP3    H1 5316   4.340   0.252   1.426 -0.1790 -0.3796  0.8051
 1770TIP3    H2 5317   4.483   0.292   1.457 -0.2874  0.9418 -0.3325
 1771TIP3   OH2 5318   6.002   0.757   0.523  0.1622 -0.1259 -0.1617
 1771TIP3    H1 5319   6.035   0.671   0.548 -1.8851 -0.0578  3.0159
 1771TIP3    H2 5320   5.929   0.739   0.464  2.3061 -0.3988 -2.8258
 1772TIP3   OH2 5321   5.427   0.908   1.694 -0.1345 -0.5744 -0.7934
 1772TIP3    H1 5322   5.419   0.832   1.752 -2.2786 -0.1861 -0.5332
 1772TIP3    H2 5323   5.452   0.980   1.752 -2.7326 -0.0828 -0.2049
 1773TIP3   OH2 5324   4.045   1.551   4.069  0.2427  0.4748 -0.6169
 1773TIP3    H1 5325   4.000   1.611   4.010 -1.7298 -0.1228  0.2205
 1773TIP3    H2 5326   3.981   1.482   4.085  0.9914  0.2847  1.6709
 1774TIP3   OH2 5327   3.722   2.383   2.100  1.0585 -0.0547  0.0730
 1774TIP3    H1 5328   3.750   2.462   2.147  1.1534  0.2301 -0.4564
 1774TIP3    H2 5329   3.640   2.357   2.142 -0.2368  1.6919 -1.2807
 1775TIP3   OH2 5330   0.891   4.666   5.255  0.3459  0.1937  0.0536
 1775TIP3    H1 5331   0.818   4.702   5.204 -0.4865 -1.3334  0.1399
 1775TIP3    H2 5332   0.963   4.659   5.191 -0.2249 -0.2861 -0.5447
 1776TIP3   OH2 5333   4.803   2.174   3.452  0.6341 -0.1069 -0.2130
 1776TIP3    H1 5334   4.760   2.199   3.533  0.9956 -1.9287  0.5585
 1776TIP3    H2 5335   4.736   2.189   3.384  0.3056  1.3197  0.4024
 1777TIP3   OH2 5336   1.600   3.394   1.153 -0.4352  0.3510 -0.2374
 1777TIP3    H1 5337   1.614   3.433   1.067  0.5087  1.9805  0.6410
 1777TIP3    H2 5338   1.536   3.450   1.196  0.9874  1.0240  1.0623
 1778TIP3   OH2 5339   5.217   2.029   2.538 -0.1778  0.1963 -0.1909
 1778TIP3    H1 5340   5.282   1.966   2.569 -1.8691 -1.5824 -0.1612
 1778TIP3    H2 5341   5.221   2.021   2.443  0.8336  1.3451 -0.2581
 1779TIP3   OH2 5342   1.549   1.835   2.476 -0.3261 -0.2007 -0.1590
 1779TIP3    H1 5343   1.565   1.777   2.551  3.3508  0.0851 -0.6264
 1779TIP3    H2 5344   1.454   1.843   2.473 -0.6542 -1.2276  3.7059
 1780TIP3   OH2 5345   1.004   1.168   3.880  0.2525  0.3848 -0.1691
 1780TIP3    H1 5346   1.012   1.143   3.972  0.7124  2.6588  0.4474
 1780TIP3    H2 5347   0.919   1.133   3.853  0.7607 -1.5699  0.6702
 1781TIP3   OH2 5348   6.462   0.132   1.153 -0.3133 -0.3963  0.2386
 1781TIP3    H1 5349   6.416   0.162   1.075  0.2035  0.4181  0.2347
 1781TIP3    H2 5350   6.532   0.196   1.166 -0.2304 -0.6661  1.2171
 1782TIP3   OH2 5351   4.228   5.320   0.760 -0.2198 -0.1513 -0.4880
 1782TIP3    H1 5352   4.283   5.278   0.694 -0.7170 -0.4576 -0.7110
 1782TIP3    H2 5353   4.138   5.303   0.731 -0.4362  1.6731 -0.9829
 1783TIP3   OH2 5354   5.021   1.981   3.888 -0.0378  0.1600 -0.0209
 1783TIP3    H1 5355   4.971   2.060   3.909 -0.1725  0.0624  0.0321
 1783TIP3    H2 5356   5.039   1.941   3.973  0.3615  0.3360 -0.0267
 1784TIP3   OH2 5357   1.505   4.025   5.138  0.5599 -0.4593  0.8879
 1784TIP3    H1 5358   1.584   4.076   5.119  0.5800 -0.0759  1.9488
 1784TIP3    H2 5359   1.438   4.063   5.082  0.7000  0.4163  1.3006
 1785TIP3   OH2 5360   0.426   0.832   4.455  0.1705 -0.3988 -0.1183
 1785TIP3    H1 5361   0.416   0.902   4.390 -0.7566 -0.1807  0.2545
 1785TIP3    H2 5362   0.518   0.808   4.450  0.5385  0.9551 -0.1566
 1786TIP3   OH2 5363   4.862   0.565   2.899  0.2280  0.2146  0.2507
 1786TIP3    H1 5364   4.916   0.602   2.968  2.4796  0.0352 -1.3449
 1786TIP3    H2 5365   4.786   0.623   2.894  0.6240  0.9258  2.0275
 1787TIP3   OH2 5366   0.382   1.694   2.948 -0.1716  0.1763 -0.6317
 1787TIP3    H1 5367   0.354   1.636   2.878 -1.8613 -0.6447  0.6981
 1787TIP3    H2 5368   0.352   1.781   2.920 -0.2333 -0.0362 -1.2391
 1788TIP3   OH2 5369   5.564   2.637   2.715 -0.2921  0.1007 -0.7655
 1788TIP3    H1 5370   5.493   2.675   2.766  0.2497 -0.6510  0.5914
 1788TIP3    H2 5371   5.588   2.704   2.651 -0.7779  1.1864  0.1880
 1789TIP3   OH2 5372   1.801   1.507   1.892  1.3665 -0.0928  0.0287
 1789TIP3    H1 5373   1.808   1.560   1.813 -1.1163  1.8631  1.0633
 1789TIP3    H2 5374   1.788   1.417   1.861  2.0120  0.4246 -1.7482
 1790TIP3   OH2 5375   0.035   3.404   4.230  0.0390  0.0659 -0.2536
 1790TIP3    H1 5376   0.045   3.348   4.153  0.3616  0.1230 -0.2562
 1790TIP3    H2 5377   0.002   3.346   4.299 -0.8380  0.1471 -0.6010
 1791TIP3   OH2 5378   0.841   1.657   3.273 -0.3779 -0.0537  0.0705
 1791TIP3    H1 5379   0.756   1.696   3.251  0.1643  1.1987  0.1893
 1791TIP3    H2 5380   0.905   1.722   3.244  0.6301 -1.8106 -1.8003
 1792TIP3   OH2 5381   1.489   1.019   1.970 -0.1464 -0.2543 -0.0643
 1792TIP3    H1 5382   1.531   1.043   1.888  1.4369 -1.6375  0.3146
 1792TIP3    H2 5383   1.401   0.991   1.945 -0.2769  0.9930 -1.0594
 1793TIP3   OH2 5384   6.295   2.470   3.612 -0.2247 -0.2084  0.7551
 1793TIP3    H1 5385   6.275   2.411   3.684  0.5689 -1.2514  0.1461
 1793TIP3    H2 5386   6.371   2.519   3.643 -0.2007 -0.2928  0.8319
 1794TIP3   OH2 5387   6.358   3.425   2.104  0.2554  0.1872  0.2874
 1794TIP3    H1 5388   6.371   3.337   2.069  1.1527  0.5497 -0.2843
 1794TIP3    H2 5389   6.276   3.454   2.064  0.6508  0.1286 -0.5847
 1795TIP3   OH2 5390   5.682   2.134   2.827  0.4374  0.5933  0.4031
 1795TIP3    H1 5391   5.627   2.212   2.824 -0.0503  0.2917  1.2399
 1795TIP3    H2 5392   5.682   2.100   2.737 -1.9807 -0.2458  0.6796
 1796TIP3   OH2 5393   2.911   2.445   1.585 -0.6525  0.2604 -0.4708
 1796TIP3    H1 5394   2.904   2.539   1.569  1.6524  0.7609  1.1529
 1796TIP3    H2 5395   2.901   2.436   1.680 -0.5357 -1.1047 -0.5791
 1797TIP3   OH2 5396   1.585   1.931   2.215  0.6902  0.3848  0.7204
 1797TIP3    H1 5397   1.650   1.901   2.279  1.2135 -0.0941 -0.0419
 1797TIP3    H2 5398   1.519   1.861   2.214  1.8744 -0.7209 -1.0040
 1798TIP3   OH2 5399   5.186   6.109   3.723 -0.1106  0.1067 -0.2847
 1798TIP3    H1 5400   5.124   6.059   3.776  1.0820 -0.5854  0.4679
 1798TIP3    H2 5401   5.246   6.044   3.687  0.5093  0.8217 -0.5734
 1799TIP3   OH2 5402   4.786   1.205   2.232 -0.3359  0.1167 -0.2634
 1799TIP3    H1 5403   4.804   1.299   2.230  0.2905  0.0245  0.5528
 1799TIP3    H2 5404   4.803   1.175   2.143 -1.5983  0.9610 -0.8007
 1800TIP3   OH2 5405   0.873   1.979   3.224 -0.4621 -0.4179 -0.3054
 1800TIP3    H1 5406   0.841   1.942   3.306  1.6448  0.6501  1.0295
 1800TIP3    H2 5407   0.801   2.033   3.193 -0.9797 -0.1796  1.2654
 1801TIP3   OH2 5408   0.857   1.206   2.052  0.0556  0.0051 -0.0518
 1801TIP3    H1 5409   0.937   1.177   2.009 -1.3485 -0.1763 -2.6789
 1801TIP3    H2 5410   0.862   1.169   2.140  2.0017 -1.4928 -0.7548
 1802TIP3   OH2 5411   0.998   0.783   3.896 -0.1461  0.7900  0.1533
 1802TIP3    H1 5412   1.023   0.715   3.833  0.4234  0.0711  1.1377
 1802TIP3    H2 5413   1.056   0.769   3.970 -1.7481  0.7124  1.4360
 1803TIP3   OH2 5414   2.674   1.678   5.023 -0.2617  0.1762 -0.5451
 1803TIP3    H1 5415   2.739   1.679   4.953  2.1415 -0.9011  1.5564
 1803TIP3    H2 5416   2.673   1.767   5.056  0.0850  0.2311 -0.6754
 1804TIP3   OH2 5417   4.372   5.615   4.625 -0.1931  0.4078 -0.2648
 1804TIP3    H1 5418   4.399   5.525   4.640  0.9644  0.5581 -1.3587
 1804TIP3    H2 5419   4.394   5.632   4.533 -0.5710  1.7437 -0.1282
 1805TIP3   OH2 5420   1.866   3.636   3.443 -0.1871  0.0312  0.2488
 1805TIP3    H1 5421   1.933   3.624   3.377  1.4328  0.3504  1.8014
 1805TIP3    H2 5422   1.867   3.555   3.494  0.1004  0.6422  1.2330
 1806TIP3   OH2 5423   2.258   1.637   1.009  0.1900 -0.1726  0.2051
 1806TIP3    H1 5424   2.299   1.661   0.926 -0.5444 -2.7905 -0.9980
 1806TIP3    H2 5425   2.230   1.546   0.996 -1.8981  0.0729  2.5606
 1807TIP3   OH2 5426   2.382   4.561   3.399 -0.0336  0.6384 -0.2364
 1807TIP3    H1 5427   2.476   4.577   3.403  0.8718 -4.0930 -0.1242
 1807TIP3    H2 5428   2.357   4.585   3.310  1.5554  0.6163 -0.7040
 1808TIP3   OH2 5429   6.333   2.461   2.256  0.3183 -0.1548  0.4222
 1808TIP3    H1 5430   6.403   2.522   2.279 -0.3478  0.7451  0.0890
 1808TIP3    H2 5431   6.271   2.514   2.206  0.0027 -1.2387 -0.3536
 1809TIP3   OH2 5432   0.812   2.146   2.903 -0.0427 -0.2094  0.1265
 1809TIP3    H1 5433   0.748   2.130   2.973  0.2235 -0.8254  0.2254
 1809TIP3    H2 5434   0.889   2.179   2.948 -0.0701 -0.0645  0.0675
 1810TIP3   OH2 5435   6.292   2.680   1.233 -0.5215 -0.2598  0.0951
 1810TIP3    H1 5436   6.323   2.590   1.239  1.2690  0.2259 -1.3825
 1810TIP3    H2 5437   6.337   2.726   1.304  0.0249 -0.1619 -0.3030
 1811TIP3   OH2 5438   0.733   2.296   4.418 -0.5323  0.0293  0.4426
 1811TIP3    H1 5439   0.773   2.376   4.451 -2.0570  1.6840 -1.5393
 1811TIP3    H2 5440   0.706   2.248   4.496  2.2382  0.4469  1.6968
 1812TIP3   OH2 5441   2.182   3.234   2.417 -0.1086  0.1552  0.2353
 1812TIP3    H1 5442   2.186   3.250   2.511 -1.3415 -0.1407  0.3421
 1812TIP3    H2 5443   2.259   3.180   2.399  1.2623  1.8826  0.7167
 1813TIP3   OH2 5444   0.068   1.598   3.661  0.3405  0.2381 -0.0357
 1813TIP3    H1 5445   0.065   1.574   3.754  0.3644  0.4790  0.0258
 1813TIP3    H2 5446  -0.021   1.584   3.630  0.7703 -1.7175 -0.4350
 1814TIP3   OH2 5447   0.317   1.771   2.034  0.1680 -0.4285 -0.1121
 1814TIP3    H1 5448   0.222   1.769   2.024  0.2529 -3.6734 -0.9476
 1814TIP3    H2 5449   0.350   1.730   1.954  2.1684 -1.1240  1.0268
 1815TIP3   OH2 5450   1.272   3.185   2.763 -0.6370  0.3954 -0.1976
 1815TIP3    H1 5451   1.234   3.223   2.684 -1.4631 -0.4200 -0.1948
 1815TIP3    H2 5452   1.367   3.184   2.746 -0.6444  1.9958 -0.3850
 1816TIP3   OH2 5453   0.311   2.761   3.804  0.1710 -0.5057  0.0750
 1816TIP3    H1 5454   0.232   2.809   3.778  0.5175 -0.7250 -1.3962
 1816TIP3    H2 5455   0.290   2.727   3.891 -0.4831  1.4010  0.6863
 1817TIP3   OH2 5456   5.766   3.577   1.691 -0.4943 -0.0613  0.6550
 1817TIP3    H1 5457   5.846   3.526   1.700 -0.3934 -0.4152 -2.0315
 1817TIP3    H2 5458   5.794   3.668   1.698  0.3065 -0.1496 -1.2036
 1818TIP3   OH2 5459   0.537   1.836   4.010  0.2529  0.0631  0.5010
 1818TIP3    H1 5460   0.561   1.903   3.946  0.3925  0.7376  1.2534
 1818TIP3    H2 5461   0.597   1.849   4.083 -0.7780  0.1875  1.3483
 1819TIP3   OH2 5462   0.355   2.262   4.007 -0.2881 -0.2352 -1.0527
 1819TIP3    H1 5463   0.440   2.222   3.994  0.0781  0.9042 -2.3058
 1819TIP3    H2 5464   0.300   2.192   4.043  1.1161 -1.0120 -0.3778
 1820TIP3   OH2 5465   0.217   1.683   3.199  0.2771  0.3076  0.0910
 1820TIP3    H1 5466   0.298   1.709   3.157  0.1606  1.3562  0.5088
 1820TIP3    H2 5467   0.188   1.606   3.150  0.0853  1.5724 -1.8397
 1821TIP3   OH2 5468   0.388   3.548   4.869  0.6914 -0.0545 -0.1066
 1821TIP3    H1 5469   0.393   3.499   4.787  0.9345  1.1124 -0.8026
 1821TIP3    H2 5470   0.421   3.487   4.935  0.2065 -1.1110 -0.8193
 1822TIP3   OH2 5471   1.278   1.931   0.541 -0.5236 -0.2475  0.1422
 1822TIP3    H1 5472   1.275   1.872   0.466  1.8704  0.7291 -0.7662
 1822TIP3    H2 5473   1.196   1.915   0.587 -1.3781 -1.9199 -1.8737
 1823TIP3   OH2 5474   5.652   5.529   4.048  0.3107 -0.3682  0.0820
 1823TIP3    H1 5475   5.574   5.477   4.029 -0.4210  1.1059 -1.0633
 1823TIP3    H2 5476   5.627   5.584   4.123 -0.0967  0.8085 -0.9055
 1824TIP3   OH2 5477   0.090   2.604   2.225 -0.0103  0.9243  0.1100
 1824TIP3    H1 5478   0.150   2.620   2.152 -2.0227  1.3330 -1.5182
 1824TIP3    H2 5479   0.125   2.656   2.297  2.3578  0.0421 -0.3566
 1825TIP3   OH2 5480   6.053   4.206   4.192  0.2268 -0.2564 -0.2037
 1825TIP3    H1 5481   6.119   4.200   4.262 -1.0625  0.3377  1.0901
 1825TIP3    H2 5482   6.077   4.284   4.142 -0.0624  0.5295  0.8697
 1826TIP3   OH2 5483   0.125   2.361   5.066  0.4582 -0.1102  0.2361
 1826TIP3    H1 5484   0.111   2.327   5.154 -1.1904 -1.0057 -0.3473
 1826TIP3    H2 5485   0.219   2.356   5.053  0.4549 -2.6211  0.9087
 1827TIP3   OH2 5486   2.946   3.371   3.941  0.3682 -0.1668  0.1514
 1827TIP3    H1 5487   3.027   3.343   3.985 -0.0373 -0.8208  0.4867
 1827TIP3    H2 5488   2.903   3.290   3.916  0.0317  0.1923 -0.4425
 1828TIP3   OH2 5489   1.895   3.626   1.607  0.2734  0.2670 -0.0735
 1828TIP3    H1 5490   1.932   3.709   1.638  0.1857 -0.4826  2.1618
 1828TIP3    H2 5491   1.967   3.563   1.618 -0.1660 -0.2599 -0.2318
 1829TIP3   OH2 5492   1.245   2.688   2.134 -0.1146  0.3789 -0.1646
 1829TIP3    H1 5493   1.233   2.625   2.205 -0.5079 -1.3711 -1.7686
 1829TIP3    H2 5494   1.326   2.734   2.157  0.3905 -0.9751  0.8252
 1830TIP3   OH2 5495   1.135   0.689   0.842 -0.1453  0.3906  0.0507
 1830TIP3    H1 5496   1.139   0.670   0.748  2.6283  1.4769 -0.1198
 1830TIP3    H2 5497   1.192   0.766   0.852  1.1170 -0.8578  2.8703
 1831TIP3   OH2 5498   0.214   1.252   1.165 -0.6209 -0.3146 -0.2686
 1831TIP3    H1 5499   0.299   1.278   1.200 -0.3286 -1.1311 -0.3692
 1831TIP3    H2 5500   0.152   1.314   1.205  0.2101  1.3164 -1.4774
 1832TIP3   OH2 5501   0.888   5.709   2.739  0.8204 -0.0089  0.3101
 1832TIP3    H1 5502   0.888   5.734   2.832  1.5126 -0.3294  0.3955
 1832TIP3    H2 5503   0.978   5.726   2.710  0.4416  0.6962 -0.4644
 1833TIP3   OH2 5504   2.847   0.987   3.779 -0.5046  0.2829  0.1754
 1833TIP3    H1 5505   2.791   1.002   3.703  0.7157  2.4925 -0.3373
 1833TIP3    H2 5506   2.880   1.074   3.801  0.5771 -0.6050  2.1367
 1834TIP3   OH2 5507   4.127   2.351   2.273  0.1900  0.1306 -0.3890
 1834TIP3    H1 5508   4.049   2.355   2.328  2.0163  2.1371  2.1284
 1834TIP3    H2 5509   4.116   2.424   2.212 -0.1976  0.0045 -0.4752
 1835TIP3   OH2 5510   1.725   2.305   4.790 -0.0998 -0.3977  0.3951
 1835TIP3    H1 5511   1.813   2.342   4.780  0.0852 -0.6869  0.9528
 1835TIP3    H2 5512   1.716   2.243   4.718  1.1391 -2.3016  1.8538
 1836TIP3   OH2 5513   1.877   1.798   5.136 -0.1593  0.6361 -0.0922
 1836TIP3    H1 5514   1.970   1.778   5.148 -0.5386 -1.0322  0.2823
 1836TIP3    H2 5515   1.852   1.846   5.215  0.1979  0.3902  0.1708
 1837TIP3   OH2 5516   1.710   3.265   3.815 -0.8027 -0.2264  0.2035
 1837TIP3    H1 5517   1.646   3.226   3.756 -1.0305  0.4190  0.0181
 1837TIP3    H2 5518   1.664   3.340   3.854 -0.2578  0.0657  0.2925
 1838TIP3   OH2 5519   2.016   1.817   0.533 -0.1053 -0.8182  0.3834
 1838TIP3    H1 5520   2.064   1.804   0.451 -1.8102 -1.1064 -0.5971
 1838TIP3    H2 5521   2.035   1.739   0.584  1.5565 -0.3085  0.5808
 1839TIP3   OH2 5522   3.388   4.318   0.637  0.4218 -0.1329  0.1563
 1839TIP3    H1 5523   3.426   4.325   0.724  1.3776  2.1598 -0.3931
 1839TIP3    H2 5524   3.450   4.265   0.587  1.4464  1.1437  0.0543
 1840TIP3   OH2 5525   5.496   1.655   4.771  0.6158 -0.4566 -0.4113
 1840TIP3    H1 5526   5.469   1.701   4.850 -2.0216 -1.6577 -0.5490
 1840TIP3    H2 5527   5.589   1.636   4.784  0.6361  0.9134  1.5916
 1841TIP3   OH2 5528   1.209   1.976   4.313  0.5581 -0.0319  0.6164
 1841TIP3    H1 5529   1.140   2.027   4.354  1.5190  1.0994  0.8741
 1841TIP3    H2 5530   1.217   1.898   4.367 -1.5987 -0.9442 -0.3488
 1842TIP3   OH2 5531   2.437   1.531   3.200 -0.6616 -0.0340  0.0025
 1842TIP3    H1 5532   2.463   1.440   3.187  0.7703  0.8436 -4.4615
 1842TIP3    H2 5533   2.412   1.561   3.112  1.5068  4.6126  0.7810
 1843TIP3   OH2 5534   1.582   3.250   3.094 -0.3678  0.6267  0.0088
 1843TIP3    H1 5535   1.494   3.274   3.066 -1.2674 -2.3575  0.0644
 1843TIP3    H2 5536   1.608   3.318   3.156 -2.2607  2.0214 -0.7141
 1844TIP3   OH2 5537   0.737   0.519   2.011  0.4728  0.1325 -0.4460
 1844TIP3    H1 5538   0.751   0.599   1.960  2.1024 -0.3338 -0.7443
 1844TIP3    H2 5539   0.774   0.540   2.097  1.9866 -0.7087 -0.8845
 1845TIP3   OH2 5540   5.324   1.242   1.218  0.2936 -0.7171 -0.2731
 1845TIP3    H1 5541   5.268   1.235   1.295 -0.1248  0.4248 -0.4645
 1845TIP3    H2 5542   5.294   1.321   1.174  2.3682  0.1569 -0.1388
 1846TIP3   OH2 5543   2.042   5.900   5.121  0.0599  0.1033  0.1481
 1846TIP3    H1 5544   2.102   5.851   5.064  0.0482  0.5457 -0.2521
 1846TIP3    H2 5545   2.023   5.980   5.072 -1.1755 -0.2081  0.0933
 1847TIP3   OH2 5546   1.532   3.250   5.192 -0.2726 -0.0489  0.5023
 1847TIP3    H1 5547   1.591   3.175   5.186  0.5010  0.7376 -2.4343
 1847TIP3    H2 5548   1.578   3.313   5.248  1.3099  0.2011 -1.0393
 1848TIP3   OH2 5549   1.020   3.705   0.440 -0.6610 -0.3183 -0.4151
 1848TIP3    H1 5550   1.037   3.795   0.413 -1.0843 -0.7960 -2.3302
 1848TIP3    H2 5551   0.925   3.701   0.452 -0.8650 -0.9871 -2.1603
 1849TIP3   OH2 5552   0.733   2.697   2.598  0.4830  0.0599  0.6581
 1849TIP3    H1 5553   0.786   2.684   2.676  1.2888  2.3668  0.5369
 1849TIP3    H2 5554   0.779   2.765   2.549 -0.7443 -0.3880 -1.1630
 1850TIP3   OH2 5555   3.616   4.671   2.520 -0.0347  0.3090  0.3560
 1850TIP3    H1 5556   3.655   4.640   2.438  0.6450  0.1649  0.7264
 1850TIP3    H2 5557   3.644   4.762   2.526  0.5037  0.1160  0.7760
 1851TIP3   OH2 5558   6.455   1.972   2.843  0.0159 -0.1168  0.3151
 1851TIP3    H1 5559   6.449   2.066   2.857 -0.2210 -0.3242  1.6502
 1851TIP3    H2 5560   6.507   1.939   2.917 -0.4264 -1.1069  0.1967
 1852TIP3   OH2 5561   5.006   5.438   3.708  0.1357  0.4266 -0.8645
 1852TIP3    H1 5562   4.934   5.485   3.665 -1.1080 -0.4779  0.1794
 1852TIP3    H2 5563   4.993   5.455   3.801  1.7214  0.8534 -0.7108
 1853TIP3   OH2 5564   0.682   0.950   2.098  0.0349 -0.1153 -0.3424
 1853TIP3    H1 5565   0.744   0.901   2.045 -0.6504  2.1598 -3.3316
 1853TIP3    H2 5566   0.667   1.031   2.050 -1.5859  1.4869  2.7197
 1854TIP3   OH2 5567   2.503   3.960   3.347  0.1107 -0.3666  0.0986
 1854TIP3    H1 5568   2.598   3.954   3.342  0.1341 -0.1421  0.2282
 1854TIP3    H2 5569   2.474   3.872   3.372  0.3312 -0.2825  0.6560
 1855TIP3   OH2 5570   4.044   2.397   3.082  0.0045 -0.1157 -1.0972
 1855TIP3    H1 5571   4.135   2.384   3.110 -0.2118 -4.0446 -2.0106
 1855TIP3    H2 5572   4.000   2.431   3.160  1.8686  0.0767 -0.1037
 1856TIP3   OH2 5573   1.052   0.143   3.588 -0.4884 -0.0592 -0.4971
 1856TIP3    H1 5574   0.997   0.107   3.657  1.9630  0.8716  2.0217
 1856TIP3    H2 5575   1.052   0.237   3.604  1.2138  0.0225 -0.9585
 1857TIP3   OH2 5576   5.785   1.848   2.348 -0.1230  0.1768 -0.2709
 1857TIP3    H1 5577   5.864   1.884   2.389 -0.3536  0.7541 -0.3223
 1857TIP3    H2 5578   5.816   1.772   2.298  0.4292  0.5206 -0.4558
 1858TIP3   OH2 5579   5.926   0.559   2.152  0.3231  0.0477 -0.2715
 1858TIP3    H1 5580   5.942   0.644   2.112 -1.1147  1.4997  2.1845
 1858TIP3    H2 5581   5.848   0.525   2.108 -0.8907  1.3673  0.8245
 1859TIP3   OH2 5582   5.753   2.655   1.263 -0.4258 -0.5314 -0.1577
 1859TIP3    H1 5583   5.761   2.743   1.301  1.4820 -0.5120 -0.5388
 1859TIP3    H2 5584   5.749   2.597   1.339 -1.1372 -0.1548  0.0939
 1860TIP3   OH2 5585   0.547   1.953   2.019 -0.0739 -0.4223 -0.0525
 1860TIP3    H1 5586   0.541   1.859   2.039 -0.8649 -0.6082 -1.1233
 1860TIP3    H2 5587   0.465   1.989   2.052  0.5723  0.0409  1.0766
 1861TIP3   OH2 5588   0.164   0.781   3.302  0.6452  0.3120 -0.1819
 1861TIP3    H1 5589   0.071   0.780   3.279  0.0592  1.2485  1.9551
 1861TIP3    H2 5590   0.192   0.690   3.292 -0.5189  0.0086 -0.8026
 1862TIP3   OH2 5591   0.267   1.371   4.568  0.3430  0.1815 -0.6464
 1862TIP3    H1 5592   0.324   1.386   4.494 -1.7691  0.6227 -2.2262
 1862TIP3    H2 5593   0.282   1.279   4.592  1.6128  0.2671 -1.0989
 1863TIP3   OH2 5594   6.480   1.942   1.989 -0.1612 -0.2822  0.1869
 1863TIP3    H1 5595   6.541   1.951   1.916  0.2688 -1.4382  0.3988
 1863TIP3    H2 5596   6.422   1.871   1.963  0.3236 -1.0530  1.2065
 1864TIP3   OH2 5597   6.334   4.115   3.830  0.3996 -0.5366 -0.0375
 1864TIP3    H1 5598   6.342   4.055   3.904  1.4349  0.2895  0.5495
 1864TIP3    H2 5599   6.414   4.101   3.779 -0.7587 -1.7882 -1.5408
 1865TIP3   OH2 5600   1.944   2.802   2.438  0.2717  0.0470 -0.3654
 1865TIP3    H1 5601   2.007   2.774   2.372  1.0796 -1.0590  0.8655
 1865TIP3    H2 5602   1.996   2.843   2.507 -0.4245 -0.0230  0.2161
 1866TIP3   OH2 5603   5.989   0.556   4.128 -0.5480  0.5772  0.0597
 1866TIP3    H1 5604   5.970   0.516   4.043 -1.1774  1.0129 -0.0048
 1866TIP3    H2 5605   5.936   0.636   4.130 -0.7435  0.4328  0.9782
 1867TIP3   OH2 5606   1.203   1.655   4.016 -0.0596 -0.0739  0.0371
 1867TIP3    H1 5607   1.284   1.678   3.970 -1.1120  2.5315 -0.6231
 1867TIP3    H2 5608   1.134   1.672   3.952 -1.2598 -0.4431  1.2103
 1868TIP3   OH2 5609   6.220   2.305   3.817 -0.1997  0.7697 -0.5097
 1868TIP3    H1 5610   6.298   2.250   3.825 -0.1084  1.1191  1.1120
 1868TIP3    H2 5611   6.150   2.253   3.854 -0.1284  1.7024  0.9594
 1869TIP3   OH2 5612   0.080   1.887   3.073 -0.1765 -0.1284  0.6324
 1869TIP3    H1 5613  -0.013   1.900   3.090 -0.0513  0.7940  0.6515
 1869TIP3    H2 5614   0.097   1.797   3.101 -0.7924  0.1070  1.8250
 1870TIP3   OH2 5615   1.021   4.885   3.107  0.0112  0.6107 -0.1288
 1870TIP3    H1 5616   1.027   4.938   3.028 -1.6824  0.5783 -0.3079
 1870TIP3    H2 5617   0.927   4.881   3.125  0.2537 -0.9461  0.8241
 1871TIP3   OH2 5618   6.195   5.793   3.989  0.7950  0.2815 -0.1371
 1871TIP3    H1 5619   6.264   5.858   4.003 -0.0730  1.1923 -0.0198
 1871TIP3    H2 5620   6.140   5.800   4.067  0.2406 -0.0170 -0.5018
 1872TIP3   OH2 5621   6.017   1.648   4.642 -0.2435 -0.2064 -0.7035
 1872TIP3    H1 5622   6.090   1.586   4.636 -1.7809 -2.1099 -0.1854
 1872TIP3    H2 5623   6.025   1.685   4.730  0.4677  0.0436 -0.8739
 1873TIP3   OH2 5624   1.181   2.457   3.071  0.1685  0.3584  0.0276
 1873TIP3    H1 5625   1.276   2.464   3.074  0.2474 -0.5534 -0.2332
 1873TIP3    H2 5626   1.151   2.543   3.040  1.0620 -0.2834 -2.7031
 1874TIP3   OH2 5627   0.631   1.352   0.400  0.7699  0.6040  0.4371
 1874TIP3    H1 5628   0.585   1.274   0.432 -0.3384  1.0034 -0.1798
 1874TIP3    H2 5629   0.667   1.325   0.315 -2.0874  1.6405 -1.1460
 1875TIP3   OH2 5630   3.934   0.144   0.499 -0.5819  0.1947  0.0560
 1875TIP3    H1 5631   4.028   0.152   0.480 -0.4205 -0.0676  0.7200
 1875TIP3    H2 5632   3.927   0.061   0.548 -1.2159 -0.0058 -0.3749
 1876TIP3   OH2 5633   6.111   1.125   1.685  0.1071 -0.0469 -0.1301
 1876TIP3    H1 5634   6.040   1.092   1.630  0.2143 -1.5878  0.6272
 1876TIP3    H2 5635   6.087   1.097   1.774  0.2707  1.8093  0.5323
 1877TIP3   OH2 5636   0.832   0.451   1.711 -0.2396  0.3340  0.1099
 1877TIP3    H1 5637   0.786   0.379   1.755 -0.4908  0.0404 -0.6100
 1877TIP3    H2 5638   0.866   0.411   1.631 -0.9732  1.1794 -0.6391
 1878TIP3   OH2 5639   1.124   2.088   4.784 -0.0884 -0.0934  0.0294
 1878TIP3    H1 5640   1.209   2.132   4.775 -0.7516  0.9352 -1.4091
 1878TIP3    H2 5641   1.060   2.158   4.773 -1.1506 -1.2469 -1.3360
 1879TIP3   OH2 5642   2.268   1.010   2.444  0.0258  0.1478 -0.1577
 1879TIP3    H1 5643   2.357   1.016   2.478  0.5252 -1.0771 -1.2217
 1879TIP3    H2 5644   2.213   1.000   2.521  0.9789 -0.8293  0.3978
 1880TIP3   OH2 5645   5.532   0.292   1.934  0.1483 -0.4795  0.0843
 1880TIP3    H1 5646   5.511   0.200   1.954  0.5314 -0.4861  0.4679
 1880TIP3    H2 5647   5.454   0.325   1.890  0.5923 -1.4196 -1.4362
 1881TIP3   OH2 5648   1.424   0.058   2.638  0.2394 -0.4991 -0.2627
 1881TIP3    H1 5649   1.453  -0.023   2.681 -0.5821 -1.1538 -0.9294
 1881TIP3    H2 5650   1.345   0.083   2.685  0.3867 -0.1916 -0.1820
 1882TIP3   OH2 5651   5.198   2.898   1.710  0.1258 -0.1991 -0.1027
 1882TIP3    H1 5652   5.256   2.942   1.772  0.7830 -0.9002 -0.2272
 1882TIP3    H2 5653   5.154   2.970   1.664 -1.8757  0.3687  2.5405
 1883TIP3   OH2 5654   5.780   0.329   2.347  0.0185 -0.0886  0.0091
 1883TIP3    H1 5655   5.840   0.378   2.403 -0.5529 -1.3901  1.7970
 1883TIP3    H2 5656   5.758   0.390   2.276  0.0468  1.9167  1.6755
 1884TIP3   OH2 5657   5.800   1.680   2.793 -0.5121  0.2428 -0.0060
 1884TIP3    H1 5658   5.840   1.754   2.748 -0.9845  1.4562  1.5403
 1884TIP3    H2 5659   5.856   1.606   2.772  0.7776  1.3138 -0.3987
 1885TIP3   OH2 5660   0.663   4.074   3.427 -0.1223  0.2486  0.3761
 1885TIP3    H1 5661   0.701   4.162   3.421 -1.6674  0.8338 -0.9936
 1885TIP3    H2 5662   0.724   4.019   3.377 -0.5601  1.0125 -1.0061
 1886TIP3   OH2 5663   6.260   1.278   3.215 -0.0990 -0.8467  0.3871
 1886TIP3    H1 5664   6.305   1.194   3.215 -0.7303 -1.1884  0.3616
 1886TIP3    H2 5665   6.319   1.338   3.261  0.3966 -1.2773  0.3088
 1887TIP3   OH2 5666   4.295   1.205   2.259 -0.1949  0.1609  0.1327
 1887TIP3    H1 5667   4.267   1.237   2.173  2.9288 -0.8037 -1.2889
 1887TIP3    H2 5668   4.330   1.283   2.303 -0.8273  0.4415  0.1483
 1888TIP3   OH2 5669   1.503   1.347   2.903 -0.3902 -0.0924  0.0571
 1888TIP3    H1 5670   1.506   1.379   2.812  0.6716 -1.0766 -0.2690
 1888TIP3    H2 5671   1.505   1.427   2.956 -0.1948  0.4657 -0.7750
 1889TIP3   OH2 5672   5.544   0.060   0.611  0.1917  0.2935 -0.4782
 1889TIP3    H1 5673   5.636   0.081   0.592  0.1273  1.1765  0.1716
 1889TIP3    H2 5674   5.518   0.123   0.677 -0.6738 -0.4339 -0.1114
 1890TIP3   OH2 5675   5.968   1.827   1.274  0.1999  0.1909  0.3551
 1890TIP3    H1 5676   5.939   1.740   1.245 -2.5773  0.6515  1.5465
 1890TIP3    H2 5677   5.976   1.878   1.194 -2.3810  0.0223 -0.0419
 1891TIP3   OH2 5678   0.515   1.387   3.725  0.5785  0.2903  0.2824
 1891TIP3    H1 5679   0.575   1.342   3.785  0.9989  1.0751  0.4622
 1891TIP3    H2 5680   0.537   1.480   3.735  0.2657  0.4714 -0.6733
 1892TIP3   OH2 5681   2.033   4.855   0.074 -0.0767 -0.0700  0.6766
 1892TIP3    H1 5682   2.033   4.948   0.097  1.7105 -0.1316  0.9819
 1892TIP3    H2 5683   2.065   4.853  -0.016  0.6316 -0.4390  0.9308
 1893TIP3   OH2 5684   0.937   2.495   3.181 -0.0946  0.5395  0.0156
 1893TIP3    H1 5685   1.031   2.489   3.168  0.2774  2.2722  1.7367
 1893TIP3    H2 5686   0.925   2.483   3.276 -1.6307 -0.0072 -0.2248
 1894TIP3   OH2 5687   4.919   1.454   1.887  0.0791 -0.2885 -0.2443
 1894TIP3    H1 5688   4.866   1.534   1.889 -0.2857 -0.5360 -0.0812
 1894TIP3    H2 5689   4.888   1.402   1.961  1.7984  0.3625  0.9720
 1895TIP3   OH2 5690   4.744   3.856   0.747 -0.3868  0.0641  0.2988
 1895TIP3    H1 5691   4.685   3.840   0.674 -0.9332  0.0432  0.7403
 1895TIP3    H2 5692   4.778   3.944   0.731 -0.7599  0.1915  0.1943
 1896TIP3   OH2 5693   2.898   1.316   4.945 -0.2651 -0.2811 -0.9160
 1896TIP3    H1 5694   2.832   1.350   4.885  0.0974  1.3646 -0.4107
 1896TIP3    H2 5695   2.981   1.348   4.910 -0.0443  0.6714  0.4225
 1897TIP3   OH2 5696   6.198   2.552   0.989 -0.3914 -0.0438  0.6075
 1897TIP3    H1 5697   6.182   2.596   0.905  2.1478 -1.1032 -0.4848
 1897TIP3    H2 5698   6.230   2.621   1.047 -0.7999  0.4203  0.2805
 1898TIP3   OH2 5699   1.091   3.193   4.684  0.1690  0.2366  0.2165
 1898TIP3    H1 5700   1.167   3.243   4.654  1.2510 -1.1743  0.5286
 1898TIP3    H2 5701   1.125   3.104   4.696 -1.4177 -0.2903  0.8666
 1899TIP3   OH2 5702   6.145   3.041   2.435  0.0077 -0.1983 -0.2067
 1899TIP3    H1 5703   6.239   3.026   2.426  0.1606  0.8910 -0.6052
 1899TIP3    H2 5704   6.106   2.954   2.446  1.1381 -0.5983  0.7016
 1900TIP3   OH2 5705   0.651   2.729   3.325  0.6550 -0.1295 -0.0730
 1900TIP3    H1 5706   0.557   2.730   3.306  1.0405 -0.7381 -2.1759
 1900TIP3    H2 5707   0.685   2.806   3.279  1.1843  0.1262  0.7441
 1901TIP3   OH2 5708   5.598   1.667   3.374  0.4256 -0.4473 -0.2747
 1901TIP3    H1 5709   5.531   1.668   3.306  0.7242  0.6358 -0.5657
 1901TIP3    H2 5710   5.620   1.575   3.385 -1.0011 -0.8012 -0.2860
 1902TIP3   OH2 5711   5.620   0.634   2.951  0.1495  0.0813  0.3277
 1902TIP3    H1 5712   5.532   0.603   2.932 -0.2246  0.6449  1.1233
 1902TIP3    H2 5713   5.629   0.713   2.897  0.4227 -0.3545 -0.2738
 1903TIP3   OH2 5714   1.183   4.353   4.198 -0.3534  0.1113  0.0460
 1903TIP3    H1 5715   1.178   4.426   4.137  0.4405  0.8589  0.8545
 1903TIP3    H2 5716   1.108   4.298   4.176  0.8904 -0.5357 -2.7273
 1904TIP3   OH2 5717   0.295   2.782   2.692  0.7437  0.3529 -0.0300
 1904TIP3    H1 5718   0.225   2.788   2.757  0.4586  1.2853 -0.4241
 1904TIP3    H2 5719   0.346   2.862   2.703  2.2887 -0.7199  0.8562
 1905TIP3   OH2 5720   4.454   1.182   1.078 -0.3634  0.0543 -0.5576
 1905TIP3    H1 5721   4.443   1.254   1.016  0.9667 -0.1950 -1.1092
 1905TIP3    H2 5722   4.529   1.207   1.132 -0.5782 -0.4175 -0.0248
 1906TIP3   OH2 5723   1.266   3.739   3.518  0.1869 -0.2119 -0.3362
 1906TIP3    H1 5724   1.295   3.719   3.429  0.3456 -0.2924 -0.2677
 1906TIP3    H2 5725   1.206   3.668   3.540 -1.2964  0.8085 -1.0589
 1907TIP3   OH2 5726   0.912   1.475   1.772  0.1166 -0.1453 -0.1386
 1907TIP3    H1 5727   0.951   1.390   1.748 -0.2967 -0.1661 -0.7397
 1907TIP3    H2 5728   0.926   1.530   1.695 -2.1859 -0.5310 -0.8719
 1908TIP3   OH2 5729   0.835   0.621   2.251  0.3208  0.5928  0.3194
 1908TIP3    H1 5730   0.870   0.559   2.315  0.4250  0.8870  0.5488
 1908TIP3    H2 5731   0.828   0.703   2.299  0.4943  0.8403 -0.0751
 1909TIP3   OH2 5732   1.725   2.024   3.176  0.4952 -0.6016  0.2232
 1909TIP3    H1 5733   1.758   1.987   3.258  0.8316 -1.2837 -0.2124
 1909TIP3    H2 5734   1.762   1.967   3.108  0.2964  0.0151 -0.4043
 1910TIP3   OH2 5735   1.589   1.706   2.753  0.0329 -0.6122 -0.0217
 1910TIP3    H1 5736   1.495   1.710   2.774  0.1406 -0.0829  0.3703
 1910TIP3    H2 5737   1.632   1.744   2.829  0.6398 -1.8874  0.2767
 1911TIP3   OH2 5738   1.451   1.556   3.104 -0.4483 -0.2160  0.1973
 1911TIP3    H1 5739   1.412   1.643   3.112 -0.4894 -0.1769 -0.3890
 1911TIP3    H2 5740   1.546   1.573   3.100 -0.4947 -0.1400 -0.6620
 1912TIP3   OH2 5741   1.598   1.775   4.670 -0.7376  0.0341 -0.4373
 1912TIP3    H1 5742   1.593   1.712   4.742  0.4584 -0.6265 -0.9171
 1912TIP3    H2 5743   1.518   1.826   4.678 -1.7571 -1.5624 -0.0578
 1913TIP3   OH2 5744   4.775   4.203   3.067  0.2858  0.3468  0.2161
 1913TIP3    H1 5745   4.742   4.173   3.151 -2.1778  0.0867 -0.8117
 1913TIP3    H2 5746   4.723   4.281   3.046  1.4290  0.8992 -0.7046
 1914TIP3   OH2 5747   4.885   2.184   1.269  0.0670  0.1686 -0.2395
 1914TIP3    H1 5748   4.821   2.137   1.321  1.6974 -0.9690  0.8024
 1914TIP3    H2 5749   4.970   2.158   1.306  1.1408  1.3989 -1.7513
 1915TIP3   OH2 5750   0.061   2.554   4.895  0.6653  0.5478 -0.1029
 1915TIP3    H1 5751  -0.004   2.601   4.948  1.0851 -0.1809  1.0922
 1915TIP3    H2 5752   0.071   2.470   4.940 -0.7112 -1.0518 -2.6898
 1916TIP3   OH2 5753   4.596   2.509   3.593 -0.2361 -0.2328  0.3052
 1916TIP3    H1 5754   4.663   2.549   3.648 -1.3097 -0.3681  1.7310
 1916TIP3    H2 5755   4.516   2.556   3.616 -0.3005  1.3434 -2.8546
 1917TIP3   OH2 5756   5.825   3.622   2.710 -0.5662  0.1676  0.0397
 1917TIP3    H1 5757   5.905   3.582   2.743 -1.5041 -0.3417  1.8163
 1917TIP3    H2 5758   5.852   3.706   2.674  0.9593 -0.6253 -0.6858
 1918TIP3   OH2 5759   1.156   2.325   1.901 -0.0714 -0.4036 -0.1640
 1918TIP3    H1 5760   1.140   2.300   1.992 -0.0981  1.3092  0.3099
 1918TIP3    H2 5761   1.200   2.249   1.863  0.2476 -1.0051  1.3611
 1919TIP3   OH2 5762   5.557   2.354   3.236 -0.6339  0.5545 -0.2204
 1919TIP3    H1 5763   5.520   2.423   3.182 -3.4146 -0.1070  0.7734
 1919TIP3    H2 5764   5.537   2.273   3.189  0.4033  0.2275 -0.1288
 1920TIP3   OH2 5765   4.555   5.215   4.888 -0.8940 -0.1585  0.1289
 1920TIP3    H1 5766   4.647   5.231   4.906 -1.3490  2.5058  0.2123
 1920TIP3    H2 5767   4.536   5.133   4.934  1.9884 -2.0599 -1.9005
 1921TIP3   OH2 5768   5.961   3.392   4.864 -0.0516  0.0929  0.3339
 1921TIP3    H1 5769   6.019   3.397   4.940 -0.4552  2.3700  0.5458
 1921TIP3    H2 5770   5.976   3.475   4.818 -1.7209 -0.1301 -0.6555
 1922TIP3   OH2 5771   0.310   2.320   3.036 -0.3207  0.1533  0.6633
 1922TIP3    H1 5772   0.399   2.353   3.053 -1.5480  3.5547  0.9695
 1922TIP3    H2 5773   0.295   2.338   2.943 -1.1256  0.7588  0.9044
 1923TIP3   OH2 5774   4.226   5.019   0.081  0.5555 -0.0014  0.5722
 1923TIP3    H1 5775   4.147   4.980   0.118  0.1561  0.6388  0.4079
 1923TIP3    H2 5776   4.272   5.057   0.155  0.6897 -0.3367  0.6621
 1924TIP3   OH2 5777   2.205   5.872   0.155 -0.2919  0.1962 -0.1504
 1924TIP3    H1 5778   2.232   5.952   0.200  0.0904  0.5361 -0.9746
 1924TIP3    H2 5779   2.264   5.804   0.189  1.8534  0.9896 -2.1567
 1925TIP3   OH2 5780   2.315   1.280   4.418 -0.1508 -0.1889 -0.0160
 1925TIP3    H1 5781   2.309   1.250   4.327  0.9080 -1.4492  0.3050
 1925TIP3    H2 5782   2.257   1.221   4.466 -0.1442  0.0046  0.2253
 1926TIP3   OH2 5783   3.433   5.355   0.164  0.1530 -0.0149  0.4063
 1926TIP3    H1 5784   3.350   5.397   0.188 -0.6193  1.1911 -3.8728
 1926TIP3    H2 5785   3.495   5.428   0.157  0.1394 -0.1653 -1.7604
 1927TIP3   OH2 5786   0.840   1.961   4.590  0.4873  0.0830 -0.0676
 1927TIP3    H1 5787   0.880   1.898   4.650 -0.6235 -0.2102  0.3734
 1927TIP3    H2 5788   0.764   1.915   4.554  0.2365  0.8238 -0.4939
 1928TIP3   OH2 5789   3.216   3.558   0.022 -0.0955  0.4861 -0.2434
 1928TIP3    H1 5790   3.297   3.531   0.065 -0.0042 -0.7500 -1.1708
 1928TIP3    H2 5791   3.243   3.582  -0.067 -0.7394  0.1065 -0.5441
 1929TIP3   OH2 5792   2.368   4.542   0.120 -0.5511  0.4568 -0.4901
 1929TIP3    H1 5793   2.344   4.465   0.172  1.2876 -0.7715 -1.4044
 1929TIP3    H2 5794   2.364   4.511   0.029 -1.0317  1.8086 -0.9349
 1930TIP3   OH2 5795   5.362   1.251   2.608  0.0576  0.0321  0.0247
 1930TIP3    H1 5796   5.360   1.316   2.538  1.8657 -1.3635 -1.3551
 1930TIP3    H2 5797   5.448   1.209   2.600 -1.5143 -3.3987  0.0606
 1931TIP3   OH2 5798   1.249   5.325   0.129 -0.0147  0.3198  0.6100
 1931TIP3    H1 5799   1.274   5.376   0.052 -0.1763 -0.1988  0.2124
 1931TIP3    H2 5800   1.282   5.376   0.203  0.7521  0.4688  0.1676
 1932TIP3   OH2 5801   0.548   3.255   2.600  0.0222 -0.2476  0.2566
 1932TIP3    H1 5802   0.550   3.350   2.614 -0.1786 -0.1514 -0.3686
 1932TIP3    H2 5803   0.599   3.219   2.673  0.5935  0.3806  0.1726
 1933TIP3   OH2 5804   4.988   3.554   2.479  0.7234 -0.0548 -0.5493
 1933TIP3    H1 5805   4.936   3.498   2.537 -0.5209  0.5564 -1.0632
 1933TIP3    H2 5806   5.020   3.624   2.536 -1.8283  1.4441 -0.8759
 1934TIP3   OH2 5807   1.693   1.859   4.265  0.1146 -0.0642  0.2502
 1934TIP3    H1 5808   1.738   1.854   4.349 -0.9521 -0.8031  0.7984
 1934TIP3    H2 5809   1.729   1.936   4.222 -0.2705  1.0930  1.9478
 1935TIP3   OH2 5810   1.468   3.737   2.133  0.1633  0.0976 -0.2787
 1935TIP3    H1 5811   1.509   3.658   2.099 -0.5447 -0.2486 -0.3419
 1935TIP3    H2 5812   1.499   3.744   2.224 -1.1230 -1.1986  0.2732
 1936TIP3   OH2 5813   1.333   3.989   2.384  0.7868 -0.1941 -0.3209
 1936TIP3    H1 5814   1.424   4.008   2.405  1.0090 -0.2269 -1.2274
 1936TIP3    H2 5815   1.338   3.920   2.317  0.2359  2.9137 -3.7081
 1937TIP3   OH2 5816   1.908   1.854   4.840 -0.2135 -0.5516 -0.0571
 1937TIP3    H1 5817   1.879   1.812   4.921 -1.5555  0.4216 -0.0124
 1937TIP3    H2 5818   1.890   1.947   4.854  3.0297  0.1256 -0.0053
 1938TIP3   OH2 5819   2.036   0.987   2.618  0.0348  0.0177 -0.1083
 1938TIP3    H1 5820   2.040   0.943   2.702  0.0985 -1.0789 -0.6700
 1938TIP3    H2 5821   1.945   1.015   2.609 -0.0849 -0.3080  0.1034
 1939TIP3   OH2 5822   2.282   3.200   3.761 -0.0153  0.1225  0.4784
 1939TIP3    H1 5823   2.323   3.201   3.848  0.4186  1.5910  0.2716
 1939TIP3    H2 5824   2.339   3.255   3.707 -0.9681  0.2512 -0.4207
 1940TIP3   OH2 5825   6.485   2.187   4.881  0.5571  0.0256 -0.4034
 1940TIP3    H1 5826   6.466   2.232   4.799 -1.2536  0.2263  0.0968
 1940TIP3    H2 5827   6.487   2.257   4.947  0.2402 -0.3302 -0.0116
 1941TIP3   OH2 5828   1.027   2.963   3.038 -0.2841  0.3144  0.2121
 1941TIP3    H1 5829   1.121   2.982   3.028  0.0318 -0.9349  0.6293
 1941TIP3    H2 5830   0.990   3.044   3.073  0.5510  0.9900 -0.4218
 1942TIP3   OH2 5831   5.792   1.026   0.812  0.6006 -0.0481  0.1644
 1942TIP3    H1 5832   5.766   0.954   0.755 -1.2647  0.5009  0.3130
 1942TIP3    H2 5833   5.784   0.990   0.900  0.8043 -0.0161  0.1967
 1943TIP3   OH2 5834   0.613   1.403   4.743 -0.0325 -0.1266  0.0355
 1943TIP3    H1 5835   0.694   1.353   4.743  0.2592  0.3112 -1.6195
 1943TIP3    H2 5836   0.624   1.467   4.673 -1.0949  1.1085  0.9685
 1944TIP3   OH2 5837   5.012   5.592   3.133 -0.4680 -0.5537 -0.2971
 1944TIP3    H1 5838   5.075   5.632   3.073  0.8383  2.6028  2.9602
 1944TIP3    H2 5839   4.958   5.665   3.163 -2.0048 -2.2932  1.2701
 1945TIP3   OH2 5840   0.599   2.089   3.167 -0.2368 -0.2044 -0.0584
 1945TIP3    H1 5841   0.522   2.052   3.124 -0.0831 -0.1498 -0.3819
 1945TIP3    H2 5842   0.568   2.114   3.254 -0.8651  0.8670 -0.5811
 1946TIP3   OH2 5843   2.740   0.067   2.929 -0.1615  0.3127 -0.2983
 1946TIP3    H1 5844   2.741  -0.027   2.912  1.0072  0.5226 -1.5559
 1946TIP3    H2 5845   2.696   0.076   3.013 -0.2099 -1.3678 -0.1213
 1947TIP3   OH2 5846   5.562   0.732   2.130 -0.1326 -0.1892 -0.1683
 1947TIP3    H1 5847   5.493   0.724   2.064  0.3271 -2.0533 -0.4414
 1947TIP3    H2 5848   5.628   0.788   2.090  0.7468 -2.3651 -1.8290
 1948TIP3   OH2 5849   0.190   1.368   3.355 -0.0094 -0.4090  0.4869
 1948TIP3    H1 5850   0.266   1.419   3.326 -0.0219  0.8716  2.6802
 1948TIP3    H2 5851   0.201   1.284   3.310  2.1735  0.0893 -0.0099
 1949TIP3   OH2 5852   3.693   4.533   1.514  0.4845  0.6188  0.5356
 1949TIP3    H1 5853   3.719   4.623   1.494  0.9048  0.4626  0.3734
 1949TIP3    H2 5854   3.737   4.513   1.597  0.1494  0.6665  0.7258
 1950TIP3   OH2 5855   1.224   1.683   4.499  0.2208 -0.1045  0.2874
 1950TIP3    H1 5856   1.300   1.655   4.448  0.5208 -0.9732  1.1926
 1950TIP3    H2 5857   1.259   1.748   4.560 -0.0842  0.7253 -0.4135
 1951TIP3   OH2 5858   0.844   4.126   0.953  0.5743 -0.1825 -0.1303
 1951TIP3    H1 5859   0.806   4.203   0.911 -0.1224  0.1958  1.1747
 1951TIP3    H2 5860   0.933   4.152   0.976  0.5402  0.0277 -0.2402
 1952TIP3   OH2 5861   0.956   1.432   4.268  0.1031 -0.0926  0.1592
 1952TIP3    H1 5862   0.955   1.469   4.357  0.9858  0.7049 -0.1540
 1952TIP3    H2 5863   0.940   1.339   4.281 -0.1900  0.0824  1.1279
 1953TIP3   OH2 5864   2.249   0.839   4.735  0.0544  0.2933 -0.0528
 1953TIP3    H1 5865   2.305   0.889   4.676  1.4737  0.8157  1.6831
 1953TIP3    H2 5866   2.234   0.756   4.689  0.2915  1.0654 -1.5655
 1954TIP3   OH2 5867   4.185   1.563   4.364 -0.6729 -0.1380 -0.4909
 1954TIP3    H1 5868   4.090   1.555   4.367 -0.5294 -1.5700  1.1877
 1954TIP3    H2 5869   4.217   1.481   4.403  1.2151  0.8254  0.0397
 1955TIP3   OH2 5870   0.203   1.351   1.757  0.1314  0.2500  0.3376
 1955TIP3    H1 5871   0.152   1.272   1.773  0.9208 -0.3341 -0.0092
 1955TIP3    H2 5872   0.164   1.390   1.679  0.4526 -0.3949 -0.1444
 1956TIP3   OH2 5873   0.851   2.064   2.594 -0.2728  0.7797 -0.7671
 1956TIP3    H1 5874   0.931   2.012   2.592 -1.0152 -0.4354  0.2128
 1956TIP3    H2 5875   0.844   2.093   2.685 -0.7917  1.1192 -0.9134
 1957TIP3   OH2 5876   5.315   1.355   2.078 -0.5073 -1.0735 -0.0371
 1957TIP3    H1 5877   5.346   1.267   2.058 -1.6244 -1.0507 -2.0503
 1957TIP3    H2 5878   5.296   1.394   1.992 -1.9429  0.4105  0.9175
 1958TIP3   OH2 5879   6.238   1.501   4.639  0.0800  0.7795 -0.2098
 1958TIP3    H1 5880   6.320   1.479   4.595  0.8363  2.2483  0.4228
 1958TIP3    H2 5881   6.265   1.531   4.726 -1.1433  1.1506  0.0524
 1959TIP3   OH2 5882   1.468   2.742   2.285 -0.3172 -0.2145 -0.1863
 1959TIP3    H1 5883   1.526   2.761   2.358  0.0156 -0.4196 -0.3979
 1959TIP3    H2 5884   1.436   2.653   2.301 -0.7725 -0.0114  0.0608
 1960TIP3   OH2 5885   3.198   4.354   0.428  0.0544 -0.1249 -0.4526
 1960TIP3    H1 5886   3.273   4.363   0.486 -0.7934 -0.0446  0.6317
 1960TIP3    H2 5887   3.149   4.279   0.462  0.3098 -0.9967 -1.9195
 1961TIP3   OH2 5888   0.933   3.643   3.154  0.6102 -0.3318  1.3168
 1961TIP3    H1 5889   0.963   3.595   3.231 -1.3744 -1.4268  1.4574
 1961TIP3    H2 5890   0.850   3.601   3.131  0.4557  0.9348 -0.5377
 1962TIP3   OH2 5891   1.850   3.219   2.503  0.0472  0.6182 -0.1408
 1962TIP3    H1 5892   1.835   3.150   2.568  0.3610  0.8890  0.2165
 1962TIP3    H2 5893   1.901   3.176   2.435  0.2461  0.4994  0.0844
 1963TIP3   OH2 5894   5.294   3.978   3.364 -0.0938 -0.4980 -0.3652
 1963TIP3    H1 5895   5.263   3.888   3.351  0.1296 -0.5489 -0.5337
 1963TIP3    H2 5896   5.324   4.006   3.277 -2.1930  0.4934 -0.8117
 1964TIP3   OH2 5897   2.029   1.944   2.944  0.1063  0.1524 -0.3209
 1964TIP3    H1 5898   2.028   1.990   2.860  1.6276  3.5128  1.4283
 1964TIP3    H2 5899   2.121   1.928   2.962 -0.0052  1.6824  1.8350
 1965TIP3   OH2 5900   0.531   4.011   2.633 -0.0999  0.1362 -0.1480
 1965TIP3    H1 5901   0.539   4.004   2.538  1.6806  0.6128 -0.0609
 1965TIP3    H2 5902   0.590   3.944   2.667 -0.2233  0.4207  0.6309
 1966TIP3   OH2 5903   0.711   1.949   3.466  0.4502  0.3758  0.4613
 1966TIP3    H1 5904   0.619   1.963   3.443 -0.0527 -1.1523  1.5064
 1966TIP3    H2 5905   0.708   1.904   3.550  2.1822  1.0799  0.9210
 1967TIP3   OH2 5906   0.679   0.757   1.825  0.4514 -0.2108 -0.4590
 1967TIP3    H1 5907   0.621   0.826   1.856  0.1346 -0.5854 -0.2216
 1967TIP3    H2 5908   0.643   0.731   1.740  1.9737  1.6172 -1.7274
 1968TIP3   OH2 5909   2.060   2.035   0.698 -0.4883  0.1854  0.1599
 1968TIP3    H1 5910   2.046   1.960   0.639 -2.2145 -0.1954  1.0211
 1968TIP3    H2 5911   1.999   2.102   0.667  0.3188  0.8742  0.0380
 1969TIP3   OH2 5912   1.058   1.451   2.934  0.0920 -0.1548  0.1156
 1969TIP3    H1 5913   1.009   1.531   2.914 -1.2049 -1.0715 -0.3819
 1969TIP3    H2 5914   1.113   1.437   2.857  1.6039  1.1739  0.8966
 1970TIP3   OH2 5915   0.429   1.647   1.807 -0.3408  0.0443  0.0576
 1970TIP3    H1 5916   0.518   1.675   1.786 -0.7301  2.6571  1.6654
 1970TIP3    H2 5917   0.433   1.551   1.807  2.6329  0.1327  0.9013
 1971TIP3   OH2 5918   5.811   2.647   2.483  0.1411 -0.1501 -0.5773
 1971TIP3    H1 5919   5.754   2.708   2.529  1.1963  0.8661 -0.6157
 1971TIP3    H2 5920   5.759   2.566   2.477 -1.1813  0.6687 -0.3614
 1972TIP3   OH2 5921   5.651   2.113   1.212  0.2283 -0.2842  0.4858
 1972TIP3    H1 5922   5.709   2.093   1.285 -0.5284 -0.0010  1.1770
 1972TIP3    H2 5923   5.580   2.048   1.219 -0.1766  0.1425  0.3848
 1973TIP3   OH2 5924   1.398   0.562   2.280 -0.3403  0.0333  0.1019
 1973TIP3    H1 5925   1.444   0.572   2.196 -1.4345  1.2081 -0.3792
 1973TIP3    H2 5926   1.421   0.474   2.310  2.4553  0.6916  0.0319
 1974TIP3   OH2 5927   3.611   3.509   0.682 -0.3928 -0.6600  0.1037
 1974TIP3    H1 5928   3.663   3.587   0.661  0.5709 -1.6308 -1.2001
 1974TIP3    H2 5929   3.634   3.489   0.772 -0.8723  0.7296  0.5528
 1975TIP3   OH2 5930   5.963   1.464   2.772 -0.7612  0.3163  0.5933
 1975TIP3    H1 5931   6.047   1.475   2.815 -1.2544 -0.0041  1.6584
 1975TIP3    H2 5932   5.961   1.373   2.744 -0.1431  0.7068 -0.7757
 1976TIP3   OH2 5933   3.363   5.421   2.463  0.0676 -0.2898 -0.4262
 1976TIP3    H1 5934   3.352   5.330   2.434 -0.5395 -0.4596  0.3259
 1976TIP3    H2 5935   3.450   5.446   2.432  0.0344 -0.9670 -1.0649
 1977TIP3   OH2 5936   0.093   2.129   2.671  0.4350 -0.3787  0.3922
 1977TIP3    H1 5937   0.049   2.194   2.725 -1.0205 -0.9459 -0.0929
 1977TIP3    H2 5938   0.068   2.045   2.709 -0.6924 -0.7938 -1.2029
 1978TIP3   OH2 5939   1.034   0.354   4.835  0.0426  0.1750 -0.2603
 1978TIP3    H1 5940   0.988   0.438   4.832 -1.7804 -0.7637  0.5158
 1978TIP3    H2 5941   1.010   0.311   4.754 -1.8686 -1.0227  0.9135
 1979TIP3   OH2 5942   6.421   1.269   3.599  0.7498  0.1225  0.0254
 1979TIP3    H1 5943   6.426   1.344   3.540 -1.3959 -0.0390 -0.3824
 1979TIP3    H2 5944   6.409   1.193   3.541  0.1755 -0.2088  0.5692
 1980TIP3   OH2 5945   0.632   2.237   4.652  0.1755 -0.4119 -0.2946
 1980TIP3    H1 5946   0.572   2.163   4.658  0.8949 -0.9394  0.5715
 1980TIP3    H2 5947   0.605   2.296   4.722 -0.1149 -0.0570 -0.7002
 1981TIP3   OH2 5948   0.323   2.043   3.053  0.2427 -0.2058  0.3150
 1981TIP3    H1 5949   0.259   1.991   3.102  1.1786 -0.5695  1.1769
 1981TIP3    H2 5950   0.308   2.133   3.082  0.2373 -0.3151  0.6624
 1982TIP3   OH2 5951   0.890   1.679   1.026 -0.2563  0.6302 -0.4569
 1982TIP3    H1 5952   0.845   1.637   1.099 -0.4795  1.6956  0.0316
 1982TIP3    H2 5953   0.824   1.684   0.957  0.2755 -1.3982 -1.1556
 1983TIP3   OH2 5954   0.058   1.033   4.702  0.7706  0.3303  0.0144
 1983TIP3    H1 5955   0.044   1.085   4.782 -0.3317  1.3998 -0.8546
 1983TIP3    H2 5956   0.041   0.943   4.729  0.3111  0.6933  0.9688
 1984TIP3   OH2 5957   6.361   4.532   1.896  0.0025  0.9635 -0.1797
 1984TIP3    H1 5958   6.427   4.564   1.834 -0.6458 -1.0960 -1.9985
 1984TIP3    H2 5959   6.309   4.609   1.917 -0.8003  1.4237 -3.5510
 1985TIP3   OH2 5960   0.874   2.805   2.356  0.0841  0.8785  1.0444
 1985TIP3    H1 5961   0.957   2.784   2.399  0.0322 -1.7884 -0.0549
 1985TIP3    H2 5962   0.894   2.801   2.262 -0.8082  2.2657  0.7873
 1986TIP3   OH2 5963   0.495   1.137   5.099 -0.1620 -0.0989  0.1240
 1986TIP3    H1 5964   0.418   1.101   5.142 -1.2517  0.2057 -1.5126
 1986TIP3    H2 5965   0.545   1.178   5.169 -2.3498  1.2174  0.9719
 1987TIP3   OH2 5966   1.704   2.375   2.706 -0.0532 -0.5458  0.1481
 1987TIP3    H1 5967   1.664   2.394   2.621 -1.2086 -2.0630  0.3403
 1987TIP3    H2 5968   1.795   2.400   2.696 -0.4205  0.3091 -1.1918
 1988TIP3   OH2 5969   2.557   1.934   2.910 -0.3711  0.4799 -0.5725
 1988TIP3    H1 5970   2.587   1.954   2.822 -0.8333  1.1594 -0.5766
 1988TIP3    H2 5971   2.637   1.915   2.959  0.1169  2.5392 -0.5109
 1989TIP3   OH2 5972   0.961   1.177   3.253 -0.2848 -0.0029  0.4026
 1989TIP3    H1 5973   0.915   1.097   3.228 -2.9909  0.7533  2.7069
 1989TIP3    H2 5974   0.980   1.221   3.170 -1.4697 -1.5771 -0.7229
 1990TIP3   OH2 5975   3.952   3.284   4.129 -0.0956  0.4842  0.1746
 1990TIP3    H1 5976   3.898   3.361   4.109 -0.7397  0.1121  0.4540
 1990TIP3    H2 5977   4.007   3.312   4.203 -1.4508  0.1931  1.3238
 1991TIP3   OH2 5978   4.808   1.063   4.839 -0.3242 -0.5600 -0.2702
 1991TIP3    H1 5979   4.804   0.969   4.824  0.6839 -0.5888 -0.4220
 1991TIP3    H2 5980   4.901   1.085   4.829 -0.4618  0.3518  0.3345
 1992TIP3   OH2 5981   5.510   2.643   1.794  0.7838 -0.4824 -0.2578
 1992TIP3    H1 5982   5.481   2.732   1.811 -1.6664 -1.9406  3.9346
 1992TIP3    H2 5983   5.462   2.616   1.715  0.4607  1.3738 -0.7049
 1993TIP3   OH2 5984   1.551   1.832   0.682 -0.0526  0.3820  0.2380
 1993TIP3    H1 5985   1.599   1.913   0.702 -1.7312  1.6753 -0.7786
 1993TIP3    H2 5986   1.464   1.862   0.655 -0.2933 -1.6966 -1.4535
 1994TIP3   OH2 5987   3.454   2.411   2.568  0.0897 -0.5937 -0.2319
 1994TIP3    H1 5988   3.543   2.392   2.596 -0.4321  0.6958  2.4904
 1994TIP3    H2 5989   3.438   2.501   2.597 -1.3007  0.0383 -2.8071
 1995TIP3   OH2 5990   1.833   3.043   2.703 -0.1327 -0.1532 -0.1862
 1995TIP3    H1 5991   1.820   3.113   2.767 -0.2485 -0.1158 -0.2498
 1995TIP3    H2 5992   1.845   2.964   2.755  0.0959 -0.0690 -0.1106
 1996TIP3   OH2 5993   3.585   2.772   3.096  0.2237  0.0875 -0.5888
 1996TIP3    H1 5994   3.671   2.731   3.094 -0.2008 -0.8327 -0.0020
 1996TIP3    H2 5995   3.523   2.700   3.087 -0.6029  0.3452  2.4843
 1997TIP3   OH2 5996   2.431   1.054   3.044  0.1085 -0.8038  0.1197
 1997TIP3    H1 5997   2.472   1.114   3.107 -0.5221 -0.9668  0.6849
 1997TIP3    H2 5998   2.482   0.974   3.051 -0.4333 -1.0726  0.9701
 1998TIP3   OH2 5999   3.108   3.515   0.814 -0.0704  0.4050  0.5819
 1998TIP3    H1 6000   3.167   3.565   0.757 -0.3776  0.2115  0.0897
 1998TIP3    H2 6001   3.053   3.466   0.754 -1.2736  1.1933  1.0177
 1999TIP3   OH2 6002   2.681   2.655   4.481  0.0868  0.4099 -0.1283
 1999TIP3    H1 6003   2.758   2.702   4.514  0.1726 -0.1245  0.4475
 1999TIP3    H2 6004   2.618   2.724   4.461  0.3607  0.8015  0.3154
 2000TIP3   OH2 6005   3.222   2.520   2.058 -0.2351  0.1833  0.3715
 2000TIP3    H1 6006   3.183   2.477   2.133 -0.9644  0.8326  0.3634
 2000TIP3    H2 6007   3.314   2.534   2.083 -0.5988  0.8641  1.3359
 2001TIP3   OH2 6008   2.897   0.948   3.297 -0.1509  0.0186 -0.1248
 2001TIP3    H1 6009   2.848   0.870   3.273  0.0692 -0.6070  1.4279
 2001TIP3    H2 6010   2.837   1.001   3.348  0.2450  0.0608  0.3019
 2002TIP3   OH2 6011   2.177   0.678   3.167  0.1395  0.0069  0.2360
 2002TIP3    H1 6012   2.198   0.646   3.079 -1.8451 -0.9704  0.0876
 2002TIP3    H2 6013   2.238   0.631   3.225  1.7231  0.9478 -0.6210
 2003TIP3   OH2 6014   4.220   1.945   3.987  0.8324 -0.2814 -0.4395
 2003TIP3    H1 6015   4.137   1.930   3.941 -0.4219  1.6611  1.1265
 2003TIP3    H2 6016   4.272   1.867   3.967 -0.9545 -1.0667 -2.3092
 2004TIP3   OH2 6017   1.853   0.767   3.890  0.2864  0.0078  0.1371
 2004TIP3    H1 6018   1.923   0.764   3.825 -0.1219  0.3284 -0.3243
 2004TIP3    H2 6019   1.844   0.860   3.911 -2.4487  0.4301 -2.5244
 2005TIP3   OH2 6020   3.339   4.259   5.025  0.0011 -0.4105 -0.5726
 2005TIP3    H1 6021   3.386   4.206   5.090 -2.1060 -0.7691  0.6931
 2005TIP3    H2 6022   3.279   4.313   5.077 -1.4285 -0.4009 -2.1942
 2006TIP3   OH2 6023   2.261   2.419   2.521  0.8448 -0.3526 -0.1542
 2006TIP3    H1 6024   2.282   2.328   2.543 -2.4152 -0.8987  1.0007
 2006TIP3    H2 6025   2.210   2.451   2.595 -0.5761  1.4744 -1.8492
 2007TIP3   OH2 6026   2.798   0.717   3.188  0.6597 -0.0708  0.2546
 2007TIP3    H1 6027   2.765   0.631   3.214  4.8656 -1.5857  1.0071
 2007TIP3    H2 6028   2.852   0.700   3.111 -0.8715  2.4075 -1.4273
 2008TIP3   OH2 6029   4.012   1.784   4.242  0.0214 -0.6163 -0.0867
 2008TIP3    H1 6030   3.960   1.746   4.313  0.6759  1.8045  1.7234
 2008TIP3    H2 6031   4.053   1.708   4.200 -3.0172 -2.3844 -0.0449
 2009TIP3   OH2 6032   5.461   4.053   3.165  0.3195  0.5259  0.3122
 2009TIP3    H1 6033   5.427   4.030   3.078 -0.1092 -0.6309  0.7762
 2009TIP3    H2 6034   5.547   4.011   3.169  1.2201  2.2494 -0.3062
 2010TIP3   OH2 6035   2.007   1.830   4.122 -0.5883 -0.0162  0.2868
 2010TIP3    H1 6036   2.077   1.801   4.063  0.7808 -0.2051  1.9613
 2010TIP3    H2 6037   1.999   1.924   4.106  1.9314  0.5166  1.9836
 2011TIP3   OH2 6038   1.579   2.998   3.267 -0.3401  0.2225  0.3651
 2011TIP3    H1 6039   1.592   3.057   3.194 -0.3453  1.9484  1.7342
 2011TIP3    H2 6040   1.622   3.040   3.341 -0.0736 -1.6260  1.3083
 2012TIP3   OH2 6041   3.044   0.802   3.761 -0.4155  0.2489  0.6111
 2012TIP3    H1 6042   3.079   0.836   3.679 -0.2065  1.0869  1.0401
 2012TIP3    H2 6043   2.967   0.857   3.778 -0.4495  0.0869  0.9827
 2013TIP3   OH2 6044   0.807   0.233   3.975 -0.3508 -0.3167  0.1705
 2013TIP3    H1 6045   0.731   0.284   3.948 -0.9444 -0.4194  1.5844
 2013TIP3    H2 6046   0.782   0.142   3.959  0.1418 -0.2657 -0.9597
 2014TIP3   OH2 6047   3.003   2.830   0.831  0.1054  0.0881 -0.5220
 2014TIP3    H1 6048   3.033   2.897   0.891 -0.8047 -0.2661  0.3405
 2014TIP3    H2 6049   2.930   2.787   0.876 -0.1861 -0.5993 -1.6049
 2015TIP3   OH2 6050   3.869   2.625   4.031 -0.4147 -0.5704  0.0531
 2015TIP3    H1 6051   3.825   2.666   3.957  0.6216  0.9301  0.2385
 2015TIP3    H2 6052   3.941   2.576   3.993  0.8260  1.1430  0.1132
 2016TIP3   OH2 6053   3.166   4.924   1.883  0.3144  0.1458 -0.5702
 2016TIP3    H1 6054   3.223   4.892   1.814  0.2750 -0.0167 -0.5289
 2016TIP3    H2 6055   3.205   4.889   1.964 -0.7577 -1.3470 -0.6729
 2017TIP3   OH2 6056   3.338   0.943   1.529 -0.4015 -0.3341  0.0634
 2017TIP3    H1 6057   3.401   0.893   1.478 -0.4866 -0.3040 -0.0701
 2017TIP3    H2 6058   3.263   0.885   1.539 -1.4901  0.6258 -2.1521
 2018TIP3   OH2 6059   3.470   1.609   0.867  0.2708 -0.5101 -0.8628
 2018TIP3    H1 6060   3.476   1.566   0.782 -1.4849  2.0069 -2.3244
 2018TIP3    H2 6061   3.382   1.588   0.899  0.2769 -0.0193 -0.5033
 2019TIP3   OH2 6062   3.477   2.100   2.936  0.5379 -0.1500 -0.1075
 2019TIP3    H1 6063   3.476   2.159   3.011  1.3695 -0.8762  0.4932
 2019TIP3    H2 6064   3.433   2.021   2.967  2.3949 -1.1012  0.1813
 2020TIP3   OH2 6065   2.356   2.689   2.479  0.3439  0.6489 -0.6693
 2020TIP3    H1 6066   2.303   2.744   2.537  2.4077  0.4165  1.5122
 2020TIP3    H2 6067   2.318   2.601   2.488 -1.3478  1.2059 -2.1810
 2021TIP3   OH2 6068   3.037   1.884   4.498  0.3121  0.2784  0.1492
 2021TIP3    H1 6069   3.040   1.975   4.527  1.2335  0.8293 -1.5790
 2021TIP3    H2 6070   3.125   1.851   4.514 -0.6075 -1.0045  2.8166
 2022TIP3   OH2 6071   2.042   2.272   4.225  0.1372  0.3600  0.4640
 2022TIP3    H1 6072   2.135   2.248   4.223 -0.0115 -0.2146  0.5157
 2022TIP3    H2 6073   2.038   2.356   4.178  0.5933  0.0945 -0.0532
 2023TIP3   OH2 6074   1.324   3.631   3.264  0.1344  0.2254  0.2022
 2023TIP3    H1 6075   1.281   3.682   3.196  1.9936  0.5971 -0.7282
 2023TIP3    H2 6076   1.308   3.540   3.241 -0.2677  0.3611 -0.0486
 2024TIP3   OH2 6077   5.433   4.244   4.936  0.3206  0.0134  0.0900
 2024TIP3    H1 6078   5.487   4.249   4.858 -0.3304  1.4703 -0.2858
 2024TIP3    H2 6079   5.353   4.199   4.908 -0.7460  2.2496 -0.6056
 2025TIP3   OH2 6080   3.700   2.104   2.760 -0.5205  0.2409 -0.1283
 2025TIP3    H1 6081   3.774   2.113   2.821 -0.5254 -2.7869  0.3681
 2025TIP3    H2 6082   3.632   2.059   2.811 -2.8669  3.1876 -0.4910
 2026TIP3   OH2 6083   6.357   2.260   2.414  0.4356 -0.2914 -0.8876
 2026TIP3    H1 6084   6.428   2.296   2.467  0.3407  0.2883 -1.1483
 2026TIP3    H2 6085   6.339   2.328   2.349 -0.3517 -0.4393 -0.8282
 2027TIP3   OH2 6086   2.018   1.806   3.307 -0.4507  0.0979 -0.1611
 2027TIP3    H1 6087   2.041   1.745   3.377  0.2177 -0.6175 -0.9933
 2027TIP3    H2 6088   2.021   1.754   3.227  0.2017  1.2286 -0.8980
 2028TIP3   OH2 6089   4.518   1.617   2.198 -0.3367  0.7209 -0.3808
 2028TIP3    H1 6090   4.523   1.634   2.103 -1.7275 -1.8136 -0.9287
 2028TIP3    H2 6091   4.425   1.622   2.218 -0.1380  0.2213  0.6619
 2029TIP3   OH2 6092   2.287   1.854   2.891 -0.1269 -0.1568 -0.0398
 2029TIP3    H1 6093   2.298   1.759   2.897  0.6651 -0.1364 -1.0314
 2029TIP3    H2 6094   2.376   1.889   2.900 -0.2920  0.4317 -0.6397
 2030TIP3   OH2 6095   4.372   0.269   2.683 -0.3585  0.4923  0.0495
 2030TIP3    H1 6096   4.291   0.289   2.731  0.6309 -0.1784  2.0407
 2030TIP3    H2 6097   4.433   0.238   2.750  1.1262 -0.3136 -1.6277
 2031TIP3   OH2 6098   2.131   1.334   4.831 -0.1916 -0.1095  0.0684
 2031TIP3    H1 6099   2.141   1.240   4.814  1.7761  0.0324  0.3925
 2031TIP3    H2 6100   2.076   1.338   4.909  0.7711 -1.0347  0.8148
 2032TIP3   OH2 6101   2.238   3.867   2.982  0.7059 -0.4732  0.2405
 2032TIP3    H1 6102   2.313   3.924   3.000  0.3219 -0.3248  1.4139
 2032TIP3    H2 6103   2.256   3.787   3.031 -1.0439  0.4868  2.5607
 2033TIP3   OH2 6104   3.667   4.060   1.919 -0.0505  0.1500 -0.0119
 2033TIP3    H1 6105   3.593   4.119   1.907  0.0183 -0.0723 -1.5782
 2033TIP3    H2 6106   3.651   4.018   2.004 -0.7813  1.4224  0.4815
 2034TIP3   OH2 6107   2.477   2.659   2.809  0.1375 -0.5366 -0.0964
 2034TIP3    H1 6108   2.501   2.574   2.770  0.3654 -0.1842 -0.7214
 2034TIP3    H2 6109   2.411   2.637   2.874  0.3060 -1.2199 -0.1478
 2035TIP3   OH2 6110   0.246   2.364   0.895  0.1020  0.0230 -0.6007
 2035TIP3    H1 6111   0.152   2.375   0.911  0.7972  2.8952  1.8096
 2035TIP3    H2 6112   0.269   2.433   0.833  0.5952 -0.8379 -1.3957
 2036TIP3   OH2 6113   3.561   4.904   1.928 -0.1749 -0.1039  0.0461
 2036TIP3    H1 6114   3.579   4.821   1.884 -0.0360 -0.1457  0.1816
 2036TIP3    H2 6115   3.579   4.971   1.861 -0.3847 -0.1876 -0.0935
 2037TIP3   OH2 6116   6.253   3.079   2.784 -0.0500 -0.3765  0.4236
 2037TIP3    H1 6117   6.291   3.113   2.703  0.7943  1.2657  1.4968
 2037TIP3    H2 6118   6.306   3.116   2.854 -1.8796 -0.3322  1.8280
 2038TIP3   OH2 6119   1.714   5.907   4.492 -0.2428 -0.0251  0.2347
 2038TIP3    H1 6120   1.621   5.926   4.480 -0.3130 -1.1527 -1.1234
 2038TIP3    H2 6121   1.759   5.983   4.454 -0.5864 -0.2927 -0.7174
 2039TIP3   OH2 6122   1.699   3.252   4.825  0.7256  0.1177 -0.0788
 2039TIP3    H1 6123   1.669   3.304   4.751  0.1884 -1.5368 -1.0501
 2039TIP3    H2 6124   1.655   3.168   4.814 -0.0218  0.1291  2.5853
 2040TIP3   OH2 6125   2.868   1.967   3.350 -0.0722 -0.0564  0.6800
 2040TIP3    H1 6126   2.889   1.999   3.437 -0.7830  0.5231  0.6449
 2040TIP3    H2 6127   2.849   2.046   3.299  0.9209 -0.3388 -0.1590
 2041TIP3   OH2 6128   3.166   2.394   4.959  0.5867 -0.3287  0.5042
 2041TIP3    H1 6129   3.245   2.364   4.913 -0.6209  0.9093 -2.4413
 2041TIP3    H2 6130   3.189   2.481   4.992  0.7499 -0.3698  0.5027
 2042TIP3   OH2 6131   2.738   3.467   1.545 -0.0798 -0.1316  0.4955
 2042TIP3    H1 6132   2.796   3.396   1.574 -0.0865 -0.4064 -0.1611
 2042TIP3    H2 6133   2.727   3.522   1.623  1.0535 -0.0809  0.6169
 2043TIP3   OH2 6134   4.153   2.036   0.488 -0.2511  0.1087 -0.0393
 2043TIP3    H1 6135   4.239   2.024   0.450 -0.2452  0.3542 -0.1074
 2043TIP3    H2 6136   4.161   2.003   0.578  1.3167  4.5731  1.6363
 2044TIP3   OH2 6137   1.028   2.464   2.653  0.0740 -0.1817  0.0926
 2044TIP3    H1 6138   1.019   2.559   2.663  0.6558 -0.2203  1.0634
 2044TIP3    H2 6139   1.120   2.450   2.630  0.0757 -0.5317  0.2967
 2045TIP3   OH2 6140   3.264   1.480   4.566  0.3733 -0.8444  0.3267
 2045TIP3    H1 6141   3.356   1.474   4.590  0.1867 -0.8683  1.0291
 2045TIP3    H2 6142   3.242   1.394   4.531  0.4996 -0.9793  0.5804
 2046TIP3   OH2 6143   1.459   0.980   4.599  0.1542  0.3328 -0.0896
 2046TIP3    H1 6144   1.482   0.981   4.692 -1.7216  1.4553  0.3749
 2046TIP3    H2 6145   1.365   0.995   4.597  0.4640  2.1495 -2.2727
 2047TIP3   OH2 6146   3.123   2.455   1.283  0.0702 -0.5071  0.7529
 2047TIP3    H1 6147   3.042   2.496   1.253 -0.3270 -2.2883 -0.7425
 2047TIP3    H2 6148   3.193   2.502   1.238 -0.1149  1.0709  2.0903
 2048TIP3   OH2 6149   3.348   2.662   4.284 -0.5379  0.0222 -0.0743
 2048TIP3    H1 6150   3.395   2.717   4.346  1.1665 -0.4600 -0.9213
 2048TIP3    H2 6151   3.309   2.724   4.222  0.9107  0.3366 -0.6993
 2049TIP3   OH2 6152   1.790   1.046   2.712  0.3947  0.2333 -0.4679
 2049TIP3    H1 6153   1.749   1.042   2.799  0.9122 -1.7401 -0.2952
 2049TIP3    H2 6154   1.789   1.139   2.690 -1.4199  0.5581  0.8511
 2050TIP3   OH2 6155   0.772   1.371   2.533 -0.0332  0.2662 -0.5281
 2050TIP3    H1 6156   0.725   1.348   2.453 -1.1776 -1.1815  0.5384
 2050TIP3    H2 6157   0.703   1.393   2.596  0.7651 -0.5168  0.6364
 2051TIP3   OH2 6158   6.498   6.084   0.487 -0.0405  0.3309 -0.4872
 2051TIP3    H1 6159   6.469   6.166   0.446  0.2630  0.0360 -1.3094
 2051TIP3    H2 6160   6.435   6.018   0.457  0.2554  0.0893 -0.5783
 2052TIP3   OH2 6161   1.722   0.577   3.743 -0.4597  1.0391  0.1502
 2052TIP3    H1 6162   1.759   0.497   3.782  0.1060  0.0720 -2.2550
 2052TIP3    H2 6163   1.747   0.647   3.803  1.1338 -0.2753  1.0636
 2053TIP3   OH2 6164   3.753   1.850   4.891  0.4289 -0.0474 -0.3153
 2053TIP3    H1 6165   3.667   1.894   4.892 -0.2006 -1.2715  1.7251
 2053TIP3    H2 6166   3.732   1.758   4.876  1.2633 -0.5707  1.6533
 2054TIP3   OH2 6167   4.133   2.850   3.671  0.1004 -0.4185  0.6621
 2054TIP3    H1 6168   4.141   2.928   3.616  0.8226 -0.7083  0.3534
 2054TIP3    H2 6169   4.085   2.880   3.748  0.5108  0.3727  0.6149
 2055TIP3   OH2 6170   6.068   5.863   3.261  0.0621  0.4594 -0.2955
 2055TIP3    H1 6171   6.026   5.908   3.335 -0.8930  0.8547 -1.0557
 2055TIP3    H2 6172   6.080   5.931   3.195  1.9062  0.3413 -0.1122
 2056TIP3   OH2 6173   2.769   0.198   3.653  0.0266  0.2322 -0.5755
 2056TIP3    H1 6174   2.835   0.196   3.584  0.5559 -0.5496 -0.0613
 2056TIP3    H2 6175   2.717   0.119   3.639  0.5638 -0.2859  0.3233
 2057TIP3   OH2 6176   0.690   1.970   4.298 -0.1235  0.7463 -0.2167
 2057TIP3    H1 6177   0.771   1.920   4.303 -0.3339  0.1219 -2.4096
 2057TIP3    H2 6178   0.714   2.058   4.325  1.2023  0.4538 -0.4085
 2058TIP3   OH2 6179   3.807   1.576   3.661 -0.1590  0.3070  0.1558
 2058TIP3    H1 6180   3.727   1.542   3.619 -0.0719  0.1788  0.0953
 2058TIP3    H2 6181   3.827   1.656   3.613 -1.1857  1.2222  1.2223
 2059TIP3   OH2 6182   1.784   2.150   2.832  0.1937  0.2566  0.6821
 2059TIP3    H1 6183   1.736   2.200   2.766  1.7720 -1.3902 -1.8004
 2059TIP3    H2 6184   1.862   2.202   2.851  0.1828  0.3048  0.5945
 2060TIP3   OH2 6185   3.493   1.748   1.244  0.0842  0.3500 -0.0380
 2060TIP3    H1 6186   3.428   1.697   1.293 -0.3095 -0.0619 -0.9688
 2060TIP3    H2 6187   3.515   1.692   1.169  1.3536  0.5873  0.1469
 2061TIP3   OH2 6188   5.705   1.614   3.810 -0.4312  0.3283 -0.0891
 2061TIP3    H1 6189   5.668   1.536   3.852  1.3865 -0.8080 -0.5362
 2061TIP3    H2 6190   5.772   1.645   3.870  1.1450 -0.4341 -1.3912
 2062TIP3   OH2 6191   2.582   2.705   2.333 -0.7013 -0.3681 -0.0530
 2062TIP3    H1 6192   2.558   2.626   2.286  1.2396 -0.5576 -0.7639
 2062TIP3    H2 6193   2.507   2.723   2.390 -1.4238 -2.3428 -0.3537
 2063TIP3   OH2 6194   4.570   1.982   4.111  0.0210 -0.0138  0.6455
 2063TIP3    H1 6195   4.633   1.920   4.077  0.4425  1.1830 -0.7977
 2063TIP3    H2 6196   4.571   1.968   4.206  0.8610 -1.4669  0.4308
 2064TIP3   OH2 6197   2.033   3.547   1.131 -0.6360  0.2517  0.0152
 2064TIP3    H1 6198   1.958   3.517   1.183 -0.6648 -0.9899 -0.7131
 2064TIP3    H2 6199   2.078   3.609   1.188 -1.5992  0.1701  0.8871
 2065TIP3   OH2 6200   3.879   1.426   2.787  0.0628 -0.1201 -0.3242
 2065TIP3    H1 6201   3.808   1.470   2.742  0.9746  0.9263 -0.7586
 2065TIP3    H2 6202   3.837   1.352   2.831 -1.4924  1.1346  0.3829
 2066TIP3   OH2 6203   4.063   1.486   5.181  0.3646  0.2265  0.5817
 2066TIP3    H1 6204   4.143   1.434   5.175  0.5388  0.5843 -0.2831
 2066TIP3    H2 6205   3.997   1.425   5.216  0.3364 -0.8628 -1.2898
 2067TIP3   OH2 6206   1.184   1.146   2.991  0.6975 -0.2076  0.1262
 2067TIP3    H1 6207   1.272   1.122   3.021  1.4878  1.2391 -0.9284
 2067TIP3    H2 6208   1.181   1.241   3.000 -0.6969 -0.2243 -0.0532
 2068TIP3   OH2 6209   1.329   1.657   1.010  0.5391  0.2828 -0.4080
 2068TIP3    H1 6210   1.393   1.646   0.939 -0.2925  0.9582 -1.2688
 2068TIP3    H2 6211   1.251   1.611   0.980 -0.1011  1.2871 -0.3187
 2069TIP3   OH2 6212   2.079   1.349   3.046  0.1462 -0.4844  0.6615
 2069TIP3    H1 6213   2.148   1.304   2.996  1.7824  1.2076  1.3510
 2069TIP3    H2 6214   1.998   1.325   3.001  1.3811 -0.7241 -1.5196
 2070TIP3   OH2 6215   1.821   1.641   4.085  0.2782  0.0303  0.0584
 2070TIP3    H1 6216   1.762   1.680   4.020  2.3626 -0.5680 -2.2564
 2070TIP3    H2 6217   1.877   1.714   4.114  0.0973  0.0508  0.3638
 2071TIP3   OH2 6218   0.101   5.449   2.840 -0.0179  0.3632 -0.2832
 2071TIP3    H1 6219   0.033   5.516   2.846 -0.5643 -0.1891 -0.2617
 2071TIP3    H2 6220   0.066   5.384   2.778  1.0154  0.6854 -1.2326
 2072TIP3   OH2 6221   2.972   4.048   2.549  0.2555  0.2098 -0.0377
 2072TIP3    H1 6222   2.985   4.047   2.644  2.6585  0.8319 -0.3301
 2072TIP3    H2 6223   3.050   4.091   2.515 -0.3795 -0.4186 -2.3444
 2073TIP3   OH2 6224   3.231   2.459   1.666 -0.3617  0.4337  0.4729
 2073TIP3    H1 6225   3.169   2.507   1.721 -0.5434  0.4775  0.2322
 2073TIP3    H2 6226   3.183   2.443   1.584 -0.3236 -0.2138  0.5738
 2074TIP3   OH2 6227   2.008   3.943   2.866 -0.1068  0.3476  0.6221
 2074TIP3    H1 6228   2.062   3.985   2.799 -0.1000 -0.1167  0.3382
 2074TIP3    H2 6229   2.070   3.915   2.933 -0.1111  0.7874  0.8161
 2075TIP3   OH2 6230   3.129   0.984   2.729 -0.1491 -0.4719  0.8891
 2075TIP3    H1 6231   3.100   0.893   2.740  0.1532 -0.7943 -0.8120
 2075TIP3    H2 6232   3.218   0.986   2.764  0.3247 -1.1559 -0.2514
 2076TIP3   OH2 6233   0.094   1.290   4.125  0.0620 -0.2825  0.0173
 2076TIP3    H1 6234   0.001   1.278   4.103 -0.1737  2.2504 -0.5207
 2076TIP3    H2 6235   0.139   1.290   4.041  0.2270  0.8756  0.0889
 2077TIP3   OH2 6236   2.529   0.088   1.241 -0.3091 -0.1307 -0.0636
 2077TIP3    H1 6237   2.505   0.018   1.180  1.1561  0.0132 -0.8260
 2077TIP3    H2 6238   2.511   0.051   1.328 -3.6145  0.1293 -0.5833
 2078TIP3   OH2 6239   2.346   1.931   3.813 -0.0417 -0.3657  0.4111
 2078TIP3    H1 6240   2.337   1.923   3.718  3.5752 -0.7495 -0.0027
 2078TIP3    H2 6241   2.274   1.880   3.849 -2.1170  0.6978 -2.1211
 2079TIP3   OH2 6242   0.635   5.674   3.426 -0.4013  0.1003 -0.0019
 2079TIP3    H1 6243   0.604   5.635   3.508  1.1741 -0.0653  0.5267
 2079TIP3    H2 6244   0.626   5.605   3.361  2.9673 -1.4427  1.0491
 2080TIP3   OH2 6245   2.733   1.363   2.056 -0.1065 -0.2821  0.0280
 2080TIP3    H1 6246   2.730   1.457   2.069  0.2475 -0.2674  0.0214
 2080TIP3    H2 6247   2.736   1.326   2.144 -0.3353 -0.2895  0.0319
 2081TIP3   OH2 6248   5.129   1.070   2.651 -0.1288 -0.1235 -0.3819
 2081TIP3    H1 6249   5.126   1.052   2.745 -0.9037  0.3777 -0.3156
 2081TIP3    H2 6250   5.215   1.111   2.638 -0.5135  0.9024  0.2946
 2082TIP3   OH2 6251   3.948   4.396   0.861 -0.0854 -0.7751 -0.0693
 2082TIP3    H1 6252   3.902   4.350   0.791 -1.2504  0.7760 -0.3715
 2082TIP3    H2 6253   4.036   4.411   0.827 -0.4998 -0.4527 -1.0204
 2083TIP3   OH2 6254   3.726   4.679   1.040  0.2863  0.5584  0.0622
 2083TIP3    H1 6255   3.740   4.766   1.001 -0.1199  0.4249 -0.3884
 2083TIP3    H2 6256   3.808   4.661   1.086  1.0404  0.4412 -1.2882
 2084TIP3   OH2 6257   4.074   1.390   3.222 -0.2908  0.5215  0.2983
 2084TIP3    H1 6258   4.009   1.421   3.285 -1.3195 -0.3400 -0.3153
 2084TIP3    H2 6259   4.031   1.316   3.178  0.5112  0.9224 -1.2038
 2085TIP3   OH2 6260   1.669   1.657   2.329 -0.6967 -0.0748  0.5072
 2085TIP3    H1 6261   1.599   1.633   2.268 -0.0561 -0.1856 -0.1825
 2085TIP3    H2 6262   1.627   1.718   2.390 -1.9198 -1.6276  1.2955
 2086TIP3   OH2 6263   0.632   2.093   3.828 -0.3055 -0.0451  0.4746
 2086TIP3    H1 6264   0.703   2.036   3.799 -0.8980 -0.0446 -1.0341
 2086TIP3    H2 6265   0.634   2.168   3.768 -1.3502  0.1290  0.6341
 2087TIP3   OH2 6266   5.971   2.469   1.666  0.1532  0.2941  0.2062
 2087TIP3    H1 6267   5.901   2.487   1.604  0.1328 -0.4867 -0.0086
 2087TIP3    H2 6268   5.974   2.373   1.671 -0.3335  0.3628  1.9663
 2088TIP3   OH2 6269   4.341   2.984   5.202  0.7262  0.0703  0.2063
 2088TIP3    H1 6270   4.399   3.049   5.241 -0.0019  0.8545  0.0103
 2088TIP3    H2 6271   4.328   2.919   5.271  0.1300  1.0029  1.0012
 2089TIP3   OH2 6272   2.172   1.010   1.263  0.2310 -0.7060 -0.4920
 2089TIP3    H1 6273   2.267   1.014   1.272  0.2250 -0.6047 -0.4736
 2089TIP3    H2 6274   2.142   0.966   1.342  0.0167  1.8449  0.8972
 2090TIP3   OH2 6275   1.888   2.942   3.767 -0.1631 -0.1719 -0.7625
 2090TIP3    H1 6276   1.879   2.849   3.788  0.7138  0.1270  0.9562
 2090TIP3    H2 6277   1.801   2.979   3.785  0.4242 -0.0249  1.8434
 2091TIP3   OH2 6278   2.215   1.968   1.944  0.3678  0.2907 -0.0016
 2091TIP3    H1 6279   2.208   2.058   1.912  2.1397 -0.1959 -1.8193
 2091TIP3    H2 6280   2.194   1.975   2.038  4.9019  3.3590  0.9372
 2092TIP3   OH2 6281   2.303   3.083   0.714  0.1766  0.0500  0.2116
 2092TIP3    H1 6282   2.346   3.091   0.629 -0.9975  5.2959 -0.0226
 2092TIP3    H2 6283   2.374   3.073   0.777  1.2266 -0.5013 -1.0390
 2093TIP3   OH2 6284   2.062   0.901   3.442 -0.6177 -0.4823 -0.3410
 2093TIP3    H1 6285   1.998   0.972   3.434 -0.0765  0.1469  0.7113
 2093TIP3    H2 6286   2.147   0.944   3.432 -0.3733 -1.4400 -2.5326
 2094TIP3   OH2 6287   1.666   2.929   4.980 -0.1491  0.0051 -0.0366
 2094TIP3    H1 6288   1.605   2.938   4.907  0.6641 -1.1111 -0.8654
 2094TIP3    H2 6289   1.745   2.975   4.951  0.5733 -1.3958 -0.3359
 2095TIP3   OH2 6290   0.650   1.037   4.717 -0.1480  0.3560 -0.2248
 2095TIP3    H1 6291   0.648   0.943   4.733  1.4785  0.5767  1.5203
 2095TIP3    H2 6292   0.599   1.074   4.789 -1.7174  0.7493 -1.5257
 2096TIP3   OH2 6293   3.792   2.220   1.883  0.5520 -0.2445  0.3554
 2096TIP3    H1 6294   3.775   2.127   1.899  1.0578 -0.6443 -1.3242
 2096TIP3    H2 6295   3.784   2.261   1.969  1.4007 -2.0132  1.3027
 2097TIP3   OH2 6296   2.209   1.369   3.303 -0.2079 -0.0188  0.4079
 2097TIP3    H1 6297   2.160   1.380   3.222 -1.0479  1.6695  1.1092
 2097TIP3    H2 6298   2.295   1.337   3.276 -0.4530  0.6126 -1.1562
 2098TIP3   OH2 6299   2.192   2.211   1.103 -0.1262  0.3386 -0.2679
 2098TIP3    H1 6300   2.146   2.131   1.077 -0.0436  0.3335 -0.3978
 2098TIP3    H2 6301   2.218   2.195   1.194 -0.6028  0.4420 -0.1166
 2099TIP3   OH2 6302   1.857   2.494   3.790 -0.2749 -0.4904  0.1763
 2099TIP3    H1 6303   1.905   2.476   3.709  0.3584 -0.1922  0.4820
 2099TIP3    H2 6304   1.765   2.485   3.766 -0.1062 -0.0144 -0.6692
 2100TIP3   OH2 6305   6.414   2.844   2.413  0.2292  0.2951 -0.0756
 2100TIP3    H1 6306   6.415   2.789   2.334  1.9382  2.3599 -1.5424
 2100TIP3    H2 6307   6.477   2.802   2.471 -1.6347 -1.7085  0.5825
 2101TIP3   OH2 6308   1.479   0.862   5.243  0.1358  0.1042  0.3557
 2101TIP3    H1 6309   1.545   0.928   5.265  1.1291 -0.5533 -0.6724
 2101TIP3    H2 6310   1.451   0.828   5.328  0.1939  1.2698  0.8608
 2102TIP3   OH2 6311   1.493   3.238   4.291  0.7404  0.1585  0.0070
 2102TIP3    H1 6312   1.551   3.219   4.218  1.6717 -1.0968  1.0549
 2102TIP3    H2 6313   1.509   3.168   4.354 -2.0486 -0.2946  0.2511
 2103TIP3   OH2 6314   1.869   4.550   4.025 -0.1618 -0.5256  0.1707
 2103TIP3    H1 6315   1.887   4.537   3.932 -0.6897  1.5052 -0.2341
 2103TIP3    H2 6316   1.818   4.472   4.050 -0.9223 -0.5922 -1.4984
 2104TIP3   OH2 6317   1.888   3.412   3.619  0.1340  0.4327  0.6909
 2104TIP3    H1 6318   1.944   3.338   3.641  1.0334  0.8882 -0.0577
 2104TIP3    H2 6319   1.823   3.414   3.690  2.0872  0.9454  2.5237
 2105TIP3   OH2 6320   4.657   2.145   1.785  0.2133  0.2285  0.4897
 2105TIP3    H1 6321   4.649   2.082   1.714  1.0587  0.3988  0.2352
 2105TIP3    H2 6322   4.721   2.106   1.845  1.6702  1.3849 -0.2763
 2106TIP3   OH2 6323   2.726   1.801   2.629 -0.0139 -0.4540  0.0795
 2106TIP3    H1 6324   2.733   1.892   2.658 -0.5993 -0.2670 -0.3498
 2106TIP3    H2 6325   2.737   1.806   2.534  0.5451 -0.9025  0.1172
 2107TIP3   OH2 6326   4.564   4.682   0.126 -0.0689 -0.0794  0.3109
 2107TIP3    H1 6327   4.472   4.662   0.108  0.2274 -1.1355 -0.1267
 2107TIP3    H2 6328   4.592   4.737   0.053  0.4898 -2.4036 -1.2889
 2108TIP3   OH2 6329   3.712   2.191   3.492 -0.4124 -0.4870 -0.1996
 2108TIP3    H1 6330   3.657   2.177   3.570 -2.0540  0.4674 -1.1649
 2108TIP3    H2 6331   3.797   2.215   3.528 -1.5196  1.3528  1.3322
 2109TIP3   OH2 6332   4.795   1.325   3.358  0.3457  0.6266  0.3682
 2109TIP3    H1 6333   4.803   1.417   3.381 -0.2735  0.7245  0.1834
 2109TIP3    H2 6334   4.886   1.294   3.353  0.5346  0.9879  1.3644
 2110TIP3   OH2 6335   2.704   1.892   3.683  0.1737  0.5803 -0.2043
 2110TIP3    H1 6336   2.777   1.951   3.664  1.2784 -1.2777 -1.9672
 2110TIP3    H2 6337   2.666   1.874   3.597 -1.7866  0.7664  0.5979
 2111TIP3   OH2 6338   5.713   1.268   2.163 -0.4593 -0.1509 -0.0396
 2111TIP3    H1 6339   5.796   1.224   2.148 -0.5538 -0.6644  0.9280
 2111TIP3    H2 6340   5.674   1.277   2.076  0.3594 -0.3966 -0.4318
 2112TIP3   OH2 6341   1.447   2.460   2.785  0.1120 -0.6612  0.4346
 2112TIP3    H1 6342   1.536   2.426   2.781 -0.2853 -1.6920  0.1879
 2112TIP3    H2 6343   1.441   2.501   2.871  0.0235 -2.8638  1.4989
 2113TIP3   OH2 6344   3.239   3.512   2.133  0.0011 -0.0525  0.5389
 2113TIP3    H1 6345   3.198   3.426   2.140  0.6829 -0.3931  0.3616
 2113TIP3    H2 6346   3.333   3.495   2.140  0.1278  0.7040  0.7486
 2114TIP3   OH2 6347   4.473   1.929   2.044  0.3380 -0.0314  0.1121
 2114TIP3    H1 6348   4.513   1.937   2.131 -1.7623 -0.2402  1.1405
 2114TIP3    H2 6349   4.454   2.019   2.017 -1.3874 -0.0843  1.0575
 2115TIP3   OH2 6350   2.722   2.059   2.720  0.2172  0.1802 -0.4315
 2115TIP3    H1 6351   2.799   2.110   2.698  0.7156 -0.6283 -0.6047
 2115TIP3    H2 6352   2.648   2.112   2.692  0.7002  1.1601  0.1519
 2116TIP3   OH2 6353   3.427   1.393   0.677  0.5071 -0.1397 -0.0325
 2116TIP3    H1 6354   3.427   1.425   0.587  0.2981 -0.7758 -0.2541
 2116TIP3    H2 6355   3.445   1.300   0.671 -0.3180 -0.3486  0.5239
 2117TIP3   OH2 6356   1.822   2.203   0.643  0.2171  0.1233 -0.6870
 2117TIP3    H1 6357   1.762   2.268   0.681 -2.0739 -1.2756 -1.8325
 2117TIP3    H2 6358   1.878   2.254   0.585 -0.0168  1.4297  0.2037
 2118TIP3   OH2 6359   0.290   1.045   2.773 -0.5923 -0.1106 -0.6203
 2118TIP3    H1 6360   0.292   1.119   2.833 -2.1970 -0.7328  0.2325
 2118TIP3    H2 6361   0.364   1.059   2.714 -0.6119  1.9058 -0.1724
 2119TIP3   OH2 6362   2.632   2.419   4.613 -0.4087  0.5216  0.1163
 2119TIP3    H1 6363   2.638   2.347   4.550 -0.1308  0.6283  0.0207
 2119TIP3    H2 6364   2.643   2.498   4.560 -2.0353  0.7116  0.0147
 2120TIP3   OH2 6365   3.725   2.600   3.803  0.1172 -0.5010  0.6138
 2120TIP3    H1 6366   3.696   2.530   3.745 -2.0055  1.1936 -0.4289
 2120TIP3    H2 6367   3.721   2.680   3.750  3.2589  0.3567  1.5287
 2121TIP3   OH2 6368   4.410   2.460   2.062  0.6772 -0.0925 -0.1110
 2121TIP3    H1 6369   4.471   2.519   2.108 -0.0230 -1.7326  3.0835
 2121TIP3    H2 6370   4.326   2.506   2.064  1.1133  0.7994 -1.7435
 2122TIP3   OH2 6371   1.762   0.741   3.531  0.6506  0.2767  0.0498
 2122TIP3    H1 6372   1.751   0.698   3.615 -0.9129 -0.5098 -0.5410
 2122TIP3    H2 6373   1.835   0.695   3.490  0.6393 -0.1185  0.4752
 2123TIP3   OH2 6374   1.691   2.762   4.377 -0.1123  0.1118 -0.2229
 2123TIP3    H1 6375   1.742   2.737   4.453 -0.1671  0.5384 -0.0455
 2123TIP3    H2 6376   1.756   2.789   4.312 -0.1224  0.9726  0.1181
 2124TIP3   OH2 6377   0.984   2.626   3.915 -0.0863 -0.1418  0.3678
 2124TIP3    H1 6378   1.050   2.609   3.848  0.7435  3.4902  0.1387
 2124TIP3    H2 6379   0.922   2.686   3.872 -2.0802 -1.4156  1.4142
 2125TIP3   OH2 6380   3.160   2.151   2.082  0.2530  0.6820  0.1682
 2125TIP3    H1 6381   3.106   2.218   2.125 -0.2091  0.5266 -0.1548
 2125TIP3    H2 6382   3.208   2.199   2.015 -0.1004  0.6931 -0.0830
 2126TIP3   OH2 6383   3.276   2.161   3.405 -0.3168 -0.0259 -0.4114
 2126TIP3    H1 6384   3.320   2.191   3.485  0.4928 -0.5335 -0.6576
 2126TIP3    H2 6385   3.236   2.240   3.369 -0.5468  0.2393  0.4043
 2127TIP3   OH2 6386   3.938   4.967   0.060  0.2350 -0.0279 -0.3996
 2127TIP3    H1 6387   3.916   4.967   0.153 -0.2764 -4.3111 -0.4388
 2127TIP3    H2 6388   3.854   4.985   0.016  0.2590  0.8470 -0.1103
 2128TIP3   OH2 6389   0.454   1.393   4.035  0.5685 -0.3843 -0.1382
 2128TIP3    H1 6390   0.469   1.482   4.004  0.3169 -0.5974 -0.8832
 2128TIP3    H2 6391   0.366   1.371   4.004  0.7890 -1.0364 -0.3160
 2129TIP3   OH2 6392   2.423   0.431   4.689  0.1176 -0.4263  0.8986
 2129TIP3    H1 6393   2.471   0.478   4.757  1.2705 -0.7895  0.3455
 2129TIP3    H2 6394   2.469   0.451   4.608  0.3718 -2.1414  0.5964
 2130TIP3   OH2 6395   2.072   3.197   3.523  0.6701 -0.0994 -0.1186
 2130TIP3    H1 6396   2.089   3.280   3.478 -0.3667  0.1675 -0.0528
 2130TIP3    H2 6397   2.091   3.130   3.458  0.0489  0.2524 -0.6770
 2131TIP3   OH2 6398   1.986   3.790   0.954  0.0327 -0.0150  0.0728
 2131TIP3    H1 6399   1.974   3.699   0.982 -0.6386  0.4517  1.3106
 2131TIP3    H2 6400   2.056   3.823   1.009 -2.1823  1.3031  2.1691
 2132TIP3   OH2 6401   2.856   0.298   4.149  0.0622  0.0908  0.1647
 2132TIP3    H1 6402   2.882   0.246   4.073  3.5837  0.5719  0.9830
 2132TIP3    H2 6403   2.855   0.236   4.222 -3.0909 -0.3199 -0.1332
 2133TIP3   OH2 6404   2.510   3.350   3.002  0.4787  0.2571  0.3740
 2133TIP3    H1 6405   2.419   3.351   3.031  0.3654 -1.3727  0.0922
 2133TIP3    H2 6406   2.549   3.275   3.045  0.9016 -0.8507 -1.8401
 2134TIP3   OH2 6407   3.325   4.123   2.517 -0.3897 -0.7491 -0.5832
 2134TIP3    H1 6408   3.403   4.125   2.574 -0.9269 -0.8075  0.1613
 2134TIP3    H2 6409   3.311   4.215   2.494 -1.2502 -0.4911  0.8841
 2135TIP3   OH2 6410   3.257   4.416   2.777 -0.1130 -0.4308  0.3343
 2135TIP3    H1 6411   3.244   4.447   2.866 -0.2572  2.2027 -0.5748
 2135TIP3    H2 6412   3.318   4.477   2.738 -1.3740 -0.5293 -1.9011
 2136TIP3   OH2 6413   3.415   2.759   3.889 -0.0863 -0.6863 -0.1696
 2136TIP3    H1 6414   3.335   2.714   3.915 -1.0382  0.0442 -1.7393
 2136TIP3    H2 6415   3.440   2.809   3.967 -1.9341  0.1493 -0.0773
 2137TIP3   OH2 6416   4.678   2.201   2.757  0.4229  0.4072  0.1111
 2137TIP3    H1 6417   4.604   2.191   2.817  2.0945 -0.0751  2.1704
 2137TIP3    H2 6418   4.715   2.113   2.750  0.7799  0.6369 -0.9061
 2138TIP3   OH2 6419   0.097   5.960   3.563  0.1449 -0.3765 -0.4254
 2138TIP3    H1 6420   0.075   5.963   3.470 -0.7489  1.1283 -0.1724
 2138TIP3    H2 6421   0.164   6.028   3.574 -0.5724  0.2313  0.2381
 2139TIP3   OH2 6422   2.092   2.564   2.754 -0.4848 -0.0958 -0.2380
 2139TIP3    H1 6423   2.156   2.576   2.824 -0.5587  1.0089 -0.3458
 2139TIP3    H2 6424   2.021   2.515   2.795 -0.2966  0.0969  0.3286
 2140TIP3   OH2 6425   1.479   3.345   0.410  0.4551 -0.7116  0.3644
 2140TIP3    H1 6426   1.448   3.434   0.422 -0.9857 -1.1413 -0.0385
 2140TIP3    H2 6427   1.404   3.290   0.433  0.9455 -1.7797 -0.5354
 2141TIP3   OH2 6428   3.952   1.750   1.220 -0.9124  0.2513 -0.2818
 2141TIP3    H1 6429   4.026   1.758   1.280  0.1008 -3.0210 -0.9799
 2141TIP3    H2 6430   3.876   1.740   1.277 -0.1150 -1.6025  0.4822
 2142TIP3   OH2 6431   0.036   2.561   3.725  0.1072 -0.3509  0.5588
 2142TIP3    H1 6432   0.049   2.655   3.711 -2.2978 -0.1211 -0.4130
 2142TIP3    H2 6433   0.122   2.522   3.712  1.3385  1.8441  2.0438
 2143TIP3   OH2 6434   3.790   2.272   1.023  0.0346 -0.7694 -0.3464
 2143TIP3    H1 6435   3.804   2.237   1.111 -1.6528  0.8619  0.5869
 2143TIP3    H2 6436   3.871   2.250   0.976  1.2095 -1.1183  1.7743
 2144TIP3   OH2 6437   5.274   1.636   4.619  0.9476 -0.1961 -0.2005
 2144TIP3    H1 6438   5.349   1.642   4.677  0.1772 -1.0677  0.9189
 2144TIP3    H2 6439   5.200   1.667   4.672  0.3158 -0.5425 -0.8645
 2145TIP3   OH2 6440   0.642   2.909   4.131  0.0978 -0.0029 -0.0669
 2145TIP3    H1 6441   0.668   2.905   4.039  0.6929  0.0226  0.0961
 2145TIP3    H2 6442   0.671   2.995   4.160  0.1325 -0.1081  0.2095
 2146TIP3   OH2 6443   3.098   1.554   2.872  0.1316 -0.5634 -0.2943
 2146TIP3    H1 6444   3.137   1.473   2.839 -0.9783 -0.6422 -1.4419
 2146TIP3    H2 6445   3.042   1.584   2.801  0.2106  1.0007  0.2914
 2147TIP3   OH2 6446   5.573   2.466   2.006 -0.3951 -0.0585 -0.5364
 2147TIP3    H1 6447   5.565   2.524   1.930 -1.5831 -1.7553 -1.7482
 2147TIP3    H2 6448   5.666   2.443   2.009 -0.4659 -0.6179 -2.0074
 2148TIP3   OH2 6449   3.887   2.774   2.442  0.3662  0.1555 -0.4875
 2148TIP3    H1 6450   3.949   2.733   2.503 -1.0700 -0.7795  0.3857
 2148TIP3    H2 6451   3.893   2.867   2.460  1.2815  0.0456 -0.1928
 2149TIP3   OH2 6452   2.481   0.791   2.256  0.1911  0.1940 -0.4198
 2149TIP3    H1 6453   2.518   0.856   2.197 -1.7557  2.5333  0.8405
 2149TIP3    H2 6454   2.410   0.837   2.301 -0.7084 -2.5725  1.1171
 2150TIP3   OH2 6455   3.605   1.238   4.861 -0.2499 -0.4998  0.1482
 2150TIP3    H1 6456   3.689   1.200   4.885 -0.5992 -0.8816  0.8193
 2150TIP3    H2 6457   3.549   1.221   4.937 -0.6369  0.6733  0.1408
 2151TIP3   OH2 6458   1.202   0.160   2.747  0.0946 -0.3473 -0.2069
 2151TIP3    H1 6459   1.113   0.186   2.727  0.2331 -0.7249 -1.3277
 2151TIP3    H2 6460   1.239   0.234   2.795 -0.8704 -0.2675  0.4273
 2152TIP3   OH2 6461   3.448   1.678   3.616  0.7063 -0.0322  0.4189
 2152TIP3    H1 6462   3.361   1.695   3.653  0.6220  0.4591 -0.0044
 2152TIP3    H2 6463   3.504   1.746   3.654  0.6069  0.5098 -0.4094
 2153TIP3   OH2 6464   3.111   2.145   3.051 -0.0997 -0.1022 -0.7767
 2153TIP3    H1 6465   3.112   2.132   2.956 -2.5482 -2.9299 -0.5126
 2153TIP3    H2 6466   3.162   2.071   3.085 -0.1242  0.2951  0.1274
 2154TIP3   OH2 6467   4.704   3.405   0.335 -0.3526  1.1164 -0.1996
 2154TIP3    H1 6468   4.628   3.359   0.370  0.0707  1.6535  1.4935
 2154TIP3    H2 6469   4.670   3.489   0.304 -0.4320  1.4519  0.7697
 2155TIP3   OH2 6470   1.870   1.592   4.754  0.2912  0.5160  0.0409
 2155TIP3    H1 6471   1.910   1.679   4.752  1.9921 -0.2689 -1.3569
 2155TIP3    H2 6472   1.918   1.543   4.687 -2.6385 -0.6123 -1.3093
 2156TIP3   OH2 6473   2.453   0.192   4.005 -0.5395  0.1293  0.2265
 2156TIP3    H1 6474   2.450   0.190   3.910 -1.1746 -1.0520  0.2630
 2156TIP3    H2 6475   2.534   0.239   4.026 -0.2741  0.1671 -0.8904
 2157TIP3   OH2 6476   2.643   0.488   3.279 -0.3512 -0.4154  0.0416
 2157TIP3    H1 6477   2.634   0.466   3.186 -0.1987 -1.4115  0.2577
 2157TIP3    H2 6478   2.663   0.404   3.322  0.2403  0.1420  0.8785
 2158TIP3   OH2 6479   0.742   2.406   3.854 -0.4755 -1.0277  0.3258
 2158TIP3    H1 6480   0.715   2.403   3.946 -1.0003 -2.1699  0.1442
 2158TIP3    H2 6481   0.812   2.340   3.848 -0.5858 -1.1037 -0.1407
 2159TIP3   OH2 6482   4.008   0.937   2.955 -0.2505  0.3372 -0.3397
 2159TIP3    H1 6483   4.057   0.906   2.879  0.2502  0.5338 -0.1007
 2159TIP3    H2 6484   3.916   0.922   2.933 -0.0278 -1.0303 -0.3452
 2160TIP3   OH2 6485   1.813   1.022   3.502 -0.1950 -0.0466  0.5797
 2160TIP3    H1 6486   1.742   1.059   3.554 -0.6194 -1.0084  0.6844
 2160TIP3    H2 6487   1.791   0.930   3.492 -0.4273  0.2442 -1.8247
 2161TIP3   OH2 6488   2.193   3.686   3.660 -0.5598  0.3799  0.4767
 2161TIP3    H1 6489   2.221   3.638   3.582 -2.3033  0.3189 -0.1435
 2161TIP3    H2 6490   2.189   3.619   3.729  1.6470  0.5610  0.8224
 2162TIP3   OH2 6491   3.942   0.571   3.333 -0.3230 -0.3095 -0.3982
 2162TIP3    H1 6492   3.999   0.514   3.281  0.7705  1.1759 -0.8620
 2162TIP3    H2 6493   4.002   0.637   3.370 -1.6034  0.7268 -0.1472
 2163TIP3   OH2 6494   2.327   2.708   3.251  0.4565 -0.1208 -0.1315
 2163TIP3    H1 6495   2.337   2.624   3.295 -2.4769 -0.4379  0.0480
 2163TIP3    H2 6496   2.358   2.772   3.315 -0.1102 -0.8586  0.9110
 2164TIP3   OH2 6497   3.722   4.082   5.101  0.3879  0.5312  0.5098
 2164TIP3    H1 6498   3.652   4.084   5.167 -0.3980 -0.8811 -0.2367
 2164TIP3    H2 6499   3.709   3.998   5.056  0.7362  1.5805 -1.6096
 2165TIP3   OH2 6500   3.510   2.758   2.193 -0.0530 -0.4777  0.0515
 2165TIP3    H1 6501   3.502   2.790   2.103 -0.0279  1.7231  0.8015
 2165TIP3    H2 6502   3.602   2.731   2.200  0.7035  2.0441  0.2476
 2166TIP3   OH2 6503   0.677   3.176   4.164  0.7261  0.1463  0.0769
 2166TIP3    H1 6504   0.645   3.173   4.255  0.0962 -1.1622 -0.1794
 2166TIP3    H2 6505   0.638   3.256   4.128 -1.2454 -0.7342  0.1652
 2167TIP3   OH2 6506   2.923   5.086   0.065  0.4419  0.2435  0.3580
 2167TIP3    H1 6507   3.008   5.047   0.082 -0.1215 -0.6493  1.1962
 2167TIP3    H2 6508   2.862   5.037   0.121 -0.7994  0.1232 -1.0409
 2168TIP3   OH2 6509   2.912   2.252   2.632  0.1388  0.5183  0.0461
 2168TIP3    H1 6510   2.904   2.302   2.713 -0.2261  0.8833 -0.2101
 2168TIP3    H2 6511   2.862   2.303   2.568 -0.3391 -0.2442 -0.1899
 2169TIP3   OH2 6512   2.925   0.791   2.064 -0.8291  0.0495 -0.1939
 2169TIP3    H1 6513   2.937   0.805   2.158  1.4801  1.3715 -0.6315
 2169TIP3    H2 6514   2.876   0.868   2.034  0.8452  1.0401 -0.4898
 2170TIP3   OH2 6515   3.361   1.315   3.347  0.0749 -0.0602  0.0805
 2170TIP3    H1 6516   3.270   1.338   3.365  0.2067  0.8157 -0.3405
 2170TIP3    H2 6517   3.368   1.223   3.374 -0.5587  0.2677  1.4449
 2171TIP3   OH2 6518   2.488   1.025   4.257  0.2040  0.5193  0.1413
 2171TIP3    H1 6519   2.514   0.942   4.218  0.3961  0.5220  0.2621
 2171TIP3    H2 6520   2.401   1.042   4.221  0.3829  0.5282 -0.2918
 2172TIP3   OH2 6521   3.002   1.608   2.092  0.5107  0.1116 -0.4767
 2172TIP3    H1 6522   3.072   1.662   2.129  1.8281 -1.2057 -1.0026
 2172TIP3    H2 6523   2.992   1.639   2.002  0.8492 -0.1097 -0.5914
 2173TIP3   OH2 6524   2.438   0.625   3.549 -0.6801 -0.2264  0.1027
 2173TIP3    H1 6525   2.513   0.565   3.552  0.8804  1.6981  1.0158
 2173TIP3    H2 6526   2.407   0.629   3.639  0.4359  1.7519  0.4381
 2174TIP3   OH2 6527   5.292   1.909   3.836 -0.8741 -0.0801  0.4382
 2174TIP3    H1 6528   5.214   1.963   3.817 -0.6035 -0.2388 -1.2568
 2174TIP3    H2 6529   5.351   1.927   3.763  0.6087 -0.1331  1.5992
 2175TIP3   OH2 6530   2.021   2.393   3.601  0.0324 -0.2491 -0.4087
 2175TIP3    H1 6531   2.027   2.297   3.600  0.1055 -0.2464 -2.0649
 2175TIP3    H2 6532   2.026   2.418   3.509 -0.2010  1.3450 -0.0027
 2176TIP3   OH2 6533   0.228   1.922   2.539  0.2144  0.0414  0.1550
 2176TIP3    H1 6534   0.304   1.918   2.598 -1.1327  1.2030  2.0156
 2176TIP3    H2 6535   0.189   2.008   2.556 -0.9691 -0.1508 -1.4941
 2177TIP3   OH2 6536   1.716   0.999   3.969  0.3872  0.3082  0.1542
 2177TIP3    H1 6537   1.665   0.928   3.931  2.0399 -0.6574 -0.3228
 2177TIP3    H2 6538   1.669   1.023   4.049  0.4922 -2.1960  0.9950
 2178TIP3   OH2 6539   0.433   2.357   1.418  0.1372  0.0497 -0.8431
 2178TIP3    H1 6540   0.519   2.398   1.419  0.7022 -1.0998  1.8097
 2178TIP3    H2 6541   0.451   2.264   1.402 -0.5301 -0.3059  0.3706
 2179TIP3   OH2 6542   2.175   5.570   1.655 -0.2143  0.1255 -0.0840
 2179TIP3    H1 6543   2.175   5.663   1.633 -4.7946  0.3556  0.5694
 2179TIP3    H2 6544   2.151   5.567   1.748  1.1576 -1.7195  0.2524
 2180TIP3   OH2 6545   3.299   2.224   2.774 -0.5076  0.3086  0.0612
 2180TIP3    H1 6546   3.380   2.206   2.822  0.1376 -1.3630 -1.5779
 2180TIP3    H2 6547   3.326   2.281   2.702 -0.5733 -0.9925 -1.0289
 2181TIP3   OH2 6548   1.757   3.097   3.436  0.0537 -0.6354 -0.4605
 2181TIP3    H1 6549   1.782   3.020   3.489 -0.6162 -0.1657  0.5709
 2181TIP3    H2 6550   1.818   3.165   3.463  0.0516 -0.5456 -0.6881
 2182TIP3   OH2 6551   1.279   1.790   3.662 -0.5106 -0.5622 -0.4991
 2182TIP3    H1 6552   1.308   1.748   3.581 -0.2855 -1.4355  0.0273
 2182TIP3    H2 6553   1.357   1.791   3.717 -0.3781  1.0431 -0.7092
 2183TIP3   OH2 6554   1.856   4.796   1.628 -0.0472  0.5972 -0.3390
 2183TIP3    H1 6555   1.792   4.785   1.698  0.5125  0.8816  0.2274
 2183TIP3    H2 6556   1.820   4.747   1.554 -0.6804  0.3562  0.1253
 2184TIP3   OH2 6557   2.083   1.247   2.381 -0.1289  0.0037 -0.0406
 2184TIP3    H1 6558   2.112   1.239   2.472 -0.7186  0.4938  0.1919
 2184TIP3    H2 6559   2.136   1.182   2.333  1.1005  0.6323  0.4330
 2185TIP3   OH2 6560   3.923   3.675   0.917  0.2437 -0.3320  0.1133
 2185TIP3    H1 6561   3.865   3.646   0.988 -0.2468  1.1269  0.3115
 2185TIP3    H2 6562   3.871   3.736   0.866  1.4567  0.6550  0.0409
 2186TIP3   OH2 6563   5.747   2.325   3.459 -0.5909  0.0099  0.1511
 2186TIP3    H1 6564   5.730   2.247   3.512 -0.6940 -0.4625 -0.5797
 2186TIP3    H2 6565   5.675   2.329   3.397  0.3282 -0.2821 -0.9511
 2187TIP3   OH2 6566   3.626   1.192   3.602 -0.7021 -0.5925 -0.0982
 2187TIP3    H1 6567   3.573   1.269   3.583 -0.3166 -0.9520 -2.8588
 2187TIP3    H2 6568   3.657   1.163   3.517 -1.3689 -4.2185  0.8187
 2188TIP3   OH2 6569   5.317   4.181   0.441  0.3282  0.8085 -0.2283
 2188TIP3    H1 6570   5.364   4.163   0.522  0.7068  0.6900 -0.4729
 2188TIP3    H2 6571   5.328   4.101   0.389 -1.1359  0.3229  0.1838
 2189TIP3   OH2 6572   2.994   3.291   2.858  0.2117  0.3050  0.1573
 2189TIP3    H1 6573   2.903   3.263   2.871 -0.6035  3.0046  0.6079
 2189TIP3    H2 6574   3.042   3.210   2.844 -2.0363 -1.2939  1.3154
 2190TIP3   OH2 6575   2.984   1.666   1.816  0.0939  0.3986 -0.3614
 2190TIP3    H1 6576   3.024   1.753   1.824  1.0310  0.0339 -1.1543
 2190TIP3    H2 6577   2.929   1.672   1.738  2.1946 -0.5119 -1.9536
 2191TIP3   OH2 6578   1.665   3.645   2.902  0.4063 -0.2808  0.8828
 2191TIP3    H1 6579   1.618   3.579   2.852 -0.2116  0.5792  0.3031
 2191TIP3    H2 6580   1.678   3.717   2.840  0.4187  0.4317  1.7014
 2192TIP3   OH2 6581   2.177   4.177   1.625 -0.5420 -0.1306 -0.1285
 2192TIP3    H1 6582   2.147   4.264   1.653  2.3133  0.9553 -0.3152
 2192TIP3    H2 6583   2.180   4.183   1.529  0.9097 -0.0060 -0.0759
 2193TIP3   OH2 6584   5.698   0.344   0.997 -0.9718  0.1040  0.2378
 2193TIP3    H1 6585   5.738   0.267   0.957 -1.7021  0.7386 -1.7654
 2193TIP3    H2 6586   5.771   0.404   1.012 -0.9191  0.6113 -1.9128
 2194TIP3   OH2 6587   5.896   2.492   3.646  0.3889  0.9096  0.0437
 2194TIP3    H1 6588   5.913   2.494   3.740  0.2461  0.0264  0.0932
 2194TIP3    H2 6589   5.854   2.407   3.631 -0.3507  1.3979 -0.6864
 2195TIP3   OH2 6590   3.503   3.240   2.306 -0.0668 -0.1377  0.2412
 2195TIP3    H1 6591   3.496   3.302   2.233  0.7426 -1.2259 -0.7623
 2195TIP3    H2 6592   3.438   3.271   2.369 -0.2487  1.2555 -0.6029
 2196TIP3   OH2 6593   3.107   2.015   2.638  0.3662  0.2637 -0.0820
 2196TIP3    H1 6594   3.060   2.078   2.584 -0.1837  0.5020  0.6684
 2196TIP3    H2 6595   3.158   2.069   2.698  0.3885  0.0011  0.1349
 2197TIP3   OH2 6596   2.836   1.125   1.514 -0.1685 -0.1945  0.0301
 2197TIP3    H1 6597   2.902   1.127   1.444  1.1518 -0.3223  1.2307
 2197TIP3    H2 6598   2.885   1.094   1.591 -1.6769 -0.4098  0.9164
 2198TIP3   OH2 6599   0.790   5.334   1.919 -0.1323 -0.7169 -0.1317
 2198TIP3    H1 6600   0.773   5.346   1.826 -3.2739 -0.0102  0.4859
 2198TIP3    H2 6601   0.785   5.239   1.933 -1.0215 -0.7149 -0.4442
 2199TIP3   OH2 6602   4.641   1.283   1.260  0.3692  0.1444  0.1382
 2199TIP3    H1 6603   4.691   1.355   1.220  0.0824  0.5274  0.4725
 2199TIP3    H2 6604   4.657   1.291   1.354 -1.9097  1.4714  0.4363
 2200TIP3   OH2 6605   0.237   3.373   3.164 -0.0803  0.2230 -0.0523
 2200TIP3    H1 6606   0.289   3.295   3.185  1.2326  0.5550 -1.9053
 2200TIP3    H2 6607   0.164   3.371   3.226  2.3220 -0.0623  2.8531
 2201TIP3   OH2 6608   3.187   1.779   0.983  0.5675 -0.7547 -0.2442
 2201TIP3    H1 6609   3.158   1.737   1.064  1.4438  2.1868  1.6827
 2201TIP3    H2 6610   3.283   1.772   0.986  0.6673  0.4135 -0.3889
 2202TIP3   OH2 6611   4.339   1.477   0.628  0.1260 -1.0245  0.5916
 2202TIP3    H1 6612   4.366   1.397   0.582 -0.6288 -1.2151  0.4785
 2202TIP3    H2 6613   4.382   1.548   0.580 -0.9801 -1.1877 -0.6835
 2203TIP3   OH2 6614   3.597   1.702   2.877 -0.5227 -0.6239  0.2463
 2203TIP3    H1 6615   3.508   1.677   2.901  0.5777 -1.7034  3.5581
 2203TIP3    H2 6616   3.627   1.755   2.951  1.4993 -0.0755 -0.9401
 2204TIP3   OH2 6617   3.110   3.735   0.539  0.2458 -0.4385 -0.3983
 2204TIP3    H1 6618   3.109   3.722   0.444  0.9942  0.6148 -0.5520
 2204TIP3    H2 6619   3.184   3.683   0.570 -0.3881 -1.2999 -0.3076
 2205TIP3   OH2 6620   3.089   1.655   3.113  0.2449 -0.6233 -0.6165
 2205TIP3    H1 6621   3.126   1.620   3.032  1.2216  1.8424 -1.2716
 2205TIP3    H2 6622   3.051   1.739   3.088  0.1729 -0.0351  1.3893
 2206TIP3   OH2 6623   1.229   2.724   2.847 -0.0398 -0.3325 -0.1570
 2206TIP3    H1 6624   1.325   2.730   2.854  0.0342 -1.1050 -0.5065
 2206TIP3    H2 6625   1.200   2.716   2.938  0.3067 -1.2309 -0.1208
 2207TIP3   OH2 6626   2.543   4.500   0.545  0.3868  0.1644 -0.4266
 2207TIP3    H1 6627   2.628   4.540   0.526  0.4405 -0.9183 -2.6449
 2207TIP3    H2 6628   2.562   4.430   0.607  0.7045  1.6400  1.1811
 2208TIP3   OH2 6629   1.858   5.867   2.351  0.2313  0.1490  0.5577
 2208TIP3    H1 6630   1.909   5.871   2.432  2.2351 -0.2899 -0.6457
 2208TIP3    H2 6631   1.923   5.849   2.283 -1.3742  0.8291 -1.1927
 2209TIP3   OH2 6632   5.456   0.660   3.578  0.5755  0.0210 -0.0500
 2209TIP3    H1 6633   5.526   0.621   3.526  1.2993  1.6363 -0.3015
 2209TIP3    H2 6634   5.376   0.639   3.529  1.1303  0.4294 -1.1397
 2210TIP3   OH2 6635   4.195   3.168   0.315  0.1997  0.2575 -0.4703
 2210TIP3    H1 6636   4.267   3.179   0.377 -0.3021 -0.3127  0.2178
 2210TIP3    H2 6637   4.144   3.096   0.350 -0.0742 -0.0937 -1.5759
 2211TIP3   OH2 6638   2.817   1.547   3.140 -0.4797  0.1799  0.1399
 2211TIP3    H1 6639   2.772   1.589   3.213  0.1047 -1.2387  1.3384
 2211TIP3    H2 6640   2.892   1.605   3.122 -0.4195  0.3375  0.9015
 2212TIP3   OH2 6641   4.864   2.819   1.548  0.1881 -0.1196  0.6609
 2212TIP3    H1 6642   4.921   2.892   1.572 -1.4131  1.3512  0.1619
 2212TIP3    H2 6643   4.861   2.764   1.626  0.0944  1.2570  1.6543
 2213TIP3   OH2 6644   4.256   3.098   1.414 -0.5900  0.0880 -0.3451
 2213TIP3    H1 6645   4.261   3.127   1.505 -0.9718  2.2951 -0.9947
 2213TIP3    H2 6646   4.235   3.177   1.365  0.9837 -0.7890 -2.5240
 2214TIP3   OH2 6647   3.221   0.725   0.574 -0.3641 -0.4130  0.0771
 2214TIP3    H1 6648   3.274   0.646   0.587  1.9089  0.9439 -0.6075
 2214TIP3    H2 6649   3.177   0.710   0.490  0.8712 -0.5345 -0.5672
 2215TIP3   OH2 6650   4.087   2.929   0.132 -0.5212 -0.2869  0.0219
 2215TIP3    H1 6651   4.040   2.986   0.193 -0.1029  0.4276 -0.3085
 2215TIP3    H2 6652   4.100   2.984   0.054 -2.3595 -1.6579 -1.2863
 2216TIP3   OH2 6653   5.905   3.524   3.473 -0.3589  0.4001 -0.4498
 2216TIP3    H1 6654   5.823   3.480   3.494 -0.0283 -0.2927 -0.6065
 2216TIP3    H2 6655   5.880   3.615   3.458 -0.9166  0.4580  0.7545
 2217TIP3   OH2 6656   6.059   0.547   1.516  0.2199 -0.2955 -0.5405
 2217TIP3    H1 6657   6.131   0.532   1.577  0.4604 -0.7028 -0.9199
 2217TIP3    H2 6658   6.072   0.637   1.485  1.1259 -0.6898 -1.3328
 2218TIP3   OH2 6659   5.199   1.494   3.225 -0.3639 -0.3247 -0.4161
 2218TIP3    H1 6660   5.131   1.561   3.217 -0.8267 -0.4909  1.7142
 2218TIP3    H2 6661   5.156   1.422   3.270  0.6045 -1.3668 -1.1364
 2219TIP3   OH2 6662   4.933   1.702   0.975 -0.2735 -0.2176 -0.1715
 2219TIP3    H1 6663   4.902   1.760   1.045  0.4595  0.4218 -0.3668
 2219TIP3    H2 6664   4.998   1.754   0.928 -1.5201 -0.2707 -1.9909
 2220TIP3   OH2 6665   3.053   1.690   3.635 -0.2617  0.3263 -0.3354
 2220TIP3    H1 6666   3.074   1.763   3.576  0.1546  0.2522 -0.2814
 2220TIP3    H2 6667   3.119   1.696   3.704 -0.6489  0.3150  0.0397
 2221TIP3   OH2 6668   4.366   3.805   2.867 -0.6159  0.2605 -0.0131
 2221TIP3    H1 6669   4.427   3.827   2.938 -0.3012 -0.7159  0.0231
 2221TIP3    H2 6670   4.422   3.794   2.790 -1.1369  3.1548 -0.8517
 2222TIP3   OH2 6671   5.207   1.254   0.047  0.1437 -0.0785  0.2236
 2222TIP3    H1 6672   5.217   1.301   0.130  1.4568 -1.1579  0.6960
 2222TIP3    H2 6673   5.134   1.194   0.062  1.1436 -1.1271  1.0298
 2223TIP3   OH2 6674   5.363   1.674   0.364  0.4500 -0.2149 -0.0044
 2223TIP3    H1 6675   5.413   1.691   0.284 -0.6545 -0.8253 -0.8350
 2223TIP3    H2 6676   5.283   1.725   0.353 -0.1621 -1.1175  0.2518
 2224TIP3   OH2 6677   2.038   5.180   2.590 -0.6016 -0.0291  0.1060
 2224TIP3    H1 6678   2.064   5.095   2.625  0.5303  0.2333 -0.0606
 2224TIP3    H2 6679   2.026   5.165   2.496 -0.9970 -0.1316  0.1701
 2225TIP3   OH2 6680   6.284   2.114   0.108 -0.1735  0.2789 -0.2824
 2225TIP3    H1 6681   6.336   2.111   0.028  2.5159 -3.7093  1.4285
 2225TIP3    H2 6682   6.339   2.161   0.171 -0.2845 -0.5622  0.4526
 2226TIP3   OH2 6683   1.523   4.514   4.750  0.0131  0.1228  0.4776
 2226TIP3    H1 6684   1.528   4.543   4.659 -3.4794  1.4063  0.6032
 2226TIP3    H2 6685   1.550   4.590   4.801  0.1788  0.0069  0.5625
 2227TIP3   OH2 6686   3.493   2.996   2.418  0.0045 -0.5516  0.2278
 2227TIP3    H1 6687   3.539   3.076   2.393  0.6194 -0.7263  0.8155
 2227TIP3    H2 6688   3.497   2.941   2.339 -0.6317  0.0802 -0.2609
 2228TIP3   OH2 6689   4.226   0.946   2.328 -0.3647 -0.3613  0.2954
 2228TIP3    H1 6690   4.158   0.968   2.391 -0.2088 -1.2874  0.8065
 2228TIP3    H2 6691   4.247   1.028   2.285 -1.2515  0.0742  0.6874
 2229TIP3   OH2 6692   4.849   4.065   2.846 -0.3541 -0.5096 -0.1382
 2229TIP3    H1 6693   4.805   4.115   2.915 -0.0763 -1.2115  0.5489
 2229TIP3    H2 6694   4.779   4.046   2.783 -0.5153  0.5131 -0.2839
 2230TIP3   OH2 6695   5.534   3.406   2.928  0.2117  0.3686 -0.2559
 2230TIP3    H1 6696   5.593   3.336   2.956  2.1212  1.1281 -2.1794
 2230TIP3    H2 6697   5.579   3.487   2.954  0.5950  0.9904 -2.6538
 2231TIP3   OH2 6698   2.646   3.270   1.855  0.1214 -0.0357 -0.2114
 2231TIP3    H1 6699   2.574   3.302   1.910 -0.6591 -0.7207 -0.8188
 2231TIP3    H2 6700   2.686   3.350   1.819  0.1529  0.3823  0.7356
 2232TIP3   OH2 6701   2.322   3.023   1.182  0.4120 -0.3613  0.0348
 2232TIP3    H1 6702   2.300   3.083   1.254  1.3458 -0.5809  0.5058
 2232TIP3    H2 6703   2.402   3.060   1.144 -0.9383  0.6672 -1.9363
 2233TIP3   OH2 6704   3.738   3.731   0.660  0.3444 -0.1515  0.1330
 2233TIP3    H1 6705   3.740   3.789   0.736 -0.7765 -0.2794  0.2829
 2233TIP3    H2 6706   3.828   3.727   0.630  0.4257  1.7629  0.0443
 2234TIP3   OH2 6707   5.179   2.851   3.459  0.2865  0.1823  0.5657
 2234TIP3    H1 6708   5.264   2.827   3.495  0.4485 -0.1385 -0.0133
 2234TIP3    H2 6709   5.117   2.789   3.498  0.3234  0.3989  0.9667
 2235TIP3   OH2 6710   3.125   1.434   3.431  0.2604  0.0879  0.1550
 2235TIP3    H1 6711   3.089   1.467   3.514  0.7304  0.2240  0.3076
 2235TIP3    H2 6712   3.053   1.441   3.369  0.4804  1.8520  0.0732
 2236TIP3   OH2 6713   4.191   2.600   4.174 -0.4688  0.0027  0.4464
 2236TIP3    H1 6714   4.191   2.643   4.260  0.0269 -0.8295  0.8699
 2236TIP3    H2 6715   4.198   2.672   4.111  1.6419  0.4837  1.1959
 2237TIP3   OH2 6716   5.284   2.120   1.112  0.0320  0.0920  0.4245
 2237TIP3    H1 6717   5.353   2.142   1.049 -0.7367  0.0069 -0.4533
 2237TIP3    H2 6718   5.212   2.178   1.090 -0.7088 -0.8242  0.3963
 2238TIP3   OH2 6719   6.234   1.764   1.969  0.1235  0.0905 -0.2545
 2238TIP3    H1 6720   6.158   1.714   2.001 -0.1597 -0.3094 -1.5169
 2238TIP3    H2 6721   6.226   1.850   2.011 -1.6851  0.4382 -1.2519
 2239TIP3   OH2 6722   3.914   1.131   0.719  0.1075 -0.3822 -0.3664
 2239TIP3    H1 6723   3.909   1.172   0.806 -2.3727 -0.8625 -0.2485
 2239TIP3    H2 6724   3.982   1.064   0.728 -0.4294 -0.7218  1.3351
 2240TIP3   OH2 6725   3.883   2.041   4.732  0.0174 -0.2905  0.2041
 2240TIP3    H1 6726   3.949   2.041   4.801 -0.4589 -0.8497  0.6619
 2240TIP3    H2 6727   3.848   1.952   4.732  0.7854 -0.6152 -1.4942
 2241TIP3   OH2 6728   4.933   2.353   2.883  1.0476  0.2299  0.0142
 2241TIP3    H1 6729   5.008   2.401   2.847  0.7651 -0.7687 -1.9303
 2241TIP3    H2 6730   4.865   2.359   2.816 -0.7363  1.3060  1.8436
 2242TIP3   OH2 6731   3.768   3.469   2.175  0.3453 -0.2925 -0.2002
 2242TIP3    H1 6732   3.804   3.411   2.242  0.2722 -1.0371 -0.8009
 2242TIP3    H2 6733   3.838   3.478   2.111  1.1265  1.9875  0.9235
 2243TIP3   OH2 6734   3.195   2.994   4.167  0.0322  0.0692 -0.2067
 2243TIP3    H1 6735   3.168   2.988   4.258  0.3602 -1.9751 -0.2361
 2243TIP3    H2 6736   3.177   3.085   4.143 -3.4137 -0.2596  0.8436
 2244TIP3   OH2 6737   4.498   0.527   2.735  0.3145 -0.1136 -0.4706
 2244TIP3    H1 6738   4.498   0.436   2.703 -1.7012 -0.1774 -0.3884
 2244TIP3    H2 6739   4.495   0.518   2.831 -1.4288  0.0111 -0.5008
 2245TIP3   OH2 6740   3.701   1.343   4.005  0.5800  0.1701  0.6682
 2245TIP3    H1 6741   3.662   1.282   3.942  0.9155 -0.7251  1.3157
 2245TIP3    H2 6742   3.752   1.287   4.064  0.5172  1.0284  1.5511
 2246TIP3   OH2 6743   6.051   1.273   0.476  0.5585 -0.6655  0.0884
 2246TIP3    H1 6744   6.146   1.287   0.469  0.2852  1.5705  0.5169
 2246TIP3    H2 6745   6.042   1.196   0.533  2.0767  0.0217  1.2750
 2247TIP3   OH2 6746   2.797   0.467   2.982  0.3792  0.1391 -0.2411
 2247TIP3    H1 6747   2.839   0.423   2.908 -0.3291 -1.8342  0.5094
 2247TIP3    H2 6748   2.723   0.410   3.005 -0.4676  1.6482  0.8515
 2248TIP3   OH2 6749   3.204   2.502   2.862 -0.0198  0.1067 -0.0113
 2248TIP3    H1 6750   3.222   2.408   2.868  1.0686  0.2987 -0.2805
 2248TIP3    H2 6751   3.212   2.522   2.769 -1.1541  0.2943 -0.0791
 2249TIP3   OH2 6752   4.591   2.447   1.453  0.2806  0.0676  0.6101
 2249TIP3    H1 6753   4.672   2.452   1.403 -1.1659  1.2159 -1.6916
 2249TIP3    H2 6754   4.618   2.458   1.544  2.9530 -2.0437  0.1292
 2250TIP3   OH2 6755   2.592   2.756   3.238 -0.2132  0.1840  0.3642
 2250TIP3    H1 6756   2.502   2.782   3.219 -0.3264  1.2581  2.2490
 2250TIP3    H2 6757   2.645   2.831   3.210  0.0090 -0.1139 -0.0025
 2251TIP3   OH2 6758   5.210   3.100   3.863  0.5808 -0.3668  0.2653
 2251TIP3    H1 6759   5.267   3.054   3.926  0.8691 -1.4810 -0.7857
 2251TIP3    H2 6760   5.264   3.109   3.785 -0.5385 -1.0502 -0.6043
 2252TIP3   OH2 6761   3.949   2.837   2.037 -0.5572 -0.1954  0.8611
 2252TIP3    H1 6762   3.907   2.923   2.035 -0.7045 -0.2569  1.2219
 2252TIP3    H2 6763   3.948   2.807   1.946 -0.5496  0.1621  0.7413
 2253TIP3   OH2 6764   3.550   2.466   3.964 -0.2125  0.0557 -0.0407
 2253TIP3    H1 6765   3.599   2.540   3.929  0.0957  0.5893  1.4832
 2253TIP3    H2 6766   3.616   2.413   4.009 -0.9716  0.6470  1.8154
 2254TIP3   OH2 6767   5.765   2.136   0.440  0.2481 -0.7470  0.4587
 2254TIP3    H1 6768   5.850   2.156   0.401  0.3895 -2.2268 -0.0058
 2254TIP3    H2 6769   5.720   2.083   0.375 -1.3332  0.6265  0.3957
 2255TIP3   OH2 6770   6.523   4.132   2.715 -0.5670  0.8815 -0.1501
 2255TIP3    H1 6771   6.485   4.056   2.672  0.8534  0.8228 -1.3670
 2255TIP3    H2 6772   6.475   4.207   2.680  0.2203  0.7899 -1.4663
 2256TIP3   OH2 6773   4.876   4.258   2.340 -0.3694  0.3637  0.8493
 2256TIP3    H1 6774   4.836   4.176   2.368 -0.7490 -0.5503 -2.1919
 2256TIP3    H2 6775   4.939   4.233   2.272 -0.7692  2.5962 -0.4215
 2257TIP3   OH2 6776   3.970   1.302   2.225  0.4161 -0.3313  0.5521
 2257TIP3    H1 6777   4.048   1.287   2.171 -0.1506 -2.1115  0.2027
 2257TIP3    H2 6778   3.997   1.369   2.288  2.0840 -0.6078  0.1558
 2258TIP3   OH2 6779   4.857   3.603   2.038  0.3324 -0.3136  0.3073
 2258TIP3    H1 6780   4.940   3.624   2.082  1.5660 -2.9490 -0.6219
 2258TIP3    H2 6781   4.813   3.543   2.099  1.0275 -2.1904 -0.9829
 2259TIP3   OH2 6782   3.494   3.474   2.151 -0.0005  0.1031  0.2475
 2259TIP3    H1 6783   3.589   3.459   2.158  0.2123  0.5810 -1.3601
 2259TIP3    H2 6784   3.476   3.465   2.057 -1.0528  2.9869  0.1430
 2260TIP3   OH2 6785   3.411   3.867   1.201  0.1799  0.7449  0.9453
 2260TIP3    H1 6786   3.478   3.832   1.143 -0.7473  1.1671 -0.4261
 2260TIP3    H2 6787   3.429   3.961   1.204 -0.6435  0.9432  0.1349
 2261TIP3   OH2 6788   4.892   0.716   4.098  0.2642 -0.1902  0.1347
 2261TIP3    H1 6789   4.870   0.797   4.143  0.8702 -0.0746  0.2342
 2261TIP3    H2 6790   4.848   0.723   4.013 -0.3603 -0.1283  0.4626
 2262TIP3   OH2 6791   5.192   2.633   1.833 -0.0742  0.2832 -1.0586
 2262TIP3    H1 6792   5.139   2.580   1.773  0.8195  0.4982 -2.0457
 2262TIP3    H2 6793   5.205   2.716   1.787 -0.1303  0.7864 -0.1861
 2263TIP3   OH2 6794   3.406   0.666   1.544  0.4564 -0.0648 -0.4986
 2263TIP3    H1 6795   3.373   0.598   1.603  1.0652 -0.0027 -0.0792
 2263TIP3    H2 6796   3.335   0.681   1.482  0.2169 -0.8919 -0.4243
 2264TIP3   OH2 6797   4.109   3.836   1.848 -0.1590  0.4225  0.4400
 2264TIP3    H1 6798   4.062   3.902   1.900 -1.0970 -1.0447  1.4942
 2264TIP3    H2 6799   4.178   3.805   1.906  0.9575  1.2162 -0.4390
 2265TIP3   OH2 6800   2.068   2.050   2.470  0.1637 -0.4621  0.0739
 2265TIP3    H1 6801   1.982   2.009   2.463 -0.8003  1.2519  1.4576
 2265TIP3    H2 6802   2.111   2.032   2.386 -1.3383 -1.7559 -0.4340
 2266TIP3   OH2 6803   3.415   3.254   2.994 -0.4315  0.1424 -0.2119
 2266TIP3    H1 6804   3.421   3.166   3.030  0.7446  0.7276  1.0612
 2266TIP3    H2 6805   3.385   3.308   3.067 -0.3374  0.9491 -0.7610
 2267TIP3   OH2 6806   4.785   3.830   1.787  0.3018 -0.1506 -0.5411
 2267TIP3    H1 6807   4.738   3.803   1.866  0.1591  1.8047  0.0865
 2267TIP3    H2 6808   4.877   3.834   1.813  0.1849  1.1008 -0.2695
 2268TIP3   OH2 6809   4.426   5.778   2.351 -0.7080  0.8894  0.4142
 2268TIP3    H1 6810   4.386   5.851   2.398 -0.1983  1.1836  0.3953
 2268TIP3    H2 6811   4.519   5.799   2.349 -0.3820 -0.4155  1.5368
 2269TIP3   OH2 6812   4.770   2.194   0.936 -0.4510  0.5552  0.4351
 2269TIP3    H1 6813   4.837   2.262   0.930  0.0605 -0.0070 -0.4552
 2269TIP3    H2 6814   4.790   2.148   1.018 -0.7142  1.3889  0.9659
 2270TIP3   OH2 6815   5.452   4.073   1.348  0.4747  0.5037 -0.4938
 2270TIP3    H1 6816   5.388   4.105   1.413  1.6347  0.4305  0.7008
 2270TIP3    H2 6817   5.528   4.129   1.360  1.3621 -0.6787 -0.5573
 2271TIP3   OH2 6818   4.778   5.056   2.685 -0.1265  0.1621  0.0689
 2271TIP3    H1 6819   4.779   5.002   2.606  0.6540 -2.7296  1.9390
 2271TIP3    H2 6820   4.871   5.066   2.708 -0.4106 -0.6852  1.6611
 2272TIP3   OH2 6821   5.505   1.677   1.564  0.3290  0.3185 -0.2269
 2272TIP3    H1 6822   5.516   1.731   1.486  0.6495  0.7649  0.1249
 2272TIP3    H2 6823   5.464   1.735   1.628  0.5032  0.0923  0.0932
 2273TIP3   OH2 6824   3.555   2.392   0.464 -0.3896 -0.0012 -0.0984
 2273TIP3    H1 6825   3.611   2.315   0.473  1.3019  1.1907 -0.3975
 2273TIP3    H2 6826   3.608   2.465   0.494 -1.3688  1.3223 -1.5136
 2274TIP3   OH2 6827   2.232   0.026   5.270 -0.0642 -0.4304 -0.3451
 2274TIP3    H1 6828   2.281   0.044   5.190  0.3062  0.8621  0.1646
 2274TIP3    H2 6829   2.247  -0.067   5.287  0.7963 -0.4387 -1.1329
 2275TIP3   OH2 6830   2.252   4.843   1.422  0.0951 -0.0727  0.3054
 2275TIP3    H1 6831   2.288   4.860   1.509 -0.6794  0.2368  0.5636
 2275TIP3    H2 6832   2.198   4.765   1.433  1.9253 -1.4649 -0.4218
 2276TIP3   OH2 6833   4.016   3.422   1.166 -0.0921  0.2020 -0.0611
 2276TIP3    H1 6834   3.970   3.342   1.192  0.1764  0.0139 -0.1709
 2276TIP3    H2 6835   3.978   3.490   1.221 -0.6394  0.0799 -0.2796
 2277TIP3   OH2 6836   3.031   3.689   2.613  0.0398  0.2738 -0.0449
 2277TIP3    H1 6837   3.114   3.675   2.660  1.4688  1.8488 -1.9909
 2277TIP3    H2 6838   2.963   3.673   2.679  1.8315 -2.2900  1.2726
 2278TIP3   OH2 6839   4.293   4.977   3.287  0.0314  0.4467 -0.1942
 2278TIP3    H1 6840   4.388   4.973   3.287  0.0847  1.5627 -0.4348
 2278TIP3    H2 6841   4.265   4.901   3.235  0.7339 -0.8226  1.2381
 2279TIP3   OH2 6842   5.097   1.680   1.591  0.2821  0.2947 -0.2325
 2279TIP3    H1 6843   5.130   1.753   1.643  0.1834  0.9771 -1.1070
 2279TIP3    H2 6844   5.174   1.626   1.574  0.3060  0.0483  0.6515
 2280TIP3   OH2 6845   5.215   2.132   0.762 -0.1725 -0.0862  0.2963
 2280TIP3    H1 6846   5.255   2.209   0.721  0.6982  0.0547  1.3995
 2280TIP3    H2 6847   5.121   2.140   0.741  0.2110  0.0932 -1.4759
 2281TIP3   OH2 6848   4.835   2.255   0.089 -0.0520  0.1820 -0.1804
 2281TIP3    H1 6849   4.764   2.314   0.065  1.2877  1.9654  0.0757
 2281TIP3    H2 6850   4.827   2.244   0.184  0.4744  1.0358 -0.0300
 2282TIP3   OH2 6851   6.023   2.901   2.958  0.4296 -0.1656 -0.1841
 2282TIP3    H1 6852   5.951   2.852   2.919  0.6656 -0.0248 -0.8024
 2282TIP3    H2 6853   6.098   2.882   2.901  0.8407 -0.1907  0.3670
 2283TIP3   OH2 6854   1.596   1.084   4.223 -0.5975  0.1841  0.5811
 2283TIP3    H1 6855   1.514   1.134   4.224  0.8937  2.6853  1.0739
 2283TIP3    H2 6856   1.663   1.147   4.250  1.5323 -1.7672 -0.0276
 2284TIP3   OH2 6857   2.959   1.840   4.180  0.0661  0.0909  0.0035
 2284TIP3    H1 6858   3.004   1.823   4.264  0.1814  0.7149  0.0694
 2284TIP3    H2 6859   2.994   1.924   4.151 -0.5595  0.2474 -0.2914
 2285TIP3   OH2 6860   3.623   2.443   3.330 -0.5662  0.0378  0.0973
 2285TIP3    H1 6861   3.635   2.350   3.350 -0.4637  0.0861  0.2637
 2285TIP3    H2 6862   3.564   2.444   3.255 -1.5216 -0.1419  0.8289
 2286TIP3   OH2 6863   4.425   1.659   1.384  0.0904 -0.5297 -0.2830
 2286TIP3    H1 6864   4.335   1.690   1.393  0.0144 -0.6141 -0.7154
 2286TIP3    H2 6865   4.449   1.628   1.471 -0.2812 -0.4608 -0.1550
 2287TIP3   OH2 6866   3.786   2.705   2.198  0.3147  0.0023 -0.4000
 2287TIP3    H1 6867   3.812   2.731   2.286 -1.1979  2.3055 -0.5732
 2287TIP3    H2 6868   3.844   2.754   2.140  0.8093 -0.9302 -0.7021
 2288TIP3   OH2 6869   1.940   1.317   2.159 -0.0918  0.2461  0.3247
 2288TIP3    H1 6870   1.992   1.325   2.240  0.8820 -0.1407 -0.2522
 2288TIP3    H2 6871   1.968   1.391   2.106 -2.0646  1.5551  1.0589
 2289TIP3   OH2 6872   3.294   2.278   1.873 -0.3950 -0.1398  0.2515
 2289TIP3    H1 6873   3.312   2.372   1.870  1.5181 -0.3855  2.4620
 2289TIP3    H2 6874   3.278   2.254   1.782  1.9124  1.8176 -0.7301
 2290TIP3   OH2 6875   5.141   1.873   1.197 -0.0966  0.1097  0.1692
 2290TIP3    H1 6876   5.139   1.911   1.109 -0.6480  1.3983  0.7270
 2290TIP3    H2 6877   5.203   1.928   1.245  1.7924 -1.8433  0.0371
 2291TIP3   OH2 6878   3.886   0.768   2.184  0.1571  0.0203 -0.6510
 2291TIP3    H1 6879   3.818   0.712   2.146 -0.3103 -0.6649  1.1377
 2291TIP3    H2 6880   3.837   0.834   2.233  0.7533 -1.5967  2.2299
 2292TIP3   OH2 6881   4.223   0.939   0.591  0.5214 -0.8445 -0.0654
 2292TIP3    H1 6882   4.269   0.884   0.528  0.2010 -0.2612 -0.8187
 2292TIP3    H2 6883   4.170   0.998   0.538  0.4838 -0.1334  0.7403
 2293TIP3   OH2 6884   0.370   2.679   3.248  0.1506 -0.5495  0.2447
 2293TIP3    H1 6885   0.326   2.763   3.239  0.7994 -0.2880 -0.4749
 2293TIP3    H2 6886   0.378   2.645   3.159  1.1055 -0.7448  0.3921
 2294TIP3   OH2 6887   2.404   2.624   1.516  0.5889  0.5176  0.2705
 2294TIP3    H1 6888   2.365   2.709   1.494  0.7221  0.6039  0.3671
 2294TIP3    H2 6889   2.357   2.562   1.460 -0.8319  0.3876  1.5822
 2295TIP3   OH2 6890   4.443   2.658   1.350  0.3905  0.0885  0.4558
 2295TIP3    H1 6891   4.361   2.619   1.379 -1.2679  2.0991 -1.3026
 2295TIP3    H2 6892   4.511   2.601   1.386 -1.7842 -2.1619  1.1659
 2296TIP3   OH2 6893   5.697   1.514   0.347 -0.1437  0.2233  0.2292
 2296TIP3    H1 6894   5.752   1.439   0.324 -1.8665 -0.6325 -1.1609
 2296TIP3    H2 6895   5.626   1.477   0.400 -2.3231  0.4607 -2.4381
 2297TIP3   OH2 6896   4.882   3.778   2.848 -0.2837 -0.0149 -0.2962
 2297TIP3    H1 6897   4.855   3.866   2.819 -0.3818  0.3055  0.7525
 2297TIP3    H2 6898   4.943   3.795   2.921 -0.7296 -0.8315  0.2634
 2298TIP3   OH2 6899   3.134   3.192   2.223  0.0304  0.0746 -0.1440
 2298TIP3    H1 6900   3.140   3.126   2.292 -0.9395 -1.0716 -1.1482
 2298TIP3    H2 6901   3.204   3.169   2.162  0.7789  0.9893  0.3557
 2299TIP3   OH2 6902   4.467   0.782   2.317 -0.4219 -0.4521  0.9510
 2299TIP3    H1 6903   4.530   0.850   2.293 -0.5212 -0.9286 -0.7591
 2299TIP3    H2 6904   4.386   0.829   2.337 -0.7018 -0.0663 -0.9301
 2300TIP3   OH2 6905   5.728   4.295   3.447  0.1662 -0.1700 -0.3303
 2300TIP3    H1 6906   5.669   4.326   3.516 -0.3208 -1.4630 -0.1524
 2300TIP3    H2 6907   5.678   4.304   3.366  0.8569  1.6654 -0.5942
 2301TIP3   OH2 6908   2.021   1.502   2.528 -0.4077  0.2139  0.1926
 2301TIP3    H1 6909   1.943   1.464   2.488  1.7807 -0.2628 -3.8402
 2301TIP3    H2 6910   2.072   1.426   2.557  0.9476  0.2624 -1.9664
 2302TIP3   OH2 6911   2.376   3.637   2.358 -0.3563  0.5999 -0.3323
 2302TIP3    H1 6912   2.342   3.715   2.402 -2.4147 -0.8681  0.7351
 2302TIP3    H2 6913   2.394   3.575   2.429 -0.3198 -0.4959 -1.2828
 2303TIP3   OH2 6914   3.729   0.710   4.361 -0.6368 -0.3367 -0.4206
 2303TIP3    H1 6915   3.823   0.708   4.339  0.2405 -2.4973  3.0827
 2303TIP3    H2 6916   3.685   0.713   4.277  2.5787  1.7443 -2.1706
 2304TIP3   OH2 6917   5.144   6.062   2.975  0.5689  0.7222  0.0254
 2304TIP3    H1 6918   5.132   6.114   3.055 -0.5920  0.6127 -0.0659
 2304TIP3    H2 6919   5.111   6.118   2.905  1.5841  0.8155 -0.3869
 2305TIP3   OH2 6920   3.045   5.872   0.790 -0.2188  0.0565  0.4574
 2305TIP3    H1 6921   3.072   5.878   0.882  0.7161 -3.8038  0.5300
 2305TIP3    H2 6922   3.128   5.875   0.741 -0.6144  0.7427 -0.1793
 2306TIP3   OH2 6923   3.130   0.616   0.276 -0.5957 -0.0827  0.0123
 2306TIP3    H1 6924   3.089   0.678   0.215 -0.3926  0.3381  0.3046
 2306TIP3    H2 6925   3.068   0.543   0.282 -1.1335  0.3926  0.1796
 2307TIP3   OH2 6926   0.356   5.133   0.281 -0.4392  0.2777  0.5280
 2307TIP3    H1 6927   0.347   5.170   0.368  1.0570 -0.2163  0.9242
 2307TIP3    H2 6928   0.334   5.204   0.221  0.1928  1.1254  1.2944
 2308TIP3   OH2 6929   4.794   1.579   0.464 -0.3386  0.1088  0.0853
 2308TIP3    H1 6930   4.765   1.492   0.492 -0.3481  0.1632  0.2472
 2308TIP3    H2 6931   4.818   1.624   0.546  0.5204 -0.0505 -0.0717
 2309TIP3   OH2 6932   4.670   0.956   2.231  0.5492 -0.1465 -0.4323
 2309TIP3    H1 6933   4.672   0.935   2.138  0.1761 -0.3170 -0.4022
 2309TIP3    H2 6934   4.695   1.049   2.236 -1.1445  0.3422 -0.8490
 2310TIP3   OH2 6935   0.579   3.026   1.368 -0.0915  0.1866  0.3286
 2310TIP3    H1 6936   0.591   3.120   1.352 -2.0396  0.3671 -0.1431
 2310TIP3    H2 6937   0.495   3.020   1.413 -1.0192 -1.5242 -1.5768
 2311TIP3   OH2 6938   3.696   1.441   1.820  0.1395  0.7118  0.0355
 2311TIP3    H1 6939   3.723   1.404   1.904 -1.6612  1.2821  0.8938
 2311TIP3    H2 6940   3.664   1.366   1.770  1.2172  0.3709 -0.1731
 2312TIP3   OH2 6941   2.220   3.247   1.626  0.4181  0.0175 -0.3091
 2312TIP3    H1 6942   2.255   3.194   1.697  0.9333 -0.2681 -0.7677
 2312TIP3    H2 6943   2.285   3.237   1.555 -0.5500 -0.4381 -1.1375
 2313TIP3   OH2 6944   5.664   2.387   2.426 -0.0164 -0.2208  0.3756
 2313TIP3    H1 6945   5.719   2.316   2.395  0.9276 -0.0463  1.5890
 2313TIP3    H2 6946   5.591   2.343   2.470  0.0142 -0.4472  0.2019
 2314TIP3   OH2 6947   5.742   2.481   1.493  0.2554  0.2371 -0.5847
 2314TIP3    H1 6948   5.705   2.393   1.501  1.4597 -0.1596  0.8647
 2314TIP3    H2 6949   5.685   2.536   1.546  1.5462 -0.3302  1.4480
 2315TIP3   OH2 6950   0.269   4.190   5.080 -0.0994 -0.5957 -0.0705
 2315TIP3    H1 6951   0.280   4.126   5.150  1.7311  0.4242  0.6065
 2315TIP3    H2 6952   0.358   4.206   5.047 -0.8880 -0.7516 -2.3518
 2316TIP3   OH2 6953   3.600   1.895   3.712 -0.0247  0.3261  0.0224
 2316TIP3    H1 6954   3.686   1.927   3.741  0.5476  0.3654 -1.6859
 2316TIP3    H2 6955   3.539   1.962   3.743  0.5853  0.4696  0.9525
 2317TIP3   OH2 6956   5.471   1.965   3.352 -0.1210  0.7324  0.2892
 2317TIP3    H1 6957   5.508   1.881   3.324 -2.5024 -0.2039 -0.1234
 2317TIP3    H2 6958   5.477   2.021   3.274 -1.4676 -0.0674 -0.3947
 2318TIP3   OH2 6959   5.080   2.036   2.853  0.2806  0.1645  0.3733
 2318TIP3    H1 6960   4.987   2.031   2.830 -0.2457 -1.4968  2.6343
 2318TIP3    H2 6961   5.124   2.055   2.771 -1.8492 -1.4697 -1.2128
 2319TIP3   OH2 6962   4.100   0.397   3.179 -0.1482 -0.1880 -0.4387
 2319TIP3    H1 6963   4.074   0.315   3.136  1.1473 -1.4614  1.1243
 2319TIP3    H2 6964   4.193   0.385   3.197  0.0159  1.5877 -0.0858
 2320TIP3   OH2 6965   0.094   3.375   3.841 -0.9470 -0.1973  0.2632
 2320TIP3    H1 6966   0.089   3.470   3.842  2.1537  0.0408 -0.5821
 2320TIP3    H2 6967   0.017   3.347   3.790 -2.6987  1.7287  1.7936
 2321TIP3   OH2 6968   4.132   1.160   4.248 -0.2147 -0.6114  0.7684
 2321TIP3    H1 6969   4.156   1.232   4.306 -0.3197 -0.6975  0.9171
 2321TIP3    H2 6970   4.202   1.096   4.259  1.3604  0.6681 -1.4506
 2322TIP3   OH2 6971   4.958   2.438   1.952  0.2415 -0.4219 -0.4304
 2322TIP3    H1 6972   4.896   2.370   1.978  0.8095 -0.6458  0.3555
 2322TIP3    H2 6973   5.025   2.437   2.021  0.1367  1.0805 -0.2951
 2323TIP3   OH2 6974   1.321   1.710   2.815 -0.3352 -0.1929 -0.3962
 2323TIP3    H1 6975   1.271   1.772   2.869  1.1576 -0.2407  1.0699
 2323TIP3    H2 6976   1.254   1.666   2.762 -1.8552 -0.1696  1.4458
 2324TIP3   OH2 6977   3.280   2.667   2.349  0.3124 -0.0373 -0.0412
 2324TIP3    H1 6978   3.229   2.728   2.296 -0.2754 -0.8304 -0.4064
 2324TIP3    H2 6979   3.367   2.666   2.308  0.3437  0.6005  0.0086
 2325TIP3   OH2 6980   5.560   2.577   3.437 -0.2019 -0.1641  0.0156
 2325TIP3    H1 6981   5.542   2.539   3.351 -1.5495  3.7877 -1.5698
 2325TIP3    H2 6982   5.655   2.592   3.437  0.1525 -2.3280  0.1741
 2326TIP3   OH2 6983   3.627   3.215   5.136  0.0879  0.3217  0.1517
 2326TIP3    H1 6984   3.678   3.236   5.058  1.3515  1.4512  1.2478
 2326TIP3    H2 6985   3.588   3.299   5.162 -2.3257 -0.5060 -0.6363
 2327TIP3   OH2 6986   4.422   0.747   3.122  0.0199 -0.1698  0.0073
 2327TIP3    H1 6987   4.507   0.784   3.144  1.3386 -3.0430  0.0264
 2327TIP3    H2 6988   4.401   0.783   3.036  0.8321  1.2593  0.4019
 2328TIP3   OH2 6989   2.323   2.200   3.542  0.8091 -0.1627  0.0100
 2328TIP3    H1 6990   2.337   2.245   3.626 -0.5756 -0.2226  0.2800
 2328TIP3    H2 6991   2.237   2.159   3.551 -0.0494  1.1309 -2.0126
 2329TIP3   OH2 6992   1.292   4.309   4.692 -0.7073  0.6958 -0.1659
 2329TIP3    H1 6993   1.265   4.399   4.706 -1.7216  0.4785 -0.6939
 2329TIP3    H2 6994   1.255   4.285   4.607  0.8539  0.2817 -0.7482
 2330TIP3   OH2 6995   3.933   3.926   1.261  0.3967 -0.0404 -0.7178
 2330TIP3    H1 6996   4.001   3.906   1.197 -0.5790 -0.7903 -1.5378
 2330TIP3    H2 6997   3.940   4.021   1.275 -0.6965  0.4892 -3.4799
 2331TIP3   OH2 6998   3.038   1.256   0.089 -0.3201 -0.6542 -0.0923
 2331TIP3    H1 6999   2.966   1.238   0.028 -0.5499 -0.0057 -0.0205
 2331TIP3    H2 7000   2.996   1.303   0.161  0.3293  0.4883 -0.4583
 2332TIP3   OH2 7001   0.769   3.823   1.389 -0.2690 -0.2558 -0.3503
 2332TIP3    H1 7002   0.739   3.853   1.303 -1.5533  0.3896  0.2993
 2332TIP3    H2 7003   0.708   3.865   1.451  1.1913  0.0032  0.9300
 2333TIP3   OH2 7004   4.184   3.908   0.639 -0.1043  0.1425  0.1414
 2333TIP3    H1 7005   4.242   3.841   0.677  1.2662  0.5839 -1.1183
 2333TIP3    H2 7006   4.161   3.964   0.713  1.3478  0.1518  0.6144
 2334TIP3   OH2 7007   4.597   3.386   2.045 -0.5033  0.5490 -0.0475
 2334TIP3    H1 7008   4.517   3.336   2.034  0.1914 -0.5260 -0.3124
 2334TIP3    H2 7009   4.614   3.384   2.140  1.0957 -2.2693 -0.3318
 2335TIP3   OH2 7010   4.975   3.522   2.914  0.4348  0.2268 -0.0802
 2335TIP3    H1 7011   5.048   3.565   2.869  1.9190 -0.7556  1.3449
 2335TIP3    H2 7012   4.897   3.565   2.878  1.7586  2.4571 -0.4394
 2336TIP3   OH2 7013   2.011   6.105   3.419 -0.2902 -0.4793 -0.0213
 2336TIP3    H1 7014   1.996   6.041   3.350  0.9193 -1.6997  0.8367
 2336TIP3    H2 7015   1.967   6.069   3.495 -1.2646  0.6648 -0.0185
 2337TIP3   OH2 7016   4.173   2.553   1.481 -0.1155 -0.2507 -0.0245
 2337TIP3    H1 7017   4.094   2.599   1.509 -0.1154  0.7327 -1.5605
 2337TIP3    H2 7018   4.160   2.539   1.387  1.4366 -0.2602 -0.2532
 2338TIP3   OH2 7019   4.607   3.873   3.000  0.1525  0.3027 -0.3082
 2338TIP3    H1 7020   4.691   3.832   3.020  0.2528  0.2958 -0.7379
 2338TIP3    H2 7021   4.592   3.933   3.072  1.0897  1.1509 -0.8032
 2339TIP3   OH2 7022   0.389   1.520   2.190 -0.3466  0.0946 -0.5726
 2339TIP3    H1 7023   0.381   1.612   2.164 -2.4923  0.4065  1.0444
 2339TIP3    H2 7024   0.422   1.476   2.112 -0.7841  1.9753 -1.8648
 2340TIP3   OH2 7025   0.496   2.807   0.616 -0.0346  0.0608 -0.0618
 2340TIP3    H1 7026   0.579   2.825   0.574  0.7495  0.1128  1.4595
 2340TIP3    H2 7027   0.475   2.717   0.590  0.8519 -0.2016  0.1101
 2341TIP3   OH2 7028   4.390   1.397   1.290  0.6521  0.4153  0.0229
 2341TIP3    H1 7029   4.484   1.377   1.298  0.3047 -0.7127  1.6119
 2341TIP3    H2 7030   4.380   1.482   1.333  1.2589  1.5046 -1.9450
 2342TIP3   OH2 7031   3.192   3.281   4.054  0.1744  0.2925 -0.3526
 2342TIP3    H1 7032   3.254   3.252   3.987  0.8716  0.1791  0.3257
 2342TIP3    H2 7033   3.231   3.360   4.090 -0.4947  0.6850 -0.4865
 2343TIP3   OH2 7034   3.516   2.331   2.288  0.2250  0.4269  0.1949
 2343TIP3    H1 7035   3.484   2.400   2.346  1.7439  0.0528  1.4919
 2343TIP3    H2 7036   3.479   2.250   2.324 -0.6669  0.4264 -0.6930
 2344TIP3   OH2 7037   0.424   4.674   1.988 -0.2395  0.3416 -0.4062
 2344TIP3    H1 7038   0.429   4.762   2.026  1.4094 -0.0311  0.3227
 2344TIP3    H2 7039   0.381   4.622   2.055 -0.6907  0.4739 -0.5944
 2345TIP3   OH2 7040   4.071   1.485   3.696  0.1605  0.3965  0.2334
 2345TIP3    H1 7041   4.057   1.391   3.708 -1.0753  0.5562  0.1193
 2345TIP3    H2 7042   3.983   1.522   3.687  0.5726  1.7082  1.3518
 2346TIP3   OH2 7043   6.141   0.262   0.534  0.8734 -0.0040  0.1782
 2346TIP3    H1 7044   6.131   0.219   0.449  1.6017 -0.3911  0.2884
 2346TIP3    H2 7045   6.132   0.191   0.598  2.0324  0.0153  0.3601
 2347TIP3   OH2 7046   5.039   0.331   0.582 -0.2742 -0.2795  1.0075
 2347TIP3    H1 7047   5.115   0.322   0.640 -0.2820 -1.6554  0.8206
 2347TIP3    H2 7048   4.964   0.336   0.641 -0.2273 -1.0542  1.1281
 2348TIP3   OH2 7049   5.577   2.232   1.507  0.5209  0.1966  0.5424
 2348TIP3    H1 7050   5.634   2.154   1.505  0.4765  0.1812 -0.5206
 2348TIP3    H2 7051   5.489   2.196   1.521  0.5250  0.0719  0.2542
 2349TIP3   OH2 7052   5.214   3.317   0.384 -0.1484 -1.0939  0.3564
 2349TIP3    H1 7053   5.204   3.229   0.347  0.0251 -0.5513 -1.0011
 2349TIP3    H2 7054   5.271   3.363   0.323 -2.6843  0.9220 -0.5876
 2350TIP3   OH2 7055   2.210   1.413   3.825  0.3360  0.3624 -0.1818
 2350TIP3    H1 7056   2.228   1.396   3.732  0.4428 -0.8729  0.0582
 2350TIP3    H2 7057   2.125   1.372   3.841 -0.4593  1.9915 -0.1232
 2351TIP3   OH2 7058   0.272   3.799   0.899 -0.4173 -0.2525  0.3428
 2351TIP3    H1 7059   0.202   3.841   0.848  1.0113  1.2900 -0.3798
 2351TIP3    H2 7060   0.313   3.739   0.837  2.7072  3.1743 -1.0696
 2352TIP3   OH2 7061   3.988   1.763   3.402  0.0044  0.1107  0.1292
 2352TIP3    H1 7062   3.894   1.763   3.421  0.2483  0.3353  1.3595
 2352TIP3    H2 7063   4.011   1.855   3.393  0.0814  0.0485 -0.3347
 2353TIP3   OH2 7064   4.372   2.080   4.352  0.4714 -0.3171  0.2401
 2353TIP3    H1 7065   4.431   2.072   4.427  0.5149  1.9466  0.4825
 2353TIP3    H2 7066   4.322   1.999   4.352  1.8659 -1.2014  1.5147
 2354TIP3   OH2 7067   2.525   0.431   4.424 -0.2935 -0.2049  0.5513
 2354TIP3    H1 7068   2.489   0.472   4.346  1.0106 -0.0904 -0.0058
 2354TIP3    H2 7069   2.540   0.339   4.399  0.4535 -0.0876  0.5411
 2355TIP3   OH2 7070   1.045   2.841   2.111  0.1858 -0.1579 -0.5090
 2355TIP3    H1 7071   1.127   2.792   2.111  0.3052  0.0441 -0.4957
 2355TIP3    H2 7072   0.982   2.782   2.068  0.3302 -0.3206 -0.4974
 2356TIP3   OH2 7073   2.956   5.396   0.158 -0.3280  0.1026  0.3980
 2356TIP3    H1 7074   3.009   5.448   0.218  0.7177 -0.1616 -0.2773
 2356TIP3    H2 7075   3.002   5.312   0.151 -1.5575 -0.6134  0.8346
 2357TIP3   OH2 7076   0.972   5.657   1.128 -0.1897 -0.4128  0.3247
 2357TIP3    H1 7077   1.017   5.588   1.176  2.5392  1.5481  0.7081
 2357TIP3    H2 7078   0.998   5.738   1.172 -0.2249  1.1653 -2.4398
 2358TIP3   OH2 7079   4.146   3.481   1.951 -0.2382 -0.1058 -0.2627
 2358TIP3    H1 7080   4.051   3.468   1.962 -0.1780 -0.3964 -0.0681
 2358TIP3    H2 7081   4.154   3.525   1.867 -0.6616  1.4068  0.4698
 2359TIP3   OH2 7082   3.626   1.620   4.000  0.3859 -0.3117 -0.0964
 2359TIP3    H1 7083   3.693   1.681   3.969  0.5386  0.0246  0.8769
 2359TIP3    H2 7084   3.667   1.534   3.991  0.0998 -0.2919 -1.6505
 2360TIP3   OH2 7085   4.336   0.963   4.212 -0.2171  0.2976  0.0638
 2360TIP3    H1 7086   4.420   0.922   4.231 -0.3904  0.4993  1.2572
 2360TIP3    H2 7087   4.356   1.027   4.143  0.2007 -1.1811 -1.2212
 2361TIP3   OH2 7088   6.380   4.443   2.153 -0.5919 -0.5466 -0.4061
 2361TIP3    H1 7089   6.390   4.475   2.064 -0.2910 -1.4813 -0.7206
 2361TIP3    H2 7090   6.310   4.377   2.147  0.8877 -2.1597 -0.3865
 2362TIP3   OH2 7091   2.820   3.839   2.425 -0.0101 -0.0537 -0.9032
 2362TIP3    H1 7092   2.793   3.748   2.442  0.9356 -0.1084  0.4349
 2362TIP3    H2 7093   2.805   3.884   2.508 -0.2935  0.9823 -1.5081
 2363TIP3   OH2 7094   5.452   4.442   1.692  0.6138  0.3296  0.3753
 2363TIP3    H1 7095   5.469   4.473   1.781  0.3066 -0.6803  0.7965
 2363TIP3    H2 7096   5.473   4.516   1.636  3.1410  0.2261  1.1231
 2364TIP3   OH2 7097   4.182   2.182   5.283 -0.0457 -0.2978 -0.1777
 2364TIP3    H1 7098   4.159   2.270   5.252  0.0513 -0.5351 -0.9455
 2364TIP3    H2 7099   4.236   2.146   5.212  0.2341 -0.8302  0.3081
 2365TIP3   OH2 7100   3.002   3.595   1.988  0.1550 -0.6328  0.4268
 2365TIP3    H1 7101   3.020   3.503   1.970  2.1361 -0.4417  1.3401
 2365TIP3    H2 7102   3.082   3.628   2.028 -0.7239  1.3641  0.5971
 2366TIP3   OH2 7103   4.472   1.954   0.526  0.0392 -0.5582 -0.6118
 2366TIP3    H1 7104   4.492   2.030   0.471  0.2902  1.1001  1.6819
 2366TIP3    H2 7105   4.440   1.992   0.608 -1.0655 -2.9738  0.1108
 2367TIP3   OH2 7106   2.883   1.963   2.148  0.2268  0.1620  0.2083
 2367TIP3    H1 7107   2.869   2.030   2.081 -0.2444 -0.0193  0.1174
 2367TIP3    H2 7108   2.973   1.934   2.135  0.3776  0.6602  0.1420
 2368TIP3   OH2 7109   1.273   0.216   1.816  0.1775  0.4748 -0.3433
 2368TIP3    H1 7110   1.189   0.174   1.799 -0.0429  0.7566  0.0327
 2368TIP3    H2 7111   1.297   0.189   1.904  1.3961 -1.1060 -1.1447
 2369TIP3   OH2 7112   2.081   1.740   2.375  0.1881  0.3385 -0.2065
 2369TIP3    H1 7113   2.042   1.654   2.393  1.1070 -0.4238 -1.7360
 2369TIP3    H2 7114   2.134   1.759   2.452 -1.7102  0.5478  1.1010
 2370TIP3   OH2 7115   4.958   2.482   0.247 -1.2444  0.4674  0.2341
 2370TIP3    H1 7116   4.977   2.502   0.155  1.6321  0.3942  0.7747
 2370TIP3    H2 7117   4.937   2.567   0.286  0.9038  1.0240  0.2416
 2371TIP3   OH2 7118   5.967   2.234   0.928 -0.3153 -0.2101 -0.1742
 2371TIP3    H1 7119   6.050   2.270   0.897 -0.5172  1.8224  1.4608
 2371TIP3    H2 7120   5.933   2.182   0.855  1.7563  0.0198 -1.3242
 2372TIP3   OH2 7121   6.436   3.567   3.442  0.3470 -0.5360  0.2100
 2372TIP3    H1 7122   6.358   3.530   3.484 -0.9897  0.5976 -1.1904
 2372TIP3    H2 7123   6.505   3.503   3.459 -1.0395 -1.8885  0.9247
 2373TIP3   OH2 7124   2.789   6.003   3.976  0.5233 -0.0098  0.6392
 2373TIP3    H1 7125   2.732   5.926   3.977  0.8060 -0.2620 -1.1634
 2373TIP3    H2 7126   2.748   6.063   3.914  1.3680  0.4724  0.5394
 2374TIP3   OH2 7127   5.145   2.923   1.352 -0.8422 -0.1059 -0.5765
 2374TIP3    H1 7128   5.154   2.986   1.281  3.8110 -1.0107 -0.9528
 2374TIP3    H2 7129   5.119   2.975   1.428  1.4678  2.0873 -1.2338
 2375TIP3   OH2 7130   0.224   3.430   0.515  0.1936 -0.4629 -0.2987
 2375TIP3    H1 7131   0.309   3.470   0.494 -0.8722  1.2794 -1.4796
 2375TIP3    H2 7132   0.166   3.462   0.446 -1.2663 -2.1884  0.1188
 2376TIP3   OH2 7133   3.623   2.017   3.267 -0.6900 -0.4604  0.6211
 2376TIP3    H1 7134   3.683   2.011   3.341 -0.8010 -0.7982  0.6836
 2376TIP3    H2 7135   3.576   2.099   3.281 -0.1597 -0.1358  0.5100
 2377TIP3   OH2 7136   4.053   3.319   0.929 -0.3797 -0.4212  0.4925
 2377TIP3    H1 7137   4.110   3.377   0.880 -2.5215  1.3344  0.0407
 2377TIP3    H2 7138   4.043   3.361   1.014 -1.9103 -0.1301  0.1770
 2378TIP3   OH2 7139   3.132   1.769   2.545  0.7009 -0.1442 -0.0994
 2378TIP3    H1 7140   3.047   1.735   2.572  1.3596 -1.7553  0.0532
 2378TIP3    H2 7141   3.137   1.857   2.582 -0.2533 -0.6409  1.2150
 2379TIP3   OH2 7142   3.765   0.310   1.884 -0.4331  0.0176  0.1788
 2379TIP3    H1 7143   3.839   0.251   1.871 -0.0939  0.6036 -0.6470
 2379TIP3    H2 7144   3.688   0.254   1.881 -0.1795 -0.2776 -1.5812
 2380TIP3   OH2 7145   4.399   4.064   0.428  0.3235 -0.2178  0.1901
 2380TIP3    H1 7146   4.330   4.026   0.481 -0.6422  0.5292 -0.5134
 2380TIP3    H2 7147   4.360   4.076   0.342  0.7174  1.9377  0.2724
 2381TIP3   OH2 7148   0.015   3.130   2.338  0.6129  0.5703  0.4518
 2381TIP3    H1 7149   0.039   3.040   2.361  1.0861  0.9214  1.3597
 2381TIP3    H2 7150   0.054   3.144   2.252  0.9180  0.0612  0.5068
 2382TIP3   OH2 7151   3.274   0.724   4.230  0.8924 -0.4432 -0.2065
 2382TIP3    H1 7152   3.198   0.706   4.286  1.4008 -0.7686  0.3845
 2382TIP3    H2 7153   3.239   0.777   4.159  0.3183  0.3491  0.6572
 2383TIP3   OH2 7154   2.805   2.443   2.377 -0.7156 -0.0541  0.2713
 2383TIP3    H1 7155   2.839   2.527   2.406  0.4586 -0.9406  1.5147
 2383TIP3    H2 7156   2.747   2.464   2.304 -1.5734  1.9727  1.4921
 2384TIP3   OH2 7157   5.373   2.524   1.566 -0.0940 -0.0884  0.0461
 2384TIP3    H1 7158   5.359   2.611   1.531  1.8267  0.5115  0.7078
 2384TIP3    H2 7159   5.367   2.466   1.490 -0.1990  0.7502 -0.5883
 2385TIP3   OH2 7160   1.043   0.185   0.856 -0.0792  0.0993  0.1454
 2385TIP3    H1 7161   0.988   0.261   0.835 -0.0472  0.0655 -0.0541
 2385TIP3    H2 7162   1.043   0.182   0.952  0.1599  0.5265  0.1602
 2386TIP3   OH2 7163   4.275   4.295   3.913 -0.3003  0.3321  0.1450
 2386TIP3    H1 7164   4.272   4.377   3.863  0.0102  0.3458  0.1497
 2386TIP3    H2 7165   4.185   4.263   3.911 -0.6194  1.1640  0.9443
 2387TIP3   OH2 7166   6.402   2.336   0.632  0.1491 -0.6300  0.0952
 2387TIP3    H1 7167   6.442   2.276   0.695  0.2916  1.3968  1.9645
 2387TIP3    H2 7168   6.476   2.373   0.584  0.1370 -1.1130 -0.2950
 2388TIP3   OH2 7169   0.120   2.147   3.285 -0.5431 -0.0038 -0.1721
 2388TIP3    H1 7170   0.047   2.085   3.281  1.0503 -1.9259 -0.1577
 2388TIP3    H2 7171   0.181   2.108   3.347  1.8926  0.0278 -2.4635
 2389TIP3   OH2 7172   5.436   3.168   0.959 -0.7021 -0.4037 -0.3884
 2389TIP3    H1 7173   5.384   3.242   0.928 -0.9301  0.2214  1.4269
 2389TIP3    H2 7174   5.475   3.199   1.041 -0.1536 -2.0223 -0.0223
 2390TIP3   OH2 7175   5.674   4.995   1.028  0.4686 -0.1606 -0.5420
 2390TIP3    H1 7176   5.604   5.029   1.084 -0.7293 -0.4711 -1.8446
 2390TIP3    H2 7177   5.732   4.948   1.088  0.8286  2.0562  0.9141
 2391TIP3   OH2 7178   6.038   3.535   2.408 -0.1112 -0.1692  0.2131
 2391TIP3    H1 7179   6.133   3.525   2.400  0.0752  0.7356  1.1577
 2391TIP3    H2 7180   6.011   3.461   2.463  0.0844 -0.2802  0.1620
 2392TIP3   OH2 7181   6.387   1.365   0.170  0.1755 -0.7734 -0.0044
 2392TIP3    H1 7182   6.297   1.345   0.146 -0.1804  0.7159  0.0129
 2392TIP3    H2 7183   6.439   1.345   0.092 -0.5598  1.0968 -0.9900
 2393TIP3   OH2 7184   6.307   3.417   2.395  0.1739  0.2880  0.6355
 2393TIP3    H1 7185   6.313   3.373   2.310  0.8128  1.7145 -0.0904
 2393TIP3    H2 7186   6.396   3.413   2.430  0.7982  2.9663 -0.4950
 2394TIP3   OH2 7187   4.051   1.286   0.073  0.1175  0.2493  0.5277
 2394TIP3    H1 7188   4.134   1.247   0.101  0.7977  1.4593  0.2615
 2394TIP3    H2 7189   4.075   1.345   0.002 -1.1618 -0.3505 -0.4212
 2395TIP3   OH2 7190   4.609   1.711   1.177  0.1601 -0.0576  0.1592
 2395TIP3    H1 7191   4.542   1.719   1.245  0.1495 -0.8353  0.2442
 2395TIP3    H2 7192   4.574   1.762   1.103 -0.1612  0.1911  0.4786
 2396TIP3   OH2 7193   0.373   2.692   2.273 -0.4061 -0.5985  0.0477
 2396TIP3    H1 7194   0.371   2.653   2.186  1.6529 -1.2039  0.2377
 2396TIP3    H2 7195   0.455   2.659   2.312  1.3483  3.7107  0.3120
 2397TIP3   OH2 7196   5.786   2.700   0.693 -0.4778  0.5668 -0.7456
 2397TIP3    H1 7197   5.784   2.760   0.767 -1.7245  1.6597 -1.6403
 2397TIP3    H2 7198   5.837   2.625   0.724 -1.1289  0.9351  1.2767
 2398TIP3   OH2 7199   5.641   3.343   1.733  0.4369 -0.1762 -0.5878
 2398TIP3    H1 7200   5.645   3.339   1.829 -3.7727  2.4000 -0.1689
 2398TIP3    H2 7201   5.702   3.413   1.709  1.6425 -0.9527  0.1535
 2399TIP3   OH2 7202   3.984   6.032   0.309  0.6283  0.3137  0.2425
 2399TIP3    H1 7203   3.966   5.940   0.329  0.3784  0.3959  0.3995
 2399TIP3    H2 7204   3.898   6.068   0.285  0.5979  0.6863  0.9004
 2400TIP3   OH2 7205   6.253   2.516   2.883 -0.6653  0.4123 -0.0694
 2400TIP3    H1 7206   6.175   2.543   2.931 -0.1853  0.7663  0.5204
 2400TIP3    H2 7207   6.243   2.556   2.797 -0.6669  1.2617  0.3232
 2401TIP3   OH2 7208   0.302   2.807   0.215 -0.0545  0.2742 -0.2775
 2401TIP3    H1 7209   0.330   2.891   0.177  0.9641 -0.1877 -0.5739
 2401TIP3    H2 7210   0.300   2.747   0.140  1.6320 -0.5607  0.3235
 2402TIP3   OH2 7211   2.564   5.711   4.480  0.2819  0.5832 -0.4100
 2402TIP3    H1 7212   2.500   5.680   4.416  0.3243  1.3877 -0.8473
 2402TIP3    H2 7213   2.543   5.663   4.560 -1.8051  1.9163 -0.1312
 2403TIP3   OH2 7214   1.544   3.192   2.752  0.2263  0.6750  0.1126
 2403TIP3    H1 7215   1.616   3.139   2.786  0.6939 -0.2865 -2.3488
 2403TIP3    H2 7216   1.560   3.198   2.658 -3.0568  0.1990 -0.5327
 2404TIP3   OH2 7217   1.522   4.633   4.505  0.2178 -0.0585 -0.3585
 2404TIP3    H1 7218   1.534   4.728   4.511  0.5987 -0.1756  0.8251
 2404TIP3    H2 7219   1.606   4.600   4.472 -0.1252  0.0627 -1.3920
 2405TIP3   OH2 7220   2.170   0.518   4.875  0.6320 -0.5942 -0.3145
 2405TIP3    H1 7221   2.163   0.552   4.785  2.7098 -1.5872 -0.8734
 2405TIP3    H2 7222   2.216   0.587   4.923 -0.7856  0.0861  0.0880
 2406TIP3   OH2 7223   6.226   2.812   2.774 -0.6021  0.0433  0.0942
 2406TIP3    H1 7224   6.180   2.796   2.692  0.1439 -0.3418 -0.2609
 2406TIP3    H2 7225   6.251   2.904   2.771 -0.1582 -0.0885 -0.3379
 2407TIP3   OH2 7226   0.321   4.523   0.711  0.4199  0.5334 -0.5574
 2407TIP3    H1 7227   0.378   4.593   0.744 -0.5070  0.3425  1.5225
 2407TIP3    H2 7228   0.367   4.442   0.735  1.2918  0.3856 -2.6005
 2408TIP3   OH2 7229   5.715   3.496   0.964  0.0755  0.9786 -0.2538
 2408TIP3    H1 7230   5.752   3.577   1.000 -2.1597  1.4775  0.9837
 2408TIP3    H2 7231   5.669   3.525   0.885 -3.1398  1.4452  1.6926
 2409TIP3   OH2 7232   5.919   3.343   1.108  0.2434 -0.3534  0.5592
 2409TIP3    H1 7233   5.909   3.250   1.090 -2.5821 -0.1529  0.8693
 2409TIP3    H2 7234   5.838   3.383   1.074 -0.1270  1.5244  3.4924
 2410TIP3   OH2 7235   5.414   4.830   1.358 -0.4873 -0.0486 -0.8684
 2410TIP3    H1 7236   5.494   4.878   1.380  0.0468 -1.7342  1.0157
 2410TIP3    H2 7237   5.343   4.892   1.374  0.4480  1.6798 -3.1986
 2411TIP3   OH2 7238   6.354   4.172   2.957 -0.0524  0.4201 -0.4286
 2411TIP3    H1 7239   6.345   4.077   2.946  0.0904  0.1623  1.4935
 2411TIP3    H2 7240   6.312   4.209   2.879  1.4254 -1.2510 -2.0522
 2412TIP3   OH2 7241   6.053   1.573   0.419 -0.1571  0.6348  0.2680
 2412TIP3    H1 7242   6.051   1.525   0.337  2.7147 -1.2119  1.1767
 2412TIP3    H2 7243   6.006   1.518   0.481  0.5947  0.3979  0.6334
 2413TIP3   OH2 7244   5.586   1.476   2.265  0.1802 -0.3443  0.3116
 2413TIP3    H1 7245   5.616   1.397   2.222  0.3005 -0.7774  1.1799
 2413TIP3    H2 7246   5.496   1.487   2.236  0.8876  0.4887 -1.6354
 2414TIP3   OH2 7247   5.028   0.226   2.056 -0.6601 -0.8405 -0.0278
 2414TIP3    H1 7248   4.961   0.282   2.096 -0.5710 -0.4964 -0.3658
 2414TIP3    H2 7249   5.001   0.217   1.965  0.3060  0.1257 -0.4149
 2415TIP3   OH2 7250   4.091   3.128   1.656  0.0078  0.0148 -0.5775
 2415TIP3    H1 7251   4.134   3.213   1.658  0.8348 -0.4276  1.0070
 2415TIP3    H2 7252   4.004   3.146   1.620  0.5601  1.3409 -1.2840
 2416TIP3   OH2 7253   4.637   4.669   2.638  0.0116  0.0572 -0.0468
 2416TIP3    H1 7254   4.672   4.644   2.723  0.7390  0.7198 -0.1434
 2416TIP3    H2 7255   4.665   4.600   2.578 -0.9240 -0.6663  0.3398
 2417TIP3   OH2 7256   4.292   3.348   1.207 -0.0507  0.1986 -0.3845
 2417TIP3    H1 7257   4.215   3.397   1.177 -0.6411  0.2675  1.2027
 2417TIP3    H2 7258   4.303   3.279   1.141 -3.2045 -1.5567  0.8415
 2418TIP3   OH2 7259   5.999   3.425   3.243 -0.7817  0.3919  0.3888
 2418TIP3    H1 7260   5.959   3.484   3.307 -0.6779  0.0079  0.8000
 2418TIP3    H2 7261   6.055   3.482   3.190 -2.0990  1.0055 -0.3977
 2419TIP3   OH2 7262   0.689   5.286   5.181 -0.6457 -0.2791 -0.1779
 2419TIP3    H1 7263   0.632   5.289   5.257 -0.9662  0.3860 -0.4390
 2419TIP3    H2 7264   0.632   5.308   5.107 -0.4194 -1.2668 -0.6630
 2420TIP3   OH2 7265   3.979   5.979   1.007 -0.2202 -0.5153  0.0041
 2420TIP3    H1 7266   4.038   6.050   0.983  0.6946 -1.0069  0.7476
 2420TIP3    H2 7267   3.980   5.978   1.103 -1.0331 -0.8630  0.0120
 2421TIP3   OH2 7268   6.011   2.148   0.038  0.4445 -0.3448 -0.4824
 2421TIP3    H1 7269   6.085   2.119   0.090  0.5846  1.2622  0.2341
 2421TIP3    H2 7270   6.006   2.242   0.053 -1.4906 -0.3619 -0.8286
 2422TIP3   OH2 7271   0.315   3.725   2.488 -0.1287 -0.1520  0.1261
 2422TIP3    H1 7272   0.314   3.810   2.444 -0.2908 -0.0073  0.4051
 2422TIP3    H2 7273   0.321   3.661   2.417 -2.5546 -0.0252 -0.2615
 2423TIP3   OH2 7274   0.258   1.341   0.327  0.3243 -0.0719  0.2859
 2423TIP3    H1 7275   0.282   1.249   0.320 -2.0941 -0.7279  0.3471
 2423TIP3    H2 7276   0.171   1.347   0.287 -0.7690  1.6237  2.7777
 2424TIP3   OH2 7277   5.006   1.156   1.194  0.1418  0.2968  0.1375
 2424TIP3    H1 7278   4.920   1.123   1.221 -0.0367  0.6540  0.0197
 2424TIP3    H2 7279   5.041   1.198   1.272 -0.0279  0.6277  0.0377
 2425TIP3   OH2 7280   2.213   0.267   4.795 -0.1673  0.3408  0.7619
 2425TIP3    H1 7281   2.292   0.283   4.744 -1.4136  0.8217 -1.0900
 2425TIP3    H2 7282   2.188   0.354   4.828 -0.6492  0.4128  0.2206
 2426TIP3   OH2 7283   5.294   1.329   2.358  0.1832 -0.3319  0.0055
 2426TIP3    H1 7284   5.308   1.369   2.272  0.4808  0.7622  0.5527
 2426TIP3    H2 7285   5.326   1.240   2.348  1.5001  0.2006 -0.6310
 2427TIP3   OH2 7286   5.910   4.222   1.043 -0.1496 -0.0433  0.0456
 2427TIP3    H1 7287   5.905   4.231   1.139 -0.9666 -0.2925  0.0283
 2427TIP3    H2 7288   5.999   4.249   1.022 -0.5956  2.0592  0.6650
 2428TIP3   OH2 7289   0.392   1.973   2.766  0.1669 -0.4977  0.1077
 2428TIP3    H1 7290   0.378   2.009   2.854  0.4175 -0.1771  0.0173
 2428TIP3    H2 7291   0.425   2.046   2.715  0.8048 -0.8892 -0.0438
 2429TIP3   OH2 7292   0.039   4.299   2.307  0.5560 -0.2016 -0.6573
 2429TIP3    H1 7293  -0.004   4.369   2.258 -1.8826 -1.9708 -1.1665
 2429TIP3    H2 7294   0.090   4.252   2.241 -2.0255 -2.0459 -1.4570
 2430TIP3   OH2 7295   6.114   2.681   0.747 -0.3713  0.1295 -0.1058
 2430TIP3    H1 7296   6.102   2.769   0.781 -0.3005 -0.0482  0.3842
 2430TIP3    H2 7297   6.195   2.686   0.695  1.3996 -0.4010  2.5342
 2431TIP3   OH2 7298   3.769   3.734   2.493 -0.6267  0.0038 -0.7099
 2431TIP3    H1 7299   3.702   3.729   2.424 -1.1403  2.5487 -0.4340
 2431TIP3    H2 7300   3.803   3.823   2.488  1.4785 -0.7052  0.3668
 2432TIP3   OH2 7301   5.258   5.190   4.497  0.1640 -0.1071  0.3601
 2432TIP3    H1 7302   5.295   5.278   4.503 -0.9001  0.2934  1.1778
 2432TIP3    H2 7303   5.330   5.132   4.519  0.8747  0.5531 -0.1838
 2433TIP3   OH2 7304   5.385   3.606   3.537  0.0883  0.0815 -0.1308
 2433TIP3    H1 7305   5.432   3.542   3.485  2.5663  0.3178  1.7323
 2433TIP3    H2 7306   5.338   3.554   3.602  0.2999  0.0195 -0.0265
 2434TIP3   OH2 7307   4.412   3.862   2.122  0.5745  0.3983 -0.1149
 2434TIP3    H1 7308   4.388   3.905   2.204  1.8905  1.6705 -0.3752
 2434TIP3    H2 7309   4.473   3.923   2.080  0.6964 -0.7033 -1.5613
 2435TIP3   OH2 7310   0.514   0.953   1.266  0.0408  0.7092  0.7651
 2435TIP3    H1 7311   0.461   0.923   1.340  0.9048  0.3331  1.2336
 2435TIP3    H2 7312   0.576   0.882   1.250  0.3354  1.1023  0.1567
 2436TIP3   OH2 7313   5.340   2.764   1.447  1.1689  0.0479  0.3597
 2436TIP3    H1 7314   5.416   2.820   1.465  1.3537  0.5560 -1.7594
 2436TIP3    H2 7315   5.264   2.820   1.463  1.3371  0.6574 -0.8914
 2437TIP3   OH2 7316   6.142   5.262   0.755 -0.3342 -0.0711  0.1081
 2437TIP3    H1 7317   6.208   5.256   0.686 -0.8617  0.2832 -0.4303
 2437TIP3    H2 7318   6.155   5.182   0.807  0.1601 -0.2680 -0.3075
 2438TIP3   OH2 7319   6.366   3.202   2.576 -0.1108  0.4964 -0.2025
 2438TIP3    H1 7320   6.293   3.263   2.581 -2.3639 -2.0929 -0.6378
 2438TIP3    H2 7321   6.389   3.200   2.483 -1.0670 -0.5092 -0.4149
 2439TIP3   OH2 7322   5.214   4.454   0.802 -0.6293  0.2487 -0.1334
 2439TIP3    H1 7323   5.132   4.491   0.771  0.1121  1.3179 -0.8544
 2439TIP3    H2 7324   5.277   4.473   0.733  0.3886  0.0911  0.7268
 2440TIP3   OH2 7325   6.048   2.954   1.594  0.0157 -0.3020  0.3771
 2440TIP3    H1 7326   6.118   2.948   1.659  0.0528  0.0899  0.3703
 2440TIP3    H2 7327   6.055   2.873   1.544 -0.5444 -0.9952  1.3974
 2441TIP3   OH2 7328   2.016   0.960   0.468  0.2457  0.5348 -0.3274
 2441TIP3    H1 7329   1.929   0.920   0.472  0.6044 -0.1194  1.4532
 2441TIP3    H2 7330   2.021   0.997   0.380 -1.0482 -1.1727 -1.1565
 2442TIP3   OH2 7331   0.287   3.147   0.593  0.3236  0.4845  0.1368
 2442TIP3    H1 7332   0.355   3.154   0.526  0.8932  0.0517  0.6600
 2442TIP3    H2 7333   0.261   3.055   0.592  0.7528  0.3503  0.9092
 2443TIP3   OH2 7334   6.257   2.618   3.384 -0.4176  0.2842 -0.2951
 2443TIP3    H1 7335   6.259   2.585   3.474  2.2496 -0.5364 -0.6261
 2443TIP3    H2 7336   6.262   2.540   3.329  1.0248  0.9252 -1.1112
 2444TIP3   OH2 7337   4.559   3.727   0.546 -0.2101  0.2553 -0.0748
 2444TIP3    H1 7338   4.483   3.718   0.488 -0.6476  0.8149  0.4078
 2444TIP3    H2 7339   4.632   3.742   0.486 -0.5568  0.2087 -0.5153
 2445TIP3   OH2 7340   4.462   3.636   3.444  0.0366  0.7029 -0.1565
 2445TIP3    H1 7341   4.396   3.598   3.386 -0.6869  0.9888  0.4670
 2445TIP3    H2 7342   4.526   3.675   3.386  1.0934 -1.9566 -0.8390
 2446TIP3   OH2 7343   4.778   0.532   1.560  0.0601  0.1341 -0.1452
 2446TIP3    H1 7344   4.736   0.447   1.548  1.5775 -0.4542 -1.3608
 2446TIP3    H2 7345   4.711   0.595   1.533 -0.2734 -0.7586 -1.4802
 2447TIP3   OH2 7346   5.083   2.852   2.797  0.1688 -0.0066 -0.0645
 2447TIP3    H1 7347   5.080   2.939   2.838 -3.1719  0.5624 -1.3341
 2447TIP3    H2 7348   5.084   2.870   2.703 -0.0104 -1.3494 -0.3324
 2448TIP3   OH2 7349   5.598   2.588   2.237 -0.1592  0.6155  0.3492
 2448TIP3    H1 7350   5.597   2.539   2.154 -2.1780  0.4373  0.4480
 2448TIP3    H2 7351   5.624   2.523   2.302  4.5086  1.4719 -0.5054
 2449TIP3   OH2 7352   4.326   5.349   2.277  0.1722  0.5582 -0.3333
 2449TIP3    H1 7353   4.300   5.381   2.363  1.1629 -0.3529  0.3234
 2449TIP3    H2 7354   4.333   5.427   2.222  0.1579  1.2052  0.5863
 2450TIP3   OH2 7355   4.888   1.006   4.108  0.4869  0.3618  0.4908
 2450TIP3    H1 7356   4.906   1.056   4.028  0.1259  2.1839  1.5105
 2450TIP3    H2 7357   4.811   1.049   4.146 -0.1691 -1.3444  1.1054
 2451TIP3   OH2 7358   0.214   4.885   4.640 -0.1734 -0.0085 -0.1771
 2451TIP3    H1 7359   0.232   4.909   4.731 -1.3954 -0.4990  0.2093
 2451TIP3    H2 7360   0.298   4.858   4.605 -0.1094 -2.2593  1.5566
 2452TIP3   OH2 7361   1.116   5.156   4.814  0.0396  0.5542 -0.6984
 2452TIP3    H1 7362   1.178   5.148   4.742  2.3108 -0.7899  1.3564
 2452TIP3    H2 7363   1.037   5.192   4.773  0.7585 -1.5263 -4.1160
 2453TIP3   OH2 7364   3.993   3.805   1.561 -0.1211 -0.2554 -0.0844
 2453TIP3    H1 7365   3.899   3.811   1.575 -0.0526  0.4906  0.1013
 2453TIP3    H2 7366   4.031   3.857   1.633  0.2943  2.5254 -2.2152
 2454TIP3   OH2 7367   6.081   1.399   2.106 -0.4166 -0.4696 -0.1083
 2454TIP3    H1 7368   6.116   1.393   2.017 -0.8291 -0.0010 -0.2990
 2454TIP3    H2 7369   6.024   1.323   2.115  0.4891 -1.1362  0.1387
 2455TIP3   OH2 7370  -0.017   2.288   0.215  0.3626  0.1092 -0.1088
 2455TIP3    H1 7371   0.016   2.328   0.295  0.7979 -0.1503 -0.1595
 2455TIP3    H2 7372   0.029   2.205   0.208  0.9387  0.5058 -1.0699
 2456TIP3   OH2 7373   0.224   1.783   1.708 -0.7511 -0.1167 -0.4033
 2456TIP3    H1 7374   0.313   1.753   1.730 -0.4262  1.3036  0.2409
 2456TIP3    H2 7375   0.222   1.875   1.733 -2.8792 -0.4903  0.9702
 2457TIP3   OH2 7376   1.560   6.095   1.871  0.2234  0.1168 -0.4521
 2457TIP3    H1 7377   1.522   6.076   1.785  1.7355 -0.1303 -1.0894
 2457TIP3    H2 7378   1.586   6.009   1.904  1.3647  0.4011 -0.5893
 2458TIP3   OH2 7379   5.684   1.090   1.429 -0.8043 -0.0828  0.0219
 2458TIP3    H1 7380   5.652   1.116   1.343 -1.7959  0.5945  0.5951
 2458TIP3    H2 7381   5.708   1.172   1.472  1.0093 -0.5145 -0.1117
 2459TIP3   OH2 7382   4.837   2.907   2.557 -0.3227 -0.4203  0.3127
 2459TIP3    H1 7383   4.761   2.940   2.508  0.3711  1.0494  0.1976
 2459TIP3    H2 7384   4.841   2.962   2.635  1.8324  0.9360 -0.6831
 2460TIP3   OH2 7385   4.992   3.291   4.472  0.6985  0.0588  0.0631
 2460TIP3    H1 7386   4.923   3.325   4.529  0.3061  1.1964 -1.0615
 2460TIP3    H2 7387   5.063   3.355   4.478 -0.4139  1.6943 -2.7910
 2461TIP3   OH2 7388   1.516   3.111   1.904 -0.9290  0.1265 -0.2344
 2461TIP3    H1 7389   1.541   3.059   1.980 -0.7073  0.6405  0.0520
 2461TIP3    H2 7390   1.424   3.090   1.889 -1.5783  1.6076  1.4870
 2462TIP3   OH2 7391   5.740   4.006   1.003 -0.2133  0.5398 -0.4344
 2462TIP3    H1 7392   5.813   4.067   1.015  0.0850  0.3795 -1.3576
 2462TIP3    H2 7393   5.662   4.057   1.023 -0.0768  1.6923 -2.7389
 2463TIP3   OH2 7394   5.381   4.154   1.865 -0.0045 -0.4865  0.0461
 2463TIP3    H1 7395   5.443   4.081   1.865 -1.1106 -1.4575  0.0513
 2463TIP3    H2 7396   5.368   4.175   1.957  1.0059  0.3176  0.0020
 2464TIP3   OH2 7397   5.821   0.852   2.682 -0.2429 -0.0593 -0.3839
 2464TIP3    H1 7398   5.869   0.839   2.764  1.1057 -0.6462 -1.2522
 2464TIP3    H2 7399   5.888   0.879   2.619 -1.2151  0.0816 -1.3633
 2465TIP3   OH2 7400   2.491   3.683   4.922 -0.2434  0.4278 -0.2181
 2465TIP3    H1 7401   2.477   3.591   4.947  1.3216  0.0118 -0.8211
 2465TIP3    H2 7402   2.412   3.728   4.953 -2.1203 -1.5041 -2.0054
 2466TIP3   OH2 7403   4.251   4.133   1.549 -0.5184  0.2101  0.2057
 2466TIP3    H1 7404   4.243   4.048   1.507  0.1618  0.4834 -0.4913
 2466TIP3    H2 7405   4.270   4.113   1.641  0.7092 -0.3980 -0.1640
 2467TIP3   OH2 7406   6.140   3.170   0.858  0.4997  0.1925  0.1421
 2467TIP3    H1 7407   6.192   3.211   0.927 -0.1526 -0.6165  1.1454
 2467TIP3    H2 7408   6.105   3.243   0.807 -0.5519  0.9063  1.8298
 2468TIP3   OH2 7409   5.993   4.306   3.538  0.0250  0.2613  0.4675
 2468TIP3    H1 7410   6.011   4.391   3.577  1.4085  0.0486  0.2958
 2468TIP3    H2 7411   5.902   4.312   3.510  0.2301  1.8217  0.0981
 2469TIP3   OH2 7412   1.673   6.025   5.119 -0.9267 -0.1957  0.4053
 2469TIP3    H1 7413   1.596   5.971   5.100 -0.4073 -1.0858  0.7468
 2469TIP3    H2 7414   1.730   5.967   5.169  0.8598 -0.2305 -1.5793
 2470TIP3   OH2 7415   0.049   3.645   3.824 -0.2926 -0.3241 -0.5502
 2470TIP3    H1 7416  -0.012   3.681   3.759  0.5321 -1.8128 -2.1708
 2470TIP3    H2 7417   0.134   3.684   3.801  0.2396 -1.8084 -1.1638
 2471TIP3   OH2 7418   4.231   2.687   3.067 -0.0088 -0.2560  0.1130
 2471TIP3    H1 7419   4.279   2.693   3.150  1.2871  1.8775 -0.7569
 2471TIP3    H2 7420   4.139   2.696   3.092  0.5252  3.2069  1.1230
 2472TIP3   OH2 7421   0.377   2.138   2.207 -0.4667 -0.6802 -0.1571
 2472TIP3    H1 7422   0.412   2.112   2.292  0.8468  1.6388  0.0499
 2472TIP3    H2 7423   0.294   2.091   2.200 -0.2060 -1.5315  2.0268
 2473TIP3   OH2 7424   0.245   2.416   2.779  0.1155  0.0239  0.1512
 2473TIP3    H1 7425   0.320   2.460   2.739  0.6085 -1.2573 -0.3265
 2473TIP3    H2 7426   0.170   2.447   2.728  0.2710  1.5155  0.7998
 2474TIP3   OH2 7427   5.756   3.093   3.072  0.2856  0.6215  0.2425
 2474TIP3    H1 7428   5.829   3.061   3.125  1.0657  0.4769 -0.8943
 2474TIP3    H2 7429   5.776   3.185   3.058  1.9315 -0.1277 -2.7233
 2475TIP3   OH2 7430   6.294   0.573   1.974 -0.1029 -0.1010 -0.1225
 2475TIP3    H1 7431   6.356   0.502   1.957  0.7127  1.2551 -3.2959
 2475TIP3    H2 7432   6.349   0.652   1.974 -1.3118  0.7526  1.0371
 2476TIP3   OH2 7433   0.241   3.464   1.505  0.5918  0.1494 -0.1555
 2476TIP3    H1 7434   0.251   3.388   1.563 -1.9498  0.0910  0.2823
 2476TIP3    H2 7435   0.292   3.533   1.546 -0.9116  0.0146  2.0064
 2477TIP3   OH2 7436   5.659   3.707   2.938  0.2493 -0.2473  0.1166
 2477TIP3    H1 7437   5.699   3.680   2.855 -2.2510 -0.8488 -0.9636
 2477TIP3    H2 7438   5.689   3.797   2.951  1.6672 -0.5668 -0.7821
 2478TIP3   OH2 7439   5.469   2.116   3.089 -0.7670 -0.0048 -0.0746
 2478TIP3    H1 7440   5.373   2.116   3.086 -0.7986 -2.4008  0.1583
 2478TIP3    H2 7441   5.496   2.080   3.005 -0.1494 -1.5284  0.7467
 2479TIP3   OH2 7442   5.268   2.377   2.861 -0.4123  0.4673  0.4019
 2479TIP3    H1 7443   5.220   2.343   2.786  0.5719  1.0772 -0.5261
 2479TIP3    H2 7444   5.231   2.332   2.937 -2.3166  0.8038 -0.3119
 2480TIP3   OH2 7445   4.681   3.767   1.537 -0.4590  0.0049  0.2355
 2480TIP3    H1 7446   4.720   3.788   1.622 -0.1795 -0.5201  0.2366
 2480TIP3    H2 7447   4.756   3.753   1.479 -0.6496  0.3766 -0.1056
 2481TIP3   OH2 7448   4.202   3.524   0.514 -0.1601 -0.6713  0.2918
 2481TIP3    H1 7449   4.228   3.433   0.526  0.4357 -0.5819 -0.3106
 2481TIP3    H2 7450   4.253   3.554   0.438  0.0634  0.3230  0.8294
 2482TIP3   OH2 7451   3.618   4.574   1.894  0.4707  0.2299  0.2592
 2482TIP3    H1 7452   3.544   4.522   1.864  1.3540  0.9078 -3.4767
 2482TIP3    H2 7453   3.685   4.510   1.919  0.6676 -0.4994 -1.9775
 2483TIP3   OH2 7454   1.475   3.784   4.273 -0.2017  0.1229  0.1755
 2483TIP3    H1 7455   1.435   3.853   4.326  2.5396  1.6303  0.3751
 2483TIP3    H2 7456   1.567   3.809   4.266 -0.2115 -0.6473 -4.3269
 2484TIP3   OH2 7457   4.338   3.952   2.356 -0.2540 -0.2681 -0.0570
 2484TIP3    H1 7458   4.246   3.977   2.345 -0.4333 -1.5099 -1.4597
 2484TIP3    H2 7459   4.376   4.022   2.409 -1.7467  0.8046 -0.3966
 2485TIP3   OH2 7460   5.354   4.777   1.081 -0.5051  0.0852  0.1066
 2485TIP3    H1 7461   5.323   4.688   1.068 -1.3804  0.1804  1.4530
 2485TIP3    H2 7462   5.359   4.788   1.176  1.1837  0.9319 -0.0502
 2486TIP3   OH2 7463   3.979   2.248   1.693 -0.0702  0.0991 -0.6583
 2486TIP3    H1 7464   3.915   2.251   1.765  2.3437 -0.9442  1.6305
 2486TIP3    H2 7465   3.943   2.184   1.631 -1.3681 -0.2927  0.4774
 2487TIP3   OH2 7466   4.531   3.546   3.102  0.1754  0.8122 -0.0425
 2487TIP3    H1 7467   4.458   3.570   3.159 -0.2589  0.4016 -0.4221
 2487TIP3    H2 7468   4.608   3.586   3.143 -0.3344  1.6577  0.0932
 2488TIP3   OH2 7469   0.063   2.194   1.176 -1.2159  0.6101  0.0258
 2488TIP3    H1 7470   0.092   2.151   1.096 -1.5420  1.5062 -0.5861
 2488TIP3    H2 7471   0.006   2.264   1.146 -1.0251  1.2057  1.0254
 2489TIP3   OH2 7472   4.483   1.142   1.977 -0.1253  0.0526  0.1888
 2489TIP3    H1 7473   4.468   1.048   1.989 -0.7732  0.0570 -0.5439
 2489TIP3    H2 7474   4.480   1.178   2.066  0.9751 -0.7339  0.5530
 2490TIP3   OH2 7475   5.342   3.519   1.862  0.2802 -0.2387  0.5764
 2490TIP3    H1 7476   5.269   3.494   1.918 -0.9517  1.1195 -0.3888
 2490TIP3    H2 7477   5.414   3.539   1.923 -0.2703 -1.1610  1.5426
 2491TIP3   OH2 7478   4.168   5.129   3.654  0.3626  0.2672 -0.1512
 2491TIP3    H1 7479   4.107   5.116   3.581  1.3874 -0.3697 -0.8937
 2491TIP3    H2 7480   4.175   5.224   3.663 -2.2856  0.4033  1.2405
 2492TIP3   OH2 7481   5.048   5.394   2.883  0.0351  0.2758  0.2629
 2492TIP3    H1 7482   5.120   5.365   2.940 -1.6751 -1.1769  1.7391
 2492TIP3    H2 7483   4.986   5.436   2.942 -0.2378  1.7728 -1.0493
 2493TIP3   OH2 7484   4.419   4.448   3.589 -0.0318 -0.5739 -0.2293
 2493TIP3    H1 7485   4.386   4.506   3.520 -0.6094 -1.4095 -0.6675
 2493TIP3    H2 7486   4.344   4.393   3.611  1.0896 -2.6243 -1.3536
 2494TIP3   OH2 7487   6.217   2.590   1.551  0.3094  0.3080 -0.7283
 2494TIP3    H1 7488   6.238   2.511   1.501  0.2321 -0.6073  0.6244
 2494TIP3    H2 7489   6.140   2.565   1.603  0.6685  1.0558  0.1822
 2495TIP3   OH2 7490   6.169   4.719   3.195 -0.8219 -0.4092  0.1027
 2495TIP3    H1 7491   6.232   4.711   3.123  1.2334  0.4893  1.7473
 2495TIP3    H2 7492   6.114   4.641   3.187  0.3189 -1.0858 -1.5310
 2496TIP3   OH2 7493   1.052   3.663   4.625  0.2372  0.1938 -0.0170
 2496TIP3    H1 7494   1.102   3.734   4.666 -1.3212  0.7310  1.0013
 2496TIP3    H2 7495   1.038   3.692   4.535  0.6705  0.6052  0.0446
 2497TIP3   OH2 7496   5.145   5.590   2.390 -0.0546 -0.0003 -0.1219
 2497TIP3    H1 7497   5.208   5.648   2.433  0.0467 -0.2819  0.1092
 2497TIP3    H2 7498   5.105   5.541   2.462 -0.1901 -0.1682 -0.3131
 2498TIP3   OH2 7499   5.866   5.572   2.861  0.5568 -0.2743  0.1736
 2498TIP3    H1 7500   5.843   5.536   2.776  0.9443  2.1212 -0.9972
 2498TIP3    H2 7501   5.875   5.496   2.919 -0.6217 -1.8598 -1.6915
 2499TIP3   OH2 7502   4.052   3.965   3.193  0.1878 -0.4998 -0.3719
 2499TIP3    H1 7503   4.016   3.890   3.242 -1.3890  0.6563  0.2993
 2499TIP3    H2 7504   4.072   3.930   3.107  2.0105 -2.3379  0.7437
 2500TIP3   OH2 7505   2.888   3.825   0.356  0.0786  0.0333 -0.0600
 2500TIP3    H1 7506   2.941   3.770   0.300  0.2100  0.4873 -0.3809
 2500TIP3    H2 7507   2.918   3.805   0.445 -0.9466 -1.5627 -0.0546
 2501TIP3   OH2 7508   5.656   2.892   3.518  0.3325  0.0122 -0.6543
 2501TIP3    H1 7509   5.688   2.883   3.428  3.8869 -1.0466  0.6493
 2501TIP3    H2 7510   5.638   2.985   3.527 -1.8137 -0.1174 -2.9846
 2502TIP3   OH2 7511   4.165   1.641   3.125 -0.4023 -0.3858 -0.7956
 2502TIP3    H1 7512   4.078   1.680   3.122 -0.2619  0.1029  1.0031
 2502TIP3    H2 7513   4.151   1.553   3.161 -0.0635 -0.0390  0.1873
 2503TIP3   OH2 7514   5.177   1.208   3.103 -0.2389 -0.2464  0.0829
 2503TIP3    H1 7515   5.223   1.291   3.090 -0.5296 -0.3917 -2.0753
 2503TIP3    H2 7516   5.131   1.219   3.186  1.7227  0.8091  1.0715
 2504TIP3   OH2 7517   5.480   5.187   1.072 -0.6673  0.0657  0.2251
 2504TIP3    H1 7518   5.567   5.225   1.060 -0.8214  1.2641  2.5128
 2504TIP3    H2 7519   5.425   5.261   1.095 -2.2236 -0.7512 -0.8235
 2505TIP3   OH2 7520   1.955   2.772   4.862  0.1490 -0.2605  0.5524
 2505TIP3    H1 7521   1.960   2.759   4.956 -1.3839 -0.2593  0.6588
 2505TIP3    H2 7522   1.975   2.864   4.848  2.2106 -0.6651  0.6785
 2506TIP3   OH2 7523   5.839   4.347   0.562 -0.0217 -0.2967 -0.1696
 2506TIP3    H1 7524   5.776   4.276   0.546 -1.0915  0.4388  0.6867
 2506TIP3    H2 7525   5.824   4.372   0.653  0.3688  0.9909 -0.4511
 2507TIP3   OH2 7526   5.727   4.087   3.996 -0.0371  0.7956  0.0614
 2507TIP3    H1 7527   5.745   4.008   3.946  0.0477  1.1612 -0.4912
 2507TIP3    H2 7528   5.775   4.075   4.078 -0.1378  0.2168  0.0389
 2508TIP3   OH2 7529   5.649   4.106   2.324 -0.9645 -0.5592 -0.0300
 2508TIP3    H1 7530   5.734   4.071   2.296 -1.6634 -1.9097 -0.5102
 2508TIP3    H2 7531   5.665   4.199   2.339  0.8213 -0.9724  0.7753
 2509TIP3   OH2 7532   4.841   3.050   2.799 -0.0402 -0.4894 -0.2604
 2509TIP3    H1 7533   4.790   3.129   2.817  2.2407  1.1696 -0.9049
 2509TIP3    H2 7534   4.923   3.063   2.846  0.2282 -2.6509 -0.0918
 2510TIP3   OH2 7535   4.244   3.059   2.056  0.2710  0.3653 -0.3873
 2510TIP3    H1 7536   4.203   2.991   2.002  0.9770 -1.4578  1.2968
 2510TIP3    H2 7537   4.183   3.074   2.127  1.0930 -0.1124  0.4372
 2511TIP3   OH2 7538   6.267   4.173   2.164 -0.1183  0.0640 -0.5414
 2511TIP3    H1 7539   6.235   4.086   2.139  0.1075  0.3206 -1.7310
 2511TIP3    H2 7540   6.284   4.165   2.258  1.3408 -1.6266 -0.9181
 2512TIP3   OH2 7541   0.603   3.320   1.374 -0.4136 -0.2587  0.4264
 2512TIP3    H1 7542   0.557   3.336   1.292 -0.0759  0.6256  0.4020
 2512TIP3    H2 7543   0.577   3.393   1.430 -0.3092 -0.6297  0.9598
 2513TIP3   OH2 7544   0.205   5.047   1.430 -0.0481 -0.5548 -0.5283
 2513TIP3    H1 7545   0.190   5.097   1.350 -1.0216  0.6054  0.3667
 2513TIP3    H2 7546   0.118   5.023   1.461  0.3091 -0.8288  0.2848
 2514TIP3   OH2 7547   1.127   4.642   3.189 -0.3752  0.2359  0.7136
 2514TIP3    H1 7548   1.223   4.643   3.179 -0.4250 -0.0092  0.2135
 2514TIP3    H2 7549   1.102   4.734   3.186 -0.0456  0.3703  1.9053
 2515TIP3   OH2 7550   6.354   5.060   3.371  0.1709 -0.7555 -0.3211
 2515TIP3    H1 7551   6.443   5.093   3.358 -0.3197  0.6662 -0.2288
 2515TIP3    H2 7552   6.321   5.110   3.445 -1.6635  0.7732 -2.0873
 2516TIP3   OH2 7553   1.993   2.877   2.878 -0.1550  0.4194 -0.1509
 2516TIP3    H1 7554   1.988   2.930   2.957  0.2522  0.8412 -0.4026
 2516TIP3    H2 7555   1.931   2.806   2.892  0.5378  0.0131  0.9023
 2517TIP3   OH2 7556   0.100   4.412   2.598 -0.3198  0.4611  0.1086
 2517TIP3    H1 7557   0.038   4.479   2.570  0.1291  0.6231 -0.4998
 2517TIP3    H2 7558   0.131   4.372   2.516  1.7311  1.5829  0.3143
 2518TIP3   OH2 7559   1.544   4.253   2.187 -0.2864 -0.7465 -0.4051
 2518TIP3    H1 7560   1.549   4.169   2.141 -1.0316 -0.5381 -0.8679
 2518TIP3    H2 7561   1.624   4.299   2.160 -0.1216 -1.1116 -0.5449
 2519TIP3   OH2 7562   0.768   3.047   3.805  0.3661  0.5592  0.3939
 2519TIP3    H1 7563   0.767   3.064   3.711  1.5634 -0.4953  0.1786
 2519TIP3    H2 7564   0.717   2.966   3.815 -0.6198  1.2129  0.7821
 2520TIP3   OH2 7565   6.341   3.525   3.186  0.5433 -0.3352  0.0647
 2520TIP3    H1 7566   6.364   3.556   3.273  0.2599 -0.0950  0.0563
 2520TIP3    H2 7567   6.326   3.605   3.135  0.1124 -0.4761 -0.0368
 2521TIP3   OH2 7568   1.196   3.769   3.073  0.0812  0.3556 -0.3600
 2521TIP3    H1 7569   1.106   3.747   3.052  0.5394 -1.1389 -0.8088
 2521TIP3    H2 7570   1.189   3.848   3.128 -1.5148 -0.0753  0.0913
 2522TIP3   OH2 7571   6.301   1.128   2.042  0.1640  0.1950  0.1310
 2522TIP3    H1 7572   6.207   1.142   2.040  0.4834  2.3171 -2.1057
 2522TIP3    H2 7573   6.339   1.210   2.010  2.6433 -1.5995 -1.7589
 2523TIP3   OH2 7574   2.015   4.653   4.509 -0.1835 -0.5902  0.4560
 2523TIP3    H1 7575   2.110   4.665   4.506 -0.5179  2.0290 -1.6503
 2523TIP3    H2 7576   1.981   4.738   4.535 -1.9718 -1.5071  1.1752
 2524TIP3   OH2 7577   2.645   3.806   3.775  0.4392  0.9257 -0.1020
 2524TIP3    H1 7578   2.556   3.838   3.787  0.1705  0.7349 -1.4391
 2524TIP3    H2 7579   2.670   3.837   3.688  0.8023 -0.9889 -0.7205
 2525TIP3   OH2 7580   6.222   4.242   0.895  0.5774 -0.0476 -0.3426
 2525TIP3    H1 7581   6.234   4.238   0.989  0.4138  1.1002 -0.2578
 2525TIP3    H2 7582   6.168   4.321   0.881  1.2111  0.2096 -1.4404
 2526TIP3   OH2 7583   0.441   3.295   2.863 -0.1057 -0.0948  0.1757
 2526TIP3    H1 7584   0.472   3.338   2.943 -0.8436  0.2316  0.2927
 2526TIP3    H2 7585   0.357   3.337   2.845  0.8075  0.9886 -1.6814
 2527TIP3   OH2 7586   1.009   1.442   3.638 -0.1046 -0.1192  0.9071
 2527TIP3    H1 7587   1.072   1.497   3.591  0.3255 -0.7198  0.7773
 2527TIP3    H2 7588   1.054   1.418   3.719  0.5904 -2.1188 -0.0346
 2528TIP3   OH2 7589   0.714   4.828   3.862  0.1662 -0.3208 -0.7601
 2528TIP3    H1 7590   0.726   4.743   3.819  3.3439 -1.0771  1.3989
 2528TIP3    H2 7591   0.697   4.806   3.954  0.9125  1.3581 -0.2101
 2529TIP3   OH2 7592   2.134   3.287   1.964  0.3505  0.0042 -0.4051
 2529TIP3    H1 7593   2.103   3.365   1.919 -1.6628 -0.6521 -0.2207
 2529TIP3    H2 7594   2.147   3.315   2.055 -2.7857 -0.4243  0.2279
 2530TIP3   OH2 7595   5.450   3.408   3.353  0.4722 -0.5302  0.2298
 2530TIP3    H1 7596   5.506   3.474   3.311 -0.2890 -0.5032 -0.7572
 2530TIP3    H2 7597   5.484   3.324   3.321  0.4092 -0.5487  0.2119
 2531TIP3   OH2 7598   0.517   4.061   0.402 -0.7169 -0.3654  0.4546
 2531TIP3    H1 7599   0.499   3.968   0.412 -2.0096 -0.0320  1.3452
 2531TIP3    H2 7600   0.459   4.104   0.465 -1.1105  1.1315 -0.9045
 2532TIP3   OH2 7601   0.777   0.083   0.384 -0.0749  0.1678 -0.1621
 2532TIP3    H1 7602   0.686   0.054   0.376  0.0717  0.1351 -2.0226
 2532TIP3    H2 7603   0.819   0.017   0.438 -0.9738 -0.2444  0.0467
 2533TIP3   OH2 7604   6.465   4.460   2.945 -0.2210 -0.0752  0.2299
 2533TIP3    H1 7605   6.534   4.407   2.904 -2.7658 -1.0344 -3.0763
 2533TIP3    H2 7606   6.416   4.397   2.999  0.0312  0.0644  0.6173
 2534TIP3   OH2 7607   5.774   2.749   2.877 -0.1789 -0.5431 -0.0707
 2534TIP3    H1 7608   5.775   2.798   2.795 -1.1779 -0.6690 -0.1691
 2534TIP3    H2 7609   5.732   2.666   2.854  0.1964 -0.8719  0.4119
 2535TIP3   OH2 7610   0.633   2.644   2.334  0.1741  0.4513 -0.0664
 2535TIP3    H1 7611   0.635   2.548   2.332  0.4465  0.4426  0.5217
 2535TIP3    H2 7612   0.719   2.669   2.368 -0.2369  0.8760  0.6604
 2536TIP3   OH2 7613   0.335   3.573   2.252 -0.3138  0.0602  0.0019
 2536TIP3    H1 7614   0.303   3.625   2.178  1.2259  0.3355 -0.4790
 2536TIP3    H2 7615   0.328   3.482   2.222  0.6647  0.1865 -0.6485
 2537TIP3   OH2 7616   6.051   3.644   4.719  0.4692 -0.2708  0.7560
 2537TIP3    H1 7617   6.127   3.702   4.728  0.8589 -0.6980  0.2890
 2537TIP3    H2 7618   6.021   3.659   4.629  1.9997 -2.4898 -0.1781
 2538TIP3   OH2 7619   2.786   0.685   4.994  0.3840 -0.0681  0.4928
 2538TIP3    H1 7620   2.798   0.761   5.050  1.3636  0.2684 -0.1646
 2538TIP3    H2 7621   2.874   0.651   4.979  0.0087 -0.9992  0.3188
 2539TIP3   OH2 7622   6.056   5.976   1.757  0.2826 -0.5513 -0.2511
 2539TIP3    H1 7623   6.016   5.890   1.749 -2.3699  0.6148 -0.0735
 2539TIP3    H2 7624   6.039   6.018   1.672 -1.1185  0.8591  0.6970
 2540TIP3   OH2 7625   4.874   0.087   3.365  0.0727 -0.1635  0.0157
 2540TIP3    H1 7626   4.873   0.129   3.279  0.7167 -2.0820 -0.9596
 2540TIP3    H2 7627   4.965   0.061   3.377 -0.3973 -1.6852  0.3748
 2541TIP3   OH2 7628   0.873   2.951   1.755 -0.3675 -0.7872  0.7310
 2541TIP3    H1 7629   0.932   2.880   1.779  1.5950  0.3372 -0.6350
 2541TIP3    H2 7630   0.827   2.919   1.677  1.1709 -0.2598 -0.4281
 2542TIP3   OH2 7631   1.065   5.013   4.365 -0.3376  0.0527  0.8598
 2542TIP3    H1 7632   0.986   5.067   4.365  0.2932  0.9768  0.5588
 2542TIP3    H2 7633   1.097   5.017   4.274 -0.5881 -1.2641  0.7064
 2543TIP3   OH2 7634   2.387   5.308   3.339 -0.5869  0.0911 -0.4124
 2543TIP3    H1 7635   2.372   5.245   3.410 -1.0278  1.4567  0.7261
 2543TIP3    H2 7636   2.301   5.348   3.325 -0.2886  0.4973 -1.0801
 2544TIP3   OH2 7637   2.681   5.267   0.929  0.0427 -0.3111  0.0934
 2544TIP3    H1 7638   2.622   5.331   0.968 -0.8043 -0.4454 -0.9648
 2544TIP3    H2 7639   2.646   5.182   0.955 -0.4712 -0.3991 -0.8687
 2545TIP3   OH2 7640   2.469   4.489   1.636  0.7235  0.0798 -0.0525
 2545TIP3    H1 7641   2.519   4.484   1.554 -0.5535  1.2698 -0.9406
 2545TIP3    H2 7642   2.502   4.567   1.680  0.2205  0.4113 -0.2571
 2546TIP3   OH2 7643   1.272   3.396   0.942  0.0384 -0.2600 -0.9721
 2546TIP3    H1 7644   1.198   3.347   0.977 -1.2686  0.7840 -2.2210
 2546TIP3    H2 7645   1.302   3.450   1.015 -0.9973 -0.0304 -0.7147
 2547TIP3   OH2 7646   3.572   0.223   3.033 -0.3102 -0.1189  1.2877
 2547TIP3    H1 7647   3.581   0.214   3.128 -0.7597  1.2575  1.4728
 2547TIP3    H2 7648   3.481   0.197   3.016 -0.0062 -1.1005  1.1284
 2548TIP3   OH2 7649   2.623   2.903   1.120 -0.2331 -0.3911 -0.1676
 2548TIP3    H1 7650   2.556   2.847   1.158 -0.8587 -0.1425 -0.8811
 2548TIP3    H2 7651   2.657   2.953   1.194 -1.7779  0.4379  0.0063
 2549TIP3   OH2 7652   0.584   3.910   1.552 -0.1573 -0.1118 -0.0217
 2549TIP3    H1 7653   0.525   3.981   1.580  1.6639  0.7988  1.6056
 2549TIP3    H2 7654   0.603   3.862   1.632  0.1059 -1.3257 -0.8077
 2550TIP3   OH2 7655   1.984   4.219   2.536  0.7871  0.0235  0.4291
 2550TIP3    H1 7656   2.034   4.138   2.539  0.6622 -0.0801 -0.1736
 2550TIP3    H2 7657   2.049   4.287   2.518  0.2862 -0.5829 -4.6172
 2551TIP3   OH2 7658   2.571   4.301   0.734  0.2930  0.3603  0.3324
 2551TIP3    H1 7659   2.588   4.220   0.685  0.0889  0.8441 -0.5444
 2551TIP3    H2 7660   2.600   4.281   0.823  0.7553 -0.4963 -0.0005
 2552TIP3   OH2 7661   1.040   4.315   3.681  0.0056  0.8867  0.5866
 2552TIP3    H1 7662   1.118   4.269   3.649  0.3398  1.4915  0.5376
 2552TIP3    H2 7663   1.044   4.401   3.639  0.8230  1.9535  2.7712
 2553TIP3   OH2 7664   0.637   1.182   3.936 -0.0073 -0.2878  0.1913
 2553TIP3    H1 7665   0.621   1.103   3.988 -0.9860 -0.4661 -0.3601
 2553TIP3    H2 7666   0.591   1.252   3.983 -0.3601 -0.3286 -0.0888
 2554TIP3   OH2 7667   0.992   4.232   2.507 -0.4234 -0.3539 -0.1110
 2554TIP3    H1 7668   1.037   4.150   2.530 -0.7183 -0.3920  0.3254
 2554TIP3    H2 7669   1.056   4.300   2.530  1.1717 -0.5889 -3.5922
 2555TIP3   OH2 7670   0.719   2.124   2.148 -0.1299  0.0214 -0.2435
 2555TIP3    H1 7671   0.697   2.068   2.222 -0.0227 -1.4562 -1.2996
 2555TIP3    H2 7672   0.683   2.078   2.072  0.4250  1.1315 -1.1966
 2556TIP3   OH2 7673   5.563   3.166   1.981 -0.4192 -0.0949 -0.4294
 2556TIP3    H1 7674   5.557   3.141   2.074 -0.4592  0.3431 -0.3150
 2556TIP3    H2 7675   5.657   3.181   1.967 -0.3586 -0.6089 -0.5762
 2557TIP3   OH2 7676   0.892   2.347   2.091 -0.5637  0.1328 -0.3760
 2557TIP3    H1 7677   0.933   2.364   2.176  0.3911  0.4830 -0.8945
 2557TIP3    H2 7678   0.826   2.280   2.108  0.1466 -0.3396  0.4962
 2558TIP3   OH2 7679   1.412   5.312   3.196 -0.3017  0.7731 -0.3849
 2558TIP3    H1 7680   1.466   5.254   3.250  2.0920  1.1384 -2.2630
 2558TIP3    H2 7681   1.400   5.264   3.114  0.0678  2.0940 -1.2415
 2559TIP3   OH2 7682   0.146   1.126   4.345  0.5472 -0.1147  0.5275
 2559TIP3    H1 7683   0.144   1.180   4.266 -0.8362 -0.9709 -0.0397
 2559TIP3    H2 7684   0.240   1.118   4.366  0.8607  0.9856 -0.4110
 2560TIP3   OH2 7685   1.136   1.763   2.179 -0.1816 -0.3717  0.1736
 2560TIP3    H1 7686   1.049   1.754   2.219 -0.2246 -0.7743 -0.0030
 2560TIP3    H2 7687   1.129   1.715   2.096  0.4003 -0.9669  0.4593
 2561TIP3   OH2 7688   1.256   2.562   1.876  0.2785 -0.0919 -0.1686
 2561TIP3    H1 7689   1.245   2.597   1.964 -0.4249  1.4021 -0.8496
 2561TIP3    H2 7690   1.214   2.476   1.879  1.7680 -0.8013  1.4159
 2562TIP3   OH2 7691   0.766   4.011   1.770 -0.1364 -0.2013 -0.6977
 2562TIP3    H1 7692   0.782   3.926   1.810 -1.5277 -1.3800 -2.5215
 2562TIP3    H2 7693   0.691   4.047   1.817 -0.2511 -0.5003 -0.6527
 2563TIP3   OH2 7694   0.148   4.992   0.578 -0.0252 -0.0115 -0.1373
 2563TIP3    H1 7695   0.099   4.972   0.658 -0.0997  0.7043 -0.0024
 2563TIP3    H2 7696   0.200   4.913   0.561 -1.3034 -0.8352 -0.3462
 2564TIP3   OH2 7697   0.284   5.716   0.854 -0.5262 -0.7677  0.0036
 2564TIP3    H1 7698   0.353   5.770   0.891 -1.1572 -0.0033  0.0774
 2564TIP3    H2 7699   0.219   5.778   0.822 -0.9788 -1.4685 -0.4535
 2565TIP3   OH2 7700   0.651   2.443   1.853  0.0040  0.6328 -0.0114
 2565TIP3    H1 7701   0.560   2.452   1.827 -0.1016 -1.0236 -0.3061
 2565TIP3    H2 7702   0.646   2.407   1.942  0.3268 -2.0887 -1.0370
 2566TIP3   OH2 7703   6.374   3.960   1.672  0.0168  0.4351  0.1772
 2566TIP3    H1 7704   6.452   3.974   1.618 -0.0326 -2.4513 -0.7304
 2566TIP3    H2 7705   6.398   3.888   1.731 -1.2803  0.8846  1.2976
 2567TIP3   OH2 7706   5.463   3.922   4.113 -0.4006 -0.5079  0.1234
 2567TIP3    H1 7707   5.540   3.975   4.090 -0.5595 -0.2735  0.1319
 2567TIP3    H2 7708   5.392   3.960   4.062 -0.9262  0.5005  1.5822
 2568TIP3   OH2 7709   1.490   4.024   0.894 -0.2037  0.5896 -0.2598
 2568TIP3    H1 7710   1.495   3.970   0.815  0.8518  1.2802 -0.6834
 2568TIP3    H2 7711   1.471   4.112   0.862  3.1752  1.4683 -0.0304
 2569TIP3   OH2 7712   3.747   3.475   4.155  0.4089  0.2765 -0.2715
 2569TIP3    H1 7713   3.744   3.568   4.130  0.1666 -0.1208 -1.7717
 2569TIP3    H2 7714   3.656   3.452   4.171  0.5852  0.5776  1.1753
 2570TIP3   OH2 7715   5.966   3.832   3.703  0.5925  0.5650 -0.0362
 2570TIP3    H1 7716   5.983   3.751   3.750  0.0241  0.3341 -0.2311
 2570TIP3    H2 7717   5.877   3.822   3.668  0.8785  0.8816 -0.8575
 2571TIP3   OH2 7718   1.773   5.498   3.436 -0.4599  0.0711  0.0173
 2571TIP3    H1 7719   1.791   5.416   3.391  2.0314  0.8204 -0.3912
 2571TIP3    H2 7720   1.758   5.562   3.367  0.1971  0.5325  0.2984
 2572TIP3   OH2 7721   2.388   2.685   1.166 -0.0277  0.1384 -0.2376
 2572TIP3    H1 7722   2.310   2.632   1.152 -0.5707  1.0420 -0.6450
 2572TIP3    H2 7723   2.355   2.771   1.191  0.8187  0.8617 -1.5623
 2573TIP3   OH2 7724   1.282   5.392   2.889  0.0618  0.3041 -0.3192
 2573TIP3    H1 7725   1.269   5.452   2.815 -0.8144  0.1822 -0.2705
 2573TIP3    H2 7726   1.205   5.335   2.887 -0.2358  0.6604  1.0346
 2574TIP3   OH2 7727   0.242   4.164   0.433  0.0316  0.3705  0.6848
 2574TIP3    H1 7728   0.272   4.255   0.431  0.6541  0.1591 -2.5556
 2574TIP3    H2 7729   0.165   4.162   0.376  0.1594 -1.1763  0.5305
 2575TIP3   OH2 7730   5.118   4.149   2.532 -0.2812  0.3967  0.5618
 2575TIP3    H1 7731   5.061   4.225   2.548 -1.2766 -0.5755  1.7686
 2575TIP3    H2 7732   5.171   4.174   2.457 -1.4999  1.7903  0.1364
 2576TIP3   OH2 7733   1.749   3.466   3.143  0.1421  0.4286 -0.0415
 2576TIP3    H1 7734   1.834   3.508   3.130 -0.7628  2.0333 -0.9213
 2576TIP3    H2 7735   1.690   3.511   3.082 -0.7254 -2.5732 -1.5275
 2577TIP3   OH2 7736   6.383   5.761   0.999  0.3289 -0.3823 -0.2944
 2577TIP3    H1 7737   6.418   5.734   0.914 -0.2446  0.5117 -0.8168
 2577TIP3    H2 7738   6.376   5.679   1.049  0.5088 -0.9311 -1.1654
 2578TIP3   OH2 7739   5.803   5.726   1.556 -0.0895  0.3484  0.4254
 2578TIP3    H1 7740   5.886   5.750   1.598  0.5572 -1.2294  0.0442
 2578TIP3    H2 7741   5.824   5.652   1.500 -1.6258  0.3821 -0.2194
 2579TIP3   OH2 7742   3.633   2.872   3.743  0.5641 -0.2525  0.0210
 2579TIP3    H1 7743   3.552   2.837   3.780 -0.9616  0.7757 -2.2321
 2579TIP3    H2 7744   3.618   2.966   3.734  1.7948 -0.1198 -0.9159
 2580TIP3   OH2 7745   0.334   4.305   1.310  0.4695 -0.2863 -0.0048
 2580TIP3    H1 7746   0.303   4.240   1.374  0.6899  0.8451  1.2811
 2580TIP3    H2 7747   0.424   4.278   1.291  0.5734 -0.3591  0.5567
 2581TIP3   OH2 7748   6.308   4.602   0.262 -0.0322 -0.0336 -0.0475
 2581TIP3    H1 7749   6.229   4.604   0.316  1.0149 -1.1444  1.5795
 2581TIP3    H2 7750   6.328   4.509   0.251  2.0548  0.2413  1.1321
 2582TIP3   OH2 7751   1.432   5.008   3.506  0.1123 -0.0118 -0.3151
 2582TIP3    H1 7752   1.408   5.089   3.552  1.9853 -0.0978  0.8594
 2582TIP3    H2 7753   1.348   4.964   3.490 -0.7398  1.0453  1.1163
 2583TIP3   OH2 7754   0.408   4.395   3.582 -0.7759  0.8030  0.4994
 2583TIP3    H1 7755   0.344   4.441   3.637 -1.8269 -0.0776  0.0380
 2583TIP3    H2 7756   0.447   4.330   3.641 -0.2769  1.3784  0.7980
 2584TIP3   OH2 7757   6.169   5.501   3.985 -0.2437  0.1727  0.1166
 2584TIP3    H1 7758   6.191   5.593   3.999 -0.4218  0.0148  1.5663
 2584TIP3    H2 7759   6.073   5.500   3.985 -0.2452  0.0954 -0.7114
 2585TIP3   OH2 7760   1.555   1.512   2.072  0.1638  0.4256 -0.1485
 2585TIP3    H1 7761   1.597   1.518   1.986  0.8800  1.1534  0.2439
 2585TIP3    H2 7762   1.529   1.420   2.080 -0.6904  0.5263 -1.5033
 2586TIP3   OH2 7763   2.627   4.156   3.893 -0.1461 -0.4564 -0.0543
 2586TIP3    H1 7764   2.632   4.145   3.798  0.2838 -1.4414  0.0841
 2586TIP3    H2 7765   2.533   4.161   3.911 -0.2541 -0.9578 -0.4528
 2587TIP3   OH2 7766   1.824   1.194   1.597 -0.1588  0.0698  0.4665
 2587TIP3    H1 7767   1.898   1.251   1.619 -1.7291  2.2385  0.3113
 2587TIP3    H2 7768   1.796   1.225   1.511 -0.5641 -1.4855  0.0213
 2588TIP3   OH2 7769   0.638   5.608   1.645  0.3066  0.1516  0.2083
 2588TIP3    H1 7770   0.690   5.529   1.630 -0.9683 -1.3461  3.3221
 2588TIP3    H2 7771   0.564   5.600   1.585  1.4325  0.2258 -1.2239
 2589TIP3   OH2 7772   4.627   4.610   3.268 -0.4631 -0.5286  0.2245
 2589TIP3    H1 7773   4.544   4.603   3.315 -0.6704 -1.0601 -0.2225
 2589TIP3    H2 7774   4.675   4.678   3.315 -0.5913 -1.1885  1.3306
 2590TIP3   OH2 7775   5.123   2.861   2.519  0.2151 -0.2108 -0.3065
 2590TIP3    H1 7776   5.154   2.788   2.465 -0.3340 -0.7976  0.1586
 2590TIP3    H2 7777   5.028   2.860   2.508  0.3840  2.0731 -2.3458
 2591TIP3   OH2 7778   5.904   3.465   4.240 -0.5773 -0.0715 -0.1804
 2591TIP3    H1 7779   5.926   3.550   4.279  1.3062  0.2170 -1.7884
 2591TIP3    H2 7780   5.975   3.407   4.268 -1.5723 -0.9908  0.4637
 2592TIP3   OH2 7781   1.112   3.517   2.050  0.1153  0.1540 -0.3844
 2592TIP3    H1 7782   1.033   3.474   2.080  0.4031 -0.2243 -0.1683
 2592TIP3    H2 7783   1.081   3.590   1.997 -0.3671 -0.5781 -1.1177
 2593TIP3   OH2 7784   1.438   0.602   3.620 -0.1355 -0.3729  0.0694
 2593TIP3    H1 7785   1.439   0.561   3.534 -0.7042  0.1286 -0.1822
 2593TIP3    H2 7786   1.522   0.578   3.660  0.9355  0.9075 -1.3424
 2594TIP3   OH2 7787   5.523   4.430   1.044 -0.3506 -0.1127  0.2719
 2594TIP3    H1 7788   5.442   4.457   1.002 -1.0889 -1.5987  0.6994
 2594TIP3    H2 7789   5.518   4.334   1.046  1.0963 -0.1888  0.9309
 2595TIP3   OH2 7790   1.148   3.523   2.347 -0.0903  0.4485  0.1310
 2595TIP3    H1 7791   1.114   3.488   2.264 -0.0704  0.6106  0.0543
 2595TIP3    H2 7792   1.152   3.618   2.333 -1.0445  0.5761  0.6648
 2596TIP3   OH2 7793   5.889   2.627   0.986 -0.4447  0.2046 -0.4129
 2596TIP3    H1 7794   5.950   2.554   0.978  0.5121  1.1886 -2.2230
 2596TIP3    H2 7795   5.943   2.700   1.015 -1.1494  0.5574  0.0244
 2597TIP3   OH2 7796   5.880   0.089   2.448  0.1402 -0.2993  0.2073
 2597TIP3    H1 7797   5.828   0.013   2.420 -2.4099  0.9602  1.3256
 2597TIP3    H2 7798   5.839   0.164   2.404  1.3820  0.6772  0.6728
 2598TIP3   OH2 7799   0.103   2.750   4.479  0.4460  0.1672  0.0839
 2598TIP3    H1 7800   0.172   2.709   4.427  0.0813 -1.3392  0.7311
 2598TIP3    H2 7801   0.136   2.746   4.569  0.9158  2.4147  0.0312
 2599TIP3   OH2 7802   5.591   2.501   0.849  0.4777 -0.0022  0.0490
 2599TIP3    H1 7803   5.569   2.593   0.832  0.1866  0.3478  2.1677
 2599TIP3    H2 7804   5.676   2.489   0.807  0.8640  1.4482  0.3715
 2600TIP3   OH2 7805   5.763   4.794   2.948 -0.0669 -0.1961  0.2890
 2600TIP3    H1 7806   5.730   4.815   3.036  0.8675 -0.0058  0.5986
 2600TIP3    H2 7807   5.729   4.864   2.893 -0.4639 -0.1874  0.5433
 2601TIP3   OH2 7808   4.606   2.244   2.475 -0.7939  0.1016  0.2133
 2601TIP3    H1 7809   4.511   2.248   2.487 -0.6622  0.9202  1.0213
 2601TIP3    H2 7810   4.641   2.222   2.562 -0.2775 -0.7781 -0.2065
 2602TIP3   OH2 7811   0.937   0.204   4.641 -0.5314  0.0560  0.2806
 2602TIP3    H1 7812   0.984   0.123   4.622  0.1980  0.7091 -0.6733
 2602TIP3    H2 7813   0.864   0.176   4.697  0.5218 -1.0572  1.1178
 2603TIP3   OH2 7814   6.066   4.833   1.805 -0.0042  0.2545 -0.3620
 2603TIP3    H1 7815   6.066   4.912   1.858  0.3151  0.2770 -0.3901
 2603TIP3    H2 7816   5.976   4.801   1.809  0.3069 -0.4754  1.2908
 2604TIP3   OH2 7817   6.406   3.796   3.609  0.3007 -0.2151  0.5340
 2604TIP3    H1 7818   6.406   3.747   3.526  1.6208  0.0842  0.3528
 2604TIP3    H2 7819   6.327   3.851   3.603 -1.4302 -2.6003  0.9316
 2605TIP3   OH2 7820   1.131   1.523   2.662 -0.1905  0.0710 -0.0805
 2605TIP3    H1 7821   1.110   1.431   2.642  1.0959 -0.3481  0.4394
 2605TIP3    H2 7822   1.075   1.573   2.604  0.7396 -1.0845 -2.0283
 2606TIP3   OH2 7823   6.050   4.998   2.363  0.1950  0.2811 -0.0039
 2606TIP3    H1 7824   6.019   4.947   2.437  1.4044  0.6990  0.8164
 2606TIP3    H2 7825   6.001   4.965   2.288  1.5004 -2.6421  0.3525
 2607TIP3   OH2 7826   5.767   4.005   3.053 -0.4070  0.5331 -0.1943
 2607TIP3    H1 7827   5.804   4.038   3.134  0.3905  1.8018 -1.0655
 2607TIP3    H2 7828   5.843   3.985   2.998 -0.9604  2.1647 -1.5962
 2608TIP3   OH2 7829   5.404   2.902   2.518 -0.1396 -0.6683  0.8357
 2608TIP3    H1 7830   5.410   2.849   2.438 -1.8946  1.8357 -1.0549
 2608TIP3    H2 7831   5.312   2.894   2.545 -0.3585  1.1101  0.6863
 2609TIP3   OH2 7832   5.237   3.832   2.348 -0.4259  0.0798  0.2338
 2609TIP3    H1 7833   5.297   3.775   2.397  1.5447 -0.9929 -3.2623
 2609TIP3    H2 7834   5.283   3.916   2.343 -0.5484  0.1399  0.1251
 2610TIP3   OH2 7835   0.298   3.823   3.269  0.0951  0.3377 -0.0856
 2610TIP3    H1 7836   0.306   3.825   3.173  0.8791  0.6345 -0.0177
 2610TIP3    H2 7837   0.374   3.771   3.297 -1.5024 -1.9128  0.2246
 2611TIP3   OH2 7838   0.118   4.391   5.209  0.2111 -0.4902  0.5041
 2611TIP3    H1 7839   0.180   4.422   5.275 -0.2913  0.3563  0.5836
 2611TIP3    H2 7840   0.172   4.344   5.145  0.7304 -1.1003  1.3885
 2612TIP3   OH2 7841   1.225   4.844   3.416  0.3211  0.2208  0.9454
 2612TIP3    H1 7842   1.233   4.779   3.486 -0.0123  0.9968  1.7158
 2612TIP3    H2 7843   1.137   4.880   3.427 -1.2610 -2.3649 -2.2764
 2613TIP3   OH2 7844   5.382   4.066   2.368  0.3676 -0.3793 -0.2232
 2613TIP3    H1 7845   5.348   4.156   2.372  2.4034  0.4504 -0.9525
 2613TIP3    H2 7846   5.460   4.073   2.314  0.0132 -2.7886 -1.0861
 2614TIP3   OH2 7847   5.757   6.003   3.686 -0.0792 -0.0516 -0.7993
 2614TIP3    H1 7848   5.809   6.019   3.765 -0.4707  0.4124 -0.6299
 2614TIP3    H2 7849   5.678   5.960   3.719 -0.4190  0.4962 -0.8864
 2615TIP3   OH2 7850   2.681   4.447   3.107  0.5729  0.1676  0.4040
 2615TIP3    H1 7851   2.647   4.379   3.049  0.4668  1.4439 -1.0621
 2615TIP3    H2 7852   2.628   4.525   3.086  1.1497  0.8873  1.5669
 2616TIP3   OH2 7853   2.262   4.218   3.061  1.0610 -0.1672 -0.0393
 2616TIP3    H1 7854   2.338   4.200   3.006 -0.2543 -0.9950 -1.6407
 2616TIP3    H2 7855   2.196   4.253   3.000  0.5622  1.7292  1.5230
 2617TIP3   OH2 7856   6.482   4.125   4.458  0.2430  0.3938 -0.4494
 2617TIP3    H1 7857   6.433   4.136   4.377 -1.7351  1.2942  0.8194
 2617TIP3    H2 7858   6.514   4.035   4.455  0.0484  0.3645 -2.1457
 2618TIP3   OH2 7859   0.280   2.063   3.526  0.3251 -0.3142 -0.4332
 2618TIP3    H1 7860   0.268   1.972   3.502  0.8829 -0.4453 -0.2245
 2618TIP3    H2 7861   0.246   2.070   3.615 -2.0246  0.2391 -1.3264
 2619TIP3   OH2 7862   4.062   5.154   0.434  0.0617 -0.1606  0.1266
 2619TIP3    H1 7863   4.058   5.220   0.365  3.4508 -0.8747 -0.8249
 2619TIP3    H2 7864   4.044   5.202   0.515  0.1403  1.4624 -0.8069
 2620TIP3   OH2 7865   0.967   5.697   3.526 -0.2044 -0.0114  0.0946
 2620TIP3    H1 7866   0.924   5.651   3.454  1.0185 -0.2472 -0.4825
 2620TIP3    H2 7867   0.993   5.628   3.587  0.4294  0.0270 -0.1296
 2621TIP3   OH2 7868   1.989   2.674   4.359  0.1384 -0.5222  0.0236
 2621TIP3    H1 7869   2.068   2.626   4.332  0.8981 -0.0408  1.3656
 2621TIP3    H2 7870   2.006   2.699   4.449 -0.9863  0.7893 -0.1215
 2622TIP3   OH2 7871   6.407   3.158   4.719 -0.1381  0.1245 -0.3957
 2622TIP3    H1 7872   6.432   3.077   4.764  2.9846  0.3492 -1.5999
 2622TIP3    H2 7873   6.312   3.150   4.707 -0.3517 -1.9590  2.1762
 2623TIP3   OH2 7874   5.694   1.893   4.944 -0.3155 -0.1894  0.4469
 2623TIP3    H1 7875   5.606   1.904   4.979  0.3994  0.1643  2.1955
 2623TIP3    H2 7876   5.708   1.798   4.944 -0.6552 -0.2392  0.2706
 2624TIP3   OH2 7877   0.585   0.918   3.122  0.1651 -0.0176  0.7182
 2624TIP3    H1 7878   0.567   0.877   3.038  0.2327  1.3421  0.0241
 2624TIP3    H2 7879   0.535   0.867   3.185 -1.4433  0.1432 -0.4037
 2625TIP3   OH2 7880   1.024   4.056   1.656  0.5992 -0.4416  0.1868
 2625TIP3    H1 7881   0.993   4.126   1.598  1.5589 -0.8749 -0.8520
 2625TIP3    H2 7882   0.945   4.026   1.701 -0.3013 -0.6478 -1.4782
 2626TIP3   OH2 7883   2.307   3.768   2.046  0.0806  0.4372  0.0479
 2626TIP3    H1 7884   2.230   3.825   2.041 -1.6924 -1.9881 -0.6989
 2626TIP3    H2 7885   2.311   3.741   2.137  0.6190  1.2897  0.2889
 2627TIP3   OH2 7886   4.634   5.163   4.030  0.0082 -0.1129 -0.0675
 2627TIP3    H1 7887   4.556   5.212   4.003 -0.3047  0.1973  1.3330
 2627TIP3    H2 7888   4.647   5.098   3.962 -0.0868  1.3615 -1.5168
 2628TIP3   OH2 7889   0.474   4.631   1.692  0.0495 -0.6934  0.2599
 2628TIP3    H1 7890   0.422   4.684   1.632 -0.5946 -0.4683  0.9988
 2628TIP3    H2 7891   0.454   4.668   1.779  1.0073 -0.9721  0.6036
 2629TIP3   OH2 7892   2.615   2.202   5.056 -0.7804 -0.1715 -0.4418
 2629TIP3    H1 7893   2.663   2.245   5.127  0.4643 -1.2281 -0.6307
 2629TIP3    H2 7894   2.536   2.255   5.045 -0.0747  1.0870  0.4533
 2630TIP3   OH2 7895   3.883   5.228   4.247 -0.1262 -0.1663  0.0605
 2630TIP3    H1 7896   3.879   5.258   4.156  0.9078 -0.4447 -0.0834
 2630TIP3    H2 7897   3.828   5.289   4.295 -0.8755 -0.1630 -0.7912
 2631TIP3   OH2 7898   0.353   3.045   2.779  0.2280  0.1040  0.3566
 2631TIP3    H1 7899   0.394   3.131   2.773 -0.1326  0.1537 -1.7173
 2631TIP3    H2 7900   0.264   3.059   2.749 -0.2170 -0.7435  1.2682
 2632TIP3   OH2 7901   1.494   5.389   0.516  0.8883 -0.1017  0.6999
 2632TIP3    H1 7902   1.451   5.386   0.601  2.1734  0.0195  1.3647
 2632TIP3    H2 7903   1.496   5.298   0.486  0.6806 -0.1774  0.9173
 2633TIP3   OH2 7904   0.381   2.455   1.735 -0.3748 -0.2766 -0.5888
 2633TIP3    H1 7905   0.293   2.473   1.768 -0.6341 -0.9015 -0.9247
 2633TIP3    H2 7906   0.372   2.373   1.687  0.3369 -0.2013 -0.8574
 2634TIP3   OH2 7907   2.292   3.920   2.402 -0.3706 -0.0600 -0.0071
 2634TIP3    H1 7908   2.381   3.947   2.422  0.5028 -1.7946 -1.4841
 2634TIP3    H2 7909   2.248   3.918   2.487  1.3035 -0.3032  0.8709
 2635TIP3   OH2 7910   3.442   4.464   3.407  0.0501  0.2776 -0.2776
 2635TIP3    H1 7911   3.448   4.553   3.441  1.2448  0.1647 -0.1733
 2635TIP3    H2 7912   3.526   4.449   3.362 -1.2814  0.2307 -2.8078
 2636TIP3   OH2 7913   0.967   1.940   0.438  0.2706 -0.1884 -0.2891
 2636TIP3    H1 7914   0.935   1.866   0.386 -1.7634  0.1277  0.4458
 2636TIP3    H2 7915   1.000   1.900   0.518  3.1237 -0.6508 -1.6509
 2637TIP3   OH2 7916   5.918   2.822   2.299  0.5953  0.6951 -0.2260
 2637TIP3    H1 7917   5.828   2.846   2.276  0.6360  1.7112  0.6077
 2637TIP3    H2 7918   5.908   2.758   2.370  0.5200 -0.0086 -0.8652
 2638TIP3   OH2 7919   5.394   4.524   3.439  0.3199 -0.3215 -0.7288
 2638TIP3    H1 7920   5.403   4.619   3.450 -1.8333 -0.2558  0.7602
 2638TIP3    H2 7921   5.401   4.510   3.344 -0.4820  1.4656 -1.0758
 2639TIP3   OH2 7922   1.446   3.867   2.710  0.2740 -0.3758  0.1965
 2639TIP3    H1 7923   1.352   3.854   2.723 -0.2836  1.4227 -1.7531
 2639TIP3    H2 7924   1.473   3.798   2.650 -0.3776  0.7282 -1.3820
 2640TIP3   OH2 7925   1.139   2.509   5.083 -0.0193 -0.0463 -0.2043
 2640TIP3    H1 7926   1.204   2.467   5.025 -0.1157 -0.8665  0.2742
 2640TIP3    H2 7927   1.066   2.530   5.025  0.0056 -0.5930 -0.4397
 2641TIP3   OH2 7928   0.552   4.530   2.528 -0.5820  0.5306 -0.4749
 2641TIP3    H1 7929   0.472   4.531   2.580 -0.2716 -0.3220  0.0283
 2641TIP3    H2 7930   0.545   4.607   2.471 -0.1433  2.4894  2.0212
 2642TIP3   OH2 7931   2.110   2.904   2.629  0.1294  0.4827 -0.5754
 2642TIP3    H1 7932   2.184   2.942   2.677 -0.7415  1.9238 -0.3527
 2642TIP3    H2 7933   2.050   2.875   2.697  1.2788 -2.3470 -0.7209
 2643TIP3   OH2 7934   5.447   4.288   2.123  0.0583 -0.0890 -0.4001
 2643TIP3    H1 7935   5.496   4.324   2.049  0.0658 -1.4310 -1.0571
 2643TIP3    H2 7936   5.440   4.361   2.184  0.0212  1.0585 -1.7318
 2644TIP3   OH2 7937   5.370   4.443   4.528 -0.0993  0.2118 -0.1165
 2644TIP3    H1 7938   5.440   4.387   4.562  1.4695  1.8345 -0.5909
 2644TIP3    H2 7939   5.328   4.390   4.460  2.0995 -0.0051 -1.3538
 2645TIP3   OH2 7940   0.572   6.064   3.577  0.0335 -0.5018 -0.2915
 2645TIP3    H1 7941   0.477   6.062   3.564 -0.2534  2.8416  0.9306
 2645TIP3    H2 7942   0.583   6.060   3.672  1.0899  0.0764 -0.3871
 2646TIP3   OH2 7943   1.112   5.342   3.472 -0.2602 -0.3041  0.2950
 2646TIP3    H1 7944   1.127   5.422   3.422  2.4520  0.0955  1.6611
 2646TIP3    H2 7945   1.044   5.296   3.424 -1.0811  2.2957 -1.1164
 2647TIP3   OH2 7946   4.354   2.595   3.653 -0.7950 -0.1797 -0.0281
 2647TIP3    H1 7947   4.338   2.568   3.743  0.7287  0.6074  0.5119
 2647TIP3    H2 7948   4.338   2.689   3.653 -2.1877 -0.4087 -0.9285
 2648TIP3   OH2 7949   0.845   4.646   1.327  0.5824 -0.7946 -0.1252
 2648TIP3    H1 7950   0.762   4.614   1.292  1.8259 -2.1640 -1.9360
 2648TIP3    H2 7951   0.893   4.566   1.349  2.3388 -0.1072 -1.3441
 2649TIP3   OH2 7952   5.425   3.754   2.559  0.2397  0.3055  0.4600
 2649TIP3    H1 7953   5.496   3.818   2.555  0.4442 -0.0351 -1.5687
 2649TIP3    H2 7954   5.460   3.683   2.614  1.5854  0.0189 -0.7363
 2650TIP3   OH2 7955   0.296   2.489   3.420  0.4500 -0.5277  0.0418
 2650TIP3    H1 7956   0.283   2.408   3.371  0.8965 -0.9080  0.5397
 2650TIP3    H2 7957   0.318   2.554   3.353  0.8112 -0.9822 -0.2889
 2651TIP3   OH2 7958   5.002   4.233   0.929 -0.6680  0.2037 -0.2940
 2651TIP3    H1 7959   4.955   4.274   1.002 -2.1530  0.3242 -1.2829
 2651TIP3    H2 7960   5.024   4.305   0.870 -0.3337 -0.0043 -0.4255
 2652TIP3   OH2 7961   1.680   2.375   3.401 -0.0763  0.1255 -0.4876
 2652TIP3    H1 7962   1.740   2.348   3.331 -0.5658  0.5450 -1.0812
 2652TIP3    H2 7963   1.686   2.305   3.466  0.4072 -0.2623 -0.9375
 2653TIP3   OH2 7964   4.701   1.727   2.349 -0.1931 -0.3338  0.6362
 2653TIP3    H1 7965   4.679   1.819   2.342  0.9267  0.0343  1.7484
 2653TIP3    H2 7966   4.637   1.682   2.293 -0.5720  1.1266 -0.1137
 2654TIP3   OH2 7967   1.738   4.064   3.979 -0.2818  0.2325  0.0943
 2654TIP3    H1 7968   1.645   4.045   3.991  0.4828 -2.4717  2.2545
 2654TIP3    H2 7969   1.750   4.152   4.013 -2.3104  1.1921 -1.6126
 2655TIP3   OH2 7970   0.905   2.848   4.245  0.0218  0.0853 -0.3481
 2655TIP3    H1 7971   0.909   2.909   4.318  1.5893  0.5583 -0.8013
 2655TIP3    H2 7972   0.816   2.856   4.212 -0.5364  0.2458  1.1837
 2656TIP3   OH2 7973   0.878   3.919   2.570 -0.0704  0.6984  0.0167
 2656TIP3    H1 7974   0.973   3.921   2.583  0.0779 -0.9135 -0.6566
 2656TIP3    H2 7975   0.842   3.904   2.658  0.5153 -2.3218 -0.1983
 2657TIP3   OH2 7976   5.979   2.681   1.849 -0.0774  0.0548  0.2896
 2657TIP3    H1 7977   5.960   2.601   1.800  0.8664  0.1043 -0.1814
 2657TIP3    H2 7978   6.050   2.722   1.799  1.5404 -0.3425  2.2035
 2658TIP3   OH2 7979   5.616   4.330   4.015 -0.6571 -0.1649  0.2920
 2658TIP3    H1 7980   5.524   4.309   4.030 -0.4175 -0.5060  1.3185
 2658TIP3    H2 7981   5.660   4.245   4.013 -0.5323 -0.0859 -1.4767
 2659TIP3   OH2 7982   0.592   2.905   2.922 -0.2497  0.2277  0.5308
 2659TIP3    H1 7983   0.533   2.850   2.974 -0.2996 -0.6062 -0.3933
 2659TIP3    H2 7984   0.534   2.953   2.863  0.0344 -1.2585 -1.0019
 2660TIP3   OH2 7985   1.463   0.164   1.609 -0.0422  0.2213 -0.0587
 2660TIP3    H1 7986   1.462   0.223   1.533  1.9900 -0.1605 -0.4256
 2660TIP3    H2 7987   1.390   0.193   1.663 -0.7516  1.3220 -1.5533
 2661TIP3   OH2 7988   5.392   3.203   2.411  0.5500 -0.0026  0.2430
 2661TIP3    H1 7989   5.401   3.154   2.493 -3.1008 -0.1306  0.6510
 2661TIP3    H2 7990   5.314   3.257   2.425  2.0932  2.8578 -1.7426
 2662TIP3   OH2 7991   1.980   6.072   0.439 -0.0316  0.4615 -0.2861
 2662TIP3    H1 7992   2.047   6.120   0.487 -0.2467  1.4915 -0.9965
 2662TIP3    H2 7993   1.983   6.108   0.350 -1.4719  0.4721 -0.3526
 2663TIP3   OH2 7994   1.080   2.620   5.336 -0.3208 -0.5819  0.8820
 2663TIP3    H1 7995   1.100   2.589   5.248  0.2542  1.2262  0.3616
 2663TIP3    H2 7996   1.012   2.685   5.324  0.3032  0.2329  1.6979
 2664TIP3   OH2 7997   3.411   1.270   1.863  0.1921  0.0430 -0.4361
 2664TIP3    H1 7998   3.497   1.273   1.820 -0.0191  1.6070 -0.8049
 2664TIP3    H2 7999   3.379   1.182   1.847  1.2125 -0.1813 -1.3301
 2665TIP3   OH2 8000   0.606   5.879   2.433 -0.3514 -0.0442  0.0435
 2665TIP3    H1 8001   0.619   5.897   2.340 -0.5962  0.6965  0.1478
 2665TIP3    H2 8002   0.524   5.925   2.454 -1.1674 -1.5447  0.2438
 2666TIP3   OH2 8003   3.145   3.930   2.928  0.0109 -0.5665  0.8222
 2666TIP3    H1 8004   3.169   3.908   3.018  2.8425  0.1549  0.3134
 2666TIP3    H2 8005   3.227   3.919   2.879 -0.7830  1.8683 -1.1213
 2667TIP3   OH2 8006   1.797   2.722   0.594  0.0803  0.2786 -0.3718
 2667TIP3    H1 8007   1.778   2.654   0.659 -1.5740  1.4390  0.3955
 2667TIP3    H2 8008   1.889   2.744   0.609 -0.0772 -0.0043  1.0752
 2668TIP3   OH2 8009   2.570   3.832   1.829  0.0526 -0.1461  0.3239
 2668TIP3    H1 8010   2.529   3.891   1.893 -2.4802  1.0787 -2.3362
 2668TIP3    H2 8011   2.643   3.882   1.794 -0.1507  0.1818  0.3657
 2669TIP3   OH2 8012   6.241   5.327   4.612  0.0040  0.1040 -0.7392
 2669TIP3    H1 8013   6.164   5.377   4.637 -0.5418  0.5687 -3.1836
 2669TIP3    H2 8014   6.207   5.256   4.557  1.3217  0.4205 -1.9938
 2670TIP3   OH2 8015   0.363   4.104   2.844 -0.2336  0.1043 -0.1008
 2670TIP3    H1 8016   0.441   4.100   2.899  0.1832 -0.2472 -0.7177
 2670TIP3    H2 8017   0.388   4.058   2.763 -0.8628  0.5732 -0.5613
 2671TIP3   OH2 8018   6.019   3.472   1.722 -0.1890 -0.1284 -0.5082
 2671TIP3    H1 8019   6.089   3.531   1.694 -1.3372  0.4658 -2.2188
 2671TIP3    H2 8020   6.025   3.397   1.663  1.0860 -1.6213  1.4807
 2672TIP3   OH2 8021   1.756   5.185   2.839 -0.0588 -0.4766  0.1003
 2672TIP3    H1 8022   1.718   5.256   2.787  1.9932 -1.1599 -2.4531
 2672TIP3    H2 8023   1.839   5.220   2.871 -0.5838 -0.6018  1.6329
 2673TIP3   OH2 8024   3.004   4.328   2.743  0.0110  0.2374  0.2146
 2673TIP3    H1 8025   2.988   4.340   2.650 -1.2720  0.4960  0.4628
 2673TIP3    H2 8026   3.097   4.351   2.754  0.0368  0.7069 -0.9015
 2674TIP3   OH2 8027   3.617   3.736   2.254 -0.1270 -0.3002  0.1067
 2674TIP3    H1 8028   3.528   3.709   2.234 -0.8142 -0.2838  2.9952
 2674TIP3    H2 8029   3.672   3.678   2.202 -1.7885 -0.7357 -1.2015
 2675TIP3   OH2 8030   2.933   0.191   2.791 -0.4757 -0.0973 -0.0031
 2675TIP3    H1 8031   2.878   0.251   2.741 -0.7786  0.8210  1.3950
 2675TIP3    H2 8032   2.871   0.139   2.843 -0.1094 -0.1124  0.4244
 2676TIP3   OH2 8033   0.169   5.544   3.091  0.0180  0.2623 -0.1771
 2676TIP3    H1 8034   0.139   5.492   3.017 -1.0229 -0.6274  0.8476
 2676TIP3    H2 8035   0.265   5.535   3.089  0.0280  0.5840 -1.6311
 2677TIP3   OH2 8036   1.815   3.943   2.284  0.1010  0.3531 -0.1546
 2677TIP3    H1 8037   1.890   3.885   2.296  1.3181  1.6957 -1.0550
 2677TIP3    H2 8038   1.833   3.990   2.203 -1.2497  1.3945  0.1189
 2678TIP3   OH2 8039   4.606   4.428   3.068  0.0915  0.0578  0.0265
 2678TIP3    H1 8040   4.625   4.486   3.142 -1.5495  1.5044 -0.6393
 2678TIP3    H2 8041   4.512   4.411   3.074  0.1409 -0.7094 -1.1011
 2679TIP3   OH2 8042   2.053   3.799   2.313  0.3230 -0.5612 -0.2140
 2679TIP3    H1 8043   2.139   3.837   2.328  0.4371 -0.8936 -0.0182
 2679TIP3    H2 8044   2.069   3.705   2.305 -0.2404 -0.8258  1.5687
 2680TIP3   OH2 8045   4.831   5.019   3.093 -1.0300  0.2500 -0.2487
 2680TIP3    H1 8046   4.828   5.005   3.188 -0.0378  0.9232 -0.1070
 2680TIP3    H2 8047   4.924   5.023   3.073 -1.2445  0.8615 -1.1378
 2681TIP3   OH2 8048   2.266   3.527   3.466 -0.3309 -0.1703 -0.2375
 2681TIP3    H1 8049   2.302   3.473   3.537 -1.4509  0.2877  0.6903
 2681TIP3    H2 8050   2.221   3.465   3.409 -2.1373 -0.1834  1.1500
 2682TIP3   OH2 8051   2.348   5.105   3.528  0.0323 -0.0517  0.1041
 2682TIP3    H1 8052   2.260   5.111   3.567 -0.4507 -0.4321 -0.9058
 2682TIP3    H2 8053   2.362   5.011   3.516 -0.8059  0.1490 -2.7804
 2683TIP3   OH2 8054   0.806   4.480   2.620  0.3330 -0.4448 -0.4592
 2683TIP3    H1 8055   0.848   4.475   2.535  0.9193  1.1653 -0.2902
 2683TIP3    H2 8056   0.713   4.493   2.601  0.7453  2.1900 -0.9115
 2684TIP3   OH2 8057   3.980   3.023   1.121 -0.3184 -0.7785  0.2792
 2684TIP3    H1 8058   3.907   3.078   1.151  0.7283  0.7516  0.0997
 2684TIP3    H2 8059   4.000   2.966   1.195  0.8670  1.5210  1.7876
 2685TIP3   OH2 8060   1.868   3.928   3.439 -0.7505 -0.1453 -0.6934
 2685TIP3    H1 8061   1.862   3.834   3.420  1.4826 -0.6642  0.8795
 2685TIP3    H2 8062   1.906   3.932   3.527  1.7929  2.2251 -1.8087
 2686TIP3   OH2 8063   2.151   6.035   2.184 -0.4246  0.0958 -0.5647
 2686TIP3    H1 8064   2.189   5.993   2.261  1.0855  0.0882 -1.2863
 2686TIP3    H2 8065   2.058   6.045   2.205  0.4002  2.5589  2.3597
 2687TIP3   OH2 8066   5.054   2.870   4.264 -0.2258 -0.0001  0.5794
 2687TIP3    H1 8067   5.096   2.784   4.250 -1.0282 -0.0411 -1.7330
 2687TIP3    H2 8068   5.063   2.915   4.180 -0.3666  1.9750  1.5933
 2688TIP3   OH2 8069   2.334   3.781   1.490 -0.1987 -0.2975 -0.2325
 2688TIP3    H1 8070   2.325   3.869   1.526  2.5784  0.0735 -0.3270
 2688TIP3    H2 8071   2.372   3.729   1.561  0.1443 -0.9058 -0.8545
 2689TIP3   OH2 8072   2.361   4.935   1.866  0.5001  0.2844  0.3352
 2689TIP3    H1 8073   2.283   4.883   1.883  0.4107  0.3884  0.2410
 2689TIP3    H2 8074   2.335   4.995   1.796  0.2699  1.2018  1.1930
 2690TIP3   OH2 8075   1.070   5.062   2.269 -0.2429 -0.8934 -0.4241
 2690TIP3    H1 8076   1.011   5.138   2.266 -0.4280 -1.0676 -1.3379
 2690TIP3    H2 8077   1.015   4.991   2.301 -0.0016 -0.5883  0.6931
 2691TIP3   OH2 8078   2.934   4.766   1.715 -0.3025  0.0850  0.4719
 2691TIP3    H1 8079   2.924   4.855   1.749  0.2017  0.0805  0.6188
 2691TIP3    H2 8080   2.983   4.719   1.782 -3.4579 -1.2404  1.9764
 2692TIP3   OH2 8081   0.556   4.843   4.415 -0.2721  0.2023 -0.5225
 2692TIP3    H1 8082   0.574   4.804   4.329  0.3057  0.1918 -0.3955
 2692TIP3    H2 8083   0.569   4.771   4.476 -3.1144 -0.4715 -0.6204
 2693TIP3   OH2 8084   1.935   3.019   2.189 -0.2389 -0.2962 -0.7291
 2693TIP3    H1 8085   2.022   3.058   2.201 -1.0436  2.4734 -3.2632
 2693TIP3    H2 8086   1.953   2.926   2.174  2.2697  0.1550 -0.7820
 2694TIP3   OH2 8087   3.524   3.310   2.744  0.4576  0.0816 -0.7735
 2694TIP3    H1 8088   3.515   3.226   2.700 -1.5652  0.4556 -1.1140
 2694TIP3    H2 8089   3.481   3.298   2.829 -1.3936  1.2495 -1.5055
 2695TIP3   OH2 8090   2.982   2.987   1.662 -0.2149 -0.5196 -0.4232
 2695TIP3    H1 8091   2.900   2.941   1.677 -0.7182  0.7176  0.7858
 2695TIP3    H2 8092   3.032   2.931   1.602 -1.1964 -2.1361  0.2626
 2696TIP3   OH2 8093   2.370   0.118   4.964 -0.5926 -0.8512  0.2437
 2696TIP3    H1 8094   2.304   0.142   4.898  0.2227 -0.8668 -0.5789
 2696TIP3    H2 8095   2.392   0.027   4.944 -0.2232 -0.8019  0.4320
 2697TIP3   OH2 8096   1.862   2.134   1.256  0.3607 -0.5655  0.0835
 2697TIP3    H1 8097   1.856   2.146   1.351  0.2661  2.0296 -0.2166
 2697TIP3    H2 8098   1.913   2.054   1.245 -0.0506 -1.1728  2.3165
 2698TIP3   OH2 8099   2.489   2.516   1.952 -0.2202  0.0701  0.1313
 2698TIP3    H1 8100   2.430   2.585   1.924  0.2333  0.5254  0.2944
 2698TIP3    H2 8101   2.440   2.435   1.937  0.0751  0.2886 -2.1466
 2699TIP3   OH2 8102   5.442   5.639   1.609 -0.2015  0.0316  0.1702
 2699TIP3    H1 8103   5.446   5.570   1.542 -0.0252  1.1486 -0.9831
 2699TIP3    H2 8104   5.502   5.706   1.577 -2.5606  2.0182 -0.2107
 2700TIP3   OH2 8105   3.812   2.758   1.803 -0.4184  0.8445 -0.0380
 2700TIP3    H1 8106   3.748   2.816   1.762 -0.5598  0.4425 -0.4010
 2700TIP3    H2 8107   3.777   2.670   1.787 -0.5000  0.6896  1.0045
 2701TIP3   OH2 8108   1.290   3.036   3.254  0.1658  0.0652 -0.1370
 2701TIP3    H1 8109   1.351   2.983   3.305 -0.1999  0.3036  0.5548
 2701TIP3    H2 8110   1.315   3.020   3.163  0.9070 -0.2657  0.1160
 2702TIP3   OH2 8111   4.263   4.588   1.023  0.0824 -0.4572  0.1274
 2702TIP3    H1 8112   4.313   4.635   1.090 -0.0251 -0.9979  0.5952
 2702TIP3    H2 8113   4.199   4.652   0.991  0.9303  0.1731 -0.3227
 2703TIP3   OH2 8114   1.898   4.829   3.200  0.2875 -0.2445 -0.2879
 2703TIP3    H1 8115   1.864   4.846   3.113 -0.6610 -0.3153  0.0565
 2703TIP3    H2 8116   1.857   4.895   3.256 -1.3277 -1.9225  0.5865
 2704TIP3   OH2 8117   2.294   4.131   0.414 -0.5886  0.2380 -0.3318
 2704TIP3    H1 8118   2.285   4.128   0.509 -0.0190  0.3005 -0.2781
 2704TIP3    H2 8119   2.380   4.170   0.399  0.2210 -1.6961 -0.8539
 2705TIP3   OH2 8120   2.724   4.728   3.943  0.4358  0.5097 -0.1004
 2705TIP3    H1 8121   2.675   4.667   3.889 -0.5041  1.5831 -0.4916
 2705TIP3    H2 8122   2.800   4.751   3.890  0.9246 -0.5138  0.1568
 2706TIP3   OH2 8123   3.434   4.954   2.620 -0.3876 -0.5835 -0.5681
 2706TIP3    H1 8124   3.468   4.976   2.707 -3.1909  0.5338  0.2930
 2706TIP3    H2 8125   3.512   4.930   2.569  1.2257 -2.1641  2.4825
 2707TIP3   OH2 8126   5.481   3.792   1.280  0.0870  0.2283  0.1661
 2707TIP3    H1 8127   5.473   3.886   1.297  0.4380  0.4362 -0.7851
 2707TIP3    H2 8128   5.408   3.772   1.222 -0.7423 -0.3534  1.3854
 2708TIP3   OH2 8129   0.668   1.703   4.627  0.0549  0.5003 -0.0848
 2708TIP3    H1 8130   0.607   1.709   4.701  1.0229  0.0400  0.7626
 2708TIP3    H2 8131   0.754   1.707   4.667  0.6268 -1.7030 -0.9978
 2709TIP3   OH2 8132   1.980   2.443   1.760  0.2504  0.2760 -0.1749
 2709TIP3    H1 8133   1.955   2.421   1.670 -2.4607  1.0242  0.3747
 2709TIP3    H2 8134   2.010   2.534   1.756 -0.2102  0.4221 -0.2463
 2710TIP3   OH2 8135   1.309   2.825   0.413  0.2632 -0.0002 -0.5424
 2710TIP3    H1 8136   1.405   2.817   0.410  0.2467  0.4718 -3.0109
 2710TIP3    H2 8137   1.278   2.740   0.383 -0.0884  0.2856 -0.9817
 2711TIP3   OH2 8138   0.117   3.344   3.416 -0.3764  0.2622  0.7805
 2711TIP3    H1 8139   0.078   3.267   3.457  1.9301 -0.4962  1.6735
 2711TIP3    H2 8140   0.211   3.337   3.436 -0.1548  3.5417  1.2900
 2712TIP3   OH2 8141   1.546   2.324   1.750 -0.2970 -0.3645 -0.0061
 2712TIP3    H1 8142   1.573   2.400   1.698  0.0910  0.2861  1.1209
 2712TIP3    H2 8143   1.535   2.359   1.839 -1.0245 -1.4413  0.3375
 2713TIP3   OH2 8144   0.005   0.502   2.854  0.1896  0.8515 -0.2703
 2713TIP3    H1 8145   0.070   0.484   2.923  0.4322  0.1391 -0.6804
 2713TIP3    H2 8146  -0.053   0.567   2.893  2.0646  2.6989 -0.4557
 2714TIP3   OH2 8147   1.896   3.642   2.073 -0.5669  0.3662 -0.7395
 2714TIP3    H1 8148   1.821   3.623   2.016 -0.3588  1.3128 -1.3458
 2714TIP3    H2 8149   1.860   3.636   2.162 -1.8452  2.6413 -1.0494
 2715TIP3   OH2 8150   0.492   4.785   2.426  0.1639  0.0554  0.1574
 2715TIP3    H1 8151   0.520   4.862   2.475  0.5571 -0.8410  1.3652
 2715TIP3    H2 8152   0.456   4.820   2.345 -0.7691  1.5985  1.1999
 2716TIP3   OH2 8153   1.783   4.574   2.634 -0.2001  0.0470 -0.0012
 2716TIP3    H1 8154   1.743   4.661   2.628  3.0493  1.5862 -0.3159
 2716TIP3    H2 8155   1.817   4.558   2.546  2.7242  0.2435  1.0535
 2717TIP3   OH2 8156   2.036   4.494   1.702  0.0681  0.0279 -0.0568
 2717TIP3    H1 8157   2.035   4.432   1.775 -0.2221 -3.1505 -2.6046
 2717TIP3    H2 8158   1.945   4.500   1.674  0.4708 -0.6896 -1.6180
 2718TIP3   OH2 8159   5.392   0.681   1.899 -0.3486 -0.4742 -0.3528
 2718TIP3    H1 8160   5.319   0.689   1.961 -0.0638 -0.8603  0.0383
 2718TIP3    H2 8161   5.373   0.601   1.850 -0.4090 -0.3409 -0.5479
 2719TIP3   OH2 8162   1.837   2.915   1.349  0.1671  0.5407 -0.0465
 2719TIP3    H1 8163   1.931   2.902   1.336  0.0630 -1.2611  0.9281
 2719TIP3    H2 8164   1.800   2.827   1.349 -1.3939  1.1799  0.5756
 2720TIP3   OH2 8165   2.932   2.828   4.231 -0.3491 -0.2577  0.1283
 2720TIP3    H1 8166   2.937   2.774   4.310  0.5507 -0.7675 -0.2709
 2720TIP3    H2 8167   2.882   2.906   4.258  1.2226  0.2707  1.5965
 2721TIP3   OH2 8168   1.651   4.050   4.811 -0.5473  0.2335 -0.4915
 2721TIP3    H1 8169   1.709   3.974   4.807 -2.0064 -0.8261 -2.7744
 2721TIP3    H2 8170   1.710   4.125   4.813  0.9086 -0.8991  0.0941
 2722TIP3   OH2 8171   1.734   3.469   2.315 -0.0493 -0.0660 -0.0144
 2722TIP3    H1 8172   1.691   3.497   2.234 -1.1301  0.6758  0.7972
 2722TIP3    H2 8173   1.726   3.374   2.315  1.1100 -0.1722 -1.4071
 2723TIP3   OH2 8174   1.755   3.185   0.735 -0.1257 -0.4183 -0.1208
 2723TIP3    H1 8175   1.739   3.266   0.687  2.2712 -0.2464 -0.7019
 2723TIP3    H2 8176   1.848   3.189   0.758 -0.4001 -2.1656  1.4337
 2724TIP3   OH2 8177   1.340   1.378   3.554 -0.7660 -0.4118  0.0668
 2724TIP3    H1 8178   1.311   1.340   3.637  0.0692 -2.6853 -0.6479
 2724TIP3    H2 8179   1.290   1.330   3.487  0.7601 -0.7223 -0.8844
 2725TIP3   OH2 8180   3.061   5.156   2.059 -0.4367 -0.0778 -0.3666
 2725TIP3    H1 8181   3.079   5.210   1.982  0.7118  1.1312  0.7285
 2725TIP3    H2 8182   3.101   5.071   2.039  0.4193  0.4326 -0.8337
 2726TIP3   OH2 8183   3.510   3.993   1.626 -0.4326  0.1805 -0.1757
 2726TIP3    H1 8184   3.545   4.036   1.548 -2.2088  0.3236 -0.9138
 2726TIP3    H2 8185   3.488   4.066   1.685 -1.3873  0.1755 -0.5315
 2727TIP3   OH2 8186   3.647   2.859   0.394  0.1618  0.0063 -0.1301
 2727TIP3    H1 8187   3.593   2.933   0.423 -3.3920 -1.5952 -2.2133
 2727TIP3    H2 8188   3.686   2.888   0.312 -0.1301  0.0636 -0.2490
 2728TIP3   OH2 8189   2.984   4.196   1.415 -0.2662 -0.0108  0.2482
 2728TIP3    H1 8190   3.030   4.128   1.366 -2.6355 -1.5042  0.0299
 2728TIP3    H2 8191   2.946   4.252   1.348  1.5150  1.4808  0.4307
 2729TIP3   OH2 8192   2.853   2.747   2.379 -0.8542 -0.2132  0.0432
 2729TIP3    H1 8193   2.763   2.716   2.365 -1.4674  1.1522  0.9162
 2729TIP3    H2 8194   2.843   2.829   2.427  0.8542  0.1574 -0.2201
 2730TIP3   OH2 8195   1.032   1.014   2.813  0.5739 -0.0489 -0.4513
 2730TIP3    H1 8196   0.957   1.073   2.806 -0.6821 -1.7175 -1.3700
 2730TIP3    H2 8197   1.085   1.051   2.883 -0.4720  1.8544 -0.6417
 2731TIP3   OH2 8198   1.306   2.338   1.382 -0.2684 -0.4470  0.8814
 2731TIP3    H1 8199   1.263   2.343   1.467 -0.7932 -0.1788  0.6020
 2731TIP3    H2 8200   1.372   2.268   1.393  0.2661  0.1773  1.7565
 2732TIP3   OH2 8201   1.659   5.286   2.405  0.5464 -0.1864 -0.6608
 2732TIP3    H1 8202   1.614   5.220   2.458 -1.0842  0.2101 -1.5323
 2732TIP3    H2 8203   1.630   5.369   2.441  1.7326  0.0802 -0.2909
 2733TIP3   OH2 8204   0.818   4.305   3.452 -0.4281  0.5638 -0.5009
 2733TIP3    H1 8205   0.908   4.318   3.423 -0.1229 -0.1375  0.1232
 2733TIP3    H2 8206   0.765   4.354   3.389  0.4911  2.3469  0.0880
 2734TIP3   OH2 8207   3.117   0.227   2.234 -0.0197  0.3246 -0.1748
 2734TIP3    H1 8208   3.084   0.192   2.151  0.7652 -1.5488  0.2767
 2734TIP3    H2 8209   3.199   0.272   2.210 -0.3256  0.6896 -0.5520
 2735TIP3   OH2 8210   3.878   0.136   1.293 -0.5726 -0.3767 -0.0878
 2735TIP3    H1 8211   3.894   0.180   1.210 -2.7092  0.3155 -0.1643
 2735TIP3    H2 8212   3.923   0.052   1.284  2.1984  1.1025 -0.5506
 2736TIP3   OH2 8213   2.304   3.658   2.711 -0.0548 -0.5464 -0.1301
 2736TIP3    H1 8214   2.328   3.674   2.802 -4.2017 -1.3364  1.2360
 2736TIP3    H2 8215   2.361   3.586   2.683  1.4463 -0.1038  1.7323
 2737TIP3   OH2 8216   1.568   4.371   3.004  0.0904  0.0041  0.7196
 2737TIP3    H1 8217   1.556   4.280   2.976 -0.3179  0.2808 -0.0084
 2737TIP3    H2 8218   1.550   4.370   3.098 -2.4755 -0.1904  0.2628
 2738TIP3   OH2 8219   0.919   4.674   1.896  0.5111 -0.3073  0.1962
 2738TIP3    H1 8220   0.895   4.651   1.807  0.2856 -0.0939  0.2003
 2738TIP3    H2 8221   0.836   4.669   1.945 -0.0047  2.7239 -0.2526
 2739TIP3   OH2 8222   4.801   6.143   5.130  0.1421  0.3904 -0.0522
 2739TIP3    H1 8223   4.845   6.146   5.215 -1.3027 -1.4922  0.8123
 2739TIP3    H2 8224   4.839   6.067   5.085 -0.2538  0.3944 -0.4081
 2740TIP3   OH2 8225   3.904   3.687   2.784 -0.3137 -0.0416  0.4394
 2740TIP3    H1 8226   3.860   3.608   2.752 -0.8886  0.5075 -0.1830
 2740TIP3    H2 8227   3.851   3.759   2.747  1.0018  0.6368 -0.1580
 2741TIP3   OH2 8228   3.084   3.615   3.946 -0.0836  0.3522 -0.1354
 2741TIP3    H1 8229   3.040   3.531   3.933  0.4349 -0.1728  1.4092
 2741TIP3    H2 8230   3.017   3.681   3.926 -1.3692 -0.4411  1.4870
 2742TIP3   OH2 8231   2.273   1.878   3.539  0.5812 -0.0263 -0.0992
 2742TIP3    H1 8232   2.314   1.893   3.454 -0.4673  1.0235 -0.4354
 2742TIP3    H2 8233   2.260   1.783   3.543  0.6930 -0.0907 -1.0891
 2743TIP3   OH2 8234   2.329   4.484   1.886  0.0723  0.3771 -0.2670
 2743TIP3    H1 8235   2.371   4.488   1.800 -0.0420 -0.5606 -0.3729
 2743TIP3    H2 8236   2.276   4.405   1.883 -0.0319  0.4081  0.6271
 2744TIP3   OH2 8237   3.982   2.498   0.429 -0.2715 -0.4778 -0.6405
 2744TIP3    H1 8238   3.979   2.556   0.354 -0.8224 -1.0999 -1.1012
 2744TIP3    H2 8239   4.039   2.426   0.402  0.0365 -0.3882 -0.2372
 2745TIP3   OH2 8240   1.877   4.452   3.771  0.7617  0.1110 -0.4394
 2745TIP3    H1 8241   1.841   4.366   3.790 -0.8232  1.0583  0.9740
 2745TIP3    H2 8242   1.821   4.487   3.702  1.0117  0.2675 -0.5642
 2746TIP3   OH2 8243   0.894   2.925   0.091  0.1655 -0.0819  0.2995
 2746TIP3    H1 8244   0.831   2.877   0.038 -0.4763  1.6901 -0.5667
 2746TIP3    H2 8245   0.977   2.916   0.043  0.4667 -1.8234  1.0835
 2747TIP3   OH2 8246   1.616   2.758   3.600 -0.5536 -0.0602  0.3808
 2747TIP3    H1 8247   1.614   2.672   3.643 -0.2089 -0.3628 -0.2050
 2747TIP3    H2 8248   1.696   2.757   3.548 -1.2189  0.1174 -0.6576
 2748TIP3   OH2 8249   2.304   3.729   1.741  0.4175 -0.6610 -0.0121
 2748TIP3    H1 8250   2.340   3.818   1.739 -1.2179  0.0605  1.6334
 2748TIP3    H2 8251   2.361   3.681   1.802  1.8636 -1.0355 -1.6056
 2749TIP3   OH2 8252   3.425   2.627   1.573 -0.5517  0.3024 -0.3983
 2749TIP3    H1 8253   3.492   2.579   1.526  0.8848  0.5591  1.3324
 2749TIP3    H2 8254   3.368   2.559   1.611  0.4029 -0.0100  0.5037
 2750TIP3   OH2 8255   2.022   3.547   3.204 -0.1814 -0.2133  0.4734
 2750TIP3    H1 8256   2.085   3.483   3.236 -0.6695 -0.8570  0.1455
 2750TIP3    H2 8257   2.055   3.573   3.118 -1.0261 -1.4868 -0.2501
 2751TIP3   OH2 8258   1.101   5.650   2.371  0.0130 -0.4691 -0.2754
 2751TIP3    H1 8259   1.090   5.716   2.440 -1.6936  0.9572 -1.8580
 2751TIP3    H2 8260   1.109   5.702   2.290  0.1453 -2.1770 -1.3763
 2752TIP3   OH2 8261   4.254   5.259   1.520 -0.0500 -0.0710  1.0952
 2752TIP3    H1 8262   4.257   5.178   1.570 -1.8570 -0.7136  0.1985
 2752TIP3    H2 8263   4.164   5.291   1.531  0.3779  1.3190  0.6824
 2753TIP3   OH2 8264   4.246   4.119   3.045  0.0649 -0.0789  0.0741
 2753TIP3    H1 8265   4.165   4.071   3.060  0.5076 -1.4168 -1.6446
 2753TIP3    H2 8266   4.314   4.068   3.089  0.6305 -1.4287 -2.2619
 2754TIP3   OH2 8267   3.047   5.355   3.929 -0.0661  0.0148 -0.0836
 2754TIP3    H1 8268   3.143   5.356   3.925 -0.0659 -0.5143 -0.2997
 2754TIP3    H2 8269   3.024   5.437   3.971  0.4993 -0.0030  0.2678
 2755TIP3   OH2 8270   5.419   3.857   2.066 -0.1279 -0.1357 -0.5612
 2755TIP3    H1 8271   5.351   3.801   2.029  0.5983 -1.5130  0.1378
 2755TIP3    H2 8272   5.488   3.857   1.999  0.9032 -2.0850  0.4622
 2756TIP3   OH2 8273   3.861   5.256   5.104 -0.1817 -0.3251  0.7366
 2756TIP3    H1 8274   3.808   5.221   5.176 -0.7446 -0.5039  0.2380
 2756TIP3    H2 8275   3.913   5.182   5.074 -2.3617 -1.1252 -1.2171
 2757TIP3   OH2 8276   2.497   5.268   3.032 -0.4706 -0.1587 -0.3288
 2757TIP3    H1 8277   2.416   5.218   3.043  0.0469 -0.5736  1.9792
 2757TIP3    H2 8278   2.484   5.317   2.951 -2.5597 -1.0982 -0.6074
 2758TIP3   OH2 8279   4.888   2.873   1.918 -0.3315 -0.1563 -0.1393
 2758TIP3    H1 8280   4.810   2.927   1.907 -1.2885 -1.4442  0.1722
 2758TIP3    H2 8281   4.884   2.809   1.848 -0.5941 -1.4433  1.0256
 2759TIP3   OH2 8282   1.199   3.460   0.668 -0.1459 -0.3181 -0.4184
 2759TIP3    H1 8283   1.181   3.438   0.760 -0.8160 -0.6995 -0.6446
 2759TIP3    H2 8284   1.154   3.393   0.617  1.2030 -0.8033 -1.0164
 2760TIP3   OH2 8285   0.102   4.702   0.373 -0.5792  0.3312  0.2641
 2760TIP3    H1 8286   0.085   4.766   0.304 -1.0843  0.1434  0.2108
 2760TIP3    H2 8287   0.191   4.721   0.402 -0.6985  1.0052  0.1927
 2761TIP3   OH2 8288   5.837   5.420   2.642 -0.3355  0.3909  0.4020
 2761TIP3    H1 8289   5.902   5.441   2.575 -0.9615  1.4473  0.1147
 2761TIP3    H2 8290   5.824   5.326   2.635 -0.7322  0.5671 -1.2739
 2762TIP3   OH2 8291   3.496   3.569   3.615  0.2498 -0.1433 -0.0291
 2762TIP3    H1 8292   3.589   3.587   3.607  0.2532 -0.0821  0.1699
 2762TIP3    H2 8293   3.481   3.552   3.708 -0.0141  0.2712  0.0094
 2763TIP3   OH2 8294   1.222   4.167   0.740  0.3250 -0.1553  0.1537
 2763TIP3    H1 8295   1.169   4.232   0.694  0.9712 -0.1000 -0.5308
 2763TIP3    H2 8296   1.163   4.093   0.754  0.4139 -0.6320 -1.8087
 2764TIP3   OH2 8297   2.335   4.750   2.300  0.6079  0.0122  0.5382
 2764TIP3    H1 8298   2.389   4.810   2.249  0.1768  0.8001  0.9978
 2764TIP3    H2 8299   2.285   4.701   2.234  2.0949 -0.9356  0.1048
 2765TIP3   OH2 8300   3.189   5.713   0.420  0.1069  0.1427 -0.3563
 2765TIP3    H1 8301   3.143   5.796   0.408 -0.1424  0.1254  0.4880
 2765TIP3    H2 8302   3.132   5.662   0.477  0.1426 -0.7063 -1.0697
 2766TIP3   OH2 8303   4.347   3.875   3.166  0.4436 -0.9273 -0.3116
 2766TIP3    H1 8304   4.351   3.893   3.260 -1.9113 -1.1513 -0.1440
 2766TIP3    H2 8305   4.333   3.780   3.160 -1.9278 -0.5929 -0.7793
 2767TIP3   OH2 8306   1.560   3.739   0.018  0.1630  0.1559  0.0521
 2767TIP3    H1 8307   1.571   3.644   0.027 -0.1321 -0.0145 -1.3963
 2767TIP3    H2 8308   1.649   3.774   0.029  0.4533 -0.3757 -0.5879
 2768TIP3   OH2 8309   1.952   4.069   1.771  0.3314 -0.3280 -0.2728
 2768TIP3    H1 8310   2.026   4.105   1.723  0.2500 -1.1021 -0.9883
 2768TIP3    H2 8311   1.951   3.976   1.749 -1.3936 -0.1669 -1.0167
 2769TIP3   OH2 8312   3.560   3.239   0.669 -0.2079  0.2219  0.1709
 2769TIP3    H1 8313   3.561   3.332   0.647  1.4217  0.0263 -0.6475
 2769TIP3    H2 8314   3.515   3.197   0.596  0.8567  0.1509 -0.4646
 2770TIP3   OH2 8315   2.761   3.707   1.435 -0.3476 -0.0332 -0.4173
 2770TIP3    H1 8316   2.761   3.613   1.455 -0.1606 -0.3409 -1.7698
 2770TIP3    H2 8317   2.854   3.732   1.439 -0.3822  0.0609 -0.2002
 2771TIP3   OH2 8318   2.164   3.568   0.775 -0.1911 -0.4109 -0.1006
 2771TIP3    H1 8319   2.071   3.556   0.792 -0.2180 -1.9146 -1.2068
 2771TIP3    H2 8320   2.181   3.517   0.695  1.4755  0.2139 -0.1723
 2772TIP3   OH2 8321   3.193   5.440   1.504 -0.0279 -0.8059  0.2754
 2772TIP3    H1 8322   3.194   5.498   1.428 -0.5294 -0.9731  0.1403
 2772TIP3    H2 8323   3.113   5.463   1.550  1.2629  0.6927  1.8447
 2773TIP3   OH2 8324   0.841   4.914   2.302  0.5780 -0.2609 -0.2251
 2773TIP3    H1 8325   0.828   4.946   2.392  2.5730  0.1274 -0.0564
 2773TIP3    H2 8326   0.821   4.821   2.307  1.2785 -0.3635  0.7643
 2774TIP3   OH2 8327   2.531   4.028   2.553  0.1503  0.2088 -0.0713
 2774TIP3    H1 8328   2.575   4.004   2.635 -1.1665 -1.3060  0.2012
 2774TIP3    H2 8329   2.602   4.057   2.496  1.2969 -0.4704  0.9839
 2775TIP3   OH2 8330   3.212   1.930   1.368 -0.8227 -0.0442 -0.5133
 2775TIP3    H1 8331   3.301   1.946   1.335 -0.5410 -2.2236 -0.8491
 2775TIP3    H2 8332   3.161   2.004   1.335  0.6726  0.7820 -1.0353
 2776TIP3   OH2 8333   1.801   4.226   1.937  0.0972 -0.1299 -0.4055
 2776TIP3    H1 8334   1.718   4.179   1.938  0.4435 -0.7586 -0.7021
 2776TIP3    H2 8335   1.854   4.179   1.873  0.3908  0.7757 -0.8333
 2777TIP3   OH2 8336   0.837   2.830   2.868  0.4259  0.2142  0.0689
 2777TIP3    H1 8337   0.754   2.855   2.909  0.9181  0.1999  1.0787
 2777TIP3    H2 8338   0.903   2.880   2.915  1.0667 -0.3538 -0.2218
 2778TIP3   OH2 8339   2.054   3.887   2.002  0.2369 -0.1170  0.2926
 2778TIP3    H1 8340   2.035   3.889   1.909 -0.7990  3.2376  0.5007
 2778TIP3    H2 8341   1.996   3.818   2.037 -0.7728 -0.0785 -1.2426
 2779TIP3   OH2 8342   2.729   3.620   2.542  0.1350  0.3390  0.3746
 2779TIP3    H1 8343   2.767   3.532   2.552  1.3641  0.7744 -0.4808
 2779TIP3    H2 8344   2.638   3.609   2.570  0.4662 -1.0521  0.9623
 2780TIP3   OH2 8345   1.216   3.835   2.018 -0.4065  0.1652 -0.7732
 2780TIP3    H1 8346   1.191   3.821   1.926 -1.2261  0.7748 -0.6530
 2780TIP3    H2 8347   1.304   3.800   2.024 -0.8458 -1.1059 -1.4758
 2781TIP3   OH2 8348   0.110   2.580   1.213 -0.3108  0.0062 -0.4580
 2781TIP3    H1 8349   0.105   2.668   1.176 -0.6006 -0.4534 -1.5629
 2781TIP3    H2 8350   0.172   2.534   1.156 -1.3002 -0.9235 -0.8084
 2782TIP3   OH2 8351   2.731   2.791   5.116  0.1068  0.0482 -0.0093
 2782TIP3    H1 8352   2.779   2.714   5.085 -0.0458  0.0101 -0.1535
 2782TIP3    H2 8353   2.799   2.854   5.139  0.2249  0.0108 -0.2541
 2783TIP3   OH2 8354   6.118   4.993   3.092 -0.0734 -0.0965  0.0826
 2783TIP3    H1 8355   6.200   4.999   3.043 -1.0724 -0.0722 -1.6281
 2783TIP3    H2 8356   6.116   4.902   3.123  0.9483  0.1097  0.7589
 2784TIP3   OH2 8357   2.294   2.954   2.154 -0.6238  0.1638  0.2541
 2784TIP3    H1 8358   2.344   2.994   2.225 -0.2727 -0.2152  0.2250
 2784TIP3    H2 8359   2.359   2.903   2.105 -1.1684 -0.9087  0.6348
 2785TIP3   OH2 8360   0.284   4.136   1.527  0.0926 -0.3278 -0.8151
 2785TIP3    H1 8361   0.198   4.106   1.497  0.2047 -0.8062 -0.6598
 2785TIP3    H2 8362   0.271   4.156   1.620  0.1301 -0.3125 -0.8132
 2786TIP3   OH2 8363   2.934   5.563   0.466  0.0094  0.0674 -0.3648
 2786TIP3    H1 8364   2.943   5.497   0.535  1.5549  0.5545 -0.0927
 2786TIP3    H2 8365   2.863   5.529   0.411 -0.4270 -0.9235  0.7710
 2787TIP3   OH2 8366   1.710   4.696   4.218 -0.0795  0.1471 -0.8354
 2787TIP3    H1 8367   1.768   4.666   4.148 -0.0225 -1.0097 -0.3020
 2787TIP3    H2 8368   1.732   4.642   4.293 -0.4455  1.0837 -0.0370
 2788TIP3   OH2 8369   0.532   2.978   0.797  1.0092  0.2784 -0.5534
 2788TIP3    H1 8370   0.574   3.051   0.752 -3.0376  1.9952 -1.7450
 2788TIP3    H2 8371   0.509   2.916   0.727  0.2709  0.0450 -0.1130
 2789TIP3   OH2 8372   3.680   4.928   3.537 -0.0931  0.3554 -0.1192
 2789TIP3    H1 8373   3.719   4.951   3.621  1.5244  1.5630 -1.1733
 2789TIP3    H2 8374   3.645   4.840   3.550 -1.2289  1.1010  2.2569
 2790TIP3   OH2 8375   1.366   4.701   2.934 -0.5600 -0.3692 -0.1372
 2790TIP3    H1 8376   1.343   4.709   3.026 -1.9929 -2.3374 -0.2926
 2790TIP3    H2 8377   1.462   4.704   2.934 -0.6046  2.8608  1.0362
 2791TIP3   OH2 8378   1.131   5.387   2.374 -0.0600 -0.0427  0.3718
 2791TIP3    H1 8379   1.060   5.361   2.315 -2.1655  0.8544  2.3846
 2791TIP3    H2 8380   1.139   5.481   2.361  1.8433 -0.3735 -0.9455
 2792TIP3   OH2 8381   2.596   4.744   2.839 -0.0702  1.0015  0.3891
 2792TIP3    H1 8382   2.651   4.672   2.810 -0.5769 -0.1274  2.1263
 2792TIP3    H2 8383   2.507   4.717   2.815 -0.1626  1.4711  0.2073
 2793TIP3   OH2 8384   0.635   5.153   1.171  0.1535 -0.1972  0.5261
 2793TIP3    H1 8385   0.586   5.189   1.097 -0.4816 -1.9086  0.1089
 2793TIP3    H2 8386   0.727   5.173   1.150 -0.1929  1.4337  0.4633
 2794TIP3   OH2 8387   1.551   4.709   3.741  0.4711 -0.4653 -0.0789
 2794TIP3    H1 8388   1.598   4.771   3.796 -0.1835 -0.0854  0.0578
 2794TIP3    H2 8389   1.459   4.732   3.751  0.0722 -2.4436  1.2262
 2795TIP3   OH2 8390   3.235   2.546   3.293 -1.0230  0.4172 -0.1683
 2795TIP3    H1 8391   3.202   2.458   3.278 -3.9338  1.5238 -0.6356
 2795TIP3    H2 8392   3.226   2.560   3.387 -2.9252  1.0665 -0.4221
 2796TIP3   OH2 8393   2.650   5.445   2.655 -0.1900 -0.2126 -0.0515
 2796TIP3    H1 8394   2.693   5.397   2.584 -1.0391 -0.5431 -0.3410
 2796TIP3    H2 8395   2.697   5.417   2.734  0.9734  0.4043 -0.5139
 2797TIP3   OH2 8396   0.754   0.970   5.192 -0.0750 -0.9428  0.1574
 2797TIP3    H1 8397   0.686   0.987   5.127  0.9315  0.5813 -0.5247
 2797TIP3    H2 8398   0.707   0.955   5.273 -1.2128  0.4428 -0.2383
 2798TIP3   OH2 8399   5.380   2.936   3.194  0.4775  0.1709 -0.5024
 2798TIP3    H1 8400   5.433   2.872   3.146  1.0082 -0.1273  0.4710
 2798TIP3    H2 8401   5.376   2.901   3.283  0.0433  1.0565 -0.1724
 2799TIP3   OH2 8402   1.496   0.601   0.313 -0.1922 -0.8028  0.2063
 2799TIP3    H1 8403   1.489   0.619   0.219 -0.5186 -0.2198  0.3359
 2799TIP3    H2 8404   1.442   0.669   0.353 -0.3696 -1.2901  0.7913
 2800TIP3   OH2 8405   5.848   2.170   2.372  0.2400 -0.0958  0.7706
 2800TIP3    H1 8406   5.790   2.108   2.417 -0.8978  1.9389  2.1836
 2800TIP3    H2 8407   5.932   2.125   2.367 -0.7691 -2.0994  0.9528
 2801TIP3   OH2 8408   1.967   3.285   3.860 -0.2798 -0.1640 -0.1007
 2801TIP3    H1 8409   1.991   3.327   3.943 -1.3796  0.9335 -0.3273
 2801TIP3    H2 8410   1.873   3.267   3.868 -0.4224  0.0774 -1.1623
 2802TIP3   OH2 8411   0.505   4.051   1.871  0.1668  0.0600  0.2456
 2802TIP3    H1 8412   0.435   4.116   1.879  0.6342  0.5090  0.7029
 2802TIP3    H2 8413   0.482   3.984   1.936 -0.0415  0.0220  0.1330
 2803TIP3   OH2 8414   1.351   0.248   2.469  0.4805  0.4934  0.1467
 2803TIP3    H1 8415   1.420   0.256   2.403  0.9309  1.5924  0.7427
 2803TIP3    H2 8416   1.381   0.176   2.525  1.4684  1.3637  0.7666
 2804TIP3   OH2 8417   2.986   4.696   1.429  0.8597  0.3777 -0.1368
 2804TIP3    H1 8418   2.963   4.676   1.520  0.6470  0.8264 -0.0897
 2804TIP3    H2 8419   2.946   4.626   1.378  1.4750 -0.2040  0.1628
 2805TIP3   OH2 8420   1.282   4.008   3.567  0.4648  0.1955  0.6592
 2805TIP3    H1 8421   1.292   3.915   3.546  0.4967  0.3625 -0.0676
 2805TIP3    H2 8422   1.247   4.008   3.656 -3.6101 -0.6197 -0.8464
 2806TIP3   OH2 8423   2.545   4.389   2.342 -0.2391 -0.0939 -0.3241
 2806TIP3    H1 8424   2.614   4.353   2.398 -0.5366  2.5689  1.8706
 2806TIP3    H2 8425   2.592   4.438   2.275  0.0629  0.9218  0.6076
 2807TIP3   OH2 8426   3.188   3.656   4.202  0.6217  0.6742  0.3447
 2807TIP3    H1 8427   3.144   3.656   4.117  0.1319 -0.1852  0.5982
 2807TIP3    H2 8428   3.274   3.618   4.183  0.9549  1.5871  0.0095
 2808TIP3   OH2 8429   3.843   4.770   2.653  0.3285 -0.6239  0.2703
 2808TIP3    H1 8430   3.931   4.783   2.688  0.7490 -0.0242 -1.0089
 2808TIP3    H2 8431   3.833   4.675   2.647 -0.7691 -0.8954  4.5644
 2809TIP3   OH2 8432   2.362   3.646   3.079  1.2182 -0.1998 -0.0092
 2809TIP3    H1 8433   2.451   3.648   3.044  0.5761 -0.6531 -1.7636
 2809TIP3    H2 8434   2.335   3.555   3.073  0.7290 -0.1157  0.7696
 2810TIP3   OH2 8435   1.522   6.004   1.623  0.1933  0.3953 -0.3651
 2810TIP3    H1 8436   1.524   6.089   1.579  4.2868  0.9741  0.7988
 2810TIP3    H2 8437   1.579   5.948   1.571  0.8652 -0.4370  1.2456
 2811TIP3   OH2 8438   1.103   3.315   2.948  0.1472  0.2229 -0.1612
 2811TIP3    H1 8439   1.134   3.258   2.878 -1.9663 -0.7385 -0.3531
 2811TIP3    H2 8440   1.157   3.394   2.941  0.7654 -0.3611 -2.1000
 2812TIP3   OH2 8441   5.196   0.044   0.652  0.2314  0.0201 -0.5088
 2812TIP3    H1 8442   5.259   0.024   0.720 -0.1642 -2.3192 -0.7986
 2812TIP3    H2 8443   5.233   0.005   0.573  0.5288  2.4151 -1.5917
 2813TIP3   OH2 8444   2.783   3.872   3.529 -0.7846  0.1238 -0.1616
 2813TIP3    H1 8445   2.828   3.787   3.536 -1.3995 -0.1873  0.1153
 2813TIP3    H2 8446   2.776   3.888   3.435  1.0847  0.8133 -0.1910
 2814TIP3   OH2 8447   5.765   6.048   0.512 -0.0821 -0.3552  0.1580
 2814TIP3    H1 8448   5.765   6.118   0.578  0.4328  0.5810 -0.8173
 2814TIP3    H2 8449   5.850   6.005   0.524  0.5378  0.6081 -0.7090
 2815TIP3   OH2 8450   1.473   3.485   2.807  0.2526 -0.0955 -0.0492
 2815TIP3    H1 8451   1.483   3.394   2.780  0.1347 -0.9051  2.4986
 2815TIP3    H2 8452   1.384   3.490   2.842  0.5454  0.7766  0.5937
 2816TIP3   OH2 8453   4.676   5.436   4.213 -0.1391 -0.1051 -0.0180
 2816TIP3    H1 8454   4.748   5.410   4.270 -0.3987  1.7612  1.1720
 2816TIP3    H2 8455   4.612   5.365   4.221  0.4045 -0.4867  0.9771
 2817TIP3   OH2 8456   4.435   3.379   3.335 -0.0526  0.3684  0.2434
 2817TIP3    H1 8457   4.520   3.373   3.379 -0.2813  0.9515  0.7829
 2817TIP3    H2 8458   4.456   3.375   3.242  0.4860 -0.3751  0.3925
 2818TIP3   OH2 8459   1.952   5.972   3.673 -0.1239  0.2238 -0.2587
 2818TIP3    H1 8460   1.917   6.000   3.758  0.7900 -0.9915  0.5283
 2818TIP3    H2 8461   2.044   5.996   3.676  0.2417 -1.1521 -0.3186
 2819TIP3   OH2 8462   1.364   5.436   1.307 -0.7916 -0.1840  0.0090
 2819TIP3    H1 8463   1.382   5.349   1.342 -1.5217  0.7993  2.9986
 2819TIP3    H2 8464   1.423   5.494   1.356  1.8722  0.7086 -4.0409
 2820TIP3   OH2 8465   3.463   3.593   2.514  0.2120 -0.6218 -0.3609
 2820TIP3    H1 8466   3.406   3.639   2.452 -0.1724  0.3132  0.6811
 2820TIP3    H2 8467   3.420   3.509   2.529  0.1287 -0.7139 -1.0892
 2821TIP3   OH2 8468   2.372   5.478   0.633  0.0506 -0.0755 -0.5543
 2821TIP3    H1 8469   2.440   5.412   0.643 -0.3386 -0.4650 -0.4378
 2821TIP3    H2 8470   2.417   5.553   0.596  0.5908 -0.2445 -0.2580
 2822TIP3   OH2 8471   2.602   2.790   4.743  0.0038  0.2090  0.2373
 2822TIP3    H1 8472   2.524   2.766   4.692 -1.6721 -0.2689  2.8979
 2822TIP3    H2 8473   2.595   2.884   4.755 -1.1829 -0.0650  1.9728
 2823TIP3   OH2 8474   1.083   5.635   1.744  0.0968 -0.0627 -0.2646
 2823TIP3    H1 8475   1.152   5.672   1.689 -0.9230  0.7466 -1.0331
 2823TIP3    H2 8476   1.013   5.700   1.741 -0.6640 -0.8281  0.5768
 2824TIP3   OH2 8477   3.333   3.089   1.068 -0.4474  0.1437 -0.1211
 2824TIP3    H1 8478   3.358   3.072   1.159 -1.1903  1.2753  0.2975
 2824TIP3    H2 8479   3.237   3.085   1.068 -0.4704  0.6920 -0.7493
 2825TIP3   OH2 8480   2.837   4.150   3.121  0.0942 -0.1506 -0.0099
 2825TIP3    H1 8481   2.869   4.232   3.083 -0.3408  0.1571  0.2908
 2825TIP3    H2 8482   2.868   4.083   3.060  1.6549  0.1091  0.4699
 2826TIP3   OH2 8483   2.315   4.611   2.839 -0.3006 -0.3274  0.2630
 2826TIP3    H1 8484   2.239   4.627   2.894 -0.6395 -1.3131  0.0749
 2826TIP3    H2 8485   2.324   4.516   2.836  1.7222 -0.2017  1.3668
 2827TIP3   OH2 8486   3.174   4.099   2.190  0.0557 -0.3765  1.2321
 2827TIP3    H1 8487   3.092   4.053   2.172  1.2781 -2.1069 -0.0606
 2827TIP3    H2 8488   3.233   4.032   2.224  1.5062  0.4551  0.4281
 2828TIP3   OH2 8489   3.750   3.713   4.559 -0.0182 -0.4565 -0.2898
 2828TIP3    H1 8490   3.832   3.732   4.513  0.0638 -0.7923 -0.2854
 2828TIP3    H2 8491   3.691   3.681   4.491 -0.5177  0.8872 -0.4889
 2829TIP3   OH2 8492   0.833   2.239   0.786 -0.0914 -0.1639 -0.1098
 2829TIP3    H1 8493   0.862   2.269   0.872  1.1990 -1.9368  0.1046
 2829TIP3    H2 8494   0.822   2.320   0.735  0.1885  0.8384  1.3779
 2830TIP3   OH2 8495   3.049   3.565   3.099  0.1022 -0.4830  0.1880
 2830TIP3    H1 8496   3.068   3.517   3.179  0.0790 -2.2475 -0.8335
 2830TIP3    H2 8497   3.120   3.540   3.039 -0.4582 -0.0182 -0.6777
 2831TIP3   OH2 8498   2.452   3.322   2.012 -0.2509 -0.0969 -0.5010
 2831TIP3    H1 8499   2.510   3.370   2.071 -1.1626  1.1262 -0.5622
 2831TIP3    H2 8500   2.366   3.363   2.025 -1.1192 -1.8640 -0.3984
 2832TIP3   OH2 8501   2.886   5.208   1.211 -0.3499 -0.9459 -0.2329
 2832TIP3    H1 8502   2.894   5.150   1.286 -2.1179  0.1512  0.8236
 2832TIP3    H2 8503   2.806   5.180   1.166 -1.7006  1.1457  0.7562
 2833TIP3   OH2 8504   0.829   1.341   0.722  0.0704  0.1915 -0.3979
 2833TIP3    H1 8505   0.883   1.328   0.644  0.0795  1.6878 -0.6636
 2833TIP3    H2 8506   0.788   1.426   0.708  1.2068  1.1427  1.9083
 2834TIP3   OH2 8507   3.502   4.341   1.528 -0.0548 -0.2249  0.8625
 2834TIP3    H1 8508   3.506   4.360   1.622 -2.6225  1.8114  0.6322
 2834TIP3    H2 8509   3.574   4.392   1.490  1.3875 -1.5515  1.7799
 2835TIP3   OH2 8510   2.100   1.903   1.689 -0.0638  0.1858  0.8624
 2835TIP3    H1 8511   2.125   1.960   1.762 -0.1759 -0.0477  1.0839
 2835TIP3    H2 8512   2.022   1.858   1.721 -0.6211  0.7193  0.2792
 2836TIP3   OH2 8513   3.919   4.076   0.009  0.0777  0.1426 -0.8481
 2836TIP3    H1 8514   3.946   4.159   0.048  0.4436  0.4153 -1.6743
 2836TIP3    H2 8515   3.901   4.019   0.084  0.7860  0.6559 -0.2840
 2837TIP3   OH2 8516   1.756   3.914   2.766  0.4549  0.2655 -0.1054
 2837TIP3    H1 8517   1.836   3.948   2.807  0.7941  0.0740 -0.5978
 2837TIP3    H2 8518   1.788   3.851   2.701 -0.1031  0.1373 -0.2550
 2838TIP3   OH2 8519   2.935   0.385   2.386  0.4800 -0.3890  0.3985
 2838TIP3    H1 8520   3.012   0.348   2.344  0.5651 -1.5101  1.5160
 2838TIP3    H2 8521   2.917   0.466   2.337  1.0368 -1.2574 -1.2600
 2839TIP3   OH2 8522   1.821   3.467   4.445 -0.9283 -0.1378  0.0558
 2839TIP3    H1 8523   1.802   3.561   4.450 -1.9307 -0.3836  0.9922
 2839TIP3    H2 8524   1.908   3.462   4.405 -0.8170  1.1904  0.1257
 2840TIP3   OH2 8525   3.869   4.569   3.398  0.3165 -0.0457  0.7550
 2840TIP3    H1 8526   3.820   4.563   3.479  1.2731 -1.4962  1.2406
 2840TIP3    H2 8527   3.826   4.508   3.339  0.1807  0.3359  0.4542
 2841TIP3   OH2 8528   1.045   5.788   4.445 -0.0340  0.3002 -0.1017
 2841TIP3    H1 8529   1.083   5.815   4.361  0.6982 -2.3528 -0.6547
 2841TIP3    H2 8530   0.950   5.790   4.429  0.1331 -2.0913 -1.6542
 2842TIP3   OH2 8531   3.249   0.104   1.853  0.6869 -1.0400  0.3271
 2842TIP3    H1 8532   3.252   0.133   1.763  0.8340 -1.0941  0.3151
 2842TIP3    H2 8533   3.236   0.184   1.904  0.3384 -1.0397  0.2388
 2843TIP3   OH2 8534   3.459   0.093   2.200  0.5900  0.6023 -0.0883
 2843TIP3    H1 8535   3.430   0.026   2.139 -0.0562 -0.0951  0.9674
 2843TIP3    H2 8536   3.552   0.072   2.216  0.4390  0.0504  0.1011
 2844TIP3   OH2 8537   0.717   5.351   1.583 -0.0816 -0.8518 -0.1121
 2844TIP3    H1 8538   0.686   5.280   1.639 -0.0122 -0.5355  0.3348
 2844TIP3    H2 8539   0.679   5.333   1.497 -1.6282 -0.3819  0.4587
 2845TIP3   OH2 8540   2.483   3.980   3.046 -0.0723 -0.5161 -0.2432
 2845TIP3    H1 8541   2.551   3.920   3.015  4.0095  3.7617 -0.1984
 2845TIP3    H2 8542   2.487   3.974   3.141  0.4206 -0.1561 -0.2366
 2846TIP3   OH2 8543   4.459   5.820   2.736  0.9855  0.1876  0.0937
 2846TIP3    H1 8544   4.373   5.783   2.716  1.2276 -0.7393  0.7258
 2846TIP3    H2 8545   4.488   5.772   2.814  2.0918  0.4563 -0.1467
 2847TIP3   OH2 8546   6.146   0.503   3.784  0.2320 -0.8646 -0.2457
 2847TIP3    H1 8547   6.189   0.543   3.709 -0.4384  0.0944 -0.1264
 2847TIP3    H2 8548   6.096   0.430   3.747  1.7756 -1.8561 -0.4069
 2848TIP3   OH2 8549   1.901   5.206   3.862  0.0834 -0.4286  0.8005
 2848TIP3    H1 8550   1.866   5.200   3.773  0.9212 -0.8343  0.4993
 2848TIP3    H2 8551   1.868   5.290   3.894  1.6634  0.8101 -0.7258
 2849TIP3   OH2 8552   0.595   2.982   0.207  0.0021 -0.0734  0.3938
 2849TIP3    H1 8553   0.689   2.995   0.220  0.2770 -0.2380 -1.2728
 2849TIP3    H2 8554   0.586   2.888   0.196 -0.3055 -0.0134  0.1521
 2850TIP3   OH2 8555   2.209   4.130   2.077 -0.6571 -0.2906  0.1567
 2850TIP3    H1 8556   2.278   4.067   2.057 -0.9551 -0.2033 -1.1846
 2850TIP3    H2 8557   2.136   4.077   2.109 -0.2160 -0.4433  0.9204
 2851TIP3   OH2 8558   3.128   5.258   1.819  0.1187 -0.0168  0.1702
 2851TIP3    H1 8559   3.220   5.231   1.822  0.3386  0.7030 -0.0329
 2851TIP3    H2 8560   3.123   5.318   1.744 -0.1327  1.3551  1.2710
 2852TIP3   OH2 8561   1.840   3.257   2.873 -0.0417 -0.3416  0.8295
 2852TIP3    H1 8562   1.933   3.250   2.892  0.2381  0.9357  0.0141
 2852TIP3    H2 8563   1.801   3.289   2.954  0.2624 -0.6099  1.0838
 2853TIP3   OH2 8564   1.905   3.246   3.235  0.0340 -0.1879  0.2164
 2853TIP3    H1 8565   1.987   3.294   3.244  0.5677 -0.6624 -1.7417
 2853TIP3    H2 8566   1.841   3.312   3.208  0.2343 -0.1435 -0.1653
 2854TIP3   OH2 8567   2.783   2.912   2.861  0.1775 -0.9624  0.3366
 2854TIP3    H1 8568   2.780   3.008   2.853 -0.9542 -1.1131 -1.0059
 2854TIP3    H2 8569   2.772   2.896   2.955 -0.0565  0.2057  0.5169
 2855TIP3   OH2 8570   6.033   4.879   5.213  0.3888  0.6650 -0.5145
 2855TIP3    H1 8571   6.068   4.946   5.155  0.6414  0.0393 -1.0842
 2855TIP3    H2 8572   5.943   4.865   5.181  0.6601  0.0327 -1.0160
 2856TIP3   OH2 8573   1.820   2.469   1.989 -0.4376 -0.4498 -0.1777
 2856TIP3    H1 8574   1.793   2.381   2.017 -1.4336  0.0469  0.4329
 2856TIP3    H2 8575   1.879   2.453   1.915 -1.0555 -1.6155 -0.4334
 2857TIP3   OH2 8576   2.599   2.183   1.891  0.0170 -0.2103 -0.0768
 2857TIP3    H1 8577   2.631   2.240   1.821 -1.3302 -1.4054 -1.7231
 2857TIP3    H2 8578   2.526   2.136   1.851 -1.6833  0.0998  2.6029
 2858TIP3   OH2 8579   2.651   2.797   0.604  0.3316  0.0104 -0.0267
 2858TIP3    H1 8580   2.572   2.745   0.616  1.6892 -2.1676 -0.2559
 2858TIP3    H2 8581   2.674   2.786   0.512  0.9960  0.4931  0.0726
 2859TIP3   OH2 8582   0.087   3.565   5.194  0.4323 -0.0160  0.5711
 2859TIP3    H1 8583   0.026   3.494   5.217  0.1276  0.1104  0.1476
 2859TIP3    H2 8584   0.102   3.555   5.100  0.1162  0.6906  0.4390
 2860TIP3   OH2 8585   0.806   3.748   1.902  0.7270  0.2250 -0.7871
 2860TIP3    H1 8586   0.825   3.803   1.977  0.5141  0.0519 -0.6072
 2860TIP3    H2 8587   0.762   3.671   1.938 -0.6886  0.8034 -1.2583
 2861TIP3   OH2 8588   0.010   0.681   2.266 -0.4582 -0.1372  0.0436
 2861TIP3    H1 8589   0.019   0.776   2.257  0.2222 -0.1513  0.5452
 2861TIP3    H2 8590   0.000   0.649   2.176 -0.5827  0.3945 -0.1351
 2862TIP3   OH2 8591   2.097   0.781   0.872 -0.3855 -0.1941 -0.1930
 2862TIP3    H1 8592   2.110   0.866   0.914  0.8307 -0.4390 -0.0356
 2862TIP3    H2 8593   2.114   0.717   0.942  0.6843 -0.5839 -0.7875
 2863TIP3   OH2 8594   1.491   4.601   2.312  0.1276  0.4778  0.3048
 2863TIP3    H1 8595   1.504   4.596   2.217  2.6698  0.8780  0.6056
 2863TIP3    H2 8596   1.575   4.631   2.346 -1.1721  1.6266  2.5797
 2864TIP3   OH2 8597   6.143   5.289   2.839  0.0510 -0.3199  0.4065
 2864TIP3    H1 8598   6.067   5.300   2.895  0.2232  1.4797  0.2979
 2864TIP3    H2 8599   6.150   5.371   2.790  2.1546 -0.4019  0.5321
 2865TIP3   OH2 8600   2.502   5.635   2.478  0.1633  0.1576 -0.3438
 2865TIP3    H1 8601   2.441   5.604   2.411 -0.6336  2.0031 -0.5180
 2865TIP3    H2 8602   2.527   5.557   2.527 -3.3857 -0.4941  0.5804
 2866TIP3   OH2 8603   4.107   2.430   5.190  0.0277  0.0327  0.7356
 2866TIP3    H1 8604   4.042   2.462   5.253 -1.1934 -3.0258  1.1211
 2866TIP3    H2 8605   4.058   2.421   5.108  1.0440  1.7331 -0.0969
 2867TIP3   OH2 8606   5.397   4.969   3.202  1.2953  0.1052 -0.3283
 2867TIP3    H1 8607   5.448   5.033   3.251  1.6248  0.1426 -0.7168
 2867TIP3    H2 8608   5.432   4.973   3.113  0.4691  0.2881 -0.6520
 2868TIP3   OH2 8609   2.179   5.735   4.065 -0.2302  0.1195  0.4379
 2868TIP3    H1 8610   2.192   5.642   4.085 -1.6236  0.2829  2.1797
 2868TIP3    H2 8611   2.236   5.751   3.989  0.9022 -1.8670  0.8304
 2869TIP3   OH2 8612   2.429   2.397   1.216  0.3642  0.0312  0.3601
 2869TIP3    H1 8613   2.350   2.392   1.161  1.5593  1.5237 -1.5651
 2869TIP3    H2 8614   2.490   2.335   1.177  0.7979  0.2151  0.7389
 2870TIP3   OH2 8615   2.961   5.950   3.021 -0.2101  0.4548  0.0389
 2870TIP3    H1 8616   3.004   5.963   3.105  0.4851 -0.1185 -0.2233
 2870TIP3    H2 8617   2.869   5.970   3.037 -0.0492  0.5003  0.8907
 2871TIP3   OH2 8618   3.054   0.114   3.285  0.4396 -0.1732  0.2305
 2871TIP3    H1 8619   3.040   0.157   3.370 -0.6904  1.8701 -0.9543
 2871TIP3    H2 8620   2.975   0.062   3.272 -0.9220  2.1280 -1.0524
 2872TIP3   OH2 8621   4.871   4.306   1.173 -0.6598 -0.6507 -0.1584
 2872TIP3    H1 8622   4.787   4.262   1.160 -0.1049 -2.0939  1.0231
 2872TIP3    H2 8623   4.913   4.259   1.245 -0.0558  1.8643  1.1988
 2873TIP3   OH2 8624   5.714   0.388   3.164 -0.0438 -0.1496 -0.0911
 2873TIP3    H1 8625   5.722   0.295   3.142 -0.1587 -0.5270  1.4105
 2873TIP3    H2 8626   5.628   0.413   3.132  0.1470 -0.4501 -0.8576
 2874TIP3   OH2 8627   2.966   3.994   2.045  0.4524  0.3589 -0.1067
 2874TIP3    H1 8628   3.046   3.951   2.013  0.7386  0.1980  0.8096
 2874TIP3    H2 8629   2.925   4.028   1.966 -0.2201 -2.3118 -0.9861
 2875TIP3   OH2 8630   4.261   3.513   2.688  0.0318  0.5670  0.0523
 2875TIP3    H1 8631   4.351   3.493   2.661  0.3458 -0.3900  1.7883
 2875TIP3    H2 8632   4.208   3.447   2.643  0.1786  1.0913 -0.9211
 2876TIP3   OH2 8633   1.415   0.035   3.289 -0.0265  0.7458 -0.7954
 2876TIP3    H1 8634   1.427   0.105   3.226 -0.6154  0.6461 -1.0258
 2876TIP3    H2 8635   1.379  -0.038   3.238  1.8051 -0.1780 -0.8160
 2877TIP3   OH2 8636   1.111   1.849   1.888 -0.2281  0.1162 -0.6581
 2877TIP3    H1 8637   1.201   1.819   1.899 -0.1995  0.4511  0.0246
 2877TIP3    H2 8638   1.062   1.768   1.869  0.5807  0.2253 -3.4722
 2878TIP3   OH2 8639   5.011   4.176   2.125  0.3834 -0.1902 -0.0821
 2878TIP3    H1 8640   5.002   4.082   2.143 -0.3570 -0.0052  0.5476
 2878TIP3    H2 8641   5.016   4.182   2.030  1.6761 -0.9696 -0.0813
 2879TIP3   OH2 8642   3.008   3.460   4.808 -0.1744  0.2916 -0.1237
 2879TIP3    H1 8643   2.923   3.495   4.837 -0.2311  0.7632 -0.8291
 2879TIP3    H2 8644   2.986   3.382   4.758 -0.1755  0.3016 -0.1379
 2880TIP3   OH2 8645   1.966   5.464   2.460  0.4970  0.4753 -0.1050
 2880TIP3    H1 8646   2.019   5.385   2.462 -1.8135 -1.1715 -1.1819
 2880TIP3    H2 8647   2.026   5.533   2.431  1.8883 -1.4689 -2.0303
 2881TIP3   OH2 8648   5.749   4.397   0.836 -0.0587 -0.2277  0.3865
 2881TIP3    H1 8649   5.672   4.424   0.887 -0.5806  0.7121 -0.8947
 2881TIP3    H2 8650   5.789   4.327   0.889 -1.0582  0.1659  1.6810
 2882TIP3   OH2 8651   3.381   3.420   1.874  0.2703  0.6093  0.4857
 2882TIP3    H1 8652   3.448   3.380   1.818  0.7710  0.6472  1.0482
 2882TIP3    H2 8653   3.316   3.454   1.813 -0.1436 -1.0226 -0.0200
 2883TIP3   OH2 8654   3.646   4.185   1.183 -0.1240  0.2835  0.8292
 2883TIP3    H1 8655   3.653   4.273   1.219 -2.0243  0.3042  1.1679
 2883TIP3    H2 8656   3.712   4.182   1.113  0.5295  1.6792  1.3775
 2884TIP3   OH2 8657   0.551   0.937   4.013  0.6844 -0.8855  0.1001
 2884TIP3    H1 8658   0.512   0.859   4.051  0.7104 -1.0035 -0.1150
 2884TIP3    H2 8659   0.613   0.904   3.947 -0.8932 -0.6304 -1.5380
 2885TIP3   OH2 8660   4.998   3.823   3.092  0.0037 -0.0946 -0.2375
 2885TIP3    H1 8661   5.079   3.786   3.056  0.2637  0.7749 -0.5629
 2885TIP3    H2 8662   5.024   3.909   3.125 -0.9498  0.5265 -1.0755
 2886TIP3   OH2 8663   3.500   5.058   2.217 -0.7920 -0.0902 -0.2955
 2886TIP3    H1 8664   3.584   5.014   2.232 -0.9156  0.1865  1.3944
 2886TIP3    H2 8665   3.459   5.010   2.145 -0.3373 -1.9070  0.6354
 2887TIP3   OH2 8666   2.547   3.866   1.337  0.2138  0.0173  0.3502
 2887TIP3    H1 8667   2.611   3.796   1.341  1.9785  1.6670  2.2684
 2887TIP3    H2 8668   2.470   3.833   1.383  0.4564 -1.2043 -0.1251
 2888TIP3   OH2 8669   4.869   4.066   1.652 -0.0871 -0.5312 -0.4282
 2888TIP3    H1 8670   4.857   3.973   1.670  1.9919 -0.8434 -0.4919
 2888TIP3    H2 8671   4.933   4.068   1.581 -0.9709  0.9207 -1.1880
 2889TIP3   OH2 8672   0.749   0.598   5.189 -0.4831  0.4872  0.3857
 2889TIP3    H1 8673   0.777   0.563   5.274 -0.6872 -3.3729 -1.0535
 2889TIP3    H2 8674   0.653   0.593   5.192 -0.4434 -4.6617 -1.9107
 2890TIP3   OH2 8675   4.061   3.095   2.250  0.1289 -0.0697  0.1294
 2890TIP3    H1 8676   4.074   3.024   2.312  0.8403  2.3231  2.8191
 2890TIP3    H2 8677   3.976   3.132   2.274  0.0355  0.3666 -0.8611
 2891TIP3   OH2 8678   1.201   4.186   1.866  0.0119 -0.6790 -0.7443
 2891TIP3    H1 8679   1.214   4.135   1.946 -0.5758 -1.0059 -0.8460
 2891TIP3    H2 8680   1.134   4.137   1.818 -0.1207 -0.1282 -1.1256
 2892TIP3   OH2 8681   3.195   4.155   1.854  0.4387 -0.2045  0.2379
 2892TIP3    H1 8682   3.166   4.191   1.770  1.7609  1.3924  0.4363
 2892TIP3    H2 8683   3.284   4.188   1.865  1.0261 -2.0398  1.3425
 2893TIP3   OH2 8684   4.230   4.270   2.548  0.4014 -0.0364 -0.0032
 2893TIP3    H1 8685   4.245   4.207   2.619  0.4045 -0.3426 -0.2708
 2893TIP3    H2 8686   4.308   4.262   2.493  0.1622 -0.1853 -0.3251
 2894TIP3   OH2 8687   4.559   2.215   2.058 -0.3965 -0.2960 -0.1883
 2894TIP3    H1 8688   4.575   2.217   1.963  0.9977 -1.7081  0.0011
 2894TIP3    H2 8689   4.515   2.298   2.076  1.3609  1.0087 -1.7284
 2895TIP3   OH2 8690   4.569   3.308   1.051 -0.1400  0.0355  0.1955
 2895TIP3    H1 8691   4.637   3.246   1.078  0.0458  0.2926  0.3297
 2895TIP3    H2 8692   4.551   3.359   1.130  0.4711  0.8560 -0.1876
 2896TIP3   OH2 8693   2.723   3.481   0.157  0.4095 -0.0460 -0.3545
 2896TIP3    H1 8694   2.719   3.570   0.192 -0.9064  0.0172 -0.6329
 2896TIP3    H2 8695   2.811   3.474   0.120  0.9497  0.7153  0.7619
 2897TIP3   OH2 8696   3.881   3.749   3.312 -0.5558  0.4121 -0.4944
 2897TIP3    H1 8697   3.823   3.793   3.374  1.0424  1.0484  0.5824
 2897TIP3    H2 8698   3.883   3.658   3.340 -0.3633  0.5660 -0.0049
 2898TIP3   OH2 8699   4.310   3.651   2.440 -0.1898  0.5958  0.3524
 2898TIP3    H1 8700   4.345   3.740   2.433 -0.0866  0.6411  1.4309
 2898TIP3    H2 8701   4.308   3.633   2.534  1.6769 -1.2859  0.0786
 2899TIP3   OH2 8702   2.125   3.864   2.628 -0.0017 -0.2366 -0.4247
 2899TIP3    H1 8703   2.035   3.835   2.638 -0.0084  0.4361  1.5628
 2899TIP3    H2 8704   2.178   3.787   2.649 -0.0966 -0.3535 -0.6163
 2900TIP3   OH2 8705   4.861   5.227   3.547  0.1675 -0.0028 -0.2512
 2900TIP3    H1 8706   4.856   5.157   3.612  0.3431  0.6700  0.4905
 2900TIP3    H2 8707   4.946   5.267   3.562  0.0994  0.3239 -0.7347
 2901TIP3   OH2 8708   0.922   0.768   5.038  0.3263  0.3410 -0.1190
 2901TIP3    H1 8709   0.884   0.680   5.032  1.1081 -0.0488  0.5894
 2901TIP3    H2 8710   0.858   0.818   5.089  0.1928  0.0098  0.0417
 2902TIP3   OH2 8711   2.081   4.299   1.902  0.4524 -0.0873 -0.6851
 2902TIP3    H1 8712   2.121   4.219   1.937  0.3665  0.7534  1.4152
 2902TIP3    H2 8713   1.990   4.295   1.931  0.6089  1.0852 -0.0355
 2903TIP3   OH2 8714   3.684   4.944   2.506 -0.0026  0.3999 -0.0188
 2903TIP3    H1 8715   3.757   4.978   2.454  0.5816 -1.8371 -0.7300
 2903TIP3    H2 8716   3.725   4.903   2.582 -0.7015  1.4145  0.9272
 2904TIP3   OH2 8717   3.642   4.377   4.097  0.2683 -0.7059  0.3241
 2904TIP3    H1 8718   3.735   4.378   4.076 -0.2283  0.7165 -2.0239
 2904TIP3    H2 8719   3.606   4.307   4.043 -0.0175 -1.2734  1.2468
 2905TIP3   OH2 8720   4.015   5.484   3.853 -0.1851 -0.2102  0.3553
 2905TIP3    H1 8721   3.948   5.524   3.798 -0.9637 -2.3214 -0.2981
 2905TIP3    H2 8722   4.084   5.457   3.792  0.5763  0.5807  0.8476
 2906TIP3   OH2 8723   5.082   5.109   3.344  0.2593 -0.2449 -0.4037
 2906TIP3    H1 8724   5.111   5.053   3.272 -3.0255 -0.6962 -1.4789
 2906TIP3    H2 8725   5.083   5.197   3.307  0.1424 -0.2746 -0.4778
 2907TIP3   OH2 8726   2.543   3.317   0.443  0.4453  0.2783  0.3709
 2907TIP3    H1 8727   2.557   3.350   0.531  1.7240 -0.7921  0.5967
 2907TIP3    H2 8728   2.632   3.304   0.408 -0.0242 -1.3705 -0.2716
 2908TIP3   OH2 8729   4.864   3.391   3.921  0.0864 -0.5177  0.2665
 2908TIP3    H1 8730   4.952   3.360   3.945 -0.1665 -0.7538  0.9020
 2908TIP3    H2 8731   4.815   3.390   4.004 -0.6772 -0.9418 -0.1853
 2909TIP3   OH2 8732   0.048   4.347   1.503  0.2265  1.0867  0.9764
 2909TIP3    H1 8733   0.097   4.393   1.435  0.3076 -1.0192 -0.4156
 2909TIP3    H2 8734   0.089   4.260   1.508 -0.6891  0.7358  2.7257
 2910TIP3   OH2 8735   0.136   1.474   3.047 -0.3745  1.3126  0.0118
 2910TIP3    H1 8736   0.117   1.389   3.087  1.1078  0.4820 -0.9807
 2910TIP3    H2 8737   0.182   1.452   2.965  1.1459  3.0923  0.3535
 2911TIP3   OH2 8738   4.553   2.864   2.374 -0.0072 -0.1784  0.2999
 2911TIP3    H1 8739   4.527   2.807   2.446  0.5038  0.4297  0.9779
 2911TIP3    H2 8740   4.558   2.807   2.298 -1.3977 -0.6677  0.5656
 2912TIP3   OH2 8741   1.078   1.298   4.881  0.3024  0.2269 -0.3130
 2912TIP3    H1 8742   1.150   1.267   4.826  0.5900  0.0971  0.1342
 2912TIP3    H2 8743   1.045   1.219   4.925  1.1801  0.5712  0.9988
 2913TIP3   OH2 8744   1.812   1.866   4.517  0.4197  0.2416 -0.0692
 2913TIP3    H1 8745   1.744   1.817   4.563 -0.3052  0.8660 -0.4726
 2913TIP3    H2 8746   1.788   1.958   4.527  1.4242  0.4947  0.1215
 2914TIP3   OH2 8747   0.984   3.510   1.458  0.7173  0.4509 -0.4673
 2914TIP3    H1 8748   1.009   3.600   1.479 -2.7535  1.8272 -1.7196
 2914TIP3    H2 8749   0.937   3.480   1.536 -0.3896  0.7094 -1.0167
 2915TIP3   OH2 8750   1.006   3.785   1.524 -0.0184 -0.0755  0.1279
 2915TIP3    H1 8751   0.930   3.806   1.470 -1.3740 -1.8303  1.2616
 2915TIP3    H2 8752   1.039   3.870   1.553 -1.8267  0.7230 -0.0487
 2916TIP3   OH2 8753   5.474   4.872   2.158  0.3846  0.5127  0.0201
 2916TIP3    H1 8754   5.570   4.877   2.155  0.3084  2.4565  0.1942
 2916TIP3    H2 8755   5.455   4.778   2.167  2.3127  0.2681  1.8279
 2917TIP3   OH2 8756   5.224   5.144   2.139  0.2720  0.3931  0.1879
 2917TIP3    H1 8757   5.231   5.180   2.227 -1.8732 -1.3133  1.1155
 2917TIP3    H2 8758   5.154   5.194   2.098  0.3326  0.2724 -0.0627
 2918TIP3   OH2 8759   4.598   4.255   0.134 -0.4319 -0.2004 -0.1706
 2918TIP3    H1 8760   4.691   4.276   0.125 -0.6770  1.2278  0.4477
 2918TIP3    H2 8761   4.561   4.329   0.183 -2.1317 -0.1267 -1.5147
 2919TIP3   OH2 8762   4.600   0.699   2.544  0.3771 -0.3164  0.0726
 2919TIP3    H1 8763   4.557   0.700   2.459  1.0816  0.0587 -0.2862
 2919TIP3    H2 8764   4.560   0.626   2.591 -0.0467 -0.4926 -0.5616
 2920TIP3   OH2 8765   2.517   4.797   0.468 -0.1283  0.1095  0.0606
 2920TIP3    H1 8766   2.587   4.794   0.534 -1.0236 -1.0907  0.9732
 2920TIP3    H2 8767   2.436   4.805   0.518 -0.8891 -1.6402 -0.8490
 2921TIP3   OH2 8768   0.481   3.285   1.134 -0.4968 -0.2413 -0.3914
 2921TIP3    H1 8769   0.538   3.295   1.057 -2.4872 -1.4764 -2.0589
 2921TIP3    H2 8770   0.436   3.202   1.120 -3.1564  0.9936  0.5843
 2922TIP3   OH2 8771   4.165   3.090   3.555  0.0808 -0.2567 -0.1854
 2922TIP3    H1 8772   4.073   3.117   3.560  0.5708  1.3914  0.1871
 2922TIP3    H2 8773   4.180   3.076   3.461 -0.2233  0.6975 -0.3880
 2923TIP3   OH2 8774   3.225   2.588   2.597  0.2746  0.2892  0.2372
 2923TIP3    H1 8775   3.129   2.581   2.602  0.3751 -0.9877  0.4508
 2923TIP3    H2 8776   3.242   2.612   2.507 -0.3055  1.6564  0.4686
 2924TIP3   OH2 8777   5.547   4.356   3.628  0.1401 -0.4708 -1.0106
 2924TIP3    H1 8778   5.484   4.408   3.577  0.3533  0.6134 -0.1932
 2924TIP3    H2 8779   5.578   4.417   3.696  1.2099 -1.3512 -0.7079
 2925TIP3   OH2 8780   4.509   1.655   0.508  0.9760 -0.8579  0.5912
 2925TIP3    H1 8781   4.505   1.750   0.524  1.1824 -0.8987  0.8914
 2925TIP3    H2 8782   4.602   1.637   0.497  1.1266 -1.3319  2.4627
 2926TIP3   OH2 8783   1.054   0.290   3.898  0.4324 -0.0543 -0.4074
 2926TIP3    H1 8784   1.070   0.366   3.842  0.5832 -0.7157 -1.2834
 2926TIP3    H2 8785   0.967   0.305   3.936  0.8695  1.0138  0.1947
 2927TIP3   OH2 8786   1.633   4.646   2.073  0.5824 -0.2886  0.2706
 2927TIP3    H1 8787   1.584   4.577   2.030  1.6771 -1.6781  1.2067
 2927TIP3    H2 8788   1.720   4.609   2.087  1.0751  1.1253  1.1492
 2928TIP3   OH2 8789   4.707   5.765   2.576 -0.4750 -0.0771  0.1992
 2928TIP3    H1 8790   4.625   5.798   2.612 -0.1778  0.5492  0.3078
 2928TIP3    H2 8791   4.711   5.802   2.488 -2.1229 -3.1197 -1.2503
 2929TIP3   OH2 8792   0.865   2.173   3.576  0.2170  0.0340 -0.2431
 2929TIP3    H1 8793   0.843   2.087   3.542 -0.0479  0.3303 -0.8221
 2929TIP3    H2 8794   0.784   2.223   3.573  0.3948  0.3460 -0.0221
 2930TIP3   OH2 8795   3.885   3.415   0.709 -0.5132 -0.0556 -0.4834
 2930TIP3    H1 8796   3.933   3.498   0.699 -1.5927  0.7484  0.9188
 2930TIP3    H2 8797   3.939   3.363   0.768 -0.7630  0.3803  0.1300
 2931TIP3   OH2 8798   2.500   3.626   0.299 -0.1501 -0.0469 -0.3397
 2931TIP3    H1 8799   2.500   3.653   0.391  0.4111  0.6720 -0.5515
 2931TIP3    H2 8800   2.458   3.540   0.300 -1.2626  0.4897  0.4259
 2932TIP3   OH2 8801   3.514   3.805   0.150  0.7710 -0.2015 -0.5279
 2932TIP3    H1 8802   3.433   3.856   0.154  1.0326  0.4488 -2.7621
 2932TIP3    H2 8803   3.485   3.714   0.161 -0.0627  0.1565  0.3080
 2933TIP3   OH2 8804   3.772   3.132   2.312 -0.0431  0.3314 -0.0811
 2933TIP3    H1 8805   3.753   3.085   2.231  1.8134  0.0729 -0.4036
 2933TIP3    H2 8806   3.702   3.196   2.320 -0.0268  0.6420 -2.1348
 2934TIP3   OH2 8807   4.503   3.108   0.519  0.3509 -0.0000 -0.3632
 2934TIP3    H1 8808   4.514   3.148   0.433 -1.4831 -0.4493 -0.8334
 2934TIP3    H2 8809   4.503   3.013   0.502  0.7567 -0.1145  0.2389
 2935TIP3   OH2 8810   6.453   3.224   3.203  0.2808 -0.2325  0.0549
 2935TIP3    H1 8811   6.370   3.199   3.162  0.2664 -1.1552  0.6150
 2935TIP3    H2 8812   6.432   3.301   3.256 -0.6459 -1.5157  1.6226
 2936TIP3   OH2 8813   2.244   2.653   2.980 -0.0245  0.5969 -0.1452
 2936TIP3    H1 8814   2.294   2.652   3.061 -0.3861 -0.2368  0.0689
 2936TIP3    H2 8815   2.153   2.660   3.008 -0.3926 -2.7131 -0.3499
 2937TIP3   OH2 8816   6.311   5.363   3.794 -0.0839  0.2408 -0.3817
 2937TIP3    H1 8817   6.267   5.419   3.857  0.1702  0.6320 -0.5480
 2937TIP3    H2 8818   6.367   5.422   3.743 -1.4415  0.1725 -1.9924
 2938TIP3   OH2 8819   3.716   3.522   2.691  0.3449 -0.3997 -0.4155
 2938TIP3    H1 8820   3.702   3.589   2.625  0.2089  1.3133  1.3271
 2938TIP3    H2 8821   3.632   3.477   2.698 -0.9343  2.1396  1.5180
 2939TIP3   OH2 8822   2.381   4.497   0.800  0.2763  0.0159  0.0035
 2939TIP3    H1 8823   2.299   4.485   0.752 -0.8506  0.1374  1.8612
 2939TIP3    H2 8824   2.445   4.445   0.752 -1.1753 -1.1257 -0.7177
 2940TIP3   OH2 8825   4.234   2.738   1.138 -0.1020  0.0457 -0.5622
 2940TIP3    H1 8826   4.249   2.646   1.161  1.0319  0.6723  1.3639
 2940TIP3    H2 8827   4.157   2.762   1.188  0.1949  0.4127 -0.2813
 2941TIP3   OH2 8828   5.216   1.520   1.164  0.4285 -0.3853  0.2144
 2941TIP3    H1 8829   5.266   1.597   1.139  0.4144 -0.1361  0.9479
 2941TIP3    H2 8830   5.132   1.555   1.195 -0.3344 -0.8143 -1.3208
 2942TIP3   OH2 8831   5.656   5.202   4.889 -0.0639  0.0938  0.0207
 2942TIP3    H1 8832   5.708   5.131   4.853 -2.8994 -1.6826 -0.8063
 2942TIP3    H2 8833   5.698   5.224   4.972  1.7237 -1.5189 -0.4425
 2943TIP3   OH2 8834   0.533   0.786   2.764  0.0885 -0.2986  0.5355
 2943TIP3    H1 8835   0.493   0.860   2.720 -0.0252  0.3095  1.6318
 2943TIP3    H2 8836   0.471   0.714   2.753  0.3488 -0.3216 -0.8030
 2944TIP3   OH2 8837   5.050   3.829   1.840  0.7039 -0.6546  0.2449
 2944TIP3    H1 8838   5.123   3.796   1.788  0.7613 -0.0371 -0.0667
 2944TIP3    H2 8839   5.091   3.884   1.907  0.4384  0.6385 -0.6529
 2945TIP3   OH2 8840   2.379   3.884   0.322  0.0668  0.2097  0.5793
 2945TIP3    H1 8841   2.390   3.887   0.227 -0.0866 -0.7793  0.5309
 2945TIP3    H2 8842   2.385   3.976   0.349  4.0695  0.1929  0.0793
 2946TIP3   OH2 8843   3.121   2.847   2.591  0.6011 -0.2370  0.0921
 2946TIP3    H1 8844   3.098   2.872   2.681 -0.2458 -0.5857 -0.0204
 2946TIP3    H2 8845   3.148   2.756   2.597 -2.2526 -1.1609 -0.4344
 2947TIP3   OH2 8846   2.928   4.849   1.038 -0.0521 -0.1429  0.4655
 2947TIP3    H1 8847   3.010   4.870   1.082  0.2716 -0.4408  0.0086
 2947TIP3    H2 8848   2.861   4.893   1.090  0.5309  1.3697 -0.0206
 2948TIP3   OH2 8849   5.081   0.052   4.431 -0.0587 -0.0817 -0.2080
 2948TIP3    H1 8850   4.993   0.022   4.409 -0.1552  0.9026 -1.2111
 2948TIP3    H2 8851   5.134  -0.027   4.432 -0.9379 -0.6711  0.3305
 2949TIP3   OH2 8852   4.873   3.344   0.822  0.7072  0.3402  0.5601
 2949TIP3    H1 8853   4.871   3.436   0.793  0.2544  0.3359  0.5877
 2949TIP3    H2 8854   4.797   3.304   0.782  0.4712  0.1633  1.1849
 2950TIP3   OH2 8855   3.472   4.669   4.482  0.4963  0.0701 -0.2542
 2950TIP3    H1 8856   3.543   4.630   4.534  0.9581  1.6730  0.3457
 2950TIP3    H2 8857   3.497   4.652   4.391  0.4499 -1.4311  0.0007
 2951TIP3   OH2 8858   4.835   3.644   1.289  0.1431 -0.5131 -0.0619
 2951TIP3    H1 8859   4.876   3.727   1.262  1.6503 -2.0116 -2.5586
 2951TIP3    H2 8860   4.906   3.595   1.330 -0.5861 -0.8424  0.8064
 2952TIP3   OH2 8861   3.300   0.095   3.527 -1.4036  0.6808  0.2423
 2952TIP3    H1 8862   3.301   0.087   3.432  1.1349  0.4548  0.2486
 2952TIP3    H2 8863   3.314   0.006   3.559  0.1183  1.0852  0.7566
 2953TIP3   OH2 8864   3.420   4.225   0.006 -0.1111 -0.4118 -0.3859
 2953TIP3    H1 8865   3.330   4.199   0.022 -0.2563 -1.0322 -2.1299
 2953TIP3    H2 8866   3.469   4.142   0.001  0.3530 -0.1314 -0.5920
 2954TIP3   OH2 8867   4.450   5.559   2.926  0.3126 -0.2763  0.1522
 2954TIP3    H1 8868   4.432   5.605   3.008 -0.5418  0.4894 -0.4573
 2954TIP3    H2 8869   4.366   5.520   2.902  1.1186 -2.5863  0.9034
 2955TIP3   OH2 8870   3.223   4.429   1.438 -0.0594  0.4023  0.0999
 2955TIP3    H1 8871   3.181   4.418   1.523  1.0267 -0.9004  0.4807
 2955TIP3    H2 8872   3.316   4.438   1.459  0.1435  0.6607 -0.9145
 2956TIP3   OH2 8873   6.293   0.864   1.958  0.5279  0.5012 -0.2444
 2956TIP3    H1 8874   6.353   0.826   1.893  0.1104  0.9115 -0.8778
 2956TIP3    H2 8875   6.310   0.958   1.954  0.7198  0.5034  0.4728
 2957TIP3   OH2 8876   5.697   4.214   1.382 -0.0476 -0.0565  0.7466
 2957TIP3    H1 8877   5.729   4.290   1.430 -2.7407  2.5655 -1.4425
 2957TIP3    H2 8878   5.757   4.143   1.406  3.0707  2.9377  2.1261
 2958TIP3   OH2 8879   6.254   0.203   3.087  0.1081 -0.5122  0.2882
 2958TIP3    H1 8880   6.338   0.164   3.113  0.3644 -0.4689 -0.4633
 2958TIP3    H2 8881   6.217   0.140   3.025  0.1544  0.0577 -0.3230
 2959TIP3   OH2 8882   6.278   0.636   3.980  0.4110 -0.3182  0.0309
 2959TIP3    H1 8883   6.233   0.713   4.014  0.5925 -0.9518  1.7681
 2959TIP3    H2 8884   6.212   0.592   3.926  0.0363  0.5834 -0.2582
 2960TIP3   OH2 8885   2.887   4.587   1.142  0.0144  0.0751 -0.3262
 2960TIP3    H1 8886   2.908   4.506   1.095  0.0297  0.6063 -1.2545
 2960TIP3    H2 8887   2.903   4.656   1.077  0.2791  0.8358  0.5479
 2961TIP3   OH2 8888   1.559   4.469   1.874  0.0579 -0.2297  0.1936
 2961TIP3    H1 8889   1.521   4.501   1.792  2.3869  2.2392  0.0226
 2961TIP3    H2 8890   1.487   4.422   1.917 -1.3514 -1.0779 -2.9733
 2962TIP3   OH2 8891   3.912   4.765   2.319  0.2641 -0.1134  0.3139
 2962TIP3    H1 8892   3.838   4.705   2.314 -0.2502  0.6031 -1.0848
 2962TIP3    H2 8893   3.976   4.729   2.257  0.7551 -0.2874  0.9184
 2963TIP3   OH2 8894   4.860   0.684   2.646 -0.2771  0.2402 -0.3222
 2963TIP3    H1 8895   4.858   0.700   2.740  0.1729 -0.1818 -0.2400
 2963TIP3    H2 8896   4.769   0.694   2.618 -0.5056 -0.2528  0.2582
 2964TIP3   OH2 8897   3.537   5.255   1.144 -0.0884 -0.8357  0.0134
 2964TIP3    H1 8898   3.530   5.167   1.107 -1.6121 -0.7192 -0.0053
 2964TIP3    H2 8899   3.608   5.249   1.208 -0.8655 -2.3183  0.7422
 2965TIP3   OH2 8900   5.011   3.259   0.040 -0.5014  0.3922  0.1093
 2965TIP3    H1 8901   5.083   3.199   0.021 -0.0757 -0.7699  4.8292
 2965TIP3    H2 8902   4.944   3.237  -0.025  1.4475 -1.9523 -1.1993
 2966TIP3   OH2 8903   2.226   6.026   3.680 -0.5567  0.7601  0.2065
 2966TIP3    H1 8904   2.294   6.013   3.613 -0.9806  1.0156 -0.2804
 2966TIP3    H2 8905   2.260   6.097   3.735 -0.0515  0.3162  0.4710
 2967TIP3   OH2 8906   4.915   3.333   2.706  0.0613 -0.1553  0.5423
 2967TIP3    H1 8907   4.919   3.385   2.787  0.8128  1.3313 -0.4416
 2967TIP3    H2 8908   4.998   3.286   2.704 -0.0576 -0.3795  0.7393
 2968TIP3   OH2 8909   4.132   4.358   3.600 -0.3242  0.4567 -0.0058
 2968TIP3    H1 8910   4.137   4.291   3.532  0.0427  0.2595  0.2121
 2968TIP3    H2 8911   4.047   4.343   3.643 -0.2724  0.1750 -0.0009
 2969TIP3   OH2 8912   1.370   1.359   5.144  0.2166  0.0173 -0.6585
 2969TIP3    H1 8913   1.462   1.351   5.122  0.0967  0.5972 -1.3832
 2969TIP3    H2 8914   1.349   1.278   5.191  1.4660  0.5527  0.8630
 2970TIP3   OH2 8915   3.938   5.160   2.968 -0.5947  0.1693  0.1515
 2970TIP3    H1 8916   4.026   5.181   3.000  0.1968 -0.0442 -1.8077
 2970TIP3    H2 8917   3.950   5.085   2.911 -2.0031  0.3921 -0.4649
 2971TIP3   OH2 8918   3.603   5.035   1.622  0.1952  0.2470  0.0496
 2971TIP3    H1 8919   3.686   5.076   1.597 -0.1916  1.0907  0.1709
 2971TIP3    H2 8920   3.569   4.998   1.541  0.0855  0.9712 -0.2376
 2972TIP3   OH2 8921   2.921   4.086   2.840 -0.7742 -1.0776 -0.0203
 2972TIP3    H1 8922   3.006   4.047   2.859 -1.2358 -0.1749  4.4452
 2972TIP3    H2 8923   2.939   4.179   2.832 -1.2063 -0.9573  0.3468
 2973TIP3   OH2 8924   3.315   3.348   2.491  0.1405 -0.1873 -0.1510
 2973TIP3    H1 8925   3.308   3.349   2.586  1.6227 -1.7983  0.0194
 2973TIP3    H2 8926   3.227   3.370   2.460 -0.5275 -0.2737  1.5950
 2974TIP3   OH2 8927   5.203   2.993   4.944 -0.3853 -0.5537 -0.1583
 2974TIP3    H1 8928   5.197   2.898   4.954  0.4166 -0.5461  0.4724
 2974TIP3    H2 8929   5.252   3.007   4.864  0.9895 -0.6930  0.6459
 2975TIP3   OH2 8930   3.374   2.587   1.116 -0.0224 -0.0081  0.2323
 2975TIP3    H1 8931   3.287   2.621   1.094  0.3854  0.2955 -0.9491
 2975TIP3    H2 8932   3.405   2.546   1.035  1.4730  1.0778  0.2208
 2976TIP3   OH2 8933   0.487   0.556   5.150 -0.4894  0.2188 -0.3524
 2976TIP3    H1 8934   0.492   0.462   5.133  0.9283  0.4391 -1.2138
 2976TIP3    H2 8935   0.449   0.594   5.071 -1.2828  0.3624  0.0849
 2977TIP3   OH2 8936   3.454   2.645   0.765  0.1084  0.0152 -0.5055
 2977TIP3    H1 8937   3.474   2.698   0.843 -1.1574 -1.2453  0.7115
 2977TIP3    H2 8938   3.508   2.567   0.775 -1.3172 -0.9215  0.0006
 2978TIP3   OH2 8939   3.245   3.251   0.741  0.2299  0.2889 -0.6086
 2978TIP3    H1 8940   3.338   3.257   0.765 -0.1005  1.8288  0.3143
 2978TIP3    H2 8941   3.208   3.335   0.767 -0.7880  0.9134 -3.8634
 2979TIP3   OH2 8942   3.472   3.912   0.549 -0.2009  0.7603  0.2064
 2979TIP3    H1 8943   3.521   3.994   0.540  0.9246  0.1463  0.6394
 2979TIP3    H2 8944   3.495   3.879   0.636  0.3640 -0.6623 -0.4676
 2980TIP3   OH2 8945   2.577   6.123   1.057  0.6451  0.3426 -0.0680
 2980TIP3    H1 8946   2.647   6.086   1.004 -0.0793 -2.3642  0.7691
 2980TIP3    H2 8947   2.529   6.047   1.090 -0.5295  2.0265  2.2834
 2981TIP3   OH2 8948   3.052   3.241   0.270  0.0933  0.0585  0.5681
 2981TIP3    H1 8949   3.146   3.222   0.268  0.0987  0.1914 -0.4959
 2981TIP3    H2 8950   3.012   3.158   0.298  0.3185 -0.8054 -1.6103
 2982TIP3   OH2 8951   0.545   2.209   2.640 -0.0974 -0.3778  0.8540
 2982TIP3    H1 8952   0.491   2.284   2.616  0.6924 -0.5149 -1.4842
 2982TIP3    H2 8953   0.625   2.248   2.676  0.0289 -0.1006  0.2821
 2983TIP3   OH2 8954   5.544   3.542   2.045 -0.5892  0.1920 -0.3680
 2983TIP3    H1 8955   5.560   3.569   2.136  2.2840 -0.1343 -0.7274
 2983TIP3    H2 8956   5.602   3.466   2.032 -2.9967 -1.4866 -1.6534
 2984TIP3   OH2 8957   4.992   3.496   1.491  0.5665  0.4786 -0.5702
 2984TIP3    H1 8958   4.936   3.495   1.569  2.2985 -1.0089  0.6749
 2984TIP3    H2 8959   4.975   3.412   1.448  0.4755  0.8146 -1.2049
 2985TIP3   OH2 8960   2.924   4.482   2.500 -0.0979  0.3279  0.0145
 2985TIP3    H1 8961   2.952   4.442   2.418 -2.5100  2.0988 -1.7875
 2985TIP3    H2 8962   2.924   4.576   2.481 -4.4965  0.5654  0.6906
 2986TIP3   OH2 8963   0.182   0.333   1.172 -0.2201 -0.2062 -0.2867
 2986TIP3    H1 8964   0.135   0.378   1.102  0.3531  1.3806  0.3186
 2986TIP3    H2 8965   0.193   0.399   1.240  0.2471 -1.3988  0.8313
 2987TIP3   OH2 8966   2.862   4.969   1.975  0.1920  0.1826 -0.3646
 2987TIP3    H1 8967   2.832   5.060   1.975  1.0829  0.4915 -1.6902
 2987TIP3    H2 8968   2.957   4.975   1.976  0.2730 -0.7214 -2.0273
 2988TIP3   OH2 8969   4.329   5.562   3.176  0.7560  0.0845  0.4831
 2988TIP3    H1 8970   4.235   5.565   3.159  0.5060 -2.4416  1.3089
 2988TIP3    H2 8971   4.339   5.595   3.265  0.5783 -0.3925  0.6771
 2989TIP3   OH2 8972   3.894   4.850   3.409 -0.2639 -0.3450 -0.1379
 2989TIP3    H1 8973   3.893   4.754   3.408  1.5333 -0.3960 -2.0409
 2989TIP3    H2 8974   3.816   4.874   3.457 -1.6711 -2.7688 -1.0854
 2990TIP3   OH2 8975   3.811   5.562   1.941 -0.4222  0.1429 -0.1991
 2990TIP3    H1 8976   3.894   5.584   1.899 -0.2030 -1.0633 -0.4165
 2990TIP3    H2 8977   3.751   5.631   1.913  0.1682  0.2984 -1.1032
 2991TIP3   OH2 8978   3.139   4.053   1.251  0.2231  0.0860  0.1601
 2991TIP3    H1 8979   3.155   4.068   1.158 -0.4152 -1.7209 -0.2577
 2991TIP3    H2 8980   3.222   4.074   1.294  0.9661 -0.5376 -0.9776
 2992TIP3   OH2 8981   0.748   0.093   2.086  0.5702 -0.3741  0.0149
 2992TIP3    H1 8982   0.689   0.159   2.122  1.9405  2.5346 -2.8790
 2992TIP3    H2 8983   0.689   0.021   2.060 -1.4581  1.4267 -0.5448
 2993TIP3   OH2 8984   3.498   5.393   0.424 -0.0738 -0.2892 -0.8176
 2993TIP3    H1 8985   3.503   5.315   0.480  0.9627  0.7000  0.5157
 2993TIP3    H2 8986   3.486   5.359   0.336 -0.5580 -1.9312 -0.1364
 2994TIP3   OH2 8987   3.390   5.475   3.381 -0.0448 -0.2468  0.6218
 2994TIP3    H1 8988   3.401   5.528   3.302  0.8409  0.7095  1.3657
 2994TIP3    H2 8989   3.315   5.514   3.426 -0.6636 -0.9064  0.1604
 2995TIP3   OH2 8990   2.099   4.542   0.793 -0.2058  0.2068  0.4549
 2995TIP3    H1 8991   2.043   4.473   0.758 -1.4068  1.0856  0.6179
 2995TIP3    H2 8992   2.110   4.603   0.720  0.6103 -0.0045  0.3978
 2996TIP3   OH2 8993   3.205   3.876   1.951  0.3247  0.2682  0.2408
 2996TIP3    H1 8994   3.252   3.825   1.885  0.8349 -0.7353  1.3797
 2996TIP3    H2 8995   3.232   3.967   1.934 -0.9534  0.2738 -2.0888
 2997TIP3   OH2 8996   4.567   3.507   2.619  0.2477  0.2403  1.1336
 2997TIP3    H1 8997   4.619   3.514   2.699 -0.4265  1.0387  1.5105
 2997TIP3    H2 8998   4.621   3.454   2.560  0.4912 -0.8511  2.3178
 2998TIP3   OH2 8999   4.206   5.584   1.412  0.4268 -0.0122 -0.5556
 2998TIP3    H1 9000   4.127   5.591   1.467  0.9370 -2.4590  0.5900
 2998TIP3    H2 9001   4.172   5.568   1.324 -0.4380 -2.5940  0.1794
 2999TIP3   OH2 9002   4.574   6.046   3.841  0.4950 -0.1328  0.1077
 2999TIP3    H1 9003   4.617   6.112   3.788  1.5278 -0.8220  0.0754
 2999TIP3    H2 9004   4.547   5.978   3.779 -1.9494  0.9444 -0.0812
 3000TIP3   OH2 9005   5.318   5.616   2.876  0.0602  0.5610 -0.3139
 3000TIP3    H1 9006   5.236   5.624   2.827 -0.9452 -1.2023  1.0046
 3000TIP3    H2 9007   5.325   5.523   2.896  0.7911  1.1236  2.2773
 3001TIP3   OH2 9008   4.436   2.193   0.402  0.1119 -0.7352 -0.1681
 3001TIP3    H1 9009   4.352   2.239   0.405  0.5505  0.0099  1.4165
 3001TIP3    H2 9010   4.502   2.262   0.409  0.8759 -1.3039 -1.5106
 3002TIP3   OH2 9011   4.739   4.542   4.221  0.1803  0.3298  0.2627
 3002TIP3    H1 9012   4.792   4.463   4.232  0.5746  0.9148  2.8588
 3002TIP3    H2 9013   4.680   4.521   4.148  1.6344 -1.6001 -0.4100
 3003TIP3   OH2 9014   6.104   0.269   1.796 -0.3720 -0.5581  0.2815
 3003TIP3    H1 9015   6.084   0.287   1.888 -0.4124 -0.3595  0.2341
 3003TIP3    H2 9016   6.162   0.340   1.769  0.0704 -0.9078  0.3009
 3004TIP3   OH2 9017   3.926   3.433   3.430 -0.6438  0.0423 -0.6393
 3004TIP3    H1 9018   4.002   3.487   3.408 -0.8289  0.5229 -0.1080
 3004TIP3    H2 9019   3.899   3.394   3.346  0.4093 -0.4282 -0.7607
 3005TIP3   OH2 9020   3.141   3.234   5.076 -0.2930  0.7339 -0.2943
 3005TIP3    H1 9021   3.127   3.186   5.158 -1.1108  1.2843 -0.1011
 3005TIP3    H2 9022   3.077   3.197   5.016  0.3546  0.2821 -0.7166
 3006TIP3   OH2 9023   0.296   0.668   2.517 -0.3025 -0.5689 -0.1935
 3006TIP3    H1 9024   0.245   0.747   2.530 -0.6124 -0.5732 -1.3953
 3006TIP3    H2 9025   0.312   0.635   2.606 -1.8994 -0.2751  0.2139
 3007TIP3   OH2 9026   2.867   5.699   4.635 -0.2377 -0.3041  0.9287
 3007TIP3    H1 9027   2.953   5.720   4.672  0.0827 -0.0302  0.0295
 3007TIP3    H2 9028   2.805   5.730   4.702  0.2353  2.7997  0.0349
 3008TIP3   OH2 9029   3.861   4.150   3.190  0.7017 -0.2292  0.4349
 3008TIP3    H1 9030   3.910   4.227   3.220 -1.2534  1.3693 -0.3570
 3008TIP3    H2 9031   3.928   4.083   3.176  2.6155  1.7286 -0.1172
 3009TIP3   OH2 9032   3.723   3.846   0.388  0.0306 -0.3154 -0.3626
 3009TIP3    H1 9033   3.647   3.861   0.332  0.0642 -2.8009 -1.1237
 3009TIP3    H2 9034   3.694   3.780   0.450  1.5899 -1.3554 -0.7233
 3010TIP3   OH2 9035   4.190   4.124   3.380  0.3207  1.0137  0.0239
 3010TIP3    H1 9036   4.198   4.029   3.387 -1.4995  0.9473  1.6868
 3010TIP3    H2 9037   4.157   4.139   3.292 -1.0372 -0.0197  0.3508
 3011TIP3   OH2 9038   5.919   4.039   1.424 -0.2620 -0.0516  0.0534
 3011TIP3    H1 9039   5.963   4.060   1.342 -0.6670 -1.0796 -0.4402
 3011TIP3    H2 9040   5.958   3.956   1.451 -0.4499  0.0605  0.6658
 3012TIP3   OH2 9041   4.171   3.822   3.450  0.0985  0.2788 -0.0986
 3012TIP3    H1 9042   4.172   3.734   3.412 -1.4445 -0.0918  0.6870
 3012TIP3    H2 9043   4.210   3.812   3.536  0.0505  0.3882 -0.0636
 3013TIP3   OH2 9044   3.808   5.198   1.605 -0.1534 -0.2615 -0.5571
 3013TIP3    H1 9045   3.749   5.261   1.646 -0.4220 -0.4393 -0.6626
 3013TIP3    H2 9046   3.895   5.235   1.615 -0.2406 -0.2028 -0.0135
 3014TIP3   OH2 9047   5.580   0.600   0.692  0.4246 -0.7186 -0.8446
 3014TIP3    H1 9048   5.551   0.572   0.779 -0.2397  1.8580 -0.2060
 3014TIP3    H2 9049   5.504   0.645   0.655  0.8428 -1.4114 -2.6128
 3015TIP3   OH2 9050   2.289   5.461   1.976 -0.0765  0.1055  0.2267
 3015TIP3    H1 9051   2.339   5.415   1.908 -0.8385 -1.3832  0.6657
 3015TIP3    H2 9052   2.216   5.403   1.996 -2.0817  2.3339 -0.4896
 3016TIP3   OH2 9053   4.997   1.110   2.343  0.2251  0.2846 -0.2235
 3016TIP3    H1 9054   4.957   1.030   2.378  0.6041  0.2912  0.2313
 3016TIP3    H2 9055   4.923   1.160   2.309 -0.2178  0.5192  1.0457
 3017TIP3   OH2 9056   4.357   3.303   1.917  0.3343  0.0140 -0.0315
 3017TIP3    H1 9057   4.295   3.369   1.947 -0.2492 -0.7050  0.3674
 3017TIP3    H2 9058   4.312   3.219   1.931  1.2593 -0.4943 -0.0382
 3018TIP3   OH2 9059   5.960   4.886   2.605  0.1326 -0.3661 -0.1879
 3018TIP3    H1 9060   5.888   4.825   2.586 -0.8009  0.8091 -0.5472
 3018TIP3    H2 9061   6.005   4.848   2.680  1.6741 -3.2595 -2.4512
 3019TIP3   OH2 9062   6.255   4.672   1.103 -0.0412  0.5582  0.2910
 3019TIP3    H1 9063   6.276   4.629   1.020  1.4498  0.0400  0.9206
 3019TIP3    H2 9064   6.185   4.620   1.141 -0.4138  0.5295 -0.4275
 3020TIP3   OH2 9065   1.648   0.177   4.866  0.1125  0.0714 -0.7004
 3020TIP3    H1 9066   1.702   0.098   4.866  0.8504  0.5651 -1.2203
 3020TIP3    H2 9067   1.621   0.188   4.957 -0.3914 -1.0420 -0.7052
 3021TIP3   OH2 9068   3.562   5.759   2.139 -0.1904 -0.1455  0.4815
 3021TIP3    H1 9069   3.628   5.701   2.177 -0.6103 -0.6728  0.4155
 3021TIP3    H2 9070   3.607   5.804   2.068 -0.2043 -1.3760 -0.3313
 3022TIP3   OH2 9071   5.455   1.775   2.233 -0.2358  0.4879 -0.0753
 3022TIP3    H1 9072   5.421   1.862   2.254  2.0558  1.6609 -1.0568
 3022TIP3    H2 9073   5.476   1.737   2.318 -0.3625  1.2748  0.3160
 3023TIP3   OH2 9074   5.178   5.232   3.748 -0.3721  0.2533  0.2853
 3023TIP3    H1 9075   5.153   5.200   3.834 -1.5860  2.2357  0.7039
 3023TIP3    H2 9076   5.121   5.308   3.732  2.0330  1.9213 -0.8591
 3024TIP3   OH2 9077   5.236   3.103   0.225 -0.3776  0.2195  0.7043
 3024TIP3    H1 9078   5.239   3.117   0.130  1.5559 -0.3352  0.6536
 3024TIP3    H2 9079   5.198   3.016   0.235  1.0912 -0.4951  0.3185
 3025TIP3   OH2 9080   3.694   2.485   1.755 -0.0279 -0.1478  0.4533
 3025TIP3    H1 9081   3.733   2.436   1.828 -1.3353  0.2160  1.4268
 3025TIP3    H2 9082   3.665   2.418   1.694 -1.6645 -0.6283  1.7070
 3026TIP3   OH2 9083   0.941   5.879   3.251 -0.5441  0.4137  0.6953
 3026TIP3    H1 9084   0.857   5.889   3.296 -1.2362 -0.4945 -0.3758
 3026TIP3    H2 9085   0.958   5.784   3.255 -1.6202  0.0275 -2.7450
 3027TIP3   OH2 9086   2.820   5.735   2.945 -0.4567  0.0471  0.1876
 3027TIP3    H1 9087   2.881   5.801   2.979  0.8438 -1.1737  0.3080
 3027TIP3    H2 9088   2.822   5.748   2.850  0.3103 -0.2538  0.1607
 3028TIP3   OH2 9089   6.507   0.093   3.696 -0.2836  0.2323  0.1109
 3028TIP3    H1 9090   6.422   0.078   3.654  0.9706 -0.5439 -2.2222
 3028TIP3    H2 9091   6.551   0.009   3.691  0.6356  0.6404  1.2892
 3029TIP3   OH2 9092   4.353   4.358   1.436  0.3662 -0.1874 -0.0546
 3029TIP3    H1 9093   4.362   4.426   1.502 -0.8078 -0.6204  0.5611
 3029TIP3    H2 9094   4.345   4.277   1.487  1.8058 -0.8064 -0.7753
 3030TIP3   OH2 9095   4.090   1.559   1.072  0.0671 -0.2588  0.1173
 3030TIP3    H1 9096   4.032   1.602   1.135  2.5944  2.4306  0.7039
 3030TIP3    H2 9097   4.135   1.491   1.123  0.0418  0.0239  0.5145
 3031TIP3   OH2 9098   4.717   4.205   2.598 -0.2308  0.0355 -0.3547
 3031TIP3    H1 9099   4.797   4.226   2.645 -0.5415 -0.9156  0.6431
 3031TIP3    H2 9100   4.647   4.248   2.649 -0.5239 -0.6378 -0.1778
 3032TIP3   OH2 9101   0.081   6.004   0.218  0.2858 -0.0228  0.3367
 3032TIP3    H1 9102   0.027   6.052   0.280  1.2330 -0.0523  1.1901
 3032TIP3    H2 9103   0.108   6.069   0.154 -0.0232  0.1799  0.4131
 3033TIP3   OH2 9104   5.162   4.408   2.093 -0.1799  0.6006  0.1526
 3033TIP3    H1 9105   5.124   4.337   2.144 -0.7725 -0.4542 -1.6763
 3033TIP3    H2 9106   5.251   4.418   2.128  0.0827 -1.4036  0.1182
 3034TIP3   OH2 9107   4.931   4.562   1.456  0.2930 -0.6104 -0.4529
 3034TIP3    H1 9108   4.947   4.532   1.367 -0.6354 -1.2082 -0.4239
 3034TIP3    H2 9109   4.861   4.506   1.488 -0.3377  0.5153  0.1736
 3035TIP3   OH2 9110   1.880   3.536   0.788  0.3726 -0.1460 -0.3267
 3035TIP3    H1 9111   1.862   3.486   0.708 -0.1879 -0.7165  0.1512
 3035TIP3    H2 9112   1.796   3.542   0.832  0.4624  1.1452 -0.3253
 3036TIP3   OH2 9113   2.966   3.750   1.740  0.4058  0.1932  0.0432
 3036TIP3    H1 9114   2.958   3.843   1.758  0.3418 -0.0535  1.3345
 3036TIP3    H2 9115   2.967   3.709   1.826  1.9992 -0.8793 -0.4543
 3037TIP3   OH2 9116   4.651   4.051   3.277 -0.4167 -0.1868 -0.4891
 3037TIP3    H1 9117   4.724   4.052   3.339  0.4218 -1.4141 -1.4394
 3037TIP3    H2 9118   4.582   4.101   3.321  1.2457  1.6901  0.0717
 3038TIP3   OH2 9119   2.776   2.305   1.399 -0.4339  0.2812 -0.5846
 3038TIP3    H1 9120   2.804   2.333   1.312  0.6504 -0.1335 -0.3845
 3038TIP3    H2 9121   2.833   2.354   1.459 -0.6245 -0.0428 -0.1396
 3039TIP3   OH2 9122   2.299   2.885   1.444  0.0243 -0.2142 -0.3026
 3039TIP3    H1 9123   2.240   2.895   1.519  1.4464 -0.1347  0.8308
 3039TIP3    H2 9124   2.350   2.967   1.443  0.3037 -0.3980 -1.0827
 3040TIP3   OH2 9125   4.519   4.004   0.068  0.1884 -0.0559  0.0575
 3040TIP3    H1 9126   4.580   3.979  -0.002 -1.4594 -0.4773 -1.2607
 3040TIP3    H2 9127   4.551   4.089   0.098  0.2343  0.7062 -2.0418
 3041TIP3   OH2 9128   3.154   3.267   1.466  0.0742 -0.2150 -0.0713
 3041TIP3    H1 9129   3.148   3.340   1.404 -2.7311 -0.9643 -0.7790
 3041TIP3    H2 9130   3.190   3.306   1.545 -0.7509  1.8315 -0.6476
 3042TIP3   OH2 9131   3.042   5.430   4.957  0.1184 -0.2142  0.6478
 3042TIP3    H1 9132   3.002   5.364   4.900  0.8449  1.2221 -1.5663
 3042TIP3    H2 9133   2.968   5.485   4.985  0.2841  1.6406 -2.3758
 3043TIP3   OH2 9134   3.053   5.227   2.544 -0.6848  0.6238  0.2571
 3043TIP3    H1 9135   3.145   5.240   2.519 -0.5730  0.7589  0.7349
 3043TIP3    H2 9136   3.037   5.134   2.527 -0.6764  0.7609 -0.5251
 3044TIP3   OH2 9137   2.366   0.367   5.208  0.4952  0.4715 -0.1172
 3044TIP3    H1 9138   2.410   0.293   5.248  1.6105  1.7806  1.1173
 3044TIP3    H2 9139   2.429   0.401   5.144  1.6564  2.7590  2.1228
 3045TIP3   OH2 9140   3.558   4.887   1.133  0.0251 -0.0545  0.0250
 3045TIP3    H1 9141   3.618   4.813   1.141 -0.5338 -0.5342 -0.1646
 3045TIP3    H2 9142   3.530   4.885   1.041  0.9044  1.0999 -0.2761
 3046TIP3   OH2 9143   5.324   2.401   1.814  0.0557  0.3843  0.1387
 3046TIP3    H1 9144   5.376   2.412   1.734  0.5305  0.8962  0.5151
 3046TIP3    H2 9145   5.285   2.486   1.829 -1.0028 -0.0390 -0.2151
 3047TIP3   OH2 9146   4.691   3.032   3.278 -0.5374 -0.2107  0.1790
 3047TIP3    H1 9147   4.758   2.965   3.294  0.6948  0.6557 -1.2765
 3047TIP3    H2 9148   4.707   3.098   3.346  0.8292  0.5525 -0.8779
 3048TIP3   OH2 9149   4.197   5.231   3.105 -0.7138 -0.4894  0.1340
 3048TIP3    H1 9150   4.163   5.241   3.194  0.4262  0.7329  0.4554
 3048TIP3    H2 9151   4.280   5.186   3.116 -0.2243  0.3081 -0.2332
 3049TIP3   OH2 9152   3.852   4.130   1.628  0.7213  0.3866  0.1971
 3049TIP3    H1 9153   3.795   4.097   1.558  0.8393  0.3451  0.1194
 3049TIP3    H2 9154   3.822   4.084   1.706  0.3412  0.7147  0.2465
 3050TIP3   OH2 9155   1.937   1.157   5.016  0.1793 -0.0715 -0.1579
 3050TIP3    H1 9156   1.996   1.093   5.056  0.7814  0.4838 -0.1413
 3050TIP3    H2 9157   1.887   1.107   4.952  3.1569  0.0816 -2.7359
 3051TIP3   OH2 9158   3.221   5.891   3.580 -0.3745  0.3676 -0.2127
 3051TIP3    H1 9159   3.194   5.892   3.672  0.8524  0.5658  0.1524
 3051TIP3    H2 9160   3.217   5.798   3.555 -0.4688  0.2824  0.1144
 3052TIP3   OH2 9161   0.878   4.870   0.922 -0.1891  0.0104 -0.1946
 3052TIP3    H1 9162   0.897   4.962   0.908  0.3968 -0.2751 -1.2732
 3052TIP3    H2 9163   0.896   4.855   1.015  0.0941  0.8797 -0.1133
 3053TIP3   OH2 9164   5.629   5.552   1.846 -0.3669 -0.0938  0.0661
 3053TIP3    H1 9165   5.594   5.553   1.757 -0.7409 -0.0019  0.2147
 3053TIP3    H2 9166   5.584   5.624   1.891 -0.1163 -0.0817  0.3061
 3054TIP3   OH2 9167   3.446   6.030   4.127  0.1077 -0.4551  0.3411
 3054TIP3    H1 9168   3.389   5.973   4.076  0.2456  0.1121 -0.4558
 3054TIP3    H2 9169   3.390   6.104   4.150  0.0586 -0.6891  0.9795
 3055TIP3   OH2 9170   4.421   2.807   1.834  0.8714  0.1857  0.6946
 3055TIP3    H1 9171   4.406   2.733   1.775  0.6220 -1.0565  2.2793
 3055TIP3    H2 9172   4.337   2.851   1.839  1.1135  0.8353 -0.5492
 3056TIP3   OH2 9173   4.461   3.994   1.097 -0.2639 -0.0472 -0.1843
 3056TIP3    H1 9174   4.481   3.961   1.184 -0.9407  0.8837  0.3400
 3056TIP3    H2 9175   4.409   3.924   1.056  0.0725 -0.4935  0.1457
 3057TIP3   OH2 9176   4.222   5.473   1.923  0.3450 -0.1062  0.1123
 3057TIP3    H1 9177   4.272   5.552   1.942 -0.7829  0.6515  0.0084
 3057TIP3    H2 9178   4.285   5.402   1.930  1.0697  0.6574  1.6149
 3058TIP3   OH2 9179   3.407   5.195   1.767 -0.3988 -0.4364  0.6022
 3058TIP3    H1 9180   3.432   5.109   1.734  0.0490 -0.8048  1.8701
 3058TIP3    H2 9181   3.464   5.256   1.720 -0.0070 -0.9253  0.4404
 3059TIP3   OH2 9182   3.372   1.605   3.006  0.4300 -0.1057  0.3206
 3059TIP3    H1 9183   3.308   1.598   2.935  0.6987 -0.8035  0.1456
 3059TIP3    H2 9184   3.407   1.517   3.016 -0.4448 -0.2749  2.1128
 3060TIP3   OH2 9185   3.854   1.710   2.321 -0.1105  0.2319 -0.6206
 3060TIP3    H1 9186   3.789   1.737   2.386 -0.2552 -0.8728 -0.2899
 3060TIP3    H2 9187   3.884   1.791   2.281 -0.2950  0.8965  0.5797
 3061TIP3   OH2 9188   5.465   0.391   3.014  0.5664  0.3275  0.6837
 3061TIP3    H1 9189   5.422   0.322   2.962  0.2214  0.3885  0.8924
 3061TIP3    H2 9190   5.394   0.446   3.045  0.6655 -0.4367  2.2871
 3062TIP3   OH2 9191   4.307   2.773   2.164  0.1768  0.1285 -0.0448
 3062TIP3    H1 9192   4.294   2.795   2.257  1.1181  0.5584 -0.0087
 3062TIP3    H2 9193   4.306   2.857   2.119 -1.8198 -0.1860 -0.6388
 3063TIP3   OH2 9194   4.521   4.346   2.722  0.1059  0.0899  0.2340
 3063TIP3    H1 9195   4.464   4.422   2.713  1.2951  1.1651  1.7252
 3063TIP3    H2 9196   4.537   4.338   2.816  1.5178 -0.8557 -0.0675
 3064TIP3   OH2 9197   3.231   3.021   1.783 -0.5153 -0.0224 -0.2212
 3064TIP3    H1 9198   3.139   3.023   1.759 -0.7137 -0.0810  0.5271
 3064TIP3    H2 9199   3.241   2.942   1.835  0.5155 -1.4029 -2.4659
 3065TIP3   OH2 9200   2.746   4.174   2.448 -0.3585 -0.1288  0.2193
 3065TIP3    H1 9201   2.810   4.133   2.506  0.6308 -0.2440 -0.9306
 3065TIP3    H2 9202   2.760   4.131   2.364 -1.6581  0.1593 -0.1493
 3066TIP3   OH2 9203   4.019   3.700   0.607  0.5494  0.1873 -0.0083
 3066TIP3    H1 9204   4.061   3.786   0.614 -0.3407  0.6323 -0.0952
 3066TIP3    H2 9205   4.089   3.642   0.575  0.6871  1.2506 -1.7177
 3067TIP3   OH2 9206   3.001   0.062   1.975 -0.6459 -0.0505 -0.4228
 3067TIP3    H1 9207   3.079   0.010   1.958 -1.9739 -2.2057 -0.1442
 3067TIP3    H2 9208   2.931   0.017   1.926 -2.2465  0.1943  1.5589
 3068TIP3   OH2 9209   4.486   2.655   2.926  0.1412 -0.3564 -0.1508
 3068TIP3    H1 9210   4.538   2.731   2.954  2.6333 -1.7214 -0.9007
 3068TIP3    H2 9211   4.414   2.651   2.988  0.3342  2.2264  0.3029
 3069TIP3   OH2 9212   5.941   4.551   1.981  0.2104 -0.6878 -0.3491
 3069TIP3    H1 9213   5.887   4.617   1.938  0.1771 -1.6770 -1.8660
 3069TIP3    H2 9214   5.901   4.541   2.068 -0.3162  0.6370 -0.4244
 3070TIP3   OH2 9215   1.446   4.825   0.939 -0.1329 -0.2061 -0.4278
 3070TIP3    H1 9216   1.361   4.852   0.975  0.0448  0.0421 -0.1964
 3070TIP3    H2 9217   1.502   4.811   1.016 -0.2008 -1.1675 -0.5457
 3071TIP3   OH2 9218   5.841   4.559   3.609 -0.1678 -0.1310 -0.5317
 3071TIP3    H1 9219   5.868   4.515   3.690  0.9986 -0.1633 -0.9320
 3071TIP3    H2 9220   5.747   4.573   3.620  0.1997  1.0695  1.4123
 3072TIP3   OH2 9221   4.257   4.113   2.770 -0.4147 -0.3693 -0.4644
 3072TIP3    H1 9222   4.266   4.018   2.782 -2.9288 -0.5375  0.4745
 3072TIP3    H2 9223   4.250   4.148   2.859  0.9232  0.7596 -0.7914
 3073TIP3   OH2 9224   6.138   5.051   0.947 -0.5247 -0.1495  0.0044
 3073TIP3    H1 9225   6.123   4.959   0.923  0.4928  0.2013 -2.1003
 3073TIP3    H2 9226   6.149   5.049   1.042  0.6806 -2.4027 -0.1381
 3074TIP3   OH2 9227   4.593   5.702   1.450 -0.1591 -0.4520 -0.0246
 3074TIP3    H1 9228   4.520   5.641   1.448 -1.2222  0.8098  0.1598
 3074TIP3    H2 9229   4.668   5.649   1.422 -1.4073 -1.3778 -1.7674
 3075TIP3   OH2 9230   3.854   3.455   2.445  0.2963 -0.0974  0.0009
 3075TIP3    H1 9231   3.831   3.541   2.410  0.1797 -0.2251 -0.2406
 3075TIP3    H2 9232   3.808   3.450   2.529 -0.7963 -0.4634 -0.6115
 3076TIP3   OH2 9233   5.668   5.670   3.813  0.2676  0.2391 -0.1404
 3076TIP3    H1 9234   5.601   5.733   3.838 -0.4605 -0.5938  0.0347
 3076TIP3    H2 9235   5.681   5.615   3.890  2.0257  1.1411  0.2295
 3077TIP3   OH2 9236   0.440   5.681   0.560  0.4194  0.0787  0.1456
 3077TIP3    H1 9237   0.419   5.775   0.561 -0.0096  0.0038 -1.3252
 3077TIP3    H2 9238   0.365   5.640   0.519  0.2666 -1.0168  1.5060
 3078TIP3   OH2 9239   5.781   4.454   1.473  0.6145 -0.8756 -0.0612
 3078TIP3    H1 9240   5.745   4.540   1.451 -0.8355 -1.3556  0.3185
 3078TIP3    H2 9241   5.839   4.471   1.547 -0.5254 -0.3756  0.7342
 3079TIP3   OH2 9242   0.737   2.832   0.504  0.2447  0.0487  0.1161
 3079TIP3    H1 9243   0.815   2.810   0.555  1.2253  0.8819 -0.9966
 3079TIP3    H2 9244   0.759   2.915   0.461 -1.7090  0.9211  0.7270
 3080TIP3   OH2 9245   5.790   4.379   0.302  0.1082  0.2404  0.2214
 3080TIP3    H1 9246   5.817   4.381   0.394  2.0437 -0.2450 -0.3093
 3080TIP3    H2 9247   5.733   4.456   0.292 -0.8410 -0.1842  2.0147
 3081TIP3   OH2 9248   5.848   3.350   2.556 -0.2270 -0.1639  0.1702
 3081TIP3    H1 9249   5.778   3.410   2.530  1.5455  1.6442 -0.6180
 3081TIP3    H2 9250   5.831   3.270   2.506 -1.0524  0.6948 -0.9535
 3082TIP3   OH2 9251   2.125   2.719   5.272 -0.2702 -0.0414 -0.0818
 3082TIP3    H1 9252   2.193   2.695   5.335  0.6336  1.4494 -0.4691
 3082TIP3    H2 9253   2.143   2.666   5.195  0.9834  0.9681 -0.4940
 3083TIP3   OH2 9254   6.209   4.612   5.292 -0.0163  0.0278 -0.2406
 3083TIP3    H1 9255   6.143   4.659   5.240  0.6614  0.2769 -0.8992
 3083TIP3    H2 9256   6.260   4.682   5.334 -1.4353 -0.1978  1.8864
 3084TIP3   OH2 9257   5.204   4.509   1.082 -0.1172 -0.4078  0.0267
 3084TIP3    H1 9258   5.136   4.577   1.078  0.4427  0.1654  0.1857
 3084TIP3    H2 9259   5.218   4.485   0.990  0.0753  0.0946 -0.0811
 3085TIP3   OH2 9260   6.419   0.097   2.546  0.1743  0.6959  0.9115
 3085TIP3    H1 9261   6.440   0.141   2.628 -1.4227  0.5126  1.4498
 3085TIP3    H2 9262   6.327   0.120   2.530  0.5505  0.9236 -0.9474
 3086TIP3   OH2 9263   4.170   5.464   2.926  0.7382  0.0060 -0.0788
 3086TIP3    H1 9264   4.090   5.439   2.879  0.6534  2.9233 -1.6175
 3086TIP3    H2 9265   4.174   5.403   3.000 -1.8067 -1.5125 -1.1111
 3087TIP3   OH2 9266   5.797   5.051   1.960  0.2315 -0.3060 -0.3942
 3087TIP3    H1 9267   5.775   4.968   1.918  0.4163 -0.4800 -0.1517
 3087TIP3    H2 9268   5.889   5.065   1.938  0.6503 -0.9646  0.8831
 3088TIP3   OH2 9269   1.250   4.577   4.685 -0.0160  0.0580 -0.1280
 3088TIP3    H1 9270   1.202   4.659   4.697  0.6344  0.0331  3.1057
 3088TIP3    H2 9271   1.333   4.603   4.646 -0.5082  0.6925 -0.7838
 3089TIP3   OH2 9272   5.212   4.315   1.597 -0.2345  0.7855 -0.1932
 3089TIP3    H1 9273   5.300   4.344   1.621 -0.2110  0.8598 -0.3606
 3089TIP3    H2 9274   5.203   4.342   1.505 -0.0984 -0.0161 -0.4465
 3090TIP3   OH2 9275   0.730   1.841   4.932  0.6472  0.1512 -0.2476
 3090TIP3    H1 9276   0.790   1.903   4.890  1.3841  0.1451  0.7499
 3090TIP3    H2 9277   0.780   1.808   5.007 -0.4086 -0.2879  0.2680
 3091TIP3   OH2 9278   6.363   1.412   0.916 -0.1307 -0.4752  0.3695
 3091TIP3    H1 9279   6.305   1.484   0.939  0.8769  0.3152  0.4825
 3091TIP3    H2 9280   6.317   1.365   0.846  0.0192  1.3951 -1.0265
 3092TIP3   OH2 9281   2.816   4.955   1.344  0.2024 -0.1581 -0.4637
 3092TIP3    H1 9282   2.838   4.920   1.430  3.2130  0.9209 -0.7211
 3092TIP3    H2 9283   2.733   4.914   1.321  0.8138 -2.7096  1.6753
 3093TIP3   OH2 9284   0.593   0.253   2.267  0.2061 -0.3921 -0.3453
 3093TIP3    H1 9285   0.629   0.209   2.344 -0.1957 -0.6833 -0.3258
 3093TIP3    H2 9286   0.610   0.346   2.282 -0.3419 -0.3990  0.3411
 3094TIP3   OH2 9287   4.923   3.186   0.299  0.0777 -0.4328 -0.1326
 3094TIP3    H1 9288   4.894   3.272   0.330  0.8587 -0.9784  2.2530
 3094TIP3    H2 9289   4.980   3.206   0.224  0.3030  1.1398  0.4227
 3095TIP3   OH2 9290   4.540   5.109   1.778 -0.6466  0.3615  0.0545
 3095TIP3    H1 9291   4.582   5.026   1.798  2.2816  1.9306  0.7534
 3095TIP3    H2 9292   4.570   5.131   1.690 -2.8458 -0.1412 -0.8566
 3096TIP3   OH2 9293   5.124   4.070   2.804 -0.3625  0.3088 -0.1394
 3096TIP3    H1 9294   5.144   4.104   2.716 -0.0309 -0.9414 -0.5636
 3096TIP3    H2 9295   5.030   4.084   2.814 -0.8164 -1.4367 -1.5658
 3097TIP3   OH2 9296   4.038   5.311   0.216  0.3118 -0.4958  0.2434
 3097TIP3    H1 9297   4.002   5.400   0.218  1.9255  0.1880 -0.1045
 3097TIP3    H2 9298   4.021   5.280   0.127 -1.5667 -1.1074  0.8028
 3098TIP3   OH2 9299   0.407   0.145   0.542  0.3745 -0.1456 -0.0361
 3098TIP3    H1 9300   0.406   0.219   0.602  0.6340 -1.1661  1.2558
 3098TIP3    H2 9301   0.470   0.084   0.580 -0.6216 -1.4969 -0.5120
 3099TIP3   OH2 9302   5.371   4.499   3.165 -0.3568 -0.0179 -0.0404
 3099TIP3    H1 9303   5.300   4.435   3.178 -1.0731  1.0626  1.5072
 3099TIP3    H2 9304   5.332   4.567   3.110 -0.2536  0.1649  0.1124
 3100TIP3   OH2 9305   6.452   0.380   1.898 -0.3085  0.5927 -0.1755
 3100TIP3    H1 9306   6.459   0.303   1.841 -1.5151  0.6496 -0.4107
 3100TIP3    H2 9307   6.527   0.372   1.957 -0.5272 -0.8879 -0.0637
 3101TIP3   OH2 9308   4.292   6.146   3.341 -0.0736  0.7161  0.1141
 3101TIP3    H1 9309   4.329   6.058   3.330 -1.5979  0.2217 -1.2781
 3101TIP3    H2 9310   4.222   6.135   3.405  0.5898  1.1898  0.9330
 3102TIP3   OH2 9311   3.403   5.670   2.886 -0.7593  0.0199 -0.1482
 3102TIP3    H1 9312   3.335   5.726   2.849 -0.2326  0.1649 -0.9080
 3102TIP3    H2 9313   3.396   5.588   2.838  1.4112  0.9752 -2.2189
 3103TIP3   OH2 9314   6.508   5.270   2.662 -0.5495 -0.0219  0.5258
 3103TIP3    H1 9315   6.538   5.183   2.635 -0.0982  0.5307 -0.7881
 3103TIP3    H2 9316   6.420   5.276   2.626 -0.6574 -0.0037  0.7895
 3104TIP3   OH2 9317   0.270   0.232   2.778  0.3254  0.3700  0.3466
 3104TIP3    H1 9318   0.236   0.142   2.782  1.9862 -0.3348 -0.7970
 3104TIP3    H2 9319   0.254   0.268   2.865 -0.3999 -1.0297  0.8006
 3105TIP3   OH2 9320   4.912   2.308   4.756 -0.2839 -0.0355 -0.3232
 3105TIP3    H1 9321   4.944   2.251   4.826 -0.8791  0.6560  0.5151
 3105TIP3    H2 9322   4.984   2.368   4.739 -0.6443  0.6875  0.6674
 3106TIP3   OH2 9323   6.107   4.421   1.467 -0.2640 -0.1163  0.4518
 3106TIP3    H1 9324   6.149   4.344   1.505  0.4081 -0.0948 -0.2077
 3106TIP3    H2 9325   6.072   4.470   1.541 -0.1342 -0.7379  0.9211
 3107TIP3   OH2 9326   4.918   4.496   3.412  0.0992  0.0286 -0.6022
 3107TIP3    H1 9327   4.919   4.411   3.368  0.2413  0.7233 -1.9720
 3107TIP3    H2 9328   4.927   4.475   3.505 -0.8068 -1.5029 -0.8361
 3108TIP3   OH2 9329   2.026   0.133   3.297 -0.3181 -0.0881  0.9127
 3108TIP3    H1 9330   2.044   0.223   3.324  0.5125 -0.6493  2.2481
 3108TIP3    H2 9331   1.973   0.143   3.217  1.4288  1.5707 -0.0848
 3109TIP3   OH2 9332   6.366   3.624   1.164  0.3745 -0.5627 -0.0109
 3109TIP3    H1 9333   6.394   3.710   1.196  2.4647 -1.1509 -0.1803
 3109TIP3    H2 9334   6.387   3.625   1.071 -1.3278 -0.5960 -0.4158
 3110TIP3   OH2 9335   5.373   4.806   3.423  0.3025 -0.3639 -0.0194
 3110TIP3    H1 9336   5.405   4.856   3.348  1.1349  1.3224  1.4031
 3110TIP3    H2 9337   5.310   4.864   3.465  1.6766 -0.2553  1.9749
 3111TIP3   OH2 9338   3.967   3.684   3.062  0.0340  0.5221 -0.2358
 3111TIP3    H1 9339   3.940   3.705   3.151 -0.9837 -1.3978 -0.0541
 3111TIP3    H2 9340   3.918   3.744   3.006  0.6514  1.7070  0.4910
 3112TIP3   OH2 9341   6.010   3.021   2.040  0.0232 -0.4085 -0.7486
 3112TIP3    H1 9342   6.029   3.100   2.091 -0.7920 -0.2447 -0.6961
 3112TIP3    H2 9343   5.976   2.959   2.105  2.2160 -1.3805 -0.4858
 3113TIP3   OH2 9344   3.827   4.397   2.020  0.0679 -0.3959 -0.7710
 3113TIP3    H1 9345   3.870   4.422   2.102 -0.8192 -1.6579  0.1093
 3113TIP3    H2 9346   3.758   4.335   2.047 -1.1730  0.2742 -2.3153
 3114TIP3   OH2 9347   5.693   0.204   1.742  0.6109 -0.4000  1.2757
 3114TIP3    H1 9348   5.748   0.271   1.703  1.6107 -1.1162  1.4185
 3114TIP3    H2 9349   5.626   0.252   1.790 -1.5295  0.5062 -2.4715
 3115TIP3   OH2 9350   3.480   5.928   1.635 -0.0565  0.3699  0.4213
 3115TIP3    H1 9351   3.575   5.934   1.624 -0.1068  1.7084  0.6815
 3115TIP3    H2 9352   3.448   6.016   1.618 -1.3879 -0.3312 -0.8039
 3116TIP3   OH2 9353   5.588   3.962   2.557 -0.2308 -0.2906  0.3048
 3116TIP3    H1 9354   5.664   4.009   2.592 -1.8448  0.6063  2.7086
 3116TIP3    H2 9355   5.540   4.027   2.506  0.4531 -0.7847 -0.9791
 3117TIP3   OH2 9356   4.571   4.488   1.319 -0.2614  0.6941  0.0764
 3117TIP3    H1 9357   4.481   4.478   1.347 -0.0212 -0.1257  0.5635
 3117TIP3    H2 9358   4.619   4.418   1.364  0.9683  2.3339  1.3733
 3118TIP3   OH2 9359   3.027   3.000   1.030  0.1131  0.2615  0.1816
 3118TIP3    H1 9360   3.024   3.084   1.075 -0.8360  1.0309 -1.3093
 3118TIP3    H2 9361   2.967   2.944   1.080  0.0670  0.7179  0.6397
 3119TIP3   OH2 9362   5.115   4.190   1.839 -0.0364 -0.1552 -0.4029
 3119TIP3    H1 9363   5.208   4.180   1.861  0.1627 -0.1708 -1.2335
 3119TIP3    H2 9364   5.115   4.220   1.748 -0.8683 -0.9905 -0.6829
 3120TIP3   OH2 9365   2.512   4.422   1.039  0.1526  0.0012 -0.1324
 3120TIP3    H1 9366   2.462   4.450   1.116  1.6456  0.9686  0.4989
 3120TIP3    H2 9367   2.455   4.444   0.965  0.2970  2.6024  0.4834
 3121TIP3   OH2 9368   4.279   2.069   3.505  0.1563  0.7485 -0.3673
 3121TIP3    H1 9369   4.216   2.052   3.435  0.1099  1.7212 -0.5588
 3121TIP3    H2 9370   4.273   2.163   3.521 -0.0284  0.4954  1.1315
 3122TIP3   OH2 9371   5.169   3.733   2.687  0.1500 -0.4783  0.4733
 3122TIP3    H1 9372   5.251   3.741   2.637  0.4138  2.8980  1.3548
 3122TIP3    H2 9373   5.112   3.800   2.650 -1.2070 -0.8804  1.8090
 3123TIP3   OH2 9374   3.246   4.341   2.051 -0.4553 -0.2351 -0.0068
 3123TIP3    H1 9375   3.330   4.307   2.020  0.1094  1.0193  0.1490
 3123TIP3    H2 9376   3.199   4.263   2.082  0.9363 -0.8429  0.6158
 3124TIP3   OH2 9377   0.437   4.916   2.158 -0.0296  0.1127 -0.5448
 3124TIP3    H1 9378   0.468   5.007   2.164  1.9012 -0.5580 -0.2553
 3124TIP3    H2 9379   0.342   4.923   2.170  0.2752  1.9190  1.0377
 3125TIP3   OH2 9380   1.233   4.969   1.344  0.1985 -0.0320 -0.2893
 3125TIP3    H1 9381   1.236   4.928   1.430  2.3253 -0.1333 -0.3917
 3125TIP3    H2 9382   1.139   4.974   1.323 -0.3106 -0.3799  1.8307
 3126TIP3   OH2 9383   5.756   3.249   0.867 -0.5753  0.5836  0.8093
 3126TIP3    H1 9384   5.720   3.331   0.901  0.2846  0.6641  1.5555
 3126TIP3    H2 9385   5.830   3.276   0.812 -1.4916  0.4075 -0.5288
 3127TIP3   OH2 9386   4.876   3.673   4.496 -0.3272  0.4570  0.3823
 3127TIP3    H1 9387   4.816   3.747   4.491  0.2418  1.2441  3.9745
 3127TIP3    H2 9388   4.962   3.713   4.507  0.4611 -0.7262 -1.2951
 3128TIP3   OH2 9389   0.527   5.485   0.722 -0.5692 -0.8464 -0.5621
 3128TIP3    H1 9390   0.463   5.494   0.793  3.2363 -1.1268  3.1104
 3128TIP3    H2 9391   0.505   5.555   0.660 -2.8474  0.6334  1.8279
 3129TIP3   OH2 9392   5.519   2.143   2.131 -0.2824  0.1075  0.1612
 3129TIP3    H1 9393   5.564   2.218   2.093 -0.5266  0.5201  0.6896
 3129TIP3    H2 9394   5.566   2.067   2.097 -0.3261  0.4810 -0.7483
 3130TIP3   OH2 9395   0.255   4.418   1.728  0.2029  0.6843  0.1039
 3130TIP3    H1 9396   0.207   4.438   1.648 -1.3256 -1.6525  0.3788
 3130TIP3    H2 9397   0.321   4.487   1.735 -1.3504  2.4041 -1.7474
 3131TIP3   OH2 9398   3.536   5.414   0.933 -0.2263  0.2329  0.2273
 3131TIP3    H1 9399   3.546   5.341   0.994 -0.3654 -1.0287 -1.2306
 3131TIP3    H2 9400   3.443   5.438   0.939 -0.5466 -0.7886 -0.4769
 3132TIP3   OH2 9401   2.026   4.772   4.965 -0.2590 -0.2344 -0.2740
 3132TIP3    H1 9402   1.978   4.783   5.047 -1.6742  1.6873 -1.2910
 3132TIP3    H2 9403   2.107   4.823   4.977  0.0738 -0.9070  0.3346
 3133TIP3   OH2 9404   5.006   4.484   3.686 -0.0729 -0.0468 -0.0485
 3133TIP3    H1 9405   5.079   4.467   3.626 -1.5560 -1.1374 -1.5609
 3133TIP3    H2 9406   5.010   4.579   3.702  2.6725 -0.3314  1.2177
 3134TIP3   OH2 9407   1.124   3.596   1.229  0.1881  0.0804  0.1279
 3134TIP3    H1 9408   1.124   3.673   1.173  1.3005  0.3026  0.4166
 3134TIP3    H2 9409   1.032   3.571   1.235  0.0531 -0.0323 -1.9032
 3135TIP3   OH2 9410   5.914   4.125   3.279 -0.3785  0.1873 -0.1984
 3135TIP3    H1 9411   5.895   4.147   3.370  3.9530  0.4327  0.7812
 3135TIP3    H2 9412   5.924   4.210   3.235  2.8657  0.1872  0.4233
 3136TIP3   OH2 9413   6.091   5.701   1.681  0.2877 -0.0238  0.2001
 3136TIP3    H1 9414   6.187   5.694   1.683  0.4099  0.1136 -2.3574
 3136TIP3    H2 9415   6.062   5.611   1.665  0.1393  0.2279 -1.0629
 3137TIP3   OH2 9416   5.707   5.795   2.926  0.5133  0.1671  0.0235
 3137TIP3    H1 9417   5.768   5.730   2.892  1.8697  0.8937  1.0214
 3137TIP3    H2 9418   5.644   5.809   2.855 -0.3964 -2.9656  0.1765
 3138TIP3   OH2 9419   4.482   2.187   1.427  0.3253 -0.1039  0.8052
 3138TIP3    H1 9420   4.412   2.197   1.491 -0.3273 -0.0089  0.0769
 3138TIP3    H2 9421   4.510   2.276   1.408  0.0106 -0.0934  0.3941
 3139TIP3   OH2 9422   3.143   1.744   0.529 -0.3362  0.4541 -0.0878
 3139TIP3    H1 9423   3.137   1.663   0.479  0.7029  0.9866 -1.0991
 3139TIP3    H2 9424   3.102   1.724   0.613  0.5620 -1.3325 -0.0529
 3140TIP3   OH2 9425   2.975   6.137   3.385  0.4751 -0.1130 -0.5580
 3140TIP3    H1 9426   3.023   6.063   3.350  1.2906  0.4283 -0.5932
 3140TIP3    H2 9427   2.996   6.139   3.478  0.8989  0.3984 -0.6591
 3141TIP3   OH2 9428   0.435   0.981   0.671  0.0828  0.2741 -0.4508
 3141TIP3    H1 9429   0.425   0.888   0.689 -3.9148  0.7529  0.1210
 3141TIP3    H2 9430   0.478   1.017   0.749 -1.7584 -0.4852  0.9317
 3142TIP3   OH2 9431   6.253   3.964   0.026 -0.7471  0.3572  0.1767
 3142TIP3    H1 9432   6.312   4.013  -0.030 -0.6543  1.3247  1.0958
 3142TIP3    H2 9433   6.245   4.017   0.105 -1.6037 -0.5250  0.7046
 3143TIP3   OH2 9434   1.474   0.930   0.731  0.6398  0.1990 -0.6079
 3143TIP3    H1 9435   1.503   0.839   0.740 -0.1696 -0.0183 -0.1689
 3143TIP3    H2 9436   1.385   0.925   0.698 -0.3618  0.7455  1.8975
 3144TIP3   OH2 9437   4.844   2.795   2.202 -0.1728 -0.4746 -0.0308
 3144TIP3    H1 9438   4.756   2.755   2.205 -0.5349  0.3385  0.2747
 3144TIP3    H2 9439   4.842   2.851   2.125 -0.1044 -0.0179  0.3025
 3145TIP3   OH2 9440   5.711   4.883   0.581 -0.0727 -0.4488 -0.0951
 3145TIP3    H1 9441   5.685   4.827   0.655 -1.2167  0.9303  0.5792
 3145TIP3    H2 9442   5.723   4.970   0.620 -1.1728  0.4067 -1.6126
 3146TIP3   OH2 9443   2.616   4.901   0.951 -0.2095 -0.0920  0.7191
 3146TIP3    H1 9444   2.530   4.859   0.951 -0.7697  0.9697 -1.7600
 3146TIP3    H2 9445   2.671   4.842   0.899 -0.0724  0.4378  0.2556
 3147TIP3   OH2 9446   2.495   5.795   2.951 -0.0426 -0.0905 -0.4256
 3147TIP3    H1 9447   2.400   5.787   2.936 -0.4165  0.7035  1.4088
 3147TIP3    H2 9448   2.523   5.706   2.970 -0.5924 -0.1869 -0.0420
 3148TIP3   OH2 9449   6.406   3.024   0.976 -0.4003 -0.3657  0.4161
 3148TIP3    H1 9450   6.424   3.118   0.967  0.7735 -0.5768  0.4992
 3148TIP3    H2 9451   6.365   3.000   0.893 -0.4300  0.1561  0.2749
 3149TIP3   OH2 9452   0.890   4.909   1.204 -0.0623 -0.2811 -0.0714
 3149TIP3    H1 9453   0.855   4.977   1.261 -0.8904  0.4907 -1.4615
 3149TIP3    H2 9454   0.853   4.827   1.238 -1.4779  0.2981 -0.1828
 3150TIP3   OH2 9455   4.650   5.451   0.570 -0.3071  0.0749 -0.3738
 3150TIP3    H1 9456   4.607   5.481   0.651 -0.5639  1.4010 -0.9807
 3150TIP3    H2 9457   4.743   5.465   0.586 -0.3670  0.4572 -0.3506
 3151TIP3   OH2 9458   5.139   4.924   0.507 -0.1694  0.2162 -0.4311
 3151TIP3    H1 9459   5.085   4.988   0.553 -2.0733 -0.4873 -1.6176
 3151TIP3    H2 9460   5.228   4.943   0.535 -0.7392  3.1607 -0.5068
 3152TIP3   OH2 9461   5.297   3.327   1.177 -0.1724  0.3633  0.1072
 3152TIP3    H1 9462   5.277   3.390   1.108 -0.8787 -0.3678 -0.3511
 3152TIP3    H2 9463   5.393   3.327   1.182 -0.1754  3.3768  1.8619
 3153TIP3   OH2 9464   4.424   3.692   3.896  0.2530 -0.3621 -0.4329
 3153TIP3    H1 9465   4.442   3.598   3.886 -1.0192 -0.9404  2.3021
 3153TIP3    H2 9466   4.464   3.716   3.980  0.2642  1.4747 -0.9359
 3154TIP3   OH2 9467   0.832   0.265   1.903 -1.0628  0.0520 -0.1861
 3154TIP3    H1 9468   0.805   0.202   1.970 -1.1080  1.2511  0.9577
 3154TIP3    H2 9469   0.801   0.350   1.937  3.0557  1.3689  0.6135
 3155TIP3   OH2 9470   4.549   0.929   1.130 -0.3745  0.3153 -0.2200
 3155TIP3    H1 9471   4.523   1.020   1.120 -0.7507  0.0309 -2.1201
 3155TIP3    H2 9472   4.595   0.926   1.214  0.1202  2.3549 -0.3906
 3156TIP3   OH2 9473   5.211   3.331   2.706 -0.6538 -0.2333 -0.1971
 3156TIP3    H1 9474   5.212   3.354   2.613 -1.3856 -1.9474 -0.6408
 3156TIP3    H2 9475   5.260   3.250   2.711 -1.6304 -0.7731  0.7434
 3157TIP3   OH2 9476   4.691   0.461   0.923 -0.1941  0.1732 -0.4832
 3157TIP3    H1 9477   4.692   0.442   1.017  0.6079 -0.0990 -0.5389
 3157TIP3    H2 9478   4.710   0.554   0.917  1.2847 -0.1019 -0.4238
 3158TIP3   OH2 9479   4.696   2.750   0.665  0.1444 -0.2222  0.5875
 3158TIP3    H1 9480   4.617   2.747   0.612  0.8200 -1.5209 -0.3834
 3158TIP3    H2 9481   4.671   2.712   0.749 -0.0231 -1.5429 -0.0508
 3159TIP3   OH2 9482   6.119   2.514   0.471  0.0422 -1.0215  0.2669
 3159TIP3    H1 9483   6.069   2.585   0.512 -2.7017 -1.5837 -1.9156
 3159TIP3    H2 9484   6.209   2.547   0.466 -0.5474  0.9883  2.2060
 3160TIP3   OH2 9485   5.906   0.049   1.843  0.7808 -0.6061 -0.5207
 3160TIP3    H1 9486   5.822   0.069   1.801  1.9041 -0.7042 -2.9199
 3160TIP3    H2 9487   5.970   0.099   1.793  2.1166 -0.0202  1.6999
 3161TIP3   OH2 9488   1.981   0.627   3.354 -0.1972 -0.3077 -0.1434
 3161TIP3    H1 9489   2.010   0.706   3.398 -0.1416 -1.3061  1.6531
 3161TIP3    H2 9490   2.028   0.628   3.270 -0.2969  1.5982 -0.1906
 3162TIP3   OH2 9491   5.162   4.849   1.959  1.1768 -0.7374  0.9860
 3162TIP3    H1 9492   5.197   4.833   1.872 -0.5699  0.1450  0.0897
 3162TIP3    H2 9493   5.158   4.763   2.000  1.1034 -1.2879 -0.1664
 3163TIP3   OH2 9494   1.308   0.198   0.766 -0.1336 -0.5124 -0.0855
 3163TIP3    H1 9495   1.273   0.224   0.851 -0.4486 -0.2540 -0.2899
 3163TIP3    H2 9496   1.239   0.143   0.728 -0.2727 -0.1035 -0.4398
 3164TIP3   OH2 9497   4.250   3.619   1.704 -0.0328  0.0565 -0.5944
 3164TIP3    H1 9498   4.230   3.712   1.694  0.3757  0.1419 -0.6303
 3164TIP3    H2 9499   4.345   3.614   1.701 -0.0188 -0.2629  0.3320
 3165TIP3   OH2 9500   3.351   4.036   4.124  0.4351 -0.3614  0.1149
 3165TIP3    H1 9501   3.259   4.018   4.105  0.2975  0.8849 -0.4253
 3165TIP3    H2 9502   3.353   4.056   4.218  0.7430 -4.0563  0.9779
 3166TIP3   OH2 9503   6.240   0.385   2.548  0.1865  0.2865  0.3018
 3166TIP3    H1 9504   6.314   0.398   2.488  0.5246  0.0865  0.6790
 3166TIP3    H2 9505   6.279   0.355   2.630 -0.5240 -2.8780 -0.4336
 3167TIP3   OH2 9506   4.069   4.544   1.742 -0.2164 -0.4697  0.2203
 3167TIP3    H1 9507   4.077   4.611   1.810  1.2968 -0.3220 -0.0851
 3167TIP3    H2 9508   3.987   4.564   1.697  0.4726  1.4918 -0.2042
 3168TIP3   OH2 9509   4.059   5.951   3.737 -0.4215 -0.5875 -0.9144
 3168TIP3    H1 9510   3.999   5.939   3.811  0.6483 -1.8942 -0.2435
 3168TIP3    H2 9511   4.069   5.863   3.700  1.5251 -0.4966 -0.6516
 3169TIP3   OH2 9512   5.258   5.454   2.161  0.0047 -0.2453  0.2212
 3169TIP3    H1 9513   5.230   5.498   2.242  0.2026  0.8337 -0.2915
 3169TIP3    H2 9514   5.194   5.384   2.149  0.9507 -1.4989  2.2264
 3170TIP3   OH2 9515   5.085   4.922   4.149 -0.6214 -0.5371  0.6676
 3170TIP3    H1 9516   5.165   4.938   4.198  0.3263 -1.7811 -0.4519
 3170TIP3    H2 9517   5.031   4.867   4.206  0.3431 -1.7235  0.4471
 3171TIP3   OH2 9518   5.186   5.294   1.114 -0.2987 -0.5968 -0.1091
 3171TIP3    H1 9519   5.186   5.266   1.022 -0.3955 -1.6017  0.1849
 3171TIP3    H2 9520   5.256   5.358   1.119 -0.4479 -0.3538 -0.9387
 3172TIP3   OH2 9521   0.525   5.150   2.581  0.1905 -0.5723  0.4063
 3172TIP3    H1 9522   0.566   5.236   2.587 -0.6917 -0.1700  0.7671
 3172TIP3    H2 9523   0.433   5.169   2.561  0.0500 -1.4381  0.2114
 3173TIP3   OH2 9524   5.077   2.670   2.300 -0.7113 -0.9339 -0.2429
 3173TIP3    H1 9525   5.128   2.658   2.220  0.6378 -0.7747  0.5687
 3173TIP3    H2 9526   5.003   2.723   2.274  0.9059  1.0258 -0.9550
 3174TIP3   OH2 9527   6.166   3.888   1.498  0.5129 -0.2052 -0.4045
 3174TIP3    H1 9528   6.236   3.929   1.549  0.9322  0.2364 -1.3299
 3174TIP3    H2 9529   6.172   3.929   1.412  0.3345 -1.5368 -1.0645
 3175TIP3   OH2 9530   5.647   4.076   0.395 -0.0682  0.3661  0.2402
 3175TIP3    H1 9531   5.628   3.983   0.406  0.4761 -0.2754 -3.5982
 3175TIP3    H2 9532   5.564   4.120   0.412 -1.1924 -1.1232 -1.3090
 3176TIP3   OH2 9533   1.190   3.535   2.869  0.0018 -0.4994  0.1234
 3176TIP3    H1 9534   1.187   3.628   2.892 -1.6200 -0.4934 -0.0997
 3176TIP3    H2 9535   1.144   3.529   2.786  1.3920 -1.2975 -0.6068
 3177TIP3   OH2 9536   2.532   0.452   1.178  0.1621  0.3158 -0.1044
 3177TIP3    H1 9537   2.510   0.543   1.159 -0.6010  0.2494  0.4335
 3177TIP3    H2 9538   2.448   0.409   1.191  0.4738 -0.6998 -1.3824
 3178TIP3   OH2 9539   5.055   4.939   2.317  0.1718 -0.0248  0.3896
 3178TIP3    H1 9540   5.050   4.980   2.231  0.0561 -1.4745 -0.3085
 3178TIP3    H2 9541   5.144   4.958   2.348  0.4990 -0.2276 -0.4236
 3179TIP3   OH2 9542   5.672   4.782   0.833  0.0873 -0.1410  0.1535
 3179TIP3    H1 9543   5.697   4.710   0.891 -0.3621  0.9785  1.7792
 3179TIP3    H2 9544   5.647   4.853   0.892  2.3082  2.0098 -1.3528
 3180TIP3   OH2 9545   5.903   6.014   3.449 -0.0058 -0.0170 -0.3629
 3180TIP3    H1 9546   5.852   6.013   3.530 -0.9811 -0.4616 -0.9785
 3180TIP3    H2 9547   5.845   6.053   3.384  0.6782  0.0900 -0.9153
 3181TIP3   OH2 9548   1.338   0.321   3.146 -0.2117 -0.2466 -0.0644
 3181TIP3    H1 9549   1.319   0.394   3.086  0.5003  0.6181  0.7498
 3181TIP3    H2 9550   1.341   0.361   3.232 -1.8797 -1.6095  0.6401
 3182TIP3   OH2 9551   3.738   5.507   1.273 -0.3194 -0.0670 -0.1048
 3182TIP3    H1 9552   3.707   5.560   1.346 -1.9781 -1.1960  0.0499
 3182TIP3    H2 9553   3.764   5.424   1.312 -0.3732 -0.3566 -0.6703
 3183TIP3   OH2 9554   4.977   3.129   4.921 -0.1131 -0.1171  0.1994
 3183TIP3    H1 9555   5.056   3.082   4.946 -0.7081 -1.0890  0.2947
 3183TIP3    H2 9556   4.950   3.089   4.838 -0.9205 -0.3210  0.5520
 3184TIP3   OH2 9557   5.096   5.357   3.253  0.1881 -0.0558 -0.2270
 3184TIP3    H1 9558   5.061   5.444   3.235  0.6816  0.9744  3.3616
 3184TIP3    H2 9559   5.186   5.360   3.220  0.8412  1.4817  1.6512
 3185TIP3   OH2 9560   1.707   4.214   2.588 -0.0829 -0.2627 -0.1195
 3185TIP3    H1 9561   1.680   4.264   2.510  1.1736  0.4477 -0.1128
 3185TIP3    H2 9562   1.802   4.206   2.579  0.0004 -0.6438  1.0687
 3186TIP3   OH2 9563   0.025   1.952   4.758 -0.0386 -0.0191 -0.0503
 3186TIP3    H1 9564   0.087   1.901   4.810 -1.2484 -0.4927  0.9566
 3186TIP3    H2 9565   0.009   2.031   4.810  0.1581  0.3671 -0.5722
 3187TIP3   OH2 9566   3.330   5.876   4.810 -0.2631 -0.0448 -1.0340
 3187TIP3    H1 9567   3.362   5.861   4.898  0.1369 -1.5142 -1.4173
 3187TIP3    H2 9568   3.396   5.932   4.769 -0.3354  0.4463 -0.4850
 3188TIP3   OH2 9569   5.972   4.020   2.868  0.0220  0.2394  0.2340
 3188TIP3    H1 9570   5.946   4.007   2.777  1.2341 -0.3842 -0.0450
 3188TIP3    H2 9571   6.060   3.981   2.873  0.3084  1.0201  1.4587
 3189TIP3   OH2 9572   0.248   0.541   3.277 -0.4029 -0.2209 -0.3054
 3189TIP3    H1 9573   0.303   0.473   3.317 -0.3071 -0.4607 -0.8410
 3189TIP3    H2 9574   0.159   0.510   3.287 -0.4170 -0.0276  0.1956
 3190TIP3   OH2 9575   4.339   4.621   3.388  0.1319  0.1308 -0.4753
 3190TIP3    H1 9576   4.323   4.658   3.301  0.9526  0.0685 -0.6600
 3190TIP3    H2 9577   4.312   4.689   3.449  1.4065  0.9512 -0.8096
 3191TIP3   OH2 9578   4.060   5.002   4.286 -0.3521 -0.4321  0.3858
 3191TIP3    H1 9579   4.074   4.982   4.379  0.5366 -0.0125  0.3531
 3191TIP3    H2 9580   3.987   5.064   4.285 -2.0122 -2.3457  0.6120
 3192TIP3   OH2 9581   5.220   4.503   2.648  0.0370  0.2989  0.1549
 3192TIP3    H1 9582   5.251   4.586   2.613  0.2264 -0.5422 -1.7903
 3192TIP3    H2 9583   5.125   4.512   2.652  0.0185  0.4268 -0.5538
 3193TIP3   OH2 9584   4.375   4.499   1.967  0.6492 -0.7028 -0.0600
 3193TIP3    H1 9585   4.379   4.463   1.878  1.3402 -0.6421 -0.0529
 3193TIP3    H2 9586   4.354   4.591   1.954  0.0266 -0.8458 -0.1246
 3194TIP3   OH2 9587   2.893   4.042   1.786 -0.0556  0.5350  0.1025
 3194TIP3    H1 9588   2.963   4.103   1.761 -0.3822  0.1124 -1.9208
 3194TIP3    H2 9589   2.839   4.033   1.708 -1.1481 -0.8442  0.9724
 3195TIP3   OH2 9590   5.579   3.790   2.274  0.2849 -0.2891  0.4841
 3195TIP3    H1 9591   5.511   3.820   2.213  0.2062  0.6956  1.0453
 3195TIP3    H2 9592   5.595   3.866   2.330  1.8700 -0.5000  0.3333
 3196TIP3   OH2 9593   4.031   5.616   1.781  0.5697 -0.1848  0.8884
 3196TIP3    H1 9594   4.091   5.561   1.831  3.4638  1.9743 -0.0718
 3196TIP3    H2 9595   4.041   5.704   1.817 -0.2414  0.6635 -0.8524
 3197TIP3   OH2 9596   5.196   5.290   2.373  0.3824  0.3096  0.0902
 3197TIP3    H1 9597   5.138   5.322   2.443 -0.8653  1.4643 -1.4519
 3197TIP3    H2 9598   5.282   5.326   2.396  0.3851 -0.7941  1.9847
 3198TIP3   OH2 9599   5.713   0.430   0.510  0.8356  0.5974  0.0890
 3198TIP3    H1 9600   5.656   0.482   0.566 -0.8306  0.0302 -1.0390
 3198TIP3    H2 9601   5.745   0.360   0.567  0.8385  1.2268  0.8727
 3199TIP3   OH2 9602   6.160   1.821   4.001  0.2769 -0.2020  0.0203
 3199TIP3    H1 9603   6.086   1.760   4.007  1.5368 -1.7685  0.0003
 3199TIP3    H2 9604   6.120   1.907   4.009 -1.3432 -1.0888  2.0620
 3200TIP3   OH2 9605   5.089   5.130   2.755  0.0570 -0.0837  0.0978
 3200TIP3    H1 9606   5.182   5.123   2.735  0.3957  1.1154  1.2145
 3200TIP3    H2 9607   5.069   5.223   2.746 -0.5743 -0.0345  1.8211
 3201TIP3   OH2 9608   5.349   0.086   0.873 -0.2712  0.0253  0.2261
 3201TIP3    H1 9609   5.396   0.019   0.924 -1.9998 -0.3928  1.3176
 3201TIP3    H2 9610   5.310   0.143   0.940  0.0489  1.3219 -0.6858
 3202TIP3   OH2 9611   0.383   0.039   2.154  0.3026  0.4103 -0.1909
 3202TIP3    H1 9612   0.297   0.064   2.187  0.4698  1.2398 -0.3684
 3202TIP3    H2 9613   0.445   0.075   2.217  0.5723  0.9597 -0.7635
 3203TIP3   OH2 9614   1.127   0.966   1.632 -0.6083 -0.6112 -0.2076
 3203TIP3    H1 9615   1.061   1.015   1.583  0.0627 -0.1706 -0.6808
 3203TIP3    H2 9616   1.170   0.912   1.565 -0.9880 -1.4624  0.2207
 3204TIP3   OH2 9617   4.715   4.005   4.790  0.7028  0.0627 -0.1790
 3204TIP3    H1 9618   4.624   4.027   4.768 -0.0028 -1.9688  0.6433
 3204TIP3    H2 9619   4.752   4.088   4.821 -1.6873  0.3399  2.1486
 3205TIP3   OH2 9620   5.040   4.201   1.383 -0.3622  0.4027 -0.0576
 3205TIP3    H1 9621   5.104   4.144   1.427 -1.3210 -1.7105 -1.3162
 3205TIP3    H2 9622   5.088   4.282   1.366  0.4772  0.7407  3.4972
 3206TIP3   OH2 9623   2.883   5.142   1.740 -0.3628 -0.1814 -0.4921
 3206TIP3    H1 9624   2.867   5.182   1.655 -0.9903  1.0651  0.1906
 3206TIP3    H2 9625   2.954   5.194   1.778 -0.7098 -0.1359  0.1125
 3207TIP3   OH2 9626   6.089   5.084   1.937 -0.5358  0.0882 -0.3259
 3207TIP3    H1 9627   6.080   5.129   2.021  1.0798 -1.5952  0.7911
 3207TIP3    H2 9628   6.158   5.132   1.891  0.6467 -0.7381  0.5472
 3208TIP3   OH2 9629   1.017   2.718   2.674  0.5113  0.0523  0.0314
 3208TIP3    H1 9630   1.094   2.719   2.731  0.7577 -0.0786 -0.2983
 3208TIP3    H2 9631   0.955   2.777   2.717  0.5530 -0.3315  0.6303
 3209TIP3   OH2 9632   6.285   4.215   1.548  0.7224  0.4851 -0.1268
 3209TIP3    H1 9633   6.335   4.294   1.528  1.7331  0.0867  0.7928
 3209TIP3    H2 9634   6.350   4.144   1.546  0.3954  0.0926  1.9880
 3210TIP3   OH2 9635   2.863   2.518  -0.016 -0.0260 -0.1889 -0.3256
 3210TIP3    H1 9636   2.932   2.502   0.049  0.2872  0.9917 -0.3499
 3210TIP3    H2 9637   2.830   2.605   0.006 -1.5000 -0.7462 -0.3293
 3211TIP3   OH2 9638   1.687   4.378   4.902  0.2163  0.6495 -0.1124
 3211TIP3    H1 9639   1.609   4.401   4.853  0.8380  2.3356 -0.3496
 3211TIP3    H2 9640   1.760   4.410   4.849  0.8900  2.9968  2.1274
 3212TIP3   OH2 9641   5.491   4.090   0.639  0.0148 -0.1634  0.8325
 3212TIP3    H1 9642   5.479   4.145   0.717  1.0182  0.4567  0.5651
 3212TIP3    H2 9643   5.575   4.047   0.653  0.7927  0.8856 -0.4372
 3213TIP3   OH2 9644   0.999   4.649   2.741  0.1384  0.0676 -0.0420
 3213TIP3    H1 9645   0.997   4.620   2.832 -0.5522  1.1178  0.2866
 3213TIP3    H2 9646   0.933   4.596   2.697  0.5637 -0.5319  0.0400
 3214TIP3   OH2 9647   3.832   5.627   2.611  0.2856  0.3659 -0.2509
 3214TIP3    H1 9648   3.860   5.633   2.702  0.0613 -0.1869 -0.1462
 3214TIP3    H2 9649   3.771   5.700   2.600 -1.1234 -0.6941  0.5522
 3215TIP3   OH2 9650   5.135   5.278   4.233 -0.7134  0.7216  0.0157
 3215TIP3    H1 9651   5.155   5.243   4.320 -0.5700 -1.7470 -0.9748
 3215TIP3    H2 9652   5.044   5.253   4.218 -0.8123  1.3682 -0.4562
 3216TIP3   OH2 9653   1.325   5.220   1.749 -0.3152 -0.1641  0.0167
 3216TIP3    H1 9654   1.418   5.244   1.745  0.0355 -1.2805  0.9075
 3216TIP3    H2 9655   1.278   5.302   1.737  0.8069  0.5207  0.2326
 3217TIP3   OH2 9656   0.667   5.537   0.391  0.2837 -0.2554 -0.2055
 3217TIP3    H1 9657   0.739   5.475   0.397 -0.7645 -1.4209  0.4504
 3217TIP3    H2 9658   0.663   5.578   0.478 -0.1773 -0.5633 -0.0812
 3218TIP3   OH2 9659   1.469   3.900   1.147  0.2179 -0.1174  0.0951
 3218TIP3    H1 9660   1.466   3.949   1.065 -2.4506 -0.5274 -0.0843
 3218TIP3    H2 9661   1.462   3.967   1.215 -0.3012  0.0044 -0.0770
 3219TIP3   OH2 9662   0.031   3.527   2.988 -0.4823  0.0197  0.6621
 3219TIP3    H1 9663  -0.046   3.487   3.029  0.3491 -3.0063 -0.6261
 3219TIP3    H2 9664   0.097   3.528   3.056 -0.9589  0.5790  1.1251
 3220TIP3   OH2 9665   2.664   0.080   0.665 -0.0561 -0.6564  0.2204
 3220TIP3    H1 9666   2.582   0.080   0.616 -0.5880  0.0867  1.0761
 3220TIP3    H2 9667   2.684   0.173   0.679  1.2366 -0.8159 -0.4727
 3221TIP3   OH2 9668   2.595   5.121   1.674  0.0333  0.2714 -0.1120
 3221TIP3    H1 9669   2.678   5.090   1.709  0.5703  0.6439 -1.0275
 3221TIP3    H2 9670   2.554   5.168   1.746 -0.4520 -1.9002  1.0597
 3222TIP3   OH2 9671   1.638   5.331   1.983  0.0758  0.0260 -0.4538
 3222TIP3    H1 9672   1.595   5.251   2.013  1.2825 -0.4453  0.0279
 3222TIP3    H2 9673   1.638   5.324   1.887  0.0933 -0.5113 -0.4157
 3223TIP3   OH2 9674   0.081   5.023   2.582 -0.1221  0.0525  0.0326
 3223TIP3    H1 9675   0.164   4.986   2.613 -0.9935 -0.0477  2.2808
 3223TIP3    H2 9676   0.021   4.949   2.578 -0.9927  0.6770  1.4951
 3224TIP3   OH2 9677   5.170   5.542   0.706 -0.0188  0.0956 -0.2291
 3224TIP3    H1 9678   5.224   5.570   0.780 -0.4452 -0.9440  0.4833
 3224TIP3    H2 9679   5.124   5.621   0.678  0.3771  0.5568  0.4199
 3225TIP3   OH2 9680   2.707   0.863   1.064 -0.2668  0.0290  0.5129
 3225TIP3    H1 9681   2.638   0.810   1.105 -0.4553  0.9954  1.4635
 3225TIP3    H2 9682   2.749   0.908   1.137 -0.5608  1.7253 -0.3590
 3226TIP3   OH2 9683   5.275   5.311   1.557 -0.3429  0.1996 -0.2891
 3226TIP3    H1 9684   5.315   5.242   1.610 -0.6563 -0.9506 -1.5129
 3226TIP3    H2 9685   5.218   5.358   1.617 -2.3224 -2.3993 -0.0639
 3227TIP3   OH2 9686   1.549   6.003   2.929  0.3973  0.3251 -0.6573
 3227TIP3    H1 9687   1.481   6.004   2.997 -0.7378  1.0640 -1.7716
 3227TIP3    H2 9688   1.548   5.913   2.895  0.9534 -0.0410  0.2722
 3228TIP3   OH2 9689   0.759   4.583   3.717 -0.0950 -0.4894  0.5706
 3228TIP3    H1 9690   0.779   4.612   3.628 -1.1430 -1.3703  0.0359
 3228TIP3    H2 9691   0.792   4.493   3.721  1.6238  0.1514  1.6846
 3229TIP3   OH2 9692   0.658   5.123   1.731 -0.9553  0.3000 -0.2343
 3229TIP3    H1 9693   0.571   5.090   1.754  0.0304 -0.9662  1.9341
 3229TIP3    H2 9694   0.718   5.058   1.769  1.0006  2.8417  1.1983
 3230TIP3   OH2 9695   6.191   3.741   0.416 -0.6031 -0.9670  0.1341
 3230TIP3    H1 9696   6.278   3.751   0.379 -1.0750 -1.3814 -1.1098
 3230TIP3    H2 9697   6.169   3.829   0.448 -0.9552 -0.0949 -2.3480
 3231TIP3   OH2 9698   6.050   4.856   1.419 -0.4805 -0.0337  0.5084
 3231TIP3    H1 9699   5.993   4.898   1.483 -0.8196  0.4144 -0.0827
 3231TIP3    H2 9700   6.100   4.792   1.469 -1.9074 -0.8376  0.9386
 3232TIP3   OH2 9701   5.508   2.791   4.658  0.3969 -0.5245 -0.1553
 3232TIP3    H1 9702   5.483   2.780   4.750  1.2591  0.6807  0.2304
 3232TIP3    H2 9703   5.600   2.816   4.661  0.4874 -0.6907 -1.3609
 3233TIP3   OH2 9704   0.125   3.990   2.927  0.0468 -0.4854  0.3918
 3233TIP3    H1 9705   0.054   4.000   2.863  0.4270  1.6210  0.2778
 3233TIP3    H2 9706   0.204   4.015   2.879  0.9483 -3.1427  0.4245
 3234TIP3   OH2 9707   1.145   4.475   2.525 -0.4021  0.2951  0.6855
 3234TIP3    H1 9708   1.136   4.569   2.508  0.8926  0.6605  1.9676
 3234TIP3    H2 9709   1.221   4.448   2.473  0.0110  0.2233  1.3269
 3235TIP3   OH2 9710   3.993   5.895   1.263  0.0836 -0.6405  0.0871
 3235TIP3    H1 9711   4.080   5.902   1.302  0.4929 -1.1520 -0.7108
 3235TIP3    H2 9712   3.965   5.805   1.283 -0.2521 -0.4846  0.3213
 3236TIP3   OH2 9713   1.678   0.150   1.278 -0.5976  0.4607  0.0306
 3236TIP3    H1 9714   1.706   0.165   1.188  1.4315  0.1827  0.5863
 3236TIP3    H2 9715   1.641   0.234   1.306  3.1249  2.0773  0.4498
 3237TIP3   OH2 9716   0.040   4.120   4.915  0.2675 -0.3165 -0.5654
 3237TIP3    H1 9717   0.101   4.135   4.987  1.1901 -0.9974 -1.1787
 3237TIP3    H2 9718   0.020   4.207   4.882  2.6474 -0.1783 -1.7472
 3238TIP3   OH2 9719   1.557   4.033   1.381 -0.4606  0.0860  0.0142
 3238TIP3    H1 9720   1.520   3.957   1.425  0.6259  0.0578  0.8783
 3238TIP3    H2 9721   1.651   4.028   1.398 -0.4483  1.9213  0.5454
 3239TIP3   OH2 9722   0.199   3.806   5.186 -0.2942 -0.2317  0.3255
 3239TIP3    H1 9723   0.185   3.716   5.216 -1.5422 -0.1172  0.1033
 3239TIP3    H2 9724   0.118   3.829   5.140  1.2751 -0.1221 -2.4974
 3240TIP3   OH2 9725   5.613   5.487   3.559 -0.0922 -0.2831 -0.4193
 3240TIP3    H1 9726   5.597   5.440   3.642 -1.1171  0.5122 -0.1608
 3240TIP3    H2 9727   5.704   5.515   3.565 -0.2690  0.0852  0.6047
 3241TIP3   OH2 9728   5.416   4.030   0.222  0.2941  0.1086  0.0157
 3241TIP3    H1 9729   5.427   3.935   0.228  2.1100  0.3101  0.0121
 3241TIP3    H2 9730   5.324   4.042   0.197  0.2312 -1.6711 -0.6554
 3242TIP3   OH2 9731   1.762   4.860   2.961 -0.1912 -0.1786  0.5957
 3242TIP3    H1 9732   1.722   4.774   2.950  1.0420 -0.6277 -0.4884
 3242TIP3    H2 9733   1.751   4.902   2.875 -1.1905  0.9234  1.2549
 3243TIP3   OH2 9734   0.871   5.665   0.838 -0.0192 -0.3492  0.1883
 3243TIP3    H1 9735   0.849   5.758   0.840 -1.7123 -0.7288  0.0212
 3243TIP3    H2 9736   0.899   5.646   0.928 -1.5351 -0.0917  0.7366
 3244TIP3   OH2 9737   0.311   4.713   3.006  0.5781  0.2521  0.8140
 3244TIP3    H1 9738   0.242   4.767   3.044 -0.7002 -0.7669 -0.0618
 3244TIP3    H2 9739   0.305   4.631   3.054  0.1621 -0.3906 -0.3401
 3245TIP3   OH2 9740   3.308   0.645   4.581 -0.0876  0.6111  0.5790
 3245TIP3    H1 9741   3.369   0.678   4.514 -0.4475 -0.2493 -0.1835
 3245TIP3    H2 9742   3.361   0.589   4.637  0.1672  1.1508  0.8792
 3246TIP3   OH2 9743   6.152   6.100   2.180 -0.3677 -0.0733  0.0285
 3246TIP3    H1 9744   6.087   6.087   2.111 -0.4809  1.0999 -0.0927
 3246TIP3    H2 9745   6.107   6.150   2.247 -0.5216 -1.9784  1.3692
 3247TIP3   OH2 9746   3.781   1.245   2.019  0.2308 -0.0880  0.3487
 3247TIP3    H1 9747   3.816   1.173   1.966  1.0012  0.9429 -0.5648
 3247TIP3    H2 9748   3.836   1.247   2.097  0.4469 -0.2408  0.1986
 3248TIP3   OH2 9749   5.911   4.984   1.616 -0.3083 -0.1739 -0.0212
 3248TIP3    H1 9750   5.851   4.948   1.681 -2.5554 -0.2004 -2.0344
 3248TIP3    H2 9751   5.889   5.077   1.612  1.2401  0.2516  0.6956
 3249TIP3   OH2 9752   0.281   5.985   3.119 -0.3314  0.0599  0.4215
 3249TIP3    H1 9753   0.363   5.943   3.091 -0.6755  0.3462 -1.0512
 3249TIP3    H2 9754   0.228   5.914   3.154 -0.2793 -0.4806 -0.5872
 3250TIP3   OH2 9755   1.543   2.946   0.714 -0.7823  0.1133 -0.5720
 3250TIP3    H1 9756   1.484   2.871   0.706 -0.8314  0.2235 -1.3627
 3250TIP3    H2 9757   1.580   2.956   0.626 -1.1101  1.2853 -0.5867
 3251TIP3   OH2 9758   2.087   0.378   3.662 -0.3219  0.1160  0.0427
 3251TIP3    H1 9759   2.084   0.472   3.683  1.2228  0.2668 -0.3383
 3251TIP3    H2 9760   2.014   0.340   3.710 -0.1291  1.3115  1.3032
 3252TIP3   OH2 9761   2.459   6.001   2.464 -0.3055 -0.5012 -0.1341
 3252TIP3    H1 9762   2.525   6.056   2.505  1.0824 -0.0164 -2.8797
 3252TIP3    H2 9763   2.377   6.050   2.475  0.2418  0.1991  0.9033
 3253TIP3   OH2 9764   5.802   5.612   0.733 -0.3404  0.3023 -0.0554
 3253TIP3    H1 9765   5.836   5.524   0.746 -0.9639 -0.0019 -0.4219
 3253TIP3    H2 9766   5.709   5.605   0.754 -0.3392  0.9328  0.1684
 3254TIP3   OH2 9767   6.022   6.001   2.505 -0.4028 -0.3266 -0.0017
 3254TIP3    H1 9768   6.074   6.077   2.476 -1.5151  0.1386 -0.8037
 3254TIP3    H2 9769   5.933   6.035   2.515 -1.0575 -1.6919 -1.0578
 3255TIP3   OH2 9770   2.409   2.302   0.917  0.4634  0.0141  0.5614
 3255TIP3    H1 9771   2.334   2.304   0.976 -0.7828 -0.9038 -0.9763
 3255TIP3    H2 9772   2.437   2.210   0.917  1.6479  0.3547  1.1672
 3256TIP3   OH2 9773   2.630   6.104   3.689  0.3950 -0.7269 -0.1026
 3256TIP3    H1 9774   2.553   6.108   3.632 -1.4730 -4.0943  2.0501
 3256TIP3    H2 9775   2.689   6.042   3.646  1.1511  0.4766 -0.8280
 3257TIP3   OH2 9776   5.969   5.513   2.394  0.0232 -0.2860 -0.1001
 3257TIP3    H1 9777   5.878   5.484   2.391  0.1466 -0.6911  0.0200
 3257TIP3    H2 9778   5.965   5.607   2.374 -0.3057 -0.5505 -1.3319
 3258TIP3   OH2 9779   5.831   4.306   2.618  0.4398  0.1163  0.0369
 3258TIP3    H1 9780   5.770   4.339   2.552  1.2109 -2.2049 -1.8977
 3258TIP3    H2 9781   5.774   4.271   2.687 -0.3802  4.0957  1.5321
 3259TIP3   OH2 9782   0.980   4.913   3.419 -0.3135  0.1711  0.2551
 3259TIP3    H1 9783   0.925   4.953   3.351 -1.1478 -0.5217  0.5081
 3259TIP3    H2 9784   0.930   4.836   3.447  0.4539 -0.0516  1.0125
 3260TIP3   OH2 9785   3.720   5.894   1.953  0.2935  0.8879  0.6864
 3260TIP3    H1 9786   3.815   5.895   1.956  0.3419  0.4716 -0.6190
 3260TIP3    H2 9787   3.695   5.986   1.952  0.7723  1.0115 -1.4159
 3261TIP3   OH2 9788   0.080   4.708   3.920  0.2758 -0.5312  0.1786
 3261TIP3    H1 9789   0.024   4.651   3.867  0.1989 -0.6207  0.3567
 3261TIP3    H2 9790   0.168   4.674   3.905  0.2424 -0.6251  0.1921
 3262TIP3   OH2 9791   1.965   0.016   1.212 -0.5682 -0.1465  0.1280
 3262TIP3    H1 9792   1.999   0.053   1.293 -1.3988  1.7135 -0.3403
 3262TIP3    H2 9793   1.874   0.047   1.208 -0.8297 -1.0226 -1.0308
 3263TIP3   OH2 9794   2.228   0.808   2.887 -0.1604 -0.3952 -0.5803
 3263TIP3    H1 9795   2.249   0.822   2.795  1.1024  1.5847 -0.0154
 3263TIP3    H2 9796   2.140   0.843   2.897  0.1906  0.5477 -0.7640
 3264TIP3   OH2 9797   1.889   0.131   1.906 -0.4704 -0.1205  0.1503
 3264TIP3    H1 9798   1.918   0.061   1.964  1.6175  1.9259  1.6409
 3264TIP3    H2 9799   1.917   0.104   1.819  2.4714 -0.0557  1.0318
 3265TIP3   OH2 9800   3.221   0.914   3.099  0.3250  0.1689  0.0307
 3265TIP3    H1 9801   3.263   0.847   3.045 -0.6733  0.4376 -1.1054
 3265TIP3    H2 9802   3.198   0.868   3.180  1.3874 -0.3652  0.0465
 3266TIP3   OH2 9803   1.247   5.133   4.555  0.2335 -0.0476 -0.0172
 3266TIP3    H1 9804   1.283   5.218   4.533  0.7776 -0.6047 -1.3241
 3266TIP3    H2 9805   1.198   5.106   4.477 -2.3011  0.3055  1.4043
 3267TIP3   OH2 9806   1.121   4.800   0.794 -0.5906 -0.5990  0.2851
 3267TIP3    H1 9807   1.150   4.891   0.784 -0.4721 -0.7700 -1.0185
 3267TIP3    H2 9808   1.048   4.805   0.855 -1.2406  0.5046 -0.5596
 3268TIP3   OH2 9809   3.122   0.004   2.663 -0.3644  0.1116 -0.2760
 3268TIP3    H1 9810   3.175   0.056   2.602 -1.4138  0.3696 -0.9741
 3268TIP3    H2 9811   3.070   0.068   2.710  1.0874 -0.0069  1.5559
 3269TIP3   OH2 9812   6.109   3.898   3.259  0.0595 -0.0585 -0.9753
 3269TIP3    H1 9813   6.040   3.831   3.257 -0.2450  0.2310 -0.3194
 3269TIP3    H2 9814   6.061   3.981   3.254  0.2382  0.2021  1.1680
 3270TIP3   OH2 9815   1.599   4.040   2.032 -0.0098  0.0072 -0.0217
 3270TIP3    H1 9816   1.587   4.013   1.941 -2.1194  0.4277  0.1094
 3270TIP3    H2 9817   1.589   3.959   2.082 -0.9003  0.0925 -0.0389
 3271TIP3   OH2 9818   6.238   3.390   2.800  0.5143  0.4553  0.1194
 3271TIP3    H1 9819   6.308   3.361   2.859 -0.8636  2.2623  2.7520
 3271TIP3    H2 9820   6.266   3.475   2.768  0.1195  0.6003  0.1506
 3272TIP3   OH2 9821   4.943   0.042   1.213 -0.2604  0.0644 -0.4039
 3272TIP3    H1 9822   4.862   0.059   1.164 -0.9724 -0.2473  0.6418
 3272TIP3    H2 9823   4.914  -0.012   1.287  1.0066 -0.5707 -0.3697
 3273TIP3   OH2 9824   2.090   5.103   1.448 -0.3709  0.0925  0.2288
 3273TIP3    H1 9825   2.074   5.008   1.448 -2.0150  0.3518 -0.9112
 3273TIP3    H2 9826   2.042   5.135   1.372 -0.2472  1.9112  0.9071
 3274TIP3   OH2 9827   1.623   3.523   2.058  0.3225  0.6872  0.0970
 3274TIP3    H1 9828   1.565   3.450   2.035 -0.1151  1.4297 -1.2021
 3274TIP3    H2 9829   1.667   3.545   1.976 -0.9322  3.0872  0.0397
 3275TIP3   OH2 9830   2.824   3.292   0.397  0.2056  0.4453 -0.2087
 3275TIP3    H1 9831   2.854   3.345   0.471 -1.4561  2.6725 -1.0760
 3275TIP3    H2 9832   2.899   3.291   0.337  1.0384 -0.1191  0.8214
 3276TIP3   OH2 9833   1.935   0.391   1.980 -0.5087  0.6763  0.4495
 3276TIP3    H1 9834   1.935   0.296   1.986 -2.6171  0.6863  1.0345
 3276TIP3    H2 9835   1.974   0.420   2.063 -0.7511  0.3356  0.6839
 3277TIP3   OH2 9836   4.752   1.189   1.966 -0.2424  0.2692  0.2389
 3277TIP3    H1 9837   4.660   1.171   1.946  0.0792 -1.0907 -0.0738
 3277TIP3    H2 9838   4.801   1.150   1.893  0.6388  0.0351  0.9377
 3278TIP3   OH2 9839   3.007   2.093   0.231  0.1041 -0.3804  0.4298
 3278TIP3    H1 9840   2.965   2.114   0.315 -0.8183 -1.2935  0.1974
 3278TIP3    H2 9841   2.967   2.153   0.169  0.7469  0.2577  0.6188
 3279TIP3   OH2 9842   2.798   5.265   2.077 -0.7235  0.0931  0.5889
 3279TIP3    H1 9843   2.874   5.220   2.115  0.3826  1.4616  0.0206
 3279TIP3    H2 9844   2.816   5.358   2.091 -3.5150  0.3399  2.7344
 3280TIP3   OH2 9845   0.921   5.297   2.221 -0.5133  0.4510  0.2349
 3280TIP3    H1 9846   0.864   5.363   2.262 -0.0106  1.6105 -0.8930
 3280TIP3    H2 9847   0.862   5.242   2.170 -0.8213  0.6408  0.3879
 3281TIP3   OH2 9848   3.287   1.521   2.571 -0.3027  0.3128  0.1219
 3281TIP3    H1 9849   3.250   1.605   2.545 -0.7756 -0.1549 -0.7085
 3281TIP3    H2 9850   3.262   1.512   2.663 -1.1854  0.5733 -0.0872
 3282TIP3   OH2 9851   0.551   5.365   1.299 -0.1652 -0.3175 -0.4491
 3282TIP3    H1 9852   0.576   5.276   1.276  1.2092 -0.4714  1.5453
 3282TIP3    H2 9853   0.618   5.420   1.257  1.0328 -0.4600  1.2353
 3283TIP3   OH2 9854   1.558   5.841   1.974 -0.0902 -0.0122 -0.5409
 3283TIP3    H1 9855   1.536   5.751   1.996 -0.9569  0.1216 -0.8340
 3283TIP3    H2 9856   1.554   5.887   2.058 -0.8521 -0.0095 -0.5736
 3284TIP3   OH2 9857   2.944   5.488   2.172  0.4034  0.0299 -0.2161
 3284TIP3    H1 9858   3.037   5.468   2.167  0.2832 -0.7783  0.7051
 3284TIP3    H2 9859   2.932   5.561   2.111  1.6589  0.2317 -0.2349
 3285TIP3   OH2 9860   2.845  -0.032   2.210 -0.1369  0.1226 -0.4471
 3285TIP3    H1 9861   2.795   0.030   2.263 -1.5388 -1.0270 -0.4089
 3285TIP3    H2 9862   2.867   0.017   2.130  0.1139  1.1494  0.2439
 3286TIP3   OH2 9863   1.753   4.678   3.554 -0.4333 -0.0172 -0.1392
 3286TIP3    H1 9864   1.747   4.768   3.522  1.0623 -0.0719 -0.6080
 3286TIP3    H2 9865   1.689   4.673   3.625  0.0346  1.6504  0.4125
 3287TIP3   OH2 9866   2.482   0.041   1.826 -0.3254 -0.5783 -0.0253
 3287TIP3    H1 9867   2.396   0.012   1.797 -1.8416  3.4682  0.0220
 3287TIP3    H2 9868   2.467   0.079   1.912  1.6319 -0.3241  0.2377
 3288TIP3   OH2 9869   1.441   4.958   1.707 -0.2183  0.4793  0.0863
 3288TIP3    H1 9870   1.500   5.003   1.646 -1.0973 -0.5152 -1.5558
 3288TIP3    H2 9871   1.387   5.028   1.743 -0.0314  1.0358 -0.6823
 3289TIP3   OH2 9872   1.890   4.526   2.379 -0.2122  0.0008 -0.5387
 3289TIP3    H1 9873   1.954   4.463   2.412  1.4419  2.1919  0.5817
 3289TIP3    H2 9874   1.876   4.500   2.288  1.8165 -0.9167 -0.6220
 3290TIP3   OH2 9875   1.717   5.736   3.282  0.6065  0.0060 -0.1577
 3290TIP3    H1 9876   1.809   5.763   3.277  0.8503 -0.7962 -0.0656
 3290TIP3    H2 9877   1.670   5.815   3.310  1.2319  0.4850 -0.4473
 3291TIP3   OH2 9878   0.390   5.068   3.244  0.0905 -0.0241 -0.1822
 3291TIP3    H1 9879   0.321   5.014   3.281  0.3468  0.2013  0.6219
 3291TIP3    H2 9880   0.367   5.157   3.269  0.6150  0.0638 -0.0065
 3292TIP3   OH2 9881   1.863   4.361   1.340 -0.4159 -0.2300 -0.6635
 3292TIP3    H1 9882   1.776   4.349   1.378 -0.1239  1.7253  0.6371
 3292TIP3    H2 9883   1.848   4.364   1.245 -1.9989  1.8522 -0.3732
 3293TIP3   OH2 9884   2.781   0.636   1.727 -0.0532  0.1593 -0.2437
 3293TIP3    H1 9885   2.723   0.590   1.667  0.6081 -0.2790 -0.5499
 3293TIP3    H2 9886   2.851   0.573   1.746  0.5050  0.8039 -0.1484
 3294TIP3   OH2 9887   4.163   0.410   2.832 -0.7232  0.4286  0.3158
 3294TIP3    H1 9888   4.118   0.473   2.888  0.1521  2.5113 -1.2842
 3294TIP3    H2 9889   4.127   0.425   2.745 -0.1100 -0.9265 -0.1872
 3295TIP3   OH2 9890   6.288   0.155   2.189  0.5355 -0.0900  0.6217
 3295TIP3    H1 9891   6.220   0.220   2.170  1.6450  1.6943  2.4723
 3295TIP3    H2 9892   6.269   0.125   2.277  0.4561 -1.7640  0.0402
 3296TIP3   OH2 9893   1.079   5.919   1.162 -0.3973  0.1272  0.8693
 3296TIP3    H1 9894   1.172   5.899   1.177 -0.5567 -0.3335  1.2545
 3296TIP3    H2 9895   1.079   5.976   1.085  0.2861  0.9574  1.4820
 3297TIP3   OH2 9896   4.271   4.072   0.172  0.0122  0.6261 -0.5973
 3297TIP3    H1 9897   4.222   4.113   0.101 -0.6879 -1.4784 -1.3389
 3297TIP3    H2 9898   4.353   4.045   0.133 -0.7194 -1.3016 -0.8307
 3298TIP3   OH2 9899   4.017   0.073   2.473  0.8331  0.0035  0.1115
 3298TIP3    H1 9900   4.047   0.004   2.532  0.5057  0.8367  1.2581
 3298TIP3    H2 9901   3.936   0.106   2.512  0.2884  0.1685 -1.1096
 3299TIP3   OH2 9902   1.447   5.452   1.034 -0.1976  0.1114  0.3735
 3299TIP3    H1 9903   1.432   5.368   0.991 -2.2782  1.1202 -0.9554
 3299TIP3    H2 9904   1.398   5.447   1.116 -1.0087  0.3274 -0.0940
 3300TIP3   OH2 9905   4.725   3.054   1.446 -0.2846 -0.2238 -0.2128
 3300TIP3    H1 9906   4.786   2.992   1.487  1.1470  0.4053 -1.3235
 3300TIP3    H2 9907   4.663   2.999   1.399  0.0710 -0.8628  0.0483
 3301TIP3   OH2 9908   5.831   0.675   2.396 -0.3189  0.0722  0.4065
 3301TIP3    H1 9909   5.840   0.680   2.301  2.1005 -0.0165  0.5941
 3301TIP3    H2 9910   5.908   0.625   2.424 -1.6150 -0.8978  2.3080
 3302TIP3   OH2 9911   0.238   0.324   2.530 -0.1230  0.6277 -0.4274
 3302TIP3    H1 9912   0.145   0.337   2.514 -0.9520 -2.7966  1.0665
 3302TIP3    H2 9913   0.244   0.313   2.625  1.4092 -1.5449 -0.7294
 3303TIP3   OH2 9914   2.527   1.129   1.832  0.2730 -0.1705 -0.5744
 3303TIP3    H1 9915   2.505   1.191   1.902  1.7233 -1.5446  1.1189
 3303TIP3    H2 9916   2.580   1.181   1.771  1.0665  0.4154  0.5806
 3304TIP3   OH2 9917   2.517   2.997   0.156  0.6652 -0.1590  0.2563
 3304TIP3    H1 9918   2.563   3.017   0.238  0.5771  1.6993 -0.1333
 3304TIP3    H2 9919   2.483   3.081   0.127 -0.5126 -1.0490 -0.9698
 3305TIP3   OH2 9920   0.657   5.921   3.015  0.6333 -0.0315 -0.4330
 3305TIP3    H1 9921   0.669   5.972   3.095 -0.2624  0.8158 -0.8252
 3305TIP3    H2 9922   0.732   5.861   3.013  0.8350  0.1696  0.8594
 3306TIP3   OH2 9923   6.454   5.553   2.168  0.1076 -0.0956  0.3938
 3306TIP3    H1 9924   6.509   5.489   2.124 -0.3398 -0.4229  0.3115
 3306TIP3    H2 9925   6.378   5.503   2.199 -0.3134  0.4204  0.1994
 3307TIP3   OH2 9926   2.054   5.115   0.113  0.4168 -0.2498  0.2797
 3307TIP3    H1 9927   2.113   5.181   0.077 -1.4698  0.9410 -0.7380
 3307TIP3    H2 9928   2.071   5.115   0.207  1.3099  0.7747  0.1226
 3308TIP3   OH2 9929   2.003   5.355   2.801 -0.3001 -0.3034 -0.3759
 3308TIP3    H1 9930   2.016   5.303   2.723  3.2317 -0.2398  0.1275
 3308TIP3    H2 9931   2.014   5.294   2.874 -3.0640 -0.2604  0.1522
 3309TIP3   OH2 9932   1.422   4.366   1.025 -0.3149 -0.4574 -0.3058
 3309TIP3    H1 9933   1.328   4.384   1.020 -0.2416 -0.6793 -3.5636
 3309TIP3    H2 9934   1.434   4.286   0.975  1.6847 -0.1441 -0.3817
 3310TIP3   OH2 9935   1.201   4.827   1.108 -0.0835  0.3965 -0.1232
 3310TIP3    H1 9936   1.236   4.882   1.178 -0.6349  1.4912 -0.6928
 3310TIP3    H2 9937   1.122   4.787   1.146 -0.6051  1.3016 -0.2334
 3311TIP3   OH2 9938   3.370   0.456   1.764 -0.1190 -0.3620 -0.3028
 3311TIP3    H1 9939   3.431   0.414   1.824 -0.8151 -0.6545  0.2055
 3311TIP3    H2 9940   3.317   0.384   1.729 -0.7355 -0.0098 -0.0975
 3312TIP3   OH2 9941   4.995   0.207   3.731  0.5021  0.8518 -0.0317
 3312TIP3    H1 9942   4.927   0.144   3.709  1.6815 -0.4806  0.0315
 3312TIP3    H2 9943   4.949   0.289   3.743 -1.4673 -0.5658  2.6952
 3313TIP3   OH2 9944   0.329   4.846   1.597 -0.4717  0.0731 -0.2915
 3313TIP3    H1 9945   0.350   4.892   1.678  0.0347  0.1421 -0.4635
 3313TIP3    H2 9946   0.304   4.915   1.536  0.4089  0.1377 -0.5876
 3314TIP3   OH2 9947   0.289   5.524   1.983 -0.1831 -0.2191  0.5234
 3314TIP3    H1 9948   0.299   5.583   2.058 -1.0698  1.6344 -0.7659
 3314TIP3    H2 9949   0.376   5.524   1.941  0.0279 -0.4168  0.9665
 3315TIP3   OH2 9950   5.903   4.023   4.777  0.4920 -0.2515 -0.1975
 3315TIP3    H1 9951   5.910   3.962   4.850  1.3481 -0.5370 -0.5103
 3315TIP3    H2 9952   5.871   4.104   4.816 -1.4740 -1.1485  0.0813
 3316TIP3   OH2 9953   0.383   4.458   3.046  0.2957  0.1173 -0.0761
 3316TIP3    H1 9954   0.324   4.414   2.985  0.6300 -0.5278  0.0634
 3316TIP3    H2 9955   0.463   4.473   2.995  0.0788  0.8292 -0.2117
 3317TIP3   OH2 9956   0.588   4.837   0.382 -0.5501  0.2116  0.2718
 3317TIP3    H1 9957   0.613   4.802   0.296  1.3500  0.0851  0.8589
 3317TIP3    H2 9958   0.600   4.932   0.374  1.4304  0.0291  0.9651
 3318TIP3   OH2 9959   5.805   1.671   1.526 -0.0765  0.0901  0.3902
 3318TIP3    H1 9960   5.767   1.656   1.440  0.8029 -0.7204  0.1289
 3318TIP3    H2 9961   5.731   1.664   1.587 -0.7450  0.9882 -0.3250
 3319TIP3   OH2 9962   1.987   3.640   2.934  0.0030  0.0967  0.3632
 3319TIP3    H1 9963   2.003   3.734   2.927  1.3294 -0.1316  0.2150
 3319TIP3    H2 9964   1.893   3.630   2.918 -0.1662  1.4062  0.5010
 3320TIP3   OH2 9965   2.647   4.687   4.225  0.3813  0.2089  0.0253
 3320TIP3    H1 9966   2.640   4.668   4.132  0.7828 -0.0970  0.0561
 3320TIP3    H2 9967   2.609   4.611   4.268  0.3596  0.2690  0.1117
 3321TIP3   OH2 9968   0.395   5.237   1.608  0.0383 -0.3222  0.5294
 3321TIP3    H1 9969   0.382   5.162   1.549 -0.5297  0.7616 -0.7524
 3321TIP3    H2 9970   0.347   5.214   1.687 -0.7063 -1.0195 -0.1160
 3322TIP3   OH2 9971   4.539   0.471   3.022 -0.0662 -0.5303  0.5144
 3322TIP3    H1 9972   4.551   0.563   3.043 -1.2730  0.3898 -2.4750
 3322TIP3    H2 9973   4.459   0.446   3.068 -1.4028  0.7782 -1.0558
 3323TIP3   OH2 9974   2.099   6.065   1.154 -0.0214  0.3165  0.1344
 3323TIP3    H1 9975   2.072   6.081   1.064 -2.3629  0.1198  0.7689
 3323TIP3    H2 9976   2.190   6.094   1.157  0.4149 -0.6359 -2.5311
 3324TIP3   OH2 9977   2.300   0.507   1.730  0.1699  0.0303  0.4270
 3324TIP3    H1 9978   2.303   0.452   1.809  0.1771 -0.2514  0.2292
 3324TIP3    H2 9979   2.294   0.597   1.764 -0.5364 -0.1349  0.7483
 3325TIP3   OH2 9980   0.745   4.946   2.576  0.0386 -0.2286  0.4640
 3325TIP3    H1 9981   0.749   4.917   2.667 -1.4038 -1.9415  0.0002
 3325TIP3    H2 9982   0.690   5.024   2.577  2.6688  1.7038  1.4925
 3326TIP3   OH2 9983   1.225   4.919   2.485 -0.2099 -0.5846  0.1149
 3326TIP3    H1 9984   1.184   4.846   2.437 -2.3244 -0.8469  2.2433
 3326TIP3    H2 9985   1.265   4.878   2.561 -0.0246  0.2895  0.4899
 3327TIP3   OH2 9986   5.052   1.263   4.106 -0.2912 -0.5166  0.0503
 3327TIP3    H1 9987   5.027   1.354   4.088  0.1571 -0.5016 -0.5539
 3327TIP3    H2 9988   5.006   1.240   4.186  0.4644  0.6112  0.8307
 3328TIP3   OH2 9989   0.445   2.109   0.228 -0.0960  0.0024 -0.1417
 3328TIP3    H1 9990   0.434   2.028   0.178 -2.3614  0.8734 -1.1249
 3328TIP3    H2 9991   0.520   2.092   0.286  1.0302 -1.8798 -2.1073
 3329TIP3   OH2 9992   4.437   1.747   3.129  0.3209  0.1890  0.0755
 3329TIP3    H1 9993   4.426   1.674   3.190 -0.4542 -0.3323 -0.6680
 3329TIP3    H2 9994   4.352   1.754   3.084  0.4882  1.3513 -0.0781
 3330TIP3   OH2 9995   5.904   0.881   1.401  0.4581 -0.0327 -0.1480
 3330TIP3    H1 9996   5.828   0.940   1.404 -0.1100 -0.7634  0.1382
 3330TIP3    H2 9997   5.915   0.852   1.492  1.2047  0.2223 -0.1556
 3331TIP3   OH2 9998   1.473   5.815   4.658  0.2292 -0.0224  0.0040
 3331TIP3    H1 9999   1.415   5.741   4.641 -0.2157  0.5294 -0.8896
 3331TIP3    H210000   1.438   5.886   4.606  0.6352  0.8448  0.8980
 3332TIP3   OH210001   1.762   0.411   4.808 -0.0357  0.2277 -0.1580
 3332TIP3    H110002   1.780   0.320   4.786  0.7679  0.6719 -1.4414
 3332TIP3    H210003   1.782   0.418   4.902 -2.2897 -1.4151  0.4759
 3333TIP3   OH210004   3.620   0.806   4.115 -0.3319 -0.0429  0.3631
 3333TIP3    H110005   3.564   0.743   4.070 -1.0900  0.0778  1.1457
 3333TIP3    H210006   3.670   0.847   4.045 -0.0587 -1.2858 -0.1883
 3334TIP3   OH210007   3.584   5.685   1.777 -0.4986  0.2128  0.3518
 3334TIP3    H110008   3.604   5.777   1.796 -0.3725  0.4454 -0.8794
 3334TIP3    H210009   3.532   5.656   1.852 -2.1695  1.8179 -0.1530
 3335TIP3   OH210010   2.446   3.727   0.994  0.1458  0.3635 -0.5455
 3335TIP3    H110011   2.541   3.732   1.006  0.0367  1.0267  0.0189
 3335TIP3    H210012   2.432   3.640   0.955  0.9194  0.0098 -0.0447
 3336TIP3   OH210013   4.078   1.052   2.542  0.1950 -0.3450 -0.1268
 3336TIP3    H110014   4.103   1.035   2.633  0.4782 -0.3501 -0.2049
 3336TIP3    H210015   4.067   1.147   2.538  1.2825 -0.2297 -0.3639
 3337TIP3   OH210016   0.919   5.144   0.856  0.4773 -0.2220 -0.1838
 3337TIP3    H110017   0.935   5.228   0.813 -1.7405  0.7293  0.8172
 3337TIP3    H210018   0.899   5.166   0.946 -1.1791 -1.7326 -0.1520
 3338TIP3   OH210019   2.419   4.412   3.618 -0.0036 -0.0635 -0.0652
 3338TIP3    H110020   2.336   4.367   3.633  0.6660 -0.6008  2.2253
 3338TIP3    H210021   2.402   4.469   3.543 -2.0013 -1.2446 -0.5653
 3339TIP3   OH210022   1.957   5.409  -0.019 -0.1137 -0.0274 -0.3138
 3339TIP3    H110023   1.917   5.333   0.023  0.6082 -0.4152 -0.3136
 3339TIP3    H210024   1.994   5.460   0.053  0.4789 -0.3132 -0.4127
 3340TIP3   OH210025   4.082   0.382   1.946  0.3037 -0.4536 -0.0230
 3340TIP3    H110026   4.074   0.289   1.925 -2.6066 -0.5886  1.3838
 3340TIP3    H210027   4.123   0.383   2.033  0.3916 -0.4249 -0.0652
 3341TIP3   OH210028   1.343   5.314   2.123  0.4513 -0.5831  0.7485
 3341TIP3    H110029   1.346   5.289   2.215  1.2129 -1.0960  0.5929
 3341TIP3    H210030   1.433   5.303   2.092  0.3796  0.4308  0.1591
 3342TIP3   OH210031   3.251   3.903   0.172 -0.0996  0.3649  0.3463
 3342TIP3    H110032   3.226   3.938   0.257 -2.7522  1.4307 -0.8068
 3342TIP3    H210033   3.205   3.958   0.109 -2.5319 -3.6416 -1.6172
 3343TIP3   OH210034   5.175   0.186   2.303 -0.0102 -0.0268  0.1605
 3343TIP3    H110035   5.139   0.184   2.215  0.4474  0.9510 -0.0470
 3343TIP3    H210036   5.269   0.197   2.291  0.2336 -1.3840  0.7325
 3344TIP3   OH210037   2.847   5.655   2.453  0.4971 -0.2633 -0.1350
 3344TIP3    H110038   2.861   5.685   2.363 -0.4530  3.7950  0.9689
 3344TIP3    H210039   2.752   5.643   2.460  0.6666 -1.5423  0.0537
 3345TIP3   OH210040   0.229   6.075   2.824  0.2089 -0.3123 -0.2507
 3345TIP3    H110041   0.223   6.030   2.909 -2.0231 -1.6703 -1.0912
 3345TIP3    H210042   0.313   6.048   2.789  0.5434 -0.8580  0.9189
 3346TIP3   OH210043   1.429   3.977   0.567  0.3348 -0.2401  0.0029
 3346TIP3    H110044   1.341   3.979   0.529 -0.2313 -0.8569  1.2579
 3346TIP3    H210045   1.452   4.069   0.581 -0.1051 -0.0776 -0.3497
 3347TIP3   OH210046   3.634   5.888   1.209 -0.0539 -0.4203 -0.0768
 3347TIP3    H110047   3.688   5.850   1.278 -0.9557  0.3552  1.0697
 3347TIP3    H210048   3.678   5.969   1.185  0.0849 -0.5323 -0.2065
 3348TIP3   OH210049   4.931   5.790   2.256 -0.3178  0.2194 -0.1492
 3348TIP3    H110050   4.925   5.694   2.255  0.2541  0.1570  1.1023
 3348TIP3    H210051   5.010   5.808   2.307 -0.0107  1.3515 -1.0113
 3349TIP3   OH210052   3.361   0.342   2.150  0.9614 -0.1056 -0.3731
 3349TIP3    H110053   3.408   0.259   2.158  2.6318  0.7620 -1.0141
 3349TIP3    H210054   3.403   0.387   2.077 -1.1815  0.5074 -1.2914
 3350TIP3   OH210055   0.197   4.481   2.044  0.1324  0.4337  0.4751
 3350TIP3    H110056   0.171   4.561   2.089  2.6764  1.5842 -0.0199
 3350TIP3    H210057   0.209   4.507   1.953 -0.9548 -0.9797 -0.0935
 3351TIP3   OH210058   0.546   5.539   1.900 -0.0435  0.0131 -0.2267
 3351TIP3    H110059   0.621   5.488   1.932  0.3039  0.9244  0.4672
 3351TIP3    H210060   0.582   5.592   1.829  0.1450  0.9324  0.5354
 3352TIP3   OH210061   4.302   2.059   5.091 -0.1230 -0.4899 -0.1029
 3352TIP3    H110062   4.342   2.095   5.012 -0.7853 -0.0090 -0.2272
 3352TIP3    H210063   4.322   1.966   5.089  1.3472 -0.1893  0.0583
 3353TIP3   OH210064   4.861   1.130   0.235 -0.4590 -0.0022  0.1477
 3353TIP3    H110065   4.901   1.217   0.242 -1.4585  0.3993  1.1569
 3353TIP3    H210066   4.933   1.072   0.214  0.2455  1.0651 -0.4339
 3354TIP3   OH210067   2.940   5.501   1.670 -0.2347 -0.0931  0.2806
 3354TIP3    H110068   2.950   5.528   1.761  1.2661  1.6685 -0.3650
 3354TIP3    H210069   2.855   5.538   1.644  0.1948  1.0288  0.4348
 3355TIP3   OH210070   5.464   2.220   2.548  0.6719 -0.4250  0.1762
 3355TIP3    H110071   5.375   2.186   2.560 -1.3184  3.6071 -2.2849
 3355TIP3    H210072   5.482   2.267   2.630  0.0260 -0.1807  0.1815
 3356TIP3   OH210073   1.406   5.174   1.365  0.4908 -0.2355 -1.0783
 3356TIP3    H110074   1.341   5.107   1.343  0.5999 -0.8911  0.5087
 3356TIP3    H210075   1.486   5.143   1.322  0.3049 -0.6264 -1.1504
 3357TIP3   OH210076   3.296   5.923   2.710 -0.2973 -0.1896 -0.3927
 3357TIP3    H110077   3.312   5.872   2.631 -0.8403  1.6430 -1.7183
 3357TIP3    H210078   3.209   5.962   2.696 -0.7209 -0.4588  1.4310
 3358TIP3   OH210079   2.535   5.952   2.196 -0.1327  0.1682  0.6089
 3358TIP3    H110080   2.507   5.934   2.286 -1.7000 -1.0722 -0.1071
 3358TIP3    H210081   2.489   6.032   2.172  1.9431  1.7143  1.6160
 3359TIP3   OH210082   1.067   5.462   3.038 -0.6150 -0.3159 -0.1995
 3359TIP3    H110083   1.053   5.402   3.112 -0.1045 -1.3477 -0.9239
 3359TIP3    H210084   1.160   5.454   3.018 -0.3141  1.5649  0.3942
 3360TIP3   OH210085   1.509   3.735   3.714 -0.2470  0.1464 -0.4444
 3360TIP3    H110086   1.564   3.673   3.667 -1.9501 -2.0261  0.3319
 3360TIP3    H210087   1.452   3.771   3.646  2.1506  2.5186 -1.2747
 3361TIP3   OH210088   5.193   2.191   3.044  0.8739 -0.6186 -0.3549
 3361TIP3    H110089   5.137   2.137   2.986  0.4448 -0.1068 -0.4199
 3361TIP3    H210090   5.160   2.172   3.132 -1.4005  1.9385 -0.5947
 3362TIP3   OH210091   3.012   2.835   3.750  0.7106  0.1564 -0.8188
 3362TIP3    H110092   3.067   2.912   3.733 -0.0005  0.3780 -2.2197
 3362TIP3    H210093   2.939   2.868   3.802  2.2939 -0.2980  1.7944
 3363TIP3   OH210094   3.757   6.011   1.580 -0.1469  0.3181  0.7222
 3363TIP3    H110095   3.846   5.980   1.596 -0.4904 -0.9323  0.3142
 3363TIP3    H210096   3.763   6.106   1.581  1.3650  0.2429 -0.2682
 3364TIP3   OH210097   4.516   5.590   3.717 -0.2342 -0.4755 -0.1881
 3364TIP3    H110098   4.509   5.600   3.812 -0.5130 -0.9153 -0.1609
 3364TIP3    H210099   4.600   5.546   3.703  0.1271  0.2093 -0.1905
 3365TIP3   OH210100   4.179   0.852   2.754  0.4124 -0.2547  0.3272
 3365TIP3    H110101   4.212   0.801   2.679  1.1925  0.9360 -0.1543
 3365TIP3    H210102   4.244   0.838   2.823  1.9799  2.0411 -0.6014
 3366TIP3   OH210103   5.796   5.963   0.851 -0.4182  0.2643  0.2056
 3366TIP3    H110104   5.714   5.983   0.896  0.1437 -0.3759  1.5267
 3366TIP3    H210105   5.794   5.868   0.840  0.5640  0.1379  1.0625
 3367TIP3   OH210106   3.545   1.340   2.099  0.2214  0.6716 -0.1890
 3367TIP3    H110107   3.489   1.335   2.021 -0.6683 -0.3943  0.5072
 3367TIP3    H210108   3.630   1.307   2.069 -0.0189  0.5986 -0.7984
 3368TIP3   OH210109   1.690   5.383   3.907 -0.8154 -0.1480 -0.3331
 3368TIP3    H110110   1.714   5.466   3.865 -0.5610  0.5779  1.1997
 3368TIP3    H210111   1.643   5.410   3.987  0.0461 -1.4592  0.6313
 3369TIP3   OH210112   4.463   2.828   4.052  0.3757  0.4571  0.1138
 3369TIP3    H110113   4.483   2.868   3.967  0.2307  2.1159  0.8551
 3369TIP3    H210114   4.369   2.840   4.063  0.3696  0.1125  0.4396
 3370TIP3   OH210115   4.681   4.589   2.021 -0.1604  0.0489  0.0167
 3370TIP3    H110116   4.768   4.595   2.060 -0.2596  2.3550 -0.0371
 3370TIP3    H210117   4.695   4.612   1.929 -0.5361 -1.4788 -0.4330
 3371TIP3   OH210118   2.416   5.939   1.171  0.0846 -0.2397 -0.9286
 3371TIP3    H110119   2.431   5.868   1.233 -0.5685  1.4486  1.2393
 3371TIP3    H210120   2.345   5.908   1.116  1.0217 -1.9840 -1.2035
 3372TIP3   OH210121   6.478   2.195   4.009  0.3452  0.6646 -0.0370
 3372TIP3    H110122   6.503   2.234   3.925  0.7822 -0.1172 -0.2750
 3372TIP3    H210123   6.450   2.269   4.063 -0.2149  1.1335 -0.9738
 3373TIP3   OH210124   1.733   4.313   4.075  0.3204  0.0759 -0.2840
 3373TIP3    H110125   1.723   4.259   4.153 -0.7852 -0.3664 -0.7297
 3373TIP3    H210126   1.645   4.344   4.056  0.1131 -2.0094 -2.9352
 3374TIP3   OH210127   4.300   0.047   3.020  0.4316 -0.4513 -0.1069
 3374TIP3    H110128   4.279  -0.043   2.995 -1.0079 -0.2820  0.4779
 3374TIP3    H210129   4.216   0.087   3.039  0.9927  1.2595 -1.1356
 3375TIP3   OH210130   5.624   0.950   3.382 -0.3463 -0.2778  1.0367
 3375TIP3    H110131   5.651   1.040   3.365 -1.3559 -0.3755 -1.3619
 3375TIP3    H210132   5.578   0.953   3.466 -1.7180  1.7430  0.2441
 3376TIP3   OH210133   4.321   1.179   0.089  0.0528  0.4178  0.6681
 3376TIP3    H110134   4.350   1.227   0.012 -0.7047  0.3410  0.3371
 3376TIP3    H210135   4.389   1.195   0.154  1.3483 -0.5535 -0.4242
 3377TIP3   OH210136   5.424   0.368   2.618 -0.1664  0.2648  0.5703
 3377TIP3    H110137   5.460   0.286   2.585  1.2265  1.1751 -0.2381
 3377TIP3    H210138   5.359   0.342   2.683  0.1621 -1.4669  0.2247
 3378TIP3   OH210139   2.584   4.721   3.111 -0.0687  0.2215 -0.2235
 3378TIP3    H110140   2.599   4.736   3.018 -0.5912  0.9470 -0.1994
 3378TIP3    H210141   2.670   4.737   3.152  0.7378 -2.4021 -0.8215
 3379TIP3   OH210142   0.124   5.679   1.811 -0.1392  0.7490 -0.2187
 3379TIP3    H110143   0.188   5.725   1.755  0.7569  0.0609  0.2257
 3379TIP3    H210144   0.173   5.605   1.846 -1.3584 -0.1056 -0.3060
 3380TIP3   OH210145   6.228   0.106   0.912  0.2758 -0.5409  0.0571
 3380TIP3    H110146   6.222   0.201   0.901 -0.3320 -0.4149  1.2675
 3380TIP3    H210147   6.293   0.078   0.849 -0.5502  0.5049 -1.2985
 3381TIP3   OH210148   3.713   0.944   1.676  0.1872  0.0586  0.1538
 3381TIP3    H110149   3.795   0.894   1.676 -0.1215 -0.4459 -0.7177
 3381TIP3    H210150   3.667   0.916   1.756  0.9744  0.5453  0.7935
 3382TIP3   OH210151   1.963   5.140   1.836  0.3437  0.2252 -0.0161
 3382TIP3    H110152   2.049   5.115   1.804  1.2816  1.5505  1.3794
 3382TIP3    H210153   1.904   5.126   1.762  1.5854 -1.6121 -0.6746
 3383TIP3   OH210154   2.984   1.311   1.187  0.0811  0.2198 -0.2387
 3383TIP3    H110155   3.052   1.373   1.214 -0.2701  1.2614 -1.7008
 3383TIP3    H210156   2.902   1.360   1.194 -0.2295 -0.1576 -1.1084
 3384TIP3   OH210157   1.736   1.054   2.982 -0.0707 -0.0432  0.9884
 3384TIP3    H110158   1.726   1.114   3.055 -0.6945  1.8188 -0.5952
 3384TIP3    H210159   1.691   0.974   3.009  0.5340  0.2685  2.9945
 3385TIP3   OH210160   2.812   1.426   2.890  0.1790 -0.4396 -0.0451
 3385TIP3    H110161   2.817   1.471   2.974 -1.3484 -0.8408  0.2749
 3385TIP3    H210162   2.854   1.341   2.906  0.9422 -0.0678 -0.0225
 3386TIP3   OH210163   4.550   0.090   3.140  0.2324  0.3785 -0.1628
 3386TIP3    H110164   4.457   0.080   3.122  0.6362 -0.8645 -1.7219
 3386TIP3    H210165   4.578   0.003   3.167  1.1277  0.5104 -0.6492
 3387TIP3   OH210166   4.597   4.356   3.788 -0.9310  0.6264 -0.3491
 3387TIP3    H110167   4.530   4.389   3.728  0.2661 -0.8202 -2.5574
 3387TIP3    H210168   4.578   4.263   3.797 -1.2200  0.8511  1.7571
 3388TIP3   OH210169   1.161   4.471   0.659  0.0361  0.4486 -0.3171
 3388TIP3    H110170   1.232   4.475   0.595 -0.8259 -0.3267 -1.3384
 3388TIP3    H210171   1.083   4.495   0.610 -1.0169 -2.3998 -0.1682
 3389TIP3   OH210172   0.899   6.059   4.191  0.2020  0.5576 -0.0514
 3389TIP3    H110173   0.944   6.132   4.149  0.2901  0.7678  0.4113
 3389TIP3    H210174   0.955   5.983   4.171  0.1549  0.6274 -0.4572
 3390TIP3   OH210175   3.950   1.682   5.019  0.7789 -0.0800 -0.7537
 3390TIP3    H110176   3.970   1.603   5.070  2.3930  0.3815 -0.6640
 3390TIP3    H210177   3.886   1.652   4.954 -0.7518 -0.8406  1.0366
 3391TIP3   OH210178   4.839   0.459   3.601 -0.3601 -0.3347 -0.4146
 3391TIP3    H110179   4.771   0.420   3.547  0.6997 -1.1367 -1.1845
 3391TIP3    H210180   4.919   0.450   3.550  0.6120 -0.8490  1.1448
 3392TIP3   OH210181   0.741   5.487   2.288  0.2104  0.2727 -0.0187
 3392TIP3    H110182   0.725   5.565   2.234  1.3719  0.5180 -0.0428
 3392TIP3    H210183   0.756   5.521   2.376 -0.7898 -0.0551  0.2848
 3393TIP3   OH210184   1.731   5.599   1.248  0.5269 -0.5202  0.0434
 3393TIP3    H110185   1.786   5.535   1.293 -0.3597 -1.2972  0.0496
 3393TIP3    H210186   1.641   5.572   1.269  0.0884 -0.8081 -2.0174
 3394TIP3   OH210187   1.487   4.096   2.959 -0.1890 -0.5783  0.0488
 3394TIP3    H110188   1.394   4.106   2.980  0.2118 -0.7171  1.9737
 3394TIP3    H210189   1.514   4.017   3.006  1.1394  0.0282  0.3255
 3395TIP3   OH210190   2.038   4.530   2.768  0.1517  0.3685 -0.0295
 3395TIP3    H110191   2.062   4.616   2.734 -0.7613  0.6469  0.0196
 3395TIP3    H210192   1.943   4.530   2.769  0.1347 -0.8968 -0.6703
 3396TIP3   OH210193   2.215   3.979   3.488  0.4511 -0.1960 -0.0918
 3396TIP3    H110194   2.251   4.066   3.474 -0.0478 -0.1650 -1.2579
 3396TIP3    H210195   2.257   3.924   3.423 -0.7131 -0.4046 -0.6876
 3397TIP3   OH210196   1.970   0.684   0.141  0.0245  0.1264  0.2627
 3397TIP3    H110197   1.899   0.620   0.142 -0.1566  0.3250  0.2256
 3397TIP3    H210198   2.047   0.635   0.168 -0.2604  0.0716  0.9944
 3398TIP3   OH210199   4.047   3.906   2.913  0.0219 -0.4286 -0.4873
 3398TIP3    H110200   4.057   3.823   2.867 -0.5918  0.1802 -1.7300
 3398TIP3    H210201   3.977   3.952   2.867 -0.4031  0.3219  0.8668
 3399TIP3   OH210202   2.365   4.001   1.668 -0.4463  0.1967 -0.7585
 3399TIP3    H110203   2.305   4.073   1.653  0.0485  0.5700 -0.9529
 3399TIP3    H210204   2.450   4.042   1.681 -0.1684 -0.3442 -0.8224
 3400TIP3   OH210205   2.194   0.320   2.366  0.0809  0.4147 -0.2459
 3400TIP3    H110206   2.203   0.386   2.297  1.2608 -0.4407 -0.9445
 3400TIP3    H210207   2.254   0.350   2.435  0.3326  0.2682 -0.4016
 3401TIP3   OH210208   2.510   5.814   1.853 -0.1310  0.3128 -0.5414
 3401TIP3    H110209   2.415   5.810   1.861 -0.3546 -0.4473 -3.0761
 3401TIP3    H210210   2.542   5.825   1.943 -2.5663 -0.2620  0.4217
 3402TIP3   OH210211   3.724   1.547   4.849 -0.1767  0.7257 -0.1307
 3402TIP3    H110212   3.760   1.502   4.772 -0.1045  1.3422 -0.4636
 3402TIP3    H210213   3.736   1.485   4.921  0.6034  0.5120 -0.4420
 3403TIP3   OH210214   2.065   5.995   0.881 -0.5823 -0.1204  0.6060
 3403TIP3    H110215   2.146   5.993   0.831 -1.2645 -0.5724 -0.4864
 3403TIP3    H210216   2.021   5.913   0.859 -1.9778  0.7482  0.1290
 3404TIP3   OH210217   0.639   5.990   1.130 -0.3713 -0.2105 -0.0339
 3404TIP3    H110218   0.605   6.079   1.119  1.2760  0.4524  0.0611
 3404TIP3    H210219   0.709   5.999   1.195 -0.7562 -1.7243  0.6016
 3405TIP3   OH210220   3.668   0.454   3.748  0.5939 -0.2247  0.1423
 3405TIP3    H110221   3.728   0.386   3.779  0.8833  0.4930  1.1677
 3405TIP3    H210222   3.667   0.444   3.653  0.3314 -1.9212  0.3041
 3406TIP3   OH210223   0.553   4.845   3.208 -0.0227  0.0113  0.3944
 3406TIP3    H110224   0.479   4.792   3.236 -1.4575  1.0032 -1.4357
 3406TIP3    H210225   0.522   4.935   3.214  0.8520  0.4175 -0.8685
 3407TIP3   OH210226   1.866   5.166   4.450  0.3227 -0.2545  0.2625
 3407TIP3    H110227   1.926   5.206   4.387 -0.0678 -2.0466 -1.2967
 3407TIP3    H210228   1.781   5.202   4.428  0.2501 -0.5686  0.0239
 3408TIP3   OH210229   5.825   1.948   3.059 -0.1251 -0.6223  0.2204
 3408TIP3    H110230   5.755   1.885   3.041  0.7055 -1.7916  1.0491
 3408TIP3    H210231   5.810   2.018   2.996 -1.2934 -1.4587 -0.4605
 3409TIP3   OH210232   1.848   1.808   1.453  0.0591 -0.4461  0.6646
 3409TIP3    H110233   1.919   1.873   1.445 -1.0184  0.5534 -1.1045
 3409TIP3    H210234   1.872   1.739   1.390 -0.8844  0.2414 -0.4635
 3410TIP3   OH210235   2.569   5.578   4.182 -0.3877 -0.0505 -0.4341
 3410TIP3    H110236   2.486   5.563   4.228  0.2485  0.6136  0.9541
 3410TIP3    H210237   2.637   5.562   4.248  0.5321  1.5199 -0.9537
 3411TIP3   OH210238   6.054   1.752   1.569 -0.0272  0.5748  0.2025
 3411TIP3    H110239   6.061   1.797   1.484 -0.6109 -2.0405 -1.2880
 3411TIP3    H210240   5.972   1.704   1.564  0.2551 -0.1342  2.0261
 3412TIP3   OH210241   4.973   0.122   0.818 -0.1747 -0.0481  0.1486
 3412TIP3    H110242   5.064   0.131   0.790 -0.8582  1.0615 -1.7532
 3412TIP3    H210243   4.959   0.027   0.823  1.3237 -0.2406  1.3427
 3413TIP3   OH210244   0.952   5.667   2.036 -0.0914  0.0342 -0.6451
 3413TIP3    H110245   0.986   5.578   2.033 -1.0671 -0.3271 -1.3035
 3413TIP3    H210246   1.029   5.722   2.049  0.5397 -0.8854 -0.4459
 3414TIP3   OH210247   0.172   0.901   4.123 -0.1857 -0.1736 -0.2297
 3414TIP3    H110248   0.230   0.960   4.172 -0.8607  2.0379 -2.0246
 3414TIP3    H210249   0.115   0.864   4.190 -0.8228  2.4942  0.7887
 3415TIP3   OH210250   0.363   0.366   0.704  0.1548  0.2841  0.0838
 3415TIP3    H110251   0.416   0.439   0.736 -1.1631 -0.0847  3.2487
 3415TIP3    H210252   0.287   0.364   0.762  0.3661 -3.8621  0.3662
 3416TIP3   OH210253   4.408   5.217   0.518 -0.2170 -0.1643 -0.5344
 3416TIP3    H110254   4.391   5.214   0.424 -1.5876 -0.4637 -0.2921
 3416TIP3    H210255   4.493   5.261   0.526  0.1398 -0.5868 -1.9279
 3417TIP3   OH210256   0.369   0.098   0.286  0.9644  0.7427  1.0728
 3417TIP3    H110257   0.383   0.115   0.379  3.5230  1.8297  0.5286
 3417TIP3    H210258   0.364   0.184   0.246  2.8133  0.3069 -0.1785
 3418TIP3   OH210259   3.512   4.409   0.224  0.4593 -0.1091 -0.1995
 3418TIP3    H110260   3.470   4.491   0.198  2.1541  0.5718 -0.8510
 3418TIP3    H210261   3.494   4.348   0.152  0.9205  0.2830 -0.6411
 3419TIP3   OH210262   6.466   2.427   4.633 -0.0641 -0.2028  0.1712
 3419TIP3    H110263   6.520   2.471   4.697  2.4949  1.1158 -2.7825
 3419TIP3    H210264   6.508   2.342   4.620  0.3160  0.1296 -0.8367
 3420TIP3   OH210265   0.469   0.952   1.870 -0.0814 -0.3878 -0.1082
 3420TIP3    H110266   0.378   0.952   1.897 -0.2925 -1.6677 -0.7800
 3420TIP3    H210267   0.493   1.044   1.865 -1.2788 -0.0538  0.2276
 3421TIP3   OH210268   3.590   5.582   2.422 -0.7417  0.3045  0.8687
 3421TIP3    H110269   3.657   5.590   2.489 -0.6264 -0.6903  0.8785
 3421TIP3    H210270   3.634   5.540   2.348 -1.6808 -1.6177  1.3730
 3422TIP3   OH210271   3.082   3.820   2.370  0.4805  0.4808 -0.4032
 3422TIP3    H110272   3.086   3.784   2.459  0.0661 -1.0513 -0.9959
 3422TIP3    H210273   2.991   3.849   2.360  0.2498 -0.3446 -0.7104
 3423TIP3   OH210274   4.589   0.235   2.872 -0.2365 -0.2013 -0.0621
 3423TIP3    H110275   4.571   0.300   2.940  1.7092  1.2944 -0.9541
 3423TIP3    H210276   4.570   0.151   2.914 -2.7740  0.8935  1.1151
 3424TIP3   OH210277   6.467   0.634   2.630 -0.0786 -0.4051  0.2509
 3424TIP3    H110278   6.452   0.556   2.577 -1.6824  0.2339 -0.2605
 3424TIP3    H210279   6.502   0.600   2.713 -1.8736 -1.7760  0.4707
 3425TIP3   OH210280   4.053   1.413   0.561 -0.6348  0.6301  0.2164
 3425TIP3    H110281   3.989   1.438   0.627 -0.8535 -1.8387  0.9817
 3425TIP3    H210282   4.136   1.412   0.608 -0.9285 -2.0807  0.7265
 3426TIP3   OH210283   5.244   4.752   1.700 -0.2624 -0.3696  0.0116
 3426TIP3    H110284   5.200   4.778   1.619  1.2168 -0.4165 -0.8249
 3426TIP3    H210285   5.198   4.674   1.729 -1.6907  0.4328 -0.0318
 3427TIP3   OH210286   0.743   0.793   1.245 -0.3507 -0.0656  0.0828
 3427TIP3    H110287   0.717   0.752   1.162  1.7352 -2.4074  0.5232
 3427TIP3    H210288   0.809   0.858   1.220 -1.2676  0.7320 -0.2883
 3428TIP3   OH210289   1.709   3.021   5.229  0.3915 -1.0610  0.2405
 3428TIP3    H110290   1.754   2.940   5.251  0.4157 -1.0415  0.2630
 3428TIP3    H210291   1.684   3.011   5.137  0.9115 -0.8525  0.0725
 3429TIP3   OH210292   6.343   1.204   1.105 -0.1391 -0.5572 -0.2235
 3429TIP3    H110293   6.355   1.264   1.031  0.5647 -0.8103 -0.3211
 3429TIP3    H210294   6.286   1.135   1.070  1.5069 -1.5447 -1.0555
 3430TIP3   OH210295   4.407   3.226   3.645  0.1256  0.1043 -0.1138
 3430TIP3    H110296   4.340   3.166   3.612  1.2097 -0.9652 -0.3977
 3430TIP3    H210297   4.372   3.313   3.626 -0.3242 -0.4674 -2.0105
 3431TIP3   OH210298   6.220   0.792   0.364 -0.1695 -0.2208 -0.4111
 3431TIP3    H110299   6.236   0.707   0.325 -0.1050  0.3829 -1.7236
 3431TIP3    H210300   6.135   0.784   0.406 -0.7236 -0.5539 -1.5982
 3432TIP3   OH210301   0.822   0.086   3.184 -0.0600 -0.0206 -0.3657
 3432TIP3    H110302   0.905   0.133   3.180  0.1237 -0.3471 -0.3685
 3432TIP3    H210303   0.813   0.063   3.277  0.1931 -0.5945 -0.4783
 3433TIP3   OH210304   0.560   5.067   4.213 -0.2497 -0.6234 -0.4373
 3433TIP3    H110305   0.514   5.056   4.296  1.5404 -0.5457  0.5867
 3433TIP3    H210306   0.566   4.978   4.178 -0.6402 -0.7109 -0.2880
 3434TIP3   OH210307  -0.013   0.643   1.745  0.5682  0.3070 -0.2494
 3434TIP3    H110308   0.037   0.625   1.666  0.3115 -2.3633  0.1681
 3434TIP3    H210309   0.046   0.619   1.817  0.2511  1.2952  0.3560
 3435TIP3   OH210310   5.049   5.756   0.551 -0.0221 -0.3331 -0.4271
 3435TIP3    H110311   5.035   5.849   0.532 -0.4605 -0.5163 -0.9975
 3435TIP3    H210312   5.021   5.710   0.472 -1.5546 -1.0858  0.5295
 3436TIP3   OH210313   5.531   1.859   1.031 -0.1753 -0.3570  0.0088
 3436TIP3    H110314   5.581   1.934   0.998  0.5624 -0.9863 -0.3311
 3436TIP3    H210315   5.597   1.791   1.045 -0.5619 -0.3322  2.1213
 3437TIP3   OH210316   4.264   4.788   2.343 -0.0909 -0.5133 -0.2648
 3437TIP3    H110317   4.208   4.825   2.410 -1.7704 -0.5519 -1.6125
 3437TIP3    H210318   4.321   4.727   2.390 -0.5392  0.2317  1.2532
 3438TIP3   OH210319   4.056   4.760   0.960  0.8603  0.0857 -0.1061
 3438TIP3    H110320   4.023   4.671   0.957 -0.6358  0.6459 -0.9276
 3438TIP3    H210321   4.014   4.799   1.037 -1.1641  1.0575 -1.6411
 3439TIP3   OH210322   4.496   0.109   1.087  0.4232 -0.0569  0.1953
 3439TIP3    H110323   4.583   0.085   1.056  1.4024  1.0069  2.0192
 3439TIP3    H210324   4.466   0.177   1.026  0.1354 -1.6405 -1.4416
 3440TIP3   OH210325   0.534   0.610   3.594 -0.0258  0.2052  0.6660
 3440TIP3    H110326   0.485   0.595   3.675 -3.0912 -0.7078 -1.2926
 3440TIP3    H210327   0.551   0.704   3.593 -0.9199  0.3920  1.8353
 3441TIP3   OH210328   3.636   4.817   2.988  0.4660 -0.3465  0.4256
 3441TIP3    H110329   3.686   4.860   3.057  1.4140  0.5155 -0.7780
 3441TIP3    H210330   3.612   4.887   2.927  0.3620 -1.2124 -0.5579
 3442TIP3   OH210331   3.063   4.957   2.481 -0.1104 -0.1566  0.3077
 3442TIP3    H110332   3.098   4.892   2.542 -0.8133  0.6153  1.5563
 3442TIP3    H210333   3.119   4.950   2.404  0.7053 -1.2506  0.9781
 3443TIP3   OH210334   3.575   6.098   4.375  0.4004 -0.1359 -0.6427
 3443TIP3    H110335   3.549   6.029   4.436  0.4679  1.2772  0.9904
 3443TIP3    H210336   3.551   6.063   4.289 -3.1722 -0.5543  0.4513
 3444TIP3   OH210337   3.895   5.548   0.180 -0.3836  0.7178  0.0693
 3444TIP3    H110338   3.806   5.530   0.209 -1.2932 -1.1258 -3.5668
 3444TIP3    H210339   3.886   5.620   0.118  0.5730  0.2910 -0.5837
 3445TIP3   OH210340   2.593   4.140   1.707  0.2646 -0.1443  0.3018
 3445TIP3    H110341   2.601   4.232   1.681  0.5034 -0.6015 -1.2750
 3445TIP3    H210342   2.640   4.092   1.639  0.2432 -1.4275  1.1885
 3446TIP3   OH210343   3.068   5.505   3.166 -0.3081 -0.0976 -0.2018
 3446TIP3    H110344   3.107   5.419   3.155 -0.4679 -0.0045 -1.7451
 3446TIP3    H210345   3.105   5.557   3.094 -0.2817  1.0893  0.6565
 3447TIP3   OH210346   3.347   3.143   3.909 -0.8002  0.4099  0.3615
 3447TIP3    H110347   3.426   3.139   3.855  0.1629  1.3792  1.6840
 3447TIP3    H210348   3.377   3.125   3.998 -1.9426  1.4477  0.9782
 3448TIP3   OH210349   4.879   5.026   1.404  0.4935 -0.3196  0.2388
 3448TIP3    H110350   4.899   5.098   1.344 -0.4127 -0.7729 -0.6192
 3448TIP3    H210351   4.865   4.951   1.347 -1.0830 -0.5932  0.9672
 3449TIP3   OH210352   0.845   0.818   1.561 -0.0605 -0.7083 -0.0561
 3449TIP3    H110353   0.856   0.908   1.530 -0.2031 -1.0788 -1.2051
 3449TIP3    H210354   0.751   0.801   1.551 -0.1495 -0.7462  0.8324
 3450TIP3   OH210355   4.474   3.909   1.752  0.3933 -0.0464  0.2124
 3450TIP3    H110356   4.567   3.904   1.730  0.3193  0.8871 -0.3358
 3450TIP3    H210357   4.460   3.835   1.813  1.6656  0.3083  0.9647
 3451TIP3   OH210358   3.314   4.789   1.690 -0.4426 -0.2460 -1.0404
 3451TIP3    H110359   3.362   4.773   1.609  0.8486 -0.8160 -0.1737
 3451TIP3    H210360   3.298   4.702   1.727 -0.3345  0.0460 -0.2884
 3452TIP3   OH210361   2.759   4.948   2.738 -0.1972  0.3046 -0.0428
 3452TIP3    H110362   2.714   4.867   2.765  0.2366  0.3969  0.9599
 3452TIP3    H210363   2.735   5.012   2.805  1.2425  0.4184  0.3661
 3453TIP3   OH210364   4.226   0.632   2.590  0.3210 -0.3686  0.0715
 3453TIP3    H110365   4.278   0.594   2.661  0.5514  0.2459  0.2276
 3453TIP3    H210366   4.272   0.606   2.511 -0.1820 -1.4394  0.1140
 3454TIP3   OH210367   0.157   0.599   1.252  0.0571  0.0046 -0.1093
 3454TIP3    H110368   0.140   0.608   1.346  0.1676  2.8135 -0.3016
 3454TIP3    H210369   0.077   0.630   1.210  0.9034  1.1790 -0.9148
 3455TIP3   OH210370   3.622   5.202   1.939 -0.7029  0.2135  0.7584
 3455TIP3    H110371   3.651   5.288   1.909  0.2542 -0.2163  0.4147
 3455TIP3    H210372   3.558   5.175   1.874 -0.8910  0.6041  0.7793
 3456TIP3   OH210373   3.890   3.847   0.174  0.0127  0.1275 -1.0128
 3456TIP3    H110374   3.832   3.836   0.249  0.1221  1.0824 -0.7823
 3456TIP3    H210375   3.878   3.767   0.122 -0.1475 -0.4880 -0.0417
 3457TIP3   OH210376   4.972   1.068   1.783 -0.0820 -0.5672  0.2711
 3457TIP3    H110377   5.031   1.042   1.854  0.4982  0.4998  0.1928
 3457TIP3    H210378   5.023   1.130   1.731 -0.7518 -0.8070 -0.6811
 3458TIP3   OH210379   5.105   0.757   1.734  0.3009 -0.3890 -0.0255
 3458TIP3    H110380   5.025   0.745   1.684  0.8194 -2.0011 -0.5090
 3458TIP3    H210381   5.173   0.713   1.683  1.4962  0.9099  0.3905
 3459TIP3   OH210382   5.505   0.397   1.163  0.7121 -0.3339  0.6370
 3459TIP3    H110383   5.563   0.400   1.087  2.5637 -1.3521  1.9746
 3459TIP3    H210384   5.545   0.332   1.221 -1.0548 -0.0809  2.1811
 3460TIP3   OH210385   3.673   0.462   2.889  0.1364 -0.6544  0.3091
 3460TIP3    H110386   3.639   0.422   2.809  1.8183 -3.6437  1.0085
 3460TIP3    H210387   3.655   0.398   2.958  1.6257  0.4187  1.7544
 3461TIP3   OH210388   5.455   2.281   0.923  0.1226 -0.3038 -0.0902
 3461TIP3    H110389   5.448   2.231   0.842  0.2460 -0.3486 -0.0739
 3461TIP3    H210390   5.493   2.365   0.896  1.5520 -0.8599  0.1286
 3462TIP3   OH210391   5.216   4.410   1.353 -0.6260  0.3089 -0.1088
 3462TIP3    H110392   5.220   4.428   1.259 -1.2599  0.7269 -0.0631
 3462TIP3    H210393   5.289   4.459   1.390  1.0692 -1.7486 -0.6499
 3463TIP3   OH210394   3.686   0.117   1.478  0.3481 -0.6895 -0.4981
 3463TIP3    H110395   3.646   0.195   1.440  1.1883 -0.4835 -0.9486
 3463TIP3    H210396   3.769   0.107   1.432  0.9550 -0.9610  0.6390
 3464TIP3   OH210397   2.943   0.667   1.408 -0.0474 -0.4927 -0.3393
 3464TIP3    H110398   2.999   0.591   1.391 -0.2660 -0.9033  0.7252
 3464TIP3    H210399   2.854   0.634   1.396 -0.1915 -0.6989  1.1912
 3465TIP3   OH210400   5.884   0.184   1.389  0.2315 -0.3004 -0.2113
 3465TIP3    H110401   5.890   0.257   1.451 -0.2142  0.1468 -0.6802
 3465TIP3    H210402   5.964   0.134   1.403  0.8005  0.5816 -0.2579
 3466TIP3   OH210403   5.771   0.752   4.276 -0.1411 -0.5140  0.1375
 3466TIP3    H110404   5.719   0.726   4.200 -0.3058 -1.5822  0.5990
 3466TIP3    H210405   5.726   0.711   4.350  2.3790 -3.0053  0.3580
 3467TIP3   OH210406   3.633   4.758   0.345 -0.2259  0.3296  0.4354
 3467TIP3    H110407   3.566   4.719   0.289 -0.5671  0.9807  0.3931
 3467TIP3    H210408   3.716   4.724   0.310 -0.4560  0.4900 -0.2617
 3468TIP3   OH210409   4.909   5.477   2.241 -0.3087 -0.1258  0.2109
 3468TIP3    H110410   4.976   5.481   2.309 -0.8199 -0.6789  0.7603
 3468TIP3    H210411   4.905   5.385   2.216  0.2476  0.1630 -0.9509
 3469TIP3   OH210412   4.158   0.419   2.217 -0.6977 -0.3669  0.0774
 3469TIP3    H110413   4.173   0.512   2.232 -1.4187 -0.2439  0.0392
 3469TIP3    H210414   4.095   0.393   2.285 -0.7474 -0.7511 -0.1144
 3470TIP3   OH210415   4.354   5.557   2.473  0.1118 -0.0052 -0.0581
 3470TIP3    H110416   4.434   5.505   2.473  0.6197  0.7715 -1.5743
 3470TIP3    H210417   4.381   5.645   2.448 -0.9344  0.7229  1.2858
 3471TIP3   OH210418   2.687   3.452   5.123  0.0433 -0.6690  0.7601
 3471TIP3    H110419   2.764   3.495   5.088 -0.2817  0.8350  1.8684
 3471TIP3    H210420   2.683   3.479   5.215 -2.4904  0.3171  0.4215
 3472TIP3   OH210421   6.160   1.068   0.953  0.3837  0.6167  0.2361
 3472TIP3    H110422   6.137   1.128   0.882 -2.3424  1.4881  1.7707
 3472TIP3    H210423   6.091   1.081   1.018  1.0280 -2.5044  1.6312
 3473TIP3   OH210424   3.133   5.944   3.266 -0.2497  0.4789 -0.3326
 3473TIP3    H110425   3.115   5.860   3.307  0.5684  2.1807  3.7742
 3473TIP3    H210426   3.228   5.948   3.258 -0.1347  1.6951  1.2301
 3474TIP3   OH210427   5.742   0.916   2.034 -0.1562 -0.0155  0.2511
 3474TIP3    H110428   5.810   0.983   2.044  0.2308 -0.2898 -0.4702
 3474TIP3    H210429   5.749   0.889   1.942 -0.5240 -0.8139  0.4568
 3475TIP3   OH210430   3.356   5.097   0.036  0.1565 -0.1217  0.3210
 3475TIP3    H110431   3.299   5.152  -0.018  1.5327  0.1149 -0.9088
 3475TIP3    H210432   3.416   5.158   0.078 -1.0651 -0.2801  2.3563
 3476TIP3   OH210433   3.468   5.688   0.414  0.0944  0.1906  1.0831
 3476TIP3    H110434   3.375   5.708   0.413  0.1053  0.2373  1.0164
 3476TIP3    H210435   3.472   5.593   0.421  0.0248 -0.0276 -1.2802
 3477TIP3   OH210436   4.080   4.696   2.099  0.0117 -0.0074  0.3324
 3477TIP3    H110437   4.151   4.750   2.132  0.5078 -1.2064  1.2278
 3477TIP3    H210438   4.122   4.616   2.069 -0.6248  0.4096 -1.7675
 3478TIP3   OH210439   5.334   5.880   3.060  0.4917  0.6545  0.0289
 3478TIP3    H110440   5.324   5.800   3.009  2.8727  0.9882 -1.0097
 3478TIP3    H210441   5.270   5.940   3.022 -0.2163 -0.2278 -0.2062
 3479TIP3   OH210442   4.717   5.575   3.301  0.2756 -0.3542  0.4626
 3479TIP3    H110443   4.719   5.529   3.217 -1.0110  0.1445  0.1488
 3479TIP3    H210444   4.768   5.655   3.286  0.2727 -0.3953  0.2373
 3480TIP3   OH210445   4.728   0.103   0.396 -0.4839 -0.2941 -0.6454
 3480TIP3    H110446   4.804   0.049   0.418 -0.2762  0.0164 -0.5997
 3480TIP3    H210447   4.702   0.144   0.479 -1.1671 -0.9933 -0.5143
 3481TIP3   OH210448   3.779   4.720   1.722 -0.5887 -0.2763  0.1539
 3481TIP3    H110449   3.718   4.674   1.780 -1.6249  1.4133  0.4705
 3481TIP3    H210450   3.825   4.781   1.779 -0.3096  0.1146 -0.4793
 3482TIP3   OH210451   5.097   0.468   2.758  0.0439 -0.1057  0.4326
 3482TIP3    H110452   5.018   0.510   2.789  0.2217  0.4963  0.0733
 3482TIP3    H210453   5.105   0.389   2.812 -0.9488 -0.3192  0.2729
 3483TIP3   OH210454   2.925   6.032   2.339 -0.1224  0.4550  0.0143
 3483TIP3    H110455   2.979   6.108   2.360  1.1283 -0.7858  1.3958
 3483TIP3    H210456   2.905   5.992   2.424 -2.6673  0.5052 -0.5297
 3484TIP3   OH210457   5.964   2.157   1.772 -0.5466 -0.1548  0.2097
 3484TIP3    H110458   5.910   2.078   1.768 -1.2700  0.3622 -0.5242
 3484TIP3    H210459   5.988   2.165   1.864 -0.9418 -0.9205  0.3838
 3485TIP3   OH210460   6.096   0.099   1.594  0.1377 -0.1633 -0.2132
 3485TIP3    H110461   6.180   0.084   1.551  0.5393 -0.9704  0.8588
 3485TIP3    H210462   6.115   0.163   1.663 -0.1889 -0.1173 -0.1642
 3486TIP3   OH210463   3.992   0.022   2.180  0.2622 -0.0556 -0.2612
 3486TIP3    H110464   4.033   0.034   2.266  1.1753 -1.5155 -0.4836
 3486TIP3    H210465   3.913  -0.030   2.199 -2.5279  4.1711  0.4057
 3487TIP3   OH210466   2.887   3.790   0.722  0.1091 -0.1545 -0.5386
 3487TIP3    H110467   2.965   3.755   0.679 -0.2776  0.5378 -1.8500
 3487TIP3    H210468   2.917   3.870   0.765  0.4315 -0.6879  0.2501
 3488TIP3   OH210469   4.865   5.680   1.352 -0.5607  0.2297  0.5805
 3488TIP3    H110470   4.922   5.620   1.400  1.3948  0.7416 -1.0235
 3488TIP3    H210471   4.901   5.767   1.370 -1.7762  0.7192  0.7512
 3489TIP3   OH210472   5.282   0.502   2.271 -0.0098 -0.4128  0.2822
 3489TIP3    H110473   5.345   0.431   2.261  2.5257  1.7392  0.4349
 3489TIP3    H210474   5.276   0.515   2.366 -0.1768 -0.1430  0.2331
 3490TIP3   OH210475   2.462   4.952   2.156 -0.4190  0.3619 -0.1904
 3490TIP3    H110476   2.529   5.016   2.181 -0.1990 -0.2038  0.6746
 3490TIP3    H210477   2.420   4.991   2.080  1.7830  0.0959 -1.5885
 3491TIP3   OH210478   3.922   3.987   0.506  0.1004 -0.3580 -0.9377
 3491TIP3    H110479   4.004   3.963   0.464 -0.4699 -1.1146 -1.6365
 3491TIP3    H210480   3.854   3.950   0.450 -0.7383  0.8463 -0.7404
 3492TIP3   OH210481   3.687   3.449   1.246  0.7232  0.3958  0.3556
 3492TIP3    H110482   3.631   3.386   1.200  1.6673 -0.1578 -0.0405
 3492TIP3    H210483   3.627   3.495   1.305 -0.1132 -0.3489  0.1004
 3493TIP3   OH210484   2.496   5.475   0.998  0.2575 -0.5494  0.2161
 3493TIP3    H110485   2.478   5.553   0.945  1.1721 -0.2543  0.3271
 3493TIP3    H210486   2.410   5.436   1.014 -0.1356  0.0347 -0.4559
 3494TIP3   OH210487   5.928   1.802   4.231  0.3717  0.0585 -0.6721
 3494TIP3    H110488   5.981   1.871   4.270  2.6730 -0.6924 -2.4159
 3494TIP3    H210489   5.906   1.744   4.305  0.0539  1.5692  0.4394
 3495TIP3   OH210490   4.808   0.792   1.972  0.7942  0.4015  0.1163
 3495TIP3    H110491   4.846   0.754   2.051 -0.3628 -0.1986  0.4053
 3495TIP3    H210492   4.866   0.765   1.901  0.0047 -1.9545  0.3043
 3496TIP3   OH210493   6.218   2.448   3.151  0.3016  0.6713  0.2717
 3496TIP3    H110494   6.225   2.356   3.177  0.1155  0.8744  1.0795
 3496TIP3    H210495   6.274   2.456   3.074 -1.6952 -0.7155 -1.3879
 3497TIP3   OH210496   3.884   1.508   3.376  0.6743 -0.0486  0.4759
 3497TIP3    H110497   3.804   1.518   3.324  0.2402  0.1646  1.1757
 3497TIP3    H210498   3.933   1.589   3.360  1.7340 -1.0685 -1.5994
 3498TIP3   OH210499   1.128   0.915   0.251 -0.1375 -0.2069 -0.1031
 3498TIP3    H110500   1.088   0.991   0.208 -0.2285  0.6374  1.4479
 3498TIP3    H210501   1.068   0.893   0.322  0.7501 -0.6627  0.5096
 3499TIP3   OH210502   3.516   3.906   3.703  0.2687 -0.0934 -0.1263
 3499TIP3    H110503   3.453   3.850   3.749  0.3255 -1.6948 -1.9579
 3499TIP3    H210504   3.469   3.987   3.688 -1.0412 -0.9249 -0.5914
 3500TIP3   OH210505   1.557   5.550   1.454  0.1354  0.0592  0.1005
 3500TIP3    H110506   1.539   5.623   1.513 -0.2467 -0.1202  0.2087
 3500TIP3    H210507   1.626   5.501   1.497 -0.6138 -0.4494  0.7311
 3501TIP3   OH210508   3.845   4.409   1.717  0.1418 -0.0447 -0.6096
 3501TIP3    H110509   3.883   4.323   1.701  1.2099  0.5925 -1.5623
 3501TIP3    H210510   3.806   4.402   1.804  1.5975 -1.0054 -0.0092
 3502TIP3   OH210511   2.077   5.666   2.153  0.3145  0.2763  0.0896
 3502TIP3    H110512   2.075   5.678   2.058 -0.9182  0.5065  0.1374
 3502TIP3    H210513   2.019   5.591   2.169 -0.6680  1.1609  0.7746
 3503TIP3   OH210514   3.576   3.830   2.720 -0.3282  0.4036  0.1667
 3503TIP3    H110515   3.664   3.864   2.735 -0.0184 -0.0139 -0.6659
 3503TIP3    H210516   3.587   3.766   2.650 -1.4243  0.9669 -0.5342
 3504TIP3   OH210517   6.055   3.448   0.318  0.1700  0.2037 -0.1126
 3504TIP3    H110518   6.010   3.398   0.250 -0.0684  0.5448 -0.2008
 3504TIP3    H210519   5.991   3.457   0.388 -0.5369  2.2937 -0.9876
 3505TIP3   OH210520   1.955   5.508   3.722 -0.2305 -0.2217  0.6014
 3505TIP3    H110521   1.916   5.565   3.789  1.0762  0.5817  0.6932
 3505TIP3    H210522   1.889   5.504   3.653 -0.0688  1.9822  0.2845
 3506TIP3   OH210523   3.842   3.263   2.674 -0.0391 -0.4542  0.2540
 3506TIP3    H110524   3.889   3.259   2.757 -0.0379 -2.2582  0.1755
 3506TIP3    H210525   3.750   3.270   2.698  0.1446  1.9510  0.4001
 3507TIP3   OH210526   5.055   5.892   1.757  0.3224  0.2961 -0.4133
 3507TIP3    H110527   5.034   5.837   1.833 -1.1063  0.8477 -0.3993
 3507TIP3    H210528   5.072   5.979   1.793 -1.3712  0.8040 -0.8079
 3508TIP3   OH210529   5.393   1.883   2.657 -0.4634 -0.3667  0.5528
 3508TIP3    H110530   5.365   1.826   2.729 -2.8378 -2.7396 -2.1335
 3508TIP3    H210531   5.444   1.826   2.600 -1.9096  0.4715 -1.6185
 3509TIP3   OH210532   4.873   6.011   0.325  0.3391  0.5421 -0.5188
 3509TIP3    H110533   4.833   5.925   0.339 -0.4548  0.9483 -0.2391
 3509TIP3    H210534   4.799   6.069   0.304  0.8563  1.1662 -0.6433
 3510TIP3   OH210535   4.794   5.601   1.669  0.1930  0.2107 -0.3324
 3510TIP3    H110536   4.752   5.592   1.583  2.5899 -0.0641 -1.4982
 3510TIP3    H210537   4.851   5.678   1.660  0.9914 -0.2468  0.7911
 3511TIP3   OH210538   1.208   0.665   2.034  0.3899 -0.4324 -0.0728
 3511TIP3    H110539   1.231   0.690   2.124  0.3057  1.2906 -0.5165
 3511TIP3    H210540   1.233   0.573   2.028 -0.9375 -0.9914  2.1707
 3512TIP3   OH210541   3.899   0.617   1.439 -0.1393  0.1172 -0.4407
 3512TIP3    H110542   3.989   0.630   1.410  0.9384 -0.7048  2.4067
 3512TIP3    H210543   3.901   0.538   1.492 -2.4697  0.3028  0.0069
 3513TIP3   OH210544   4.406   5.257   1.969 -0.5711  0.0647  0.7953
 3513TIP3    H110545   4.424   5.223   2.056  0.5454  1.8537  1.3011
 3513TIP3    H210546   4.470   5.213   1.912  2.2281  2.6762  1.7718
 3514TIP3   OH210547   2.794   0.373   2.631 -0.0771 -0.0242  0.4235
 3514TIP3    H110548   2.845   0.395   2.554  0.4363  2.2849  1.3599
 3514TIP3    H210549   2.715   0.428   2.624 -1.7398 -2.4052 -0.2239
 3515TIP3   OH210550   4.401   5.522   1.607 -0.0819 -0.1535  0.2151
 3515TIP3    H110551   4.328   5.535   1.546  0.1460 -0.2409 -0.0755
 3515TIP3    H210552   4.398   5.428   1.627  0.3117 -0.2640 -0.2491
 3516TIP3   OH210553   5.066   0.767   0.642 -0.2960 -0.3416 -0.3064
 3516TIP3    H110554   5.047   0.725   0.726 -0.4266  0.8969  0.2881
 3516TIP3    H210555   5.053   0.860   0.658 -2.7512 -0.2855 -2.3702
 3517TIP3   OH210556   0.267   1.303   3.613 -0.0010  0.4973 -0.0283
 3517TIP3    H110557   0.354   1.343   3.613  0.3469 -0.2376  0.1916
 3517TIP3    H210558   0.225   1.334   3.533  0.4655  0.8611 -0.1292
 3518TIP3   OH210559   2.836   5.366   2.452 -0.1153  0.2313 -0.3511
 3518TIP3    H110560   2.922   5.336   2.481 -0.0485  1.2939  0.6107
 3518TIP3    H210561   2.856   5.437   2.389 -0.2714  1.6399  1.1527
 3519TIP3   OH210562   2.441   5.155   1.388 -0.5079 -0.1064  0.1519
 3519TIP3    H110563   2.359   5.112   1.414  0.6574 -1.7482  1.2351
 3519TIP3    H210564   2.496   5.149   1.465  1.5472 -1.3347 -1.3681
 3520TIP3   OH210565   3.134   2.094   1.168 -1.0586  0.1783  0.1503
 3520TIP3    H110566   3.047   2.131   1.153 -0.8464  1.5538  2.1131
 3520TIP3    H210567   3.168   2.076   1.080 -3.0374  0.2662 -0.6593
 3521TIP3   OH210568   3.598   5.592   0.144  0.6284  0.4007 -0.0524
 3521TIP3    H110569   3.580   5.645   0.222  0.8554  1.5521 -0.7745
 3521TIP3    H210570   3.615   5.656   0.075  1.1545 -0.6230 -0.8775
 3522TIP3   OH210571   4.317   5.093   2.818 -0.3933  0.0014  0.1590
 3522TIP3    H110572   4.360   5.103   2.904 -0.2309 -0.0294  0.0821
 3522TIP3    H210573   4.361   5.017   2.779 -0.1473  0.2978 -0.1424
 3523TIP3   OH210574   1.574   4.576   3.350 -0.1098  0.1000 -0.0228
 3523TIP3    H110575   1.637   4.529   3.295  1.7959  1.2226  1.1454
 3523TIP3    H210576   1.628   4.620   3.415 -2.2182  0.1013  1.7636
 3524TIP3   OH210577   4.678   5.876   2.331  0.3723 -0.5381 -0.4947
 3524TIP3    H110578   4.767   5.865   2.297  1.1473  1.1273  0.8603
 3524TIP3    H210579   4.667   5.971   2.336 -0.3706 -0.7253  2.1432
 3525TIP3   OH210580   2.079   1.673   2.748  0.6245 -0.2948 -0.4131
 3525TIP3    H110581   2.037   1.617   2.682  0.1231  0.1761 -0.4939
 3525TIP3    H210582   2.121   1.742   2.698 -0.5787  0.6148 -0.1939
 3526TIP3   OH210583   2.169   5.291   2.335 -0.2285  0.0486 -0.3518
 3526TIP3    H110584   2.181   5.197   2.323 -1.4937 -0.3636  1.4393
 3526TIP3    H210585   2.126   5.321   2.256  1.9680 -0.4998 -1.8009
 3527TIP3   OH210586   3.272   0.576   3.407  0.0985  0.0729  0.1632
 3527TIP3    H110587   3.348   0.632   3.418 -0.8302  1.2326  0.8297
 3527TIP3    H210588   3.202   0.635   3.379 -0.5105 -0.9981 -0.6023
 3528TIP3   OH210589   3.656   4.711   2.180 -0.8026  0.1067  0.7565
 3528TIP3    H110590   3.673   4.629   2.133 -1.1679  0.1079  0.6216
 3528TIP3    H210591   3.626   4.772   2.113 -0.2483  0.4373  0.8121
 3529TIP3   OH210592   5.232   0.949   2.259 -0.1791 -0.0598 -0.1257
 3529TIP3    H110593   5.202   1.023   2.312 -2.1550  0.5885 -2.0326
 3529TIP3    H210594   5.172   0.877   2.283  1.1185 -0.7857  1.0109
 3530TIP3   OH210595   2.555   1.519   0.118  0.3401 -0.3524  0.5808
 3530TIP3    H110596   2.525   1.460   0.188  0.4306 -0.7712  0.2700
 3530TIP3    H210597   2.475   1.560   0.086  0.3999  0.6080  1.6066
 3531TIP3   OH210598   6.288   1.329   1.337 -0.0301 -0.4488  0.0116
 3531TIP3    H110599   6.309   1.421   1.318 -2.2720  0.0854 -0.0169
 3531TIP3    H210600   6.322   1.281   1.261 -2.8474  0.9015 -2.2001
 3532TIP3   OH210601   3.956   5.247   0.682 -0.5367  0.1993 -0.0668
 3532TIP3    H110602   3.930   5.189   0.754  2.0681 -0.4318  0.4064
 3532TIP3    H210603   3.883   5.242   0.620 -0.9907 -2.4875  0.6307
 3533TIP3   OH210604   6.136   0.058   2.885 -0.2063  1.2098  0.2861
 3533TIP3    H110605   6.061   0.005   2.912  0.0931  0.7400  0.2146
 3533TIP3    H210606   6.140   0.046   2.790 -0.2165  1.4651  0.2547
 3534TIP3   OH210607   3.304   5.565   1.004 -0.4380  0.3917 -0.2660
 3534TIP3    H110608   3.254   5.640   1.035  0.4683  0.7633  0.2900
 3534TIP3    H210609   3.379   5.559   1.063  1.0432  0.8078 -2.0584
 3535TIP3   OH210610   5.928   0.435   0.835 -0.2404  0.1125  0.3949
 3535TIP3    H110611   5.990   0.443   0.908 -1.5816 -0.0996  1.5975
 3535TIP3    H210612   5.981   0.442   0.757  1.5703 -1.9741  1.3812
 3536TIP3   OH210613   2.478   0.463   0.480 -0.0686 -0.0518  0.2927
 3536TIP3    H110614   2.551   0.519   0.455  0.4357 -0.0914  1.6159
 3536TIP3    H210615   2.435   0.441   0.398  1.5811 -0.2635 -0.5396
 3537TIP3   OH210616   1.757   3.490   2.633 -0.4918 -0.5141  0.6368
 3537TIP3    H110617   1.802   3.423   2.581 -0.5598 -0.1503  0.1166
 3537TIP3    H210618   1.739   3.446   2.716  0.4293 -0.8101  0.6958
 3538TIP3   OH210619   2.815   4.415   1.826 -0.4498 -0.0129  0.3726
 3538TIP3    H110620   2.774   4.349   1.883  0.4423 -0.2689  0.7269
 3538TIP3    H210621   2.898   4.436   1.870  0.1047  0.0105 -0.6777
 3539TIP3   OH210622   2.366   5.352   2.519  0.3297 -0.0084 -0.7337
 3539TIP3    H110623   2.323   5.349   2.434 -0.2588 -0.0469 -0.4388
 3539TIP3    H210624   2.414   5.269   2.525 -3.8831 -2.4740  1.1758
 3540TIP3   OH210625   3.773   4.282   3.787  0.4198  0.3124  0.0419
 3540TIP3    H110626   3.824   4.293   3.868  1.3429  0.4000 -0.5470
 3540TIP3    H210627   3.750   4.190   3.786  1.6097  0.0128 -0.3030
 3541TIP3   OH210628   5.854   4.517   4.527 -0.2943 -0.1195  0.5475
 3541TIP3    H110629   5.779   4.573   4.507 -0.3266 -0.1995  0.4439
 3541TIP3    H210630   5.928   4.577   4.535 -0.1217 -0.1596 -0.6497
 3542TIP3   OH210631   0.985   1.000   1.244  0.0210 -0.2287 -0.3388
 3542TIP3    H110632   1.059   0.957   1.286  1.0364 -0.1734 -2.0404
 3542TIP3    H210633   0.945   1.053   1.313  1.3627 -0.5043  0.6614
 3543TIP3   OH210634   4.038   5.133   1.907  0.5132 -0.2275  0.3157
 3543TIP3    H110635   3.943   5.130   1.923  0.3803  0.9277 -0.1677
 3543TIP3    H210636   4.075   5.161   1.991  0.1151  2.4697 -0.3301
 3544TIP3   OH210637   5.977   4.782   2.187 -0.6641  0.6908  0.4604
 3544TIP3    H110638   5.933   4.717   2.241 -1.8101  1.0117 -0.0842
 3544TIP3    H210639   6.019   4.732   2.117  2.2693  0.0828  2.5547
 3545TIP3   OH210640   4.074   5.449   0.971 -0.5715 -0.0782  0.0326
 3545TIP3    H110641   4.111   5.463   0.884  0.1493  0.1713  0.3761
 3545TIP3    H210642   4.125   5.506   1.028 -2.2740  1.1647  0.3333
 3546TIP3   OH210643   6.462   4.916   1.439 -0.4715 -0.1225  0.1743
 3546TIP3    H110644   6.377   4.958   1.454 -1.1509 -2.0796  2.0410
 3546TIP3    H210645   6.441   4.838   1.389  0.3901  0.0001 -0.3864
 3547TIP3   OH210646   4.817   4.841   0.739  0.3472 -0.2376 -0.2162
 3547TIP3    H110647   4.828   4.922   0.789 -0.8621 -0.9343  1.2423
 3547TIP3    H210648   4.786   4.869   0.653  2.1534  0.9675 -0.4905
 3548TIP3   OH210649   2.368   0.543   3.294  0.4278  0.2851  0.5619
 3548TIP3    H110650   2.462   0.527   3.300  0.0712 -2.1266 -0.0134
 3548TIP3    H210651   2.339   0.545   3.385  0.4004 -3.0439  0.6560
 3549TIP3   OH210652   0.398   6.078   2.400 -0.6357 -0.3404 -0.0136
 3549TIP3    H110653   0.409   6.150   2.462  0.3125 -0.7112  0.2600
 3549TIP3    H210654   0.304   6.075   2.383 -0.5355  2.0621 -1.3374
 3550TIP3   OH210655   5.142   6.072   2.662 -0.4454 -0.6009 -0.1190
 3550TIP3    H110656   5.156   6.145   2.722  0.5972 -3.0339  2.7483
 3550TIP3    H210657   5.231   6.040   2.644 -0.8484 -0.7566 -1.9219
 3551TIP3   OH210658   5.280   5.860   2.153  0.3896  0.1205 -0.2707
 3551TIP3    H110659   5.211   5.908   2.198 -1.1976 -1.0886 -1.3850
 3551TIP3    H210660   5.345   5.843   2.221 -0.3573  1.3364  0.7738
 3552TIP3   OH210661   2.215   0.908   3.946 -0.0015  0.1551 -0.2291
 3552TIP3    H110662   2.146   0.974   3.941 -0.6575 -0.4835  0.2854
 3552TIP3    H210663   2.260   0.926   4.028 -0.9510 -0.7776  0.5083
 3553TIP3   OH210664   4.804   5.421   1.151 -0.0346 -0.6693 -0.2234
 3553TIP3    H110665   4.748   5.454   1.081  0.4024 -0.0318 -0.2851
 3553TIP3    H210666   4.863   5.494   1.170  1.4243 -1.6551 -0.8407
 3554TIP3   OH210667   1.819   1.917   2.458 -0.4588 -0.4188 -0.2255
 3554TIP3    H110668   1.755   1.896   2.525 -1.7975  0.4370 -1.2127
 3554TIP3    H210669   1.825   1.838   2.405  0.7742 -1.1773  1.0146
 3555TIP3   OH210670   5.586   4.628   4.518  0.0420  0.2813  0.2528
 3555TIP3    H110671   5.552   4.694   4.578 -0.8134  0.2154 -0.1496
 3555TIP3    H210672   5.522   4.556   4.522  0.8629 -0.4406  0.5435
 3556TIP3   OH210673   4.396   4.759   1.895 -0.0500  0.1377 -0.0774
 3556TIP3    H110674   4.370   4.823   1.830 -0.4678 -0.6823 -0.7314
 3556TIP3    H210675   4.389   4.805   1.979 -2.0441  0.4182 -0.3717
 3557TIP3   OH210676   2.018   3.741   4.311  0.3042  0.1764  0.3972
 3557TIP3    H110677   2.113   3.737   4.310  0.3688  1.4021 -0.9619
 3557TIP3    H210678   1.992   3.713   4.223 -0.5502  0.5190  0.5357
 3558TIP3   OH210679   0.050   0.224   2.242 -0.3729 -0.2377  0.5791
 3558TIP3    H110680   0.098   0.256   2.165 -0.0253 -0.1933  0.8131
 3558TIP3    H210681  -0.021   0.171   2.206 -0.7560  0.5280  0.1907
 3559TIP3   OH210682   0.888   1.298   1.117  0.4518  0.0470  0.5621
 3559TIP3    H110683   0.952   1.234   1.088  0.3717 -0.3445  1.2250
 3559TIP3    H210684   0.829   1.249   1.175 -0.1645  0.5042  0.3357
 3560TIP3   OH210685   1.993   2.114   5.154 -0.0482  0.1154  0.4511
 3560TIP3    H110686   1.916   2.152   5.196  1.2568  1.8344  1.3124
 3560TIP3    H210687   2.011   2.034   5.204 -2.6357 -1.6124 -1.2107
 3561TIP3   OH210688   2.366   1.881   4.162  0.1257 -0.1607  0.0778
 3561TIP3    H110689   2.353   1.799   4.210 -0.7643  0.1131  0.3174
 3561TIP3    H210690   2.323   1.867   4.078  0.0851  0.0155  0.0690
 3562TIP3   OH210691   1.334   1.665   3.430 -0.0752 -0.0585 -0.3642
 3562TIP3    H110692   1.424   1.637   3.446 -0.3327  0.2515  1.7954
 3562TIP3    H210693   1.281   1.588   3.450 -0.3832  0.2230 -0.0768
 3563TIP3   OH210694   0.667   1.239   3.150 -0.0805 -0.0775 -0.3180
 3563TIP3    H110695   0.588   1.287   3.175 -0.1516 -0.2884 -0.1358
 3563TIP3    H210696   0.656   1.153   3.191 -0.4049 -0.5700 -1.4258
 3564TIP3   OH210697   0.372   0.361   0.210 -0.0871 -0.4342 -0.1641
 3564TIP3    H110698   0.292   0.390   0.167  0.9697  2.4330 -0.2697
 3564TIP3    H210699   0.368   0.400   0.298  1.2613 -0.1312 -0.2230
 3565TIP3   OH210700   6.164   6.074   4.957  0.4951 -0.4151  0.4136
 3565TIP3    H110701   6.212   6.111   4.883 -1.4262 -1.0113 -1.1755
 3565TIP3    H210702   6.214   5.995   4.980  2.3611  0.9787  1.2424
 3566TIP3   OH210703   1.892   0.488   1.186  0.2026 -0.2225  0.5166
 3566TIP3    H110704   1.899   0.583   1.184  0.0611 -0.1641  2.2291
 3566TIP3    H210705   1.831   0.469   1.257 -1.4057 -1.5279 -1.1168
 3567TIP3   OH210706   1.015   1.318   0.509 -0.2222 -0.0992  0.4241
 3567TIP3    H110707   1.006   1.317   0.413  1.3351  2.1754  0.2001
 3567TIP3    H210708   1.100   1.279   0.525  0.1028  0.7425  0.7738
 3568TIP3   OH210709   6.466   3.896   1.197 -0.5518  0.4025  0.1307
 3568TIP3    H110710   6.387   3.941   1.227 -0.1035  0.8183  0.6952
 3568TIP3    H210711   6.499   3.951   1.126 -0.7500  0.2486 -0.0802
 3569TIP3   OH210712   1.408   0.972   2.218 -0.5734  0.2739 -0.5921
 3569TIP3    H110713   1.448   0.986   2.132 -0.1194 -0.3625 -0.4839
 3569TIP3    H210714   1.339   1.039   2.223  1.5221  2.4362 -0.0921
 3570TIP3   OH210715   4.935   5.999   2.046  0.4672 -0.2958 -0.0876
 3570TIP3    H110716   4.920   5.921   2.100  0.6079  0.1854  0.6517
 3570TIP3    H210717   4.848   6.036   2.033  0.4473 -0.3361 -0.0693
 3571TIP3   OH210718   5.604   5.676   1.146  1.3355 -0.3118 -0.5110
 3571TIP3    H110719   5.687   5.721   1.135  0.7195  1.1623  0.7769
 3571TIP3    H210720   5.580   5.691   1.237 -0.6505 -0.2023 -1.0350
 3572TIP3   OH210721   2.878   4.333   0.335  0.1236 -0.1893 -0.0583
 3572TIP3    H110722   2.844   4.253   0.375 -0.4916  0.4068  0.6293
 3572TIP3    H210723   2.967   4.342   0.371 -0.1958  0.0012  0.6992
 3573TIP3   OH210724   4.325   3.724   1.136 -0.6890  0.1222 -1.0144
 3573TIP3    H110725   4.387   3.675   1.081  0.0004  0.4395 -0.5192
 3573TIP3    H210726   4.360   3.718   1.224  0.2264  2.7961 -1.1657
 3574TIP3   OH210727   2.829   1.867   1.554 -0.5837 -0.6318 -0.0089
 3574TIP3    H110728   2.761   1.861   1.487 -1.2716 -1.8380  0.7898
 3574TIP3    H210729   2.910   1.840   1.509 -1.3025 -2.9477  0.0207
 3575TIP3   OH210730   3.798   5.055   2.079 -0.5783 -0.1827  0.4594
 3575TIP3    H110731   3.729   5.107   2.039  1.3271  0.9813 -1.4742
 3575TIP3    H210732   3.802   4.975   2.025  0.9908  0.7200 -0.8178
 3576TIP3   OH210733   3.686   4.929   0.554 -0.0439 -0.0201  0.2909
 3576TIP3    H110734   3.762   4.893   0.600 -0.9480 -0.6832  1.2638
 3576TIP3    H210735   3.673   4.870   0.479  0.1503 -0.1321  0.3452
 3577TIP3   OH210736   4.428   5.365   1.322  0.3082  0.4688  0.2461
 3577TIP3    H110737   4.387   5.310   1.389 -0.0021 -1.4093 -1.4576
 3577TIP3    H210738   4.355   5.407   1.277  0.4167 -0.0794 -0.4391
 3578TIP3   OH210739   5.326   4.704   2.495 -0.4655 -0.6586  0.2373
 3578TIP3    H110740   5.295   4.778   2.443 -1.1226 -0.7120  0.5375
 3578TIP3    H210741   5.388   4.659   2.438 -0.1751  0.0398  0.0006
 3579TIP3   OH210742   5.927   4.514   1.704 -0.3080  0.2029  0.2797
 3579TIP3    H110743   5.856   4.572   1.732 -1.5638 -0.9873 -0.3871
 3579TIP3    H210744   5.973   4.492   1.785  0.2943  2.2442  0.5174
 3580TIP3   OH210745   0.943   3.225   4.059  0.2015  0.4834  0.3356
 3580TIP3    H110746   0.989   3.215   4.142  0.1603  2.3733  0.5900
 3580TIP3    H210747   0.853   3.198   4.079  0.3982  0.0626  0.6728
 3581TIP3   OH210748   3.395   3.985   2.293 -0.5580 -0.2719  0.2038
 3581TIP3    H110749   3.397   3.894   2.320 -2.1870  0.0841  1.6600
 3581TIP3    H210750   3.369   4.033   2.372  1.7627  1.6366 -0.1046
 3582TIP3   OH210751   2.975   5.367   3.478 -0.0278 -0.0865  0.3058
 3582TIP3    H110752   2.897   5.314   3.463 -0.6911  1.0035 -0.1575
 3582TIP3    H210753   2.980   5.374   3.574  0.4805 -1.5774  0.3965
 3583TIP3   OH210754   0.909   0.252   1.500  0.5236  0.8232  0.3980
 3583TIP3    H110755   0.988   0.272   1.450  0.7760  2.4623  1.4062
 3583TIP3    H210756   0.838   0.254   1.436  1.0679  1.1652 -0.1986
 3584TIP3   OH210757   3.841   1.902   0.654  0.1871  0.7741 -0.6506
 3584TIP3    H110758   3.866   1.910   0.746  1.5614 -0.0001 -0.9363
 3584TIP3    H210759   3.887   1.975   0.611  1.6509 -0.3896 -1.1089
 3585TIP3   OH210760   3.264   1.138   3.744  0.1583  0.1994  0.6610
 3585TIP3    H110761   3.301   1.222   3.715  1.0562 -0.5815 -0.5230
 3585TIP3    H210762   3.293   1.130   3.835 -1.3413  1.9329  1.3325
 3586TIP3   OH210763   4.120   1.485   0.286 -0.1497  0.0221  0.2009
 3586TIP3    H110764   4.094   1.476   0.378  2.8013 -1.4323  0.9576
 3586TIP3    H210765   4.053   1.437   0.238 -1.1674 -0.0946  1.6850
 3587TIP3   OH210766   0.448   1.399   4.324 -0.2007  0.9016  0.0657
 3587TIP3    H110767   0.460   1.406   4.229 -0.1129  1.3029  0.1055
 3587TIP3    H210768   0.529   1.358   4.355 -0.1891  0.8595 -0.0189
 3588TIP3   OH210769   3.526   1.399   4.280  0.2731  0.1489 -0.3885
 3588TIP3    H110770   3.542   1.371   4.190  1.9062  1.2748 -0.4772
 3588TIP3    H210771   3.546   1.321   4.333  2.2526  0.3296 -0.8166
 3589TIP3   OH210772   1.324   5.657   4.995  0.7065 -0.3113  0.4293
 3589TIP3    H110773   1.281   5.650   5.081  1.0902  1.6225  0.8101
 3589TIP3    H210774   1.398   5.716   5.010 -0.8971  2.4437 -1.8087
 3590TIP3   OH210775   5.332   1.683   0.966 -0.1193  0.7265  0.4332
 3590TIP3    H110776   5.263   1.745   0.990  0.1666  0.8123  1.0250
 3590TIP3    H210777   5.413   1.725   0.993  0.1310  0.4029  0.1898
 3591TIP3   OH210778   0.770   5.737   3.789  0.6576  0.1781 -0.3234
 3591TIP3    H110779   0.843   5.713   3.733  0.5321 -0.4351 -0.2294
 3591TIP3    H210780   0.773   5.674   3.862 -0.6146 -0.5672 -0.8893
 3592TIP3   OH210781   0.608   5.318   4.911  0.8185 -0.6103  0.4122
 3592TIP3    H110782   0.637   5.383   4.848  1.3116  0.0625  1.3172
 3592TIP3    H210783   0.643   5.235   4.878  0.3249 -0.3940 -0.6517
 3593TIP3   OH210784   3.827   1.495   0.748 -0.1127 -0.0314  0.6991
 3593TIP3    H110785   3.805   1.588   0.738 -0.0471 -0.0096  0.7638
 3593TIP3    H210786   3.783   1.453   0.674 -0.6522 -0.0292  1.0167
 3594TIP3   OH210787   3.308   3.187   2.012  0.1182 -0.3733  0.1696
 3594TIP3    H110788   3.325   3.136   1.933 -3.2381 -1.2750 -0.0112
 3594TIP3    H210789   3.322   3.278   1.986 -2.5003 -0.5273 -1.9544
 3595TIP3   OH210790   1.915   1.639   3.662  0.6122 -0.0371  0.0557
 3595TIP3    H110791   1.976   1.638   3.588 -1.0993 -0.2891 -1.3807
 3595TIP3    H210792   1.863   1.560   3.651 -0.7984  0.8095  0.5426
 3596TIP3   OH210793   3.209   0.399   4.483  0.0613 -0.2118  0.3808
 3596TIP3    H110794   3.247   0.478   4.520 -0.1229 -0.2763  0.7100
 3596TIP3    H210795   3.119   0.424   4.461  0.6648  0.3194 -1.5948
 3597TIP3   OH210796   2.246   2.469   4.736  0.0866  0.4341  0.0439
 3597TIP3    H110797   2.303   2.544   4.719  0.4524  0.0900 -0.2582
 3597TIP3    H210798   2.284   2.397   4.685  0.1635 -0.1456  0.9017
 3598TIP3   OH210799   2.907   4.585   0.211  0.0439 -0.2278  0.0951
 3598TIP3    H110800   2.832   4.571   0.269 -0.1485  0.9546  0.1500
 3598TIP3    H210801   2.953   4.501   0.209 -0.6513 -0.6300  0.9592
 3599TIP3   OH210802   3.580   1.924   0.578  0.6938  0.1947  0.7973
 3599TIP3    H110803   3.669   1.909   0.612 -0.0361 -2.0983  1.8015
 3599TIP3    H210804   3.589   1.914   0.483  1.5699  0.3192  0.8571
 3600TIP3   OH210805   1.759   1.276   4.323  0.0783  0.2426 -0.2672
 3600TIP3    H110806   1.788   1.245   4.408 -1.6163 -1.4448 -0.2604
 3600TIP3    H210807   1.676   1.320   4.340 -0.9909 -1.3489 -1.1830
 3601TIP3   OH210808   3.828   3.939   0.849 -0.1124 -0.0754  0.2536
 3601TIP3    H110809   3.828   3.992   0.928 -0.2320  1.1893 -0.5803
 3601TIP3    H210810   3.861   3.997   0.780 -0.8857 -0.8677 -0.8159
 3602TIP3   OH210811   6.106   4.596   4.865 -0.0139  0.5257  0.0864
 3602TIP3    H110812   6.080   4.609   4.774  2.5312  0.9302 -0.6402
 3602TIP3    H210813   6.115   4.685   4.900 -1.0460  0.3683  0.7476
 3603TIP3   OH210814   2.980   4.226   0.555 -0.2878  0.0482 -0.3643
 3603TIP3    H110815   3.005   4.137   0.529 -2.5219 -0.1859 -1.8970
 3603TIP3    H210816   2.968   4.221   0.650 -0.2704 -1.2844 -0.4255
 3604TIP3   OH210817   3.015   4.893   5.013  0.0232 -0.4159  0.0071
 3604TIP3    H110818   2.998   4.983   5.043 -0.8740 -0.4763 -0.3084
 3604TIP3    H210819   2.992   4.838   5.087  2.9397 -0.2589  1.0840
 3605TIP3   OH210820   1.390   1.547   4.809 -0.1284  0.1227  0.6163
 3605TIP3    H110821   1.469   1.524   4.858 -0.3317 -1.0668  0.3962
 3605TIP3    H210822   1.356   1.463   4.777 -0.3154  0.8266 -1.0704
 3606TIP3   OH210823   4.094   4.466   0.458  0.1964  0.2312 -0.0181
 3606TIP3    H110824   4.144   4.440   0.380  0.8344 -0.6285  0.6617
 3606TIP3    H210825   4.156   4.517   0.510  0.5650 -1.2671  1.0697
 3607TIP3   OH210826   3.113   3.675   0.263  0.3753  0.1991  0.2817
 3607TIP3    H110827   3.144   3.601   0.211 -1.8153 -0.0199 -0.7782
 3607TIP3    H210828   3.161   3.751   0.228  2.4893 -0.6455  1.2469
 3608TIP3   OH210829   4.497   2.322   0.998  0.1431  0.6178 -0.2390
 3608TIP3    H110830   4.575   2.369   1.029 -0.3295  1.6732 -0.6475
 3608TIP3    H210831   4.503   2.326   0.903  0.7091 -1.1717 -0.3000
 3609TIP3   OH210832   6.124   1.308   2.499 -0.6736 -0.1227  0.3178
 3609TIP3    H110833   6.065   1.378   2.469 -1.2690 -1.2776 -1.2919
 3609TIP3    H210834   6.199   1.355   2.538 -1.7276  1.3815  0.5934
 3610TIP3   OH210835   4.841   5.265   4.949  0.3514 -0.2465  0.2460
 3610TIP3    H110836   4.847   5.350   4.992 -1.8145  0.3401 -0.5371
 3610TIP3    H210837   4.896   5.207   5.001  4.1570  2.2512 -0.8219
 3611TIP3   OH210838   4.326   0.655   1.403 -0.0791 -0.0256 -0.0054
 3611TIP3    H110839   4.247   0.647   1.456 -0.2555  0.0205 -0.2646
 3611TIP3    H210840   4.303   0.716   1.333  0.3465  0.3927  0.2206
 3612TIP3   OH210841   1.286   1.076   4.961  0.1401 -0.1458 -0.1738
 3612TIP3    H110842   1.255   1.156   5.004  2.0568 -0.4112  1.7865
 3612TIP3    H210843   1.256   1.005   5.017  0.1734 -0.6768 -0.8231
 3613TIP3   OH210844   0.866   1.719   2.218  0.1698  0.0192  0.2259
 3613TIP3    H110845   0.861   1.665   2.139 -0.5673 -1.2106  1.0920
 3613TIP3    H210846   0.778   1.754   2.230  0.5457  1.0970 -0.0988
 3614TIP3   OH210847   4.258   3.349   1.636 -0.1236  0.0805  0.0675
 3614TIP3    H110848   4.304   3.348   1.720  1.9899  0.4253 -1.0503
 3614TIP3    H210849   4.240   3.441   1.619  1.2683  0.1969 -0.8096
 3615TIP3   OH210850   0.554   4.787   5.032  0.9461  0.4186  0.3889
 3615TIP3    H110851   0.512   4.702   5.035  0.6283  0.4748 -1.8695
 3615TIP3    H210852   0.641   4.773   5.071  1.0027 -0.9983 -0.2419
 3616TIP3   OH210853   3.728   1.780   3.440  0.1217 -0.7156 -0.3793
 3616TIP3    H110854   3.681   1.806   3.520  0.8295 -0.8415  0.0871
 3616TIP3    H210855   3.659   1.753   3.380 -0.5060  0.6224 -0.2737
 3617TIP3   OH210856   2.112   4.896   0.869 -0.1896  0.2741 -0.6882
 3617TIP3    H110857   2.055   4.849   0.930  0.3112  0.4400 -0.0896
 3617TIP3    H210858   2.153   4.965   0.922  1.4624 -0.5665 -0.8298
 3618TIP3   OH210859   5.275   3.675   0.775  0.0169  0.0730 -0.2067
 3618TIP3    H110860   5.303   3.721   0.696 -2.0539  1.1268 -0.3636
 3618TIP3    H210861   5.225   3.740   0.824  0.4860 -0.8500  1.5365
 3619TIP3   OH210862   0.736   5.788   4.429 -0.1385  0.1377 -0.6230
 3619TIP3    H110863   0.667   5.850   4.453  0.2964  0.7109 -0.8484
 3619TIP3    H210864   0.708   5.753   4.344 -1.6225 -1.8079  0.6139
 3620TIP3   OH210865   4.804   4.114   0.590 -0.3716 -0.4490 -0.2098
 3620TIP3    H110866   4.716   4.092   0.559 -0.1325 -1.2583 -0.3373
 3620TIP3    H210867   4.853   4.132   0.510 -0.3612 -0.2481 -0.1562
 3621TIP3   OH210868   2.230   4.584   1.489  0.2054 -0.0106  0.1852
 3621TIP3    H110869   2.183   4.544   1.563  0.7046 -0.7533  0.1141
 3621TIP3    H210870   2.319   4.596   1.522  0.4213 -0.3212 -0.2824
 3622TIP3   OH210871   4.990   4.026   3.647 -0.1377 -0.5818 -0.3447
 3622TIP3    H110872   4.987   3.951   3.587  0.0023 -0.6383 -0.2803
 3622TIP3    H210873   5.081   4.055   3.644 -0.3309 -0.0201 -0.8630
 3623TIP3   OH210874   3.905   2.336  -0.038 -0.0305  0.4277  0.3434
 3623TIP3    H110875   3.981   2.347   0.019 -0.3738  0.9402  0.6983
 3623TIP3    H210876   3.830   2.338   0.021 -0.3835  0.9538 -0.1196
 3624TIP3   OH210877   4.016   5.024   5.044 -0.2206  0.7246  0.3750
 3624TIP3    H110878   3.937   4.977   5.070  0.2875  0.6782  1.8916
 3624TIP3    H210879   4.085   4.957   5.047  0.0450  0.9819 -0.0038
 3625TIP3   OH210880   3.874   3.583   0.051 -0.7033  0.2760 -0.4012
 3625TIP3    H110881   3.964   3.550   0.047 -0.5262  0.4369  1.5958
 3625TIP3    H210882   3.820   3.506   0.061 -0.5640  0.3476  0.9664
 3626TIP3   OH210883   1.887   0.502   4.607  0.1869  0.2933 -0.7064
 3626TIP3    H110884   1.843   0.495   4.692 -0.9886  0.8498 -1.2466
 3626TIP3    H210885   1.962   0.559   4.623 -0.4505  1.0061 -0.1882
 3627TIP3   OH210886   3.303   4.738   1.394  0.0837  0.2878 -0.0831
 3627TIP3    H110887   3.291   4.677   1.321 -0.6326 -1.4114  1.4128
 3627TIP3    H210888   3.216   4.749   1.432  0.9742 -2.1439  3.0074
 3628TIP3   OH210889   1.394   0.766   3.015 -0.4172 -0.4027  0.8094
 3628TIP3    H110890   1.486   0.780   3.039 -0.2421  1.3310 -0.7989
 3628TIP3    H210891   1.344   0.808   3.084  0.0317  0.6239  0.5194
 3629TIP3   OH210892   0.606   1.626   4.305  0.1797  0.3249 -1.0072
 3629TIP3    H110893   0.664   1.671   4.366 -2.7552  2.5931  0.2371
 3629TIP3    H210894   0.560   1.562   4.360  0.1708 -0.1949 -1.6200
 3630TIP3   OH210895   3.159   4.462   0.184 -0.1034  0.1799 -0.7362
 3630TIP3    H110896   3.153   4.434   0.276 -0.0855 -0.8835 -1.0470
 3630TIP3    H210897   3.229   4.527   0.183 -0.1339  0.2291  0.0116
 3631TIP3   OH210898   5.337   1.969   0.058  0.3405 -0.5461 -0.6252
 3631TIP3    H110899   5.312   1.939  -0.030 -0.3416  0.9977 -0.9738
 3631TIP3    H210900   5.405   1.907   0.086  0.4564 -1.1471 -2.1799
 3632TIP3   OH210901   4.355   3.275   0.647 -0.4940 -0.3924  0.3900
 3632TIP3    H110902   4.399   3.320   0.719  0.0408 -0.2992  0.0038
 3632TIP3    H210903   4.422   3.219   0.608 -0.1926  1.1360 -1.3619
 3633TIP3   OH210904   1.060   2.184   3.048  0.0641 -0.2847 -0.0348
 3633TIP3    H110905   1.112   2.138   3.114  0.1615 -0.9070 -0.5361
 3633TIP3    H210906   1.087   2.275   3.055  0.0331 -0.3362  0.8230
 3634TIP3   OH210907   5.644   2.021   2.565  0.4947  0.4074  0.3794
 3634TIP3    H110908   5.594   1.944   2.591  0.7378  0.3707  0.7317
 3634TIP3    H210909   5.578   2.084   2.538  0.3134 -0.1026 -0.4024
 3635TIP3   OH210910   4.892   0.468   5.317  0.5555 -0.0564  0.4493
 3635TIP3    H110911   4.874   0.558   5.290  1.0925 -0.2722 -0.6648
 3635TIP3    H210912   4.921   0.424   5.236  2.4899 -0.6349  1.4213
 3636TIP3   OH210913   1.521   1.760   3.779  0.2814  0.0700 -0.3619
 3636TIP3    H110914   1.574   1.831   3.744  1.3796  0.4197  1.9006
 3636TIP3    H210915   1.532   1.766   3.874 -1.2736 -1.8381 -0.0123
 3637TIP3   OH210916   5.234   0.561   5.011  0.3004  0.0000  0.4531
 3637TIP3    H110917   5.230   0.485   4.952 -1.1471  0.1471  0.3353
 3637TIP3    H210918   5.317   0.551   5.057 -0.9254 -3.0186  2.1877
 3638TIP3   OH210919   2.756   4.070   0.395 -0.5068  0.2410 -0.3105
 3638TIP3    H110920   2.804   3.990   0.373  0.6440  0.5847  0.8680
 3638TIP3    H210921   2.721   4.052   0.483  1.6589  1.8556  0.9318
 3639TIP3   OH210922   0.239   0.180   4.845 -0.2507 -0.0108 -0.3652
 3639TIP3    H110923   0.271   0.254   4.897  1.4185 -0.7442 -0.3207
 3639TIP3    H210924   0.217   0.113   4.910  0.2923 -0.3398 -0.5198
 3640TIP3   OH210925   4.949   4.580   0.752 -0.5133  0.6593 -0.3564
 3640TIP3    H110926   4.911   4.668   0.740 -3.6642 -0.7115 -1.0701
 3640TIP3    H210927   4.885   4.521   0.712  2.0144 -1.9160 -0.7321
 3641TIP3   OH210928   2.808   1.269   3.804  0.6707  0.2078 -0.7845
 3641TIP3    H110929   2.880   1.314   3.846  0.4586  1.0166 -1.2741
 3641TIP3    H210930   2.779   1.329   3.734  0.3448 -0.6485 -1.3975
 3642TIP3   OH210931   0.921   1.338   5.245  0.5072 -0.4997 -0.0561
 3642TIP3    H110932   0.960   1.402   5.185 -3.1124  0.9560 -1.0211
 3642TIP3    H210933   0.942   1.370   5.332 -0.8264  1.7967 -0.5396
 3643TIP3   OH210934   0.094   1.906   3.730  0.0513  0.3637  0.2802
 3643TIP3    H110935   0.179   1.922   3.770  1.1093 -1.0646 -1.2999
 3643TIP3    H210936   0.059   1.830   3.778 -0.8379  1.5995  1.6352
 3644TIP3   OH210937   0.782   0.215   4.991 -0.0976 -0.1318 -0.3401
 3644TIP3    H110938   0.773   0.161   4.913  1.4535  0.1592 -0.7469
 3644TIP3    H210939   0.862   0.183   5.033  0.7847  1.7369 -0.5268
 3645TIP3   OH210940   4.663   5.414   0.856 -0.0502  0.0491  0.1448
 3645TIP3    H110941   4.586   5.369   0.891 -0.7768  0.5518 -0.7660
 3645TIP3    H210942   4.638   5.506   0.853 -0.1193 -0.0179 -1.9276
 3646TIP3   OH210943   3.888   1.136   1.441 -0.2401  0.7551  0.4086
 3646TIP3    H110944   3.936   1.092   1.371 -0.2803 -1.1280  1.5395
 3646TIP3    H210945   3.799   1.102   1.434 -0.5138  1.4009  0.6956
 3647TIP3   OH210946   6.187   1.330   4.986 -0.2375 -0.5055  0.3701
 3647TIP3    H110947   6.174   1.403   4.926 -2.5236 -0.1355  1.2707
 3647TIP3    H210948   6.237   1.368   5.059 -1.8926  0.3180  1.0956
 3648TIP3   OH210949   0.960   2.229   3.836  0.2412 -0.2088 -0.1609
 3648TIP3    H110950   1.004   2.152   3.872  0.8618  0.8665  1.4564
 3648TIP3    H210951   0.969   2.220   3.741  2.1479 -1.0663  0.0836
 3649TIP3   OH210952   5.876   5.333   0.709  0.1039  0.3099 -0.2147
 3649TIP3    H110953   5.959   5.303   0.745 -0.4884 -0.9977  0.0733
 3649TIP3    H210954   5.886   5.325   0.614  0.8063  1.4963 -0.2484
 3650TIP3   OH210955   5.045   1.319   1.683 -0.3356  0.6450  0.9982
 3650TIP3    H110956   5.002   1.358   1.759  1.1159  1.9776  1.1468
 3650TIP3    H210957   5.138   1.340   1.694  0.1873 -1.0488 -0.0048
 3651TIP3   OH210958   4.120   1.525   4.728  0.3031 -0.7400 -0.2393
 3651TIP3    H110959   4.182   1.534   4.656 -1.0965  1.9150 -1.1757
 3651TIP3    H210960   4.155   1.580   4.798  1.2266 -2.6548  0.8248
 3652TIP3   OH210961   1.165   1.700   4.866 -0.2411  0.4506  0.0955
 3652TIP3    H110962   1.242   1.649   4.842  0.4299  1.5737 -0.2238
 3652TIP3    H210963   1.200   1.776   4.913 -1.1632  0.8547  0.1519
 3653TIP3   OH210964   1.750   1.894   3.408 -0.5374  0.5641  0.2142
 3653TIP3    H110965   1.747   1.886   3.503 -0.5560  1.7763  0.3258
 3653TIP3    H210966   1.842   1.877   3.385 -0.5158  0.3567  0.4538
 3654TIP3   OH210967   2.317   0.589   3.842 -0.3542 -0.2162 -0.4343
 3654TIP3    H110968   2.287   0.674   3.875  1.4206  0.8139 -1.4069
 3654TIP3    H210969   2.291   0.526   3.909  0.6334  1.4483  1.5370
 3655TIP3   OH210970   4.909   3.619   0.750  0.3535  0.1363 -0.2026
 3655TIP3    H110971   4.861   3.701   0.740  1.5516  1.1264  1.9145
 3655TIP3    H210972   4.964   3.614   0.672 -0.8410  0.5553 -1.0946
 3656TIP3   OH210973   5.337   2.325   1.319  0.8220 -0.1983 -0.3021
 3656TIP3    H110974   5.383   2.254   1.364  0.8989  0.4553  0.6641
 3656TIP3    H210975   5.281   2.281   1.256  0.8909 -1.1185  0.2677
 3657TIP3   OH210976   4.313   4.557   1.607 -1.0658 -0.4261 -0.8388
 3657TIP3    H110977   4.228   4.530   1.643 -0.6864  1.3654  1.4472
 3657TIP3    H210978   4.305   4.652   1.595  0.3590 -0.3610 -1.3559
 3658TIP3   OH210979   4.961   2.705   1.258 -0.5927  0.1012  0.2334
 3658TIP3    H110980   4.896   2.717   1.327  1.0909  2.0129  1.5780
 3658TIP3    H210981   5.037   2.755   1.289  1.3811 -1.7876 -1.4314
 3659TIP3   OH210982   3.453   0.469   0.718 -0.5352  0.2188  0.2160
 3659TIP3    H110983   3.513   0.540   0.691 -0.3514 -0.1116 -0.2471
 3659TIP3    H210984   3.377   0.515   0.755 -0.6482  0.6714 -0.5681
 3660TIP3   OH210985   4.568   3.629   0.981  0.3412 -0.1992  0.7094
 3660TIP3    H110986   4.572   3.551   1.037 -0.5311 -0.2162  0.7525
 3660TIP3    H210987   4.646   3.680   1.006  1.0156 -1.1430  0.5440
 3661TIP3   OH210988   3.322   2.240   0.506 -0.2629 -0.0919 -0.2803
 3661TIP3    H110989   3.289   2.186   0.435  1.9031 -2.8009  0.6473
 3661TIP3    H210990   3.408   2.270   0.475  0.1336 -0.2340  0.6569
 3662TIP3   OH210991   2.186   0.123   4.076 -0.3004  0.0122  0.0289
 3662TIP3    H110992   2.278   0.132   4.051  0.2815  0.5272  2.2479
 3662TIP3    H210993   2.161   0.036   4.044  0.6736  0.2372 -1.4098
 3663TIP3   OH210994   3.570   4.880   0.832  0.1491  0.5926 -0.1073
 3663TIP3    H110995   3.586   4.898   0.740  1.6675  0.8782  0.1959
 3663TIP3    H210996   3.538   4.963   0.868 -1.3306  0.2318 -0.5521
 3664TIP3   OH210997   1.326   1.882   4.623 -0.3825  0.3128  0.2320
 3664TIP3    H110998   1.314   1.977   4.624 -1.8515  0.1320  0.8243
 3664TIP3    H210999   1.276   1.850   4.698 -0.5733 -1.0029 -0.4223
 3665TIP3   OH211000   4.051   1.380   0.846 -0.1643 -0.2941  0.2218
 3665TIP3    H111001   3.963   1.411   0.824 -1.0142 -1.7609  1.4665
 3665TIP3    H211002   4.071   1.423   0.930 -0.4469 -1.3485  0.8430
 3666TIP3   OH211003   4.188   5.637   1.135 -0.2313 -0.3502 -0.2912
 3666TIP3    H111004   4.257   5.682   1.183 -0.2837 -0.6356  0.0471
 3666TIP3    H211005   4.169   5.695   1.061 -1.5386  1.0593  1.1067
 3667TIP3   OH211006   1.192   4.848   4.633  0.5817 -0.6322 -0.0942
 3667TIP3    H111007   1.200   4.937   4.599  0.0643 -0.4391  0.2883
 3667TIP3    H211008   1.099   4.827   4.624 -0.0504  0.3262  3.4019
 3668TIP3   OH211009   0.986   0.463   4.554 -0.5791 -0.1123 -0.3804
 3668TIP3    H111010   1.058   0.406   4.582  0.5893  0.9639 -1.1101
 3668TIP3    H211011   0.938   0.412   4.490  0.8438 -0.0815 -1.5121
 3669TIP3   OH211012   5.566   5.844   5.170 -0.7079  0.6357  0.6904
 3669TIP3    H111013   5.540   5.773   5.111  0.2768 -0.4285  1.5017
 3669TIP3    H211014   5.645   5.881   5.130 -1.0107  1.0306  0.4580
 3670TIP3   OH211015   4.845   2.442   1.370 -0.5315  0.4891 -0.6122
 3670TIP3    H111016   4.881   2.363   1.331 -1.4043 -0.0637 -0.3142
 3670TIP3    H211017   4.907   2.511   1.346  0.8463 -0.4832  0.1043
 3671TIP3   OH211018   4.894   4.849   0.087  0.2407  0.6258  0.1028
 3671TIP3    H111019   4.895   4.903   0.165  1.9845 -0.3446  0.7786
 3671TIP3    H211020   4.982   4.856   0.051 -0.2478  0.2485 -1.2076
 3672TIP3   OH211021   5.781   5.060   3.479  0.1626 -0.1026  0.1823
 3672TIP3    H111022   5.828   4.979   3.460 -0.2038 -0.6986  1.7802
 3672TIP3    H211023   5.848   5.122   3.504  0.3542 -0.1524 -0.1953
 3673TIP3   OH211024   0.872   2.731   0.914  0.1570 -0.1781  0.3521
 3673TIP3    H111025   0.869   2.727   1.009  1.3963 -2.7867  0.3049
 3673TIP3    H211026   0.794   2.684   0.885 -1.3004  2.3312  0.0603
 3674TIP3   OH211027   3.190   0.260   5.128 -0.3734  0.3907 -0.3049
 3674TIP3    H111028   3.246   0.268   5.051 -0.0686 -0.1474 -0.1407
 3674TIP3    H211029   3.245   0.290   5.200 -0.5315  0.5299 -0.2427
 3675TIP3   OH211030   5.847   5.149   2.557  0.0515  0.5200  0.4803
 3675TIP3    H111031   5.908   5.077   2.567 -1.4726 -1.1277 -1.6849
 3675TIP3    H211032   5.833   5.157   2.462 -2.6065  1.2325  0.8660
 3676TIP3   OH211033   2.906   1.617   2.704  0.2173 -0.0597  0.3803
 3676TIP3    H111034   2.847   1.685   2.670  0.1437  0.9251  2.3691
 3676TIP3    H211035   2.861   1.583   2.782 -0.0069 -2.8259 -0.9077
 3677TIP3   OH211036   4.868   2.628   1.766 -0.1798  0.7040 -0.0059
 3677TIP3    H111037   4.893   2.580   1.844  0.0588  2.6383  1.1325
 3677TIP3    H211038   4.797   2.577   1.728  0.4382 -0.8268  0.8722
 3678TIP3   OH211039   2.090   1.486   4.376  0.0606 -0.7477  0.0278
 3678TIP3    H111040   2.034   1.458   4.449  0.2615 -0.9458  0.1051
 3678TIP3    H211041   2.043   1.458   4.297 -1.4813  1.8186 -0.0297
 3679TIP3   OH211042   5.813   4.580   2.262  0.1003 -0.3396  0.1684
 3679TIP3    H111043   5.734   4.633   2.257  1.3603  1.4997 -0.7425
 3679TIP3    H211044   5.780   4.490   2.269 -2.0612  0.4248  0.3957
 3680TIP3   OH211045   4.281   4.688   0.068 -0.6169  0.3984 -0.2693
 3680TIP3    H111046   4.255   4.605   0.109 -1.4576  0.9076  0.2341
 3680TIP3    H211047   4.223   4.753   0.106  0.2350  1.2780 -0.4443
 3681TIP3   OH211048   6.505   4.105   1.910 -0.1609  0.3710 -0.5927
 3681TIP3    H111049   6.457   4.085   1.991  1.1163 -0.2550  0.0247
 3681TIP3    H211050   6.451   4.066   1.840 -0.0878 -1.1413  0.1744
 3682TIP3   OH211051   6.344   0.824   4.852  0.0278  0.0145  0.2378
 3682TIP3    H111052   6.436   0.808   4.869  0.0020  0.8177  1.1879
 3682TIP3    H211053   6.334   0.919   4.857 -0.5306  0.0790 -1.5641
 3683TIP3   OH211054   3.471   0.501   4.728  0.2258  0.1858  0.0161
 3683TIP3    H111055   3.459   0.415   4.768 -0.1187  0.7482  1.1419
 3683TIP3    H211056   3.489   0.560   4.802  2.1502  0.7774 -0.8914
 3684TIP3   OH211057   0.753   6.027   5.063  0.0577 -0.1716 -0.6402
 3684TIP3    H111058   0.695   6.000   4.992 -0.0653 -2.1809  0.2050
 3684TIP3    H211059   0.819   5.958   5.067  1.2799  1.0038 -0.1724
 3685TIP3   OH211060   4.186   0.638   4.914 -0.1073 -0.9566 -0.4508
 3685TIP3    H111061   4.170   0.638   4.820  2.1730 -3.2245 -0.8713
 3685TIP3    H211062   4.160   0.551   4.943  1.7753 -1.2135  0.5273
 3686TIP3   OH211063   3.904   2.910   0.614 -0.3553 -0.0320 -0.1658
 3686TIP3    H111064   3.834   2.872   0.668 -0.0014  0.2462  0.5047
 3686TIP3    H211065   3.983   2.867   0.645 -0.2749 -0.6966 -1.2568
 3687TIP3   OH211066   1.271   5.275   4.274  0.4103 -0.4141  0.2775
 3687TIP3    H111067   1.314   5.325   4.344 -0.0652 -1.5609  1.4046
 3687TIP3    H211068   1.178   5.295   4.285  0.3396 -0.5777 -0.0422
 3688TIP3   OH211069   3.489   1.507   5.256  0.8315  0.9199  0.0741
 3688TIP3    H111070   3.474   1.578   5.318  2.7734  1.2245  0.2106
 3688TIP3    H211071   3.554   1.451   5.300  1.8954  0.9089 -1.5008
 3689TIP3   OH211072   3.511   4.916   1.398 -0.0267 -0.1493  0.0629
 3689TIP3    H111073   3.552   4.891   1.315 -1.4695 -0.7578 -0.4928
 3689TIP3    H211074   3.427   4.870   1.398 -0.3319  0.3719  1.5639
 3690TIP3   OH211075   6.148   0.360   1.310 -0.2005 -0.3750 -0.4045
 3690TIP3    H111076   6.110   0.402   1.387 -1.8364 -0.4862 -1.1329
 3690TIP3    H211077   6.180   0.432   1.257  0.8207 -0.2901  0.3070
 3691TIP3   OH211078   4.056   4.718   0.236  0.0543  0.1859  0.1041
 3691TIP3    H111079   4.024   4.806   0.258 -2.2527 -0.2876 -1.1416
 3691TIP3    H211080   4.080   4.679   0.320 -1.0492  1.2355  0.9200
 3692TIP3   OH211081   3.872   4.149   1.015  0.2828 -0.6442 -0.1191
 3692TIP3    H111082   3.880   4.226   0.958 -1.7880 -0.1165  0.2611
 3692TIP3    H211083   3.954   4.148   1.064 -0.2620  2.2682  0.9651
 3693TIP3   OH211084   3.901   1.140   3.921  0.1235 -0.2050 -0.1449
 3693TIP3    H111085   3.911   1.190   4.002  0.9509  2.3902 -1.7945
 3693TIP3    H211086   3.808   1.148   3.899  0.2797  0.7356 -0.4720
 3694TIP3   OH211087   3.483   1.836   4.452  0.1026 -0.1204  0.3153
 3694TIP3    H111088   3.519   1.765   4.398 -1.9192 -0.1479 -1.0756
 3694TIP3    H211089   3.553   1.901   4.456  1.1605 -1.1999 -0.3239
 3695TIP3   OH211090   1.734   1.450   3.351  0.2380  0.4514 -0.3447
 3695TIP3    H111091   1.708   1.517   3.288 -1.5718 -0.2366 -0.3561
 3695TIP3    H211092   1.667   1.454   3.420  1.0942 -0.1356  0.5342
 3696TIP3   OH211093   4.926   5.183   1.172  0.5435 -0.3709  0.8088
 3696TIP3    H111094   4.897   5.273   1.160 -0.9756 -0.7569  1.5025
 3696TIP3    H211095   5.019   5.185   1.149  0.1968  1.0634 -0.6258
 3697TIP3   OH211096   0.546   3.598   1.132 -0.3574 -0.2066  0.4450
 3697TIP3    H111097   0.531   3.689   1.105  0.5812 -0.0917  0.2696
 3697TIP3    H211098   0.627   3.602   1.183  0.4497 -1.1578 -0.7371
 3698TIP3   OH211099   4.814   3.150   3.730  0.5431  0.1263  0.0076
 3698TIP3    H111100   4.824   3.239   3.697  1.2025  0.2047  0.4105
 3698TIP3    H211101   4.857   3.095   3.664  1.1654  0.2121  0.3406
 3699TIP3   OH211102   1.056   4.111   0.102  0.1960 -0.7840 -0.0484
 3699TIP3    H111103   1.052   4.196   0.058  1.5034 -0.5660  0.2462
 3699TIP3    H211104   1.046   4.047   0.032 -0.0613 -0.4021 -0.3653
 3700TIP3   OH211105   1.330   5.634   4.347 -0.0327  0.0279  0.2000
 3700TIP3    H111106   1.356   5.638   4.255 -1.0944 -1.8277 -0.2073
 3700TIP3    H211107   1.331   5.725   4.376 -0.9205  0.7615 -1.9859
 3701TIP3   OH211108   2.678   1.138   5.167 -0.1876 -0.0580 -0.4050
 3701TIP3    H111109   2.769   1.120   5.190 -0.4125 -1.4411 -0.5221
 3701TIP3    H211110   2.647   1.197   5.236  0.3909 -0.7149  0.4298
 3702TIP3   OH211111   2.711   2.549   4.833 -0.6475  0.9617  0.5454
 3702TIP3    H111112   2.683   2.622   4.779 -1.7567 -0.4227 -0.7952
 3702TIP3    H211113   2.680   2.471   4.787  2.4038 -0.4736  0.8209
 3703TIP3   OH211114   2.750   1.968   5.056  0.2247 -0.3345 -0.6159
 3703TIP3    H111115   2.729   2.061   5.049 -0.8636 -0.4208  1.0555
 3703TIP3    H211116   2.836   1.966   5.100 -0.0391 -0.1148 -0.0798
 3704TIP3   OH211117   0.372   3.627   0.712 -0.2902  0.2667 -0.6163
 3704TIP3    H111118   0.405   3.598   0.627  0.5180 -3.2501  0.7673
 3704TIP3    H211119   0.305   3.563   0.735  0.9742 -0.1164  2.2692
 3705TIP3   OH211120   4.777   4.375   1.538 -0.3857 -0.4847 -0.2395
 3705TIP3    H111121   4.742   4.312   1.475  1.0659 -1.3659 -0.1780
 3705TIP3    H211122   4.764   4.333   1.623  0.2031 -0.5196 -0.1654
 3706TIP3   OH211123   2.422   1.168   5.046  0.0996  0.1153 -0.1873
 3706TIP3    H111124   2.509   1.160   5.084 -0.2767 -0.4767  0.5734
 3706TIP3    H211125   2.379   1.237   5.098 -0.8366 -1.5412  1.3284
 3707TIP3   OH211126   6.439   4.816   0.110  0.4918  0.0384  0.0294
 3707TIP3    H111127   6.414   4.741   0.165 -0.0092  0.5172  0.4519
 3707TIP3    H211128   6.379   4.886   0.136 -0.1469  0.0835 -1.5516
 3708TIP3   OH211129   2.761   5.281   0.390 -0.0370  0.2514  0.0636
 3708TIP3    H111130   2.814   5.312   0.464  0.2267  0.2035 -0.1074
 3708TIP3    H211131   2.776   5.187   0.388  0.1657  0.2928 -0.2253
 3709TIP3   OH211132   1.364   1.213   4.192 -0.1478 -0.4422 -0.1109
 3709TIP3    H111133   1.310   1.281   4.151  1.2436  0.0451 -1.1858
 3709TIP3    H211134   1.314   1.132   4.178 -1.7756  0.3264  1.1124
 3710TIP3   OH211135   3.537   0.052   0.863 -0.0049 -0.7114 -0.0395
 3710TIP3    H111136   3.632   0.042   0.874 -0.0676 -0.9656  0.2860
 3710TIP3    H211137   3.517   0.004   0.783  0.2270 -0.1641 -0.4311
 3711TIP3   OH211138   4.154   1.848   3.663  0.4604  0.0829 -0.1029
 3711TIP3    H111139   4.202   1.921   3.624 -0.2286  1.1062  0.9292
 3711TIP3    H211140   4.221   1.782   3.679  1.2057  0.7303 -0.4857
 3712TIP3   OH211141   5.218   4.051   1.512  0.2977  0.0433  0.4967
 3712TIP3    H111142   5.242   4.104   1.587 -0.3852 -0.3906  1.0344
 3712TIP3    H211143   5.239   3.961   1.539 -5.2480 -0.8658  2.4932
 3713TIP3   OH211144   3.775   5.210   1.325  0.3986  0.0202  0.4493
 3713TIP3    H111145   3.821   5.133   1.294  1.2982  0.0419  1.6853
 3713TIP3    H211146   3.801   5.218   1.417 -1.3939  0.5319  0.9331
 3714TIP3   OH211147   1.519   5.127   4.588  0.2096 -0.4972 -0.0974
 3714TIP3    H111148   1.536   5.034   4.602 -1.1917 -0.7346  0.0884
 3714TIP3    H211149   1.424   5.135   4.589  0.2631  1.5554  4.1253
 3715TIP3   OH211150   3.657   0.806   3.822  0.0469  0.4581 -0.7660
 3715TIP3    H111151   3.722   0.780   3.757 -0.3651 -0.2398 -0.9133
 3715TIP3    H211152   3.593   0.734   3.821  0.8045 -0.2746  1.4678
 3716TIP3   OH211153   4.356   2.562   1.701 -0.8480  0.3323 -0.4033
 3716TIP3    H111154   4.300   2.499   1.745 -2.2563  2.1115  0.4184
 3716TIP3    H211155   4.309   2.587   1.622 -1.1812  1.7004  0.1976
 3717TIP3   OH211156   1.829   0.959   4.844  0.1403 -0.2365 -0.0098
 3717TIP3    H111157   1.898   0.920   4.897  2.1746  1.6530 -1.1700
 3717TIP3    H211158   1.871   0.977   4.760 -1.4461  1.9405 -0.3801
 3718TIP3   OH211159   0.712   2.604   0.343  0.4466 -0.0367  0.0771
 3718TIP3    H111160   0.738   2.664   0.413  0.5807 -0.3140  0.2647
 3718TIP3    H211161   0.662   2.659   0.282  2.3974  0.7293 -0.8585
 3719TIP3   OH211162   3.336   0.645   5.028 -0.3557 -0.4380  0.0901
 3719TIP3    H111163   3.279   0.637   4.951  0.4517  2.1351 -0.8113
 3719TIP3    H211164   3.300   0.719   5.076  1.1422  0.0422  0.4773
 3720TIP3   OH211165   0.360   2.165   5.242  0.2298 -0.1559 -0.2171
 3720TIP3    H111166   0.434   2.219   5.271 -0.9089  2.0113 -1.2012
 3720TIP3    H211167   0.400   2.094   5.193  1.6080  2.6181 -3.3568
 3721TIP3   OH211168   2.182   1.132   4.600  0.2391  0.0638  0.1724
 3721TIP3    H111169   2.093   1.100   4.587 -0.0950  0.4392  1.5067
 3721TIP3    H211170   2.209   1.094   4.683  0.7924  1.1457  0.4904
 3722TIP3   OH211171   0.656   2.551   0.817  0.2037  0.6277 -0.6190
 3722TIP3    H111172   0.629   2.478   0.873  2.0965  0.7419  0.4963
 3722TIP3    H211173   0.605   2.541   0.737 -1.6193 -0.2815  0.6319
 3723TIP3   OH211174   3.454   0.238   0.024 -0.3973 -0.7886  0.2933
 3723TIP3    H111175   3.438   0.164   0.082  1.2577 -0.3416  1.3456
 3723TIP3    H211176   3.480   0.198  -0.059 -1.7881 -1.4088  0.1352
 3724TIP3   OH211177   2.313   1.633   4.273  0.2536  0.1798 -0.1409
 3724TIP3    H111178   2.235   1.600   4.318  1.1200 -0.5592  0.8254
 3724TIP3    H211179   2.348   1.557   4.226  1.0276  0.2454  0.3300
 3725TIP3   OH211180   0.448   4.232   2.455 -0.5800  0.1104 -0.5098
 3725TIP3    H111181   0.527   4.179   2.443  0.8274  2.4436 -1.8459
 3725TIP3    H211182   0.454   4.263   2.546 -1.1225 -1.5036  0.0967
 3726TIP3   OH211183   4.367   0.151  -0.009 -0.2794  0.1646  0.2060
 3726TIP3    H111184   4.289   0.204  -0.025  0.1999  0.2854 -1.9837
 3726TIP3    H211185   4.401   0.181   0.075 -1.5263  1.4281  0.2701
 3727TIP3   OH211186   0.511   3.565   0.490  0.6492 -0.1680  0.2483
 3727TIP3    H111187   0.583   3.627   0.504 -0.3665  0.9754  0.4392
 3727TIP3    H211188   0.545   3.505   0.424  1.6008  0.6755 -0.0529
 3728TIP3   OH211189   1.996   5.603   1.053 -0.1249 -0.0202  0.2318
 3728TIP3    H111190   1.973   5.593   0.960 -2.0915  2.5778  0.4025
 3728TIP3    H211191   1.912   5.598   1.099  0.4715  2.0326  1.5743
 3729TIP3   OH211192   2.869   0.271   4.530  0.5818  0.0036 -0.0771
 3729TIP3    H111193   2.872   0.237   4.619  0.3616 -1.4393 -0.5949
 3729TIP3    H211194   2.830   0.358   4.538 -1.0198 -0.8037  1.0362
 3730TIP3   OH211195   5.789   2.872   0.277 -0.0118 -0.0949  0.4161
 3730TIP3    H111196   5.713   2.929   0.263 -0.1719 -0.2710  0.5544
 3730TIP3    H211197   5.842   2.918   0.342 -0.5714 -0.5048  1.1769
 3731TIP3   OH211198   0.345   3.159   0.872 -0.5782 -0.4846  0.6433
 3731TIP3    H111199   0.403   3.083   0.873 -0.1200 -0.1890 -1.7211
 3731TIP3    H211200   0.314   3.165   0.782  0.1791  2.7147  0.5322
 3732TIP3   OH211201   3.059   0.050   5.261  0.2255  0.2367 -0.2972
 3732TIP3    H111202   2.987   0.009   5.214 -0.0433 -0.4262  0.6885
 3732TIP3    H211203   3.106   0.099   5.194  0.5879 -1.7182 -1.5202
 3733TIP3   OH211204   2.988   0.717   5.291 -0.1694 -0.9260 -0.3676
 3733TIP3    H111205   2.956   0.627   5.289 -1.2511 -0.5568 -0.0699
 3733TIP3    H211206   3.062   0.718   5.230 -0.3074 -1.9561 -0.5483
 3734TIP3   OH211207   5.615   3.972   1.575  0.0442  0.1372  0.1040
 3734TIP3    H111208   5.585   3.983   1.485  3.8822 -0.5269 -1.3047
 3734TIP3    H211209   5.623   4.062   1.608 -3.6156  0.3513  0.6596
 3735TIP3   OH211210   2.616   5.247   4.117  0.3165  0.2828  0.4112
 3735TIP3    H111211   2.597   5.319   4.056  2.4934  0.4208 -0.1226
 3735TIP3    H211212   2.576   5.171   4.077 -2.4832  1.2523  1.2357
 3736TIP3   OH211213   5.973   3.667   1.366 -0.3149 -0.2662  0.3516
 3736TIP3    H111214   6.050   3.615   1.389  1.1751  1.6696 -0.1359
 3736TIP3    H211215   5.950   3.713   1.446  1.0599  1.6508 -0.3036
 3737TIP3   OH211216   3.874   5.551   4.259  0.3870  0.5216  0.7453
 3737TIP3    H111217   3.963   5.584   4.274  0.3152  0.3311  1.6311
 3737TIP3    H211218   3.817   5.611   4.308 -0.2998  2.6266 -2.4893
 3738TIP3   OH211219   5.446   4.570   1.425  0.4356  0.3778  0.1215
 3738TIP3    H111220   5.532   4.600   1.453  0.5920  0.3924 -0.3681
 3738TIP3    H211221   5.409   4.643   1.375 -0.4043  0.8632  1.4358
 3739TIP3   OH211222   5.277   3.771   1.667  0.2299  0.2620 -0.0022
 3739TIP3    H111223   5.340   3.699   1.668 -1.4793 -1.2410  0.8097
 3739TIP3    H211224   5.224   3.756   1.589  0.0279  0.7873  0.0325
 3740TIP3   OH211225   5.116   0.979   1.022  0.1564 -0.1695 -0.0116
 3740TIP3    H111226   5.073   1.052   1.065 -0.3333 -0.4428 -0.0411
 3740TIP3    H211227   5.158   1.018   0.944 -0.5259 -0.0168 -0.3011
 3741TIP3   OH211228   1.929   1.357   4.595 -0.0698  0.0330  0.2937
 3741TIP3    H111229   2.016   1.320   4.611 -0.4729 -1.1116 -0.0804
 3741TIP3    H211230   1.869   1.292   4.633 -0.7670  0.6233  0.1996
 3742TIP3   OH211231   5.155   4.111   0.182 -0.4096 -0.1943  0.0626
 3742TIP3    H111232   5.063   4.085   0.189 -0.9811  1.9867  0.9509
 3742TIP3    H211233   5.160   4.160   0.101 -0.2076  0.4170  0.4438
 3743TIP3   OH211234   0.334   2.255   0.473 -0.1349 -0.0236  0.0714
 3743TIP3    H111235   0.355   2.202   0.550 -1.6463  0.0348  0.5384
 3743TIP3    H211236   0.357   2.200   0.399  0.2969 -0.5109  0.5640
 3744TIP3   OH211237   4.881   0.654   4.553  0.2961  0.0743 -0.0948
 3744TIP3    H111238   4.874   0.732   4.498 -1.1964  1.2851  1.7174
 3744TIP3    H211239   4.954   0.605   4.517  1.8911  2.7939 -0.7147
 3745TIP3   OH211240   4.844   1.175   1.488  0.5309 -0.2763  0.9100
 3745TIP3    H111241   4.777   1.242   1.480 -1.3506 -2.0588  1.2263
 3745TIP3    H211242   4.870   1.178   1.580  0.5842  0.1483  0.8809
 3746TIP3   OH211243   1.170   2.076   3.753 -0.1483 -0.1585  0.4466
 3746TIP3    H111244   1.224   2.038   3.823  0.2241 -1.1666 -0.3742
 3746TIP3    H211245   1.154   2.003   3.693  0.0787  0.8527 -0.8530
 3747TIP3   OH211246   1.236   4.231   4.442 -0.7487 -0.4942  0.4716
 3747TIP3    H111247   1.199   4.146   4.420 -0.1075 -0.5195 -0.5585
 3747TIP3    H211248   1.253   4.273   4.358 -1.1629  0.7098  0.9679
 3748TIP3   OH211249   1.411   4.632   4.244  0.1254 -0.0098  0.5070
 3748TIP3    H111250   1.450   4.609   4.328  1.0110  0.9321  0.3656
 3748TIP3    H211251   1.443   4.721   4.226 -2.1068  0.7816  0.3793
 3749TIP3   OH211252   1.979   2.414   4.789 -0.1741 -0.6956  0.1105
 3749TIP3    H111253   2.067   2.426   4.753  0.9286 -0.1010  2.9151
 3749TIP3    H211254   1.948   2.503   4.804 -0.5270 -0.9480  0.8679
 3750TIP3   OH211255   3.855   5.017   3.778 -0.3661  0.2975  0.0065
 3750TIP3    H111256   3.873   4.950   3.844 -1.9257  0.6030  0.7760
 3750TIP3    H211257   3.926   5.081   3.788  0.8109 -0.9421 -0.3481
 3751TIP3   OH211258   2.985   4.848   3.600 -0.1262  0.3700  0.5092
 3751TIP3    H111259   3.013   4.760   3.572 -1.2155 -0.0832  0.8060
 3751TIP3    H211260   2.979   4.898   3.519  2.0714  0.6554  0.4812
 3752TIP3   OH211261   4.037   0.231   4.349  0.0409  0.3403  0.1739
 3752TIP3    H111262   4.019   0.222   4.255  0.4185 -0.1295  0.1453
 3752TIP3    H211263   4.089   0.311   4.356  0.9742 -0.2321 -0.1497
 3753TIP3   OH211264   4.536   5.173   2.253  0.0642  0.4462 -0.5324
 3753TIP3    H111265   4.474   5.243   2.275 -2.2238 -0.9423 -2.3686
 3753TIP3    H211266   4.500   5.095   2.294  2.3656  0.1776  1.1038
 3754TIP3   OH211267   3.009   2.570   4.422 -0.3897  0.2112  0.5987
 3754TIP3    H111268   2.972   2.486   4.451  0.1428 -0.3690 -0.3796
 3754TIP3    H211269   2.978   2.581   4.332  0.1739  0.6870  0.4590
 3755TIP3   OH211270   0.365   4.476   0.214  0.2964 -0.1582 -0.2506
 3755TIP3    H111271   0.284   4.435   0.182 -0.4456  0.9695  0.1635
 3755TIP3    H211272   0.363   4.461   0.309  1.1384 -1.1054 -0.3724
 3756TIP3   OH211273   2.527   1.084   2.573 -0.5302  0.1823 -0.1706
 3756TIP3    H111274   2.507   1.101   2.665 -2.2108 -1.1985 -0.2439
 3756TIP3    H211275   2.607   1.134   2.556 -0.5838  1.0163  1.8402
 3757TIP3   OH211276   5.393   5.120   2.779 -0.5084 -0.1603 -0.2763
 3757TIP3    H111277   5.432   5.161   2.856 -1.1835  0.4256 -0.2418
 3757TIP3    H211278   5.380   5.028   2.805 -2.5619  0.4646  1.0249
 3758TIP3   OH211279   3.622   2.745   4.740  0.0431  0.0108 -0.0660
 3758TIP3    H111280   3.704   2.790   4.719 -1.1292  2.3239  0.1686
 3758TIP3    H211281   3.565   2.762   4.666 -0.4340 -1.1154  0.0263
 3759TIP3   OH211282   3.157   2.967   4.442 -0.1335 -0.1391 -0.0352
 3759TIP3    H111283   3.120   3.052   4.467 -0.5485 -0.2813 -0.1675
 3759TIP3    H211284   3.252   2.981   4.445 -0.1683 -0.0726  1.3583
 3760TIP3   OH211285   2.625   1.361   3.979 -0.4769 -0.1036  0.1740
 3760TIP3    H111286   2.657   1.291   3.922 -1.2592 -0.1936 -0.1522
 3760TIP3    H211287   2.691   1.366   4.049 -0.8204 -1.7003  0.6319
 3761TIP3   OH211288   0.299   3.106   0.164  0.0478 -0.4535 -0.5298
 3761TIP3    H111289   0.348   3.161   0.225  0.2378 -0.9937 -0.2028
 3761TIP3    H211290   0.210   3.143   0.166 -0.0876 -0.8186  0.4930
 3762TIP3   OH211291   4.814   3.674   0.043  0.4067 -0.0536 -0.0810
 3762TIP3    H111292   4.899   3.636   0.018  0.3104  0.5246 -1.3433
 3762TIP3    H211293   4.761   3.666  -0.036 -0.2702  0.8469  0.2774
 3763TIP3   OH211294   4.491   1.397   4.531 -0.2851 -0.4937  0.4237
 3763TIP3    H111295   4.558   1.343   4.574 -0.3703  0.5303  1.8884
 3763TIP3    H211296   4.485   1.475   4.586 -1.8858 -0.0756 -0.3309
 3764TIP3   OH211297   5.379   4.375   0.234  1.3212  0.1735  0.0843
 3764TIP3    H111298   5.375   4.409   0.323 -1.3001  0.7292 -0.1847
 3764TIP3    H211299   5.328   4.294   0.237  1.5626 -0.0242 -0.8024
 3765TIP3   OH211300   3.491   1.567   4.690 -0.0930 -0.3502  0.3590
 3765TIP3    H111301   3.447   1.635   4.740 -0.3144 -0.7974  0.7754
 3765TIP3    H211302   3.581   1.567   4.723  0.3287  0.7999 -0.7323
 3766TIP3   OH211303   2.822   1.500   2.486  0.2191 -0.2839 -0.4361
 3766TIP3    H111304   2.864   1.414   2.499 -2.6674 -1.4744  1.5840
 3766TIP3    H211305   2.855   1.553   2.558 -0.9307 -0.8982  0.5517
 3767TIP3   OH211306   2.597   1.927   4.676 -0.1223 -0.2312 -0.6079
 3767TIP3    H111307   2.637   2.003   4.720  0.0488 -0.3974 -0.4774
 3767TIP3    H211308   2.670   1.871   4.653 -0.2711 -0.4849 -0.4685
 3768TIP3   OH211309   3.009   0.842   4.830  0.6169 -0.2875  0.0766
 3768TIP3    H111310   3.042   0.897   4.759  0.8275 -1.2659 -0.6005
 3768TIP3    H211311   2.936   0.891   4.868  0.1553 -0.0010 -1.1737
 3769TIP3   OH211312   4.764   1.824   0.337  0.6212 -0.3880  0.1208
 3769TIP3    H111313   4.738   1.785   0.254 -0.6735 -0.0120  0.3499
 3769TIP3    H211314   4.802   1.752   0.387 -1.8805 -1.4181  0.6048
 3770TIP3   OH211315   1.988   2.608   3.074  0.7748  0.2397 -0.1001
 3770TIP3    H111316   2.022   2.520   3.056 -0.0954 -0.3093  0.8836
 3770TIP3    H211317   1.926   2.624   3.003 -0.0452 -0.4801  0.4541
 3771TIP3   OH211318   4.694   4.162   1.397  0.0549 -0.1076 -0.0037
 3771TIP3    H111319   4.733   4.084   1.435 -1.3066 -0.3380  0.9568
 3771TIP3    H211320   4.630   4.129   1.334  0.4431  0.2598 -0.6061
 3772TIP3   OH211321   0.571   3.401   0.270 -0.3015 -0.1772  0.1460
 3772TIP3    H111322   0.556   3.481   0.218  0.4388 -0.1649 -0.0468
 3772TIP3    H211323   0.656   3.369   0.241  1.8337  1.7461  3.8135
 3773TIP3   OH211324   2.051   1.293   5.272  0.1287 -0.0947  0.0431
 3773TIP3    H111325   2.138   1.310   5.237  0.9658 -1.8484  1.1773
 3773TIP3    H211326   2.007   1.244   5.203 -0.1839  1.2956 -0.7674
 3774TIP3   OH211327   5.328   3.456   0.914  0.2612  0.8117  0.0728
 3774TIP3    H111328   5.273   3.437   0.838  2.7785  1.4253 -1.9446
 3774TIP3    H211329   5.332   3.551   0.917  0.1623  0.7927  1.0160
 3775TIP3   OH211330   3.358   1.013   4.875 -0.6932  0.2297  0.3242
 3775TIP3    H111331   3.413   1.049   4.944  0.9969 -0.0146 -0.8476
 3775TIP3    H211332   3.416   0.953   4.827 -1.3264  1.6108 -2.2798
 3776TIP3   OH211333   6.356   4.347   0.276  0.9372  0.2564 -0.0354
 3776TIP3    H111334   6.287   4.294   0.317  1.4812  0.0070  0.5579
 3776TIP3    H211335   6.431   4.288   0.269 -0.0266 -0.6263 -4.1342
 3777TIP3   OH211336   2.543   0.786   4.132  0.0077 -0.0686 -0.4920
 3777TIP3    H111337   2.506   0.699   4.143  0.0497  0.1626  1.7474
 3777TIP3    H211338   2.593   0.781   4.050  2.1314 -2.9097  0.8901
 3778TIP3   OH211339   6.518   2.480   0.966 -0.1118 -0.1072 -0.0814
 3778TIP3    H111340   6.441   2.463   1.020  0.4371  0.1811  0.8091
 3778TIP3    H211341   6.527   2.575   0.964  0.2519 -0.1398 -0.1365
 3779TIP3   OH211342   6.059   3.769   0.795  0.1851  0.3629  0.1173
 3779TIP3    H111343   6.124   3.839   0.802 -1.1787  1.7301 -0.3939
 3779TIP3    H211344   6.066   3.721   0.877  0.5151  1.6787  0.8777
 3780TIP3   OH211345   2.500   1.422   2.908 -0.1790  0.2120 -0.0804
 3780TIP3    H111346   2.561   1.375   2.964 -0.2792  0.0865 -0.0745
 3780TIP3    H211347   2.551   1.493   2.869  0.6758 -1.4643 -2.1447
 3781TIP3   OH211348   5.283   0.114   4.744 -0.2130 -0.2496  0.0228
 3781TIP3    H111349   5.318   0.057   4.813  2.1447 -1.2758 -1.9457
 3781TIP3    H211350   5.215   0.061   4.702  0.7803 -1.0152 -0.6735
 3782TIP3   OH211351   0.127   2.056   0.252 -0.2923  0.0047 -0.0103
 3782TIP3    H111352   0.105   1.990   0.187 -0.1550 -0.6965  0.6510
 3782TIP3    H211353   0.215   2.033   0.281 -0.3313  0.3432  0.3845
 3783TIP3   OH211354   1.359   5.943   3.277  0.4931  0.1384  0.4120
 3783TIP3    H111355   1.300   6.019   3.280 -0.3531 -0.5099  0.3191
 3783TIP3    H211356   1.433   5.968   3.333 -0.3920  0.5252  1.4293
 3784TIP3   OH211357   1.547   1.057   3.606 -0.1249  0.5706  0.1998
 3784TIP3    H111358   1.526   1.004   3.683  2.7143 -3.9750 -1.9592
 3784TIP3    H211359   1.496   1.018   3.535  1.1423  1.4739 -1.2454
 3785TIP3   OH211360   3.274   2.262   4.435  0.1118  0.2846  0.4697
 3785TIP3    H111361   3.263   2.350   4.471 -0.3668  0.8477 -1.0177
 3785TIP3    H211362   3.355   2.267   4.384 -0.1281 -0.0258  0.0568
 3786TIP3   OH211363   4.609   3.657   0.230  0.2175 -0.0302  0.2971
 3786TIP3    H111364   4.624   3.733   0.287 -0.0628  0.3501 -0.1300
 3786TIP3    H211365   4.679   3.664   0.164 -0.3426  0.3582 -0.2600
 3787TIP3   OH211366   2.007   0.891   5.046 -0.2376  0.0546  0.1213
 3787TIP3    H111367   1.934   0.841   5.083 -0.3899 -0.1022 -0.3875
 3787TIP3    H211368   2.085   0.841   5.071 -0.3386 -0.0414  0.2469
 3788TIP3   OH211369   1.297   2.085   3.175  0.2528 -0.0034  0.3359
 3788TIP3    H111370   1.362   2.056   3.238 -0.5931 -2.4400  0.1269
 3788TIP3    H211371   1.347   2.111   3.098  1.0392 -0.9362  0.5314
 3789TIP3   OH211372   4.151   5.034   1.085  0.0835 -0.5669  0.0120
 3789TIP3    H111373   4.203   5.050   1.163  0.0017  0.8319 -0.2203
 3789TIP3    H211374   4.213   4.996   1.022  0.6656  0.4510 -0.0296
 3790TIP3   OH211375   1.548   0.576   4.355  0.1346 -0.0202  0.5690
 3790TIP3    H111376   1.526   0.550   4.265 -0.6236 -1.3867  1.1271
 3790TIP3    H211377   1.529   0.669   4.359 -1.9565 -0.3877 -0.0715
 3791TIP3   OH211378   3.112   1.193   0.549  0.3709 -0.1989  0.4481
 3791TIP3    H111379   3.023   1.196   0.515  0.5261 -0.8200 -0.0170
 3791TIP3    H211380   3.128   1.282   0.582 -0.6163 -0.2355  1.0616
 3792TIP3   OH211381   3.382   2.347   4.793  0.0375  0.6130 -0.4800
 3792TIP3    H111382   3.385   2.397   4.712 -0.6689  0.3900 -0.6490
 3792TIP3    H211383   3.361   2.258   4.765  0.4985  0.3880 -0.1136
 3793TIP3   OH211384   2.791   0.880   5.197  0.0021 -0.7983 -0.3290
 3793TIP3    H111385   2.853   0.828   5.248 -1.0116  0.1671  1.9490
 3793TIP3    H211386   2.845   0.948   5.156  0.3870  0.4095  2.1343
 3794TIP3   OH211387   4.714   0.511   3.251 -0.1791  0.0614 -0.4063
 3794TIP3    H111388   4.689   0.451   3.321  0.4648 -0.2486 -0.4436
 3794TIP3    H211389   4.714   0.458   3.172  0.9649 -0.0306 -0.3504
 3795TIP3   OH211390   4.140   6.070   0.542  0.1722 -0.6911 -0.3314
 3795TIP3    H111391   4.116   5.985   0.578 -2.4146  0.0444 -0.2148
 3795TIP3    H211392   4.090   6.076   0.460 -0.7134  1.2799  0.3348
 3796TIP3   OH211393   5.684   5.689   2.412 -0.6449  0.3077  0.4135
 3796TIP3    H111394   5.673   5.695   2.507 -0.5417 -0.5064  0.4843
 3796TIP3    H211395   5.776   5.710   2.397 -0.6062  0.2152  0.5180
 3797TIP3   OH211396   5.391   3.302   4.092 -0.3709 -0.3525 -0.7188
 3797TIP3    H111397   5.410   3.209   4.098  1.6542  0.0541 -0.3233
 3797TIP3    H211398   5.454   3.343   4.151  0.5642  1.4722 -2.9141
 3798TIP3   OH211399   4.707   0.096   1.942 -0.2220  0.0696  0.1504
 3798TIP3    H111400   4.704   0.018   1.887 -0.9734  0.7755 -0.8149
 3798TIP3    H211401   4.630   0.088   1.998 -0.3774  0.1910 -0.0457
 3799TIP3   OH211402   3.875   0.064   3.486  0.1186 -0.6144 -0.8317
 3799TIP3    H111403   3.845   0.146   3.525  0.0243 -0.1995 -1.7459
 3799TIP3    H211404   3.971   0.073   3.484  0.1273 -0.6692 -0.6113
 3800TIP3   OH211405   4.106   3.855   1.048  0.0837  0.3152  0.2031
 3800TIP3    H111406   4.176   3.807   1.092  0.5324 -0.5896 -1.4446
 3800TIP3    H211407   4.061   3.788   0.996  0.5899  1.6287 -1.9833
 3801TIP3   OH211408   0.218   1.603   4.737 -0.3287 -0.1404 -0.4509
 3801TIP3    H111409   0.245   1.529   4.683 -2.5362 -1.1340 -0.2222
 3801TIP3    H211410   0.134   1.578   4.773  0.2251  1.2889  1.9875
 3802TIP3   OH211411   2.487   5.283   0.320  0.1023  0.2316 -0.0865
 3802TIP3    H111412   2.502   5.192   0.297  2.6905  0.8170 -0.9831
 3802TIP3    H211413   2.561   5.306   0.376 -1.0296  1.5196  0.9158
 3803TIP3   OH211414   6.498   3.264   0.580  0.2751  0.4086 -0.5211
 3803TIP3    H111415   6.421   3.293   0.532 -0.2870 -1.5199 -0.8383
 3803TIP3    H211416   6.571   3.310   0.538 -0.6684  2.1497 -0.2922
 3804TIP3   OH211417   4.748   4.526   2.426  0.1577  0.2043 -0.3204
 3804TIP3    H111418   4.674   4.533   2.365  1.5253  2.1098 -1.8174
 3804TIP3    H211419   4.772   4.433   2.423 -0.6932  0.0055 -1.6031
 3805TIP3   OH211420   2.447   1.848   5.181  0.3167  0.3935  0.4607
 3805TIP3    H111421   2.485   1.890   5.104  0.9389 -1.4469 -0.2513
 3805TIP3    H211422   2.522   1.809   5.226  0.0344  1.8920  2.2988
 3806TIP3   OH211423   5.591   5.574   0.434 -0.7553  0.6579  0.8687
 3806TIP3    H111424   5.600   5.481   0.457 -2.5938  0.3067  0.2554
 3806TIP3    H211425   5.604   5.576   0.340  0.9722  1.2765  1.1104
 3807TIP3   OH211426   1.650   6.097   0.870  0.2794 -0.0323 -0.5490
 3807TIP3    H111427   1.680   6.016   0.909  1.5805  0.3860 -0.6733
 3807TIP3    H211428   1.646   6.078   0.776 -2.5042 -0.9270 -0.2982
 3808TIP3   OH211429   1.673   3.116   1.416 -0.0231 -0.3022 -0.3170
 3808TIP3    H111430   1.592   3.066   1.428 -0.2418 -0.0847 -0.8762
 3808TIP3    H211431   1.739   3.050   1.395  0.4822 -0.7567  2.4771
 3809TIP3   OH211432   3.180   3.101   2.778 -0.4198  0.6723  0.6929
 3809TIP3    H111433   3.174   3.036   2.848 -1.1759  0.5273  0.5000
 3809TIP3    H211434   3.273   3.105   2.756 -0.3938 -0.5312  0.5328
 3810TIP3   OH211435   4.039   0.717   4.696 -0.1806 -0.1175  0.2367
 3810TIP3    H111436   3.973   0.653   4.669  1.0720 -0.6864 -1.5944
 3810TIP3    H211437   4.007   0.800   4.663 -0.5622 -0.2108  0.3770
 3811TIP3   OH211438   0.347   4.395   4.628 -0.9170  0.2004 -0.2060
 3811TIP3    H111439   0.322   4.316   4.677  0.0028  0.4692  0.6974
 3811TIP3    H211440   0.268   4.449   4.628 -0.7871  0.4062  1.3823
 3812TIP3   OH211441   0.874   2.590   4.157  0.5037 -0.1753 -0.2795
 3812TIP3    H111442   0.888   2.672   4.203  0.6675 -0.0215 -0.6039
 3812TIP3    H211443   0.917   2.602   4.073 -0.6905 -0.0641 -0.8902
 3813TIP3   OH211444   2.965   1.186   2.891  0.3706  0.1091  0.0579
 3813TIP3    H111445   3.000   1.162   2.977  1.1424  0.8785 -0.0342
 3813TIP3    H211446   3.015   1.134   2.829 -1.6882 -2.1229  0.1779
 3814TIP3   OH211447   0.342   3.906   4.403 -0.2061 -0.1865 -0.3375
 3814TIP3    H111448   0.373   3.856   4.327  3.5272  1.8597 -0.2774
 3814TIP3    H211449   0.411   3.895   4.468 -1.3115  1.6894  1.1865
 3815TIP3   OH211450   3.561   0.191   3.570 -0.4915 -0.3031 -0.0962
 3815TIP3    H111451   3.476   0.149   3.585 -1.3048  1.4688  0.3165
 3815TIP3    H211452   3.587   0.223   3.656 -0.5501  1.2558 -0.6374
 3816TIP3   OH211453   4.763   2.190   4.236 -0.6453  0.5573  0.3626
 3816TIP3    H111454   4.674   2.219   4.218 -1.0403 -1.0789 -0.3662
 3816TIP3    H211455   4.761   2.160   4.327 -0.6830  1.0443  0.5267
 3817TIP3   OH211456   5.453   5.674   0.073 -0.1178 -0.3612  0.3937
 3817TIP3    H111457   5.518   5.607   0.095  0.1765 -0.3643 -0.4712
 3817TIP3    H211458   5.504   5.755   0.064 -0.4204 -0.0984  1.0535
 3818TIP3   OH211459   5.407   4.953   0.615  0.0706  0.1535 -0.1778
 3818TIP3    H111460   5.388   4.985   0.703  1.7308 -0.4396  0.4103
 3818TIP3    H211461   5.459   5.022   0.574 -0.4343  0.2936 -0.5983
 3819TIP3   OH211462   1.986   2.095   4.006  0.6291  0.2823 -0.1357
 3819TIP3    H111463   1.999   2.143   4.088 -0.3382  0.2074  0.0660
 3819TIP3    H211464   2.014   2.156   3.938 -1.1719  1.3890  0.0803
 3820TIP3   OH211465   4.854   4.337   0.138 -0.2245 -0.1070 -0.0804
 3820TIP3    H111466   4.897   4.313   0.220  1.7284  3.0327 -0.1078
 3820TIP3    H211467   4.864   4.432   0.132 -0.9517 -0.1581 -3.5981
 3821TIP3   OH211468   3.355   1.704   4.056 -0.2759 -0.3318  0.0321
 3821TIP3    H111469   3.447   1.683   4.044 -0.2577  0.1663 -0.7899
 3821TIP3    H211470   3.354   1.796   4.081 -0.6297  0.2014 -1.8217
 3822TIP3   OH211471   1.493   0.422   0.609 -0.2509  0.7780 -0.1001
 3822TIP3    H111472   1.421   0.363   0.634 -0.6272  1.2053 -0.1711
 3822TIP3    H211473   1.571   0.381   0.646 -0.6101  0.6215  0.4976
 3823TIP3   OH211474   3.199   0.873   5.122  0.2018 -0.1299 -0.0764
 3823TIP3    H111475   3.251   0.910   5.194  0.7292 -0.3655 -0.3378
 3823TIP3    H211476   3.209   0.935   5.051  1.3398 -0.9196 -0.6196
 3824TIP3   OH211477   4.399   1.343   4.920  0.4178 -0.5379 -0.5312
 3824TIP3    H111478   4.428   1.276   4.859  0.8047  0.5138 -1.5174
 3824TIP3    H211479   4.406   1.425   4.871  0.3531  0.2747  0.7872
 3825TIP3   OH211480   5.836   3.835   1.639  0.5824  0.6765 -0.3148
 3825TIP3    H111481   5.896   3.893   1.687  0.5725  2.5276 -2.4347
 3825TIP3    H211482   5.772   3.895   1.601  1.1401 -0.6186 -3.3972
 3826TIP3   OH211483   4.820   4.273   1.791  0.0732  0.5875  0.2835
 3826TIP3    H111484   4.825   4.192   1.740 -2.1886 -0.5836  1.8963
 3826TIP3    H211485   4.908   4.282   1.829  0.6026 -0.6111 -0.6030
 3827TIP3   OH211486   6.028   4.447   0.837 -0.4814  0.6674 -0.1463
 3827TIP3    H111487   5.935   4.431   0.851 -0.8237  2.4691 -0.2237
 3827TIP3    H211488   6.031   4.524   0.781  1.0530  0.2423 -0.6654
 3828TIP3   OH211489   2.525   5.688   5.307  0.8146 -0.0587 -0.2054
 3828TIP3    H111490   2.485   5.703   5.221 -3.0523  0.3504  1.5468
 3828TIP3    H211491   2.518   5.593   5.319 -1.2400  0.1797  0.7635
 3829TIP3   OH211492   4.231   1.182   0.831 -0.1587  0.1082 -0.1794
 3829TIP3    H111493   4.172   1.255   0.817 -0.8656 -0.4691 -0.2190
 3829TIP3    H211494   4.319   1.221   0.830 -0.4148  0.6761 -2.1159
 3830TIP3   OH211495   4.042   2.359   4.738 -0.3065  0.3613  0.4429
 3830TIP3    H111496   4.026   2.265   4.744  1.5475 -0.0187 -0.0961
 3830TIP3    H211497   4.019   2.393   4.824 -2.4616 -0.3345  0.1661
 3831TIP3   OH211498   3.843   1.216   4.199  0.4313  0.3962 -0.0232
 3831TIP3    H111499   3.804   1.202   4.285  0.7223 -1.5312 -0.1731
 3831TIP3    H211500   3.936   1.198   4.212  0.2322 -1.5918 -1.0604
 3832TIP3   OH211501   3.266   5.952   0.630  0.6539 -0.0160  0.3251
 3832TIP3    H111502   3.313   6.035   0.621  0.6420 -0.0835 -0.3579
 3832TIP3    H211503   3.251   5.923   0.540 -0.5802 -0.0581  0.5338
 3833TIP3   OH211504   0.449   4.781   0.739  0.0863  0.4819  0.2554
 3833TIP3    H111505   0.503   4.859   0.751  1.2735 -0.2293 -0.3540
 3833TIP3    H211506   0.381   4.788   0.806  0.8238  1.4897  0.9105
 3834TIP3   OH211507   1.610  -0.005   5.117 -0.1647 -0.3042  0.9461
 3834TIP3    H111508   1.684  -0.034   5.064 -1.1323 -0.7456 -0.1942
 3834TIP3    H211509   1.645   0.066   5.171  0.1582  2.2424 -2.4613
 3835TIP3   OH211510   4.632   3.855   3.773  0.1450  0.5011  0.2463
 3835TIP3    H111511   4.617   3.948   3.786  1.2176  0.3592  2.8039
 3835TIP3    H211512   4.558   3.813   3.817 -0.1820  0.1226 -0.6500
 3836TIP3   OH211513   1.026   0.585   3.379 -0.6621 -0.0207  0.1522
 3836TIP3    H111514   0.953   0.593   3.317  0.3111 -0.2356 -1.0553
 3836TIP3    H211515   1.010   0.501   3.423  0.5474 -1.6660 -2.4096
 3837TIP3   OH211516   3.552   1.102   5.088 -0.1147  0.8041 -0.0110
 3837TIP3    H111517   3.638   1.078   5.123  0.3390  0.5374 -1.2781
 3837TIP3    H211518   3.505   1.138   5.163  1.0295  0.7669  0.7428
 3838TIP3   OH211519   3.526   2.786   4.492  0.0424  0.1316  0.5288
 3838TIP3    H111520   3.514   2.869   4.447  0.6120 -0.3447 -0.5339
 3838TIP3    H211521   3.618   2.764   4.476 -0.3311 -1.1295  0.0421
 3839TIP3   OH211522   5.016   4.694   1.068  0.2797 -0.0016  0.4867
 3839TIP3    H111523   4.998   4.712   0.976 -0.8690  1.2375  0.9423
 3839TIP3    H211524   4.934   4.656   1.101  0.9346 -1.1563  0.8263
 3840TIP3   OH211525   5.001   5.127   0.644 -0.1700  0.6399 -0.8586
 3840TIP3    H111526   4.927   5.141   0.703  0.4154 -1.4799  0.4469
 3840TIP3    H211527   4.974   5.164   0.561 -2.5445  0.2447 -0.2904
 3841TIP3   OH211528   1.644   1.635   4.920  0.3447 -0.0321 -0.0743
 3841TIP3    H111529   1.680   1.572   4.983 -1.6636  0.9626  2.1261
 3841TIP3    H211530   1.716   1.650   4.858  2.5345 -0.7084  2.2257
 3842TIP3   OH211531   2.718   2.367   3.844  0.1853 -0.1057 -0.2543
 3842TIP3    H111532   2.684   2.445   3.888  1.1830  0.1473  0.0737
 3842TIP3    H211533   2.668   2.295   3.881 -0.6966  0.3638 -0.5067
 3843TIP3   OH211534   5.774   3.726   0.663 -0.2716  0.3025  0.4330
 3843TIP3    H111535   5.818   3.731   0.748 -0.1113  1.7893  0.2603
 3843TIP3    H211536   5.700   3.667   0.679  0.2995 -0.1797  1.3669
 3844TIP3   OH211537   5.492   5.244   0.559 -0.3347 -0.6860 -0.6634
 3844TIP3    H111538   5.528   5.270   0.643 -0.3304  1.5010 -1.2910
 3844TIP3    H211539   5.404   5.282   0.559 -0.7237 -1.5818 -1.2156
 3845TIP3   OH211540   2.129   3.026   3.960 -0.4166 -0.3089 -0.3525
 3845TIP3    H111541   2.180   2.957   3.918  0.4533  0.2642 -0.2474
 3845TIP3    H211542   2.066   2.979   4.015 -0.1823 -1.0269 -0.6910
 3846TIP3   OH211543   5.017   6.048   1.476 -0.0494 -0.0554  0.3032
 3846TIP3    H111544   5.017   6.004   1.562  0.0696  0.3992  0.5356
 3846TIP3    H211545   5.052   6.135   1.494  2.6708 -0.9074 -0.7105
 3847TIP3   OH211546   3.661   1.624   4.293 -0.2949 -0.8164 -0.8343
 3847TIP3    H111547   3.593   1.561   4.319 -2.6744  1.6791 -0.7582
 3847TIP3    H211548   3.642   1.645   4.202  2.6859 -2.8714 -1.9890
 3848TIP3   OH211549   4.076   0.947   4.405 -0.0458  0.0501  0.1566
 3848TIP3    H111550   4.035   1.006   4.342  0.7669  1.6520  1.1066
 3848TIP3    H211551   4.053   0.859   4.374 -1.3660  0.8535 -1.2038
 3849TIP3   OH211552   0.518   2.578   5.210 -0.1773  0.0515 -0.9159
 3849TIP3    H111553   0.444   2.555   5.153  2.0637 -2.5515 -2.9688
 3849TIP3    H211554   0.527   2.503   5.269  0.1561  0.8460  0.0561
 3850TIP3   OH211555   1.500   1.382   4.402  0.2934  0.4541 -0.0279
 3850TIP3    H111556   1.418   1.351   4.363  1.0414  0.1344 -1.3615
 3850TIP3    H211557   1.500   1.477   4.385  0.2891  0.4263 -0.1808
 3851TIP3   OH211558   3.921   1.931   5.124 -0.2642 -0.4493 -0.2703
 3851TIP3    H111559   3.907   1.843   5.090 -1.3787 -0.4441  0.1727
 3851TIP3    H211560   3.834   1.964   5.144  0.1850  0.5407  0.1125
 3852TIP3   OH211561   1.948   5.424   1.366 -0.1085 -0.2853  0.0495
 3852TIP3    H111562   2.041   5.446   1.372  0.0352 -0.0692 -2.4095
 3852TIP3    H211563   1.943   5.362   1.294 -2.0189  0.5970 -0.6009
 3853TIP3   OH211564   4.352   5.868   4.313  0.3710 -0.8332  0.3243
 3853TIP3    H111565   4.337   5.886   4.406 -1.9269  0.3792 -0.2235
 3853TIP3    H211566   4.444   5.843   4.307  0.8191  0.1326  2.7746
 3854TIP3   OH211567   0.603   2.768   1.224  0.5481 -0.2480  0.7161
 3854TIP3    H111568   0.696   2.752   1.206 -0.0618 -0.4456 -2.6890
 3854TIP3    H211569   0.600   2.858   1.255  1.7496  0.3785 -0.8837
 3855TIP3   OH211570   4.461   5.728   0.260 -0.4765 -0.3012  0.4347
 3855TIP3    H111571   4.462   5.660   0.328 -0.4247 -1.0788 -0.3286
 3855TIP3    H211572   4.488   5.682   0.180  0.7611  0.8938  0.1498
 3856TIP3   OH211573   3.881   2.466   4.530  0.4729  0.2642  0.3278
 3856TIP3    H111574   3.941   2.424   4.591  0.5892 -0.3931 -0.2432
 3856TIP3    H211575   3.894   2.421   4.447 -0.2405  0.6432  0.0010
 3857TIP3   OH211576   2.303   4.822   0.689  0.2246 -0.3058  0.4237
 3857TIP3    H111577   2.236   4.847   0.753  0.0517  2.8981 -0.8828
 3857TIP3    H211578   2.260   4.759   0.632 -1.2001  0.4872  0.5829
 3858TIP3   OH211579   4.974   0.876   4.342  0.5973  0.3188  0.1051
 3858TIP3    H111580   4.881   0.861   4.353  0.7975 -0.2671  1.0410
 3858TIP3    H211581   4.982   0.918   4.256 -0.3654 -1.1652 -0.7292
 3859TIP3   OH211582   0.995   5.020   3.983 -0.4904  0.6846  0.0524
 3859TIP3    H111583   1.088   5.042   3.971 -0.5837  0.6617 -0.7347
 3859TIP3    H211584   0.996   4.944   4.041  0.0781 -0.6566 -1.7114
 3860TIP3   OH211585   1.377   2.647   1.612  0.1523  0.2988  0.0203
 3860TIP3    H111586   1.291   2.632   1.575  0.4597 -0.3913 -0.4166
 3860TIP3    H211587   1.368   2.627   1.705  0.2543 -1.4088 -0.3278
 3861TIP3   OH211588   5.788   3.384   1.984 -0.1948 -0.3648  0.4082
 3861TIP3    H111589   5.798   3.429   2.068 -0.1175  0.7667 -0.2084
 3861TIP3    H211590   5.871   3.337   1.973 -0.8522 -1.9263  1.7717
 3862TIP3   OH211591   2.992   1.741   1.358 -0.1674  0.5067  0.1226
 3862TIP3    H111592   3.066   1.762   1.415 -0.1608  0.9428 -0.0431
 3862TIP3    H211593   2.958   1.658   1.391  0.8102 -0.0333 -0.2112
 3863TIP3   OH211594   3.475   1.355   3.105 -0.0377  0.1296 -0.3340
 3863TIP3    H111595   3.453   1.329   3.195  1.1834  2.1629  0.5918
 3863TIP3    H211596   3.513   1.277   3.066 -2.6153 -1.4340  0.2026
 3864TIP3   OH211597   4.486   2.997   3.815 -0.0020  0.3204 -0.3216
 3864TIP3    H111598   4.442   3.076   3.782  1.1300  0.2954 -1.9909
 3864TIP3    H211599   4.487   2.938   3.740 -1.6310 -1.6649  1.1765
 3865TIP3   OH211600   5.587   0.249   3.956  0.8896 -0.5687 -0.2821
 3865TIP3    H111601   5.652   0.235   3.887 -0.7621  1.2427 -2.2894
 3865TIP3    H211602   5.516   0.189   3.934  0.6227 -0.4310  0.1942
 3866TIP3   OH211603   2.677   2.243   4.111  0.4825 -0.0262  0.5564
 3866TIP3    H111604   2.717   2.190   4.042 -1.5911 -0.4375 -0.3765
 3866TIP3    H211605   2.725   2.219   4.191  2.8282  0.3606 -0.6862
 3867TIP3   OH211606   5.239   3.694   1.179  0.4973  0.1643 -0.2930
 3867TIP3    H111607   5.183   3.617   1.167 -1.3597  1.1496  1.7046
 3867TIP3    H211608   5.205   3.758   1.116 -1.5203  1.2113  1.8084
 3868TIP3   OH211609   1.034   3.306   1.092 -0.2556  0.5801 -0.3265
 3868TIP3    H111610   0.961   3.300   1.154  0.9236  0.7602  1.1166
 3868TIP3    H211611   1.112   3.315   1.147  0.8075  0.9905 -1.8440
 3869TIP3   OH211612   2.719   0.103   1.028 -0.0051 -0.1536  0.1258
 3869TIP3    H111613   2.704   0.179   0.971  1.9279  1.8113  2.1381
 3869TIP3    H211614   2.665   0.121   1.105  1.0298 -0.4575  0.9203
 3870TIP3   OH211615   5.288   1.294   3.812 -0.2843  0.1215 -0.0809
 3870TIP3    H111616   5.319   1.334   3.731  0.8881 -0.5681  0.0028
 3870TIP3    H211617   5.193   1.306   3.811 -0.1835  0.8713 -1.1378
 3871TIP3   OH211618   0.743   3.971   0.675  0.2241  0.2870 -0.0399
 3871TIP3    H111619   0.703   3.897   0.721 -1.5508  0.8568 -0.6020
 3871TIP3    H211620   0.814   3.999   0.732 -0.2276 -0.7193  1.0435
 3872TIP3   OH211621   2.905   2.119   1.662 -0.4226  0.0952  0.7684
 3872TIP3    H111622   2.998   2.106   1.647 -0.5991 -0.6964  0.3487
 3872TIP3    H211623   2.862   2.051   1.611 -1.1301 -1.0739  2.8727
 3873TIP3   OH211624   5.493   4.142   1.069 -0.0707 -0.2821 -0.1375
 3873TIP3    H111625   5.481   4.124   1.162 -0.7944  0.4073 -0.0920
 3873TIP3    H211626   5.411   4.115   1.029 -0.8593  2.0803 -0.1771
 3874TIP3   OH211627   1.473   4.220   0.066 -0.6554 -0.1947 -0.3643
 3874TIP3    H111628   1.528   4.145   0.091  1.6008  1.6385  0.2945
 3874TIP3    H211629   1.510   4.251  -0.016 -1.9781 -0.1420 -0.9555
 3875TIP3   OH211630   3.736   5.959   3.645  0.9080  0.1553  0.0055
 3875TIP3    H111631   3.676   5.998   3.708 -0.2801  1.2054 -1.7250
 3875TIP3    H211632   3.680   5.911   3.585  1.7635  1.2563 -1.7262
 3876TIP3   OH211633   2.804   4.929   4.827 -0.1253 -0.1730  0.0042
 3876TIP3    H111634   2.861   4.954   4.899 -2.1248  0.7585  1.3030
 3876TIP3    H211635   2.829   4.840   4.805 -0.2985 -0.8973  2.6608
 3877TIP3   OH211636   0.300   1.820   4.543 -0.0014  0.0689  0.3319
 3877TIP3    H111637   0.240   1.785   4.477  0.4810  0.5566 -0.3818
 3877TIP3    H211638   0.284   1.767   4.621 -0.9590 -0.1631 -0.0171
 3878TIP3   OH211639   4.304   0.512   4.197 -0.4442 -0.0893 -0.1035
 3878TIP3    H111640   4.374   0.540   4.137 -0.6453 -0.4624 -0.5123
 3878TIP3    H211641   4.314   0.569   4.273  0.7268 -0.5958  0.1245
 3879TIP3   OH211642   2.515   4.254   0.311  0.4447  0.3891  0.0162
 3879TIP3    H111643   2.582   4.187   0.300  0.1884  0.0374  0.5505
 3879TIP3    H211644   2.553   4.316   0.373 -0.5274 -0.9322  2.0048
 3880TIP3   OH211645   5.658   1.258   3.710 -0.2853  0.2448 -0.1782
 3880TIP3    H111646   5.726   1.252   3.643 -0.0263 -0.9516  0.2016
 3880TIP3    H211647   5.621   1.346   3.698 -0.2947  0.0134 -1.9464
 3881TIP3   OH211648   5.352   0.923   4.798 -0.5699  0.4162  0.0900
 3881TIP3    H111649   5.348   0.957   4.708 -0.3160  0.8447  0.2382
 3881TIP3    H211650   5.337   0.829   4.789  0.0966  0.3580 -0.4775
 3882TIP3   OH211651   5.410   3.147   3.672  0.5275 -0.2080  0.3313
 3882TIP3    H111652   5.497   3.148   3.712  0.6763  0.1128  0.0023
 3882TIP3    H211653   5.426   3.131   3.579  0.2342 -0.1661  0.2712
 3883TIP3   OH211654   5.944   3.017   3.523 -0.3798  0.1038 -0.0246
 3883TIP3    H111655   5.920   2.950   3.586  0.3810 -0.3341 -0.1936
 3883TIP3    H211656   5.959   2.969   3.441  2.3155  0.1634  0.3792
 3884TIP3   OH211657   1.073   3.225   0.565 -0.2318 -0.4313 -0.4293
 3884TIP3    H111658   1.101   3.136   0.543  4.5657  0.9499 -0.4710
 3884TIP3    H211659   1.044   3.219   0.656  0.0766 -2.0358 -0.4129
 3885TIP3   OH211660   2.825   2.413   2.835 -0.3817  0.4596  0.2062
 3885TIP3    H111661   2.742   2.442   2.798 -1.1084 -1.9417 -0.1638
 3885TIP3    H211662   2.808   2.410   2.930 -1.4491 -2.0960 -0.0303
 3886TIP3   OH211663  -0.012   2.178   3.711  0.1361 -0.0270 -0.2425
 3886TIP3    H111664   0.056   2.244   3.702  0.1081  0.0001 -0.2560
 3886TIP3    H211665   0.030   2.096   3.686  0.8265 -0.3822  1.9767
 3887TIP3   OH211666   4.513   2.370   5.331  0.3230  0.3308 -0.0080
 3887TIP3    H111667   4.589   2.312   5.322 -0.0588 -0.0874 -0.5760
 3887TIP3    H211668   4.477   2.377   5.242 -0.4409  0.3472  0.2981
 3888TIP3   OH211669   0.044   0.769   5.286 -0.0325 -0.6207  0.4432
 3888TIP3    H111670   0.023   0.826   5.360  0.6842  0.1194  0.0832
 3888TIP3    H211671   0.138   0.779   5.274  0.1590 -2.1732  0.6152
 3889TIP3   OH211672   4.702   5.201   0.503  0.2620 -0.1907  0.4362
 3889TIP3    H111673   4.706   5.296   0.494 -1.3780 -0.2190 -0.9219
 3889TIP3    H211674   4.712   5.186   0.597  1.6587  1.2341  0.5455
 3890TIP3   OH211675   0.142   4.125   0.690 -0.0174 -0.4403 -0.1748
 3890TIP3    H111676   0.065   4.182   0.700 -1.5438 -2.5846  0.6048
 3890TIP3    H211677   0.175   4.144   0.602 -1.5662  0.3653 -0.5981
 3891TIP3   OH211678   4.734   3.713   4.842  0.1721 -0.1489  0.2928
 3891TIP3    H111679   4.660   3.675   4.793 -1.8828  1.2761  2.2033
 3891TIP3    H211680   4.738   3.803   4.811  0.2068  0.1704  1.2290
 3892TIP3   OH211681   6.225   2.613   3.886  0.0785  0.4701  0.3134
 3892TIP3    H111682   6.149   2.644   3.936  0.3573  0.5887  0.6700
 3892TIP3    H211683   6.200   2.526   3.855  0.1535  0.1140  1.2235
 3893TIP3   OH211684   6.172   4.088   0.246 -0.7325  0.7375  0.8856
 3893TIP3    H111685   6.083   4.070   0.216 -1.0036  1.7078  1.0856
 3893TIP3    H211686   6.176   4.049   0.333 -0.2225 -1.3103 -0.0256
 3894TIP3   OH211687   0.933   3.333   2.154 -0.3246 -0.0136  0.6477
 3894TIP3    H111688   0.885   3.277   2.215 -0.8617  0.1940  0.4167
 3894TIP3    H211689   0.942   3.280   2.075  0.5813 -0.3707  0.9931
 3895TIP3   OH211690   3.513   5.848   3.504  0.4218  0.4070 -0.0275
 3895TIP3    H111691   3.501   5.812   3.416  1.1629 -1.1340  0.4838
 3895TIP3    H211692   3.425   5.850   3.541  0.3661 -0.9256 -0.0571
 3896TIP3   OH211693   4.767   0.421   4.116 -0.1983  0.6468  1.0100
 3896TIP3    H111694   4.698   0.474   4.075  0.3205  0.8213  0.3537
 3896TIP3    H211695   4.845   0.475   4.111  0.4207 -0.3013  0.0162
 3897TIP3   OH211696   0.960   0.171   2.259 -0.2121 -0.3455  0.5801
 3897TIP3    H111697   0.908   0.142   2.184  0.4820 -1.3644  0.4886
 3897TIP3    H211698   0.897   0.178   2.331 -0.7612 -0.0044  0.0689
 3898TIP3   OH211699   0.775   3.467   3.583  0.0016 -0.0765 -0.0802
 3898TIP3    H111700   0.773   3.415   3.664 -1.3493  0.6062  0.3408
 3898TIP3    H211701   0.684   3.471   3.555  0.3017  0.7518 -0.9636
 3899TIP3   OH211702   2.098   4.750   1.802  0.4769  0.0373 -0.6738
 3899TIP3    H111703   2.119   4.661   1.774 -0.8460 -0.8709  1.1790
 3899TIP3    H211704   2.044   4.785   1.731  3.2836  0.3959 -2.7408
 3900TIP3   OH211705   4.376   1.796   4.283 -0.2096 -0.4088  0.2374
 3900TIP3    H111706   4.398   1.776   4.192 -1.0081  0.6990 -0.2075
 3900TIP3    H211707   4.294   1.750   4.299 -0.7385  0.4366 -0.0087
 3901TIP3   OH211708   3.620   0.444   5.283  0.1013  0.4155  0.5867
 3901TIP3    H111709   3.650   0.365   5.328  0.4546  0.8480  1.1275
 3901TIP3    H211710   3.695   0.470   5.229  1.0109  1.8872  2.4623
 3902TIP3   OH211711   3.112   1.811   2.247  0.3883  0.2555 -0.6161
 3902TIP3    H111712   3.187   1.870   2.253  0.8254 -0.2709 -0.8830
 3902TIP3    H211713   3.120   1.756   2.325 -0.6115  1.2391  0.1906
 3903TIP3   OH211714   5.110   2.971   3.219 -0.0899 -0.5816 -0.1789
 3903TIP3    H111715   5.199   2.957   3.187 -0.7637 -0.8840 -1.9817
 3903TIP3    H211716   5.107   2.925   3.303  0.7246 -2.6664 -1.2519
 3904TIP3   OH211717   0.476   0.266   3.922  0.0726  0.0841  0.0539
 3904TIP3    H111718   0.411   0.261   3.852  0.5805  1.7030 -0.5378
 3904TIP3    H211719   0.505   0.175   3.934 -1.2669 -0.4512 -0.6335
 3905TIP3   OH211720   3.772   0.421   5.065  0.5938  0.1667 -0.7978
 3905TIP3    H111721   3.756   0.333   5.030 -0.6367  0.3587 -0.7261
 3905TIP3    H211722   3.864   0.438   5.044  0.9523 -1.2750 -0.5161
 3906TIP3   OH211723   4.582   6.050   4.322  0.2124 -0.5882 -0.6153
 3906TIP3    H111724   4.522   6.125   4.314  1.2519  0.2085 -1.0514
 3906TIP3    H211725   4.576   6.024   4.414 -1.1857 -0.8396 -0.7724
 3907TIP3   OH211726   6.477   2.646   3.144  0.4939 -0.2128  0.2820
 3907TIP3    H111727   6.382   2.648   3.156  0.2278  0.1095 -1.6557
 3907TIP3    H211728   6.501   2.554   3.159 -0.1953 -0.3904  0.2949
 3908TIP3   OH211729   0.027   1.872   5.128 -0.6692 -0.1151 -0.0160
 3908TIP3    H111730   0.084   1.871   5.205 -0.3913  2.1704 -0.1624
 3908TIP3    H211731   0.087   1.860   5.054 -0.6161  0.2819 -0.0387
 3909TIP3   OH211732   0.444   2.099   0.661  0.1088 -0.3580  0.0903
 3909TIP3    H111733   0.452   2.077   0.754  0.3202 -0.0574  0.1409
 3909TIP3    H211734   0.529   2.077   0.623 -0.0587 -0.7234 -0.0858
 3910TIP3   OH211735   5.545   0.365   4.906 -0.1933  0.0624  0.0718
 3910TIP3    H111736   5.581   0.451   4.923 -1.6740  0.9047 -0.9442
 3910TIP3    H211737   5.515   0.369   4.815 -1.5913 -1.0505  0.4597
 3911TIP3   OH211738   5.854   5.784   0.512 -0.1795 -0.1452 -0.4903
 3911TIP3    H111739   5.831   5.737   0.593  0.0362  1.1583  0.3356
 3911TIP3    H211740   5.932   5.834   0.535  1.3297 -1.6162 -2.2119
 3912TIP3   OH211741   1.879   3.602   0.144  0.0718 -0.3164 -0.3145
 3912TIP3    H111742   1.798   3.555   0.161  0.6049 -0.0859  3.4881
 3912TIP3    H211743   1.947   3.535   0.153  0.3965 -0.2025 -1.9145
 3913TIP3   OH211744   5.181   1.605   5.267 -0.2384 -0.2435 -0.4562
 3913TIP3    H111745   5.189   1.602   5.172  0.9555 -0.9261 -0.3449
 3913TIP3    H211746   5.248   1.544   5.299 -1.4793 -0.9824  0.7869
 3914TIP3   OH211747   3.404   6.036   3.230  0.5828  0.4278 -0.1785
 3914TIP3    H111748   3.398   6.124   3.266  2.3407  0.6783 -0.4569
 3914TIP3    H211749   3.475   5.994   3.279 -0.8414 -1.1688  0.6062
 3915TIP3   OH211750   2.288   4.164   4.251  0.5753  0.2228 -0.0860
 3915TIP3    H111751   2.196   4.142   4.240  1.1628 -1.6896 -1.3327
 3915TIP3    H211752   2.292   4.260   4.243 -1.2135  0.2627 -0.5040
 3916TIP3   OH211753   2.817   2.221   3.259 -0.3616  0.3703 -0.1480
 3916TIP3    H111754   2.799   2.255   3.346  0.3319  0.0572  0.1211
 3916TIP3    H211755   2.753   2.264   3.203 -1.4982 -0.2072  0.6845
 3917TIP3   OH211756   5.264   3.433   3.688  0.6434  0.0163 -0.8474
 3917TIP3    H111757   5.304   3.347   3.676  0.8837  0.1800 -1.2407
 3917TIP3    H211758   5.235   3.434   3.779 -0.1514 -0.8081 -1.0867
 3918TIP3   OH211759   3.119   1.369   4.806 -0.1746  0.0865  0.0771
 3918TIP3    H111760   3.135   1.422   4.727 -1.0193 -0.6769 -0.6118
 3918TIP3    H211761   3.141   1.280   4.780  0.6518 -0.0026  1.0621
 3919TIP3   OH211762   4.497   1.551   4.297  0.1505  0.4936 -0.7000
 3919TIP3    H111763   4.450   1.629   4.328  3.0116  1.8301  0.4398
 3919TIP3    H211764   4.480   1.485   4.365  0.3437  1.1232 -0.0366
 3920TIP3   OH211765   0.099   5.447   0.268  0.1405 -0.0275 -0.4472
 3920TIP3    H111766   0.052   5.368   0.294 -0.6609  0.0623 -1.6130
 3920TIP3    H211767   0.110   5.439   0.173  1.5380  0.4613 -0.3315
 3921TIP3   OH211768   1.938   5.606   4.798 -0.3148 -0.8993  0.4579
 3921TIP3    H111769   1.977   5.520   4.813  0.8007 -0.3975  0.4047
 3921TIP3    H211770   1.878   5.592   4.724  0.8729 -1.3216 -0.4296
 3922TIP3   OH211771   3.898   2.370   5.010  0.4211 -0.5982  0.1036
 3922TIP3    H111772   3.883   2.279   5.032 -1.5317 -0.2375  0.3601
 3922TIP3    H211773   3.816   2.399   4.970  0.8614  1.1502  0.4144
 3923TIP3   OH211774   4.387   0.131   4.765 -0.3603  0.6141  0.3560
 3923TIP3    H111775   4.467   0.112   4.716  0.0892 -0.4096  1.4547
 3923TIP3    H211776   4.365   0.221   4.741  0.0777  0.2709 -1.3922
 3924TIP3   OH211777   2.322   2.676   1.769  0.6578 -0.3326  0.4902
 3924TIP3    H111778   2.361   2.631   1.694  0.2100 -0.1689  0.1592
 3924TIP3    H211779   2.234   2.699   1.741  0.6693  0.2089  0.8760
 3925TIP3   OH211780   2.906   6.051   4.782 -0.2252  0.1019 -0.0540
 3925TIP3    H111781   2.828   5.996   4.777  2.7607 -4.4815  0.2557
 3925TIP3    H211782   2.938   6.038   4.871  0.7895  2.1139 -0.0949
 3926TIP3   OH211783   4.546   1.271   3.491  0.0349  0.1050 -0.5747
 3926TIP3    H111784   4.630   1.315   3.481  0.7458 -1.5947 -2.2484
 3926TIP3    H211785   4.568   1.179   3.507 -1.4372  0.2234  2.5348
 3927TIP3   OH211786   5.653   4.168   2.799 -0.0220 -0.1518 -0.1519
 3927TIP3    H111787   5.715   4.135   2.864 -0.4214 -2.9987 -1.1038
 3927TIP3    H211788   5.568   4.136   2.829 -0.4460  0.1160 -1.0487
 3928TIP3   OH211789   5.767   1.581   4.853  0.2630 -0.1167  0.2468
 3928TIP3    H111790   5.836   1.595   4.787  0.5749 -0.8188  0.4167
 3928TIP3    H211791   5.724   1.501   4.825 -0.2318  0.1069  0.3672
 3929TIP3   OH211792   4.127   0.307   0.766 -0.1356  0.5504 -0.3992
 3929TIP3    H111793   4.054   0.261   0.808  1.9737 -2.2168  0.3814
 3929TIP3    H211794   4.166   0.360   0.836 -0.5097  0.9045 -0.4583
 3930TIP3   OH211795   2.989   0.488   4.339  0.4117  0.3604 -0.3629
 3930TIP3    H111796   2.921   0.504   4.405  1.4967 -0.8697  1.0946
 3930TIP3    H211797   2.946   0.436   4.272 -0.6244  1.3663 -0.5012
 3931TIP3   OH211798   0.208   3.413   0.817  0.0122 -0.3728  0.2583
 3931TIP3    H111799   0.210   3.367   0.734 -1.8144  1.2257 -0.7018
 3931TIP3    H211800   0.269   3.364   0.873  0.2438 -2.2450 -1.5743
 3932TIP3   OH211801   5.379   4.979   0.893 -0.3629 -0.1046  0.4510
 3932TIP3    H111802   5.343   4.915   0.955 -0.1208  0.4048  1.1218
 3932TIP3    H211803   5.423   5.043   0.948 -0.7284  0.7207 -0.2130
 3933TIP3   OH211804   3.291   1.045   3.987  0.2462  0.2454 -0.3477
 3933TIP3    H111805   3.332   1.059   4.072  1.6531 -1.9349 -0.6375
 3933TIP3    H211806   3.206   1.006   4.008 -0.1134  1.2489  0.1030
 3934TIP3   OH211807   6.461   0.238   5.106  0.2946  0.5113 -0.3341
 3934TIP3    H111808   6.449   0.331   5.086  3.2792  0.6799 -1.5524
 3934TIP3    H211809   6.433   0.193   5.026 -0.4645  0.3728 -0.0004
 3935TIP3   OH211810   5.736   2.256   3.994  0.3862  0.5340  0.3414
 3935TIP3    H111811   5.697   2.211   4.069 -0.5194  1.3482  0.3619
 3935TIP3    H211812   5.823   2.217   3.986 -0.6764 -1.8068 -0.1616
 3936TIP3   OH211813   0.098   2.193   4.625  0.2900  0.2261  0.5677
 3936TIP3    H111814   0.116   2.195   4.531  1.2463  1.5353  0.7753
 3936TIP3    H211815   0.101   2.100   4.647 -0.7815 -0.1577 -0.8531
 3937TIP3   OH211816   5.605   4.193   0.040  0.0759 -0.2185 -0.2347
 3937TIP3    H111817   5.692   4.215   0.075 -0.4286 -0.9072  1.5220
 3937TIP3    H211818   5.551   4.178   0.118 -1.6916  0.4345 -1.3034
 3938TIP3   OH211819   2.013   0.958   2.916 -0.7136 -0.2682  0.2077
 3938TIP3    H111820   2.054   0.980   2.999 -0.8837  1.6018 -0.1873
 3938TIP3    H211821   1.926   0.995   2.921 -1.4140 -1.8197 -0.0645
 3939TIP3   OH211822   2.223   5.206   0.371 -0.4406 -0.7577 -0.2065
 3939TIP3    H111823   2.236   5.160   0.454 -2.6976 -1.3845 -0.1780
 3939TIP3    H211824   2.301   5.261   0.362  1.7328 -3.6732  0.3340
 3940TIP3   OH211825   4.514   1.963   3.631 -0.2173 -0.6243 -0.6428
 3940TIP3    H111826   4.546   2.037   3.681 -0.1824 -0.8371 -0.3535
 3940TIP3    H211827   4.430   1.993   3.596 -0.4721 -0.6500 -0.0584
 3941TIP3   OH211828   2.718   5.790   4.830 -0.3517 -0.2479  0.3712
 3941TIP3    H111829   2.706   5.728   4.902  0.1892  0.5727  1.1692
 3941TIP3    H211830   2.641   5.847   4.835 -0.3733 -0.2629  0.2207
 3942TIP3   OH211831   1.508   4.774   0.013 -0.2122 -0.1505  0.6179
 3942TIP3    H111832   1.531   4.853   0.062  0.2893 -0.5239  0.9964
 3942TIP3    H211833   1.462   4.719   0.076  0.6547 -0.7370  0.7456
 3943TIP3   OH211834   0.624   3.839   3.593 -0.1809 -0.4108 -0.2232
 3943TIP3    H111835   0.588   3.866   3.677 -0.1413 -1.3984  0.1265
 3943TIP3    H211836   0.628   3.919   3.541 -0.8782  0.0792  0.4655
 3944TIP3   OH211837   3.443   0.865   5.250  0.1764  0.0686 -0.1128
 3944TIP3    H111838   3.499   0.911   5.187  1.9254 -1.3786  0.3293
 3944TIP3    H211839   3.474   0.895   5.336 -0.2599 -0.1639  0.1262
 3945TIP3   OH211840   1.452   2.666   0.095  0.2618 -0.4504 -0.6095
 3945TIP3    H111841   1.520   2.699   0.035 -0.4235 -0.1162 -1.2083
 3945TIP3    H211842   1.501   2.634   0.170  1.0916 -0.1730 -1.0178
 3946TIP3   OH211843   4.757   3.331   2.483  0.4867  0.0063  0.1464
 3946TIP3    H111844   4.810   3.295   2.555 -0.5148 -0.5013  0.6319
 3946TIP3    H211845   4.716   3.254   2.443  0.5198  0.3515 -0.5623
 3947TIP3   OH211846   4.159   0.461   4.423 -0.2452  0.1437  0.3878
 3947TIP3    H111847   4.208   0.478   4.503 -0.4506 -3.0597  1.2645
 3947TIP3    H211848   4.216   0.491   4.353  0.6668  1.4116  1.6499
 3948TIP3   OH211849   5.874   2.564   3.361 -0.5349 -0.3094  0.0173
 3948TIP3    H111850   5.970   2.564   3.357 -0.5714 -1.0910 -0.9429
 3948TIP3    H211851   5.852   2.496   3.424 -0.4457  0.4535  0.8902
 3949TIP3   OH211852   5.854   4.401   0.054 -0.1847  0.3648 -1.0184
 3949TIP3    H111853   5.842   4.402   0.149 -0.0060 -0.3614 -0.9908
 3949TIP3    H211854   5.937   4.355   0.040 -0.2905  0.3265 -1.5355
 3950TIP3   OH211855   5.235   4.086   0.997  0.0234  0.0595 -0.2538
 3950TIP3    H111856   5.195   4.001   1.017  0.4200  0.1167  0.7807
 3950TIP3    H211857   5.164   4.138   0.960 -0.2579 -0.6725 -0.7566
 3951TIP3   OH211858   0.618   5.011   0.821 -0.2447  0.0381  0.3521
 3951TIP3    H111859   0.699   4.988   0.775 -1.0790 -1.1871 -0.5366
 3951TIP3    H211860   0.579   5.080   0.768  0.1197  0.4935  0.6762
 3952TIP3   OH211861   6.294   1.621   4.360 -0.0711 -0.2955  0.2360
 3952TIP3    H111862   6.301   1.663   4.446 -0.6137 -0.0560  0.1615
 3952TIP3    H211863   6.321   1.530   4.376  0.3024 -0.1266  0.5615
 3953TIP3   OH211864   1.604   3.897   1.796 -0.3192 -0.3991  0.3044
 3953TIP3    H111865   1.538   3.854   1.741 -1.2461  2.9230 -1.2979
 3953TIP3    H211866   1.685   3.888   1.746 -0.7946  0.9533 -0.7336
 3954TIP3   OH211867   4.820   2.322   2.296  0.5670 -0.4178 -0.0145
 3954TIP3    H111868   4.741   2.314   2.350 -0.4435  0.2516 -1.3602
 3954TIP3    H211869   4.889   2.349   2.358 -0.8784  1.7336  0.7263
 3955TIP3   OH211870   6.203   0.463   3.016 -0.2491 -1.0081  0.5727
 3955TIP3    H111871   6.262   0.536   2.999  0.6861 -1.8388  0.2195
 3955TIP3    H211872   6.259   0.394   3.051 -1.1718 -1.4587  1.1996
 3956TIP3   OH211873   4.625   0.118   4.605  0.0985 -0.2708  0.3744
 3956TIP3    H111874   4.713   0.093   4.634 -0.2124 -1.5216  0.2909
 3956TIP3    H211875   4.629   0.117   4.510 -0.3249 -1.5882  0.3541
 3957TIP3   OH211876   0.213   3.898   1.702 -0.5549  0.5143 -0.3200
 3957TIP3    H111877   0.188   3.849   1.780  0.9282 -1.7297 -1.2196
 3957TIP3    H211878   0.281   3.959   1.732  0.5735 -0.8899  0.0090
 3958TIP3   OH211879   1.374   5.501   4.777 -0.3007  0.1218  0.4027
 3958TIP3    H111880   1.381   5.547   4.861 -1.2248 -0.2998  0.7114
 3958TIP3    H211881   1.312   5.554   4.727  0.8765  0.8390 -0.3376
 3959TIP3   OH211882   3.998   0.685   4.336 -0.5582  0.0243 -0.5041
 3959TIP3    H111883   4.012   0.658   4.245  1.2252  1.1096 -0.5871
 3959TIP3    H211884   4.031   0.613   4.389  0.1644  0.1960 -0.7208
 3960TIP3   OH211885   5.659   3.349   2.387 -0.3940  0.0466 -0.2775
 3960TIP3    H111886   5.570   3.383   2.386  0.4349  2.3535 -1.6301
 3960TIP3    H211887   5.651   3.258   2.360 -2.2030  0.6422 -1.8758
 3961TIP3   OH211888   1.831   6.069   4.280  0.0593 -0.3048 -0.0498
 3961TIP3    H111889   1.883   6.133   4.327 -0.0137 -0.2897  0.0107
 3961TIP3    H211890   1.895   6.009   4.242  0.1161 -0.3175  0.0683
 3962TIP3   OH211891   0.067   3.522   1.870 -0.2942  0.0352 -0.2778
 3962TIP3    H111892   0.029   3.470   1.800 -2.9234  0.0029  1.1296
 3962TIP3    H211893   0.016   3.500   1.948  2.0612  0.6255  1.5252
 3963TIP3   OH211894   0.697   0.486   4.415  0.4061 -0.0368 -0.1437
 3963TIP3    H111895   0.661   0.398   4.428 -0.6156  0.5679  1.3083
 3963TIP3    H211896   0.750   0.479   4.336 -2.6072 -1.0516 -2.1493
 3964TIP3   OH211897   3.509   2.724   3.450 -0.1073 -0.1986  0.5140
 3964TIP3    H111898   3.546   2.692   3.368 -1.5546 -1.9786  0.5288
 3964TIP3    H211899   3.493   2.645   3.501 -1.1329  0.7561  1.6884
 3965TIP3   OH211900   3.453   0.592   4.037 -0.1427 -0.5487  0.1511
 3965TIP3    H111901   3.507   0.515   4.053  0.4206 -0.5167 -1.4102
 3965TIP3    H211902   3.394   0.597   4.111  1.5567 -0.9825  1.5729
 3966TIP3   OH211903   3.331   4.437   3.687 -0.6594  0.2022 -0.6117
 3966TIP3    H111904   3.247   4.475   3.662 -0.2901  2.1608  1.0065
 3966TIP3    H211905   3.371   4.503   3.744  1.2150 -1.4587  0.0365
 3967TIP3   OH211906   5.131   3.788   0.252  0.8052  1.1158  0.0443
 3967TIP3    H111907   5.151   3.801   0.159  1.1839 -0.7399 -0.1395
 3967TIP3    H211908   5.055   3.844   0.268  0.6503  1.3367 -1.4188
 3968TIP3   OH211909   5.728   5.433   2.273 -0.2696 -0.0974  0.2648
 3968TIP3    H111910   5.679   5.489   2.333 -1.9358 -0.2124 -0.9740
 3968TIP3    H211911   5.683   5.441   2.190  1.4443 -0.7165 -0.7541
 3969TIP3   OH211912   5.265   5.389   0.486 -0.4432  0.4409 -0.5837
 3969TIP3    H111913   5.306   5.463   0.442 -1.2784  1.0490 -0.3607
 3969TIP3    H211914   5.242   5.423   0.573  1.9881 -1.0000  0.6576
 3970TIP3   OH211915   3.040   4.342   2.281 -0.5117  0.3172 -0.3021
 3970TIP3    H111916   3.040   4.379   2.193 -0.7567 -0.3702 -0.6006
 3970TIP3    H211917   3.108   4.275   2.279 -0.4523  0.3649  0.0603
 3971TIP3   OH211918   4.432   2.859   3.535  0.0062  0.4970  0.1061
 3971TIP3    H111919   4.358   2.870   3.477  0.3010 -0.8485 -0.5405
 3971TIP3    H211920   4.507   2.895   3.487 -0.2530  2.0316  0.8365
 3972TIP3   OH211921   5.244   1.689   2.052  0.1147  0.8461 -0.1726
 3972TIP3    H111922   5.331   1.714   2.083  0.5350 -0.0387 -0.6290
 3972TIP3    H211923   5.187   1.702   2.128  0.5420  1.9586 -0.0337
 3973TIP3   OH211924   5.367   3.264   1.496 -0.3891  0.6613  0.2216
 3973TIP3    H111925   5.364   3.186   1.552  2.0726  0.9921  0.8923
 3973TIP3    H211926   5.377   3.229   1.407 -3.6019  0.1494  0.0212
 3974TIP3   OH211927   0.759   4.173   0.212  0.2005 -0.1997  0.5060
 3974TIP3    H111928   0.782   4.133   0.129 -0.6124  2.0321 -0.8465
 3974TIP3    H211929   0.667   4.152   0.225  0.5777 -1.3795  1.3542
 3975TIP3   OH211930   5.329   4.964   2.369 -0.2970 -0.8809 -0.3530
 3975TIP3    H111931   5.386   5.009   2.432 -2.6771  1.6463  0.0729
 3975TIP3    H211932   5.375   4.972   2.286  1.1823 -1.1338  0.4132
 3976TIP3   OH211933   1.482   1.902   5.316  0.0411 -0.4825  0.5400
 3976TIP3    H111934   1.477   1.807   5.322 -0.9556 -0.4656  0.1574
 3976TIP3    H211935   1.407   1.926   5.261 -0.6863  0.6555  1.9849
 3977TIP3   OH211936   5.424   1.728   5.035  0.2777  0.1281  0.7441
 3977TIP3    H111937   5.461   1.693   5.116 -0.7361  0.1830  1.2354
 3977TIP3    H211938   5.337   1.690   5.030  0.3745  0.0355 -0.3859
 3978TIP3   OH211939   4.350   0.839   4.990 -0.4033  0.7515 -0.2321
 3978TIP3    H111940   4.418   0.813   4.929 -1.2467 -0.1835 -0.7832
 3978TIP3    H211941   4.280   0.775   4.977 -1.3037  1.5770  0.4678
 3979TIP3   OH211942   0.623   4.783   0.101 -0.0521 -0.0791  0.3001
 3979TIP3    H111943   0.703   4.781   0.049 -0.1030 -0.1698  0.2256
 3979TIP3    H211944   0.559   4.734   0.049 -0.1517 -0.0204  0.3660
 3980TIP3   OH211945   5.895   5.513   1.371 -0.3826 -0.6636 -0.0201
 3980TIP3    H111946   5.947   5.565   1.310  0.4418 -1.3287  0.1086
 3980TIP3    H211947   5.826   5.474   1.317  0.4992 -1.4622 -0.5946
 3981TIP3   OH211948   0.566   5.890   1.970  0.3706 -0.2062 -0.4073
 3981TIP3    H111949   0.520   5.875   1.887  0.3092  3.1650 -1.0446
 3981TIP3    H211950   0.501   5.929   2.027  1.1074 -0.1022  0.3726
 3982TIP3   OH211951   5.932   6.093   2.016  0.2491  0.3706 -0.4054
 3982TIP3    H111952   5.989   6.067   1.943  2.2036  0.8194  0.9223
 3982TIP3    H211953   5.865   6.025   2.019 -0.3674  0.7917 -3.1501
 3983TIP3   OH211954   5.630   2.125   4.222  0.0450  0.1357 -0.2144
 3983TIP3    H111955   5.561   2.191   4.214  0.5606  0.7592  0.4438
 3983TIP3    H211956   5.674   2.147   4.304 -0.5480 -1.7490  0.6364
 3984TIP3   OH211957   5.426   0.453   3.789 -0.2597 -0.3678  0.3787
 3984TIP3    H111958   5.382   0.462   3.873 -0.3474 -0.5861  0.3588
 3984TIP3    H211959   5.401   0.531   3.740 -1.7227 -1.1308 -0.1238
 3985TIP3   OH211960   0.715   4.497   0.226 -0.1639 -0.3404  0.7938
 3985TIP3    H111961   0.759   4.523   0.145 -1.0276 -0.8506  0.1551
 3985TIP3    H211962   0.633   4.548   0.226  0.5077  0.7516  2.0670
 3986TIP3   OH211963   3.776   0.635   4.637 -0.7772 -0.1625  0.4791
 3986TIP3    H111964   3.775   0.673   4.549  1.2421 -0.3526  0.3433
 3986TIP3    H211965   3.765   0.541   4.623  2.7582 -0.5840  0.1394
 3987TIP3   OH211966   2.708   4.971   5.179 -0.9001  0.1742 -0.1100
 3987TIP3    H111967   2.760   4.892   5.175 -2.7867 -1.0853 -0.7392
 3987TIP3    H211968   2.771   5.042   5.193  0.7730 -1.4503  0.6338
 3988TIP3   OH211969   2.548   0.830   4.888  0.6050  0.0952  0.0504
 3988TIP3    H111970   2.618   0.765   4.898 -0.3551 -1.0218 -0.3227
 3988TIP3    H211971   2.494   0.795   4.817 -1.4738 -0.1039  1.7008
 3989TIP3   OH211972   3.098   4.606   3.590 -0.5804  0.0630 -0.3669
 3989TIP3    H111973   3.170   4.627   3.531 -0.9436  0.0255 -0.8310
 3989TIP3    H211974   3.067   4.520   3.561 -0.1135 -0.4110  0.5243
 3990TIP3   OH211975   5.485   3.595   1.534  0.5686 -0.3220  0.3665
 3990TIP3    H111976   5.580   3.604   1.540  0.9763 -3.1120 -1.0389
 3990TIP3    H211977   5.462   3.632   1.448  0.5125 -0.5424  0.2862
 3991TIP3   OH211978   1.033   3.229   0.821  0.2475  0.2742 -0.3067
 3991TIP3    H111979   1.016   3.264   0.908  1.4732 -0.7350  0.3625
 3991TIP3    H211980   0.973   3.155   0.812 -0.0788  0.5571 -0.4236
 3992TIP3   OH211981   5.111   0.185   3.976  0.2724  0.1977 -0.2610
 3992TIP3    H111982   5.045   0.147   4.033 -0.1177  0.6700 -0.3968
 3992TIP3    H211983   5.080   0.166   3.887  1.5649 -1.7387 -0.3397
 3993TIP3   OH211984   4.290   1.625   3.779  0.3682  0.0758  0.2723
 3993TIP3    H111985   4.211   1.575   3.758 -0.3170  0.4685  1.8039
 3993TIP3    H211986   4.351   1.606   3.708 -1.2253  0.0142 -1.0914
 3994TIP3   OH211987   5.767   5.042   0.082  0.3002 -0.3208  0.4554
 3994TIP3    H111988   5.710   4.995   0.142 -0.7341 -0.5896 -0.7345
 3994TIP3    H211989   5.724   5.035  -0.003  1.6814  0.1757 -0.2963
 3995TIP3   OH211990   4.963   1.242   5.219 -0.0591 -0.1791 -0.3036
 3995TIP3    H111991   4.935   1.324   5.260  0.1766 -0.3777  0.2506
 3995TIP3    H211992   4.896   1.179   5.244  0.5399 -0.4999  0.4778
 3996TIP3   OH211993   4.707   6.058   1.220 -0.4459  0.0680  0.2052
 3996TIP3    H111994   4.746   6.134   1.176  2.0274 -0.4408  1.4045
 3996TIP3    H211995   4.770   5.987   1.205 -2.7697 -1.7924 -0.9846
 3997TIP3   OH211996   0.661   2.425   4.171  0.4563  0.2133 -0.1729
 3997TIP3    H111997   0.745   2.470   4.167  0.3700  0.4317  0.3382
 3997TIP3    H211998   0.668   2.367   4.248  0.1427  0.2377 -0.1243
 3998TIP3   OH211999   4.124   3.481   0.072  0.4404  0.2351  0.0487
 3998TIP3    H112000   4.134   3.391   0.040 -1.3606 -0.3001  0.9674
 3998TIP3    H212001   4.214   3.510   0.090  0.9167 -1.9886  1.3760
 3999TIP3   OH212002   0.007   1.591   3.942 -0.3308  0.2295  0.1989
 3999TIP3    H112003  -0.026   1.650   4.010  0.8468 -1.3868  2.2173
 3999TIP3    H212004   0.102   1.606   3.941 -0.4311  0.9241 -1.7840
 4000TIP3   OH212005   4.517   6.098   5.006 -0.0180 -0.2432  0.1912
 4000TIP3    H112006   4.451   6.045   5.051 -0.0326  0.1953  0.6954
 4000TIP3    H212007   4.596   6.089   5.060  0.7997 -2.0226 -1.2371
 4001TIP3   OH212008   1.159   3.762   0.668  0.0321  0.4813 -0.0973
 4001TIP3    H112009   1.180   3.820   0.595 -0.2450 -0.2271 -0.7498
 4001TIP3    H212010   1.167   3.673   0.631 -1.2771  0.1447  0.3990
 4002TIP3   OH212011   5.557   2.724   3.108 -0.1892  0.0117 -0.0442
 4002TIP3    H112012   5.495   2.651   3.109  1.0734 -1.0622  0.5509
 4002TIP3    H212013   5.623   2.699   3.043 -0.5692  1.3189 -0.9548
 4003TIP3   OH212014   2.059   2.517   3.333 -0.0550 -0.1577 -0.2932
 4003TIP3    H112015   2.046   2.583   3.265  0.5448  0.4849  0.2113
 4003TIP3    H212016   2.125   2.458   3.297 -0.5127 -0.4289 -0.6996
 4004TIP3   OH212017   3.480   4.730   3.502 -0.1274  0.1469  0.2097
 4004TIP3    H112018   3.434   4.732   3.587 -0.1792 -0.6832  0.2030
 4004TIP3    H212019   3.427   4.786   3.445 -1.5493 -1.3882  0.0001
 4005TIP3   OH212020   5.192   1.837   3.045 -0.2038  0.4485 -0.5167
 4005TIP3    H112021   5.243   1.780   2.987 -0.7736 -0.3209 -0.2820
 4005TIP3    H212022   5.166   1.910   2.989 -0.6993 -0.2617 -1.2351
 4006TIP3   OH212023   5.511   0.092   4.590  0.1666  0.2304  0.2903
 4006TIP3    H112024   5.562   0.029   4.640  0.6015  1.5056  1.4868
 4006TIP3    H212025   5.430   0.101   4.639  0.1466  0.6872  0.1748
 4007TIP3   OH212026   3.347   5.143   2.443 -0.5622 -0.5873  0.5005
 4007TIP3    H112027   3.384   5.086   2.511  0.7319 -1.2557 -0.7314
 4007TIP3    H212028   3.363   5.095   2.361 -0.9614  0.7843 -0.3892
 4008TIP3   OH212029   3.953   6.003   4.369  0.5817  0.0440  0.5231
 4008TIP3    H112030   3.876   5.993   4.313  1.5057 -1.1656 -0.5570
 4008TIP3    H212031   3.945   5.933   4.434 -0.7179  1.7144  2.2215
 4009TIP3   OH212032   2.341   1.516   4.580  0.4538  0.0072  0.0714
 4009TIP3    H112033   2.421   1.467   4.597  0.6260 -0.0363 -0.8415
 4009TIP3    H212034   2.297   1.467   4.511  0.0430  0.4941 -0.0154
 4010TIP3   OH212035   1.512   0.295   2.251 -0.0427 -0.2212  0.3303
 4010TIP3    H112036   1.596   0.267   2.289  0.2437  1.5107  1.0007
 4010TIP3    H212037   1.537   0.358   2.183 -0.8820  1.8745  1.9239
 4011TIP3   OH212038   0.937   3.780   0.933 -0.7184 -0.2656  0.9249
 4011TIP3    H112039   0.907   3.706   0.880  0.5232  0.0647 -0.2542
 4011TIP3    H212040   1.024   3.755   0.963 -0.4183  0.5887  0.7848
 4012TIP3   OH212041   4.143   2.661   2.570  0.3298  0.6047 -0.7280
 4012TIP3    H112042   4.177   2.624   2.652 -0.4641  0.6606 -0.3699
 4012TIP3    H212043   4.088   2.591   2.533 -0.3020  1.0262 -0.5945
 4013TIP3   OH212044   1.231   2.657   3.734 -0.3712 -0.3741  0.2049
 4013TIP3    H112045   1.228   2.729   3.672  2.0114  0.1831  0.6900
 4013TIP3    H212046   1.244   2.579   3.680 -1.0403 -0.2154 -0.1853
 4014TIP3   OH212047   4.427   4.268   4.154  0.0234 -0.2578 -0.0178
 4014TIP3    H112048   4.364   4.267   4.082 -0.4490 -1.6364  0.4014
 4014TIP3    H212049   4.509   4.297   4.114 -0.1879 -1.2012 -1.1654
 4015TIP3   OH212050   0.182   5.616   0.488 -0.8759  0.1379 -0.0978
 4015TIP3    H112051   0.154   5.589   0.400 -0.8239  0.0016 -0.0725
 4015TIP3    H212052   0.168   5.538   0.542 -0.4331  0.0673 -0.0863
 4016TIP3   OH212053   3.901   0.710   5.236 -0.6277  0.4206 -0.0369
 4016TIP3    H112054   3.944   0.625   5.236 -2.0715 -0.3237 -0.8845
 4016TIP3    H212055   3.973   0.773   5.242  0.3664 -0.8691  2.1158
 4017TIP3   OH212056   5.046   3.100   2.964  0.8825  0.0543  0.6968
 4017TIP3    H112057   5.066   3.039   3.035 -1.2442 -0.9523  0.4417
 4017TIP3    H212058   5.026   3.183   3.010  0.8273 -0.2337  1.2007
 4018TIP3   OH212059   1.548   3.348   1.772 -0.2781 -0.6731 -0.5073
 4018TIP3    H112060   1.561   3.310   1.858  0.0978  0.5062 -0.0306
 4018TIP3    H212061   1.522   3.275   1.716 -0.7363 -1.3978  0.6549
 4019TIP3   OH212062   4.231   1.280   5.125 -0.0935 -0.0552  0.9535
 4019TIP3    H112063   4.296   1.279   5.054 -0.9092  3.3265  0.0870
 4019TIP3    H212064   4.240   1.194   5.167  2.3098 -1.0698 -1.5126
 4020TIP3   OH212065   2.154   5.828   1.408  0.0973 -0.0533 -0.0960
 4020TIP3    H112066   2.149   5.921   1.430 -0.0271  0.3010 -1.5634
 4020TIP3    H212067   2.247   5.809   1.403  0.1308 -0.1854  0.8789
 4021TIP3   OH212068   2.925   6.095   1.507  0.3267 -0.0974  0.0598
 4021TIP3    H112069   2.931   6.002   1.529  3.3885  0.5952  2.5609
 4021TIP3    H212070   2.924   6.098   1.411  0.9792 -2.6555 -0.0485
 4022TIP3   OH212071   5.239   1.025   5.028  0.7504  0.0465 -0.1042
 4022TIP3    H112072   5.249   0.966   4.953 -0.7014  0.7358 -0.8659
 4022TIP3    H212073   5.297   1.099   5.009 -0.7694  0.9678 -1.3559
 4023TIP3   OH212074   3.532   2.137   4.246  0.5075  0.1900 -0.5307
 4023TIP3    H112075   3.506   2.224   4.216  0.4964  0.7820  1.1514
 4023TIP3    H212076   3.602   2.153   4.310  0.7666 -1.0479 -0.4861
 4024TIP3   OH212077   4.208   1.715   4.913 -0.0294  0.9514 -0.1291
 4024TIP3    H112078   4.264   1.753   4.981 -0.0023  0.9130 -0.1294
 4024TIP3    H212079   4.119   1.721   4.948 -0.0103  0.8837 -0.0674
 4025TIP3   OH212080   6.246   1.085   5.317 -0.4727  0.6287 -0.0978
 4025TIP3    H112081   6.272   1.015   5.258 -1.0098  0.7210 -0.4550
 4025TIP3    H212082   6.265   1.166   5.268  1.6492  0.7782  0.9476
 4026TIP3   OH212083   3.949   1.248   5.297 -0.0593  0.0884 -0.5531
 4026TIP3    H112084   4.026   1.248   5.355 -1.8031 -0.8356  1.8519
 4026TIP3    H212085   3.948   1.160   5.258  1.0779  0.6886 -1.9759
 4027TIP3   OH212086   5.292   0.951   3.018  0.0950  0.0132  0.2849
 4027TIP3    H112087   5.279   1.046   3.027  0.1154 -0.1915  2.7243
 4027TIP3    H212088   5.356   0.929   3.085 -1.7761 -2.1136  1.4389
 4028TIP3   OH212089   4.821   0.180   3.999 -1.1831 -1.0030  0.0668
 4028TIP3    H112090   4.783   0.216   3.918 -0.6793 -0.1438  0.2054
 4028TIP3    H212091   4.805   0.248   4.065 -0.8765 -1.3530  0.5053
 4029TIP3   OH212092   5.040   5.971   0.905 -0.6518  0.4906  0.1410
 4029TIP3    H112093   5.000   5.909   0.967 -0.5206  0.9832  0.7180
 4029TIP3    H212094   5.083   5.915   0.840 -0.9331 -0.0322  0.3990
 4030TIP3   OH212095   1.168   5.045   0.678  0.2715 -0.0879  0.2946
 4030TIP3    H112096   1.084   5.050   0.632 -0.4459 -2.3307  1.2979
 4030TIP3    H212097   1.202   5.134   0.676 -2.2538  0.9035  0.0699
 4031TIP3   OH212098   6.090   0.601   2.796 -0.2449 -0.2609  0.0385
 4031TIP3    H112099   5.998   0.574   2.802 -0.1387 -0.7841 -0.6045
 4031TIP3    H212100   6.138   0.535   2.846 -0.1934 -0.1523  0.1306
 4032TIP3   OH212101   4.313   6.157   3.031 -0.0782 -0.1994  0.3643
 4032TIP3    H112102   4.326   6.085   3.094 -1.1189 -0.0718  0.7333
 4032TIP3    H212103   4.237   6.131   2.979  0.4445 -0.0453 -0.4858
 4033TIP3   OH212104   6.031   0.380   4.311  0.3600 -0.6231  0.2819
 4033TIP3    H112105   6.026   0.342   4.223  0.8351 -2.0155  0.8428
 4033TIP3    H212106   6.039   0.474   4.296 -2.6258 -0.5118 -1.1366
 4034TIP3   OH212107   5.033   2.323   4.221 -0.1248  0.0829 -0.0830
 4034TIP3    H112108   5.030   2.258   4.291 -1.3303 -1.4264 -1.4924
 4034TIP3    H212109   4.945   2.322   4.184  0.1162  1.8527 -0.7449
 4035TIP3   OH212110   0.291   1.701   3.944  0.0922  0.1683 -0.3245
 4035TIP3    H112111   0.351   1.737   4.009 -0.3622 -2.1046  1.4112
 4035TIP3    H212112   0.347   1.653   3.883  0.1187 -1.8445  1.2234
 4036TIP3   OH212113   3.738   5.484   3.281 -0.5481 -0.2586  0.1214
 4036TIP3    H112114   3.727   5.412   3.219  0.9063  1.7825 -2.5770
 4036TIP3    H212115   3.832   5.484   3.302 -0.4467  1.1517 -0.2853
 4037TIP3   OH212116   0.722   3.695   0.188  0.1149 -0.3520 -0.1035
 4037TIP3    H112117   0.726   3.732   0.100 -0.3238 -0.8125 -0.3163
 4037TIP3    H212118   0.727   3.600   0.174  0.2988 -0.4161  0.3838
 4038TIP3   OH212119   5.795   1.524   5.129  0.1013 -0.5653  0.6194
 4038TIP3    H112120   5.773   1.572   5.048 -0.3091  0.0762  1.1068
 4038TIP3    H212121   5.808   1.593   5.194 -2.7798 -1.1627  1.9068
 4039TIP3   OH212122   3.782   1.154   1.026  0.3383  0.4919  0.0888
 4039TIP3    H112123   3.719   1.205   0.975  1.0398  0.2471 -1.0374
 4039TIP3    H212124   3.729   1.086   1.068 -0.3985  1.3148  0.5187
 4040TIP3   OH212125   3.161   5.858   1.094 -0.5584  0.0175  0.1600
 4040TIP3    H112126   3.118   5.900   1.168 -0.1177 -1.1188  1.0829
 4040TIP3    H212127   3.248   5.898   1.091 -1.6270  2.2806 -1.6771
 4041TIP3   OH212128   2.297   4.139   0.709  0.3087  0.1071  0.5277
 4041TIP3    H112129   2.235   4.178   0.770 -0.5708 -0.2375 -0.1343
 4041TIP3    H212130   2.352   4.083   0.763  0.7411  1.2622  1.2847
 4042TIP3   OH212131   4.524   0.030   5.007 -0.0544  0.3649 -0.2200
 4042TIP3    H112132   4.487   0.082   4.936 -0.4442 -0.5467 -0.6973
 4042TIP3    H212133   4.462  -0.043   5.018  1.0966 -0.6659 -0.3978
 4043TIP3   OH212134   3.546   5.573   4.738  0.1280 -0.2560 -0.0680
 4043TIP3    H112135   3.459   5.542   4.765  0.7971 -1.5626  0.6668
 4043TIP3    H212136   3.571   5.515   4.666  0.9169 -0.7333  0.5700
 4044TIP3   OH212137   5.953   1.576   4.375 -0.0934  0.3783 -0.2669
 4044TIP3    H112138   6.017   1.507   4.358 -0.0167  0.5292 -0.6090
 4044TIP3    H212139   5.981   1.616   4.457  0.6666  0.9099 -0.7791
 4045TIP3   OH212140   1.162   1.776   5.169  0.1882 -0.6177  0.1630
 4045TIP3    H112141   1.098   1.785   5.098  1.7100  0.9688 -1.0334
 4045TIP3    H212142   1.157   1.858   5.218  0.7006 -0.8211  0.5685
 4046TIP3   OH212143   1.182   2.897   0.755 -0.4592 -0.6719 -0.5705
 4046TIP3    H112144   1.167   2.917   0.847  0.3640 -0.9521 -0.3716
 4046TIP3    H212145   1.271   2.863   0.752  0.1083  0.8469 -1.7051
 4047TIP3   OH212146   4.313   1.015   5.209  0.4813  0.3654  0.5895
 4047TIP3    H112147   4.302   0.965   5.128 -1.8653 -0.8040  1.5765
 4047TIP3    H212148   4.365   0.958   5.265  0.0181  0.1120  0.7702
 4048TIP3   OH212149   3.279   6.053   5.238  0.3140 -0.3060 -0.1584
 4048TIP3    H112150   3.326   5.979   5.279  0.9868  0.8409  1.1795
 4048TIP3    H212151   3.348   6.108   5.202 -0.0444  0.9427  1.0392
 4049TIP3   OH212152   2.307   5.331   4.687  0.5836  0.0229  0.1865
 4049TIP3    H112153   2.223   5.285   4.683  0.4985 -0.1605  3.3156
 4049TIP3    H212154   2.356   5.296   4.612 -1.1593 -1.7607 -0.1861
 4050TIP3   OH212155   2.339   2.486   5.334 -0.1317 -0.1376  0.7517
 4050TIP3    H112156   2.270   2.439   5.287  0.9298 -0.8630 -0.1285
 4050TIP3    H212157   2.392   2.526   5.264  0.7542 -0.2013  1.3801
 4051TIP3   OH212158   0.511   3.668   3.359 -0.3419  0.1432 -0.0876
 4051TIP3    H112159   0.555   3.719   3.291 -1.5257  2.5777  0.8861
 4051TIP3    H212160   0.567   3.676   3.436 -0.3549 -0.3489 -0.0226
 4052TIP3   OH212161   5.648   1.903   2.089  0.3609  0.4014 -0.2297
 4052TIP3    H112162   5.601   1.842   2.146  1.0769 -0.5822 -0.6741
 4052TIP3    H212163   5.735   1.911   2.129  0.2445  1.1816 -0.1352
 4053TIP3   OH212164   0.521   2.155   3.419 -0.2507 -0.0446  0.0817
 4053TIP3    H112165   0.432   2.144   3.452  0.5100 -0.7721  1.9619
 4053TIP3    H212166   0.565   2.206   3.487  1.5522 -2.1787  0.5453
 4054TIP3   OH212167   6.034   3.193   2.232 -0.0168  0.1209  0.0737
 4054TIP3    H112168   6.085   3.155   2.304 -1.0727  1.6308  1.6721
 4054TIP3    H212169   5.962   3.239   2.276 -0.7473  0.9725 -1.9678
 4055TIP3   OH212170   1.183   2.756   0.066  0.0594 -0.0765  0.2179
 4055TIP3    H112171   1.272   2.722   0.069 -0.1585 -0.8289 -1.4262
 4055TIP3    H212172   1.143   2.724   0.147  1.8046  1.8123  1.8593
 4056TIP3   OH212173   5.683   2.483   5.261 -0.1462 -0.5395 -0.5347
 4056TIP3    H112174   5.665   2.564   5.309  0.4690 -0.6812 -0.0632
 4056TIP3    H212175   5.758   2.504   5.205  1.0474 -1.2528  0.7827
 4057TIP3   OH212176   5.473   2.240   4.939 -0.8548 -0.3563 -0.5127
 4057TIP3    H112177   5.493   2.154   4.977 -0.5666  0.8811  2.2457
 4057TIP3    H212178   5.470   2.224   4.845  2.6842 -2.7047 -0.3112
 4058TIP3   OH212179   5.753   5.488   4.486 -0.3339 -0.0370 -0.2168
 4058TIP3    H112180   5.694   5.466   4.558 -1.3519 -0.7985 -1.2616
 4058TIP3    H212181   5.701   5.544   4.429 -0.4965 -1.7653 -1.8079
 4059TIP3   OH212182   2.507   4.890   1.566 -0.3198  0.2242  0.0235
 4059TIP3    H112183   2.541   4.968   1.610 -0.0324  0.1658 -0.0923
 4059TIP3    H212184   2.522   4.819   1.628  0.0558  0.1472 -0.1509
 4060TIP3   OH212185   5.518   2.912   1.845  0.5963  0.1311 -0.0130
 4060TIP3    H112186   5.515   2.994   1.895 -2.9380 -1.0753  1.9086
 4060TIP3    H212187   5.600   2.871   1.870  0.3942  1.0831  2.3448
 4061TIP3   OH212188   0.199   1.498   4.265 -0.4772  0.1565 -0.0365
 4061TIP3    H112189   0.287   1.467   4.283 -0.7015 -1.0489 -0.9250
 4061TIP3    H212190   0.157   1.426   4.218 -1.8879  0.7677  0.2471
 4062TIP3   OH212191   6.182   1.480   3.041  0.0604  0.2512  0.4156
 4062TIP3    H112192   6.189   1.409   3.106 -1.5116 -0.7206 -0.4289
 4062TIP3    H212193   6.136   1.550   3.087 -0.7955 -0.3260  0.4445
 4063TIP3   OH212194   5.978   4.653   4.245 -0.5491  0.1272 -0.2873
 4063TIP3    H112195   6.044   4.588   4.269 -0.5741  0.6518  1.2642
 4063TIP3    H212196   5.894   4.608   4.257 -0.4774 -0.5226 -2.2080
 4064TIP3   OH212197   0.312   1.090   4.611 -0.2707  0.2303  0.4935
 4064TIP3    H112198   0.375   1.022   4.585 -0.8187 -0.7323  1.6320
 4064TIP3    H212199   0.228   1.046   4.612 -1.2088  1.8375 -2.2839
 4065TIP3   OH212200   1.395   2.793   4.738  0.3187 -0.4479  0.5742
 4065TIP3    H112201   1.375   2.752   4.822  0.1032 -0.7025  0.4010
 4065TIP3    H212202   1.415   2.719   4.680  0.0879 -0.2982  0.3028
 4066TIP3   OH212203   0.196   1.400   2.490  0.3297 -0.5627 -0.0820
 4066TIP3    H112204   0.236   1.325   2.446  0.4929 -0.1694 -0.6059
 4066TIP3    H212205   0.109   1.407   2.453 -0.1168 -1.2114  0.8179
 4067TIP3   OH212206   0.435   2.518   3.645  0.9896 -0.1070  0.1595
 4067TIP3    H112207   0.392   2.538   3.562  2.5050 -0.7895 -0.8187
 4067TIP3    H212208   0.410   2.590   3.703 -1.5836 -0.5774 -0.3081
 4068TIP3   OH212209   0.844   1.245   2.929 -0.0853  0.6114  0.1902
 4068TIP3    H112210   0.907   1.317   2.926  2.2859 -1.2408  2.8255
 4068TIP3    H212211   0.776   1.275   2.990  1.1647  0.4689  1.6904
 4069TIP3   OH212212   5.886   3.018   0.517 -0.4915 -0.1474 -0.0222
 4069TIP3    H112213   5.980   3.016   0.531 -0.5658 -0.9770  0.3773
 4069TIP3    H212214   5.848   2.975   0.594 -1.1124 -1.0687 -0.8251
 4070TIP3   OH212215   6.124   0.885   3.285 -0.5944 -0.3673  0.6323
 4070TIP3    H112216   6.087   0.821   3.224 -0.6206  0.4200 -0.1811
 4070TIP3    H212217   6.070   0.963   3.275  0.7840  0.5271  0.0059
 4071TIP3   OH212218   0.847   0.167   2.812  0.3546  0.3866  0.3216
 4071TIP3    H112219   0.875   0.247   2.766 -1.2145  1.3504  0.9952
 4071TIP3    H212220   0.851   0.190   2.905 -1.4297  0.1522  0.4765
 4072TIP3   OH212221   1.160   1.590   1.938 -0.3967  0.1584 -0.1246
 4072TIP3    H112222   1.244   1.600   1.892 -1.0337 -0.8523 -1.5692
 4072TIP3    H212223   1.114   1.522   1.889 -3.0963  2.4071 -0.8927
 4073TIP3   OH212224   4.900   2.528   4.368  0.4110 -0.0766 -0.3901
 4073TIP3    H112225   4.860   2.555   4.286 -0.9333 -0.6698  0.0480
 4073TIP3    H212226   4.985   2.491   4.343 -0.8167 -2.0724 -1.7444
 4074TIP3   OH212227   1.307   0.832   2.770 -0.3288 -0.3486  0.1548
 4074TIP3    H112228   1.293   0.791   2.856 -0.2744  1.3595  1.0042
 4074TIP3    H212229   1.361   0.909   2.789 -3.5095  2.2131 -0.8450
 4075TIP3   OH212230   0.773   0.572   0.259  0.3112  0.5487  0.3065
 4075TIP3    H112231   0.851   0.519   0.242 -1.2636 -1.9602  0.6275
 4075TIP3    H212232   0.777   0.592   0.353  1.1353  1.3685  0.0972
 4076TIP3   OH212233   2.420   2.176   3.932  0.3678  0.4441  0.3812
 4076TIP3    H112234   2.479   2.128   3.991  0.1279 -0.1342  0.1522
 4076TIP3    H212235   2.386   2.109   3.873  0.1357  0.9236 -0.0290
 4077TIP3   OH212236   2.695   2.163   4.484  0.1616 -0.1411 -0.9416
 4077TIP3    H112237   2.689   2.137   4.576 -2.3238  1.7900 -0.4892
 4077TIP3    H212238   2.675   2.084   4.435 -0.9385 -0.6188  0.2480
 4078TIP3   OH212239   6.005   0.438   5.151 -0.1315  0.5213 -0.1260
 4078TIP3    H112240   6.067   0.511   5.139  2.0604 -1.4913 -1.4175
 4078TIP3    H212241   6.050   0.379   5.212 -2.0662  0.4028  1.2225
 4079TIP3   OH212242   2.829   4.539   0.589  0.2087  0.5063  0.9765
 4079TIP3    H112243   2.855   4.451   0.561  1.4632 -0.0222  3.6978
 4079TIP3    H212244   2.908   4.592   0.575  0.4701  0.4906  2.3206
 4080TIP3   OH212245   1.747   3.636   0.411  0.4686 -0.0124  0.4049
 4080TIP3    H112246   1.821   3.642   0.350  0.8105  0.6296  0.8606
 4080TIP3    H212247   1.745   3.723   0.453 -2.5294  1.1024 -1.8583
 4081TIP3   OH212248   0.506   3.851   3.844 -0.6096 -0.1106 -0.0625
 4081TIP3    H112249   0.532   3.775   3.895 -3.0215  0.3733  2.0061
 4081TIP3    H212250   0.554   3.924   3.884  0.7483 -0.3277 -1.2512
 4082TIP3   OH212251   0.863   3.071   4.456  0.6517 -0.2629  0.0968
 4082TIP3    H112252   0.785   3.126   4.461 -0.1308 -1.1373 -1.9563
 4082TIP3    H212253   0.935   3.132   4.442  0.3489  0.5426  1.9330
 4083TIP3   OH212254   5.002   5.460   1.421 -0.3457  0.2582 -0.4367
 4083TIP3    H112255   5.095   5.461   1.400 -0.2019  0.9995  0.1899
 4083TIP3    H212256   5.000   5.453   1.517 -0.9515 -1.1129 -0.5313
 4084TIP3   OH212257   0.306   2.595   5.027 -0.4226 -0.5838  0.2940
 4084TIP3    H112258   0.217   2.585   4.994  0.0195 -1.2267 -0.7246
 4084TIP3    H212259   0.315   2.690   5.041 -1.4460 -0.5715  0.9671
 4085TIP3   OH212260   2.054   2.334   3.905 -0.0435 -0.0516 -0.2049
 4085TIP3    H112261   2.020   2.398   3.843 -0.0999 -0.4807 -0.6228
 4085TIP3    H212262   2.121   2.381   3.954 -0.3529  0.4341 -0.2500
 4086TIP3   OH212263   6.413   1.006   3.532 -0.2957  0.4379  0.2458
 4086TIP3    H112264   6.504   1.019   3.558  0.1582  0.3807 -1.2442
 4086TIP3    H212265   6.377   0.946   3.598  1.2541 -0.9329 -0.1267
 4087TIP3   OH212266   0.811   5.513   5.052 -0.2550 -0.9775 -0.4012
 4087TIP3    H112267   0.844   5.424   5.067 -1.5234 -1.5363 -0.8957
 4087TIP3    H212268   0.775   5.511   4.964  0.9894  0.4338 -0.9603
 4088TIP3   OH212269   5.769   4.029   2.072 -0.1293 -0.2951  0.2043
 4088TIP3    H112270   5.679   4.014   2.102  0.1434  0.3022  1.3442
 4088TIP3    H212271   5.759   4.057   1.981 -1.4137  3.9002  1.5260
 4089TIP3   OH212272   2.081   4.459   1.051 -0.5743 -0.0704  0.1847
 4089TIP3    H112273   2.109   4.480   0.962 -1.4732 -0.0609 -0.0990
 4089TIP3    H212274   1.992   4.426   1.041 -1.2696  1.4521  1.2518
 4090TIP3   OH212275   0.817   2.850   5.066 -0.3573 -0.3451 -0.1267
 4090TIP3    H112276   0.761   2.774   5.050 -1.0756  0.1992 -0.2330
 4090TIP3    H212277   0.802   2.907   4.990  2.3640 -1.3700 -1.5156
 4091TIP3   OH212278   1.712   3.062   4.526 -0.2099  0.0724  0.2793
 4091TIP3    H112279   1.639   3.035   4.470 -0.0115 -1.5822  0.7999
 4091TIP3    H212280   1.684   3.147   4.561 -0.7672  0.6656 -1.5202
 4092TIP3   OH212281   1.710   5.554   0.216  0.0705  0.1287  0.3590
 4092TIP3    H112282   1.710   5.460   0.234 -1.1242 -0.3886 -2.1345
 4092TIP3    H212283   1.803   5.576   0.206  0.4223 -0.5513  1.9811
 4093TIP3   OH212284   6.296   1.760   3.774 -0.3601  0.4685  0.6637
 4093TIP3    H112285   6.252   1.806   3.845 -1.6229 -0.4656  0.5073
 4093TIP3    H212286   6.355   1.699   3.817 -0.1611  0.8142  0.8866
 4094TIP3   OH212287   1.247   3.236   4.166  0.0118 -0.2332  0.4656
 4094TIP3    H112288   1.321   3.231   4.227 -0.1172  2.0135  0.8456
 4094TIP3    H212289   1.278   3.291   4.095 -0.6122 -0.9909 -0.3993
 4095TIP3   OH212290   3.970   5.723   1.503 -0.0621 -0.1860 -0.4283
 4095TIP3    H112291   4.029   5.798   1.501 -0.1412 -0.0679  1.0752
 4095TIP3    H212292   3.981   5.686   1.591 -0.7070 -1.3816 -0.8445
 4096TIP3   OH212293   6.055   1.991   2.404 -0.2599 -1.1964 -0.5207
 4096TIP3    H112294   6.066   1.912   2.457  0.7501 -1.4764 -1.1486
 4096TIP3    H212295   6.143   2.025   2.391 -0.7492  0.5130  0.4461
 4097TIP3   OH212296   3.622   0.332   0.871  0.6431 -0.3633 -0.4093
 4097TIP3    H112297   3.561   0.393   0.828 -0.3533  0.1699  1.6855
 4097TIP3    H212298   3.594   0.246   0.840  1.6750  0.1550 -2.9234
 4098TIP3   OH212299   1.484   2.754   4.140 -0.0022  0.1964 -0.4504
 4098TIP3    H112300   1.408   2.707   4.103  1.3214 -0.5465 -2.3112
 4098TIP3    H212301   1.510   2.700   4.215 -0.8002  0.0000 -0.3035
 4099TIP3   OH212302   0.822   3.899   4.161 -0.5734 -0.3933 -0.3313
 4099TIP3    H112303   0.814   3.805   4.141  2.1525 -1.0270  1.2894
 4099TIP3    H212304   0.881   3.933   4.094 -1.0159  0.0460 -0.5033
 4100TIP3   OH212305   0.352   3.080   3.445 -0.5222  0.1095 -0.1767
 4100TIP3    H112306   0.411   3.136   3.396 -1.0501 -1.2505 -2.4242
 4100TIP3    H212307   0.280   3.062   3.384 -1.9703 -0.3742  1.6225
 4101TIP3   OH212308   4.650   3.655   4.038 -0.1549 -0.4143  0.1787
 4101TIP3    H112309   4.621   3.571   4.002  0.3604 -0.5931  0.1747
 4101TIP3    H212310   4.730   3.634   4.087 -2.0625 -0.5701  3.3298
 4102TIP3   OH212311   2.816   2.930   3.924 -0.1057  0.0736 -0.6132
 4102TIP3    H112312   2.814   3.006   3.983 -0.9838  0.1602 -0.7493
 4102TIP3    H212313   2.732   2.933   3.879  0.8802  0.4604 -2.4688
 4103TIP3   OH212314   1.378   3.415   2.004  0.7830  0.1815 -0.3420
 4103TIP3    H112315   1.299   3.455   2.042  0.4381 -1.0931  0.3015
 4103TIP3    H212316   1.351   3.383   1.918  0.4556 -0.7306  0.0982
 4104TIP3   OH212317   6.376   2.717   5.000 -0.0378 -0.1178 -0.4308
 4104TIP3    H112318   6.365   2.751   5.088  1.0388  0.7567 -0.6136
 4104TIP3    H212319   6.290   2.725   4.959 -0.2174  0.7363  0.1059
 4105TIP3   OH212320   1.407   2.420   3.277  0.5669 -0.1083 -0.1825
 4105TIP3    H112321   1.343   2.375   3.332  1.4490  0.2013  1.1232
 4105TIP3    H212322   1.489   2.373   3.292  1.6058  2.1398  1.5314
 4106TIP3   OH212323   6.291   2.232   3.486  0.0166  0.3741  0.0008
 4106TIP3    H112324   6.304   2.323   3.510  0.1211  0.3578  0.0085
 4106TIP3    H212325   6.321   2.182   3.562 -2.1519  0.3854  0.8855
 4107TIP3   OH212326   4.995   3.332   3.111  0.2917 -0.2668  0.5682
 4107TIP3    H112327   5.026   3.400   3.051 -0.4134  2.3383  3.0233
 4107TIP3    H212328   5.062   3.329   3.179 -0.8637 -0.3313  1.7174
 4108TIP3   OH212329   0.210   3.579   4.131 -0.0979  0.1642  0.5359
 4108TIP3    H112330   0.175   3.627   4.056  1.1927  0.6305  0.2200
 4108TIP3    H212331   0.136   3.527   4.162 -0.6802  0.0522 -0.9851
 4109TIP3   OH212332   1.571   3.757   5.154  0.3015 -0.1466 -0.5093
 4109TIP3    H112333   1.528   3.842   5.163  0.1632 -0.3080  0.3658
 4109TIP3    H212334   1.511   3.695   5.195  0.1261 -0.7625 -1.6677
 4110TIP3   OH212335   1.925   2.986   3.155  0.0475  0.5947  0.1971
 4110TIP3    H112336   1.911   3.073   3.192  0.0112  0.6002  0.1705
 4110TIP3    H212337   1.987   2.945   3.216  1.2853  1.1898 -0.6318
 4111TIP3   OH212338   2.344   2.087   5.296  0.3847  0.7115 -0.1542
 4111TIP3    H112339   2.371   2.014   5.240  0.2700  0.2529  0.3760
 4111TIP3    H212340   2.393   2.073   5.378 -0.7694  0.3796  0.4887
 4112TIP3   OH212341   4.278   5.786   0.867 -0.4152  0.1181  0.5423
 4112TIP3    H112342   4.323   5.870   0.858 -0.3853  0.1144  0.6526
 4112TIP3    H212343   4.220   5.782   0.791  0.3002 -0.2014  0.0076
 4113TIP3   OH212344   1.918   0.373   2.342 -0.1625  0.4118 -0.1213
 4113TIP3    H112345   1.941   0.425   2.418 -0.5445 -0.2282  0.4504
 4113TIP3    H212346   1.999   0.329   2.316  0.1983  1.4185 -0.7161
 4114TIP3   OH212347   5.952   2.595   4.823 -0.6512 -0.5743  0.1486
 4114TIP3    H112348   5.988   2.545   4.750 -0.9562 -0.1263 -0.3134
 4114TIP3    H212349   6.002   2.676   4.823  0.2816 -1.1316  1.2996
 4115TIP3   OH212350   4.983   4.516   2.887 -0.6000 -0.0507 -0.4453
 4115TIP3    H112351   4.902   4.541   2.930  0.9507  2.7653  1.0238
 4115TIP3    H212352   5.000   4.587   2.824  0.8806 -0.4199 -0.4919
 4116TIP3   OH212353   2.657   5.704   3.660  0.0104 -0.3577 -0.0648
 4116TIP3    H112354   2.657   5.660   3.745 -0.7086 -2.2452 -0.9952
 4116TIP3    H212355   2.667   5.632   3.596 -1.0185  0.8447 -1.6292
 4117TIP3   OH212356   3.847   4.942   1.042  0.4341 -0.9333 -0.2719
 4117TIP3    H112357   3.862   5.021   0.990  1.9344 -1.0295 -0.0103
 4117TIP3    H212358   3.886   4.962   1.127 -0.7180 -1.3185  0.3551
 4118TIP3   OH212359   6.073   0.657   1.843  0.1286  0.1885 -0.6193
 4118TIP3    H112360   6.138   0.616   1.900  0.1910  1.2911  0.1098
 4118TIP3    H212361   6.018   0.708   1.902  0.0822  1.1990 -1.5278
 4119TIP3   OH212362   3.494   3.913   4.927  0.4611  0.2826  0.0637
 4119TIP3    H112363   3.542   3.831   4.923  0.0765  0.0685 -0.3089
 4119TIP3    H212364   3.539   3.971   4.865  0.8526  0.4220  0.4748
 4120TIP3   OH212365   4.758   0.236   0.138  0.0787  0.1700  0.0365
 4120TIP3    H112366   4.711   0.174   0.082  2.2855 -0.8305 -0.7515
 4120TIP3    H212367   4.740   0.206   0.227 -0.2503 -0.5877 -0.2854
 4121TIP3   OH212368   0.048   1.330   1.487 -0.2977 -0.4562 -0.1764
 4121TIP3    H112369   0.036   1.420   1.457  1.1714 -0.7610 -1.7764
 4121TIP3    H212370  -0.034   1.307   1.530 -1.3154  1.0715 -1.2655
 4122TIP3   OH212371   0.505   4.255   4.988 -0.0936 -0.5044  0.1837
 4122TIP3    H112372   0.601   4.255   4.993 -0.1106 -0.0867  0.5439
 4122TIP3    H212373   0.486   4.218   4.902  0.4419  0.8546 -0.5425
 4123TIP3   OH212374   2.267   5.467   4.074 -0.1331  0.2944 -0.5394
 4123TIP3    H112375   2.233   5.390   4.029  0.5419  0.4323 -1.2897
 4123TIP3    H212376   2.311   5.433   4.152 -0.8601  0.0183 -0.2435
 4124TIP3   OH212377   2.175   4.600   4.780 -0.0896 -0.8127  0.2568
 4124TIP3    H112378   2.119   4.675   4.799  0.8120 -0.7723  3.0029
 4124TIP3    H212379   2.209   4.617   4.692 -2.6986  0.1742 -0.6190
 4125TIP3   OH212380   4.583   2.724   0.267  0.4153  0.1363 -0.1760
 4125TIP3    H112381   4.641   2.789   0.226  1.5380 -0.7021  0.0663
 4125TIP3    H212382   4.561   2.763   0.352  2.3284 -0.4693  0.6185
 4126TIP3   OH212383   2.727   2.346   5.247  0.0033  0.3371 -0.0628
 4126TIP3    H112384   2.667   2.399   5.299 -0.2478 -0.3988  0.4003
 4126TIP3    H212385   2.814   2.382   5.267 -0.1916  0.7942 -0.0231
 4127TIP3   OH212386   2.763   4.588   1.596  0.7370 -0.4601 -0.3984
 4127TIP3    H112387   2.750   4.523   1.665  2.1468 -1.4669 -1.0488
 4127TIP3    H212388   2.809   4.660   1.640 -0.2123 -0.1925  0.1697
 4128TIP3   OH212389   0.375   3.997   3.471 -0.3613  0.4050 -0.2495
 4128TIP3    H112390   0.347   3.961   3.387 -1.6391  1.3172 -0.2220
 4128TIP3    H212391   0.433   4.069   3.448  0.4507 -0.2657 -0.3260
 4129TIP3   OH212392   0.183   2.721   2.456  0.4028  0.2424  0.5647
 4129TIP3    H112393   0.214   2.766   2.535  0.2060 -0.4937  1.0708
 4129TIP3    H212394   0.255   2.730   2.394 -0.1024  2.3031  0.2254
 4130TIP3   OH212395   6.187   3.374   4.272 -0.5242 -0.2307 -0.3290
 4130TIP3    H112396   6.208   3.332   4.189 -1.7653 -0.8810 -0.3284
 4130TIP3    H212397   6.257   3.349   4.331  0.5554  0.5261 -1.2735
 4131TIP3   OH212398   1.370   2.294   3.999 -0.3229 -0.4071 -0.7903
 4131TIP3    H112399   1.290   2.312   4.049 -0.9878 -1.9777 -1.2709
 4131TIP3    H212400   1.368   2.358   3.927  0.1811  1.2603  0.6548
 4132TIP3   OH212401   0.496   2.368   4.904  0.5623  0.1647  0.1363
 4132TIP3    H112402   0.442   2.429   4.954 -1.1965 -1.2902  0.0947
 4132TIP3    H212403   0.440   2.342   4.830  1.3744 -1.2359 -0.0085
 4133TIP3   OH212404   3.931   1.039   1.912 -0.1303  0.2989  0.0333
 4133TIP3    H112405   3.954   1.087   1.832 -0.1408 -1.5554 -1.1047
 4133TIP3    H212406   3.908   0.951   1.882 -0.7723 -0.2442  2.0166
 4134TIP3   OH212407   5.669   4.971   1.391  0.6522  0.1483  0.1737
 4134TIP3    H112408   5.745   4.956   1.336  0.2253  1.3064 -0.7422
 4134TIP3    H212409   5.685   5.056   1.432 -1.1627  1.4762 -1.7800
 4135TIP3   OH212410   5.858   2.969   4.928  0.0038 -0.1433 -0.2940
 4135TIP3    H112411   5.818   2.930   4.850 -0.3734 -1.0619  0.3443
 4135TIP3    H212412   5.786   3.017   4.969  0.3363  0.7850 -0.7943
 4136TIP3   OH212413   0.833   3.569   0.796  0.7488 -0.2278  0.1081
 4136TIP3    H112414   0.855   3.514   0.721 -0.9260 -0.5766 -0.1323
 4136TIP3    H212415   0.822   3.507   0.868 -2.2495 -0.3595 -0.4091
 4137TIP3   OH212416   4.969   2.191   4.482 -0.4537  0.4753  0.1160
 4137TIP3    H112417   5.015   2.107   4.476 -1.5325 -0.0724 -0.8772
 4137TIP3    H212418   4.938   2.195   4.572  2.8591  1.5909  1.2452
 4138TIP3   OH212419   2.986   5.840   4.960 -0.3533  0.2785 -0.0426
 4138TIP3    H112420   3.054   5.900   4.930  0.8386 -1.5064 -0.9819
 4138TIP3    H212421   2.980   5.774   4.892 -1.3993 -0.8696  1.1304
 4139TIP3   OH212422   1.161   3.639   4.986 -0.0770 -0.6126  0.4554
 4139TIP3    H112423   1.246   3.597   4.977 -0.2144 -0.9473  0.7399
 4139TIP3    H212424   1.103   3.590   4.928  0.4346  1.0287 -1.5152
 4140TIP3   OH212425   0.097   1.095   5.222 -0.3814  0.0446 -0.1511
 4140TIP3    H112426   0.169   1.037   5.247 -0.7436 -0.4886 -0.3328
 4140TIP3    H212427   0.059   1.123   5.306  0.3719  0.7580 -0.0431
 4141TIP3   OH212428   2.552   5.293   0.681 -0.3877 -0.2615 -0.2687
 4141TIP3    H112429   2.619   5.295   0.749  0.5040 -0.9769 -1.1058
 4141TIP3    H212430   2.510   5.207   0.691 -0.4407 -0.2554 -0.4406
 4142TIP3   OH212431   4.395   3.603   0.071 -0.3363  0.3095  0.1397
 4142TIP3    H112432   4.437   3.559  -0.003 -0.1725  0.9413 -0.1475
 4142TIP3    H212433   4.463   3.608   0.138 -0.4443 -0.1420  0.2823
 4143TIP3   OH212434   1.460   2.084   4.374 -0.5863  0.4348  0.1285
 4143TIP3    H112435   1.414   2.164   4.397 -0.4382  0.4788  0.2753
 4143TIP3    H212436   1.391   2.022   4.351 -0.7523  0.3419  0.8464
 4144TIP3   OH212437   0.976   0.746   4.547  0.5425  0.2208 -0.0313
 4144TIP3    H112438   0.926   0.677   4.592  0.7268  0.3449  0.3702
 4144TIP3    H212439   1.067   0.721   4.558  0.5787  0.1450 -0.5178
 4145TIP3   OH212440   2.389   4.728   0.976  0.1501  0.6813  0.3130
 4145TIP3    H112441   2.305   4.764   1.007 -0.3649  3.2492 -3.7882
 4145TIP3    H212442   2.364   4.648   0.928  0.4894 -0.6173  2.2276
 4146TIP3   OH212443   5.045   1.984   4.758  0.0537 -0.1964  0.2669
 4146TIP3    H112444   5.081   2.014   4.842 -0.6687  1.4903  0.0093
 4146TIP3    H212445   5.112   2.006   4.694  0.3309 -0.8880  0.3201
 4147TIP3   OH212446   3.740   4.788   4.294  0.2448 -0.3954 -0.0764
 4147TIP3    H112447   3.812   4.768   4.353 -1.5743 -2.3128  1.5768
 4147TIP3    H212448   3.688   4.708   4.292 -1.2800  0.6026 -2.0643
 4148TIP3   OH212449   3.995   4.955   1.582  0.1027 -0.0264  0.0346
 4148TIP3    H112450   4.048   5.015   1.636 -0.4679  0.7653 -0.2768
 4148TIP3    H212451   3.966   4.888   1.643 -2.1725  1.9214  1.1885
 4149TIP3   OH212452   0.251   1.248   3.910  0.4785  0.1349  0.6937
 4149TIP3    H112453   0.261   1.270   3.818 -1.5887 -0.6783  0.2652
 4149TIP3    H212454   0.294   1.163   3.919 -0.7200 -0.5381  0.1334
 4150TIP3   OH212455   4.677   5.402   1.418  0.1670 -0.4554 -0.0877
 4150TIP3    H112456   4.586   5.400   1.388 -0.0517  0.9444  0.4447
 4150TIP3    H212457   4.729   5.409   1.337 -0.2469 -0.1281 -0.3253
 4151TIP3   OH212458   2.720   3.631   1.008  0.0896 -0.1408  0.0195
 4151TIP3    H112459   2.707   3.613   0.915  1.8307  0.4288 -0.3645
 4151TIP3    H212460   2.741   3.546   1.046 -0.1935 -0.3052 -0.1883
 4152TIP3   OH212461   1.124   5.695   0.362 -0.2319  0.9699 -0.1845
 4152TIP3    H112462   1.190   5.764   0.356  0.8943 -0.1946 -1.9400
 4152TIP3    H212463   1.175   5.614   0.368 -1.5176  0.1979  0.3422
 4153TIP3   OH212464   6.477   1.003   2.788 -0.0385 -0.1642 -0.5421
 4153TIP3    H112465   6.531   1.081   2.804  1.5973 -1.2409 -0.6780
 4153TIP3    H212466   6.488   0.987   2.694 -2.4049  0.8978 -1.0338
 4154TIP3   OH212467   0.887   3.187   3.093 -0.3127  0.2840 -0.1186
 4154TIP3    H112468   0.945   3.245   3.044 -2.0215  1.0886 -1.2331
 4154TIP3    H212469   0.884   3.225   3.181  2.1802 -0.7511  0.4335
 4155TIP3   OH212470   0.898   1.811   4.162 -0.1898 -0.0005  0.4773
 4155TIP3    H112471   0.849   1.740   4.120  0.5990 -0.9999  1.2306
 4155TIP3    H212472   0.956   1.767   4.223 -0.2128  1.3545  1.4908
 4156TIP3   OH212473   1.252   0.630   4.527 -0.5464 -0.5267 -0.9302
 4156TIP3    H112474   1.193   0.598   4.596  0.5681 -3.1047 -1.0914
 4156TIP3    H212475   1.334   0.582   4.542  0.8707  1.5323 -1.9018
 4157TIP3   OH212476   0.575   2.140   5.024 -0.3513 -0.1780 -0.1372
 4157TIP3    H112477   0.538   2.213   4.973  1.3230 -0.7993 -2.3382
 4157TIP3    H212478   0.638   2.182   5.082 -0.1779  0.2647 -0.6333
 4158TIP3   OH212479   2.357   1.792   4.641 -0.0186  0.4160  0.1715
 4158TIP3    H112480   2.346   1.702   4.610 -0.0209 -0.2056  1.9671
 4158TIP3    H212481   2.452   1.803   4.650 -0.0785  0.2492  0.9848
 4159TIP3   OH212482   5.503   0.873   1.410  0.0504 -0.4009 -0.4321
 4159TIP3    H112483   5.577   0.934   1.404 -0.2384  0.1612  1.6313
 4159TIP3    H212484   5.464   0.890   1.495 -0.8730 -2.5352 -0.3975
 4160TIP3   OH212485   0.819   4.721   3.155  0.1420 -0.3342  0.1154
 4160TIP3    H112486   0.725   4.732   3.171  0.1864  0.2509 -0.0232
 4160TIP3    H212487   0.825   4.645   3.097 -0.3855  0.8313 -1.5134
 4161TIP3   OH212488   6.074   1.066   2.308  0.2067 -0.4257 -0.0430
 4161TIP3    H112489   6.111   1.153   2.326  0.3450 -0.1114 -1.7772
 4161TIP3    H212490   6.049   1.069   2.216 -1.0729 -1.7717  0.2458
 4162TIP3   OH212491   2.305   3.812   4.305 -0.2674  0.1449  0.2979
 4162TIP3    H112492   2.325   3.833   4.214 -0.2112 -0.2592  0.2179
 4162TIP3    H212493   2.306   3.897   4.350  0.6904  0.2308  0.1144
 4163TIP3   OH212494   4.654   2.873   5.108 -0.3918  0.1308 -0.3827
 4163TIP3    H112495   4.666   2.918   5.191  1.7539  0.8264 -1.0401
 4163TIP3    H212496   4.699   2.928   5.043 -1.0734 -0.9543 -1.8244
 4164TIP3   OH212497   0.021   2.943   4.885  0.1255  0.0948 -0.0303
 4164TIP3    H112498   0.081   2.892   4.830  1.0716  0.4055  0.7126
 4164TIP3    H212499  -0.046   2.880   4.911  0.3129 -0.3363 -0.5726
 4165TIP3   OH212500   3.859   5.898   0.771 -0.3238  0.0208  0.4038
 4165TIP3    H112501   3.905   5.902   0.855  0.7315  0.1375 -0.1650
 4165TIP3    H212502   3.856   5.989   0.741  1.6917 -0.3185 -0.9242
 4166TIP3   OH212503   1.485   4.451   3.684 -0.0219 -0.5367 -0.2403
 4166TIP3    H112504   1.551   4.399   3.638 -0.7585 -1.3201 -0.4159
 4166TIP3    H212505   1.523   4.539   3.688  1.6169 -1.2683  0.8267
 4167TIP3   OH212506   4.684   4.892   1.830 -0.3473 -0.0019  0.0986
 4167TIP3    H112507   4.768   4.935   1.815 -1.2422  2.0606  0.8195
 4167TIP3    H212508   4.701   4.833   1.904  0.5929  0.0162 -0.0875
 4168TIP3   OH212509  -0.034   3.245   2.889  0.2797 -0.1711  0.6319
 4168TIP3    H112510   0.015   3.289   2.820  1.6736 -2.2815  0.2272
 4168TIP3    H212511   0.029   3.236   2.961  0.4790 -2.6739  0.2007
 4169TIP3   OH212512   0.199   1.542   0.130  1.1217  0.2128 -0.2984
 4169TIP3    H112513   0.280   1.492   0.116  1.3839  0.3386  0.7286
 4169TIP3    H212514   0.136   1.501   0.072  1.3825 -1.2256  0.3995
 4170TIP3   OH212515   3.034   4.062   4.252  0.0330 -0.9834  0.5136
 4170TIP3    H112516   2.982   4.026   4.324 -0.0203 -2.7732 -0.4000
 4170TIP3    H212517   3.070   4.143   4.288 -0.6600 -1.4254  2.2904
 4171TIP3   OH212518   1.276   2.376   2.595 -0.1456 -0.3780  0.1248
 4171TIP3    H112519   1.275   2.281   2.607 -1.9672 -0.1876  1.8341
 4171TIP3    H212520   1.345   2.408   2.654  0.3584 -0.6183 -0.3333
 4172TIP3   OH212521   1.522   4.221   4.528  0.5760  0.2079 -0.3927
 4172TIP3    H112522   1.497   4.256   4.614 -0.0003  0.5206 -0.6892
 4172TIP3    H212523   1.444   4.232   4.474  0.6169 -0.9267 -0.6787
 4173TIP3   OH212524   1.047   4.478   3.391 -0.3979 -0.2902  0.2984
 4173TIP3    H112525   1.077   4.520   3.311 -1.8078  0.4063  0.1160
 4173TIP3    H212526   1.121   4.484   3.451 -0.0427  1.0625 -0.2616
 4174TIP3   OH212527   5.822   1.613   2.199  0.5351 -0.2458  0.2741
 4174TIP3    H112528   5.748   1.573   2.246  0.3618  1.4927  1.5335
 4174TIP3    H212529   5.815   1.578   2.110 -2.7810  1.1141 -0.0712
 4175TIP3   OH212530   1.307   0.873   3.652  0.3808  0.6461 -0.3820
 4175TIP3    H112531   1.346   0.786   3.655  1.4754  1.1880  1.9246
 4175TIP3    H212532   1.238   0.866   3.586  0.9624 -1.7454 -0.7761
 4176TIP3   OH212533   6.478   0.963   2.202 -0.1689  0.0127 -0.6703
 4176TIP3    H112534   6.415   0.938   2.270  1.0669  1.8129  1.1937
 4176TIP3    H212535   6.430   1.025   2.147 -0.4080  0.4383  0.0143
 4177TIP3   OH212536   3.963   5.192   0.960 -0.1547  0.0999 -0.7630
 4177TIP3    H112537   3.989   5.284   0.955 -0.3780  0.2696  1.0582
 4177TIP3    H212538   4.032   5.149   1.010 -2.9674  0.4647  3.7047
 4178TIP3   OH212539   5.655   1.462   2.547  0.0617 -0.6856 -0.1693
 4178TIP3    H112540   5.654   1.376   2.588  0.0546 -0.5740  0.0669
 4178TIP3    H212541   5.654   1.444   2.453  0.7236 -0.9553 -0.1282
 4179TIP3   OH212542   0.177   2.571   4.265 -0.1762 -0.0411 -0.2083
 4179TIP3    H112543   0.092   2.534   4.284  0.0795 -0.3214  0.3956
 4179TIP3    H212544   0.171   2.599   4.174 -0.5852 -0.9543 -0.4665
 4180TIP3   OH212545   2.426   3.165   4.155 -0.0548 -0.0282 -0.0066
 4180TIP3    H112546   2.472   3.226   4.213 -0.4741  0.7219 -0.4493
 4180TIP3    H212547   2.334   3.188   4.165 -0.2065 -0.5136 -0.2727
 4181TIP3   OH212548   0.426   0.731   4.130 -0.2504  0.3379 -0.1405
 4181TIP3    H112549   0.356   0.687   4.082  1.9653 -0.9730 -2.2713
 4181TIP3    H212550   0.419   0.696   4.219 -2.1768  0.1046 -0.3597
 4182TIP3   OH212551   1.293   3.359   3.499  0.6192 -0.1058  0.2592
 4182TIP3    H112552   1.239   3.410   3.438  0.5063  0.4216  0.7949
 4182TIP3    H212553   1.376   3.347   3.452 -0.4368 -2.1346 -1.1397
 4183TIP3   OH212554   1.345   5.528   0.342 -0.4688 -0.4842  0.0362
 4183TIP3    H112555   1.412   5.591   0.315  0.3775 -1.6869 -0.7355
 4183TIP3    H212556   1.389   5.471   0.405 -0.6471 -1.5063 -0.7509
 4184TIP3   OH212557   4.422   5.022   1.304  0.4821 -0.2320 -0.7919
 4184TIP3    H112558   4.480   5.084   1.261  1.3075  0.4792  1.3053
 4184TIP3    H212559   4.459   5.010   1.391 -0.8701 -2.0360 -0.4244
 4185TIP3   OH212560   0.536   3.389   4.095  0.3490  0.1205 -0.2308
 4185TIP3    H112561   0.472   3.395   4.024 -1.1306  1.0301  1.1699
 4185TIP3    H212562   0.585   3.471   4.090  1.7397 -0.7602 -1.5788
 4186TIP3   OH212563   0.629   1.145   4.367 -0.4130 -0.2912  0.0734
 4186TIP3    H112564   0.699   1.146   4.302  0.4115 -0.9291  0.9470
 4186TIP3    H212565   0.668   1.105   4.445 -1.1139  1.3329  1.2909
 4187TIP3   OH212566   0.345   2.029   3.801  0.3685  0.2266  0.1837
 4187TIP3    H112567   0.327   2.030   3.895  0.6030 -1.2814  0.2648
 4187TIP3    H212568   0.440   2.026   3.795  0.3304 -0.5960 -0.0781
 4188TIP3   OH212569   1.685   4.941   3.439  0.0159  0.8238 -0.5373
 4188TIP3    H112570   1.701   4.985   3.355  0.2153 -0.5546 -1.2492
 4188TIP3    H212571   1.597   4.967   3.464  0.2690  1.9073 -0.7658
 4189TIP3   OH212572   1.489   2.283   4.932  0.9923 -0.6303  0.1188
 4189TIP3    H112573   1.580   2.286   4.903  0.9025 -1.7027 -0.3054
 4189TIP3    H212574   1.494   2.273   5.027  1.3083 -0.0396  0.1662
 4190TIP3   OH212575   0.372   2.791   4.413 -0.2202  0.2128 -0.3814
 4190TIP3    H112576   0.340   2.880   4.423  1.0276  0.7236 -0.8447
 4190TIP3    H212577   0.390   2.782   4.319 -0.0408 -0.4148 -0.2903
 4191TIP3   OH212578   5.174   0.939   1.936  0.9771  0.2140 -0.1128
 4191TIP3    H112579   5.138   0.870   1.881  1.2378 -0.4927  0.5839
 4191TIP3    H212580   5.205   0.893   2.014  1.6847  1.0449  0.1032
 4192TIP3   OH212581   5.657   0.665   1.798  0.0073 -0.6261 -0.0124
 4192TIP3    H112582   5.580   0.699   1.844  0.9365 -3.5809  3.9961
 4192TIP3    H212583   5.622   0.596   1.741 -0.4758 -1.3195  1.0963
 4193TIP3   OH212584   0.799   2.534   3.458  0.5732  0.0937 -0.1683
 4193TIP3    H112585   0.734   2.465   3.464  0.2065  0.4499  0.0151
 4193TIP3    H212586   0.751   2.609   3.423  0.5417  0.7768  1.2989
 4194TIP3   OH212587   1.355   4.525   5.005  0.1001  0.1274 -0.1930
 4194TIP3    H112588   1.300   4.455   5.039  0.2798  0.3497  0.5693
 4194TIP3    H212589   1.398   4.486   4.929  0.6517 -0.7963  0.5643
 4195TIP3   OH212590   2.756   3.039   4.342  0.0388 -0.1035  0.1116
 4195TIP3    H112591   2.680   2.981   4.350  0.2040 -0.1308  1.4956
 4195TIP3    H212592   2.752   3.094   4.420  0.3732  1.1742 -0.7596
 4196TIP3   OH212593   4.114   0.212   1.579 -0.1268  0.4118 -0.1040
 4196TIP3    H112594   4.182   0.269   1.615 -0.8162  0.6371  0.8672
 4196TIP3    H212595   4.127   0.214   1.484 -0.1961  2.2363 -0.0802
 4197TIP3   OH212596   2.547   4.965   4.005  0.5460 -0.2838  0.2135
 4197TIP3    H112597   2.630   4.977   3.958  0.3545  0.1045 -0.0260
 4197TIP3    H212598   2.516   4.878   3.976  0.1863  0.1603 -0.7711
 4198TIP3   OH212599   1.150   2.446   4.405 -0.2190  0.0353 -0.1918
 4198TIP3    H112600   1.140   2.444   4.310  2.4453  0.4373 -0.5315
 4198TIP3    H212601   1.063   2.467   4.438 -1.3913 -1.0209 -2.4867
 4199TIP3   OH212602   2.575   3.786   5.283 -0.4100  0.4121 -0.6141
 4199TIP3    H112603   2.482   3.781   5.303 -0.4499  0.2390 -0.8440
 4199TIP3    H212604   2.612   3.705   5.319 -0.0175  1.3555  1.2193
 4200TIP3   OH212605   3.884   4.954   0.335  0.5744  0.3228  0.0656
 4200TIP3    H112606   3.951   5.014   0.370  0.0248  0.5350  0.7654
 4200TIP3    H212607   3.806   4.972   0.387  0.3513 -0.8959  0.1681
 4201TIP3   OH212608   3.908   4.165   0.697  0.3918  0.5113 -0.5535
 4201TIP3    H112609   3.990   4.152   0.746  0.4058  0.1408 -0.6763
 4201TIP3    H212610   3.908   4.097   0.630 -1.0479 -0.8879  0.8174
 4202TIP3   OH212611   5.398   2.654   4.219  0.0609  0.1317 -0.2824
 4202TIP3    H112612   5.375   2.724   4.281 -0.6505  1.1716 -1.6894
 4202TIP3    H212613   5.340   2.669   4.144  0.1398 -1.7854 -0.7341
 4203TIP3   OH212614   1.039   4.070   4.615  0.1490 -0.4695  0.3238
 4203TIP3    H112615   1.088   4.007   4.667 -0.3497  0.5394  2.0863
 4203TIP3    H212616   1.018   4.140   4.677  0.2948  1.1951 -1.4632
 4204TIP3   OH212617   3.813   5.798   0.071 -0.0648  0.5101 -0.1849
 4204TIP3    H112618   3.777   5.776  -0.015 -1.2028  2.6568 -0.3002
 4204TIP3    H212619   3.905   5.820   0.053  0.1899 -0.8413 -0.5542
 4205TIP3   OH212620   1.772   2.251   5.257 -0.0444  0.5243 -0.0615
 4205TIP3    H112621   1.682   2.233   5.230 -0.2407  1.5210 -0.1233
 4205TIP3    H212622   1.789   2.339   5.223  0.2457  1.1710  1.7076
 4206TIP3   OH212623   2.517   2.935   2.956 -0.2627 -0.2168  0.1843
 4206TIP3    H112624   2.574   2.873   2.909  0.1005 -0.5668  1.0844
 4206TIP3    H212625   2.572   2.969   3.027  0.0211  2.2395 -1.1392
 4207TIP3   OH212626   3.467   0.241   4.826  0.4813 -0.2688 -0.2674
 4207TIP3    H112627   3.470   0.271   4.917 -1.2721 -0.2254 -0.2077
 4207TIP3    H212628   3.475   0.146   4.832  0.1606 -0.2821 -0.0539
 4208TIP3   OH212629   6.427   2.709   1.674 -0.0948  0.4386  0.2944
 4208TIP3    H112630   6.338   2.704   1.640  0.1374  1.7267 -0.5259
 4208TIP3    H212631   6.480   2.664   1.609 -0.2624 -1.3222  1.3242
 4209TIP3   OH212632   6.363   2.393   4.175 -0.2444 -0.1955 -0.0634
 4209TIP3    H112633   6.404   2.448   4.242 -0.6475  0.0041  0.0260
 4209TIP3    H212634   6.316   2.455   4.119 -2.6580 -0.6286  1.4084
 4210TIP3   OH212635   0.219   1.114   2.412  0.3797  0.2258 -0.0507
 4210TIP3    H112636   0.184   1.041   2.463  1.2327  1.2091  1.9853
 4210TIP3    H212637   0.284   1.074   2.354 -2.3955 -1.2758 -2.2303
 4211TIP3   OH212638   2.334   2.215   4.593  0.1939  0.4096  0.6586
 4211TIP3    H112639   2.273   2.148   4.624 -1.2575  2.2340  1.7952
 4211TIP3    H212640   2.386   2.170   4.526 -0.9306 -1.7747  1.1983
 4212TIP3   OH212641   3.536   4.611   4.194 -0.0883  0.2977  0.2839
 4212TIP3    H112642   3.490   4.658   4.124 -0.6167 -1.1088 -0.3329
 4212TIP3    H212643   3.565   4.530   4.153  0.4440 -0.1121  1.4522
 4213TIP3   OH212644   4.468   2.818   0.519 -0.2931  0.3120  0.0067
 4213TIP3    H112645   4.427   2.775   0.594 -0.2131  0.3039  0.0456
 4213TIP3    H212646   4.396   2.830   0.456 -0.2525 -0.1732 -0.1399
 4214TIP3   OH212647   4.369   0.074   0.560  0.8915 -0.3607  0.1487
 4214TIP3    H112648   4.356   0.090   0.654 -0.1296 -0.5548  0.0431
 4214TIP3    H212649   4.445   0.127   0.538  2.7640 -2.3679  1.6409
 4215TIP3   OH212650   3.111   5.859   2.128  0.5160  0.2003  0.0543
 4215TIP3    H112651   3.163   5.812   2.193 -0.5386 -0.9661  0.0765
 4215TIP3    H212652   3.051   5.914   2.180  0.1395 -0.2158  0.0613
 4216TIP3   OH212653   3.304   3.826   3.878 -0.2166 -0.1847 -0.3282
 4216TIP3    H112654   3.292   3.909   3.923  1.0661  0.3169 -0.8765
 4216TIP3    H212655   3.227   3.774   3.901 -0.3852  0.6694  1.0764
 4217TIP3   OH212656   3.614   4.572   2.860  0.0343  0.8103 -0.1973
 4217TIP3    H112657   3.533   4.604   2.820 -1.6580  0.0659  2.4760
 4217TIP3    H212658   3.637   4.639   2.925  0.5053  0.1032  0.3755
 4218TIP3   OH212659   5.016   5.323   0.366 -0.2915  0.5040 -0.1993
 4218TIP3    H112660   5.109   5.323   0.389  0.3648  1.4248 -2.6542
 4218TIP3    H212661   5.012   5.279   0.281 -2.2634 -0.5579  0.4155
 4219TIP3   OH212662   2.391   2.510   4.449  0.0417 -0.5185 -0.3007
 4219TIP3    H112663   2.453   2.442   4.479  0.0899 -0.3556 -0.0242
 4219TIP3    H212664   2.409   2.520   4.356  2.2821  1.4293  0.2941
 4220TIP3   OH212665   3.226   1.445   5.092 -0.0524  0.0182 -0.1610
 4220TIP3    H112666   3.320   1.449   5.111 -0.3102 -0.9435  1.3458
 4220TIP3    H212667   3.221   1.453   4.996  1.6315 -1.0725 -0.3556
 4221TIP3   OH212668   0.380   3.333   3.857 -0.5064  0.4766 -0.3148
 4221TIP3    H112669   0.389   3.248   3.814 -0.0825 -0.4993  1.6756
 4221TIP3    H212670   0.286   3.353   3.852 -0.8546 -0.8864  0.6669
 4222TIP3   OH212671   2.242   5.442   1.099  0.3764  0.4323  0.4400
 4222TIP3    H112672   2.165   5.488   1.066  1.5434  1.4270 -0.9307
 4222TIP3    H212673   2.250   5.469   1.190 -0.3150  1.0894  0.3054
 4223TIP3   OH212674   6.089   2.587   5.152  0.1835 -0.6004  0.0021
 4223TIP3    H112675   6.155   2.517   5.148  0.6800 -0.1195 -0.3659
 4223TIP3    H212676   6.007   2.541   5.169  0.1394 -1.4976 -2.4208
 4224TIP3   OH212677   3.756   3.139   4.446 -0.2515 -0.5883  0.3304
 4224TIP3    H112678   3.697   3.128   4.521  1.5495 -1.1368  1.7062
 4224TIP3    H212679   3.770   3.233   4.440 -0.5062 -0.5312  0.5908
 4225TIP3   OH212680   0.899   5.264   4.678  0.6218 -0.7132 -0.3477
 4225TIP3    H112681   0.871   5.348   4.643  1.6013 -0.0177  0.5223
 4225TIP3    H212682   0.870   5.200   4.613  0.3507  0.3370 -1.2656
 4226TIP3   OH212683   2.424   2.870   4.159  0.1478  0.1237 -0.2592
 4226TIP3    H112684   2.385   2.837   4.078  0.6277  0.9783 -0.8455
 4226TIP3    H212685   2.382   2.955   4.173  1.7999  1.0523 -0.9021
 4227TIP3   OH212686   3.835   3.930   4.864  0.1300 -0.3497 -0.1503
 4227TIP3    H112687   3.853   3.949   4.772  0.8456  0.0623  0.0695
 4227TIP3    H212688   3.775   3.855   4.862 -0.1351 -0.1231 -0.9561
 4228TIP3   OH212689   0.861   1.274   3.503 -0.6967  0.0387 -0.6069
 4228TIP3    H112690   0.893   1.288   3.414  0.6272 -3.1062 -0.7017
 4228TIP3    H212691   0.918   1.326   3.558  1.6942 -1.8742 -1.2055
 4229TIP3   OH212692   6.436   0.963   1.266 -0.1840  0.0031 -0.2605
 4229TIP3    H112693   6.379   0.959   1.343 -1.8669 -1.7891 -1.5232
 4229TIP3    H212694   6.406   1.040   1.218  0.4378  0.7581  0.5748
 4230TIP3   OH212695   1.557   1.051   4.844 -0.5455  0.7043  0.2338
 4230TIP3    H112696   1.531   1.081   4.931 -1.4193 -0.1786  0.2864
 4230TIP3    H212697   1.628   0.990   4.860 -1.3727 -0.2286  0.4136
 4231TIP3   OH212698   2.826   5.669   1.981 -0.7260 -0.0993  0.8659
 4231TIP3    H112699   2.837   5.760   2.009 -1.6777 -0.0705  1.1853
 4231TIP3    H212700   2.790   5.675   1.893 -0.1902 -0.1749  0.6398
 4232TIP3   OH212701   1.534   4.286   1.278 -0.8847 -0.1092  0.1808
 4232TIP3    H112702   1.531   4.196   1.310 -0.8825  0.3070  1.3506
 4232TIP3    H212703   1.503   4.280   1.187  0.1713 -1.4440 -0.1121
 4233TIP3   OH212704   2.647   4.030   0.638 -0.1568  0.7890 -0.2543
 4233TIP3    H112705   2.686   4.026   0.725 -0.4637  0.3811 -0.1339
 4233TIP3    H212706   2.562   3.986   0.647  0.1708 -0.0282 -0.9491
 4234TIP3   OH212707   2.308   1.807   3.176  0.3703 -0.5272 -0.0451
 4234TIP3    H112708   2.258   1.789   3.096  0.6099  1.1241 -0.5773
 4234TIP3    H212709   2.327   1.720   3.211 -0.6364 -1.2543 -1.2203
 4235TIP3   OH212710   3.670   5.150   0.254 -0.3754  0.1506  0.7382
 4235TIP3    H112711   3.599   5.089   0.272 -1.6552  1.1416 -0.7531
 4235TIP3    H212712   3.681   5.147   0.159 -0.4638  2.2019  0.6325
 4236TIP3   OH212713   1.358   2.171   4.687 -0.2176 -0.0454 -0.7904
 4236TIP3    H112714   1.358   2.226   4.609 -0.6120 -1.6193 -1.9414
 4236TIP3    H212715   1.391   2.227   4.757  1.8528  0.8793 -2.4655
 4237TIP3   OH212716   5.952   0.043   0.689  0.1810 -0.4823 -1.0811
 4237TIP3    H112717   5.878   0.085   0.733  0.8802 -0.4472  0.0866
 4237TIP3    H212718   5.929   0.047   0.596  0.3234  2.6942 -1.0533
 4238TIP3   OH212719   1.654   4.900   2.449 -0.0662 -0.1515 -0.9148
 4238TIP3    H112720   1.641   4.931   2.359  0.2588  1.5268 -0.3890
 4238TIP3    H212721   1.597   4.955   2.502  0.1473 -0.7787 -0.0289
 4239TIP3   OH212722   4.603   2.373   3.005  0.1608  0.1301  0.2418
 4239TIP3    H112723   4.617   2.461   3.040  1.4047 -0.2644  0.7920
 4239TIP3    H212724   4.661   2.318   3.058  1.3176 -0.6310 -1.7632
 4240TIP3   OH212725   5.939   6.028   3.922 -0.2074 -0.2118 -0.1334
 4240TIP3    H112726   5.914   5.958   3.981 -2.1532 -0.7452 -1.5303
 4240TIP3    H212727   5.888   6.104   3.952  1.7492  0.5991  1.2582
 4241TIP3   OH212728   0.778   4.098   4.323  0.0444 -0.2710 -0.1608
 4241TIP3    H112729   0.849   4.089   4.386 -0.7080 -2.5076  0.4243
 4241TIP3    H212730   0.790   4.025   4.262 -1.4941 -0.4296 -0.3044
 4242TIP3   OH212731   6.184   5.735   4.595 -0.4368 -0.4381  0.1702
 4242TIP3    H112732   6.258   5.721   4.655 -1.0422 -0.8396  0.8199
 4242TIP3    H212733   6.213   5.696   4.513  0.4282  0.1797  0.1723
 4243TIP3   OH212734   6.289   3.078   3.755  0.2616 -0.4111 -0.1375
 4243TIP3    H112735   6.227   3.010   3.727 -0.7460  0.8236 -0.9616
 4243TIP3    H212736   6.358   3.076   3.689  1.1847 -1.8805  0.8541
 4244TIP3   OH212737   0.732   2.230   5.219 -0.3810 -0.5028  0.3411
 4244TIP3    H112738   0.733   2.156   5.279 -0.4227  0.1362  1.1408
 4244TIP3    H212739   0.706   2.305   5.274 -0.6400  0.0427 -0.5168
 4245TIP3   OH212740   1.593   6.031   0.613  0.0555  0.0171 -0.0918
 4245TIP3    H112741   1.578   5.938   0.630 -1.3743 -0.4643 -3.5343
 4245TIP3    H212742   1.508   6.063   0.581  0.7564  2.3388  0.2920
 4246TIP3   OH212743   5.402   2.760   4.924  0.3433  0.1439 -0.0549
 4246TIP3    H112744   5.364   2.741   5.010 -0.6245 -0.8781 -0.6831
 4246TIP3    H212745   5.495   2.740   4.934  0.1023 -0.7249  0.5391
 4247TIP3   OH212746   1.183   2.622   4.619  0.0791  0.0340 -0.0466
 4247TIP3    H112747   1.198   2.592   4.529  2.2108 -0.1014  0.3313
 4247TIP3    H212748   1.131   2.702   4.609 -0.1016 -0.2343 -1.3569
 4248TIP3   OH212749   0.605   4.394   4.599  0.4883 -0.6509 -0.0273
 4248TIP3    H112750   0.613   4.363   4.689 -0.8840 -0.7855  0.0527
 4248TIP3    H212751   0.511   4.400   4.583  0.7137  0.6620 -1.0138
 4249TIP3   OH212752   1.605   2.988   3.796  0.0536 -0.5678  0.1093
 4249TIP3    H112753   1.570   2.977   3.885  1.2279 -0.7857  0.5479
 4249TIP3    H212754   1.580   2.908   3.751 -1.6263  0.0643 -0.1382
 4250TIP3   OH212755   0.994   3.269   3.740  0.4456 -0.0489 -0.4065
 4250TIP3    H112756   1.034   3.208   3.679  1.7692  1.5646 -1.1959
 4250TIP3    H212757   1.007   3.229   3.826 -1.2864 -2.2655 -1.1233
 4251TIP3   OH212758   2.081   3.261   2.970  0.4340 -0.8104 -0.1059
 4251TIP3    H112759   2.124   3.188   3.015  0.4838 -0.0308  1.1250
 4251TIP3    H212760   2.137   3.336   2.988 -0.8837  0.0109  0.6191
 4252TIP3   OH212761   6.440   2.953   4.387 -0.0001  0.1999 -0.3313
 4252TIP3    H112762   6.482   2.886   4.440  0.7605 -0.6464 -1.9877
 4252TIP3    H212763   6.492   2.958   4.307 -0.4471  2.2785 -0.5382
 4253TIP3   OH212764   4.037   1.754   0.194 -0.1846 -0.1933  0.2545
 4253TIP3    H112765   4.099   1.792   0.132  1.0005  1.3202  2.2827
 4253TIP3    H212766   4.088   1.690   0.243 -0.9972 -1.0520 -0.0019
 4254TIP3   OH212767   3.697   5.440   0.715 -0.4190  1.4135 -0.1521
 4254TIP3    H112768   3.681   5.384   0.639  0.2214  2.0731 -0.7721
 4254TIP3    H212769   3.651   5.396   0.787 -0.1037  0.1986 -0.6777
 4255TIP3   OH212770   0.967   2.329   4.745  0.3434  0.6168  0.4537
 4255TIP3    H112771   0.907   2.275   4.796  1.0647  0.1490  0.8318
 4255TIP3    H212772   1.001   2.393   4.807  0.9611  0.2663  0.4899
 4256TIP3   OH212773   3.112   5.144   0.269  0.0268  0.1820  0.4717
 4256TIP3    H112774   3.136   5.080   0.336  0.0761 -0.3093 -0.0243
 4256TIP3    H212775   3.191   5.195   0.255  0.4063 -0.6037 -0.2206
 4257TIP3   OH212776   6.389   1.583   2.894 -0.2396  0.2351 -0.1086
 4257TIP3    H112777   6.461   1.547   2.946  0.8999  0.8341 -1.2163
 4257TIP3    H212778   6.313   1.578   2.951  0.3697 -1.7661  0.5720
 4258TIP3   OH212779   5.726   0.222   4.199 -0.1101  0.3139  0.4031
 4258TIP3    H112780   5.819   0.209   4.180 -0.1232 -0.5810  0.8859
 4258TIP3    H212781   5.684   0.231   4.114  0.3118 -0.0642  0.1550
 4259TIP3   OH212782   2.858   2.355   0.276 -0.2898  0.1113  0.2679
 4259TIP3    H112783   2.774   2.394   0.254 -1.1261 -0.8333  1.6686
 4259TIP3    H212784   2.873   2.380   0.367  0.5682 -0.3945  0.2752
 4260TIP3   OH212785   2.147   2.680   3.593  0.5274 -0.3482  0.5680
 4260TIP3    H112786   2.181   2.669   3.682 -0.0503 -1.2996  0.6746
 4260TIP3    H212787   2.071   2.622   3.589  0.0034  0.3904 -0.2551
 4261TIP3   OH212788   5.565   1.127   1.187  0.4534 -0.3388  0.1737
 4261TIP3    H112789   5.479   1.161   1.211  1.4068  0.3722  2.8639
 4261TIP3    H212790   5.604   1.197   1.134  0.5258  0.7383  1.5846
 4262TIP3   OH212791   1.516   5.276   4.941  0.0511 -0.6581  0.3696
 4262TIP3    H112792   1.530   5.334   5.017  0.3693 -0.4393  0.1455
 4262TIP3    H212793   1.525   5.334   4.866 -0.1082 -0.9098  0.1587
 4263TIP3   OH212794   3.533   3.287   4.550 -0.3506  0.1112  0.3380
 4263TIP3    H112795   3.458   3.330   4.508  0.0028  0.6835  0.2896
 4263TIP3    H212796   3.544   3.335   4.632 -0.4756 -0.4281  0.6763
 4264TIP3   OH212797   3.609   2.160   5.088  0.2497  0.0078  0.6841
 4264TIP3    H112798   3.629   2.193   5.000 -0.0435 -1.6925 -0.0607
 4264TIP3    H212799   3.537   2.098   5.074  0.1527 -0.2262  2.1425
 4265TIP3   OH212800   2.473   3.455   2.544  0.3064  0.2006  0.0280
 4265TIP3    H112801   2.401   3.399   2.573  1.4350 -0.4420  1.6399
 4265TIP3    H212802   2.535   3.395   2.502 -0.7587  0.9564 -2.7267
 4266TIP3   OH212803   5.801   4.255   4.492  0.3389  0.5257  0.1776
 4266TIP3    H112804   5.831   4.347   4.494  0.2893  0.5265  1.4808
 4266TIP3    H212805   5.867   4.208   4.544 -0.3014  0.0323  0.5479
 4267TIP3   OH212806   2.187   1.970   4.914  0.2983 -0.1142 -0.4509
 4267TIP3    H112807   2.279   1.995   4.904 -0.3360  2.6672  0.2334
 4267TIP3    H212808   2.183   1.926   5.000  0.7967  0.7010 -0.0065
 4268TIP3   OH212809   2.454   5.708   1.331 -0.3416 -0.6984 -0.0973
 4268TIP3    H112810   2.487   5.731   1.418  0.8925  0.6693 -0.9069
 4268TIP3    H212811   2.460   5.613   1.328 -0.2831 -0.7547  1.2597
 4269TIP3   OH212812   3.257   1.761   4.564  0.0891 -0.0459  0.1072
 4269TIP3    H112813   3.251   1.666   4.552  1.5560 -0.1341  0.0326
 4269TIP3    H212814   3.347   1.783   4.539 -0.0904  1.2971  0.6002
 4270TIP3   OH212815   3.307   3.763   3.523  0.0589 -0.0263  0.3740
 4270TIP3    H112816   3.280   3.803   3.605  1.5192 -0.0271  0.8565
 4270TIP3    H212817   3.365   3.691   3.548 -1.0904 -1.3219 -0.5669
 4271TIP3   OH212818   5.583   5.273   1.428  0.5562 -0.0312 -0.1854
 4271TIP3    H112819   5.633   5.309   1.355  2.0965 -1.0458  0.3562
 4271TIP3    H212820   5.495   5.308   1.416  1.3607  1.6860 -1.2120
 4272TIP3   OH212821   4.256   0.591   3.798  0.7884 -0.5132  0.4035
 4272TIP3    H112822   4.325   0.525   3.804 -1.1323 -2.5751  0.5959
 4272TIP3    H212823   4.283   0.660   3.859  1.9815 -1.9405  1.5250
 4273TIP3   OH212824   2.956   4.160   5.028 -0.5195 -0.1028 -0.0911
 4273TIP3    H112825   3.014   4.093   4.991 -1.1976 -0.3954 -0.6242
 4273TIP3    H212826   3.001   4.242   5.010  1.2473 -0.5025  2.2162
 4274TIP3   OH212827   2.792   1.752   4.595 -0.2467 -0.2991  0.0193
 4274TIP3    H112828   2.859   1.778   4.533  0.4970 -1.8370  0.1491
 4274TIP3    H212829   2.718   1.725   4.541 -1.5202  3.2692 -0.0984
 4275TIP3   OH212830   3.900   2.478   3.322 -0.0784 -0.6705  0.1661
 4275TIP3    H112831   3.816   2.437   3.301 -0.5251  0.8988 -1.1793
 4275TIP3    H212832   3.881   2.571   3.327  1.4713 -0.3523  0.4092
 4276TIP3   OH212833   0.770   3.007   3.541  0.3592  0.4940  1.2660
 4276TIP3    H112834   0.853   2.999   3.493 -0.7333  0.4332 -0.6625
 4276TIP3    H212835   0.708   2.956   3.490 -0.9598  0.8210  2.5136
 4277TIP3   OH212836   5.108   5.765   0.013  0.0665  0.0476  0.5534
 4277TIP3    H112837   5.117   5.851   0.055  2.9296 -0.0303  0.2182
 4277TIP3    H212838   5.034   5.775  -0.046 -0.7367  1.7541  1.8011
 4278TIP3   OH212839   4.347   0.238   4.110 -0.2519  0.2170  0.3544
 4278TIP3    H112840   4.339   0.250   4.205  2.3637 -0.6047  0.6992
 4278TIP3    H212841   4.353   0.327   4.075 -1.0452  0.5167  0.9749
 4279TIP3   OH212842   4.735   4.917   0.458  0.0016  0.1660 -0.0915
 4279TIP3    H112843   4.651   4.897   0.416  0.3483  1.3016 -1.3513
 4279TIP3    H212844   4.727   5.009   0.483  0.6654  0.1175  0.2969
 4280TIP3   OH212845   5.224   5.200   0.836  0.7023  0.5688  0.0605
 4280TIP3    H112846   5.147   5.166   0.789  2.1084  0.4567 -2.2463
 4280TIP3    H212847   5.268   5.122   0.868 -0.3592  0.6542  1.7593
 4281TIP3   OH212848   5.876   4.919   1.214  0.0767 -0.3481 -0.5633
 4281TIP3    H112849   5.907   4.880   1.133 -0.0925 -1.7487  0.0298
 4281TIP3    H212850   5.939   4.890   1.280 -1.5268 -1.8516  0.3564
 4282TIP3   OH212851   1.701   3.203   2.230 -0.1324 -0.4918  0.0381
 4282TIP3    H112852   1.773   3.150   2.195 -0.8269 -1.4718  0.0937
 4282TIP3    H212853   1.626   3.182   2.174 -0.3505  0.6516 -0.1192
 4283TIP3   OH212854   1.108   0.830   3.495 -0.2606 -0.1064 -0.2365
 4283TIP3    H112855   1.042   0.899   3.501  0.8098  0.8437  0.8509
 4283TIP3    H212856   1.063   0.758   3.451 -2.4709  0.0131  1.7118
 4284TIP3   OH212857   2.065   1.766   4.519  0.2699  0.0642  0.0248
 4284TIP3    H112858   2.100   1.719   4.444  0.4826 -0.9474  0.7472
 4284TIP3    H212859   1.976   1.791   4.493  0.5082  0.1431 -0.7324
 4285TIP3   OH212860   5.917   1.669   3.972  0.1242  0.3681  0.0669
 4285TIP3    H112861   5.955   1.581   3.981 -2.6829 -0.8706  0.4597
 4285TIP3    H212862   5.898   1.696   4.061 -0.2555  0.8137 -0.1484
 4286TIP3   OH212863   2.894   4.916   0.755  0.2195  1.0249 -0.1060
 4286TIP3    H112864   2.859   4.918   0.844 -0.1989  1.1188 -0.2750
 4286TIP3    H212865   2.926   4.826   0.744 -0.1084  0.8960 -0.0086
 4287TIP3   OH212866   3.213   3.019   2.404 -0.9197 -0.7618 -0.1829
 4287TIP3    H112867   3.199   2.958   2.477 -1.5218  0.0975  0.4170
 4287TIP3    H212868   3.308   3.030   2.401 -0.7693 -1.9962 -0.5172
 4288TIP3   OH212869   3.682   1.342   4.602 -0.0210 -0.4333 -0.2260
 4288TIP3    H112870   3.606   1.396   4.582  1.2551  1.3232 -0.3896
 4288TIP3    H212871   3.665   1.309   4.691 -0.9215  0.0157 -0.2282
 4289TIP3   OH212872   4.100   3.773   4.176  0.0663  0.4123  0.2446
 4289TIP3    H112873   4.182   3.724   4.177 -0.5873 -0.6698  0.8470
 4289TIP3    H212874   4.079   3.783   4.083 -0.5585 -1.7479  0.1211
 4290TIP3   OH212875   2.001   1.322   0.700 -0.1099  0.2056  0.1845
 4290TIP3    H112876   1.930   1.259   0.691 -0.2977  0.2755  1.1514
 4290TIP3    H212877   2.078   1.269   0.719 -0.3768  0.3072  1.5551
 4291TIP3   OH212878   4.273   3.486   3.591  0.2326 -0.0618  0.2134
 4291TIP3    H112879   4.351   3.534   3.564  1.1627 -2.6867 -1.9884
 4291TIP3    H212880   4.234   3.454   3.510 -2.4235  0.0755  1.3737
 4292TIP3   OH212881   4.421   4.979   0.968  0.1908 -0.0683 -0.9438
 4292TIP3    H112882   4.458   4.926   0.898  1.2543  1.0325 -1.2412
 4292TIP3    H212883   4.495   4.997   1.026 -1.0513 -2.5638  1.5336
 4293TIP3   OH212884   3.458   2.799   2.832 -0.0694  0.1571 -0.1898
 4293TIP3    H112885   3.525   2.761   2.775 -1.2913 -0.6655 -1.1063
 4293TIP3    H212886   3.457   2.743   2.910 -0.1136 -0.2021 -0.4476
 4294TIP3   OH212887   4.328   4.285   4.913 -0.0078  0.2542  0.5851
 4294TIP3    H112888   4.340   4.329   4.829  0.5331  0.1397  0.6036
 4294TIP3    H212889   4.253   4.329   4.953  0.8957  1.5724  0.8725
 4295TIP3   OH212890   3.891   1.917   3.689 -0.2973  0.3587 -0.3423
 4295TIP3    H112891   3.922   2.007   3.680 -0.2825  0.3751 -0.1211
 4295TIP3    H212892   3.959   1.864   3.646  0.6617  0.2898  1.2211
 4296TIP3   OH212893   3.078   2.820   3.219 -0.3707 -0.6278  0.5764
 4296TIP3    H112894   3.075   2.847   3.128  1.3664 -2.0033  0.0850
 4296TIP3    H212895   3.132   2.741   3.219 -1.5436 -1.4606  2.5994
 4297TIP3   OH212896   3.164   2.661   3.560  0.3921 -0.3768 -0.0243
 4297TIP3    H112897   3.110   2.687   3.635  1.8650 -1.1648  1.3478
 4297TIP3    H212898   3.236   2.723   3.559 -0.2799  0.4106 -1.5912
 4298TIP3   OH212899   4.545   5.655   0.807 -0.0832  0.2799  0.5518
 4298TIP3    H112900   4.579   5.719   0.744 -0.7544  0.2023  0.1092
 4298TIP3    H212901   4.452   5.676   0.815 -0.4224 -0.9783 -0.0026
 4299TIP3   OH212902   6.330   1.230   0.714 -0.2724 -0.1900 -0.3389
 4299TIP3    H112903   6.305   1.155   0.660  1.3397 -1.7653  1.0451
 4299TIP3    H212904   6.414   1.259   0.677 -0.1761  0.0162  0.0387
 4300TIP3   OH212905   0.529   0.696   1.589  0.3717 -0.2514 -0.1827
 4300TIP3    H112906   0.538   0.647   1.507 -1.9323 -0.7222 -0.2145
 4300TIP3    H212907   0.450   0.749   1.576  1.3094  1.4432  0.8790
 4301TIP3   OH212908   4.010   2.613   3.761  0.2288  0.1544 -0.0370
 4301TIP3    H112909   3.916   2.615   3.745  0.3462 -2.8443 -1.3124
 4301TIP3    H212910   4.046   2.679   3.702 -0.9843  0.7129 -0.1565
 4302TIP3   OH212911   4.769   5.321   4.448  0.9686 -1.0883  0.2076
 4302TIP3    H112912   4.784   5.384   4.519  1.4238 -1.7138  0.6672
 4302TIP3    H212913   4.813   5.241   4.477  1.3190 -1.2919 -0.8548
 4303TIP3   OH212914   5.317   5.903   1.125 -0.1278 -0.2446  0.3900
 4303TIP3    H112915   5.344   5.991   1.150 -1.7074  0.4464 -0.2403
 4303TIP3    H212916   5.281   5.866   1.205  1.2418 -0.6116  0.8472
 4304TIP3   OH212917   4.252   4.974   0.357  0.0774  0.0573 -0.6618
 4304TIP3    H112918   4.236   5.066   0.379 -0.6214  0.2889 -2.1011
 4304TIP3    H212919   4.216   4.925   0.432  0.1473  0.9378 -0.0477
 4305TIP3   OH212920   2.756   1.050   4.212 -0.3130 -0.2668  0.2094
 4305TIP3    H112921   2.686   1.115   4.218 -0.4585 -0.3214 -0.8019
 4305TIP3    H212922   2.715   0.969   4.242 -1.3450 -0.7787 -2.4784
 4306TIP3   OH212923   3.532   3.651   4.395  0.3884 -0.1994  0.4636
 4306TIP3    H112924   3.497   3.587   4.332  0.1715  0.1622  0.2158
 4306TIP3    H212925   3.519   3.736   4.353  0.8830 -0.0070  0.6948
 4307TIP3   OH212926   3.223   3.413   2.874  0.2021 -0.1299  0.0356
 4307TIP3    H112927   3.146   3.367   2.842 -0.1035  1.5993 -1.7724
 4307TIP3    H212928   3.270   3.347   2.926 -2.3558 -1.2547  0.9920
 4308TIP3   OH212929   5.111   4.832   1.467 -0.6911  0.7934 -0.2209
 4308TIP3    H112930   5.040   4.768   1.458  0.7273 -1.2414  2.1001
 4308TIP3    H212931   5.115   4.876   1.383 -3.8171  0.0273 -0.8422
 4309TIP3   OH212932   4.652   3.196   4.624 -0.0329  0.0042 -0.2607
 4309TIP3    H112933   4.743   3.193   4.654 -0.0951 -2.0191 -0.2338
 4309TIP3    H212934   4.642   3.118   4.569 -1.2351  1.1961 -1.7852
 4310TIP3   OH212935   2.797   3.915   3.262 -0.3649 -0.1845 -0.2361
 4310TIP3    H112936   2.835   3.868   3.187  2.1496  1.5451 -0.1028
 4310TIP3    H212937   2.789   4.005   3.231 -1.6996  0.0401  0.7509
 4311TIP3   OH212938   6.373   5.853   0.422  0.6954  0.1370 -0.2022
 4311TIP3    H112939   6.376   5.767   0.380  0.4453  0.0931 -0.1339
 4311TIP3    H212940   6.315   5.840   0.498  1.7864  0.0139  0.6146
 4312TIP3   OH212941   3.891   3.184   3.556  0.3329 -0.2109 -0.1644
 4312TIP3    H112942   3.806   3.165   3.516 -0.5540 -0.2632  1.6959
 4312TIP3    H212943   3.911   3.273   3.528 -0.0515 -0.4108 -1.0958
 4313TIP3   OH212944   4.212   5.998   1.365  0.1905  0.1595 -0.2233
 4313TIP3    H112945   4.308   5.996   1.368  0.1930  0.3348 -0.1299
 4313TIP3    H212946   4.191   6.092   1.360  0.0533  0.0855 -1.1318
 4314TIP3   OH212947   2.510   1.865   0.423  0.6894 -0.1373 -0.6699
 4314TIP3    H112948   2.540   1.955   0.412  0.7921 -0.2655 -1.4554
 4314TIP3    H212949   2.583   1.811   0.392  0.7156 -0.4993  0.0055
 4315TIP3   OH212950   2.479   2.342   2.922  0.7408 -1.0139  0.4026
 4315TIP3    H112951   2.387   2.347   2.949  0.4754  2.5483 -0.8763
 4315TIP3    H212952   2.478   2.291   2.841  0.1753 -2.6299  1.4011
 4316TIP3   OH212953   5.537   5.238   0.020  0.3310  0.0485 -0.1925
 4316TIP3    H112954   5.630   5.256   0.009  0.6161 -0.3383  1.5053
 4316TIP3    H212955   5.525   5.228   0.114 -1.1812 -1.2672 -0.5056
 4317TIP3   OH212956   3.235   3.451   4.953 -0.2540 -0.1088  0.1420
 4317TIP3    H112957   3.167   3.483   4.895  0.0459  0.0213 -0.1418
 4317TIP3    H212958   3.193   3.383   5.006 -0.6239  0.0380  0.0354
 4318TIP3   OH212959   2.479   2.334   4.835 -0.0649  0.0855 -0.4785
 4318TIP3    H112960   2.490   2.331   4.740 -0.9126 -1.0168 -0.5531
 4318TIP3    H212961   2.385   2.318   4.849  0.1373 -0.2505  0.5643
 4319TIP3   OH212962   2.313   1.325   1.695 -0.6168  0.3470 -0.2831
 4319TIP3    H112963   2.346   1.414   1.686 -0.4990  0.3538  0.1911
 4319TIP3    H212964   2.281   1.320   1.785 -0.3836 -0.1654 -0.2265
 4320TIP3   OH212965   2.642   4.556   5.108 -0.0841 -0.0069  0.5103
 4320TIP3    H112966   2.594   4.505   5.173 -1.2150  1.2577  0.6689
 4320TIP3    H212967   2.718   4.590   5.155 -0.3934  0.1174  0.9230
 4321TIP3   OH212968   2.213   0.973   4.215  0.0820  0.2102 -0.0492
 4321TIP3    H112969   2.132   0.926   4.198 -0.0885 -0.5120  2.5760
 4321TIP3    H212970   2.189   1.066   4.211 -1.0983 -0.0075  1.6828
 4322TIP3   OH212971   2.981   0.569   4.053  0.4855  0.1776  0.0454
 4322TIP3    H112972   3.048   0.512   4.091  0.6965 -0.5303 -1.3571
 4322TIP3    H212973   3.021   0.656   4.052  1.1545 -0.1305 -0.2130
 4323TIP3   OH212974   2.583   5.806   4.018 -0.1283 -0.5987  0.0833
 4323TIP3    H112975   2.512   5.804   3.953  0.3831 -0.4964 -0.4761
 4323TIP3    H212976   2.562   5.734   4.077 -1.2268  0.0259  0.4758
 4324TIP3   OH212977   4.090   0.726   3.557 -0.1573  0.1383 -0.4282
 4324TIP3    H112978   4.135   0.800   3.517 -1.8952  2.2694  1.4483
 4324TIP3    H212979   4.140   0.706   3.636 -0.5922  0.3644 -0.0917
 4325TIP3   OH212980   5.135   4.479   0.098 -0.3449 -0.5320 -0.3163
 4325TIP3    H112981   5.093   4.515   0.020 -0.8362  1.6494  0.9082
 4325TIP3    H212982   5.229   4.483   0.079 -0.4111  1.0201 -0.3849
 4326TIP3   OH212983   2.401   2.565   3.534 -0.1681  0.4897  0.0634
 4326TIP3    H112984   2.322   2.619   3.533 -0.1846  0.4925  1.1711
 4326TIP3    H212985   2.385   2.500   3.602  0.4911  0.0566 -0.1977
 4327TIP3   OH212986   4.649   3.397   1.763  0.5955  0.3069  0.1625
 4327TIP3    H112987   4.723   3.456   1.777  1.7098 -1.2667  0.9982
 4327TIP3    H212988   4.627   3.366   1.851 -0.4551  0.0369 -0.1978
 4328TIP3   OH212989   2.110   4.224   3.925 -0.2823 -0.8571 -0.6929
 4328TIP3    H112990   2.033   4.177   3.893 -1.3829  0.4923 -0.0731
 4328TIP3    H212991   2.141   4.274   3.850 -0.7644 -0.4300 -0.6099
 4329TIP3   OH212992   5.227   5.604   1.053 -0.3006  0.0343 -0.3278
 4329TIP3    H112993   5.257   5.694   1.066  0.7272 -0.4111  0.4998
 4329TIP3    H212994   5.151   5.612   0.996 -1.8605  1.6566  1.9116
 4330TIP3   OH212995   4.103   5.828   0.658  0.3800  0.2555  0.4799
 4330TIP3    H112996   4.010   5.808   0.669  0.2070  0.6023 -0.3324
 4330TIP3    H212997   4.137   5.754   0.607  0.0773  1.2128 -1.1415
 4331TIP3   OH212998   2.033   2.173   1.833  0.5132 -0.3099  0.6039
 4331TIP3    H112999   2.010   2.264   1.816  1.2789  0.0665  1.5581
 4331TIP3    H213000   1.951   2.132   1.860  0.2431  0.1837  0.5457
 4332TIP3   OH213001   2.696   2.401   3.084  0.6749  0.3552 -0.5906
 4332TIP3    H113002   2.630   2.364   3.025 -0.4146 -2.2115  2.1093
 4332TIP3    H213003   2.646   2.450   3.149  1.4694 -0.9333  1.0152
 4333TIP3   OH213004   4.688   5.145   0.234 -0.1156 -0.4073  0.3366
 4333TIP3    H113005   4.764   5.148   0.176  0.2432 -1.2225  0.7585
 4333TIP3    H213006   4.724   5.150   0.322 -0.6402  0.4274  0.5082
 4334TIP3   OH213007   0.823   4.089   3.004 -0.2747  0.0264  0.5436
 4334TIP3    H113008   0.868   4.116   2.924 -0.0152 -0.6386  0.4648
 4334TIP3    H213009   0.805   4.171   3.050  1.0734  0.2985  0.6015
 4335TIP3   OH213010   6.070   3.447   4.018 -0.3618 -0.6342  0.2187
 4335TIP3    H113011   6.084   3.357   3.991  2.2289 -1.1769  3.0734
 4335TIP3    H213012   6.008   3.441   4.091  0.0397 -0.1363  0.6029
 4336TIP3   OH213013   1.159   0.542   1.081 -0.0458  0.5231 -0.0544
 4336TIP3    H113014   1.148   0.599   1.005  1.2774 -0.4223 -0.9878
 4336TIP3    H213015   1.215   0.592   1.140  0.7131  0.4052 -0.6619
 4337TIP3   OH213016   2.867   1.235   4.407  0.6438 -0.0201 -0.0854
 4337TIP3    H113017   2.792   1.187   4.371 -0.4147  1.4260  0.1450
 4337TIP3    H213018   2.847   1.327   4.390  1.2900  0.5323  1.9689
 4338TIP3   OH213019   0.631   1.548   2.874 -0.8271  0.7605  0.3108
 4338TIP3    H113020   0.589   1.629   2.844  1.0992  1.6674  0.0057
 4338TIP3    H213021   0.725   1.566   2.868 -0.3803 -1.4578  0.3798
 4339TIP3   OH213022   6.307   1.935   0.627 -0.0534 -0.3576 -0.1307
 4339TIP3    H113023   6.243   1.864   0.638  0.1221 -0.5391 -0.2630
 4339TIP3    H213024   6.275   1.984   0.551  0.2671 -0.7828 -0.5438
 4340TIP3   OH213025   1.239   2.980   4.597 -0.5118 -0.1254 -0.1578
 4340TIP3    H113026   1.313   2.989   4.536 -1.5932 -2.5816 -1.8992
 4340TIP3    H213027   1.256   2.898   4.643 -2.2395 -0.7716 -0.6703
 4341TIP3   OH213028   5.539   4.814   4.760  0.1889  0.2529 -0.1518
 4341TIP3    H113029   5.473   4.841   4.823  2.0792  1.2457  1.4685
 4341TIP3    H213030   5.595   4.753   4.808  1.1049  0.2936 -1.1342
 4342TIP3   OH213031   4.735   1.581   3.091  0.0399 -0.1955  0.0371
 4342TIP3    H113032   4.830   1.566   3.091  0.3955  1.8458  1.1654
 4342TIP3    H213033   4.709   1.574   3.183 -0.6300  0.7272 -0.0687
 4343TIP3   OH213034   1.355   0.067   1.161  0.0851 -0.7873 -0.1007
 4343TIP3    H113035   1.394   0.008   1.096  1.3563 -1.4244  1.2123
 4343TIP3    H213036   1.429   0.093   1.216 -0.5729  1.5264 -0.2526
 4344TIP3   OH213037   1.463   4.138   3.399  0.6663 -0.4652  0.5393
 4344TIP3    H113038   1.509   4.062   3.364 -0.2888  0.1854 -2.2559
 4344TIP3    H213039   1.403   4.102   3.464 -0.0769 -2.1892 -1.0528
 4345TIP3   OH213040   4.213   4.574   5.215 -0.1276  0.2666  0.0358
 4345TIP3    H113041   4.272   4.503   5.241  1.9483  1.0734 -2.3494
 4345TIP3    H213042   4.165   4.539   5.140 -0.7316  0.5826  0.2733
 4346TIP3   OH213043   4.294   1.844   2.896  0.5072  0.4492  0.0482
 4346TIP3    H113044   4.251   1.760   2.880 -0.6579  0.8695  0.8678
 4346TIP3    H213045   4.315   1.878   2.809 -0.9234  0.2671 -0.3798
 4347TIP3   OH213046   1.697   5.022   1.574 -0.4946  0.3338 -0.0439
 4347TIP3    H113047   1.763   4.954   1.588 -2.1289 -0.9938  1.4558
 4347TIP3    H213048   1.697   5.036   1.480  2.4175  0.8888 -0.0141
 4348TIP3   OH213049   5.583   5.864   0.411  0.2992  0.0908  0.1390
 4348TIP3    H113050   5.665   5.904   0.440  0.5394 -0.1753 -0.1871
 4348TIP3    H213051   5.603   5.771   0.401  0.7393  0.4649 -2.8000
 4349TIP3   OH213052   4.794   0.217   3.117 -0.3248  0.0506  0.1377
 4349TIP3    H113053   4.705   0.188   3.139 -0.9372  0.8653 -1.1886
 4349TIP3    H213054   4.802   0.200   3.023  1.1462 -0.5657  0.3645
 4350TIP3   OH213055   3.085   2.477   4.007  0.3984 -0.2704 -0.3737
 4350TIP3    H113056   3.107   2.569   3.998  1.0203 -0.3968 -0.1347
 4350TIP3    H213057   3.005   2.476   4.059  1.1439  0.0607  0.7821
 4351TIP3   OH213058   5.033   3.931   4.829 -0.1109  0.8907  0.1217
 4351TIP3    H113059   5.032   3.843   4.866  0.6542  0.8431  0.0424
 4351TIP3    H213060   5.011   3.988   4.903  1.3999  0.7965  0.6672
 4352TIP3   OH213061   3.210   4.381   4.120  0.3331  0.8558 -0.4422
 4352TIP3    H113062   3.164   4.345   4.196  1.1686 -1.2200 -0.9089
 4352TIP3    H213063   3.164   4.463   4.102 -1.8858 -0.1575  0.3779
 4353TIP3   OH213064   1.756   1.195   0.631  0.1024  0.1520 -0.1210
 4353TIP3    H113065   1.687   1.173   0.694 -0.5164  2.0939 -0.1078
 4353TIP3    H213066   1.759   1.119   0.572 -2.0509  0.0504 -0.1461
 4354TIP3   OH213067   1.684   1.204   4.636 -0.3243  0.5859 -0.7768
 4354TIP3    H113068   1.614   1.255   4.594 -1.8628 -0.5235  0.3603
 4354TIP3    H213069   1.643   1.170   4.716  1.1014 -1.2822 -0.8355
 4355TIP3   OH213070   0.609   3.200   4.436 -0.7403 -0.0569  0.1735
 4355TIP3    H113071   0.535   3.147   4.468 -0.5402 -0.2973  0.2336
 4355TIP3    H213072   0.603   3.282   4.486 -1.6954  0.4114 -0.6905
 4356TIP3   OH213073   2.940   3.481   4.292  0.2428  0.2148 -0.0682
 4356TIP3    H113074   3.018   3.532   4.269 -1.1881  1.9248 -1.2724
 4356TIP3    H213075   2.900   3.529   4.364  0.0714 -0.4469  0.2828
 4357TIP3   OH213076   0.382   1.348   0.052  0.2560 -0.0294 -0.1350
 4357TIP3    H113077   0.351   1.295  -0.021  1.7964  1.3973 -1.8856
 4357TIP3    H213078   0.423   1.286   0.112 -1.1077 -1.2218 -0.4217
 4358TIP3   OH213079   6.483   1.007   3.924  1.2062  0.9300  0.5237
 4358TIP3    H113080   6.467   0.922   3.883  1.6098  1.6924 -1.2716
 4358TIP3    H213081   6.544   0.989   3.995 -0.2608 -0.5723  1.4253
 4359TIP3   OH213082   3.318   4.796   4.749 -0.0658 -0.8343 -0.3599
 4359TIP3    H113083   3.376   4.734   4.705  1.4216  0.7559 -0.6864
 4359TIP3    H213084   3.304   4.866   4.685  0.1090  0.2749  0.7978
 4360TIP3   OH213085   3.457   3.002   3.389 -0.1066 -0.1143  0.2787
 4360TIP3    H113086   3.501   2.924   3.423 -1.4437 -0.7947  0.4503
 4360TIP3    H213087   3.368   2.996   3.421 -0.6735  0.6262 -1.1120
 4361TIP3   OH213088   2.180   3.184   4.269 -0.1687 -0.3214  0.0422
 4361TIP3    H113089   2.187   3.219   4.358  1.1421 -1.7290  0.5011
 4361TIP3    H213090   2.099   3.134   4.270 -0.1756 -0.3062  0.4293
 4362TIP3   OH213091   3.286   1.987   4.138 -0.0955  0.2581 -0.7523
 4362TIP3    H113092   3.249   2.061   4.090  0.2187  0.7495 -0.2540
 4362TIP3    H213093   3.361   2.024   4.184 -0.6597 -0.0962  0.4718
 4363TIP3   OH213094   3.758   2.272   3.821 -0.0730  0.4798  0.1458
 4363TIP3    H113095   3.756   2.280   3.917 -0.9337 -0.0482  0.1770
 4363TIP3    H213096   3.851   2.268   3.800  0.1096 -0.1756  1.0270
 4364TIP3   OH213097   1.706   2.170   4.535  0.2617  0.2685  0.4992
 4364TIP3    H113098   1.619   2.129   4.530  1.0645 -1.6122  1.2253
 4364TIP3    H213099   1.730   2.187   4.444 -0.8086  0.6802  0.2856
 4365TIP3   OH213100   3.392   1.216   2.549  0.1389 -0.1866 -0.0256
 4365TIP3    H113101   3.317   1.189   2.496 -0.6811 -1.3593  1.6623
 4365TIP3    H213102   3.439   1.279   2.495 -1.6711  0.0215 -1.3966
 4366TIP3   OH213103   4.948   4.745   0.404 -0.4037 -0.2179 -0.0238
 4366TIP3    H113104   4.876   4.803   0.429 -0.8503 -0.8274  0.1167
 4366TIP3    H213105   5.027   4.792   0.430 -0.8132 -0.3207  1.4450
 4367TIP3   OH213106   3.426   3.022   2.682 -0.3005 -0.2770 -0.4261
 4367TIP3    H113107   3.460   2.947   2.731 -0.9079 -0.9588 -1.0470
 4367TIP3    H213108   3.418   2.991   2.592  0.1396  0.7546 -0.8362
 4368TIP3   OH213109   4.051   2.109   4.941 -0.2263 -0.3432  0.4477
 4368TIP3    H113110   4.015   2.053   5.009  0.0770  1.1128  1.8204
 4368TIP3    H213111   4.136   2.137   4.975 -0.3856  0.9703 -0.2102
 4369TIP3   OH213112   1.806   2.114   4.260  0.2868  0.5672 -0.1983
 4369TIP3    H113113   1.890   2.159   4.253  0.3755  0.2231 -1.3590
 4369TIP3    H213114   1.746   2.166   4.207  0.4181 -0.7521 -1.6585
 4370TIP3   OH213115   5.881   0.117   0.971 -0.0877 -0.1330  0.0054
 4370TIP3    H113116   5.960   0.071   0.997  1.0933  1.8540  0.0424
 4370TIP3    H213117   5.907   0.168   0.894 -1.3186  0.5466  0.0254
 4371TIP3   OH213118   3.610   4.167   0.493 -0.5257  0.7145 -0.0043
 4371TIP3    H113119   3.683   4.227   0.507  0.4620 -0.3625 -0.4944
 4371TIP3    H213120   3.587   4.178   0.400 -0.6224  0.6437  0.0111
 4372TIP3   OH213121   4.312   5.242   0.256  0.8082 -0.5896  0.3147
 4372TIP3    H113122   4.226   5.281   0.237 -0.2180 -2.4204  1.0603
 4372TIP3    H213123   4.359   5.248   0.173  0.1994  1.0061  0.0610
 4373TIP3   OH213124   3.534   1.436   3.535 -0.1749  0.8551 -0.0096
 4373TIP3    H113125   3.490   1.417   3.452 -1.6761  0.0284  0.9567
 4373TIP3    H213126   3.503   1.523   3.560  1.6540  1.8753 -1.1752
 4374TIP3   OH213127   5.416   4.816   0.265  0.1763 -0.3346  0.2507
 4374TIP3    H113128   5.351   4.847   0.202  0.2033  0.1690  0.4679
 4374TIP3    H213129   5.368   4.752   0.319 -0.3137  0.4945  0.8071
 4375TIP3   OH213130   4.453   3.180   4.843  0.1807 -0.1575  0.4331
 4375TIP3    H113131   4.508   3.177   4.920 -0.5255  0.5695  0.9763
 4375TIP3    H213132   4.514   3.197   4.770  0.9986 -2.1077  0.6425
 4376TIP3   OH213133   1.946   2.337   2.983  0.3151  0.6364  0.3437
 4376TIP3    H113134   2.022   2.283   3.004 -0.2265 -0.2981 -0.0515
 4376TIP3    H213135   1.885   2.322   3.055 -1.3484 -2.2007 -1.5433
 4377TIP3   OH213136   1.549   4.772   5.316  0.0055 -0.6468  0.5617
 4377TIP3    H113137   1.529   4.750   5.225 -1.1276 -0.1222  0.6639
 4377TIP3    H213138   1.539   4.867   5.320  2.9073 -0.3100  0.5743
 4378TIP3   OH213139   2.639   1.838   2.070  0.5191  0.2633 -0.7936
 4378TIP3    H113140   2.612   1.929   2.082  1.0432  0.5177 -1.5283
 4378TIP3    H213141   2.721   1.831   2.119 -0.4038 -0.2713  0.6911
 4379TIP3   OH213142   2.014   4.811   2.733  0.2047 -0.1916 -0.7473
 4379TIP3    H113143   2.033   4.833   2.641  0.7634  1.4097 -0.2648
 4379TIP3    H213144   1.927   4.846   2.748  0.5724  0.5599 -0.3462
 4380TIP3   OH213145   2.196   2.491   4.073 -0.1420 -0.1443 -0.5230
 4380TIP3    H113146   2.220   2.550   4.001  0.0148  1.1047  0.5315
 4380TIP3    H213147   2.272   2.493   4.131 -0.5980 -0.5136  0.0857
 4381TIP3   OH213148   3.343   3.080   1.331 -0.3935 -0.4997  0.6416
 4381TIP3    H113149   3.379   3.018   1.395  1.1156  2.0682  2.4410
 4381TIP3    H213150   3.276   3.128   1.380  1.6444  2.3543  0.7790
 4382TIP3   OH213151   1.047   1.874   1.535 -0.1161  0.1269  0.3885
 4382TIP3    H113152   1.036   1.928   1.457  0.5956 -0.9808 -0.4897
 4382TIP3    H213153   1.029   1.933   1.608 -0.3224  1.2890 -0.5928
 4383TIP3   OH213154   0.680   1.101   2.374  0.0423  0.1766  0.2167
 4383TIP3    H113155   0.770   1.122   2.346 -0.7918 -0.0699 -2.8010
 4383TIP3    H213156   0.667   1.010   2.345 -1.0267  0.0690  1.0362
 4384TIP3   OH213157   0.285   5.299   2.547 -0.3284  0.5016 -0.1396
 4384TIP3    H113158   0.275   5.386   2.508  1.0865 -0.0101 -1.6968
 4384TIP3    H213159   0.199   5.281   2.586 -0.7858  2.3878 -0.1878
 4385TIP3   OH213160   3.142   3.078   3.733  0.1573 -0.2426  0.2212
 4385TIP3    H113161   3.063   3.115   3.772  0.6106 -0.1422  1.0506
 4385TIP3    H213162   3.214   3.111   3.788  0.6954 -1.0785  0.0279
 4386TIP3   OH213163   3.191   3.474   1.679 -0.6900  0.3422 -0.2642
 4386TIP3    H113164   3.217   3.565   1.686  0.1518 -0.0332  1.9333
 4386TIP3    H213165   3.096   3.477   1.668 -0.6342  1.4940 -0.4724
 4387TIP3   OH213166   3.951   3.994   4.623  0.1802 -0.4017  0.1695
 4387TIP3    H113167   3.952   3.941   4.543  1.4265  0.1572 -0.1942
 4387TIP3    H213168   4.042   3.997   4.651 -0.1866 -0.1844  1.3533
 4388TIP3   OH213169   2.365   3.543   4.252  1.0158  0.0153  0.6034
 4388TIP3    H113170   2.385   3.635   4.273 -1.6605  1.0474 -1.1633
 4388TIP3    H213171   2.405   3.529   4.166 -0.4171  0.1672 -0.0863
 4389TIP3   OH213172   3.334   5.245   4.716 -0.5369 -0.2315 -0.1925
 4389TIP3    H113173   3.357   5.200   4.797  0.1245 -0.1017 -0.3052
 4389TIP3    H213174   3.323   5.336   4.742  0.8810  0.0231 -0.4636
 4390TIP3   OH213175   0.780   0.335   0.534 -0.3590 -0.0548  0.2717
 4390TIP3    H113176   0.734   0.276   0.474 -0.9299  0.2490  0.4028
 4390TIP3    H213177   0.864   0.293   0.550  0.6546  0.8523 -2.3962
 4391TIP3   OH213178   4.657   5.884   0.652 -0.6756  0.4754  0.3061
 4391TIP3    H113179   4.706   5.837   0.584 -1.9844 -2.6980  1.4905
 4391TIP3    H213180   4.722   5.945   0.689  0.6406  0.7540 -2.2728
 4392TIP3   OH213181   3.320   3.610   0.646  0.3549  0.2778 -0.3818
 4392TIP3    H113182   3.404   3.608   0.601  0.0096 -0.0312 -1.0356
 4392TIP3    H213183   3.341   3.622   0.738  1.0486  1.6227 -0.7083
 4393TIP3   OH213184   2.884   2.874   4.798 -0.4229  0.9405 -0.0162
 4393TIP3    H113185   2.793   2.846   4.786  0.0999 -0.2674 -1.3030
 4393TIP3    H213186   2.925   2.859   4.712  0.4781  3.4219 -0.0487
 4394TIP3   OH213187   4.756   4.565   0.305 -0.5937  0.2719  0.0745
 4394TIP3    H113188   4.702   4.611   0.240  2.4331  0.7064 -2.2663
 4394TIP3    H213189   4.811   4.634   0.343 -0.3170 -0.4552  1.0132
 4395TIP3   OH213190   0.194   0.991   0.539  0.2989 -0.4102  0.8342
 4395TIP3    H113191   0.278   1.015   0.578 -0.2849  0.5748  1.5018
 4395TIP3    H213192   0.130   1.009   0.608 -0.6437  0.4570 -0.2533
 4396TIP3   OH213193   3.135   1.969   4.999 -0.3900  0.0531  0.1301
 4396TIP3    H113194   3.219   2.014   4.996 -0.9790  1.2344  0.9380
 4396TIP3    H213195   3.143   1.898   4.934  1.7942 -0.8863  1.3852
 4397TIP3   OH213196   2.375   4.104   4.682  0.3621 -0.0671  0.7868
 4397TIP3    H113197   2.438   4.164   4.721  1.0408  0.1236 -0.5712
 4397TIP3    H213198   2.398   4.102   4.589 -1.2764 -0.4427  0.3752
 4398TIP3   OH213199   6.247   5.288   1.347 -0.1738 -0.4628 -0.8754
 4398TIP3    H113200   6.221   5.197   1.334  0.9327 -0.7667 -0.9873
 4398TIP3    H213201   6.340   5.290   1.327  0.0067  0.5154  0.0137
 4399TIP3   OH213202   4.252   4.802   0.737 -0.4118 -0.2975 -0.2380
 4399TIP3    H113203   4.333   4.771   0.776 -0.3290  0.9918  0.6713
 4399TIP3    H213204   4.190   4.805   0.810 -0.4267  1.5675 -0.2858
 4400TIP3   OH213205   1.813   3.130   4.215  0.1237  0.0890 -0.1376
 4400TIP3    H113206   1.741   3.109   4.156  1.6193 -1.0119 -1.6202
 4400TIP3    H213207   1.819   3.054   4.274 -1.1180  1.0143  1.1995
 4401TIP3   OH213208   4.531   5.820   1.063  0.8850 -0.4389 -0.1303
 4401TIP3    H113209   4.474   5.821   0.986  0.4239  0.3064  0.2200
 4401TIP3    H213210   4.514   5.903   1.108 -0.1013 -1.5761  1.6809
 4402TIP3   OH213211   6.404   0.003   0.174 -0.4483  0.4004  0.0967
 4402TIP3    H113212   6.459   0.031   0.247  0.5611 -0.1606 -0.4336
 4402TIP3    H213213   6.466  -0.019   0.104 -1.2082 -2.3782  0.2233
 4403TIP3   OH213214   3.429   3.029   4.416  0.6064 -0.2713 -0.2295
 4403TIP3    H113215   3.438   3.054   4.323 -0.3630 -2.0574 -0.8166
 4403TIP3    H213216   3.476   3.098   4.463 -0.2830  1.5707 -1.9381
 4404TIP3   OH213217   0.393   2.557   4.544 -0.1421  0.3450  0.5309
 4404TIP3    H113218   0.379   2.646   4.512 -0.5434  0.5650  1.2847
 4404TIP3    H213219   0.382   2.501   4.467 -3.6081  0.6335  0.7112
 4405TIP3   OH213220   1.927   3.869   4.049  0.1266  0.3389  0.6720
 4405TIP3    H113221   1.907   3.776   4.036  1.2906  0.0871  0.6242
 4405TIP3    H213222   1.863   3.915   3.996  0.6375 -0.4922 -0.6943
 4406TIP3   OH213223   4.206   2.935   4.931  0.0672 -0.0026 -0.4559
 4406TIP3    H113224   4.258   2.943   5.011  2.2188  0.4957 -1.8729
 4406TIP3    H213225   4.155   2.855   4.943  1.0688 -0.4389  1.0120
 4407TIP3   OH213226   3.350   3.690   4.612  0.6756 -0.3034 -0.7421
 4407TIP3    H113227   3.408   3.675   4.537  0.4217 -1.5176 -0.6948
 4407TIP3    H213228   3.316   3.604   4.634  0.2902  0.1373  0.4106
 4408TIP3   OH213229   3.083   1.544   0.719  0.1357 -0.2313 -0.0758
 4408TIP3    H113230   3.112   1.484   0.651  1.0625  2.3236 -2.0240
 4408TIP3    H213231   3.138   1.523   0.795 -2.4195 -4.5869  0.6861
 4409TIP3   OH213232   6.065   5.957   0.193  0.0361 -0.1820  0.4787
 4409TIP3    H113233   6.049   6.014   0.268  1.5843 -0.3901  0.9822
 4409TIP3    H213234   5.997   5.981   0.130 -3.0972 -1.9984  3.0181
 4410TIP3   OH213235   4.606   2.116   4.938  0.2755 -0.3034 -0.3653
 4410TIP3    H113236   4.529   2.075   4.899 -0.3741  1.2070 -0.7136
 4410TIP3    H213237   4.575   2.201   4.969  1.7700  0.2728 -0.3838
 4411TIP3   OH213238   4.122   3.449   4.954 -0.0282  0.6221  0.2395
 4411TIP3    H113239   4.211   3.476   4.979  0.8893 -1.6627 -0.4114
 4411TIP3    H213240   4.097   3.385   5.021 -0.8361  0.6026 -0.0795
 4412TIP3   OH213241   1.863   0.488   0.487  1.0230 -0.5877 -0.3395
 4412TIP3    H113242   1.814   0.416   0.527 -2.1347  1.4037 -0.4128
 4412TIP3    H213243   1.916   0.523   0.559  0.2363 -1.0730  0.4961
 4413TIP3   OH213244   2.083   2.895   3.361  0.4843  0.0536 -0.3554
 4413TIP3    H113245   2.109   2.875   3.450  1.4110 -1.0879 -0.8704
 4413TIP3    H213246   2.166   2.898   3.312 -0.0349  0.3933 -1.2251
 4414TIP3   OH213247   4.463   1.367   0.869 -0.1575 -0.1501 -0.2799
 4414TIP3    H113248   4.550   1.402   0.884 -0.3771  0.7278 -1.0214
 4414TIP3    H213249   4.424   1.426   0.804 -1.5328 -0.1441  0.5265
 4415TIP3   OH213250   5.748   4.491   1.184  0.2107  0.3746 -0.3645
 4415TIP3    H113251   5.662   4.522   1.156  0.0304  0.6193  0.4317
 4415TIP3    H213252   5.729   4.413   1.236  0.4316  0.6319  0.1144
 4416TIP3   OH213253   2.637   1.358   0.651  0.0365  0.4424 -0.3579
 4416TIP3    H113254   2.685   1.329   0.574  0.5915  3.5191 -1.2554
 4416TIP3    H213255   2.589   1.435   0.620 -1.7397  0.2008  1.7416
 4417TIP3   OH213256   4.990   3.099   4.087 -0.0238  0.1193 -0.4606
 4417TIP3    H113257   4.895   3.102   4.075 -0.0275 -1.3951 -0.9109
 4417TIP3    H213258   5.026   3.101   3.999  0.3681  0.6471 -0.2934
 4418TIP3   OH213259   3.049   1.129   3.149  0.4746  0.4137  0.2449
 4418TIP3    H113260   3.120   1.067   3.133  0.5854  0.4424  0.6035
 4418TIP3    H213261   2.988   1.080   3.205  1.0681  0.9615  1.4051
 4419TIP3   OH213262   3.487   2.349   3.086 -0.0571 -0.0739  0.2519
 4419TIP3    H113263   3.575   2.367   3.054  0.5576 -0.8883  1.4298
 4419TIP3    H213264   3.432   2.417   3.047  1.5332  2.0440  1.5794
 4420TIP3   OH213265   3.426   2.767   4.993 -0.5931  0.2497  0.2595
 4420TIP3    H113266   3.429   2.862   5.003 -1.6777  0.4546 -1.1738
 4420TIP3    H213267   3.491   2.748   4.925 -0.5371 -0.0053  0.3843
 4421TIP3   OH213268   2.072   0.459   0.304  0.1648  0.2582 -0.0568
 4421TIP3    H113269   2.098   0.548   0.326  2.6128 -0.7208  1.2105
 4421TIP3    H213270   2.006   0.436   0.369 -0.3541  1.0946 -0.2907
 4422TIP3   OH213271   0.789   0.627   0.534 -0.6413  0.2776  0.5083
 4422TIP3    H113272   0.705   0.668   0.517 -1.2347 -1.7436 -1.6374
 4422TIP3    H213273   0.770   0.556   0.596 -0.6963 -0.7387 -0.6496
 4423TIP3   OH213274   2.471   1.349   0.301 -0.6581  0.0468 -0.5130
 4423TIP3    H113275   2.446   1.297   0.378 -1.8799 -0.1258 -1.0169
 4423TIP3    H213276   2.404   1.328   0.236  0.2403  0.3815 -1.5432
 4424TIP3   OH213277   2.088   0.855   1.484 -0.0265  0.2019  0.0304
 4424TIP3    H113278   2.037   0.899   1.552  1.0638  0.0381  0.9615
 4424TIP3    H213279   2.067   0.762   1.494 -1.2360  0.3275 -1.0311
 4425TIP3   OH213280   1.774   2.407   4.080 -0.0982  0.0196 -0.3198
 4425TIP3    H113281   1.854   2.387   4.032 -0.5627 -2.3596 -0.1402
 4425TIP3    H213282   1.712   2.435   4.013 -0.6053 -2.8651 -1.1053
 4426TIP3   OH213283   1.736   5.908   0.312  0.2053  0.6120 -0.3401
 4426TIP3    H113284   1.806   5.967   0.283 -0.4830  1.3555 -0.5312
 4426TIP3    H213285   1.705   5.948   0.394  2.4149 -1.6934  1.7106
 4427TIP3   OH213286   2.636   1.379   4.334  0.1691  0.1760  0.4777
 4427TIP3    H113287   2.550   1.408   4.303  0.2658  0.0892  0.1319
 4427TIP3    H213288   2.682   1.461   4.353  0.1873  0.2353  0.1843
 4428TIP3   OH213289   3.634   2.667   2.637 -0.0285 -0.1077  0.3004
 4428TIP3    H113290   3.693   2.630   2.704  1.0633 -1.0537 -1.1395
 4428TIP3    H213291   3.684   2.739   2.599  0.3364 -1.0841 -1.1140
 4429TIP3   OH213292   1.433   1.668   5.102  0.2839 -1.0440  0.3937
 4429TIP3    H113293   1.493   1.629   5.038  0.7939  0.1078  0.1486
 4429TIP3    H213294   1.439   1.762   5.085 -2.5323 -0.9827 -0.4623
 4430TIP3   OH213295   2.913   2.553   5.038  0.0898 -0.1155  0.2423
 4430TIP3    H113296   2.867   2.564   4.955 -0.4444 -1.7729  0.3097
 4430TIP3    H213297   2.947   2.464   5.036  3.3076  1.0100  0.2052
 4431TIP3   OH213298   2.913   5.609   1.330 -0.1055  0.2352 -0.0189
 4431TIP3    H113299   2.986   5.570   1.281  0.0866  0.4358  0.1041
 4431TIP3    H213300   2.835   5.566   1.296  0.2232 -1.2795  1.1042
 4432TIP3   OH213301   2.358   2.372   3.754 -0.0778  0.2295 -0.5585
 4432TIP3    H113302   2.385   2.327   3.834 -0.9299 -0.7351 -0.7982
 4432TIP3    H213303   2.305   2.446   3.785  1.1004  0.9168 -0.1706
 4433TIP3   OH213304   4.644   4.177   4.338 -0.1222 -0.0482 -0.2395
 4433TIP3    H113305   4.587   4.145   4.268 -0.4109  0.2610 -0.1463
 4433TIP3    H213306   4.584   4.209   4.406  0.1538  1.2802 -0.6004
 4434TIP3   OH213307   2.947   4.863   4.155  0.4747  0.1478  0.2470
 4434TIP3    H113308   2.995   4.801   4.100 -1.1775  0.2094 -1.3100
 4434TIP3    H213309   2.957   4.947   4.111  1.3005  0.6828  1.4441
 4435TIP3   OH213310   4.941   4.568   2.126  0.0474  0.3652  0.0600
 4435TIP3    H113311   4.933   4.588   2.219 -0.1783 -0.7416  0.2782
 4435TIP3    H213312   4.991   4.487   2.122 -0.3276  0.1665 -0.7585
 4436TIP3   OH213313   0.815   3.511   4.973  0.5631  0.8288  0.4978
 4436TIP3    H113314   0.894   3.488   4.925  0.9099  0.3308  1.3039
 4436TIP3    H213315   0.801   3.438   5.034 -1.0197  0.4842 -0.2617
 4437TIP3   OH213316   5.512   0.638   4.323  0.4539  0.0566 -0.0556
 4437TIP3    H113317   5.465   0.700   4.379 -0.3923 -0.5802 -0.0413
 4437TIP3    H213318   5.475   0.654   4.236 -0.6922 -1.2944  0.1670
 4438TIP3   OH213319   6.092   1.356   3.772 -0.1881  0.2353  0.3444
 4438TIP3    H113320   6.097   1.388   3.863 -0.2131 -2.4923  1.3571
 4438TIP3    H213321   6.183   1.342   3.747 -0.2037  0.5171  0.1363
 4439TIP3   OH213322   3.588   3.150   3.759 -0.3354  0.4441  0.0494
 4439TIP3    H113323   3.598   3.235   3.802  2.3112  0.3644 -0.3621
 4439TIP3    H213324   3.610   3.166   3.668 -1.5817 -0.3425 -0.4155
 4440TIP3   OH213325   6.264   0.147  -0.011 -0.3755  0.0481 -0.2305
 4440TIP3    H113326   6.196   0.081  -0.022  2.1854 -2.2739 -2.5245
 4440TIP3    H213327   6.304   0.127   0.074  1.7480 -2.7319 -1.8101
 4441TIP3   OH213328   3.685   4.510   5.136 -0.0925 -0.0655  0.3912
 4441TIP3    H113329   3.754   4.472   5.082  0.3258  0.0576  0.8379
 4441TIP3    H213330   3.634   4.434   5.166 -0.1840 -0.1521  0.0209
 4442TIP3   OH213331   1.318   0.186   2.089  0.0205 -0.4625  0.4725
 4442TIP3    H113332   1.390   0.207   2.149  2.2509 -1.8796 -1.5644
 4442TIP3    H213333   1.274   0.111   2.129  0.6044 -0.5038  1.0451
 4443TIP3   OH213334   2.500   3.163   3.898 -0.0043  0.0906 -0.6712
 4443TIP3    H113335   2.465   3.123   3.977 -0.0446  0.6565 -0.3991
 4443TIP3    H213336   2.554   3.095   3.858 -0.4753 -0.4044 -0.4825
 4444TIP3   OH213337   4.614   2.446   3.302  0.4055 -0.2015  0.1875
 4444TIP3    H113338   4.698   2.481   3.330  1.3150 -2.1207 -0.1029
 4444TIP3    H213339   4.612   2.356   3.334 -0.6315 -0.8616 -1.6063
 4445TIP3   OH213340   1.384   6.041   4.164  0.1524  0.6616  0.2637
 4445TIP3    H113341   1.457   6.099   4.188 -0.4144  0.9209  1.3993
 4445TIP3    H213342   1.311   6.070   4.219 -0.9329  0.6622 -1.1596
 4446TIP3   OH213343   2.290   2.363   3.306  0.2469  0.4853 -0.6531
 4446TIP3    H113344   2.375   2.395   3.277  0.1203 -0.5212 -2.2554
 4446TIP3    H213345   2.308   2.314   3.386  0.9935  1.3087 -0.3158
 4447TIP3   OH213346   4.603   3.923   0.316 -0.2094  0.2143  0.6081
 4447TIP3    H113347   4.578   3.930   0.224  4.3192  0.6895 -0.6938
 4447TIP3    H213348   4.543   3.981   0.362 -2.3533  0.1775 -2.0698
 4448TIP3   OH213349   0.903   2.827   5.326  0.3334 -0.0510 -0.2078
 4448TIP3    H113350   0.882   2.837   5.233  2.2938 -0.6213 -0.7288
 4448TIP3    H213351   0.887   2.914   5.363 -0.0566  0.2990 -1.1598
 4449TIP3   OH213352   1.074   1.538   3.372 -0.4004  0.2633 -0.1502
 4449TIP3    H113353   1.119   1.480   3.311  1.9493 -0.0836  1.8553
 4449TIP3    H213354   0.983   1.536   3.344  0.5630 -0.0660 -3.4912
 4450TIP3   OH213355   4.506   1.693   3.604 -0.1921 -0.6879 -0.5271
 4450TIP3    H113356   4.520   1.787   3.596  0.2783 -0.7383 -0.2567
 4450TIP3    H213357   4.436   1.674   3.541 -1.2864  0.0734  0.4427
 4451TIP3   OH213358   3.135   1.088   4.730 -0.4520 -0.1198  0.4823
 4451TIP3    H113359   3.189   1.054   4.801 -0.4774 -0.0443  0.5382
 4451TIP3    H213360   3.174   1.051   4.651  1.5235  2.2504  0.2697
 4452TIP3   OH213361   0.348   4.597   2.716  0.0413 -0.0427 -0.5960
 4452TIP3    H113362   0.292   4.529   2.753  1.9177 -2.1372 -1.4425
 4452TIP3    H213363   0.357   4.662   2.786 -2.2054 -0.3848  0.0485
 4453TIP3   OH213364   1.905   1.814   2.164 -0.4066 -0.2479  0.2591
 4453TIP3    H113365   1.832   1.767   2.204 -0.8609  1.8626  2.0258
 4453TIP3    H213366   1.982   1.784   2.212 -0.4927 -0.2329  0.4044
 4454TIP3   OH213367   5.981   1.910   4.555  0.8218 -0.4631  0.0788
 4454TIP3    H113368   6.052   1.924   4.494 -0.2344  0.5111 -0.9412
 4454TIP3    H213369   5.984   1.816   4.575  0.5782 -0.9813 -2.2172
 4455TIP3   OH213370   3.827   2.720   3.571  0.0193 -0.1031 -0.1904
 4455TIP3    H113371   3.871   2.739   3.488 -0.5658  0.7851 -0.2953
 4455TIP3    H213372   3.735   2.739   3.554 -0.0908  0.1330  0.6870
 4456TIP3   OH213373   4.968   2.694   3.560 -0.2617  0.0110 -0.2026
 4456TIP3    H113374   4.957   2.702   3.654  1.3275  0.0698 -0.0013
 4456TIP3    H213375   4.951   2.602   3.541 -0.1532 -0.0973  0.2165
 4457TIP3   OH213376   5.923   5.742   0.241  0.4185  0.1032 -0.1468
 4457TIP3    H113377   5.962   5.816   0.194  0.8912  0.7999  1.2963
 4457TIP3    H213378   5.905   5.777   0.329  1.7310 -1.8137  0.9239
 4458TIP3   OH213379   0.521   2.122   1.313  0.7398  0.1771  0.7987
 4458TIP3    H113380   0.523   2.071   1.394  2.7465  1.1087  1.3694
 4458TIP3    H213381   0.613   2.138   1.293  0.2135  1.1344 -0.9284
 4459TIP3   OH213382   3.006   2.173   4.858 -0.3124 -0.5908  0.1394
 4459TIP3    H113383   3.051   2.252   4.888  0.0803 -0.4461 -0.8191
 4459TIP3    H213384   3.020   2.109   4.928  1.4464 -0.5680 -0.1849
 4460TIP3   OH213385   4.800   4.967   0.986 -0.6862 -0.3662 -0.4870
 4460TIP3    H113386   4.748   4.925   1.054  0.2170  0.2982  0.6400
 4460TIP3    H213387   4.878   4.998   1.032 -0.4749  0.8688 -1.6453
 4461TIP3   OH213388   2.578   2.087   0.865 -0.1985 -0.0575 -0.4406
 4461TIP3    H113389   2.612   2.105   0.777 -0.8878 -2.3566 -1.1968
 4461TIP3    H213390   2.577   1.992   0.871 -2.4569  0.0468  1.1662
 4462TIP3   OH213391   0.060   2.870   2.784 -0.2918  0.1103 -0.4042
 4462TIP3    H113392  -0.025   2.834   2.806 -0.2776  0.9125  0.9945
 4462TIP3    H213393   0.041   2.944   2.725 -0.4252 -0.9981 -1.7710
 4463TIP3   OH213394   4.541   2.156   3.911 -0.2765 -0.3024  0.1006
 4463TIP3    H113395   4.481   2.207   3.966  0.8382  0.1536  0.9416
 4463TIP3    H213396   4.573   2.087   3.969 -1.4814 -1.7356 -0.9252
 4464TIP3   OH213397   1.573   0.289   0.315  0.0346  0.3089 -0.2677
 4464TIP3    H113398   1.563   0.384   0.329  0.0632  0.3807 -0.7400
 4464TIP3    H213399   1.502   0.266   0.255  0.8806  0.2861 -1.2742
 4465TIP3   OH213400   0.333   2.864   5.062  0.2411 -0.0298 -0.2255
 4465TIP3    H113401   0.251   2.904   5.090 -0.7113  1.3916 -4.6041
 4465TIP3    H213402   0.384   2.853   5.142 -3.3116  1.1448  2.2930
 4466TIP3   OH213403   4.790   5.714   1.076  0.1220  0.3007 -0.4945
 4466TIP3    H113404   4.814   5.718   1.169  0.3889 -2.5469 -0.3996
 4466TIP3    H213405   4.700   5.748   1.074 -0.3631 -0.7967  1.0343
 4467TIP3   OH213406   5.530   6.037   0.919  0.1989 -0.1763  0.3755
 4467TIP3    H113407   5.467   5.966   0.929  0.9277 -1.0217 -0.8244
 4467TIP3    H213408   5.516   6.093   0.995 -1.3836 -0.8272  0.5825
 4468TIP3   OH213409   4.834   1.399   4.850  0.4984  0.4416 -0.3701
 4468TIP3    H113410   4.804   1.482   4.885  0.8242  0.9024 -1.1820
 4468TIP3    H213411   4.925   1.392   4.879  0.8856  0.9996 -1.4211
 4469TIP3   OH213412   5.099   4.474   4.208  0.1651  0.1916  0.8825
 4469TIP3    H113413   5.018   4.425   4.222  0.7431 -1.2499 -0.5948
 4469TIP3    H213414   5.115   4.518   4.292 -1.5105 -0.4459  1.5679
 4470TIP3   OH213415   2.116   0.126   1.027 -0.0658  0.1695  0.1054
 4470TIP3    H113416   2.129   0.063   0.956 -1.2423 -0.1162  0.1483
 4470TIP3    H213417   2.053   0.084   1.085  0.8572  0.4252  1.3000
 4471TIP3   OH213418   0.856   3.947   3.254 -0.1213  0.3051  0.2647
 4471TIP3    H113419   0.936   3.900   3.278  1.0474  1.6155 -0.9710
 4471TIP3    H213420   0.867   3.970   3.162 -2.1967 -0.0000 -0.0935
 4472TIP3   OH213421   3.058   0.927   0.396  0.2349 -0.0648  0.4137
 4472TIP3    H113422   3.107   0.930   0.478 -0.3173  1.1476  0.7083
 4472TIP3    H213423   3.109   0.980   0.335 -0.3051  0.5630  0.5027
 4473TIP3   OH213424   3.739   2.490   3.033  0.1093  0.1337 -0.5490
 4473TIP3    H113425   3.797   2.493   2.957 -0.6489  2.1303 -1.0725
 4473TIP3    H213426   3.760   2.569   3.082  0.3934 -0.9957  1.2051
 4474TIP3   OH213427   4.467   2.539   2.461 -0.1581  0.0388  0.3718
 4474TIP3    H113428   4.477   2.589   2.542 -1.2363  1.5209 -0.3654
 4474TIP3    H213429   4.395   2.479   2.479 -1.2096  1.2036  0.1482
 4475TIP3   OH213430   4.672   1.249   4.668 -0.0574  0.0122 -0.3021
 4475TIP3    H113431   4.721   1.323   4.704 -0.0761 -0.6946  1.2422
 4475TIP3    H213432   4.718   1.172   4.703 -1.3436 -0.6725 -0.1112
 4476TIP3   OH213433   3.706   3.018   2.076 -0.1256 -0.1840 -0.3434
 4476TIP3    H113434   3.668   2.938   2.042  2.4924 -0.9580 -1.5816
 4476TIP3    H213435   3.721   3.073   1.999 -1.8512  1.5121  0.4801
 4477TIP3   OH213436   6.223   4.310   4.548  0.0158  0.3876  0.0078
 4477TIP3    H113437   6.309   4.269   4.547 -0.1570 -0.0070 -1.3639
 4477TIP3    H213438   6.162   4.236   4.541 -0.4587  0.6102  1.7804
 4478TIP3   OH213439   2.932   3.112   4.907  0.6317  0.5269  0.2756
 4478TIP3    H113440   2.957   3.020   4.896  3.9970  1.5884 -1.5698
 4478TIP3    H213441   2.928   3.147   4.818  2.8750  2.9810  1.0648
 4479TIP3   OH213442   3.898   2.704   4.968  0.5831  0.2530  0.3109
 4479TIP3    H113443   3.845   2.780   4.945 -0.6000 -0.9164 -0.8485
 4479TIP3    H213444   3.862   2.632   4.917  1.7492 -1.0909  1.3299
 4480TIP3   OH213445   1.742   4.728   0.234  0.4269  0.7055 -0.0187
 4480TIP3    H113446   1.735   4.813   0.191  2.5797  1.8794  1.8594
 4480TIP3    H213447   1.754   4.666   0.163 -0.8237  1.9771 -1.3950
 4481TIP3   OH213448   5.051   1.710   4.779 -0.1094 -0.3356  0.4683
 4481TIP3    H113449   5.034   1.804   4.782 -1.1795 -0.5446  1.1811
 4481TIP3    H213450   4.972   1.670   4.815  0.5757 -1.4851  0.7251
 4482TIP3   OH213451   4.569   4.461   4.026  0.2743 -0.0250 -0.5219
 4482TIP3    H113452   4.580   4.437   3.934 -1.8535 -0.4667 -0.6724
 4482TIP3    H213453   4.500   4.527   4.026  1.3105  1.1010  0.6306
 4483TIP3   OH213454   3.273   0.742   1.281  0.0398  0.4675  0.0435
 4483TIP3    H113455   3.333   0.785   1.220 -0.4246 -0.4562 -1.1051
 4483TIP3    H213456   3.190   0.787   1.268 -0.0077  0.4056  0.1379
 4484TIP3   OH213457   4.938   3.049   3.499  1.1145  0.0561  0.0987
 4484TIP3    H113458   4.983   3.105   3.435  0.3810 -1.2619 -1.6088
 4484TIP3    H213459   4.989   2.968   3.501 -0.7034 -1.1557 -1.2892
 4485TIP3   OH213460   0.126   4.451   3.216  0.5212 -0.5056  0.1870
 4485TIP3    H113461   0.084   4.425   3.133 -0.2957  1.9155 -0.1947
 4485TIP3    H213462   0.065   4.422   3.284 -0.3640  0.4023 -0.2205
 4486TIP3   OH213463   0.465   2.946   2.324  0.2961  0.1412 -0.4770
 4486TIP3    H113464   0.428   2.858   2.317  1.1349 -0.1607 -1.3378
 4486TIP3    H213465   0.550   2.933   2.367  0.6825  0.4411 -1.1353
 4487TIP3   OH213466   5.192   1.570   4.963 -0.0773  0.2024 -0.5438
 4487TIP3    H113467   5.158   1.481   4.963 -1.3601  0.6778 -0.1403
 4487TIP3    H213468   5.159   1.608   4.881 -0.7951  0.7675  0.0030
 4488TIP3   OH213469   4.207   2.885   4.103 -0.3871 -0.2227 -0.3047
 4488TIP3    H113470   4.205   2.905   4.197  0.2180  0.8619 -0.5005
 4488TIP3    H213471   4.167   2.962   4.062  0.2496 -0.2463 -0.9833
 4489TIP3   OH213472   5.652   4.905   4.077  0.4669 -0.2898  0.1819
 4489TIP3    H113473   5.611   4.964   4.014 -2.3927  0.6895  2.8289
 4489TIP3    H213474   5.714   4.960   4.125  0.0085 -0.1553  0.6242
 4490TIP3   OH213475   1.147   3.125   3.543 -0.4098 -0.1957  0.5330
 4490TIP3    H113476   1.197   3.200   3.509  0.6905 -0.2875  1.8898
 4490TIP3    H213477   1.211   3.075   3.594 -1.4016 -1.4678  0.5636
 4491TIP3   OH213478   5.029   3.903   2.507  0.0824  0.2002  0.6205
 4491TIP3    H113479   5.091   3.877   2.439 -0.9206  1.1713 -0.7132
 4491TIP3    H213480   5.063   3.986   2.540  0.6130 -0.3126  1.3723
 4492TIP3   OH213481   0.558   1.581   3.373  0.0615  1.0716  0.2295
 4492TIP3    H113482   0.647   1.556   3.347 -1.1298 -2.2060 -0.9630
 4492TIP3    H213483   0.525   1.631   3.299 -0.4721 -1.2907 -1.2075
 4493TIP3   OH213484   3.482   0.000   0.588 -0.4484 -0.0240  0.0290
 4493TIP3    H113485   3.511   0.090   0.574 -0.7918  0.1038  0.1471
 4493TIP3    H213486   3.397  -0.005   0.546  0.0983 -0.6266 -1.0328
 4494TIP3   OH213487   0.222   2.697   4.710 -0.2154  0.0339 -0.4702
 4494TIP3    H113488   0.197   2.656   4.793  1.0736  2.3779  1.1588
 4494TIP3    H213489   0.283   2.635   4.670  1.0274 -0.0748  1.5047
 4495TIP3   OH213490   3.096   2.323   3.265 -0.3104 -0.4954 -0.4931
 4495TIP3    H113491   3.010   2.365   3.275 -0.6889 -1.5198  0.7118
 4495TIP3    H213492   3.085   2.265   3.190  0.6868  2.6605 -3.1809
 4496TIP3   OH213493   4.659   2.806   3.057 -0.1577  0.8687  0.2578
 4496TIP3    H113494   4.741   2.785   3.012 -0.6695 -0.9936  0.1467
 4496TIP3    H213495   4.685   2.864   3.128  0.9409  2.1370 -1.1350
 4497TIP3   OH213496   6.055   3.959   4.035  0.2508  0.3014 -0.1197
 4497TIP3    H113497   6.062   4.029   4.100  0.5807  0.3637 -0.2190
 4497TIP3    H213498   5.974   3.913   4.057  0.2676  0.4359  0.2226
 4498TIP3   OH213499   6.235   3.072   3.166  0.7167  0.5535 -0.5062
 4498TIP3    H113500   6.162   3.014   3.143  0.2520  1.5588 -1.6513
 4498TIP3    H213501   6.285   3.022   3.230 -0.4807 -0.5204 -0.3602
 4499TIP3   OH213502   0.462   4.230   3.837 -0.0805 -0.7770  0.2279
 4499TIP3    H113503   0.552   4.198   3.837  0.6771  1.2218 -1.3102
 4499TIP3    H213504   0.460   4.296   3.906 -0.3605 -0.7902  0.2324
 4500TIP3   OH213505   5.321   4.376   4.039 -0.7740 -0.0457  0.1914
 4500TIP3    H113506   5.287   4.398   3.952 -1.1541  2.3734  0.9173
 4500TIP3    H213507   5.249   4.397   4.099  0.4674  1.0361  1.3466
 4501TIP3   OH213508   5.919   3.585   3.831  0.7939 -0.3397 -0.1850
 4501TIP3    H113509   5.977   3.529   3.884 -2.1102  0.0062  3.6026
 4501TIP3    H213510   5.866   3.524   3.780 -0.9449 -1.0829  2.3946
 4502TIP3   OH213511   0.791   2.321   0.056  0.1123  0.4200  0.2040
 4502TIP3    H113512   0.878   2.351   0.030  0.0364  0.8109  0.3975
 4502TIP3    H213513   0.800   2.297   0.148  0.1845 -0.1937  0.0341
 4503TIP3   OH213514   5.388   3.119   2.676  0.5514 -0.2830 -0.0028
 4503TIP3    H113515   5.411   3.043   2.623  1.8625  0.5572 -0.6438
 4503TIP3    H213516   5.438   3.107   2.757  4.2033  2.0402 -1.7737
 4504TIP3   OH213517   5.414   2.978   3.985  1.0172 -0.7603  0.5711
 4504TIP3    H113518   5.492   3.029   3.962  0.9666  0.0799  2.1676
 4504TIP3    H213519   5.445   2.916   4.051  0.6082 -1.3275  0.2335
 4505TIP3   OH213520   4.481   1.568   1.641  0.3679 -0.4373 -0.0753
 4505TIP3    H113521   4.531   1.629   1.696  1.0049 -0.5488 -0.5264
 4505TIP3    H213522   4.407   1.541   1.696  1.5422 -1.3207  1.0890
 4506TIP3   OH213523   5.004   1.617   3.050  0.0582  0.5097 -0.1934
 4506TIP3    H113524   4.987   1.609   2.956  2.2871 -0.1538 -0.5693
 4506TIP3    H213525   5.062   1.692   3.058  1.5830 -0.7265  0.4282
 4507TIP3   OH213526   5.174   3.380   3.314 -0.0571  0.4289 -0.3603
 4507TIP3    H113527   5.145   3.454   3.367 -0.4534 -0.5058  0.7610
 4507TIP3    H213528   5.268   3.374   3.330 -0.4878 -1.1019  1.9090
 4508TIP3   OH213529   0.615   1.395   0.971 -0.0446  0.4679 -0.0830
 4508TIP3    H113530   0.703   1.356   0.978 -1.0361 -1.5184  1.9095
 4508TIP3    H213531   0.571   1.342   0.904 -1.4057 -2.0066  2.6527
 4509TIP3   OH213532   3.042   2.177   4.576  0.0514  0.2438  0.4154
 4509TIP3    H113533   3.123   2.226   4.590 -0.6292  1.5374 -0.1286
 4509TIP3    H213534   2.997   2.180   4.660  0.4904 -0.3764  0.6850
 4510TIP3   OH213535   1.091   5.542   0.703 -0.1224  0.3081  0.1509
 4510TIP3    H113536   1.004   5.521   0.735 -0.7979  0.8678 -1.2829
 4510TIP3    H213537   1.092   5.637   0.695  1.0987  0.4362  1.4568
 4511TIP3   OH213538   0.271   2.877   1.923  0.2578 -0.1038 -0.2282
 4511TIP3    H113539   0.277   2.795   1.971 -1.5068 -0.6293 -0.8713
 4511TIP3    H213540   0.327   2.864   1.846 -0.0084 -0.7033 -0.3205
 4512TIP3   OH213541   4.339   3.242   3.998  0.1662  0.4648  0.0063
 4512TIP3    H113542   4.264   3.182   4.001  0.7933 -0.3252 -0.0017
 4512TIP3    H213543   4.308   3.317   3.948 -0.7265  0.2827  0.2802
 4513TIP3   OH213544   3.417   4.173   3.674  0.5551 -0.1219 -0.2723
 4513TIP3    H113545   3.404   4.267   3.677  2.3388  0.2073 -1.7069
 4513TIP3    H213546   3.377   4.146   3.591 -0.4461 -0.7081  0.4007
 4514TIP3   OH213547   4.090   2.576   2.128  0.0513 -0.1220  0.2357
 4514TIP3    H113548   4.035   2.621   2.064 -0.2828  0.4907  0.9518
 4514TIP3    H213549   4.152   2.643   2.157 -0.0286 -0.3034  0.8217
 4515TIP3   OH213550   3.730   2.194   2.393 -0.0959  0.7638 -0.4954
 4515TIP3    H113551   3.712   2.234   2.478 -1.3915  1.2032 -0.9582
 4515TIP3    H213552   3.654   2.217   2.339 -0.3045 -1.3190 -1.1357
 4516TIP3   OH213553  -0.018   1.604   5.088  0.2749  0.3044 -0.6160
 4516TIP3    H113554   0.068   1.564   5.102 -0.0346  0.0217  0.5976
 4516TIP3    H213555  -0.002   1.698   5.096  0.5054  0.2623 -0.5798
 4517TIP3   OH213556   6.010   5.527   1.069  0.0719  0.4749 -0.2042
 4517TIP3    H113557   6.082   5.524   1.005  0.6017  1.0503  0.3698
 4517TIP3    H213558   6.026   5.452   1.126  1.3432  1.7580  1.1415
 4518TIP3   OH213559   5.508   1.996   5.129 -0.8732  0.0387 -0.3075
 4518TIP3    H113560   5.434   1.941   5.155 -0.5909 -0.0836  0.2227
 4518TIP3    H213561   5.559   2.008   5.209 -0.3371  0.1575 -0.6667
 4519TIP3   OH213562   6.089   2.344   4.144 -0.1244 -0.3312 -0.1913
 4519TIP3    H113563   6.184   2.344   4.158 -0.0731  2.1956 -0.3333
 4519TIP3    H213564   6.055   2.285   4.211  1.4867 -0.7366  0.2971
 4520TIP3   OH213565   2.699   0.237   2.190 -0.3026 -0.7000  0.5068
 4520TIP3    H113566   2.769   0.263   2.250 -1.6881  0.7089  1.5602
 4520TIP3    H213567   2.693   0.311   2.129 -1.0601 -0.6807  0.6045
 4521TIP3   OH213568   4.476   1.381   2.341 -0.1672  0.5775  0.4283
 4521TIP3    H113569   4.520   1.458   2.304  0.2303 -0.3463 -1.0442
 4521TIP3    H213570   4.527   1.360   2.420  0.2826  1.2634  0.3248
 4522TIP3   OH213571   5.048   1.045   3.866 -1.3102  0.0981  0.2341
 4522TIP3    H113572   5.009   0.973   3.817 -2.1435  0.9399 -0.3516
 4522TIP3    H213573   5.135   1.013   3.890 -1.3821 -0.8095 -0.6751
 4523TIP3   OH213574   3.934   0.847   3.953  0.7064  0.2464 -0.3925
 4523TIP3    H113575   3.950   0.937   3.926 -0.3465  0.3341 -0.7379
 4523TIP3    H213576   3.846   0.827   3.921  0.4341 -0.4881  0.7771
 4524TIP3   OH213577   3.228   2.894   2.986  0.6012  0.3022 -0.1194
 4524TIP3    H113578   3.288   2.923   3.055  1.0496  0.8297 -0.7149
 4524TIP3    H213579   3.284   2.848   2.924  0.1932 -0.1978 -0.1153
 4525TIP3   OH213580   4.091   1.947   3.039 -0.4987  0.3126  0.2216
 4525TIP3    H113581   4.032   1.876   3.063  0.8653 -0.4967  1.2524
 4525TIP3    H213582   4.150   1.908   2.974  0.2777  0.4884  0.8143
 4526TIP3   OH213583   4.630   2.013   2.259 -0.1066  0.6104  0.1863
 4526TIP3    H113584   4.603   2.082   2.198  0.4613  1.2324  0.6288
 4526TIP3    H213585   4.666   2.061   2.334 -0.9658 -0.1531  1.0861
 4527TIP3   OH213586   6.421   2.247   2.881  0.1481  0.2984 -0.0729
 4527TIP3    H113587   6.336   2.289   2.873  0.2104  0.3306 -0.5895
 4527TIP3    H213588   6.458   2.283   2.962 -1.0566 -1.0360  1.1162
 4528TIP3   OH213589   4.804   2.536   4.096  0.6147  0.6772 -0.2697
 4528TIP3    H113590   4.850   2.503   4.018 -0.6130 -1.2463 -0.2157
 4528TIP3    H213591   4.715   2.555   4.065  0.0098 -0.4596  0.7356
 4529TIP3   OH213592   4.825   2.156   3.942  0.0736 -0.0256  0.5869
 4529TIP3    H113593   4.813   2.166   4.037  0.4742  1.4962  0.4856
 4529TIP3    H213594   4.738   2.134   3.909  0.1359 -1.6305  1.4296
 4530TIP3   OH213595   5.995   5.060   0.233 -0.0893 -0.0351 -0.0715
 4530TIP3    H113596   6.056   4.999   0.191  1.2297  0.2629  1.3747
 4530TIP3    H213597   5.927   5.074   0.167  0.3920 -1.8658 -1.0043
 4531TIP3   OH213598   5.009   1.613   2.750 -0.1632  0.3215 -0.2171
 4531TIP3    H113599   4.947   1.618   2.677 -1.8663  1.8092  1.2805
 4531TIP3    H213600   5.004   1.522   2.779  0.0060 -0.1067 -1.5005
 4532TIP3   OH213601   1.694   0.260   0.737  0.2009 -0.1434 -0.1219
 4532TIP3    H113602   1.785   0.260   0.707  0.1877 -0.6637 -0.1655
 4532TIP3    H213603   1.671   0.167   0.743  0.1519 -0.0478  1.3659
 4533TIP3   OH213604   0.792   2.666   3.717  0.0341 -0.1282  0.5868
 4533TIP3    H113605   0.752   2.587   3.754 -1.8324  0.8290  0.6576
 4533TIP3    H213606   0.811   2.642   3.626 -1.2174 -0.4367  0.3921
 4534TIP3   OH213607   0.297   5.229   0.538 -0.3371 -0.2342  0.7533
 4534TIP3    H113608   0.275   5.304   0.594 -1.9245  0.7227 -1.0877
 4534TIP3    H213609   0.244   5.157   0.572 -3.2757  0.9969 -1.0396
 4535TIP3   OH213610   4.873   2.813   4.454 -0.2504  0.1608 -0.0434
 4535TIP3    H113611   4.786   2.787   4.423  0.1840 -0.9429 -0.3487
 4535TIP3    H213612   4.916   2.849   4.376  0.1257 -0.7513 -0.2575
 4536TIP3   OH213613   1.446   3.815   1.560 -0.2336 -0.1051 -0.2710
 4536TIP3    H113614   1.491   3.741   1.520 -0.3761 -0.1506 -0.3478
 4536TIP3    H213615   1.359   3.781   1.581  0.2894 -0.4896  1.3247
 4537TIP3   OH213616   3.238   2.778   1.921 -0.3915  0.0082  0.3065
 4537TIP3    H113617   3.203   2.692   1.895  0.7890 -0.7823  1.2768
 4537TIP3    H213618   3.231   2.779   2.016 -0.2952  0.9653  0.3094
 4538TIP3   OH213619   3.106   0.178   1.235 -0.1551 -0.2331 -0.4516
 4538TIP3    H113620   3.065   0.091   1.231  2.1433 -1.4213  0.8331
 4538TIP3    H213621   3.187   0.169   1.186  0.7923  0.7672  0.9016
 4539TIP3   OH213622   5.175   2.256   3.557 -0.2958  0.0075 -0.5029
 4539TIP3    H113623   5.144   2.335   3.601  0.6804  0.4555 -0.5951
 4539TIP3    H213624   5.228   2.289   3.484  0.8002 -0.7309 -0.0534
 4540TIP3   OH213625   4.176   2.740   3.374 -0.3050  0.1539 -0.3155
 4540TIP3    H113626   4.161   2.748   3.469  1.6209  1.5625 -0.1049
 4540TIP3    H213627   4.089   2.724   3.338 -1.1863  0.3960  1.6214
 4541TIP3   OH213628   2.368   4.078   5.305 -0.1493  0.4745  0.4368
 4541TIP3    H113629   2.279   4.102   5.282  0.2553 -0.4587 -2.3639
 4541TIP3    H213630   2.422   4.150   5.270  0.2671  0.4821  1.0929
 4542TIP3   OH213631   4.828   0.784   4.800  0.3101  0.4467 -0.6413
 4542TIP3    H113632   4.832   0.747   4.712  0.3197  0.8327 -0.8037
 4542TIP3    H213633   4.910   0.755   4.841 -0.9423 -2.0834  0.1868
 4543TIP3   OH213634   4.601   0.751   3.706 -0.3316 -0.4577  0.0219
 4543TIP3    H113635   4.560   0.822   3.754 -0.4388  0.5033 -1.4489
 4543TIP3    H213636   4.583   0.673   3.758 -0.3272  0.5667  1.5857
 4544TIP3   OH213637   5.683   5.702   4.271 -0.3446 -0.0532 -0.3928
 4544TIP3    H113638   5.654   5.745   4.352 -1.0300  0.3110 -0.8286
 4544TIP3    H213639   5.724   5.772   4.221  1.7098 -0.6573  0.4055
 4545TIP3   OH213640   4.192   2.542   2.832  0.2282  0.2714  0.1113
 4545TIP3    H113641   4.213   2.585   2.915 -0.9088 -2.6689  2.0055
 4545TIP3    H213642   4.247   2.463   2.831  0.2915  0.3235 -1.9870
 4546TIP3   OH213643   4.970   4.308   4.528  0.5419 -0.1472 -0.0745
 4546TIP3    H113644   4.952   4.288   4.437 -2.2503 -0.8233  0.5828
 4546TIP3    H213645   4.985   4.403   4.530  2.7227 -0.4221 -1.4976
 4547TIP3   OH213646   5.534   3.200   3.148 -0.1894  0.3951  0.2666
 4547TIP3    H113647   5.474   3.149   3.094 -0.2136  0.9196 -0.1909
 4547TIP3    H213648   5.621   3.166   3.125 -0.3157 -0.5518  1.1233
 4548TIP3   OH213649   4.086   3.095   3.989 -0.4341  0.0305  0.0077
 4548TIP3    H113650   4.032   3.147   4.048 -0.4793 -1.7178  1.5284
 4548TIP3    H213651   4.023   3.058   3.926 -0.5244  0.9433 -0.4558
 4549TIP3   OH213652   3.256   2.330   3.629 -0.0571 -0.1668  0.4380
 4549TIP3    H113653   3.299   2.347   3.713 -1.2437 -2.3977  1.5299
 4549TIP3    H213654   3.187   2.396   3.624  1.6378  1.6148 -0.0123
 4550TIP3   OH213655   4.980   3.667   4.958  0.1696 -0.2803  0.1015
 4550TIP3    H113656   4.998   3.572   4.957 -1.3751 -0.5904  0.6314
 4550TIP3    H213657   4.903   3.678   4.903  0.4500  0.7105 -0.1053
 4551TIP3   OH213658   4.824   4.755   3.937  0.5156 -0.5059 -0.1734
 4551TIP3    H113659   4.809   4.681   3.995 -0.4559 -0.5971 -0.5304
 4551TIP3    H213660   4.914   4.782   3.954  0.6068 -1.2651  0.5295
 4552TIP3   OH213661   4.998   2.450   2.463 -0.6766 -0.2975  0.6422
 4552TIP3    H113662   4.974   2.507   2.537 -0.3479  0.8709 -0.1291
 4552TIP3    H213663   5.023   2.511   2.394 -0.8524 -1.3882 -0.3947
 4553TIP3   OH213664   0.635   2.329   3.618  0.1574 -0.3586  0.5497
 4553TIP3    H113665   0.687   2.360   3.691  0.9351 -0.1311 -0.0885
 4553TIP3    H213666   0.551   2.373   3.627  0.3301 -0.1536  1.1671
 4554TIP3   OH213667   3.181   4.390   3.361 -0.6641 -0.1914  0.2950
 4554TIP3    H113668   3.270   4.397   3.395 -1.4305  1.3236  2.0909
 4554TIP3    H213669   3.136   4.331   3.421 -1.4747  0.8697  0.7567
 4555TIP3   OH213670   3.666   3.397   3.851 -0.1245 -0.0781 -0.0520
 4555TIP3    H113671   3.724   3.404   3.926  1.2725 -0.3872 -1.0788
 4555TIP3    H213672   3.604   3.469   3.861  0.4233  0.2431  1.0613
 4556TIP3   OH213673   4.759   1.523   4.248 -0.0917 -0.7837  0.4752
 4556TIP3    H113674   4.666   1.546   4.260  0.0956  0.6613 -0.7378
 4556TIP3    H213675   4.767   1.502   4.155  0.3690 -3.0267  0.9982
 4557TIP3   OH213676   3.674   0.654   3.331 -0.6461 -0.7256  0.2426
 4557TIP3    H113677   3.667   0.723   3.397 -0.9018 -1.4300  0.9691
 4557TIP3    H213678   3.768   0.648   3.312 -0.7842  0.9008 -1.0037
 4558TIP3   OH213679   6.473   3.587   0.929  0.5594 -0.2806 -0.0876
 4558TIP3    H113680   6.556   3.553   0.895  1.2364  0.0075  1.2201
 4558TIP3    H213681   6.407   3.555   0.868  1.6431 -0.4500 -1.1939
 4559TIP3   OH213682   5.488   5.942   0.018  0.4650 -0.0069  0.0020
 4559TIP3    H113683   5.509   5.993   0.097  0.1681  1.1992 -0.6878
 4559TIP3    H213684   5.529   5.991  -0.053 -0.4838 -0.3222 -0.7645
 4560TIP3   OH213685   4.245   2.623   4.442  0.7885 -0.2009  0.0364
 4560TIP3    H113686   4.204   2.557   4.498  1.0313 -0.0139  0.4333
 4560TIP3    H213687   4.324   2.580   4.409  1.2166  0.0715  0.7049
 4561TIP3   OH213688   1.026   4.517   4.472 -0.0277  0.2125  0.3226
 4561TIP3    H113689   1.076   4.557   4.401 -0.1057 -0.3750 -0.0666
 4561TIP3    H213690   1.092   4.479   4.529 -0.0380 -1.0920 -0.5075
 4562TIP3   OH213691   1.627   4.220   0.545 -0.0254 -0.2804 -0.4942
 4562TIP3    H113692   1.662   4.154   0.485  0.6638 -0.1783 -0.2128
 4562TIP3    H213693   1.665   4.302   0.514 -0.8952 -0.0119 -0.8536
 4563TIP3   OH213694   0.345   2.826   0.912 -0.1125 -0.5696 -0.3013
 4563TIP3    H113695   0.366   2.765   0.983 -0.9256 -1.3474 -0.7114
 4563TIP3    H213696   0.430   2.854   0.878  0.2747 -0.8903  0.3849
 4564TIP3   OH213697   0.069   0.195   0.348  0.1042  0.9061 -0.3947
 4564TIP3    H113698   0.041   0.217   0.437 -0.6878  1.6377 -0.8241
 4564TIP3    H213699   0.114   0.111   0.358  1.4675  1.7524  0.9542
 4565TIP3   OH213700   3.414   2.142   2.508 -0.1750 -0.5561  0.1087
 4565TIP3    H113701   3.437   2.235   2.515 -0.0883 -0.3692 -2.2170
 4565TIP3    H213702   3.393   2.116   2.598  1.2275  1.3310  1.0279
 4566TIP3   OH213703   5.504   3.874   4.881 -0.4283 -0.2600  0.3486
 4566TIP3    H113704   5.547   3.883   4.967  0.3986 -0.9930  0.0197
 4566TIP3    H213705   5.577   3.864   4.819 -1.0437 -0.3906 -0.3618
 4567TIP3   OH213706   4.181   2.822   4.622 -0.0138  0.4237  0.1233
 4567TIP3    H113707   4.221   2.757   4.563  0.3772  1.0181 -0.2709
 4567TIP3    H213708   4.164   2.773   4.703 -2.7901 -1.0399 -1.2906
 4568TIP3   OH213709   1.440   1.025   3.341 -0.5457  0.0447 -0.4009
 4568TIP3    H113710   1.464   1.060   3.255  0.7201  2.8796  1.0386
 4568TIP3    H213711   1.352   1.060   3.357 -0.1557  0.7926  0.1136
 4569TIP3   OH213712   3.988   0.349   4.639 -0.4101 -0.4387 -0.2831
 4569TIP3    H113713   3.909   0.302   4.613 -0.0772 -0.6256 -0.9712
 4569TIP3    H213714   4.033   0.367   4.557  0.1170 -0.0713  0.0826
 4570TIP3   OH213715   4.607   2.584   2.210 -0.2932 -0.3981 -0.5235
 4570TIP3    H113716   4.564   2.585   2.296 -0.1469 -1.5248 -0.4215
 4570TIP3    H213717   4.679   2.521   2.220 -0.0034 -0.1994 -1.3388
 4571TIP3   OH213718   6.323   2.725   4.156 -0.1112 -0.2556  0.4925
 4571TIP3    H113719   6.357   2.685   4.236 -1.5360 -0.8199  0.8369
 4571TIP3    H213720   6.231   2.745   4.176 -0.0540  1.0330 -0.4775
 4572TIP3   OH213721   6.074   5.315   0.265  0.3918  0.4420  0.0418
 4572TIP3    H113722   6.064   5.220   0.257  2.2721  0.2680 -0.4352
 4572TIP3    H213723   6.052   5.349   0.178  0.3315  0.3949  0.0385
 4573TIP3   OH213724   6.161   0.687   4.664  0.4220  0.2165 -0.2226
 4573TIP3    H113725   6.236   0.724   4.712 -0.3817 -0.1276  1.3244
 4573TIP3    H213726   6.150   0.599   4.702 -2.7337  1.4174  1.7921
 4574TIP3   OH213727   0.260   2.010   4.075 -0.4665  0.3019  0.6389
 4574TIP3    H113728   0.285   1.976   4.161 -0.6016 -0.4694  0.3688
 4574TIP3    H213729   0.180   1.964   4.052 -0.5334  0.6392  0.1763
 4575TIP3   OH213730   3.908   2.989   3.817 -0.1037 -0.2201  0.7857
 4575TIP3    H113731   3.904   3.057   3.749  0.5133 -1.2979 -0.3559
 4575TIP3    H213732   3.825   2.942   3.809 -0.0113 -0.3768  0.7357
 4576TIP3   OH213733   0.546   5.737   0.168  0.1045 -0.4516  0.3451
 4576TIP3    H113734   0.466   5.727   0.116 -0.7376  0.8770  1.3706
 4576TIP3    H213735   0.542   5.666   0.233  0.1040 -0.7893 -0.0173
 4577TIP3   OH213736   6.229   1.410   1.883 -0.4168  0.2881  0.1287
 4577TIP3    H113737   6.279   1.491   1.888 -1.7750  1.1089  0.7630
 4577TIP3    H213738   6.243   1.378   1.794  0.2610  1.1317 -0.0716
 4578TIP3   OH213739   3.678   2.241   4.837 -0.0946  0.2989  0.0587
 4578TIP3    H113740   3.597   2.223   4.790 -1.4924  1.3030  2.0431
 4578TIP3    H213741   3.741   2.178   4.801 -1.5775 -0.0999 -1.9063
 4579TIP3   OH213742   3.088   2.154   3.961 -0.5677  0.2522  0.2450
 4579TIP3    H113743   3.071   2.248   3.971 -0.6443  0.2826 -0.1399
 4579TIP3    H213744   3.120   2.146   3.871  0.2320  0.0238  0.5472
 4580TIP3   OH213745   0.056   4.318   3.536  0.6018 -0.6372 -0.7537
 4580TIP3    H113746   0.093   4.231   3.550 -2.7602 -1.7313  1.7120
 4580TIP3    H213747  -0.037   4.303   3.523 -0.0406  2.6135 -0.1982
 4581TIP3   OH213748   3.753   2.844   5.265 -0.3344  0.2229  0.1472
 4581TIP3    H113749   3.687   2.777   5.244  1.0217 -0.6336 -1.5284
 4581TIP3    H213750   3.752   2.903   5.190 -0.2552  1.0842  0.8143
 4582TIP3   OH213751   4.192   4.257   4.383 -0.1399 -0.1868  0.6013
 4582TIP3    H113752   4.200   4.352   4.374  1.1472 -0.4476 -1.3291
 4582TIP3    H213753   4.272   4.231   4.429 -0.5853 -0.3385  1.3061
 4583TIP3   OH213754   0.323   5.905   0.269 -0.1945 -0.5887  0.0923
 4583TIP3    H113755   0.347   5.827   0.220 -1.1241 -1.7598  1.4906
 4583TIP3    H213756   0.229   5.916   0.254 -0.0474  0.3464 -0.2067
 4584TIP3   OH213757   4.114   0.671   1.887 -0.3439  0.0826 -0.3215
 4584TIP3    H113758   4.070   0.589   1.865 -0.8875 -0.2212  1.8450
 4584TIP3    H213759   4.091   0.688   1.978  0.6236  2.1033 -0.4175
 4585TIP3   OH213760   2.100   1.772   1.179 -0.2722 -0.2552 -0.0775
 4585TIP3    H113761   2.155   1.726   1.116  1.0211  1.4520 -0.2261
 4585TIP3    H213762   2.028   1.711   1.196  1.3518 -2.3197 -0.2875
 4586TIP3   OH213763   4.930   2.591   3.193  0.1864  0.3899 -0.2119
 4586TIP3    H113764   4.927   2.638   3.110 -1.8900 -0.6653 -0.7632
 4586TIP3    H213765   4.942   2.499   3.169  2.9351  0.4471  0.8044
 4587TIP3   OH213766   3.330   1.932   0.434  0.5309  0.2224  0.7420
 4587TIP3    H113767   3.410   1.908   0.480  0.3640  1.7899  1.8804
 4587TIP3    H213768   3.262   1.874   0.469  0.9999 -0.5922  0.3148
 4588TIP3   OH213769   3.782   3.320   4.925  0.6127  0.3439 -0.0745
 4588TIP3    H113770   3.861   3.269   4.943  1.1127  1.4104  0.8806
 4588TIP3    H213771   3.800   3.363   4.841  1.5204  1.4361  0.6579
 4589TIP3   OH213772   5.320   2.208   4.401  0.8663  0.2406  0.7925
 4589TIP3    H113773   5.248   2.243   4.347 -0.2176 -1.1248  1.2963
 4589TIP3    H213774   5.399   2.235   4.355 -0.0239 -0.5443 -1.2916
 4590TIP3   OH213775   0.230   3.191   4.869 -0.9395 -0.0960 -0.6185
 4590TIP3    H113776   0.291   3.139   4.816  1.1292  1.0665  0.5430
 4590TIP3    H213777   0.178   3.125   4.916 -0.4852 -1.1186 -1.5222
 4591TIP3   OH213778   4.865   1.604   3.402 -0.1429 -0.0101  0.4371
 4591TIP3    H113779   4.934   1.657   3.363 -0.1798 -0.6405 -0.5180
 4591TIP3    H213780   4.802   1.668   3.435  0.3006  0.5537  0.2064
 4592TIP3   OH213781   5.655   2.460   3.849  0.4273 -0.3931  0.0282
 4592TIP3    H113782   5.688   2.386   3.900  1.1053 -0.2714 -0.2341
 4592TIP3    H213783   5.730   2.519   3.840 -0.4057  0.8886  1.2309
 4593TIP3   OH213784   5.407   2.424   3.639  0.5648 -0.4321 -0.1371
 4593TIP3    H113785   5.443   2.475   3.567  0.2539 -0.0427 -0.0200
 4593TIP3    H213786   5.483   2.394   3.688  0.7808 -0.7465 -0.6555
 4594TIP3   OH213787   5.871   3.775   3.327  0.2796  0.5746  0.3238
 4594TIP3    H113788   5.802   3.725   3.283 -0.1817  0.3933  1.2381
 4594TIP3    H213789   5.826   3.817   3.401  0.9318  1.3038  0.3086
 4595TIP3   OH213790   5.939   4.589   3.342  0.0694  0.1346 -0.2539
 4595TIP3    H113791   5.896   4.561   3.422 -1.1234  0.8658 -0.6328
 4595TIP3    H213792   5.930   4.514   3.282  0.4572 -0.1928  0.0954
 4596TIP3   OH213793   3.156   2.753   4.024 -0.7455 -0.3025  0.7248
 4596TIP3    H113794   3.123   2.810   4.093 -1.8413  1.1074 -0.9400
 4596TIP3    H213795   3.142   2.801   3.943  2.1516 -1.1620 -0.3846
 4597TIP3   OH213796   2.287   2.195   4.215 -0.4462  0.0351 -0.1954
 4597TIP3    H113797   2.317   2.106   4.198 -5.0448 -1.4466 -1.0742
 4597TIP3    H213798   2.318   2.246   4.139  0.3973 -1.2342 -0.7139
 4598TIP3   OH213799   4.424   2.945   3.227  0.1857 -0.4102 -0.4127
 4598TIP3    H113800   4.427   2.851   3.213  1.2481 -0.5304  0.5429
 4598TIP3    H213801   4.516   2.972   3.229 -0.1100  0.8161 -1.7512
 4599TIP3   OH213802   2.609   0.680   1.412 -0.1519 -0.0254 -0.4154
 4599TIP3    H113803   2.612   0.650   1.321  1.4825  0.6230 -0.5826
 4599TIP3    H213804   2.578   0.604   1.462  0.4887 -0.8768 -1.3032
 4600TIP3   OH213805   2.399   0.082   0.589 -0.0718 -0.4848 -0.1408
 4600TIP3    H113806   2.349   0.160   0.612  1.1148 -0.0723  1.0380
 4600TIP3    H213807   2.332   0.013   0.582 -1.1119  0.5836 -1.0975
 4601TIP3   OH213808   4.224   1.287   4.486 -0.1909 -0.6720  0.1293
 4601TIP3    H113809   4.312   1.284   4.449 -0.3229 -0.9068 -0.1722
 4601TIP3    H213810   4.231   1.242   4.570 -0.1057 -1.0159 -0.0639
 4602TIP3   OH213811   3.908   1.263   4.473  0.3306  0.0672 -0.5555
 4602TIP3    H113812   3.963   1.194   4.511  1.8134  1.1533 -0.6467
 4602TIP3    H213813   3.830   1.265   4.528  0.5581 -1.2468 -0.1652
 4603TIP3   OH213814   3.131   3.770   5.088 -0.0096 -0.3030  0.4070
 4603TIP3    H113815   3.146   3.841   5.026 -0.5318  0.3929  1.0525
 4603TIP3    H213816   3.163   3.691   5.044 -2.3368 -0.1783 -1.6320
 4604TIP3   OH213817   5.179   4.104   4.185  0.5362 -0.1222 -0.2133
 4604TIP3    H113818   5.231   4.107   4.105  0.4661  3.1007 -0.1975
 4604TIP3    H213819   5.088   4.107   4.154  0.4981  0.5279 -0.0398
 4605TIP3   OH213820   1.865   6.030   1.269 -0.3175 -0.3799  0.6785
 4605TIP3    H113821   1.876   5.951   1.322 -0.0159 -0.1940  0.8923
 4605TIP3    H213822   1.955   6.060   1.251 -0.4295 -0.1282  0.5332
 4606TIP3   OH213823   2.875   2.087   3.614  0.4739 -0.0142 -0.4264
 4606TIP3    H113824   2.834   2.170   3.592 -1.6856 -0.7674  0.6023
 4606TIP3    H213825   2.959   2.110   3.654 -0.8993  1.7242  1.5226
 4607TIP3   OH213826   5.973   4.749   1.022  0.6709 -0.4852  0.3406
 4607TIP3    H113827   5.971   4.658   1.049  4.1150 -1.1654 -1.4142
 4607TIP3    H213828   5.955   4.746   0.927 -0.2275  0.7809  0.4520
 4608TIP3   OH213829   4.015   2.344   3.719  0.7620  0.7692  0.3144
 4608TIP3    H113830   4.015   2.439   3.735 -1.0289  0.8606 -0.1519
 4608TIP3    H213831   4.028   2.335   3.625 -0.8003  0.6102  0.1084
 4609TIP3   OH213832   4.528   2.527   4.698 -0.2120  0.1496  0.1759
 4609TIP3    H113833   4.576   2.512   4.780  1.1852  1.6742 -0.3374
 4609TIP3    H213834   4.584   2.489   4.630 -0.5111  0.4986 -0.2686
 4610TIP3   OH213835   5.648   4.963   0.337  0.0933  0.2152  0.5235
 4610TIP3    H113836   5.569   4.911   0.323 -0.5693  1.4765 -0.5167
 4610TIP3    H213837   5.673   4.944   0.428 -0.8198 -0.9696  0.5466
 4611TIP3   OH213838   4.471   3.178   4.242  0.3890 -0.0520  0.5910
 4611TIP3    H113839   4.472   3.083   4.241  2.4421 -0.0548  0.4551
 4611TIP3    H213840   4.437   3.202   4.155  1.7098 -0.6821 -0.1276
 4612TIP3   OH213841   3.676   4.529   4.648  0.1037  0.1531 -0.2496
 4612TIP3    H113842   3.634   4.451   4.685  1.8069 -0.2106  0.9769
 4612TIP3    H213843   3.743   4.493   4.589  0.7182  0.6650  0.1268
 4613TIP3   OH213844   0.058   2.839   3.725 -0.3377 -0.1404 -0.6006
 4613TIP3    H113845   0.003   2.857   3.648  0.4501  1.0855 -0.8998
 4613TIP3    H213846   0.000   2.855   3.800 -1.1127 -1.3481 -0.9291
 4614TIP3   OH213847   4.969   2.598   4.627 -0.0646 -0.0280 -0.0607
 4614TIP3    H113848   4.918   2.631   4.553  0.7662  1.0028 -0.1875
 4614TIP3    H213849   4.928   2.636   4.704 -0.6030 -0.6753 -0.0197
 4615TIP3   OH213850   4.760   3.585   2.328  0.0597 -0.1852  0.3486
 4615TIP3    H113851   4.822   3.531   2.377  0.8153 -0.4035 -0.8355
 4615TIP3    H213852   4.675   3.544   2.344  0.0106  0.8500  3.0093
 4616TIP3   OH213853   5.910   1.301   1.761 -0.2538 -0.2969  0.5681
 4616TIP3    H113854   6.003   1.295   1.739 -0.2653  0.8522  0.1573
 4616TIP3    H213855   5.900   1.246   1.838  0.3645 -2.0526 -0.5828
 4617TIP3   OH213856   6.318   3.840   2.327 -0.1914  0.5839  0.1890
 4617TIP3    H113857   6.352   3.929   2.331 -2.8929  1.6192  1.4265
 4617TIP3    H213858   6.246   3.845   2.264 -0.1559 -0.8219  0.0126
 4618TIP3   OH213859   5.092   1.775   3.297  0.5568  0.1666  0.3513
 4618TIP3    H113860   5.168   1.789   3.239 -0.6455 -2.3361 -1.9011
 4618TIP3    H213861   5.030   1.843   3.271  0.4651 -0.2531 -0.5470
 4619TIP3   OH213862   5.945   3.317   2.805  0.2550  0.2206 -0.3932
 4619TIP3    H113863   6.041   3.323   2.813  0.2121  0.9333 -0.3893
 4619TIP3    H213864   5.928   3.335   2.713  0.0996  0.3736 -0.3336
 4620TIP3   OH213865   4.859   1.901   3.416  0.3632 -0.7026  0.1933
 4620TIP3    H113866   4.926   1.901   3.486  1.6369 -0.7592 -0.9992
 4620TIP3    H213867   4.814   1.984   3.427  1.2216 -0.2608  0.4766
 4621TIP3   OH213868  -0.005   4.493   3.758 -0.5865 -0.2489 -0.1404
 4621TIP3    H113869   0.042   4.442   3.825 -1.5928 -0.6410  0.2769
 4621TIP3    H213870   0.031   4.461   3.675  0.7454  0.3112  0.2025
 4622TIP3   OH213871   3.208   4.953   4.309 -0.0305 -0.3309 -0.7992
 4622TIP3    H113872   3.286   4.899   4.319  0.1940  0.5462  3.0066
 4622TIP3    H213873   3.135   4.891   4.315  0.2977 -0.6368  0.1736
 4623TIP3   OH213874   0.396   5.908   1.747  0.0441  0.0646 -0.1385
 4623TIP3    H113875   0.361   5.995   1.730 -0.4216  0.3146  2.0001
 4623TIP3    H213876   0.352   5.851   1.684  0.9217  1.4713 -2.0664
 4624TIP3   OH213877   1.664   2.709   3.925  0.0980 -0.5788 -0.1903
 4624TIP3    H113878   1.600   2.696   3.995 -0.6929 -1.1512 -1.0078
 4624TIP3    H213879   1.748   2.719   3.970 -0.6780  1.0236  0.9358
 4625TIP3   OH213880   5.940   2.965   3.197 -0.5027  0.2262 -0.2637
 4625TIP3    H113881   5.967   2.924   3.114 -0.1022 -2.1331  0.9670
 4625TIP3    H213882   5.873   2.906   3.231 -1.1000  1.5151  0.7999
 4626TIP3   OH213883   5.662   2.850   2.181 -0.6495  0.2331  0.3716
 4626TIP3    H113884   5.637   2.760   2.202 -2.4877  0.4500 -0.8505
 4626TIP3    H213885   5.686   2.847   2.088  2.3834  0.3651  1.0963
 4627TIP3   OH213886   6.227   5.008   0.048  0.5841  0.3571 -0.3447
 4627TIP3    H113887   6.182   4.990  -0.035  0.1567  0.8897 -0.2316
 4627TIP3    H213888   6.262   5.096   0.037  2.3903 -0.3953 -0.7713
 4628TIP3   OH213889   6.272   1.598   4.888  0.1558 -0.0279  0.1072
 4628TIP3    H113890   6.354   1.595   4.937  0.0319 -1.3092  0.2496
 4628TIP3    H213891   6.254   1.691   4.877  1.3623  0.2629  0.5267
 4629TIP3   OH213892   2.913   0.366   1.967 -0.3459 -0.5633  0.0718
 4629TIP3    H113893   2.910   0.270   1.965 -3.1153 -0.5388  1.6565
 4629TIP3    H213894   2.955   0.389   1.884  0.1854 -3.1374 -0.4400
 4630TIP3   OH213895   6.345   1.346   5.233  0.4469  0.5125  0.0149
 4630TIP3    H113896   6.424   1.363   5.182  0.7986  1.9281  1.0036
 4630TIP3    H213897   6.375   1.346   5.324 -0.6140  0.5688  0.3706
 4631TIP3   OH213898   0.839   3.205   2.735  0.5972 -0.0955 -0.8428
 4631TIP3    H113899   0.848   3.125   2.683  1.3846  0.3882 -1.4537
 4631TIP3    H213900   0.886   3.186   2.816 -1.3155 -1.1467  0.0621
 4632TIP3   OH213901   5.679   5.365   0.950 -0.5809 -0.2967  0.4079
 4632TIP3    H113902   5.731   5.382   0.872 -2.1404 -0.7379 -0.7599
 4632TIP3    H213903   5.600   5.418   0.939 -1.3136 -1.1944  1.1524
 4633TIP3   OH213904   4.761   3.301   4.178  0.3141  0.2383 -0.1532
 4633TIP3    H113905   4.827   3.262   4.235  1.4169 -0.4779 -1.9060
 4633TIP3    H213906   4.725   3.227   4.129  1.6952  1.2421 -2.7567
 4634TIP3   OH213907   1.331   5.906   0.435 -0.0316 -0.1562  0.1237
 4634TIP3    H113908   1.317   5.989   0.481 -2.2257 -1.1452  1.3491
 4634TIP3    H213909   1.389   5.856   0.492 -0.4895 -0.2929  0.4788
 4635TIP3   OH213910   4.832   1.484   2.262 -0.4553  0.0803  0.4553
 4635TIP3    H113911   4.903   1.478   2.326  0.0008  1.2380  0.0609
 4635TIP3    H213912   4.765   1.537   2.305  0.0996  1.3554 -0.2522
 4636TIP3   OH213913   5.269   2.027   2.236 -0.1164 -0.8799  0.5374
 4636TIP3    H113914   5.189   2.030   2.184 -0.7126  0.5844  1.5056
 4636TIP3    H213915   5.324   2.095   2.198 -0.2409 -0.3392  1.3204
 4637TIP3   OH213916   4.912   5.050   3.785 -0.3338 -0.0919  0.8575
 4637TIP3    H113917   4.837   5.018   3.835  1.1425 -1.3420  2.3354
 4637TIP3    H213918   4.956   5.112   3.843  0.4973 -0.3457  0.5087
 4638TIP3   OH213919   5.849   2.767   3.685 -0.5278 -0.6163 -0.2044
 4638TIP3    H113920   5.847   2.678   3.649 -1.4510 -0.8843  0.4777
 4638TIP3    H213921   5.773   2.810   3.645 -0.8493 -0.5450  0.4697
 4639TIP3   OH213922   6.071   5.024   3.960 -1.0498  0.2862  0.7920
 4639TIP3    H113923   6.062   4.985   3.873  0.5414 -1.7467  1.4797
 4639TIP3    H213924   6.088   5.117   3.943  1.5104 -0.4788 -1.1759
 4640TIP3   OH213925   5.379   3.961   2.915 -0.0462 -0.4015  0.0249
 4640TIP3    H113926   5.303   4.002   2.873  0.9523  1.3306 -0.1056
 4640TIP3    H213927   5.368   3.867   2.897 -3.9020 -0.6030  2.8609
 4641TIP3   OH213928   4.486   5.654   3.412 -0.0152 -0.1572 -0.2409
 4641TIP3    H113929   4.574   5.633   3.380  0.5422  0.4557  0.8552
 4641TIP3    H213930   4.477   5.603   3.492 -0.1779  0.7481  0.3219
 4642TIP3   OH213931   5.621   3.007   4.229  0.0735  0.0531  0.2776
 4642TIP3    H113932   5.658   3.069   4.291  0.4126 -0.5644  0.6986
 4642TIP3    H213933   5.549   2.965   4.277 -1.2767  1.3408 -0.5725
 4643TIP3   OH213934   6.385   1.252   3.854 -0.3034 -0.4123 -0.2766
 4643TIP3    H113935   6.405   1.274   3.763 -1.8284  0.3710 -0.4392
 4643TIP3    H213936   6.428   1.168   3.869  0.9084  0.0097 -1.3742
 4644TIP3   OH213937   5.432   0.579   5.174 -0.0759  0.2210  0.8516
 4644TIP3    H113938   5.407   0.593   5.266  1.1020 -0.6069  1.2998
 4644TIP3    H213939   5.527   0.574   5.175 -0.0608  0.0972 -0.4164
 4645TIP3   OH213940   0.475   5.805   1.050  0.0747  0.3097  0.0663
 4645TIP3    H113941   0.561   5.834   1.078  0.2509  1.2746 -1.4319
 4645TIP3    H213942   0.429   5.885   1.023 -1.0535 -0.2640  0.2206
 4646TIP3   OH213943   4.242   2.695   5.138  0.2033 -0.5658  0.4546
 4646TIP3    H113944   4.214   2.749   5.212 -0.5886 -0.4151  0.0470
 4646TIP3    H213945   4.224   2.605   5.166  2.0781 -0.6724  1.3693
 4647TIP3   OH213946   4.885   5.091   4.637  0.0706  0.3490  0.1317
 4647TIP3    H113947   4.899   5.043   4.718 -2.7664  1.3650  1.2851
 4647TIP3    H213948   4.964   5.145   4.627  1.2465 -1.1336  1.2108
 4648TIP3   OH213949   0.288   3.760   3.732  0.5187  0.1012  0.1799
 4648TIP3    H113950   0.370   3.776   3.778  1.0995  1.6723 -1.3241
 4648TIP3    H213951   0.274   3.840   3.680 -1.1566 -0.7761 -0.7674
 4649TIP3   OH213952   2.689   1.725   4.141 -0.5492  0.2516 -0.0136
 4649TIP3    H113953   2.641   1.700   4.062  0.6027  0.4633 -0.7899
 4649TIP3    H213954   2.780   1.731   4.113  0.1417 -1.4579  1.7368
 4650TIP3   OH213955   4.225   0.799   3.982 -0.6091  0.0513 -0.3238
 4650TIP3    H113956   4.235   0.838   4.069 -0.1474 -0.9611  0.0817
 4650TIP3    H213957   4.130   0.795   3.969 -0.7139 -1.0368  0.7107
 4651TIP3   OH213958   1.640   1.418   5.147 -0.5520  0.3540  0.4443
 4651TIP3    H113959   1.652   1.462   5.231 -0.4821 -1.2435  1.2786
 4651TIP3    H213960   1.729   1.402   5.116 -0.5734  1.3817 -0.1904
 4652TIP3   OH213961   5.540   2.493   5.004 -0.1548 -0.1127  0.0453
 4652TIP3    H113962   5.549   2.495   5.099  0.0416  0.3006  0.0190
 4652TIP3    H213963   5.506   2.405   4.985 -4.6015  1.3380  0.8308
 4653TIP3   OH213964   5.959   1.286   5.161  0.4666 -0.0472 -0.0310
 4653TIP3    H113965   6.020   1.284   5.087  2.0604  0.6837  1.2204
 4653TIP3    H213966   5.911   1.368   5.150 -0.6990 -0.8974 -1.3346
 4654TIP3   OH213967   3.829   2.775   2.862  0.1554  0.4362  0.1242
 4654TIP3    H113968   3.866   2.764   2.950 -1.7089  0.4904  0.9275
 4654TIP3    H213969   3.810   2.868   2.856 -1.0907  0.1905  0.2187
 4655TIP3   OH213970   5.469   5.730   1.961  0.0222 -0.1028 -0.1559
 4655TIP3    H113971   5.385   5.733   2.007 -0.1429  0.8223 -0.5101
 4655TIP3    H213972   5.477   5.817   1.920  1.3045 -0.0635  0.1599
 4656TIP3   OH213973   2.670   1.009   4.602  0.2767 -0.5010  0.2572
 4656TIP3    H113974   2.724   0.985   4.677  1.4819  0.8729 -0.1546
 4656TIP3    H213975   2.639   1.097   4.621 -0.8599 -0.8164 -0.0681
 4657TIP3   OH213976   3.504   1.635   5.009  0.0688 -0.1103 -0.2002
 4657TIP3    H113977   3.501   1.594   5.096 -2.6633 -1.2211 -0.7541
 4657TIP3    H213978   3.590   1.612   4.975  1.6675  1.3702  2.6715
 4658TIP3   OH213979   4.661   1.739   4.716  0.6035 -0.0605  0.7805
 4658TIP3    H113980   4.677   1.834   4.718 -1.1258  0.2227  2.2350
 4658TIP3    H213981   4.703   1.706   4.796  2.9945 -0.8590 -0.7453
 4659TIP3   OH213982   5.143   3.721   4.519  0.3006  0.2648 -0.3217
 4659TIP3    H113983   5.186   3.736   4.603  2.6146 -0.7299 -1.2818
 4659TIP3    H213984   5.180   3.788   4.461  1.6213 -1.4324 -1.5016
 4660TIP3   OH213985   0.581   2.401   2.980  0.1517  0.1417  0.2848
 4660TIP3    H113986   0.612   2.314   2.954 -0.9375  0.2418 -1.4336
 4660TIP3    H213987   0.655   2.459   2.966  0.6300 -0.3799  0.6501
 4661TIP3   OH213988   4.546   2.199   3.363  0.9732 -0.2961  0.1010
 4661TIP3    H113989   4.511   2.114   3.335 -0.7812  0.8083 -1.1573
 4661TIP3    H213990   4.499   2.219   3.444  1.2776 -0.4445  0.3164
 4662TIP3   OH213991   0.445   5.497   1.500  0.7551  0.0106  0.2398
 4662TIP3    H113992   0.408   5.420   1.543  0.3578 -1.6311 -2.9097
 4662TIP3    H213993   0.471   5.466   1.413  1.0317  3.3279 -0.9243
 4663TIP3   OH213994   6.420   3.310   3.636 -0.0035 -0.0289  0.3671
 4663TIP3    H113995   6.395   3.222   3.607  0.6866  0.0135 -0.4015
 4663TIP3    H213996   6.340   3.362   3.626 -0.3258 -0.4908  0.5057
 4664TIP3   OH213997   0.188   3.046   3.256  0.2359  0.2057 -0.5128
 4664TIP3    H113998   0.108   3.091   3.227 -0.0868 -1.0524 -1.6255
 4664TIP3    H213999   0.208   2.985   3.185  1.7060 -0.1049  0.1559
 4665TIP3   OH214000   5.102   2.049   5.030  0.3117 -0.1020  0.1524
 4665TIP3    H114001   5.152   2.128   5.048 -0.2777  0.0418  1.1792
 4665TIP3    H214002   5.144   1.981   5.082 -0.9933  0.1773  1.6242
 4666TIP3   OH214003   6.130   1.821   5.203  0.7500 -0.5384  0.3588
 4666TIP3    H114004   6.184   1.879   5.149  0.1662 -0.0627  0.2873
 4666TIP3    H214005   6.192   1.786   5.267  1.0847  0.2919  0.5067
 4667TIP3   OH214006   1.020   5.385   0.300  0.4063 -0.5087  0.4021
 4667TIP3    H114007   1.055   5.386   0.211 -0.8639  0.6075 -0.1121
 4667TIP3    H214008   1.018   5.477   0.326  0.2369 -0.7778  1.3683
 4668TIP3   OH214009   4.335   4.484   2.982 -0.3425  0.5086 -0.5667
 4668TIP3    H114010   4.339   4.394   2.951 -1.8742 -0.1688  1.1124
 4668TIP3    H214011   4.269   4.526   2.927 -2.9435 -0.6503  1.5126
 4669TIP3   OH214012   4.678   2.550   0.078  0.0265  0.1237  0.1947
 4669TIP3    H114013   4.648   2.621   0.135 -0.4236  1.3678 -1.5417
 4669TIP3    H214014   4.602   2.492   0.070 -0.8017  1.3816 -1.3065
 4670TIP3   OH214015   5.731   3.846   3.552 -0.3907  0.6133 -0.2154
 4670TIP3    H114016   5.674   3.910   3.510 -0.6969  0.0917 -0.6063
 4670TIP3    H214017   5.674   3.803   3.616 -0.1189  0.9086  0.2203
 4671TIP3   OH214018   0.159   5.216   4.233  0.2584  0.2635 -0.3319
 4671TIP3    H114019   0.183   5.130   4.268  0.0631  0.7719  1.1152
 4671TIP3    H214020   0.231   5.238   4.173  1.4706  0.0737  1.0173
 4672TIP3   OH214021   6.447   0.463   4.728 -0.0779  0.3113  0.0123
 4672TIP3    H114022   6.407   0.379   4.708 -0.1695  0.7805 -1.8331
 4672TIP3    H214023   6.497   0.486   4.650  0.6504  1.5707  0.8202
 4673TIP3   OH214024   4.225   1.100   4.738 -0.5927  0.0667 -0.3496
 4673TIP3    H114025   4.166   1.135   4.804 -1.8699 -0.8641 -0.9754
 4673TIP3    H214026   4.308   1.088   4.783 -1.1528  0.4660  0.7973
 4674TIP3   OH214027   0.879   3.728   3.596  0.1952 -0.1260 -0.4717
 4674TIP3    H114028   0.791   3.766   3.590  0.0438 -0.5319 -0.8419
 4674TIP3    H214029   0.864   3.636   3.619  0.5522 -0.0019  0.2452
 4675TIP3   OH214030   5.781   3.360   3.057  0.5677 -0.4065 -0.2054
 4675TIP3    H114031   5.825   3.367   2.973  0.0940 -1.2611 -0.5388
 4675TIP3    H214032   5.850   3.374   3.122  0.6202  1.9578 -0.7235
 4676TIP3   OH214033   5.169   3.040   4.445 -0.0028  0.1544  0.3701
 4676TIP3    H114034   5.111   2.975   4.406 -0.8295 -0.1388  2.0040
 4676TIP3    H214035   5.119   3.122   4.442  0.3426  0.3451 -0.1311
 4677TIP3   OH214036   5.385   2.765   2.275  0.0399  0.9069 -0.1183
 4677TIP3    H114037   5.464   2.712   2.261  0.4442  1.4782 -0.0633
 4677TIP3    H214038   5.325   2.738   2.207  0.6487  1.1408 -0.7566
 4678TIP3   OH214039   4.082   3.762   2.347 -0.2140 -0.1324 -0.1966
 4678TIP3    H114040   4.086   3.743   2.253  0.1693 -2.9402  0.3270
 4678TIP3    H214041   4.133   3.692   2.388 -1.9660 -0.0725  2.2417
 4679TIP3   OH214042   0.995   5.132   0.104 -0.2477 -0.3127  0.3629
 4679TIP3    H114043   1.065   5.192   0.129 -0.7964  0.6320 -0.3132
 4679TIP3    H214044   0.944   5.120   0.184  1.1221 -1.6467  1.0681
 4680TIP3   OH214045   4.562   4.663   3.727  0.0868 -0.0529 -0.4500
 4680TIP3    H114046   4.657   4.655   3.741  0.2099 -0.2951 -1.3812
 4680TIP3    H214047   4.537   4.581   3.684 -0.4198  0.3073 -0.8491
 4681TIP3   OH214048   3.992   2.042   4.163  0.1531  0.5330 -0.4902
 4681TIP3    H114049   4.073   2.051   4.112  0.1960  1.0339 -0.3345
 4681TIP3    H214050   3.976   1.948   4.165  0.7533  0.4265 -0.4975
 4682TIP3   OH214051   0.487   2.005   4.697 -0.0999  0.0136 -0.2927
 4682TIP3    H114052   0.428   1.947   4.649 -0.1035 -0.2707  0.0492
 4682TIP3    H214053   0.495   1.964   4.783 -0.2030  0.5884 -0.0064
 4683TIP3   OH214054   1.521   4.873   0.700  0.0712 -0.6258 -0.0496
 4683TIP3    H114055   1.495   4.879   0.792 -0.6547 -0.7067 -0.2466
 4683TIP3    H214056   1.467   4.937   0.656  1.8126  0.8296 -0.1385
 4684TIP3   OH214057   0.539   1.619   2.510  0.4066  0.5200 -0.1431
 4684TIP3    H114058   0.445   1.635   2.501 -0.2274 -0.8953  3.3697
 4684TIP3    H214059   0.549   1.525   2.497  1.5051  0.7825 -1.3844
 4685TIP3   OH214060   6.261   4.380   3.737  0.4477 -0.0595  0.1851
 4685TIP3    H114061   6.332   4.443   3.750 -1.1262  1.4826  1.5236
 4685TIP3    H214062   6.195   4.406   3.801 -2.4704  0.2322 -2.8288
 4686TIP3   OH214063   0.719   1.529   1.206 -0.4679 -0.1482 -0.5767
 4686TIP3    H114064   0.667   1.512   1.128  0.9375  0.7627 -1.7325
 4686TIP3    H214065   0.755   1.443   1.230  0.5240 -0.1317 -1.9675
 4687TIP3   OH214066   4.832   3.407   3.649  0.2277 -0.6233  0.5974
 4687TIP3    H114067   4.759   3.468   3.631  0.3548 -1.0145 -1.3713
 4687TIP3    H214068   4.867   3.436   3.733 -1.5907  0.1818  1.1167
 4688TIP3   OH214069   6.160   1.935   4.355  0.1062  0.2082 -0.5827
 4688TIP3    H114070   6.188   2.016   4.314  0.6462  0.2129 -0.2059
 4688TIP3    H214071   6.241   1.886   4.372 -0.1979 -0.3142 -0.6129
 4689TIP3   OH214072   6.450   0.236   2.773  0.2596  0.2023  0.8239
 4689TIP3    H114073   6.497   0.169   2.823 -1.2920 -1.8147 -0.3267
 4689TIP3    H214074   6.492   0.318   2.798  1.6557 -1.0893  2.9504
 4690TIP3   OH214075   2.701   2.132   4.804  0.7430  0.4413  0.1538
 4690TIP3    H114076   2.655   2.209   4.838  0.1480 -0.3041  1.0825
 4690TIP3    H214077   2.793   2.156   4.806  0.6402  0.7778  1.3913
 4691TIP3   OH214078   1.030   3.289   4.372 -0.0508 -0.0872  0.1878
 4691TIP3    H114079   1.105   3.259   4.321 -0.4238 -0.1732 -0.3174
 4691TIP3    H214080   1.068   3.323   4.453  0.5733  0.3631 -0.2853
 4692TIP3   OH214081   1.157   2.753   3.114  0.5901  0.2741  0.3412
 4692TIP3    H114082   1.091   2.821   3.123  1.1765  0.6615  2.0060
 4692TIP3    H214083   1.220   2.771   3.184  0.5405 -2.2087  1.0891
 4693TIP3   OH214084   0.422   4.442   4.017 -0.5236 -0.4253 -0.8113
 4693TIP3    H114085   0.375   4.518   3.981 -0.4712  0.4031  0.8236
 4693TIP3    H214086   0.353   4.386   4.052 -0.5134 -0.8006 -1.3878
 4694TIP3   OH214087   0.677   2.626   5.001 -0.2921 -0.3497  0.2649
 4694TIP3    H114088   0.627   2.626   4.919 -1.9252  0.5937  1.2423
 4694TIP3    H214089   0.614   2.596   5.067  0.2353  1.4108  1.6103
 4695TIP3   OH214090   0.291   3.588   2.759 -0.1085  0.0801  0.1096
 4695TIP3    H114091   0.350   3.603   2.832  0.7174 -1.3539 -0.2485
 4695TIP3    H214092   0.320   3.650   2.692  0.4375 -0.0362  0.2417
 4696TIP3   OH214093   0.933   4.332   2.262 -0.0263 -0.0997  0.4361
 4696TIP3    H114094   1.016   4.316   2.218  0.2154  1.4393  0.3059
 4696TIP3    H214095   0.950   4.311   2.354  0.6390  0.6674  0.4893
 4697TIP3   OH214096   3.215   5.500   0.234  0.0812 -0.0737  0.3904
 4697TIP3    H114097   3.213   5.563   0.162 -0.7411  0.2482  0.6920
 4697TIP3    H214098   3.221   5.553   0.313  1.6416 -0.4430  0.5371
 4698TIP3   OH214099   3.156   1.102   1.622 -0.1868 -0.1218 -0.1859
 4698TIP3    H114100   3.127   1.014   1.649 -0.3079 -0.2862 -0.8429
 4698TIP3    H214101   3.241   1.087   1.580 -0.1181  0.0998 -0.1260
 4699TIP3   OH214102   1.608   0.672   0.715 -0.1579 -0.4320 -0.3124
 4699TIP3    H114103   1.681   0.616   0.740  0.5544 -0.2504 -1.9322
 4699TIP3    H214104   1.550   0.615   0.664 -0.7374 -0.3652  0.2675
 4700TIP3   OH214105   0.834   4.602   1.648  0.3276 -0.1964  0.3490
 4700TIP3    H114106   0.778   4.525   1.642 -2.6270  1.9862 -1.3620
 4700TIP3    H214107   0.828   4.643   1.561  0.4763  2.8726  1.7218
 4701TIP3   OH214108   1.734   2.988   2.412 -0.7453 -0.8021 -0.7304
 4701TIP3    H114109   1.813   2.934   2.415  1.3528  2.1536 -0.2579
 4701TIP3    H214110   1.751   3.051   2.342 -1.1802  1.9836  1.5721
 4702TIP3   OH214111   5.850   0.984   4.395 -0.1024  0.0610  0.3131
 4702TIP3    H114112   5.842   0.897   4.354 -0.0699 -0.7344  1.9365
 4702TIP3    H214113   5.830   1.046   4.325  0.6508 -1.2414 -1.0772
 4703TIP3   OH214114   0.331   2.941   4.784 -0.2905  0.0694  0.1745
 4703TIP3    H114115   0.317   2.852   4.752 -0.2756  0.2154 -0.2493
 4703TIP3    H214116   0.342   2.932   4.879  1.2354 -0.5505 -0.0571
 4704TIP3   OH214117   3.884   1.682   4.632  0.5937  0.1601  0.4080
 4704TIP3    H114118   3.953   1.637   4.681 -0.1786 -1.7612 -0.2027
 4704TIP3    H214119   3.881   1.636   4.547 -1.4972  0.1233  0.4724
 4705TIP3   OH214120   0.231   3.940   4.127  0.0250 -0.0173 -0.3837
 4705TIP3    H114121   0.258   3.858   4.167 -0.2254  0.6442  1.1945
 4705TIP3    H214122   0.313   3.986   4.109  0.1437 -0.3896 -0.8179
 4706TIP3   OH214123   3.111   3.785   1.122  0.1924 -0.3124 -0.4502
 4706TIP3    H114124   3.189   3.779   1.177  0.3813 -0.6607 -0.7513
 4706TIP3    H214125   3.131   3.856   1.061 -0.5037  0.8722  0.6887
 4707TIP3   OH214126   0.626   2.047   2.435 -0.2937  0.2547  0.1052
 4707TIP3    H114127   0.586   2.087   2.512 -1.9138 -3.0191  1.0633
 4707TIP3    H214128   0.719   2.040   2.457 -0.4184  1.1858  0.9435
 4708TIP3   OH214129   5.016   3.084   1.554  0.1127  0.2782 -0.0079
 4708TIP3    H114130   5.014   3.146   1.481  1.1809  1.3173  0.8218
 4708TIP3    H214131   4.979   3.132   1.627  0.3497 -0.2748  0.4776
 4709TIP3   OH214132   5.010   3.828   3.467  0.2521 -0.0566  0.0906
 4709TIP3    H114133   5.092   3.798   3.428 -0.3956  0.8543 -2.0498
 4709TIP3    H214134   4.959   3.748   3.482  0.8479 -0.4792 -0.1186
 4710TIP3   OH214135   0.040   3.749   3.287  0.8007  0.4161 -0.6307
 4710TIP3    H114136   0.132   3.774   3.299  0.7821 -0.3852  1.4014
 4710TIP3    H214137   0.024   3.683   3.354 -1.6524  1.5081 -0.0829
 4711TIP3   OH214138   4.827   1.939   2.775 -0.3834 -0.0396  0.2036
 4711TIP3    H114139   4.898   1.882   2.746  0.0172 -1.2339  3.3475
 4711TIP3    H214140   4.775   1.885   2.835 -0.8470  2.4081  2.1092
 4712TIP3   OH214141   5.824   4.389   3.850 -0.5404  0.8177  0.0809
 4712TIP3    H114142   5.851   4.300   3.828 -0.9956  0.3769  1.2965
 4712TIP3    H214143   5.743   4.378   3.898 -0.6224  1.9003  0.1962
 4713TIP3   OH214144   1.038   3.556   2.653  0.1534 -0.7900 -0.4726
 4713TIP3    H114145   0.961   3.571   2.599  0.1102 -0.2307 -0.2623
 4713TIP3    H214146   1.108   3.603   2.608  0.1130 -0.3078 -0.0340
 4714TIP3   OH214147   0.456   2.562   4.048 -0.1056  0.1817  0.0331
 4714TIP3    H114148   0.418   2.479   4.020 -1.9502  1.5968 -1.7985
 4714TIP3    H214149   0.547   2.540   4.069 -0.9244 -2.5472  0.9554
 4715TIP3   OH214150   2.471   1.611   2.150 -0.4080  0.0259 -0.0299
 4715TIP3    H114151   2.533   1.677   2.118  0.4832 -1.4163 -1.3535
 4715TIP3    H214152   2.493   1.601   2.243 -0.7167  1.7474  0.2470
 4716TIP3   OH214153   4.739   3.294   2.955 -0.2769  0.4047  0.3878
 4716TIP3    H114154   4.729   3.362   2.889  0.1285  0.2189  0.1329
 4716TIP3    H214155   4.819   3.317   3.002  1.3428 -1.3324 -1.4310
 4717TIP3   OH214156   0.444   3.389   4.632  0.0424 -0.4331  0.0946
 4717TIP3    H114157   0.501   3.465   4.628  2.4432 -2.2570 -2.5449
 4717TIP3    H214158   0.368   3.413   4.580 -1.3982  1.7989  3.1269
 4718TIP3   OH214159   5.796   4.549   2.828  0.1372 -0.2593 -0.4738
 4718TIP3    H114160   5.811   4.561   2.734 -0.0309  0.6617 -0.3910
 4718TIP3    H214161   5.769   4.636   2.859 -0.4099 -0.7028  0.3074
 4719TIP3   OH214162   2.339   3.446   4.729 -0.3085  0.0933  0.3756
 4719TIP3    H114163   2.343   3.540   4.710  1.2387 -0.2084 -0.9476
 4719TIP3    H214164   2.390   3.436   4.810  2.2717  0.0324 -1.1759
 4720TIP3   OH214165   0.663   3.327   3.808 -0.0381  0.4952  0.1236
 4720TIP3    H114166   0.730   3.258   3.798 -0.6540 -0.0256 -0.4254
 4720TIP3    H214167   0.596   3.287   3.863 -0.3148  0.7200 -0.0522
 4721TIP3   OH214168   0.240   2.829   3.077  0.2351 -0.2246 -0.3557
 4721TIP3    H114169   0.297   2.767   3.032  0.4981  0.7017 -1.3438
 4721TIP3    H214170   0.151   2.798   3.060  0.3847 -0.6738 -0.3155
 4722TIP3   OH214171   6.071   2.043   4.848  0.4136  0.4158 -0.4299
 4722TIP3    H114172   6.118   1.981   4.904 -2.0172 -0.1430  1.0712
 4722TIP3    H214173   6.055   1.995   4.767 -0.3916 -0.5477  0.2818
 4723TIP3   OH214174   1.270   4.104   2.112  0.4047  0.2560 -0.2968
 4723TIP3    H114175   1.218   4.025   2.100 -1.4684  1.3480  0.3924
 4723TIP3    H214176   1.288   4.107   2.206  1.9163 -0.2203 -0.5570
 4724TIP3   OH214177   6.377   2.839   3.319  0.4729  0.0503  0.4823
 4724TIP3    H114178   6.452   2.809   3.266 -0.5768  1.1556 -1.7106
 4724TIP3    H214179   6.325   2.761   3.333  0.6053 -0.2192 -0.4453
 4725TIP3   OH214180   4.772   5.160   0.770 -0.0852 -0.1329 -0.1781
 4725TIP3    H114181   4.777   5.126   0.859  0.8628  0.7882  0.1333
 4725TIP3    H214182   4.775   5.255   0.781 -0.6379 -0.0003 -1.1552
 4726TIP3   OH214183   5.163   3.626   3.930  0.5019 -0.0969  0.1153
 4726TIP3    H114184   5.108   3.676   3.991  0.0604 -1.0425  0.5070
 4726TIP3    H214185   5.144   3.535   3.951  1.6579 -0.4293 -0.2718
 4727TIP3   OH214186   1.013   2.126   4.458  0.1375 -0.0162  0.3590
 4727TIP3    H114187   0.961   2.075   4.521 -0.7732  0.0237 -0.3549
 4727TIP3    H214188   1.084   2.163   4.510 -0.7341  0.1972  1.4081
 4728TIP3   OH214189   1.668   4.882   3.902 -0.3133  0.2075  0.2742
 4728TIP3    H114190   1.638   4.967   3.933 -0.6656 -0.4064  1.6847
 4728TIP3    H214191   1.763   4.882   3.916 -0.1713  0.7492 -0.6864
 4729TIP3   OH214192   5.175   2.433   3.815  0.0253  0.4595 -0.4339
 4729TIP3    H114193   5.235   2.506   3.800  0.0497  0.2727 -1.2768
 4729TIP3    H214194   5.224   2.373   3.872  0.0264  1.0606  0.2152
 4730TIP3   OH214195   1.749   2.026   3.907 -0.5943 -0.4979 -0.0711
 4730TIP3    H114196   1.834   2.044   3.948 -0.0640 -1.0999 -0.9060
 4730TIP3    H214197   1.685   2.045   3.976  0.3043 -1.8584  1.1707
 4731TIP3   OH214198   1.112   2.413   4.080  0.1315 -0.4716 -0.4190
 4731TIP3    H114199   1.043   2.358   4.115 -0.2673 -0.5351 -1.2883
 4731TIP3    H214200   1.067   2.474   4.021  0.6897  0.1433 -0.2261
 4732TIP3   OH214201   0.110   1.931   0.976 -0.3042 -0.2139 -0.1371
 4732TIP3    H114202   0.101   1.847   0.931 -2.6304 -0.0907 -0.0024
 4732TIP3    H214203   0.165   1.912   1.052  0.9035 -1.1540 -1.2380
 4733TIP3   OH214204   3.717   6.058   2.909  0.2004 -0.5872 -0.2177
 4733TIP3    H114205   3.692   5.974   2.946 -2.0866  0.0524 -0.2535
 4733TIP3    H214206   3.748   6.038   2.821 -1.9687 -1.2038 -0.8524
 4734TIP3   OH214207   5.857   2.149   4.986  0.1380  0.0024  0.3271
 4734TIP3    H114208   5.789   2.083   4.994  0.5841 -0.5989 -0.7469
 4734TIP3    H214209   5.918   2.113   4.921  0.1518  1.6642 -0.6067
 4735TIP3   OH214210   4.897   2.919   0.343 -0.4596 -0.0162 -0.4884
 4735TIP3    H114211   4.912   2.888   0.432 -0.4885  1.2306 -0.0395
 4735TIP3    H214212   4.941   3.003   0.339 -1.9507  0.7552 -1.1069
 4736TIP3   OH214213   6.458   3.971   4.024 -0.1677  0.0645  0.0073
 4736TIP3    H114214   6.397   3.966   4.098  0.5422 -1.4317  0.5009
 4736TIP3    H214215   6.543   3.946   4.061  1.0787  3.5775 -0.3392
 4737TIP3   OH214216   5.488   0.867   2.665 -0.2064 -0.4982 -0.2098
 4737TIP3    H114217   5.422   0.808   2.701 -2.5550  0.6024 -2.5109
 4737TIP3    H214218   5.479   0.947   2.716 -0.3878 -0.4929 -0.2491
 4738TIP3   OH214219   0.873   3.252   1.320  0.1567  0.1017  0.5643
 4738TIP3    H114220   0.912   3.329   1.361  1.8252  0.6308 -1.9290
 4738TIP3    H214221   0.780   3.273   1.312  0.5615  1.7770  0.1253
 4739TIP3   OH214222   4.506   4.096   3.789 -0.1321  0.2679 -0.3322
 4739TIP3    H114223   4.476   4.089   3.698 -0.9213 -0.3307 -0.0438
 4739TIP3    H214224   4.426   4.113   3.839  0.4339  1.5328  0.1476
 4740TIP3   OH214225   1.826   4.785   0.751  0.6338  0.3878  0.2127
 4740TIP3    H114226   1.905   4.791   0.697 -0.1347 -0.2848 -0.9964
 4740TIP3    H214227   1.757   4.826   0.698  0.2008  1.1448  1.3433
 4741TIP3   OH214228   4.805   5.209   2.189  0.5702 -0.0472  0.1951
 4741TIP3    H114229   4.709   5.220   2.192  0.6029  0.4576 -0.4015
 4741TIP3    H214230   4.824   5.145   2.257 -0.4517 -1.9089 -1.2109
 4742TIP3   OH214231   0.258   4.157   4.360 -0.3321 -0.4245  0.5086
 4742TIP3    H114232   0.172   4.149   4.401  0.3927 -1.5239  1.8830
 4742TIP3    H214233   0.298   4.071   4.372  1.2519  0.3135  0.6035
 4743TIP3   OH214234   1.467   3.476   4.999 -0.1526  0.6143  1.0563
 4743TIP3    H114235   1.476   3.453   4.907  0.7385  0.1674  1.2541
 4743TIP3    H214236   1.505   3.402   5.046  0.3199  1.3019  1.7554
 4744TIP3   OH214237   4.839   2.005   1.965 -0.1199 -0.1172  0.1991
 4744TIP3    H114238   4.916   2.031   2.015 -0.8015 -1.4510  1.9601
 4744TIP3    H214239   4.832   1.911   1.977 -0.6492 -0.3890 -1.9447
 4745TIP3   OH214240   6.068   4.984   3.652  0.6820  0.2584 -0.2450
 4745TIP3    H114241   6.160   4.998   3.632  0.6418  1.2540  0.2411
 4745TIP3    H214242   6.022   5.055   3.607  0.1956 -0.0037 -0.1685
 4746TIP3   OH214243   0.381   5.020   3.922  0.1282 -0.4119 -0.3528
 4746TIP3    H114244   0.358   5.108   3.891 -0.0242  0.5279  2.3171
 4746TIP3    H214245   0.445   5.035   3.991 -1.7658 -2.2310  1.8862
 4747TIP3   OH214246   0.591   2.856   3.817  0.2521  0.2813  0.1035
 4747TIP3    H114247   0.508   2.812   3.836  0.0309  0.8875  0.5653
 4747TIP3    H214248   0.643   2.791   3.769 -0.7811  0.1680 -0.8769
 4748TIP3   OH214249   1.744   2.768   4.658 -0.8239 -0.0716 -0.1637
 4748TIP3    H114250   1.821   2.774   4.715 -0.2262 -2.2463 -0.6947
 4748TIP3    H214251   1.723   2.859   4.636  0.1665  0.6748  1.8721
 4749TIP3   OH214252   0.227   0.927   1.269 -0.3970  0.3823  0.0725
 4749TIP3    H114253   0.252   0.886   1.186  0.6373  2.8519 -0.8634
 4749TIP3    H214254   0.133   0.944   1.260 -0.3216  0.4934 -0.5232
 4750TIP3   OH214255   5.175   1.992   4.515  0.0669  0.3217  0.2665
 4750TIP3    H114256   5.233   2.057   4.478  3.1023 -1.0613  2.4014
 4750TIP3    H214257   5.190   1.913   4.463 -0.5458  0.1939  0.2784
 4751TIP3   OH214258   4.569   4.252   1.063  0.8161  0.1545  0.2095
 4751TIP3    H114259   4.546   4.159   1.053 -0.8215  0.4088  1.2934
 4751TIP3    H214260   4.484   4.296   1.072  1.5851  1.7465 -0.2402
 4752TIP3   OH214261   6.002   4.722   4.642 -0.3405  0.1761 -0.3513
 4752TIP3    H114262   6.042   4.786   4.583 -0.0171 -0.7918 -1.1791
 4752TIP3    H214263   5.967   4.775   4.714  3.0883  1.0046  0.7856
 4753TIP3   OH214264   4.697   5.498   2.857 -0.6980  0.4333  0.4515
 4753TIP3    H114265   4.606   5.522   2.874 -1.1427 -0.9211 -0.0083
 4753TIP3    H214266   4.700   5.403   2.868  0.5718  0.4207  0.0647
 4754TIP3   OH214267   5.680   3.541   3.648 -0.4909  0.2620 -0.4199
 4754TIP3    H114268   5.655   3.485   3.722 -1.1495  1.6369  0.4211
 4754TIP3    H214269   5.629   3.621   3.661  1.7070  1.7306 -0.6638
 4755TIP3   OH214270   5.164   5.897   3.314  0.1849  0.3947 -0.7108
 4755TIP3    H114271   5.218   5.819   3.301 -0.0332 -0.0886  1.1520
 4755TIP3    H214272   5.207   5.965   3.262  2.0672 -0.1991  0.0318
 4756TIP3   OH214273   2.753   3.189   2.858  0.1596  0.1572  0.0655
 4756TIP3    H114274   2.701   3.192   2.939 -0.5224  1.2359 -0.3931
 4756TIP3    H214275   2.697   3.232   2.793  1.5331  1.1085 -0.5042
 4757TIP3   OH214276   4.805   2.642   3.795 -0.2494 -0.1146  0.3447
 4757TIP3    H114277   4.735   2.632   3.861 -0.5340 -0.0524  0.0535
 4757TIP3    H214278   4.866   2.570   3.814 -0.2920 -0.0507  0.7251
 4758TIP3   OH214279   4.907   2.214   1.592  0.3549  0.1453  0.0179
 4758TIP3    H114280   4.896   2.306   1.566  2.3077  0.3740 -0.0455
 4758TIP3    H214281   4.839   2.200   1.658 -0.6357  1.3331 -0.7247
 4759TIP3   OH214282   5.047   3.402   4.940  0.0951 -0.1626 -0.2212
 4759TIP3    H114283   5.103   3.400   5.017  0.3100  2.8864 -0.2560
 4759TIP3    H214284   5.011   3.313   4.934  1.6391 -0.9851  2.1983
 4760TIP3   OH214285   4.402   0.483   0.584 -0.3085 -0.4085  0.0181
 4760TIP3    H114286   4.309   0.475   0.565 -0.4069  0.7173 -0.0345
 4760TIP3    H214287   4.415   0.577   0.601  0.6037 -0.7173  1.1226
 4761TIP3   OH214288   1.071   4.002   4.362 -0.0680  0.0364  0.1351
 4761TIP3    H114289   1.056   3.908   4.365 -0.7751  0.0058 -2.4676
 4761TIP3    H214290   1.042   4.034   4.447  0.2519 -2.0935  1.0771
 4762TIP3   OH214291   5.545   4.030   3.477 -0.4952 -0.6553  0.1540
 4762TIP3    H114292   5.539   4.121   3.448  0.4829 -1.2972 -2.1807
 4762TIP3    H214293   5.466   3.988   3.443 -0.9169 -0.7137  1.1736
 4763TIP3   OH214294   0.598   3.686   2.267 -0.7913  0.4386  0.1878
 4763TIP3    H114295   0.585   3.761   2.325 -0.5301  0.2897  0.4365
 4763TIP3    H214296   0.509   3.657   2.246 -0.9262  1.4851 -0.7920
 4764TIP3   OH214297   6.158   2.853   3.690 -0.0072  0.7087 -0.3486
 4764TIP3    H114298   6.174   2.764   3.658  2.3335  0.5272  1.2334
 4764TIP3    H214299   6.071   2.850   3.730 -1.7534  0.2153 -3.9831
 4765TIP3   OH214300   5.779   2.082   4.699 -0.3455 -0.8659 -0.0358
 4765TIP3    H114301   5.758   2.036   4.780  4.9852  0.1213  2.1368
 4765TIP3    H214302   5.819   2.016   4.643 -0.2380 -0.6432 -0.2245
 4766TIP3   OH214303   4.245   3.085   1.050 -0.1222 -0.1363  0.0579
 4766TIP3    H114304   4.330   3.046   1.070 -1.1732 -2.8478 -0.5198
 4766TIP3    H214305   4.184   3.041   1.109 -1.0402  2.3959  1.0737
 4767TIP3   OH214306   2.616   1.720   0.755 -0.1470 -0.4625 -0.3521
 4767TIP3    H114307   2.632   1.714   0.660  0.1427 -1.0901 -0.2684
 4767TIP3    H214308   2.684   1.664   0.794  0.6706  0.9756  0.3200
 4768TIP3   OH214309   6.028   0.814   2.047 -0.3002 -0.3800 -0.3090
 4768TIP3    H114310   6.002   0.904   2.028  0.1015 -0.4273 -1.0993
 4768TIP3    H214311   6.122   0.812   2.031 -0.3740 -1.0430 -0.7093
 4769TIP3   OH214312   6.169   3.097   5.237 -0.0154  0.2505 -0.3413
 4769TIP3    H114313   6.213   3.023   5.195  1.7519 -0.3306  2.3499
 4769TIP3    H214314   6.076   3.074   5.237  0.3384 -1.2183 -0.9802
 4770TIP3   OH214315   5.355   1.407   2.827 -0.3061 -0.0205 -0.2844
 4770TIP3    H114316   5.327   1.348   2.757 -1.2418  1.6526 -1.3689
 4770TIP3    H214317   5.451   1.406   2.823 -0.3510 -0.1073 -1.4664
 4771TIP3   OH214318   0.059   3.861   4.434  0.1115  0.7814 -0.0331
 4771TIP3    H114319   0.154   3.864   4.424  0.2722 -1.2042  0.6751
 4771TIP3    H214320   0.044   3.795   4.502 -1.8462 -0.1050 -1.2803
 4772TIP3   OH214321   1.619   4.340   5.281 -0.1433  0.4819  0.1686
 4772TIP3    H114322   1.542   4.288   5.258  2.1221 -2.4956 -1.0572
 4772TIP3    H214323   1.689   4.303   5.228  2.2519  2.7889  1.6123
 4773TIP3   OH214324   6.010   4.105   3.781  0.0532  0.1011 -0.5196
 4773TIP3    H114325   6.024   4.081   3.873 -2.2999  1.3843  0.2302
 4773TIP3    H214326   5.959   4.032   3.745 -1.6538  1.0023  0.0406
 4774TIP3   OH214327   4.185   5.611   0.531 -0.2825 -0.1221 -0.2569
 4774TIP3    H114328   4.152   5.635   0.444  0.2649 -1.0607 -0.7414
 4774TIP3    H214329   4.275   5.585   0.515 -1.1766 -3.7018 -0.0232
 4775TIP3   OH214330   0.825   0.024   1.124  0.0006 -0.3437 -0.1690
 4775TIP3    H114331   0.917   0.046   1.111 -0.5488  1.5098 -0.9984
 4775TIP3    H214332   0.799  -0.019   1.043 -0.8764  2.6316 -1.5153
 4776TIP3   OH214333   4.030   3.565   1.461 -0.4350 -0.0007 -0.6473
 4776TIP3    H114334   4.120   3.571   1.427 -0.1413 -0.3721  0.0693
 4776TIP3    H214335   4.016   3.648   1.507  0.6503 -1.2198  1.9429
 4777TIP3   OH214336   1.854   2.259   3.231  1.5961  0.4111 -0.2073
 4777TIP3    H114337   1.799   2.184   3.208 -0.7817  1.0631  2.9837
 4777TIP3    H214338   1.935   2.220   3.264  0.7513 -0.7583  0.5442
 4778TIP3   OH214339   5.428   1.505   0.556 -0.4671 -0.3174 -0.1144
 4778TIP3    H114340   5.349   1.504   0.610 -0.5143 -0.9294 -0.1909
 4778TIP3    H214341   5.416   1.580   0.498 -0.7517 -0.0965  0.2279
 4779TIP3   OH214342   1.950   3.368   4.137  0.0767  0.3423 -0.4894
 4779TIP3    H114343   2.024   3.331   4.184 -0.4607  1.2807  1.1203
 4779TIP3    H214344   1.874   3.320   4.168 -0.0475 -0.3645 -1.8620
 4780TIP3   OH214345   6.297   4.277   3.440  0.0656  0.1260 -0.4968
 4780TIP3    H114346   6.321   4.274   3.348 -1.0109  0.3078 -0.7954
 4780TIP3    H214347   6.260   4.365   3.452 -0.8566 -0.2972 -0.1725
 4781TIP3   OH214348   3.956   3.041   2.543  0.0230  0.0123 -0.2425
 4781TIP3    H114349   3.938   3.049   2.636  0.5991 -0.2099 -0.1078
 4781TIP3    H214350   3.895   3.101   2.501  0.3364  0.7320  0.3330
 4782TIP3   OH214351   5.674   5.934   4.439  0.6734  0.2347  0.4647
 4782TIP3    H114352   5.741   5.964   4.377  1.0662  1.5529  1.5048
 4782TIP3    H214353   5.716   5.940   4.525 -0.5597  0.4357  1.0679
 4783TIP3   OH214354   1.401   3.950   0.140 -0.4422 -0.7573 -0.0113
 4783TIP3    H114355   1.450   3.888   0.085 -0.9718 -1.6813  0.5462
 4783TIP3    H214356   1.332   3.983   0.082  0.4313  0.0623 -0.6045
 4784TIP3   OH214357   0.390   2.804   4.148 -0.2013 -0.0710 -0.4017
 4784TIP3    H114358   0.409   2.718   4.112  1.2189  0.0914 -0.0577
 4784TIP3    H214359   0.473   2.852   4.143 -0.6323  0.8267  0.6638
 4785TIP3   OH214360   6.035   2.078   3.841 -0.3149 -0.3720 -0.4230
 4785TIP3    H114361   6.059   2.060   3.750 -1.0075  0.1013 -0.7032
 4785TIP3    H214362   5.948   2.039   3.851 -0.0885 -0.7395  0.1445
 4786TIP3   OH214363   4.506   3.691   1.935 -0.1166 -0.2803 -0.5486
 4786TIP3    H114364   4.535   3.600   1.941 -0.6178 -0.3119  1.4406
 4786TIP3    H214365   4.497   3.720   2.025  2.0366  2.3995 -1.1101
 4787TIP3   OH214366   6.215   0.382   0.923  0.1951 -0.3329 -0.4197
 4787TIP3    H114367   6.265   0.432   0.859 -0.3137 -0.3464 -0.8327
 4787TIP3    H214368   6.200   0.444   0.995 -1.3008  0.4363 -1.3698
 4788TIP3   OH214369   2.315   4.203   3.318 -0.4275  0.4935  0.1029
 4788TIP3    H114370   2.283   4.182   3.230  0.0706  0.5591 -0.0962
 4788TIP3    H214371   2.403   4.165   3.322 -0.4853  0.4069  0.6059
 4789TIP3   OH214372   5.059   3.538   3.523 -0.5171  0.1307  0.4641
 4789TIP3    H114373   5.128   3.512   3.584 -0.5271  1.7193  1.1855
 4789TIP3    H214374   4.985   3.483   3.545  0.4803 -1.5166 -0.2438
 4790TIP3   OH214375   0.242   1.422   2.770 -0.0256  0.0674 -0.7322
 4790TIP3    H114376   0.184   1.434   2.695  0.1789 -0.2066 -0.9340
 4790TIP3    H214377   0.323   1.386   2.733  0.0567 -0.1169 -0.3770
 4791TIP3   OH214378   0.602   3.442   1.810  0.3285 -0.1570 -0.4593
 4791TIP3    H114379   0.575   3.351   1.825 -4.3145  0.9366 -1.3556
 4791TIP3    H214380   0.642   3.469   1.893 -0.6241 -2.2218  0.7146
 4792TIP3   OH214381   5.222   3.859   4.305 -0.7193  0.4940 -0.7872
 4792TIP3    H114382   5.176   3.787   4.263  0.4968  0.1236 -1.5288
 4792TIP3    H214383   5.203   3.935   4.251 -1.4226  0.5832 -0.4135
 4793TIP3   OH214384   0.696   3.555   4.671  0.4233 -0.0818  0.2524
 4793TIP3    H114385   0.740   3.471   4.685  1.7885  0.8796  1.9158
 4793TIP3    H214386   0.712   3.604   4.752 -1.7971  1.1628 -0.0139
 4794TIP3   OH214387   0.362   3.987   5.249  0.2963 -0.3707 -0.2183
 4794TIP3    H114388   0.302   3.918   5.219 -0.1036 -0.4464  0.7412
 4794TIP3    H214389   0.432   3.940   5.293 -0.7449 -0.1023  1.7740
 4795TIP3   OH214390   0.959   3.714   2.886 -0.1792 -0.2283 -0.7967
 4795TIP3    H114391   0.996   3.668   2.811 -1.2399 -1.0642 -0.8174
 4795TIP3    H214392   0.920   3.645   2.940  2.7912 -0.0062  1.8690
 4796TIP3   OH214393   1.543   1.462   2.654 -0.1671 -0.0284 -0.4363
 4796TIP3    H114394   1.588   1.543   2.677 -2.6506  1.5406 -0.9672
 4796TIP3    H214395   1.497   1.482   2.572 -2.1380 -1.4079  0.2853
 4797TIP3   OH214396   0.993   4.268   4.837  0.0879 -0.0406  0.1730
 4797TIP3    H114397   1.074   4.290   4.882 -0.9542  0.5923  1.7943
 4797TIP3    H214398   0.939   4.227   4.904 -1.3132  0.4490 -0.6320
 4798TIP3   OH214399   2.916   0.146   3.900  0.0094 -0.0284 -0.8569
 4798TIP3    H114400   2.855   0.179   3.835 -0.4056  0.6540 -0.1236
 4798TIP3    H214401   2.899   0.051   3.904 -2.5746  0.4541  0.9557
 4799TIP3   OH214402   6.278   5.533   4.428 -0.2736 -0.2600  0.0021
 4799TIP3    H114403   6.297   5.466   4.494  1.4159  0.2586  0.0631
 4799TIP3    H214404   6.302   5.493   4.345  1.3099  0.4687  0.0977
 4800TIP3   OH214405   5.635   3.143   4.985 -0.3674 -0.8511  0.5072
 4800TIP3    H114406   5.580   3.118   5.059  1.7240 -2.2928  1.6164
 4800TIP3    H214407   5.641   3.239   4.991 -2.8798 -0.6367  0.2319
 4801TIP3   OH214408   6.152   4.889   4.497 -0.6206  0.3598  0.0158
 4801TIP3    H114409   6.127   4.934   4.416 -2.4713 -1.3976 -0.4266
 4801TIP3    H214410   6.248   4.881   4.491 -0.6609  0.9042 -1.6599
 4802TIP3   OH214411   3.903   5.775   0.394  0.5512  0.6789  0.5872
 4802TIP3    H114412   3.835   5.740   0.451 -0.2143 -0.7883 -1.1813
 4802TIP3    H214413   3.918   5.707   0.329  2.4605  1.7099 -0.0984
 4803TIP3   OH214414   4.443   4.238   4.538 -0.7823  0.0239 -0.6148
 4803TIP3    H114415   4.397   4.306   4.588  2.2493  2.1617 -0.6303
 4803TIP3    H214416   4.480   4.180   4.606 -2.0541 -0.7746 -0.5763
 4804TIP3   OH214417   2.833   6.023   1.861  0.0242  0.1731  0.2364
 4804TIP3    H114418   2.905   5.961   1.851 -0.0991 -0.1490  1.3147
 4804TIP3    H214419   2.818   6.029   1.955 -1.0368  0.6094  0.0568
 4805TIP3   OH214420   2.405   3.897   3.734 -0.2676 -0.0743  0.6986
 4805TIP3    H114421   2.361   3.980   3.754 -1.0974  0.3891 -2.7144
 4805TIP3    H214422   2.335   3.841   3.698  0.7089 -1.5096  0.9864
 4806TIP3   OH214423   2.051   5.275   3.075 -0.3969  0.4268 -0.2268
 4806TIP3    H114424   2.007   5.247   3.156 -1.4016 -0.2347 -0.9996
 4806TIP3    H214425   2.112   5.204   3.056 -0.1002  0.6209 -0.0233
 4807TIP3   OH214426   6.427   2.919   3.955 -0.3827  0.4869  0.0190
 4807TIP3    H114427   6.376   2.892   4.032 -1.8755  0.3921 -0.9892
 4807TIP3    H214428   6.412   3.013   3.948  1.3641  0.8746  0.9875
 4808TIP3   OH214429   1.217   3.409   4.570  0.3639 -0.2249 -0.3590
 4808TIP3    H114430   1.179   3.496   4.577  1.5009  0.3261 -0.8594
 4808TIP3    H214431   1.283   3.417   4.501  1.2364 -1.2084  0.3362
 4809TIP3   OH214432   4.541   2.252   0.080  0.1709  0.0890 -0.3891
 4809TIP3    H114433   4.562   2.196   0.154  0.4192  1.1164  0.3244
 4809TIP3    H214434   4.474   2.204   0.031 -1.3561  0.2432  1.5105
 4810TIP3   OH214435   3.701   5.743   1.438  0.2070 -0.1162  0.1990
 4810TIP3    H114436   3.794   5.748   1.462  0.6386  1.6470 -1.6339
 4810TIP3    H214437   3.657   5.797   1.504  1.1137  2.8874 -1.5117
 4811TIP3   OH214438   0.732   3.521   2.526  0.8326  0.2066 -0.1237
 4811TIP3    H114439   0.783   3.446   2.494  2.4764  0.7393  1.2083
 4811TIP3    H214440   0.726   3.579   2.450  3.1151  0.6097 -0.0359
 4812TIP3   OH214441   1.187   5.649   4.635 -0.3331 -0.3016  0.1103
 4812TIP3    H114442   1.136   5.686   4.564  1.6290  1.7839 -0.2562
 4812TIP3    H214443   1.132   5.660   4.713 -0.6304  1.5842 -0.3429
 4813TIP3   OH214444   1.293   4.436   2.831 -0.3360 -0.1117 -0.0272
 4813TIP3    H114445   1.214   4.460   2.782 -0.2922  0.9993  0.4373
 4813TIP3    H214446   1.328   4.519   2.864  0.9622 -0.6054 -0.1148
 4814TIP3   OH214447   0.984   5.313   3.811  0.1384 -0.1569  0.2356
 4814TIP3    H114448   0.957   5.271   3.729 -0.5077 -0.1824  0.4615
 4814TIP3    H214449   1.041   5.248   3.853  0.7956  0.0154 -0.3731
 4815TIP3   OH214450   3.450   0.232   3.847  0.1544  0.9199 -0.5348
 4815TIP3    H114451   3.487   0.295   3.909  1.3473  0.4132 -0.7292
 4815TIP3    H214452   3.374   0.277   3.810  0.6047  1.9823 -0.1823
 4816TIP3   OH214453   1.115   3.798   4.008  0.1102 -0.2124 -0.0221
 4816TIP3    H114454   1.179   3.754   4.064  2.8899  1.7773 -1.4996
 4816TIP3    H214455   1.106   3.739   3.933  0.3500 -0.4296  0.1174
 4817TIP3   OH214456   5.581   3.334   1.176 -0.2654  0.2040 -0.1784
 4817TIP3    H114457   5.619   3.395   1.239 -0.6314 -0.6406  0.8884
 4817TIP3    H214458   5.599   3.373   1.090  0.5712  1.1852  0.4291
 4818TIP3   OH214459   2.120   4.371   3.675 -0.1647 -0.0941  0.2619
 4818TIP3    H114460   2.107   4.376   3.580 -3.5670  1.0295  0.7063
 4818TIP3    H214461   2.034   4.392   3.712  1.2420  0.0810  3.6223
 4819TIP3   OH214462   0.903   3.494   5.258 -0.3212 -0.2713  0.0825
 4819TIP3    H114463   0.950   3.577   5.270  0.1039 -0.2738 -1.5100
 4819TIP3    H214464   0.836   3.495   5.326 -0.3057  1.3595  0.1024
 4820TIP3   OH214465   1.432   5.653   3.328 -0.0562 -0.4685  0.1837
 4820TIP3    H114466   1.402   5.744   3.322  0.5999 -0.3724 -1.9111
 4820TIP3    H214467   1.523   5.660   3.358 -0.1884 -0.4701  0.5906
 4821TIP3   OH214468   0.491   4.144   4.746  0.9049 -0.1955 -0.7732
 4821TIP3    H114469   0.449   4.058   4.752 -1.3089  0.7428 -2.1423
 4821TIP3    H214470   0.492   4.164   4.653 -2.7685  3.1753 -0.2324
 4822TIP3   OH214471   0.899   5.729   2.996  0.4767 -0.3769 -0.6317
 4822TIP3    H114472   0.848   5.693   3.068 -1.5141  0.9270 -1.3368
 4822TIP3    H214473   0.987   5.694   3.008 -0.3373 -1.8308  1.2236
 4823TIP3   OH214474   1.330   1.030   3.869 -0.1051 -0.0761  0.2181
 4823TIP3    H114475   1.297   0.961   3.812  0.3013 -0.9554  1.0315
 4823TIP3    H214476   1.278   1.106   3.847 -3.1697 -1.6014  1.9478
 4824TIP3   OH214477   2.624   4.233   3.614 -0.3176 -0.3864  0.0586
 4824TIP3    H114478   2.621   4.220   3.519  1.6291 -0.7805  0.0329
 4824TIP3    H214479   2.550   4.290   3.633 -0.9689 -0.6433 -1.6427
 4825TIP3   OH214480   0.065   6.052   4.308 -0.1314 -0.0582  0.2282
 4825TIP3    H114481   0.156   6.074   4.287 -0.2334  0.1295 -0.0270
 4825TIP3    H214482   0.034   6.127   4.359 -0.3440  0.1905 -0.2592
 4826TIP3   OH214483   4.178   4.532   3.848 -0.2914 -0.4145 -0.2102
 4826TIP3    H114484   4.090   4.554   3.880  0.0761  1.0332 -0.1384
 4826TIP3    H214485   4.188   4.585   3.769  0.6694 -0.2480  0.0187
 4827TIP3   OH214486   2.605   3.523   2.806 -0.2772 -0.3263  0.5489
 4827TIP3    H114487   2.570   3.447   2.852  2.7965 -0.9302  2.0439
 4827TIP3    H214488   2.687   3.492   2.768 -0.6485  1.3675 -1.7063
 4828TIP3   OH214489   0.137   5.463   4.063 -0.4627  0.6360 -0.2969
 4828TIP3    H114490   0.117   5.418   4.145 -2.1273  1.0186 -0.4802
 4828TIP3    H214491   0.100   5.407   3.995  0.0350  0.8154 -0.7172
 4829TIP3   OH214492   1.274   5.319   3.994  0.8156  1.0288 -0.1995
 4829TIP3    H114493   1.326   5.398   3.977  0.3932  1.4173  0.2697
 4829TIP3    H214494   1.252   5.326   4.087 -0.4261  1.0805 -0.4967
 4830TIP3   OH214495   1.169   1.396   4.077  0.4687 -0.6198 -0.0481
 4830TIP3    H114496   1.191   1.489   4.077  0.6043 -0.6497 -0.3111
 4830TIP3    H214497   1.088   1.390   4.126  0.3026 -0.3225 -0.2833
 4831TIP3   OH214498   5.950   0.652   1.241  0.0213 -0.3571  0.1777
 4831TIP3    H114499   5.862   0.614   1.248 -0.2357 -0.1502 -1.7479
 4831TIP3    H214500   5.944   0.733   1.291 -0.5954 -0.8499  0.9202
 4832TIP3   OH214501   0.742   4.463   4.366 -0.2544  0.4099 -0.2138
 4832TIP3    H114502   0.836   4.451   4.381 -0.3587 -1.7838 -1.1381
 4832TIP3    H214503   0.700   4.429   4.446 -0.2999  0.7449 -0.0938
 4833TIP3   OH214504   6.415   4.862   4.403  0.0498 -0.5408 -0.3638
 4833TIP3    H114505   6.446   4.944   4.364 -0.1454  0.5659  1.6972
 4833TIP3    H214506   6.467   4.794   4.361  0.0173  0.6197 -2.3238
 4834TIP3   OH214507   0.030   5.742   2.366 -0.2495  0.2782 -0.7471
 4834TIP3    H114508  -0.019   5.679   2.312 -1.5634  1.8076 -1.3756
 4834TIP3    H214509   0.016   5.826   2.323  3.0999  0.7476 -0.9981
 4835TIP3   OH214510   4.773   0.576   0.543 -0.8658 -0.5768 -0.3753
 4835TIP3    H114511   4.869   0.583   0.541 -0.9313  0.2838 -0.7357
 4835TIP3    H214512   4.755   0.518   0.617 -0.1205  0.1739  0.4109
 4836TIP3   OH214513   1.708   3.718   4.435 -0.1627  0.0344  0.8046
 4836TIP3    H114514   1.712   3.758   4.522  3.2640 -2.4145  1.8890
 4836TIP3    H214515   1.739   3.786   4.375  1.4505  0.4431  2.0740
 4837TIP3   OH214516   0.895   4.242   2.775  0.4896 -0.1229 -0.2195
 4837TIP3    H114517   0.909   4.200   2.690 -0.7123  0.2106 -0.5875
 4837TIP3    H214518   0.887   4.335   2.754  0.6508  0.0150  0.3182
 4838TIP3   OH214519   1.033   3.713   4.338  0.5270 -0.1058 -0.2401
 4838TIP3    H114520   0.965   3.645   4.331 -0.2151  0.6762 -0.7925
 4838TIP3    H214521   1.115   3.667   4.322  0.1355 -1.0844  0.5281
 4839TIP3   OH214522   3.616   0.102   3.317 -0.1428 -0.4084 -0.6767
 4839TIP3    H114523   3.579   0.132   3.401 -0.4252 -0.7802 -0.6642
 4839TIP3    H214524   3.709   0.090   3.335 -0.0013  0.5663 -0.7136
 4840TIP3   OH214525   1.098   4.062   4.081  0.1229 -0.2147  0.3312
 4840TIP3    H114526   1.084   4.065   4.176  1.4038  0.0943  0.5174
 4840TIP3    H214527   1.129   3.973   4.064  1.7317  0.3147  0.4693
 4841TIP3   OH214528   1.589   3.682   3.440 -0.3885  0.2074 -0.1265
 4841TIP3    H114529   1.572   3.771   3.409  1.9680  1.1332  1.0639
 4841TIP3    H214530   1.683   3.681   3.460 -0.5963 -2.1997  0.9902
 4842TIP3   OH214531   1.928   2.468   5.175  0.2147 -0.0263 -0.3280
 4842TIP3    H114532   2.024   2.467   5.180  0.1513 -1.0990  0.7944
 4842TIP3    H214533   1.906   2.561   5.163  1.3818  0.2460 -0.4790
 4843TIP3   OH214534   1.359   3.953   4.486  0.1073  0.2283  0.3206
 4843TIP3    H114535   1.380   4.042   4.515  0.3370 -0.2607  1.7000
 4843TIP3    H214536   1.385   3.898   4.560 -0.9943 -0.8898 -0.1250
 4844TIP3   OH214537   4.928   2.623   4.995  0.1285  0.0157  0.1421
 4844TIP3    H114538   5.001   2.630   4.934  0.0547  1.5377  0.1972
 4844TIP3    H214539   4.956   2.675   5.071 -1.0478  0.6989  0.1214
 4845TIP3   OH214540   2.507   6.129   0.037 -0.5695 -0.3413 -0.5927
 4845TIP3    H114541   2.421   6.123  -0.005 -0.3784 -2.0165 -0.7746
 4845TIP3    H214542   2.541   6.040   0.034  1.3067  0.3654 -0.7954
 4846TIP3   OH214543   0.664   3.621   3.952  0.0094 -0.0864  0.1190
 4846TIP3    H114544   0.656   3.573   3.869 -0.0724 -0.1603  0.1692
 4846TIP3    H214545   0.750   3.596   3.986  1.0459  1.7491 -1.0835
 4847TIP3   OH214546   5.905   3.249   3.742 -0.1746  0.1282 -0.7253
 4847TIP3    H114547   5.995   3.238   3.712 -0.1158 -0.9969 -0.1678
 4847TIP3    H214548   5.883   3.165   3.783 -0.7913  1.0592  0.9005
 4848TIP3   OH214549   4.202   3.922   4.511  0.5727 -0.0079 -0.4296
 4848TIP3    H114550   4.294   3.899   4.498  0.0898 -1.3238 -1.6403
 4848TIP3    H214551   4.198   4.015   4.493  1.8278  0.2413  0.4959
 4849TIP3   OH214552   3.473   4.118   0.915 -0.0585 -0.1520 -0.3119
 4849TIP3    H114553   3.378   4.134   0.914 -0.1827 -0.7621  0.9733
 4849TIP3    H214554   3.511   4.204   0.935 -0.2584  0.3788 -2.1216
 4850TIP3   OH214555   2.701   1.035   3.484  0.1350 -0.2313  0.1574
 4850TIP3    H114556   2.738   1.111   3.528 -0.2105  0.8311 -1.3323
 4850TIP3    H214557   2.606   1.043   3.497  0.0842 -0.2908 -0.1517
 4851TIP3   OH214558   1.532   3.837   3.059 -0.3446  0.0111  0.0137
 4851TIP3    H114559   1.587   3.780   3.005 -0.8966 -0.8166  0.3229
 4851TIP3    H214560   1.472   3.778   3.103 -1.2953  0.8891 -0.0939
 4852TIP3   OH214561   3.242   3.465   4.431 -0.2091 -0.2748  0.0084
 4852TIP3    H114562   3.302   3.434   4.364 -0.8012 -2.2829  0.3776
 4852TIP3    H214563   3.198   3.540   4.391  1.1870  0.0593 -0.9391
 4853TIP3   OH214564   0.331   5.323   4.722  0.2393 -0.3120 -0.3356
 4853TIP3    H114565   0.286   5.274   4.654  0.8728  0.7286 -1.5168
 4853TIP3    H214566   0.423   5.327   4.694  0.9294 -1.6342  1.5957
 4854TIP3   OH214567   0.475   3.582   5.195  0.2508  0.6574  0.2626
 4854TIP3    H114568   0.462   3.494   5.160  0.1189  1.6004 -2.1303
 4854TIP3    H214569   0.399   3.597   5.251 -0.4858 -0.1838 -0.4918
 4855TIP3   OH214570   2.364   4.147   3.957 -0.3943 -0.3025 -0.1693
 4855TIP3    H114571   2.353   4.149   4.052 -0.9895  1.5959 -0.2658
 4855TIP3    H214572   2.275   4.156   3.923  0.2345  4.1353 -0.9120
 4856TIP3   OH214573   0.476   3.333   3.386 -0.0904 -0.4370  0.0623
 4856TIP3    H114574   0.490   3.370   3.473 -2.3698 -1.7114  1.0205
 4856TIP3    H214575   0.507   3.401   3.326  0.1133  1.0853  1.8233
 4857TIP3   OH214576   2.781   1.388   4.683 -0.0407 -0.0538  0.3483
 4857TIP3    H114577   2.843   1.314   4.677 -0.2876 -0.1534 -1.4967
 4857TIP3    H214578   2.697   1.350   4.658 -0.2146  0.7830 -0.3673
 4858TIP3   OH214579   2.232   3.361   5.168  0.1189 -0.3216  0.1749
 4858TIP3    H114580   2.266   3.389   5.253  0.5651 -0.7108  0.1226
 4858TIP3    H214581   2.190   3.440   5.133  0.8785  0.1328  0.2799
 4859TIP3   OH214582   3.561   0.343   4.348 -0.6463  0.3410  0.4519
 4859TIP3    H114583   3.500   0.349   4.422  0.0991 -1.1141  1.2255
 4859TIP3    H214584   3.548   0.254   4.314 -0.5113  0.7789 -0.7565
 4860TIP3   OH214585   2.597   3.691   4.177 -0.1134  0.6480  0.2100
 4860TIP3    H114586   2.539   3.753   4.133 -2.4348 -1.9478 -0.5375
 4860TIP3    H214587   2.658   3.663   4.108  0.8250  1.9056  0.5049
 4861TIP3   OH214588   1.197   5.496   3.731  0.8190 -0.1250  0.2829
 4861TIP3    H114589   1.169   5.438   3.802 -0.2649  1.0508  0.8321
 4861TIP3    H214590   1.203   5.438   3.655  0.9217 -1.1885  1.0856
 4862TIP3   OH214591   2.318   4.448   4.271 -0.2163 -0.0768 -0.4652
 4862TIP3    H114592   2.228   4.482   4.268 -0.1404  0.1501 -0.1644
 4862TIP3    H214593   2.354   4.470   4.185 -0.1174  0.7440 -0.2191
 4863TIP3   OH214594   0.686   4.068   3.901 -0.1464 -0.1116 -0.2355
 4863TIP3    H114595   0.705   4.155   3.938  0.2068 -1.2178  2.3041
 4863TIP3    H214596   0.767   4.042   3.858  0.0324  0.4329 -0.2362
 4864TIP3   OH214597   1.420   4.345   2.423  0.2744  0.1013 -0.2803
 4864TIP3    H114598   1.434   4.439   2.417  1.2949 -0.0003  0.3938
 4864TIP3    H214599   1.459   4.310   2.343  0.5698  0.1820 -0.1738
 4865TIP3   OH214600   3.408   4.471   3.944  0.3516 -0.3481 -0.2681
 4865TIP3    H114601   3.339   4.458   4.010  0.3730 -0.9410 -0.3552
 4865TIP3    H214602   3.445   4.383   3.932 -0.8763 -0.5828 -2.4293
 4866TIP3   OH214603   5.513   0.492   1.614  0.2296 -0.2195  0.0258
 4866TIP3    H114604   5.516   0.420   1.550  0.6171  0.2617 -0.5019
 4866TIP3    H214605   5.421   0.520   1.613  0.6082  1.0435 -1.7463
 4867TIP3   OH214606   1.699   0.094   4.427  0.3145  0.0991  0.2323
 4867TIP3    H114607   1.741   0.046   4.500 -0.5906  0.1631  0.7979
 4867TIP3    H214608   1.700   0.185   4.455  0.6078  0.2148 -0.1539
 4868TIP3   OH214609   1.153   2.200   1.586  0.0324  0.6314 -0.0334
 4868TIP3    H114610   1.229   2.166   1.632 -0.3938 -0.8860 -0.4427
 4868TIP3    H214611   1.078   2.173   1.639 -0.5546 -2.2283 -2.2122
 4869TIP3   OH214612   3.067   4.594   4.064 -0.2124 -0.6820 -0.5290
 4869TIP3    H114613   2.977   4.578   4.036  0.4600 -1.9423 -2.0604
 4869TIP3    H214614   3.106   4.644   3.992 -0.1827  1.4950  0.9507
 4870TIP3   OH214615   2.249   4.988   3.885  0.2469  0.1178 -0.2976
 4870TIP3    H114616   2.336   4.949   3.884 -0.0781 -0.6828  0.8809
 4870TIP3    H214617   2.204   4.945   3.958 -1.1208  0.5509 -0.8604
 4871TIP3   OH214618   2.169   4.606   3.817 -0.2561 -0.0751 -0.0659
 4871TIP3    H114619   2.139   4.656   3.741 -0.4876 -0.3598 -0.1639
 4871TIP3    H214620   2.163   4.514   3.789  2.0558 -0.1062 -0.5893
 4872TIP3   OH214621   2.510   4.617   2.554 -0.2400  0.6129  0.1570
 4872TIP3    H114622   2.528   4.698   2.507  0.9797  0.2688  0.0180
 4872TIP3    H214623   2.492   4.553   2.485  0.2674  0.4144  0.2094
 4873TIP3   OH214624   2.428   3.869   4.057 -0.2599  0.1587  0.2007
 4873TIP3    H114625   2.455   3.941   4.000  0.8691 -0.7142 -0.3931
 4873TIP3    H214626   2.359   3.823   4.008  0.0349 -0.0189 -0.0477
 4874TIP3   OH214627   0.998   5.321   2.662 -0.4380 -0.7299  0.1298
 4874TIP3    H114628   1.020   5.384   2.593  1.7438 -0.9241  0.6090
 4874TIP3    H214629   0.985   5.238   2.615 -0.8986 -0.4552 -0.2405
 4875TIP3   OH214630   1.023   1.945   4.988  0.5172  0.6683 -0.5988
 4875TIP3    H114631   1.059   1.992   4.912  0.9843  0.7510 -0.3212
 4875TIP3    H214632   0.974   2.012   5.035 -1.2576  0.2430 -1.7666
 4876TIP3   OH214633   0.027   4.061   3.644 -0.6372  0.0489 -0.1292
 4876TIP3    H114634   0.114   4.067   3.682 -0.6881  0.4808 -0.0719
 4876TIP3    H214635   0.006   3.968   3.644 -0.0062 -0.0889 -0.5334
 4877TIP3   OH214636   0.955   1.599   2.453  0.0705  0.0347 -0.2660
 4877TIP3    H114637   0.895   1.533   2.488 -1.3477  1.7231  0.5730
 4877TIP3    H214638   0.903   1.645   2.387  0.9967  0.4109 -0.7270
 4878TIP3   OH214639   1.543   3.227   3.607  0.7712  0.1613 -0.2814
 4878TIP3    H114640   1.611   3.230   3.540  0.2139 -2.0855 -0.9813
 4878TIP3    H214641   1.501   3.142   3.595 -0.1735  0.2557  2.0991
 4879TIP3   OH214642   5.474   1.237  -0.009 -0.6373  0.1813  0.3846
 4879TIP3    H114643   5.384   1.268   0.000 -0.7029 -0.1408  0.8791
 4879TIP3    H214644   5.483   1.169   0.057  0.2393  0.8237  0.9575
 4880TIP3   OH214645   1.562   2.490   3.787 -0.3531  0.4369 -0.0150
 4880TIP3    H114646   1.469   2.469   3.775 -0.1523  0.5038 -1.7755
 4880TIP3    H214647   1.562   2.578   3.825 -1.0881 -1.0907  3.7712
 4881TIP3   OH214648   0.285   3.577   4.514  0.3823 -0.1440 -0.2452
 4881TIP3    H114649   0.262   3.528   4.435  0.3908  0.2141 -0.4689
 4881TIP3    H214650   0.202   3.610   4.547  0.4470  0.2132 -0.4378
 4882TIP3   OH214651   6.110   3.356   5.137  0.0900  0.4657  0.0125
 4882TIP3    H114652   6.037   3.353   5.198 -0.0984  1.3178 -0.1641
 4882TIP3    H214653   6.120   3.265   5.107  0.3562 -0.0101  1.4910
 4883TIP3   OH214654   1.311   2.627   3.979  0.9567  0.6006  0.4926
 4883TIP3    H114655   1.282   2.648   3.890  0.4734  0.1367  0.5335
 4883TIP3    H214656   1.244   2.566   4.011  0.9632  1.0106  1.2878
 4884TIP3   OH214657   0.654   6.003   4.106  0.4689  0.5501 -0.1218
 4884TIP3    H114658   0.743   6.025   4.132  0.2722 -0.3946  1.3774
 4884TIP3    H214659   0.600   6.029   4.180 -0.0908 -2.2840  0.4952
 4885TIP3   OH214660   5.485   0.291   0.743 -0.7283  0.6618 -0.4800
 4885TIP3    H114661   5.439   0.218   0.786 -1.7433  0.2397 -2.2289
 4885TIP3    H214662   5.434   0.368   0.767  0.0778  0.7452  0.9977
 4886TIP3   OH214663   0.395   2.656   1.429 -0.2648  0.6654  0.2988
 4886TIP3    H114664   0.475   2.695   1.393 -1.7547  1.6118 -2.1714
 4886TIP3    H214665   0.397   2.565   1.398 -0.6864  1.0034 -0.7485
 4887TIP3   OH214666   4.748   1.185   2.513  0.0370  0.0837 -0.1127
 4887TIP3    H114667   4.760   1.207   2.420  1.4939  0.4981  0.1581
 4887TIP3    H214668   4.798   1.105   2.526 -0.7289 -0.3570  0.1708
 4888TIP3   OH214669   6.402   4.597   2.541 -0.1420  1.0685  0.9804
 4888TIP3    H114670   6.380   4.637   2.457  0.5150 -0.0791  0.2526
 4888TIP3    H214671   6.453   4.665   2.586  0.8705  1.1108 -0.2001
 4889TIP3   OH214672   2.799   6.074   0.523  0.4530 -0.3562 -0.0972
 4889TIP3    H114673   2.836   5.993   0.488  0.0702  0.5252 -2.6780
 4889TIP3    H214674   2.874   6.128   0.545  0.7381  0.2730 -2.5161
 4890TIP3   OH214675   0.790   4.148   5.077  0.1359  0.0276 -0.3601
 4890TIP3    H114676   0.804   4.092   5.001 -1.2555 -1.3456  0.3629
 4890TIP3    H214677   0.768   4.087   5.148 -0.8831  1.4478  0.5733
 4891TIP3   OH214678   0.761   5.076   4.444 -0.0503  0.1421  0.2160
 4891TIP3    H114679   0.765   5.097   4.351 -0.1102  0.5078  0.2952
 4891TIP3    H214680   0.700   5.003   4.450  0.2491 -0.1331 -0.0750
 4892TIP3   OH214681   0.211   4.742   2.520 -0.3781 -0.4043  0.3812
 4892TIP3    H114682   0.200   4.723   2.613 -1.9356  0.7527  0.4553
 4892TIP3    H214683   0.305   4.732   2.504 -0.2158 -1.3468  1.9060
 4893TIP3   OH214684   5.856   4.263   4.933 -0.1191  0.0176  0.1047
 4893TIP3    H114685   5.853   4.181   4.981 -1.7813  0.0941  0.1907
 4893TIP3    H214686   5.946   4.293   4.940 -0.1437 -0.3807  2.4870
 4894TIP3   OH214687   5.575   4.306   3.205 -0.0799  0.0050 -0.2921
 4894TIP3    H114688   5.517   4.230   3.199 -0.5742  0.3810 -0.3292
 4894TIP3    H214689   5.519   4.381   3.183  0.9178  0.1660 -2.4435
 4895TIP3   OH214690   2.248   0.723   5.058 -0.2528  0.4691  0.1757
 4895TIP3    H114691   2.284   0.679   5.135 -3.1702  0.2566  1.5038
 4895TIP3    H214692   2.313   0.789   5.034  2.8443 -2.5172 -0.0343
 4896TIP3   OH214693   2.564   4.216   2.950 -0.1731 -0.1422  0.3929
 4896TIP3    H114694   2.601   4.161   2.881  0.0409 -0.2435  0.5889
 4896TIP3    H214695   2.532   4.153   3.016  0.0066 -0.0342  0.5842
 4897TIP3   OH214696   6.173   3.197   4.010  0.0822 -0.5928 -0.2097
 4897TIP3    H114697   6.236   3.199   3.938 -0.7879 -1.1875 -1.0007
 4897TIP3    H214698   6.151   3.105   4.020  0.2665 -0.5325  0.9032
 4898TIP3   OH214699   0.022   3.400   4.778  0.2004  0.4935 -0.5012
 4898TIP3    H114700   0.109   3.363   4.794 -0.5042 -1.0402 -0.0383
 4898TIP3    H214701  -0.034   3.323   4.769 -1.4140  1.4703  0.9411
 4899TIP3   OH214702   3.600   0.832   4.751 -0.0137  0.0991 -0.0877
 4899TIP3    H114703   3.643   0.775   4.686 -0.5209  0.4569 -0.7383
 4899TIP3    H214704   3.614   0.787   4.834 -0.1271 -0.8223 -0.5565
 4900TIP3   OH214705   0.666   5.057   4.892  0.0285 -0.3609  0.4775
 4900TIP3    H114706   0.580   5.029   4.921 -1.2801  1.0154 -1.8692
 4900TIP3    H214707   0.701   4.982   4.842 -0.4686 -0.3753  0.1489
 4901TIP3   OH214708   0.518   6.123   5.162 -0.2636 -0.5163  0.4995
 4901TIP3    H114709   0.576   6.047   5.156  0.6899  0.2412  0.0391
 4901TIP3    H214710   0.434   6.092   5.130  0.2556 -1.2393 -0.1616
 4902TIP3   OH214711   1.565   3.656   2.579 -0.1973  0.6154  0.9996
 4902TIP3    H114712   1.514   3.603   2.641  0.4012  1.1585  1.9637
 4902TIP3    H214713   1.651   3.615   2.578 -0.2464  0.5263  0.4135
 4903TIP3   OH214714   6.355   3.443   5.277 -0.1555 -0.0177 -0.3243
 4903TIP3    H114715   6.283   3.428   5.216 -1.3787 -1.7652  1.4869
 4903TIP3    H214716   6.330   3.522   5.325 -0.6555 -0.3659 -0.0086
 4904TIP3   OH214717   2.621   3.060   4.822  0.0374 -0.0431  0.5117
 4904TIP3    H114718   2.539   3.056   4.872  0.4715 -0.6654  1.1792
 4904TIP3    H214719   2.689   3.057   4.889  0.6981 -3.5500 -0.2101
 4905TIP3   OH214720   6.432   2.544   4.400 -0.1259 -0.5148  0.5082
 4905TIP3    H114721   6.467   2.631   4.419  4.6295 -1.5311 -2.7811
 4905TIP3    H214722   6.429   2.501   4.485 -1.6275  2.4721  2.0524
 4906TIP3   OH214723   5.587   5.784   1.413  0.3145  0.0134  0.2009
 4906TIP3    H114724   5.676   5.777   1.447  0.8753  0.1977 -1.1889
 4906TIP3    H214725   5.567   5.877   1.416  0.5307  0.0813 -0.3632
 4907TIP3   OH214726   4.728   0.672   0.295 -0.2080 -0.4303  0.3991
 4907TIP3    H114727   4.703   0.610   0.227 -2.8559  0.3643  0.5809
 4907TIP3    H214728   4.733   0.620   0.375 -1.5601 -0.5774  0.3955
 4908TIP3   OH214729   4.442   6.017   0.360 -0.0481 -0.1540 -0.0590
 4908TIP3    H114730   4.428   5.977   0.446  0.8280  0.9554  0.6294
 4908TIP3    H214731   4.460   5.944   0.301 -2.5911 -1.0894  0.2894
 4909TIP3   OH214732   1.281   5.069   2.728  0.4122  0.1508  0.1647
 4909TIP3    H114733   1.275   4.974   2.742  0.8188  0.0821 -0.1039
 4909TIP3    H214734   1.209   5.089   2.668  0.8042 -0.1156 -0.3986
 4910TIP3   OH214735   6.497   3.793   0.705 -0.1920 -0.5359  0.1474
 4910TIP3    H114736   6.449   3.713   0.725 -1.5098 -0.0965 -1.1914
 4910TIP3    H214737   6.444   3.863   0.742  1.1364 -0.2617  1.6344
 4911TIP3   OH214738   5.355   1.911   0.586 -0.5407  0.1292  0.5260
 4911TIP3    H114739   5.313   1.968   0.521 -1.2295 -2.1597 -1.0700
 4911TIP3    H214740   5.285   1.852   0.615  0.1943  0.0158  2.0954
 4912TIP3   OH214741   3.248   0.164   2.460  0.0508 -0.1098  0.0616
 4912TIP3    H114742   3.168   0.183   2.410 -1.2595 -1.2100  1.6897
 4912TIP3    H214743   3.312   0.137   2.393 -1.0942  0.2598 -1.2054
 4913TIP3   OH214744   3.835   2.911   4.649  0.3692 -0.0013 -0.2663
 4913TIP3    H114745   3.823   2.953   4.564  0.7798  0.9805  0.1569
 4913TIP3    H214746   3.930   2.903   4.659  0.3614  0.8721  0.5718
 4914TIP3   OH214747   1.229   4.529   3.591  0.5831  0.3467  0.4796
 4914TIP3    H114748   1.224   4.612   3.639 -1.1734  0.7153 -0.3033
 4914TIP3    H214749   1.312   4.490   3.620 -0.4942  0.4328  3.9653
 4915TIP3   OH214750   1.431   1.948   5.032 -0.2932  0.4864  0.2098
 4915TIP3    H114751   1.527   1.956   5.031 -0.2076 -0.5066  0.4667
 4915TIP3    H214752   1.401   2.017   4.973  0.6620 -0.1814 -1.0798
 4916TIP3   OH214753   4.990   3.907   2.138 -0.1676 -0.2626 -0.3132
 4916TIP3    H114754   5.053   3.835   2.142 -0.3293 -0.4218 -0.5682
 4916TIP3    H214755   4.905   3.865   2.154 -0.6656 -0.6874 -3.6204
 4917TIP3   OH214756   2.122   3.569   5.046  0.3336 -0.5812  0.1912
 4917TIP3    H114757   2.124   3.658   5.082 -0.4339 -0.5096  0.0607
 4917TIP3    H214758   2.031   3.555   5.021  0.4650 -1.3871  0.1502
 4918TIP3   OH214759   0.580   4.255   4.190  0.1928 -0.1014 -0.9295
 4918TIP3    H114760   0.653   4.202   4.222  0.5809  0.2878 -1.1704
 4918TIP3    H214761   0.520   4.192   4.150 -0.2583 -0.5826  0.4916
 4919TIP3   OH214762   0.523   5.428   3.300 -0.8036 -0.5227 -0.2511
 4919TIP3    H114763   0.437   5.393   3.321 -2.0307  2.0963 -0.7177
 4919TIP3    H214764   0.519   5.446   3.206  0.0201  0.2362 -0.1470
 4920TIP3   OH214765   2.524   2.631   5.047  0.3585  0.7975 -0.1820
 4920TIP3    H114766   2.587   2.698   5.073  1.3216  0.2759 -1.0971
 4920TIP3    H214767   2.563   2.592   4.968  0.4470 -1.7144  1.0771
 4921TIP3   OH214768   1.643   3.676   4.896  0.0687  0.0670  0.1312
 4921TIP3    H114769   1.581   3.640   4.960  0.0156 -0.9008 -0.4605
 4921TIP3    H214770   1.664   3.763   4.931  0.3282 -0.5850  1.6703
 4922TIP3   OH214771   0.081   5.290   5.053  0.3327  0.2602  0.2126
 4922TIP3    H114772   0.013   5.241   5.007  0.7583 -1.0548  0.9513
 4922TIP3    H214773   0.158   5.234   5.047  0.5821  0.3936  1.8749
 4923TIP3   OH214774   5.103   1.658   2.305  0.2669  0.4614  0.2719
 4923TIP3    H114775   5.050   1.705   2.370 -0.3284 -2.0379  1.6931
 4923TIP3    H214776   5.084   1.566   2.323  0.4880 -0.2978 -3.1586
 4924TIP3   OH214777   3.499   5.644   1.199  0.5533 -0.2490 -0.2407
 4924TIP3    H114778   3.558   5.583   1.242  0.1893 -1.3134 -1.2532
 4924TIP3    H214779   3.539   5.730   1.213  2.1465 -0.9237 -0.6104
 4925TIP3   OH214780   0.071   0.568   0.389  0.0451  0.3105 -0.5282
 4925TIP3    H114781   0.087   0.612   0.472  0.4648 -0.7452 -0.0342
 4925TIP3    H214782   0.004   0.503   0.410 -0.1177  0.2918 -1.1029
 4926TIP3   OH214783   1.955   3.012   4.601 -0.3584 -0.0533 -0.4189
 4926TIP3    H114784   1.874   3.014   4.550  0.3218  0.2965 -1.5210
 4926TIP3    H214785   1.973   3.103   4.622 -0.0646 -0.0942 -0.4884
 4927TIP3   OH214786   1.647   3.330   4.582 -0.4821  0.2051 -0.8751
 4927TIP3    H114787   1.709   3.378   4.528 -0.1244  0.7768  0.0326
 4927TIP3    H214788   1.561   3.365   4.557 -0.4248 -0.3797 -1.9180
 4928TIP3   OH214789   1.035   5.957   3.932 -0.1899  0.0721 -0.2534
 4928TIP3    H114790   1.034   5.920   3.843  0.6007  0.3496 -0.3853
 4928TIP3    H214791   1.120   6.001   3.938  0.5035 -1.4253  1.2525
 4929TIP3   OH214792   6.489   3.442   0.354 -0.4925  0.0196 -0.3665
 4929TIP3    H114793   6.403   3.429   0.394 -0.6416  1.0653 -0.3437
 4929TIP3    H214794   6.483   3.526   0.309  0.8122  0.5862  0.4586
 4930TIP3   OH214795   5.721   4.797   2.483  0.2083 -0.0040 -0.2993
 4930TIP3    H114796   5.693   4.842   2.403 -2.1082  0.4200  0.7058
 4930TIP3    H214797   5.702   4.705   2.466 -0.1576  0.0700 -0.3034
 4931TIP3   OH214798   3.066   4.318   4.372  0.1184 -0.0455 -0.0350
 4931TIP3    H114799   3.103   4.379   4.435 -1.2687  1.2425 -0.4385
 4931TIP3    H214800   2.972   4.316   4.393 -0.7563  2.1441 -3.4761
 4932TIP3   OH214801   5.811   1.972  -0.018  0.0923  0.9711  0.0451
 4932TIP3    H114802   5.760   2.008   0.054  0.6857  1.6419  0.1435
 4932TIP3    H214803   5.899   2.010  -0.006  1.2726 -2.0061  1.2816
 4933TIP3   OH214804   0.296   5.311   3.398  0.4099  0.3061 -0.6173
 4933TIP3    H114805   0.291   5.338   3.489 -0.2773 -2.1723  0.1048
 4933TIP3    H214806   0.207   5.321   3.365  0.6711  1.2654 -1.0680
 4934TIP3   OH214807   3.104   3.971   3.991  0.2352 -0.6470  0.2227
 4934TIP3    H114808   3.062   4.007   4.070 -0.5640 -1.0993  0.0074
 4934TIP3    H214809   3.033   3.927   3.944  0.8219 -0.8491 -0.4796
 4935TIP3   OH214810   4.029   5.111   3.402 -0.0128  0.5452 -0.0915
 4935TIP3    H114811   3.969   5.040   3.423 -1.0482  0.7703 -2.1670
 4935TIP3    H214812   4.106   5.068   3.365 -0.4391  0.4800 -0.8998
 4936TIP3   OH214813   3.487   3.133   4.139 -0.2383 -0.2991 -0.4508
 4936TIP3    H114814   3.582   3.137   4.153 -0.4409  1.1664  0.7310
 4936TIP3    H214815   3.459   3.224   4.146 -1.6614 -0.6672 -1.3439
 4937TIP3   OH214816   0.781   3.946   4.850 -0.0245  0.2819  0.5201
 4937TIP3    H114817   0.771   3.955   4.755 -0.0410 -0.8799  0.4103
 4937TIP3    H214818   0.695   3.915   4.880 -0.0944  0.8759  0.9548
 4938TIP3   OH214819   4.530   0.058   2.149 -0.0553 -0.7316 -0.0094
 4938TIP3    H114820   4.516   0.128   2.213 -0.5631 -0.3579 -0.5212
 4938TIP3    H214821   4.444   0.017   2.139 -0.4908  0.5705 -2.0082
 4939TIP3   OH214822   1.102   2.929   4.047  0.4012  0.0675 -0.0917
 4939TIP3    H114823   1.063   2.899   4.129  0.8381 -1.2912 -0.3670
 4939TIP3    H214824   1.052   2.882   3.979  0.1671  1.0374 -0.5928
 4940TIP3   OH214825   1.587   3.140   4.049 -0.2330  0.3691  0.4685
 4940TIP3    H114826   1.496   3.119   4.028  0.3456 -0.1565 -1.6240
 4940TIP3    H214827   1.633   3.135   3.965  1.9702 -0.6551  1.6929
 4941TIP3   OH214828   6.450   4.480   4.271 -0.0115  0.1740  0.1109
 4941TIP3    H114829   6.450   4.397   4.224 -0.1969  0.6235 -0.7103
 4941TIP3    H214830   6.524   4.528   4.233 -0.5961  0.8164 -0.2341
 4942TIP3   OH214831   0.060   4.134   3.191  0.3698 -0.4104  0.0845
 4942TIP3    H114832   0.059   4.073   3.265 -2.1659 -1.1894 -0.5414
 4942TIP3    H214833   0.067   4.078   3.114  1.7124  0.3349 -0.3641
 4943TIP3   OH214834   2.664   2.712   4.133  0.5808  0.3588  0.3018
 4943TIP3    H114835   2.735   2.776   4.130  0.3133  0.6701  0.6053
 4943TIP3    H214836   2.584   2.764   4.138  0.4720  0.0131  2.8640
 4944TIP3   OH214837   1.412   5.749   4.091 -0.1708  0.0462  0.2324
 4944TIP3    H114838   1.391   5.725   4.001  1.5691 -0.3322 -0.0958
 4944TIP3    H214839   1.399   5.844   4.094  3.1886  0.6512 -1.4597
 4945TIP3   OH214840   0.330   4.233   3.238 -0.5933  0.5859  0.1514
 4945TIP3    H114841   0.304   4.322   3.211 -0.4265 -0.0188 -2.0905
 4945TIP3    H214842   0.254   4.179   3.217  0.7318 -0.4333 -2.1428
 4946TIP3   OH214843   1.978   5.313   0.340 -0.0870  0.1473  0.9979
 4946TIP3    H114844   1.966   5.368   0.417  0.6071 -1.1841  2.0790
 4946TIP3    H214845   2.070   5.288   0.342 -0.3240 -0.8355  0.3831
 4947TIP3   OH214846   4.406   4.763   1.223 -0.0822  0.0333 -0.0527
 4947TIP3    H114847   4.452   4.746   1.305 -0.7468 -0.9643  0.1142
 4947TIP3    H214848   4.415   4.858   1.210  0.3290  0.1429  0.9757
 4948TIP3   OH214849   4.426   5.513   0.439 -0.0618 -0.0466 -0.5660
 4948TIP3    H114850   4.389   5.431   0.408 -0.0273 -0.9982  1.8295
 4948TIP3    H214851   4.508   5.489   0.482  0.4282  1.3540 -0.6651
 4949TIP3   OH214852   1.732   5.670   4.611  0.1322  0.0649 -0.0990
 4949TIP3    H114853   1.656   5.698   4.663 -0.6454 -0.3880 -0.9709
 4949TIP3    H214854   1.752   5.745   4.555 -0.7673 -0.4246 -1.0945
 4950TIP3   OH214855   2.647   3.780   2.939  0.4846  0.3279 -0.3848
 4950TIP3    H114856   2.653   3.705   2.881  0.5193  0.2825 -0.3226
 4950TIP3    H214857   2.713   3.764   3.007 -2.0109 -1.4284  1.7413
 4951TIP3   OH214858   2.928   3.167   4.623  0.0504  0.0124 -0.3375
 4951TIP3    H114859   2.837   3.152   4.596 -0.1677  2.4720 -1.0201
 4951TIP3    H214860   2.975   3.188   4.543  1.1080 -0.5850  0.1072
 4952TIP3   OH214861   1.312   4.990   2.178  0.3630 -0.5650  0.3727
 4952TIP3    H114862   1.227   5.032   2.195  0.6963  0.2731 -0.0048
 4952TIP3    H214863   1.325   4.931   2.252 -0.2864 -0.2647  0.7285
 4953TIP3   OH214864   2.841   3.900   4.400 -0.2532 -0.2891  0.1879
 4953TIP3    H114865   2.884   3.936   4.478  2.7963 -1.0483 -1.0691
 4953TIP3    H214866   2.824   3.809   4.423  1.7660 -0.8481 -0.4195
 4954TIP3   OH214867   1.264   4.244   3.048  0.7752 -0.4957 -0.0809
 4954TIP3    H114868   1.332   4.289   3.099 -0.0127  0.1438  0.3993
 4954TIP3    H214869   1.257   4.295   2.967 -0.9767  0.9814  0.9727
 4955TIP3   OH214870   0.885   4.022   3.685  0.5484 -0.7805 -0.4340
 4955TIP3    H114871   0.850   4.031   3.597  1.6450  0.6007 -0.7455
 4955TIP3    H214872   0.928   3.936   3.685 -0.2207 -1.1692 -0.9565
 4956TIP3   OH214873   2.705   3.588   3.957  0.3652 -0.1666 -0.6952
 4956TIP3    H114874   2.785   3.543   3.931  0.8805  0.1047  0.4238
 4956TIP3    H214875   2.678   3.636   3.879 -0.1028 -2.2810 -1.8763
 4957TIP3   OH214876   3.406   4.669   2.698 -0.4460 -0.0386  0.4502
 4957TIP3    H114877   3.472   4.645   2.633  0.0287 -0.5892  1.1223
 4957TIP3    H214878   3.397   4.764   2.690  0.5336  0.0594  0.4456
 4958TIP3   OH214879   2.120   4.437   2.484  0.0417 -0.0259 -0.4158
 4958TIP3    H114880   2.123   4.528   2.515 -0.8920 -0.4685  1.0296
 4958TIP3    H214881   2.199   4.427   2.432  0.6923  1.3147  0.2774
 4959TIP3   OH214882   4.681   3.507   5.027  0.3615 -0.5540  0.1114
 4959TIP3    H114883   4.675   3.561   5.106 -2.6580 -1.1129  0.3482
 4959TIP3    H214884   4.708   3.567   4.959  0.1683  0.5746  1.0158
 4960TIP3   OH214885   1.520   2.557   3.048  0.3227 -0.1121  0.0977
 4960TIP3    H114886   1.557   2.642   3.074  1.6152 -0.4529 -0.6079
 4960TIP3    H214887   1.492   2.518   3.131 -0.8885  1.2651  0.3673
 4961TIP3   OH214888   1.737   4.906   2.049 -0.0231 -0.2538  0.0987
 4961TIP3    H114889   1.801   4.871   1.987 -1.1600  0.0689 -1.2673
 4961TIP3    H214890   1.685   4.830   2.076 -0.8613 -0.0528 -0.9336
 4962TIP3   OH214891   3.463   2.417   4.218  0.1362  0.1215 -0.0730
 4962TIP3    H114892   3.484   2.456   4.133 -1.2960  0.8544 -0.1060
 4962TIP3    H214893   3.433   2.491   4.271 -1.3523 -0.7206  0.2806
 4963TIP3   OH214894   2.748   4.511   2.751  0.3947  0.8464 -0.3748
 4963TIP3    H114895   2.672   4.478   2.702  1.3337 -0.1360 -1.1926
 4963TIP3    H214896   2.823   4.479   2.703  1.3583 -0.5247  1.9676
 4964TIP3   OH214897   1.585   3.817   2.364 -0.8262 -0.3848  0.6152
 4964TIP3    H114898   1.608   3.762   2.439  0.1449  1.4765  1.7048
 4964TIP3    H214899   1.665   3.866   2.344 -1.0287 -0.9328 -1.7314
 4965TIP3   OH214900   4.852   4.675   4.511  0.1627 -0.1012 -0.2838
 4965TIP3    H114901   4.885   4.706   4.427 -0.2188 -0.8748 -0.7239
 4965TIP3    H214902   4.772   4.725   4.526 -0.0912 -0.3943 -0.6666
 4966TIP3   OH214903   1.927   5.021   4.838  0.5343  0.2097  0.5138
 4966TIP3    H114904   1.980   4.978   4.906 -0.1080 -1.3758  0.0414
 4966TIP3    H214905   1.840   5.029   4.876  0.1303 -0.8278 -0.1511
 4967TIP3   OH214906   3.222   5.694   4.386  0.2373 -0.1973  0.4497
 4967TIP3    H114907   3.275   5.693   4.306  1.4005  1.0124  1.2031
 4967TIP3    H214908   3.254   5.619   4.436  0.6562  0.0329  0.5281
 4968TIP3   OH214909   0.845   3.038   0.341 -0.0437 -0.1377 -0.1257
 4968TIP3    H114910   0.926   3.023   0.390  0.1995  1.6054  0.0422
 4968TIP3    H214911   0.872   3.042   0.250 -0.0696 -0.3852 -0.1456
 4969TIP3   OH214912   3.510   4.214   3.937 -0.2441 -0.1432  0.6732
 4969TIP3    H114913   3.486   4.196   3.846 -0.6334 -0.3676  0.8187
 4969TIP3    H214914   3.455   4.155   3.989 -0.7618  0.7123  1.1052
 4970TIP3   OH214915   2.566   3.469   2.218  0.5853 -0.2246  0.0160
 4970TIP3    H114916   2.495   3.523   2.255  0.9937 -0.9088  1.8488
 4970TIP3    H214917   2.630   3.532   2.186 -0.4135  0.3919 -0.8297
 4971TIP3   OH214918   1.257   2.984   3.748  0.0111  0.4329 -0.1644
 4971TIP3    H114919   1.282   2.987   3.840 -0.6342 -0.6177  0.0430
 4971TIP3    H214920   1.163   2.965   3.748  0.3074 -1.1017 -1.0631
 4972TIP3   OH214921   1.463   3.493   4.431  0.2040  0.2001 -0.6553
 4972TIP3    H114922   1.506   3.579   4.425 -0.9336  0.7931 -0.6158
 4972TIP3    H214923   1.515   3.436   4.375  0.5335  1.1179 -1.3094
 4973TIP3   OH214924   3.589   5.705   4.301  0.4909  0.4677 -0.0089
 4973TIP3    H114925   3.567   5.644   4.371  1.0684 -1.0007 -1.0708
 4973TIP3    H214926   3.517   5.698   4.239  0.9104  0.3142 -0.4848
 4974TIP3   OH214927   3.166   3.017   3.440  0.6149 -0.1602 -0.3213
 4974TIP3    H114928   3.109   2.961   3.387 -0.1080  0.5151 -0.2837
 4974TIP3    H214929   3.143   2.996   3.531  1.3819 -0.8440 -0.2831
 4975TIP3   OH214930   2.086   2.090   4.683 -0.2179  0.0318 -0.0952
 4975TIP3    H114931   2.094   2.089   4.778 -0.3362 -0.8912 -0.0872
 4975TIP3    H214932   2.014   2.150   4.664 -0.0192  0.4203  0.3822
 4976TIP3   OH214933   3.125   0.463   2.633  0.3162 -0.2512 -0.6584
 4976TIP3    H114934   3.185   0.402   2.676  1.4213  1.0791 -0.2619
 4976TIP3    H214935   3.074   0.409   2.573  0.2860 -1.7808  0.7182
 4977TIP3   OH214936   3.568   4.879   4.950  0.0236  0.0684  0.5029
 4977TIP3    H114937   3.643   4.840   4.905  0.2708  0.5153  0.5237
 4977TIP3    H214938   3.494   4.864   4.891 -0.0223 -1.0692  0.8440
 4978TIP3   OH214939   3.174   4.785   2.709  0.0124  0.2766  0.7628
 4978TIP3    H114940   3.097   4.742   2.745  0.3057  0.2488  1.3697
 4978TIP3    H214941   3.243   4.719   2.713  0.7676  1.1540  2.8163
 4979TIP3   OH214942   2.081   4.034   4.550  0.6320  0.5934  0.4377
 4979TIP3    H114943   2.057   3.951   4.592 -0.0972  0.2553 -0.6208
 4979TIP3    H214944   2.150   4.070   4.606  1.3822 -1.0183  0.5939
 4980TIP3   OH214945   1.876   5.469   2.047 -0.1729 -0.0112 -0.0214
 4980TIP3    H114946   1.829   5.512   2.119 -0.3646  0.2181 -0.2802
 4980TIP3    H214947   1.807   5.423   1.998  0.2191 -1.7792  1.0586
 4981TIP3   OH214948   6.329   0.692   2.958  0.1747 -0.0720  0.6955
 4981TIP3    H114949   6.267   0.728   2.895  1.6266  0.1780 -0.5934
 4981TIP3    H214950   6.391   0.763   2.974  1.1163 -0.8829  0.6861
 4982TIP3   OH214951   3.482   4.197   3.294 -0.4017 -0.2303 -0.0619
 4982TIP3    H114952   3.488   4.212   3.200  0.0315 -1.9407 -0.3266
 4982TIP3    H214953   3.520   4.275   3.334  0.9384 -0.2151 -1.3381
 4983TIP3   OH214954   3.423   2.341   0.114 -0.2827  0.1359 -0.6128
 4983TIP3    H114955   3.364   2.280   0.159  1.5803 -0.3985  1.2109
 4983TIP3    H214956   3.378   2.425   0.116 -2.3603 -0.9065 -2.0788
 4984TIP3   OH214957   2.365   3.663   4.544  0.6550  0.8456  0.2738
 4984TIP3    H114958   2.313   3.717   4.484 -0.3009  0.1222  0.4262
 4984TIP3    H214959   2.456   3.678   4.519  0.2940  1.1007 -0.8871
 4985TIP3   OH214960   2.472   0.070   3.569 -0.1395  0.5224  0.4630
 4985TIP3    H114961   2.465   0.139   3.634 -1.0806  1.1859 -0.3200
 4985TIP3    H214962   2.445   0.112   3.487  3.2381  0.3411 -0.8248
 4986TIP3   OH214963   1.669   3.523   3.908 -0.2413 -0.2037  0.2942
 4986TIP3    H114964   1.621   3.599   3.939 -0.9992 -0.3951 -0.3826
 4986TIP3    H214965   1.649   3.519   3.814 -1.2820 -1.9907  0.5624
 4987TIP3   OH214966   2.957   5.566   3.691  0.0536  0.1962 -0.0289
 4987TIP3    H114967   2.956   5.506   3.765  0.0788  0.6141  0.3105
 4987TIP3    H214968   2.889   5.630   3.711  0.2796  0.4928 -0.2147
 4988TIP3   OH214969   2.418   5.862   3.274 -0.4772  0.2669  0.3252
 4988TIP3    H114970   2.417   5.810   3.194  0.3512 -1.1319  1.2113
 4988TIP3    H214971   2.344   5.830   3.325  1.0059 -1.2206  1.5947
 4989TIP3   OH214972   2.938   4.940   3.005  0.7245  0.0952  0.1184
 4989TIP3    H114973   2.869   5.003   2.988  0.7934  0.2129  0.2679
 4989TIP3    H214974   3.017   4.980   2.968  0.5873 -0.3491 -0.6716
 4990TIP3   OH214975   3.820   3.410   4.413 -0.2008 -1.1066 -0.5122
 4990TIP3    H114976   3.753   3.469   4.446  1.9270  0.6181  0.8786
 4990TIP3    H214977   3.798   3.396   4.321 -1.5915  0.6379 -0.4610
 4991TIP3   OH214978   3.058   4.439   5.081 -0.2176 -0.4430  0.6882
 4991TIP3    H114979   2.982   4.496   5.068 -1.8410 -2.7609 -0.1723
 4991TIP3    H214980   3.104   4.478   5.156  0.0768  3.3913 -1.3724
 4992TIP3   OH214981   3.013   4.092   4.632  0.1576 -0.6522  0.1531
 4992TIP3    H114982   3.051   4.160   4.687  0.0016 -1.8014  1.7030
 4992TIP3    H214983   3.078   4.022   4.631 -0.6985 -1.4580  0.5095
 4993TIP3   OH214984   2.902   1.535   4.332 -0.0528 -0.0742 -0.2014
 4993TIP3    H114985   2.996   1.519   4.333 -0.4405 -2.5392 -0.7211
 4993TIP3    H214986   2.883   1.561   4.242 -0.0906 -1.0004 -0.4618
 4994TIP3   OH214987   1.692   5.602   3.707  0.3035 -0.0883  0.0606
 4994TIP3    H114988   1.694   5.562   3.620  0.1767  0.3554 -0.1473
 4994TIP3    H214989   1.717   5.693   3.693  2.1454 -0.4692  0.7532
 4995TIP3   OH214990   3.484   5.496   4.430  0.2721  0.2505 -0.1547
 4995TIP3    H114991   3.398   5.453   4.435  0.7243 -0.5466  0.8769
 4995TIP3    H214992   3.540   5.433   4.385  0.0096  1.3106 -2.0418
 4996TIP3   OH214993   4.615   1.207   0.253  0.0523  0.0606 -0.5928
 4996TIP3    H114994   4.628   1.258   0.173 -0.9890 -0.2822 -0.9957
 4996TIP3    H214995   4.697   1.160   0.266  0.1291 -0.1043 -1.6311
 4997TIP3   OH214996   3.146   5.729   4.683 -0.1925 -0.0199 -0.5468
 4997TIP3    H114997   3.216   5.785   4.718 -1.6263  1.4768  0.0123
 4997TIP3    H214998   3.139   5.756   4.591 -0.4733  0.3294 -0.4282
 4998TIP3   OH214999   4.357   5.336   3.457 -0.0016 -0.2209 -0.3367
 4998TIP3    H115000   4.430   5.278   3.478  0.1487  0.2670  0.4934
 4998TIP3    H215001   4.384   5.379   3.376  1.0126  0.5944  0.4191
 4999TIP3   OH215002   5.092   2.110   3.284  0.1187  0.3575  0.3194
 4999TIP3    H115003   5.149   2.137   3.355  0.2783 -1.8590  1.0646
 4999TIP3    H215004   5.010   2.086   3.327 -0.8844  2.0779 -0.5897
 5000TIP3   OH215005   2.879   4.127   3.593 -0.4835 -0.6755 -0.2959
 5000TIP3    H115006   2.788   4.157   3.599 -1.3924 -3.2446 -0.2480
 5000TIP3    H215007   2.872   4.039   3.554  1.9456 -1.0709  0.1048
 5001TIP3   OH215008   2.054   3.844   1.667 -0.4037 -0.1446  0.5937
 5001TIP3    H115009   2.070   3.875   1.578 -0.4829  0.2725  0.7259
 5001TIP3    H215010   2.130   3.790   1.687 -0.9215 -1.1558 -0.1408
 5002TIP3   OH215011   3.516   0.436   2.657  0.4943  0.1867  0.3964
 5002TIP3    H115012   3.435   0.389   2.674 -0.2493  0.8049 -1.3405
 5002TIP3    H215013   3.488   0.521   2.622  1.8828 -0.1943 -1.7517
 5003TIP3   OH215014   4.426   3.445   5.047  0.5437 -0.4994  0.4400
 5003TIP3    H115015   4.521   3.450   5.038  0.4222  1.2749 -0.1817
 5003TIP3    H215016   4.406   3.352   5.050  2.0683 -0.9568 -2.1672
 5004TIP3   OH215017   2.205   2.576   5.064 -0.5714  0.0558 -0.8358
 5004TIP3    H115018   2.173   2.566   4.974  2.0092 -1.6868 -1.5922
 5004TIP3    H215019   2.281   2.633   5.055 -0.4279  0.0399  0.2978
 5005TIP3   OH215020   4.897   0.545   2.421  0.2332  0.0026  0.0741
 5005TIP3    H115021   4.907   0.455   2.449 -0.1284 -0.2705 -0.6614
 5005TIP3    H215022   4.899   0.597   2.502  0.8965 -0.6221  0.4587
 5006TIP3   OH215023   3.331   5.857   3.886  0.3314 -0.0157  0.3397
 5006TIP3    H115024   3.246   5.827   3.918  0.0079  0.3986 -0.1306
 5006TIP3    H215025   3.367   5.782   3.839 -0.6874  0.4905 -1.2582
 5007TIP3   OH215026   3.029   3.223   2.557 -0.1390 -0.1022 -0.4587
 5007TIP3    H115027   3.017   3.204   2.650  0.7481  0.5886 -0.2001
 5007TIP3    H215028   3.048   3.137   2.517 -3.0392 -0.8121 -0.4490
 5008TIP3   OH215029   2.530   2.876   4.428  0.1044  0.0703  0.2293
 5008TIP3    H115030   2.475   2.934   4.480 -1.1319 -0.4644 -0.4775
 5008TIP3    H215031   2.487   2.871   4.343  1.8791  0.5897 -0.7430
 5009TIP3   OH215032   1.420   4.365   3.243 -0.0324  0.0069 -0.8539
 5009TIP3    H115033   1.430   4.286   3.296 -0.0394  1.0406  0.7217
 5009TIP3    H215034   1.466   4.433   3.292 -1.4924  1.3704 -1.3397
 5010TIP3   OH215035   0.571   4.414   3.354 -0.2835  0.1579 -0.3026
 5010TIP3    H115036   0.516   4.393   3.430 -0.2663  0.5137 -0.1912
 5010TIP3    H215037   0.509   4.444   3.288 -0.2875 -0.0519 -0.3940
 5011TIP3   OH215038   2.901   3.798   3.054 -0.0728 -0.1853 -0.1298
 5011TIP3    H115039   2.931   3.712   3.082 -1.8829 -1.0599 -0.7874
 5011TIP3    H215040   2.971   3.831   2.998 -0.2514 -2.0919 -1.5060
 5012TIP3   OH215041   2.054   5.251   4.696 -0.5573 -0.0015  0.0136
 5012TIP3    H115042   1.982   5.264   4.634 -1.1250  2.9046  1.2277
 5012TIP3    H215043   2.023   5.183   4.756 -1.2937 -0.4793 -0.8973
 5013TIP3   OH215044   2.928   2.607   3.382  0.5384  0.4396  0.2328
 5013TIP3    H115045   3.008   2.618   3.434  1.7128 -0.2745 -1.4118
 5013TIP3    H215046   2.923   2.687   3.329  0.1607  0.4745  0.3173
 5014TIP3   OH215047   1.130   6.118   3.248 -0.0885  0.1743  0.0114
 5014TIP3    H115048   1.082   6.041   3.278  0.1028 -0.4843 -1.3184
 5014TIP3    H215049   1.062   6.181   3.224 -0.2415  0.5905  1.5198
 5015TIP3   OH215050   2.275   3.281   2.678 -0.3898 -0.6399 -0.0084
 5015TIP3    H115051   2.191   3.265   2.720  0.2656  2.4321  2.6112
 5015TIP3    H215052   2.333   3.214   2.715 -0.9928 -0.9826  0.3243
 5016TIP3   OH215053   0.763   4.427   4.016 -0.3242  0.5386  0.1342
 5016TIP3    H115054   0.779   4.383   3.933 -0.4518 -2.2014  1.5045
 5016TIP3    H215055   0.845   4.471   4.036  0.5941 -1.0149 -0.1551
 5017TIP3   OH215056   1.647   0.070   0.021 -0.4605 -0.0597 -0.4996
 5017TIP3    H115057   1.563   0.091  -0.019 -0.5558 -0.4722 -0.5148
 5017TIP3    H215058   1.690   0.155   0.032 -0.1302 -0.0096 -2.1425
 5018TIP3   OH215059   1.718   4.197   4.334  0.1116 -0.2274  0.3678
 5018TIP3    H115060   1.809   4.206   4.360  0.0654 -0.2562  0.5415
 5018TIP3    H215061   1.668   4.222   4.412 -0.0444  1.1478 -0.1592
 5019TIP3   OH215062   3.706   3.716   4.047 -0.1339 -0.0574  0.7331
 5019TIP3    H115063   3.748   3.715   3.961 -1.8876  0.0083 -0.1337
 5019TIP3    H215064   3.731   3.800   4.086  0.2853  0.1092  0.0989
 5020TIP3   OH215065   3.505   6.039  -0.009  0.1418  0.0113 -0.0012
 5020TIP3    H115066   3.438   6.107   0.003 -1.4923 -1.4951 -0.2954
 5020TIP3    H215067   3.480   5.969   0.052 -0.3737 -1.8838 -2.3029
 5021TIP3   OH215068   3.307   1.462   3.785  0.6811  0.1707  0.0793
 5021TIP3    H115069   3.366   1.500   3.850  0.1585  2.3546 -0.7028
 5021TIP3    H215070   3.363   1.444   3.709  0.7745  0.0888  0.1675
 5022TIP3   OH215071   1.836   6.003   3.923  0.0740  0.1153  0.2580
 5022TIP3    H115072   1.859   6.093   3.947 -0.0763  0.3844 -0.5943
 5022TIP3    H215073   1.838   5.955   4.006 -0.3760  1.0211  0.8034
 5023TIP3   OH215074   2.150   4.776   2.980  0.3591  0.1782 -0.2248
 5023TIP3    H115075   2.101   4.770   2.898  1.1325  0.1198 -0.6847
 5023TIP3    H215076   2.098   4.835   3.035  0.0778  0.5813 -0.9221
 5024TIP3   OH215077   3.041   1.064   4.150  0.1472  0.7996  0.6668
 5024TIP3    H115078   2.954   1.074   4.187 -0.6234  0.0014 -0.8910
 5024TIP3    H215079   3.078   1.152   4.149 -1.7476  1.6098 -1.3165
 5025TIP3   OH215080   3.246   2.516   4.559  0.0796 -0.0272  0.4287
 5025TIP3    H115081   3.175   2.541   4.500 -0.0037 -1.2811 -0.0092
 5025TIP3    H215082   3.310   2.586   4.551 -1.7203  1.8534  1.8941
 5026TIP3   OH215083   1.707   0.869   0.232 -0.2103 -0.2252  0.3825
 5026TIP3    H115084   1.787   0.886   0.183 -0.2111 -1.3255 -0.0150
 5026TIP3    H215085   1.636   0.877   0.167 -0.4031  0.4573  0.6702
 5027TIP3   OH215086   1.152   4.679   4.235 -0.1417  1.2205  0.1137
 5027TIP3    H115087   1.239   4.641   4.241 -0.6818 -0.2936 -1.3820
 5027TIP3    H215088   1.167   4.774   4.232  1.4411  0.9665 -0.0062
 5028TIP3   OH215089   2.022   3.915   3.681  0.0252 -0.0729 -0.1987
 5028TIP3    H115090   2.090   3.933   3.616  0.6345  1.2430  0.7774
 5028TIP3    H215091   2.044   3.829   3.715  1.0476  0.2248 -0.0943
 5029TIP3   OH215092   5.557   3.795   3.739  0.0445 -0.0083 -0.2413
 5029TIP3    H115093   5.515   3.752   3.814 -0.0981 -0.2682 -0.4711
 5029TIP3    H215094   5.541   3.889   3.754 -2.1013 -0.1916 -1.1944
 5030TIP3   OH215095   3.941   5.375   3.398 -0.1402 -0.0419  0.1924
 5030TIP3    H115096   3.950   5.280   3.390  0.3223  0.0095  0.0867
 5030TIP3    H215097   3.876   5.387   3.467 -2.2128 -0.4694 -1.6184
 5031TIP3   OH215098   5.074   1.111   4.790 -0.2063 -0.0060 -0.1495
 5031TIP3    H115099   5.147   1.052   4.809 -0.0555  0.5662  1.1064
 5031TIP3    H215100   5.076   1.122   4.695  1.1792 -0.2097 -0.1502
 5032TIP3   OH215101   1.744   4.190   5.091  0.4710  0.0609  0.3862
 5032TIP3    H115102   1.825   4.148   5.062 -0.0924 -0.6691 -0.1339
 5032TIP3    H215103   1.722   4.251   5.021  0.4287  0.0584  0.3968
 5033TIP3   OH215104   3.106   5.699   5.268 -0.1260 -0.5618  0.1203
 5033TIP3    H115105   3.111   5.714   5.363  0.2151 -1.6461  0.2724
 5033TIP3    H215106   3.163   5.624   5.252 -0.9565 -1.0097 -0.8067
 5034TIP3   OH215107   2.808   3.184   4.096 -0.0980 -0.4745 -0.0411
 5034TIP3    H115108   2.769   3.266   4.124  1.3279  0.6644 -1.3226
 5034TIP3    H215109   2.822   3.135   4.177  1.2335  1.5232  0.9796
 5035TIP3   OH215110   6.491   0.306   0.600  0.2916 -0.2559  0.2965
 5035TIP3    H115111   6.516   0.240   0.664  1.4176  0.4653  0.6100
 5035TIP3    H215112   6.404   0.279   0.570 -0.1632 -0.6787  1.9898
 5036TIP3   OH215113   4.979   4.146   5.019  0.5470  0.2592 -0.0974
 5036TIP3    H115114   4.906   4.192   4.977  1.9026  2.0271 -0.5950
 5036TIP3    H215115   4.945   4.121   5.105 -0.9710  0.1479 -0.7192
 5037TIP3   OH215116   2.847   4.587   3.725  0.0749  0.0008  0.1395
 5037TIP3    H115117   2.859   4.501   3.766  0.5362  1.5301  3.4003
 5037TIP3    H215118   2.926   4.599   3.672 -0.2408 -1.7673 -0.7739
 5038TIP3   OH215119   3.655   4.574   3.872 -0.4173 -0.0618  0.4440
 5038TIP3    H115120   3.568   4.552   3.908 -0.2083 -0.5493  0.6586
 5038TIP3    H215121   3.660   4.524   3.790  0.7776 -2.2642  1.8189
 5039TIP3   OH215122   4.699   1.487   3.697 -0.3975 -0.5883 -0.5022
 5039TIP3    H115123   4.649   1.416   3.738 -1.5428 -0.9749 -2.5018
 5039TIP3    H215124   4.638   1.561   3.693 -0.2090 -0.4677 -1.2351
 5040TIP3   OH215125   4.688   3.132   3.981 -0.3833 -0.1829 -0.3324
 5040TIP3    H115126   4.610   3.079   3.967  0.9738 -2.4426  0.4180
 5040TIP3    H215127   4.728   3.140   3.894  0.5083 -2.2064 -0.1373
 5041TIP3   OH215128   6.078   4.951   4.244 -0.0223  0.1433 -0.0693
 5041TIP3    H115129   6.078   4.962   4.149  0.6897 -0.8970 -0.1927
 5041TIP3    H215130   6.054   4.860   4.258 -0.4556  0.3799  0.7692
 5042TIP3   OH215131   3.727   4.080   2.966  0.0108 -0.2561 -0.1294
 5042TIP3    H115132   3.779   4.121   3.035 -0.7062  0.1294  0.1866
 5042TIP3    H215133   3.642   4.122   2.972 -0.9473 -2.2329  0.6239
 5043TIP3   OH215134   3.699   2.022   4.497 -0.2142  0.4815 -0.4369
 5043TIP3    H115135   3.743   2.057   4.574 -0.3213 -2.5153  1.0585
 5043TIP3    H215136   3.759   1.955   4.464 -2.6546 -2.2204  0.4322
 5044TIP3   OH215137   4.371   1.880   0.215 -0.0215 -0.1388  0.4083
 5044TIP3    H115138   4.388   1.899   0.307 -0.7600 -2.8296  1.1388
 5044TIP3    H215139   4.455   1.892   0.172 -0.1727  3.5808  0.9262
 5045TIP3   OH215140   6.368   5.616   5.243 -0.4164  0.4514 -0.5571
 5045TIP3    H115141   6.454   5.589   5.211 -0.5606 -0.5660 -0.1154
 5045TIP3    H215142   6.331   5.668   5.172  0.3034  0.3665 -1.0003
 5046TIP3   OH215143   1.276   5.914   3.030  0.1035 -0.0903  0.0274
 5046TIP3    H115144   1.197   5.960   3.056  0.1145 -0.6861  1.1828
 5046TIP3    H215145   1.319   5.893   3.113  0.7315 -1.0379 -0.5307
 5047TIP3   OH215146   0.985   3.087   3.336 -0.0607  0.5689  0.6837
 5047TIP3    H115147   1.053   3.059   3.275  0.1981 -0.2320  1.3289
 5047TIP3    H215148   1.027   3.087   3.422 -0.8018  0.2800  1.0587
 5048TIP3   OH215149   1.879   4.920   1.205 -0.2053 -0.4672  0.3959
 5048TIP3    H115150   1.825   4.873   1.141 -1.8122 -1.3717  2.3646
 5048TIP3    H215151   1.909   4.852   1.266 -1.4456  0.8414  2.5251
 5049TIP3   OH215152   3.559   4.991   4.322  0.2839  0.3508 -0.1239
 5049TIP3    H115153   3.620   4.918   4.315 -0.4054 -0.1981 -0.4955
 5049TIP3    H215154   3.487   4.968   4.263  0.2090  1.4811 -0.4855
 5050TIP3   OH215155   4.816   4.848   2.075 -0.2937  0.6828  0.1000
 5050TIP3    H115156   4.882   4.780   2.069 -0.1096  0.8967 -0.3313
 5050TIP3    H215157   4.837   4.909   2.003 -1.4697  0.2998 -0.5867
 5051TIP3   OH215158   1.570   2.548   4.730 -0.2693 -0.1406 -0.6385
 5051TIP3    H115159   1.641   2.605   4.700 -0.0359  1.6736  3.0440
 5051TIP3    H215160   1.613   2.466   4.754  0.3474  0.3294 -0.1153
 5052TIP3   OH215161   3.962   5.322   2.527  0.1116  0.1574  0.1895
 5052TIP3    H115162   4.051   5.333   2.495  0.1643  0.6450  0.5004
 5052TIP3    H215163   3.934   5.410   2.553 -0.4406  0.0001  0.1402
 5053TIP3   OH215164   4.613   0.547   4.485  0.0724 -0.6264  0.1874
 5053TIP3    H115165   4.632   0.478   4.549  0.3580 -1.2674 -0.5854
 5053TIP3    H215166   4.683   0.610   4.497  1.0034 -1.5088 -0.5679
 5054TIP3   OH215167   3.803   0.142   2.915  0.6916  0.8253  0.0188
 5054TIP3    H115168   3.714   0.171   2.935  0.9138 -0.2683  2.7976
 5054TIP3    H215169   3.800   0.046   2.923  2.1115  0.7761  0.1534
 5055TIP3   OH215170   2.322   0.017   2.292 -0.3447 -0.4212  0.4087
 5055TIP3    H115171   2.286   0.088   2.345  2.1328 -1.2837  3.4087
 5055TIP3    H215172   2.251  -0.047   2.287 -1.1811  0.4023  1.2787
 5056TIP3   OH215173   3.060   4.333   3.596 -0.2207 -0.2012  0.1999
 5056TIP3    H115174   3.096   4.305   3.680 -2.0226 -1.3958  0.6105
 5056TIP3    H215175   2.996   4.265   3.573 -1.4346  1.2935 -1.0037
 5057TIP3   OH215176   2.134   4.761   4.068 -0.4774 -0.8169  0.4381
 5057TIP3    H115177   2.123   4.706   3.990  0.1835 -1.1004  0.5443
 5057TIP3    H215178   2.045   4.781   4.096 -0.7432  0.8024 -1.4723
 5058TIP3   OH215179   2.847   5.268   4.278  0.1039  0.2924  0.0792
 5058TIP3    H115180   2.765   5.277   4.230 -0.0356 -0.5235  0.1565
 5058TIP3    H215181   2.850   5.344   4.335  0.8278  1.8913 -2.0458
 5059TIP3   OH215182   2.651   4.473   1.375 -0.0169  0.5331 -0.6368
 5059TIP3    H115183   2.697   4.509   1.299  0.1570 -0.1620 -0.8605
 5059TIP3    H215184   2.702   4.504   1.450  1.0372 -0.5247 -0.8925
 5060TIP3   OH215185   2.996   1.885   5.240  0.2139  0.3937 -0.3481
 5060TIP3    H115186   3.055   1.810   5.252 -0.6178 -0.2778 -0.4438
 5060TIP3    H215187   3.040   1.938   5.173  1.1050  0.3062  0.1505
 5061TIP3   OH215188   3.833   4.514   2.707 -0.7448  0.2580  0.2664
 5061TIP3    H115189   3.742   4.532   2.730 -1.1253  0.2679 -1.2283
 5061TIP3    H215190   3.832   4.423   2.676 -0.0343 -0.1278  1.3367
 5062TIP3   OH215191   2.214   4.704   2.542  0.5334 -0.5822 -0.7451
 5062TIP3    H115192   2.253   4.707   2.454  0.7181  1.6117 -0.6143
 5062TIP3    H215193   2.286   4.677   2.599  0.4667 -1.8042 -1.2242
 5063TIP3   OH215194   3.127   0.239   2.988  0.0236  0.2663  1.4241
 5063TIP3    H115195   3.042   0.216   2.950  1.4410 -3.2725  0.1841
 5063TIP3    H215196   3.114   0.231   3.083 -1.3945  1.3064  1.3427
 5064TIP3   OH215197   2.835   4.352   3.889 -0.2802 -0.4787  0.7584
 5064TIP3    H115198   2.925   4.319   3.887 -0.3238 -0.5417 -0.5629
 5064TIP3    H215199   2.783   4.281   3.854 -1.3285 -1.7922  4.7047
 5065TIP3   OH215200   2.378   5.200   2.085  0.3674 -0.1645  0.0205
 5065TIP3    H115201   2.295   5.216   2.130  0.4855 -0.6278  0.4113
 5065TIP3    H215202   2.444   5.206   2.154  0.3859 -2.6949  0.3018
 5066TIP3   OH215203   3.136   4.260   3.875  0.2823 -0.0368 -0.4972
 5066TIP3    H115204   3.162   4.295   3.960 -1.3416  1.3154 -0.5271
 5066TIP3    H215205   3.150   4.165   3.883  0.3766  0.1008  1.1857
 5067TIP3   OH215206   3.927   2.192   2.929 -0.4067  0.5066  0.2992
 5067TIP3    H115207   3.955   2.277   2.964  1.2835 -0.2962  0.9199
 5067TIP3    H215208   4.004   2.136   2.937 -1.7371 -1.3162  0.6131
 5068TIP3   OH215209   3.027   5.703   3.359 -0.4661 -0.1990  0.1003
 5068TIP3    H115210   2.934   5.699   3.379 -1.0151  0.1941 -2.2091
 5068TIP3    H215211   3.041   5.634   3.294  0.4630  0.9220 -0.9153
 5069TIP3   OH215212   1.683   1.970   0.049  0.0103  0.0008 -0.4389
 5069TIP3    H115213   1.663   1.917  -0.028 -0.7015 -0.6982  0.2335
 5069TIP3    H215214   1.665   1.914   0.124  0.0508  0.9077  0.2680
 5070TIP3   OH215215   2.755   5.570   3.878 -0.5024 -0.2902  0.2839
 5070TIP3    H115216   2.688   5.537   3.938  1.1176 -3.3012  0.5246
 5070TIP3    H215217   2.815   5.619   3.934  0.3234 -2.0466  0.9928
 5071TIP3   OH215218   1.357   5.424   4.523 -0.3918 -0.2672 -0.5871
 5071TIP3    H115219   1.333   5.449   4.612  0.1545  1.3193 -0.8770
 5071TIP3    H215220   1.339   5.502   4.470  1.0026 -0.5976 -1.5712
 5072TIP3   OH215221   6.386   5.873   5.097 -0.0772 -0.4066  0.1019
 5072TIP3    H115222   6.417   5.914   5.016  0.0926 -2.2714 -0.8111
 5072TIP3    H215223   6.397   5.941   5.164  0.8039  0.8048 -1.2262
 5073TIP3   OH215224  -0.001   3.871   5.013  0.1438  0.4737 -0.2217
 5073TIP3    H115225   0.028   3.937   4.950  1.6486 -0.3899 -0.4543
 5073TIP3    H215226   0.047   3.792   4.988 -0.3038 -0.2380  1.1586
 5074TIP3   OH215227   2.402   5.422   3.633  0.5878 -0.0512 -0.2358
 5074TIP3    H115228   2.344   5.496   3.652  1.1073  0.0855  0.8189
 5074TIP3    H215229   2.349   5.364   3.578  0.0457  0.9095 -0.7292
 5075TIP3   OH215230   1.382   2.303   0.432  0.5023  0.5226  0.1712
 5075TIP3    H115231   1.441   2.369   0.397  0.6118  1.0306  1.2739
 5075TIP3    H215232   1.423   2.219   0.409 -0.4593  0.7766 -2.6419
 5076TIP3   OH215233   4.150   2.921   1.812  0.4448 -0.1176  0.3066
 5076TIP3    H115234   4.110   2.872   1.740  2.0087 -0.7348 -0.1532
 5076TIP3    H215235   4.128   3.012   1.793 -0.9267 -0.4499  0.1830
 5077TIP3   OH215236   2.878   5.308   2.792  0.1944  0.0469  0.0808
 5077TIP3    H115237   2.938   5.256   2.845  1.5316  2.9743  1.5377
 5077TIP3    H215238   2.932   5.339   2.719 -0.4299 -0.0034 -0.4085
 5078TIP3   OH215239   2.665   3.425   4.219  0.2209  0.4609 -0.2777
 5078TIP3    H115240   2.755   3.454   4.237  0.6986 -0.9448 -0.2913
 5078TIP3    H215241   2.629   3.492   4.162  0.7741  1.7942  0.9067
 5079TIP3   OH215242   0.638   2.660   1.647 -0.8183  0.1271 -0.6076
 5079TIP3    H115243   0.654   2.599   1.719 -1.1646 -0.5406 -1.0863
 5079TIP3    H215244   0.648   2.607   1.568  0.7932  1.1404 -1.0996
 5080TIP3   OH215245   2.206   5.499   2.701 -0.0705 -0.1279 -0.9355
 5080TIP3    H115246   2.249   5.438   2.642 -0.9293 -0.6328 -1.0469
 5080TIP3    H215247   2.118   5.463   2.713  0.4503 -0.6238  1.5292
 5081TIP3   OH215248   3.775   4.801   4.769  0.2226  0.5880 -0.2201
 5081TIP3    H115249   3.862   4.780   4.804  1.1053  2.0017 -1.5168
 5081TIP3    H215250   3.749   4.723   4.720  1.1059  0.4623 -0.4882
 5082TIP3   OH215251   2.753   3.146   5.107  0.3410  0.6203  0.0572
 5082TIP3    H115252   2.816   3.115   5.043 -1.2139  0.5286 -1.4754
 5082TIP3    H215253   2.778   3.237   5.124  0.3863  0.8601 -1.2102
 5083TIP3   OH215254   2.665   3.886   5.039  0.2305 -0.3619  0.3630
 5083TIP3    H115255   2.609   3.815   5.005 -0.0787 -0.2352  0.6030
 5083TIP3    H215256   2.649   3.885   5.133 -4.0424  3.5888 -0.1320
 5084TIP3   OH215257   3.901   4.576   0.085  0.4285 -0.3450  0.4522
 5084TIP3    H115258   3.846   4.553   0.160 -1.0436 -2.3159 -1.1821
 5084TIP3    H215259   3.975   4.624   0.123 -2.0142  1.7077  2.7715
 5085TIP3   OH215260   2.439   3.435   3.992  0.3740  0.1792 -0.1443
 5085TIP3    H115261   2.447   3.342   4.012 -2.8164  0.1782  1.5031
 5085TIP3    H215262   2.521   3.458   3.950  0.8877 -3.5723 -1.3759
 5086TIP3   OH215263   0.318   4.990   4.369 -0.7148 -0.2447 -0.0274
 5086TIP3    H115264   0.377   4.915   4.378 -0.2250 -0.1256 -1.9553
 5086TIP3    H215265   0.239   4.964   4.416  0.4716 -0.8225  1.7124
 5087TIP3   OH215266   3.449   2.582   3.667 -0.4229 -0.1736 -0.2915
 5087TIP3    H115267   3.457   2.659   3.723 -0.7664 -0.4172  0.0951
 5087TIP3    H215268   3.384   2.527   3.710 -1.7753  0.2935 -1.6948
 5088TIP3   OH215269   3.990   4.283   2.359  0.7470 -0.2057  0.0809
 5088TIP3    H115270   4.035   4.319   2.283  0.7507 -0.1035  0.1298
 5088TIP3    H215271   4.055   4.286   2.429  0.7379 -0.2795  0.0924
 5089TIP3   OH215272   5.191   2.677   0.918  0.1128  0.0533 -0.2128
 5089TIP3    H115273   5.245   2.689   0.995 -2.4905 -0.2831  1.7502
 5089TIP3    H215274   5.151   2.762   0.902  0.7174  0.1533 -1.2872
 5090TIP3   OH215275   2.827   4.802   3.201 -0.1507  0.1589 -0.2590
 5090TIP3    H115276   2.881   4.858   3.145 -1.2262  2.1407  0.6171
 5090TIP3    H215277   2.888   4.738   3.237  0.9248  0.1333 -2.1011
 5091TIP3   OH215278   2.719   4.103   4.252  0.2403  0.3248 -0.1829
 5091TIP3    H115279   2.765   4.025   4.283 -1.2421 -0.1815  0.7903
 5091TIP3    H215280   2.743   4.110   4.159 -0.7428 -2.1171 -0.6520
 5092TIP3   OH215281   5.499   1.418   4.046 -0.1393  0.0677 -0.0689
 5092TIP3    H115282   5.419   1.400   3.996 -1.0184 -0.9550  1.6527
 5092TIP3    H215283   5.497   1.512   4.061 -0.7913  0.1151 -0.4206
 5093TIP3   OH215284   5.319   0.219   3.214  0.4572 -0.2179  0.0257
 5093TIP3    H115285   5.410   0.188   3.213  1.1954  1.9178  0.1552
 5093TIP3    H215286   5.267   0.138   3.208  2.3565 -1.3834 -1.3860
 5094TIP3   OH215287   0.763   0.427   1.073  0.1299 -0.3471  1.0003
 5094TIP3    H115288   0.742   0.497   1.011 -0.3542  0.1985  1.7585
 5094TIP3    H215289   0.855   0.406   1.056  0.1153  0.0723  0.3795
 5095TIP3   OH215290   1.482   4.373   3.989 -0.1990 -0.3094 -0.1225
 5095TIP3    H115291   1.486   4.381   3.894 -0.1694  1.6074  0.0240
 5095TIP3    H215292   1.435   4.451   4.018  1.5143  0.1455  1.5720
 5096TIP3   OH215293   1.161   1.599   0.339 -0.5648 -0.2788 -0.3184
 5096TIP3    H115294   1.170   1.505   0.321  2.0209 -0.0255 -0.5019
 5096TIP3    H215295   1.249   1.627   0.363 -1.4036  2.0354  0.1393
 5097TIP3   OH215296   0.299   0.665   1.793 -0.1594 -0.0783 -0.4558
 5097TIP3    H115297   0.332   0.612   1.866 -0.6471 -0.5313 -0.5606
 5097TIP3    H215298   0.351   0.636   1.717  0.0007  0.0338 -0.3892
 5098TIP3   OH215299   2.991   3.685   3.528 -0.1907 -0.5139 -0.1188
 5098TIP3    H115300   2.999   3.602   3.481 -1.4459 -0.7427  0.0569
 5098TIP3    H215301   3.082   3.714   3.542  0.2523 -1.8784 -0.1253
 5099TIP3   OH215302   1.452   0.930   0.075 -0.4288  0.5020 -0.8307
 5099TIP3    H115303   1.396   0.916   0.151  1.6789  0.1122  0.6936
 5099TIP3    H215304   1.438   0.853   0.020  0.9001 -1.1149  1.0264
 5100TIP3   OH215305   0.399   1.644   0.538  0.0407 -0.5091 -0.5539
 5100TIP3    H115306   0.488   1.629   0.570  0.2946 -0.2719 -1.1456
 5100TIP3    H215307   0.375   1.730   0.573  0.3060 -0.2668 -0.9473
 5101TIP3   OH215308   2.329   4.661   3.145 -0.3472  0.0605 -0.2882
 5101TIP3    H115309   2.272   4.708   3.085 -0.4382 -3.2119 -2.9002
 5101TIP3    H215310   2.417   4.689   3.121 -0.4520 -0.4028 -1.2391
 5102TIP3   OH215311   3.397   4.162   3.001 -0.1313 -0.2483  0.2184
 5102TIP3    H115312   3.385   4.095   2.933  0.9094  1.0078 -1.2279
 5102TIP3    H215313   3.308   4.188   3.025 -0.5533 -2.2054  0.8624
 5103TIP3   OH215314   2.045   4.755   3.612  0.3810 -0.2278  0.3034
 5103TIP3    H115315   2.084   4.714   3.535 -0.2154 -1.6685  0.7473
 5103TIP3    H215316   1.951   4.737   3.603  0.1131  0.9902  0.5510
 5104TIP3   OH215317   5.974   3.043   2.688 -0.1098 -0.1332  1.0104
 5104TIP3    H115318   6.048   3.101   2.669  0.5959 -1.4790 -0.4442
 5104TIP3    H215319   5.986   3.017   2.779 -0.0730  1.4611  1.4855
 5105TIP3   OH215320   1.737   2.936   0.058  0.3611  0.2747 -0.0041
 5105TIP3    H115321   1.675   3.009   0.054 -2.9090 -2.3830 -0.3002
 5105TIP3    H215322   1.777   2.943   0.145 -1.7774  0.9513  0.9540
 5106TIP3   OH215323   4.449   5.376   5.108  0.9446  0.1060  0.5951
 5106TIP3    H115324   4.382   5.318   5.142  0.9154  0.1734  0.6525
 5106TIP3    H215325   4.475   5.337   5.025  0.0835  0.6515  0.0635
 5107TIP3   OH215326   6.224   0.588   4.330  0.2904 -0.2535 -0.1275
 5107TIP3    H115327   6.192   0.658   4.273  5.0368  2.2317 -0.0241
 5107TIP3    H215328   6.195   0.612   4.418  0.4502  0.7060 -0.3335
 5108TIP3   OH215329   4.261   4.769   3.674  0.2148 -0.3522  0.2939
 5108TIP3    H115330   4.354   4.751   3.691  0.4459 -0.6420 -1.2491
 5108TIP3    H215331   4.240   4.843   3.731  1.3540 -0.3636  0.7374
 5109TIP3   OH215332   4.152   3.424   4.651 -0.1517  0.4671  0.7890
 5109TIP3    H115333   4.182   3.447   4.739 -0.5374  0.8408  0.8266
 5109TIP3    H215334   4.232   3.407   4.602  0.1693  1.9989  0.7409
 5110TIP3   OH215335   1.865   2.988   0.305 -0.6387 -0.2117  0.0374
 5110TIP3    H115336   1.863   3.081   0.327  2.2645 -0.0155 -0.3850
 5110TIP3    H215337   1.954   2.972   0.275 -0.9026 -3.2907  0.7361
 5111TIP3   OH215338   5.960   1.113   3.872 -0.1706 -0.1540 -0.3935
 5111TIP3    H115339   5.892   1.173   3.905 -0.0294 -0.2904  0.1534
 5111TIP3    H215340   6.016   1.168   3.818  0.0954  0.2644  0.3006
 5112TIP3   OH215341   4.491   3.644   4.716  0.5536  0.2211 -0.4991
 5112TIP3    H115342   4.455   3.556   4.700  0.5059 -0.0901  1.2028
 5112TIP3    H215343   4.434   3.680   4.785  1.9297  0.7204  0.3919
 5113TIP3   OH215344   2.853   3.166   3.748 -0.2447 -0.1063  0.0909
 5113TIP3    H115345   2.766   3.134   3.773  0.4195 -1.8110  0.2732
 5113TIP3    H215346   2.845   3.182   3.654 -0.6915 -0.4985  0.0548
 5114TIP3   OH215347   1.950   4.942   3.897  1.0044 -0.6234 -0.3332
 5114TIP3    H115348   1.933   5.036   3.884  0.0237 -1.0136 -1.9010
 5114TIP3    H215349   2.017   4.920   3.833  0.9446 -1.0954 -0.2366
 5115TIP3   OH215350   5.610   2.043   0.230 -0.7168 -0.4164 -0.4400
 5115TIP3    H115351   5.620   1.949   0.242 -1.8789 -0.7180 -1.7795
 5115TIP3    H215352   5.521   2.054   0.198  0.1091  0.9688 -2.3308
 5116TIP3   OH215353   3.433   4.288   4.295 -0.1399 -0.3285  0.7532
 5116TIP3    H115354   3.380   4.312   4.218  1.2528 -0.1692 -0.1836
 5116TIP3    H215355   3.523   4.302   4.266  0.3304  2.1014  3.2161
 5117TIP3   OH215356   2.266   5.993   4.361 -0.4937  0.2181 -0.6050
 5117TIP3    H115357   2.277   5.964   4.451 -0.6827 -0.0296 -0.6599
 5117TIP3    H215358   2.349   6.035   4.338 -0.2083 -0.3126 -0.5396
 5118TIP3   OH215359   2.870   2.497   4.187 -0.0603  0.3258 -0.2446
 5118TIP3    H115360   2.848   2.415   4.232  3.0416  1.3848  3.4496
 5118TIP3    H215361   2.788   2.546   4.186 -0.9730 -1.1008  1.3568
 5119TIP3   OH215362   2.085   2.663   0.810 -0.2073 -0.0531 -0.2950
 5119TIP3    H115363   2.082   2.745   0.760 -0.8842  0.5767  0.7603
 5119TIP3    H215364   2.026   2.678   0.884 -0.9181 -1.7598 -0.4947
 5120TIP3   OH215365   2.147   1.096   0.703 -0.3689  0.5310 -0.1026
 5120TIP3    H115366   2.102   1.030   0.650 -1.4600  1.2419 -0.0914
 5120TIP3    H215367   2.218   1.049   0.745 -0.4995 -0.4097 -0.9121
 5121TIP3   OH215368   2.384   5.540   2.241 -0.4973  0.2494  0.1808
 5121TIP3    H115369   2.472   5.573   2.225 -0.9972  2.2091  1.2500
 5121TIP3    H215370   2.348   5.523   2.153  0.5777  0.4095 -0.2946
 5122TIP3   OH215371   3.530   5.133   3.843  0.6309  0.5526 -0.4797
 5122TIP3    H115372   3.520   5.183   3.924 -0.4837  0.6282 -0.6606
 5122TIP3    H215373   3.607   5.077   3.859 -0.3665 -0.4099  1.1494
 5123TIP3   OH215374   5.635   3.439   3.886  0.1943  0.6602 -0.2736
 5123TIP3    H115375   5.696   3.443   3.959 -0.4541 -1.8487  0.4640
 5123TIP3    H215376   5.555   3.480   3.919  0.3338  0.7632 -0.0628
 5124TIP3   OH215377   3.296   5.020   3.227  0.0055  0.1274  0.2813
 5124TIP3    H115378   3.240   5.097   3.219  0.1429  0.3283  1.1895
 5124TIP3    H215379   3.384   5.054   3.214 -0.0435 -0.1079 -0.6709
 5125TIP3   OH215380   4.863   4.605   5.006 -0.0665  0.5019  0.5234
 5125TIP3    H115381   4.836   4.589   4.916  0.1258  0.8705  0.3967
 5125TIP3    H215382   4.948   4.562   5.014  0.1414  0.8823  0.3823
 5126TIP3   OH215383   2.124   3.136   5.063 -0.3690  0.3575  0.2774
 5126TIP3    H115384   2.098   3.083   5.139  2.0757  0.1842  1.0214
 5126TIP3    H215385   2.141   3.223   5.100  0.1175  0.4621 -0.2011
 5127TIP3   OH215386   2.835   5.246   3.763 -0.1755 -0.7334 -0.3284
 5127TIP3    H115387   2.766   5.299   3.724  1.3666 -0.0565 -2.2077
 5127TIP3    H215388   2.862   5.294   3.842  0.0967  0.4621 -1.1407
 5128TIP3   OH215389   2.447   5.047   0.746 -0.1752 -0.3852 -0.6276
 5128TIP3    H115390   2.406   4.964   0.722 -2.0783  0.4422 -0.2846
 5128TIP3    H215391   2.513   5.023   0.811 -2.6616 -1.3369  1.6415
 5129TIP3   OH215392   2.817   5.944   3.567  0.1735  0.1720  0.0108
 5129TIP3    H115393   2.742   5.884   3.564 -0.9531  1.6082 -1.2162
 5129TIP3    H215394   2.830   5.970   3.475  1.6443  0.5884  0.3312
 5130TIP3   OH215395   1.179   4.072   3.814  0.7351 -0.5562  0.2708
 5130TIP3    H115396   1.158   4.078   3.907  0.5698 -2.0175  0.3378
 5130TIP3    H215397   1.096   4.090   3.770  1.3109  2.5114  0.3222
 5131TIP3   OH215398   4.992   0.758   0.261  0.8118  0.4671  0.1542
 5131TIP3    H115399   4.897   0.757   0.275  0.7669  0.6772 -0.1231
 5131TIP3    H215400   5.028   0.709   0.335  0.3712 -1.2630 -0.7658
 5132TIP3   OH215401   3.198   0.350   3.572  0.1509 -0.0084  0.2536
 5132TIP3    H115402   3.251   0.272   3.557 -1.8057 -0.8781 -2.5525
 5132TIP3    H215403   3.248   0.421   3.533 -0.4012 -0.7403 -1.8851
 5133TIP3   OH215404   5.455   0.606   0.135 -0.2418  0.0919 -0.1608
 5133TIP3    H115405   5.456   0.529   0.191 -2.2877 -0.0895 -0.3510
 5133TIP3    H215406   5.421   0.676   0.191  0.0420  0.4795 -0.4686
 5134TIP3   OH215407   4.548   6.106   2.733 -0.5160  0.0279  0.1459
 5134TIP3    H115408   4.500   6.023   2.728 -0.1689 -0.2044  0.6325
 5134TIP3    H215409   4.637   6.080   2.757 -0.4699  0.5621  0.5471
 5135TIP3   OH215410   2.881   2.313   4.399 -0.2918 -0.0194  0.3230
 5135TIP3    H115411   2.805   2.259   4.421 -1.7239  1.1695 -1.5269
 5135TIP3    H215412   2.956   2.261   4.426 -1.7326 -1.6085  1.3829
 5136TIP3   OH215413   2.865   0.029   4.365  0.0034 -0.6129  0.4799
 5136TIP3    H115414   2.896   0.087   4.434  0.0771  0.2813 -0.2979
 5136TIP3    H215415   2.941  -0.026   4.343  0.6324  0.5861 -0.4076
 5137TIP3   OH215416   1.278   3.660   2.528  0.0385  0.3734 -0.2278
 5137TIP3    H115417   1.354   3.702   2.486 -0.8494  1.0545 -1.1966
 5137TIP3    H215418   1.259   3.584   2.473  3.2924 -2.9597  3.0114
 5138TIP3   OH215419   2.698   5.076   2.997 -0.2903 -0.0187 -0.1368
 5138TIP3    H115420   2.657   5.161   3.014 -1.0940 -0.1293 -1.4462
 5138TIP3    H215421   2.633   5.012   3.024 -1.2705 -0.1958 -2.7275
 5139TIP3   OH215422   2.212   5.619   3.672 -0.4562 -0.5401  0.5922
 5139TIP3    H115423   2.133   5.571   3.698 -0.2110 -1.3691 -0.1820
 5139TIP3    H215424   2.178   5.695   3.624 -0.8454  0.1065  1.8812
 5140TIP3   OH215425   4.515   4.255   0.595 -0.2037  0.0429 -0.6177
 5140TIP3    H115426   4.441   4.297   0.639 -0.1611  0.6423 -1.1093
 5140TIP3    H215427   4.476   4.181   0.549 -0.3886 -0.0487 -0.3167
 5141TIP3   OH215428   1.417   5.791   2.362  0.0956  0.3338  0.1579
 5141TIP3    H115429   1.361   5.725   2.322 -1.8599  0.1950  2.9515
 5141TIP3    H215430   1.396   5.787   2.455  1.3358  3.5446  0.6601
 5142TIP3   OH215431   0.225   4.594   4.847  0.3150 -0.1871 -0.1169
 5142TIP3    H115432   0.190   4.657   4.911  0.8789 -0.6193  0.6354
 5142TIP3    H215433   0.148   4.554   4.809 -0.0387 -1.3897  1.7936
 5143TIP3   OH215434   2.662   6.012   1.633  0.2558  0.6241  0.2759
 5143TIP3    H115435   2.740   6.048   1.590  0.7004 -0.3638  0.2593
 5143TIP3    H215436   2.691   5.992   1.722  0.0650  0.0718  0.2115
 5144TIP3   OH215437   4.933   5.426   0.637  0.2992  0.3353 -0.7790
 5144TIP3    H115438   5.015   5.441   0.684  0.9987  2.1193 -2.4882
 5144TIP3    H215439   4.960   5.401   0.549 -1.0020 -2.9413 -0.2886
 5145TIP3   OH215440   4.936   5.191   0.113  0.0630 -0.1575  0.1895
 5145TIP3    H115441   4.940   5.275   0.067 -1.5259  0.0823  0.4648
 5145TIP3    H215442   5.017   5.146   0.089 -1.0906 -0.3829 -3.4627
 5146TIP3   OH215443   4.626   3.254   3.497 -0.3240  0.6277  0.1350
 5146TIP3    H115444   4.545   3.228   3.542 -1.0294  1.2495 -0.7511
 5146TIP3    H215445   4.695   3.236   3.560 -1.1040 -0.4182  0.7164
 5147TIP3   OH215446   1.015   2.176   5.195 -0.5561 -0.3667  0.2149
 5147TIP3    H115447   0.928   2.196   5.232  0.0040  0.7099  0.9699
 5147TIP3    H215448   1.036   2.252   5.141  0.3465 -0.1939  0.8131
 5148TIP3   OH215449   2.114   3.788   5.238  0.0229 -0.1835  0.1516
 5148TIP3    H115450   2.058   3.856   5.275  0.6181  0.4725 -0.1532
 5148TIP3    H215451   2.168   3.759   5.311  0.1294  0.0305  0.1570
 5149TIP3   OH215452   4.745   5.781   0.416 -0.2570 -0.1258 -0.1260
 5149TIP3    H115453   4.657   5.757   0.384 -0.4046 -0.0725  0.2362
 5149TIP3    H215454   4.802   5.712   0.382 -0.3455  0.1662 -0.8655
 5150TIP3   OH215455   2.946   4.712   4.759  0.1773  0.2113  0.3068
 5150TIP3    H115456   2.933   4.626   4.799  0.8760 -0.4533 -0.8869
 5150TIP3    H215457   3.028   4.744   4.798  1.2278 -0.7336 -1.0855
 5151TIP3   OH215458   0.134   3.601   4.931 -0.2484  0.0183 -0.4769
 5151TIP3    H115459   0.215   3.591   4.880  0.5438  1.0295  0.5871
 5151TIP3    H215460   0.068   3.554   4.879  1.0472 -0.9900 -1.2528
 5152TIP3   OH215461   5.413   2.940   0.046  0.2781  0.3990 -0.3055
 5152TIP3    H115462   5.376   2.894   0.121  1.7495 -0.0567  0.1646
 5152TIP3    H215463   5.339   2.986   0.007 -0.3663  1.2819  1.8824
 5153TIP3   OH215464   2.643   4.253   2.002 -0.4694 -0.3486  0.3251
 5153TIP3    H115465   2.644   4.225   2.093  1.1409 -2.1440 -0.2166
 5153TIP3    H215466   2.594   4.185   1.956 -0.8069  0.2650 -0.2387
 5154TIP3   OH215467   4.419   4.826   2.670 -0.2236 -0.3950 -0.3645
 5154TIP3    H115468   4.357   4.772   2.720 -0.2422  0.8338  0.9889
 5154TIP3    H215469   4.498   4.773   2.666 -0.3091 -0.6281  0.7555
 5155TIP3   OH215470   2.553   0.781   2.554 -0.5716  0.0838  0.3394
 5155TIP3    H115471   2.554   0.876   2.549 -0.6370  0.1513  1.3475
 5155TIP3    H215472   2.540   0.752   2.464 -1.4888  1.0461  0.1522
 5156TIP3   OH215473   2.183   5.534   1.379 -0.2183 -0.5033  0.1294
 5156TIP3    H115474   2.198   5.625   1.354 -0.2918 -0.5971 -0.2570
 5156TIP3    H215475   2.191   5.534   1.474 -0.6965  0.0003  0.1747
 5157TIP3   OH215476   0.414   4.486   4.323 -0.1633  0.6563 -0.2955
 5157TIP3    H115477   0.398   4.543   4.398 -1.9100 -0.1696 -0.0178
 5157TIP3    H215478   0.414   4.398   4.359  0.5535  0.3436 -1.0332
 5158TIP3   OH215479   6.125   2.739   2.099  0.2591  0.6685  0.0390
 5158TIP3    H115480   6.064   2.768   2.167  0.6199 -2.4608  1.8024
 5158TIP3    H215481   6.068   2.700   2.032 -0.0213  2.8081 -1.0059
 5159TIP3   OH215482   2.634   4.717   3.591 -0.8696  0.3338 -0.0137
 5159TIP3    H115483   2.700   4.653   3.620 -0.8490  0.7136  0.7930
 5159TIP3    H215484   2.663   4.800   3.630 -1.0452  0.7861 -0.8300
 5160TIP3   OH215485   0.229   6.000   1.037 -0.1612 -0.0530  0.4294
 5160TIP3    H115486   0.141   6.040   1.035  0.4032  1.2128  0.4065
 5160TIP3    H215487   0.251   5.985   0.946 -0.9817 -1.8060  0.5006
 5161TIP3   OH215488   3.753   0.089   4.207  0.0428 -0.1799 -0.0307
 5161TIP3    H115489   3.823   0.023   4.206  0.8396  0.6723 -1.5727
 5161TIP3    H215490   3.795   0.169   4.174 -1.5666  0.4474 -0.5925
 5162TIP3   OH215491   0.315   5.209   2.299 -0.0321 -0.0620  0.1912
 5162TIP3    H115492   0.382   5.270   2.268 -0.8005  0.3035 -0.7432
 5162TIP3    H215493   0.305   5.231   2.392  1.2691 -0.2429  0.3905
 5163TIP3   OH215494   4.836   6.080   4.211  0.7372 -0.6577 -0.1405
 5163TIP3    H115495   4.872   5.994   4.231  2.1697 -0.1313 -0.4537
 5163TIP3    H215496   4.742   6.070   4.227  1.3163 -1.3179  3.2733
 5164TIP3   OH215497   4.406   5.928   3.618 -0.4175 -0.1321  0.2511
 5164TIP3    H115498   4.420   5.838   3.591 -0.3712  0.6624 -2.5351
 5164TIP3    H215499   4.334   5.959   3.563  0.1372  1.7764  0.5509
 5165TIP3   OH215500   5.712   4.814   3.244  0.1316 -0.2227 -0.1625
 5165TIP3    H115501   5.778   4.775   3.301 -1.8242 -1.0056  1.6310
 5165TIP3    H215502   5.714   4.907   3.265 -0.0902 -0.4054  0.7073
 5166TIP3   OH215503   4.438   5.051   4.529 -0.2490 -0.2189 -0.0858
 5166TIP3    H115504   4.446   5.039   4.624  1.8512  0.2120 -0.1849
 5166TIP3    H215505   4.506   4.994   4.492  0.3962  1.2606 -1.2208
 5167TIP3   OH215506   1.923   4.216   3.385 -0.1060 -0.0452  0.5814
 5167TIP3    H115507   2.012   4.246   3.401 -0.0215  0.6547 -1.0859
 5167TIP3    H215508   1.929   4.120   3.386  0.5276 -0.0036  1.1407
 5168TIP3   OH215509   3.357   0.586   2.268  0.1249 -0.7655 -0.2504
 5168TIP3    H115510   3.372   0.493   2.256  0.2702 -0.7423 -0.2597
 5168TIP3    H215511   3.286   0.608   2.208  0.2292 -0.8296 -0.3968
 5169TIP3   OH215512   0.307   4.929   4.920  0.6421  0.0493 -0.4156
 5169TIP3    H115513   0.316   5.013   4.964  0.4203  0.2124 -0.6829
 5169TIP3    H215514   0.361   4.869   4.972  1.4481  0.5281 -0.6952
 5170TIP3   OH215515   4.672   4.899   4.533  0.0433  0.7338 -0.1894
 5170TIP3    H115516   4.718   4.964   4.586 -0.2659  0.8351 -0.0437
 5170TIP3    H215517   4.688   4.927   4.443 -0.8444  1.5306 -0.1003
 5171TIP3   OH215518  -0.003   3.165   4.048  0.2946  0.0164  0.1435
 5171TIP3    H115519   0.026   3.216   3.972 -0.1841  1.4669  0.9130
 5171TIP3    H215520   0.057   3.091   4.052 -0.1825 -0.5219 -2.1324
 5172TIP3   OH215521   4.118   5.681   4.736  0.5695  0.0407  0.5975
 5172TIP3    H115522   4.199   5.634   4.714 -0.3749 -1.7032  0.7006
 5172TIP3    H215523   4.138   5.725   4.818  0.6380 -2.5964  2.0786
 5173TIP3   OH215524   4.359   2.047   4.821  0.0476 -0.3454  0.0887
 5173TIP3    H115525   4.348   2.133   4.782 -1.2302 -0.5026  0.0607
 5173TIP3    H215526   4.326   1.986   4.755  1.8591 -0.9512 -0.2992
 5174TIP3   OH215527   3.630   3.203   3.459  0.1500  0.0537  0.0058
 5174TIP3    H115528   3.635   3.264   3.385  1.3939 -1.6937 -1.3800
 5174TIP3    H215529   3.569   3.135   3.430 -2.8867  1.6628  2.3642
 5175TIP3   OH215530   4.169   4.752   4.226 -0.7015 -0.2373  0.2052
 5175TIP3    H115531   4.173   4.848   4.231  0.5663 -0.3296  1.3820
 5175TIP3    H215532   4.221   4.729   4.149 -0.1266 -0.0249  0.5256
 5176TIP3   OH215533   4.687   4.991   4.247 -0.3495  0.0682  0.7107
 5176TIP3    H115534   4.607   4.948   4.214 -0.0158  0.2503 -0.3609
 5176TIP3    H215535   4.696   5.069   4.192  1.6816 -1.0172 -0.5336
 5177TIP3   OH215536   4.534   4.500   2.265 -0.0332 -0.7646 -0.4796
 5177TIP3    H115537   4.474   4.432   2.235 -2.9375  1.3228  0.4265
 5177TIP3    H215538   4.534   4.565   2.195  0.9985 -0.6083 -0.3525
 5178TIP3   OH215539   4.972   5.874   4.354  0.6008 -0.8289  0.1665
 5178TIP3    H115540   4.959   5.852   4.446  1.9367 -0.1161  0.5418
 5178TIP3    H215541   5.046   5.935   4.354 -2.2315  2.7585 -0.9257
 5179TIP3   OH215542   5.798   1.949   3.873 -0.2873 -0.0805  0.2450
 5179TIP3    H115543   5.816   1.894   3.797 -0.1151 -1.8543  1.5291
 5179TIP3    H215544   5.767   1.888   3.940  1.0482  1.1985  2.1006
 5180TIP3   OH215545   4.706   6.014   3.175  0.1537  0.1291 -0.0801
 5180TIP3    H115546   4.719   6.001   3.081  1.2441  0.2348  0.0585
 5180TIP3    H215547   4.611   6.028   3.184 -0.3649 -2.6007 -0.8319
 5181TIP3   OH215548   6.040   4.487   3.988 -0.1917 -0.1373  0.1450
 5181TIP3    H115549   5.956   4.450   3.962 -0.1998  0.8119 -1.2780
 5181TIP3    H215550   6.019   4.573   4.024  0.2131  0.4657 -1.0057
 5182TIP3   OH215551   5.668   0.325   2.810  0.2149 -0.2812 -0.0460
 5182TIP3    H115552   5.619   0.246   2.788 -0.5786 -0.0734  0.9483
 5182TIP3    H215553   5.609   0.375   2.867  0.6756  1.0648 -0.7321
 5183TIP3   OH215554   3.589   4.303   2.442  0.2412 -0.2420 -0.0062
 5183TIP3    H115555   3.498   4.327   2.461  0.5849  1.6918 -0.6832
 5183TIP3    H215556   3.587   4.273   2.351  0.3451  0.0964 -0.1179
 5184TIP3   OH215557   4.482   2.705   5.007  0.1339 -0.1146 -0.1595
 5184TIP3    H115558   4.535   2.764   5.060 -0.5067 -0.1051  0.4703
 5184TIP3    H215559   4.398   2.699   5.053 -0.2243 -0.5627 -0.8560
 5185TIP3   OH215560   3.943   4.581   3.965  0.1036  0.1648  0.2123
 5185TIP3    H115561   3.940   4.676   3.973 -0.3548  0.4375 -2.7180
 5185TIP3    H215562   3.856   4.556   3.936  0.7703 -0.9401 -0.8919
 5186TIP3   OH215563   4.617   2.240   3.649 -0.4005 -0.0611  0.3571
 5186TIP3    H115564   4.621   2.334   3.630 -1.2426  0.0903  0.9129
 5186TIP3    H215565   4.573   2.234   3.733  2.5072 -0.7932  1.8927
 5187TIP3   OH215566   5.618   4.364   2.410  0.1865  0.4096  0.0952
 5187TIP3    H115567   5.568   4.420   2.351 -0.8419  0.8897  1.4008
 5187TIP3    H215568   5.573   4.370   2.494  0.5647 -1.7054  0.4953
 5188TIP3   OH215569   5.008   0.901   3.461 -0.2052 -0.2961  0.5085
 5188TIP3    H115570   4.969   0.861   3.539 -1.8508 -0.4432 -0.3679
 5188TIP3    H215571   4.953   0.871   3.389  1.9133 -1.0077 -0.8652
 5189TIP3   OH215572   0.495   5.998   2.712 -0.6782 -0.3213  0.0949
 5189TIP3    H115573   0.474   6.050   2.634 -0.4453 -1.7742 -0.9557
 5189TIP3    H215574   0.590   5.992   2.712 -0.5410  1.3688  1.6377
 5190TIP3   OH215575   6.169   5.995   3.538 -0.2114  0.0802 -0.6329
 5190TIP3    H115576   6.079   6.004   3.509 -0.5788  1.5329  0.8707
 5190TIP3    H215577   6.164   5.935   3.613 -0.0168  0.5875 -0.2090
 5191TIP3   OH215578   0.578   0.400   1.459  0.0657 -0.0303 -0.3547
 5191TIP3    H115579   0.657   0.451   1.440  1.2267 -0.5550  2.7493
 5191TIP3    H215580   0.598   0.312   1.428  1.0480 -0.3683  1.2447
 5192TIP3   OH215581   3.371   5.791   5.079  0.9993 -0.0979  0.0205
 5192TIP3    H115582   3.336   5.702   5.069 -1.3597  0.8273 -0.2440
 5192TIP3    H215583   3.333   5.823   5.161 -0.5100  1.6878 -1.3239
 5193TIP3   OH215584   5.911   5.522   3.959  0.1076 -0.5131  0.0150
 5193TIP3    H115585   5.933   5.432   3.933  1.0872  0.4920 -2.8234
 5193TIP3    H215586   5.833   5.513   4.013  0.2371 -3.0837 -0.1675
 5194TIP3   OH215587   0.710   4.883   3.598 -0.4575  0.0205  0.6402
 5194TIP3    H115588   0.663   4.810   3.558 -0.7394  0.8238 -0.5497
 5194TIP3    H215589   0.683   4.883   3.690 -0.9871 -0.9407  0.4822
 5195TIP3   OH215590   5.098   5.820   3.613 -0.0939  0.0702 -0.2420
 5195TIP3    H115591   5.085   5.830   3.519 -1.1324  1.9946  0.0874
 5195TIP3    H215592   5.188   5.849   3.628  0.3285 -0.9468 -0.7236
 5196TIP3   OH215593   5.368   4.986   4.897 -0.0542 -0.2376 -0.4693
 5196TIP3    H115594   5.412   5.062   4.860 -0.5862  0.7600  0.9111
 5196TIP3    H215595   5.275   5.001   4.880 -0.2482 -0.0898  0.6634
 5197TIP3   OH215596   3.811   4.970   3.162  0.2131 -0.4912 -0.2153
 5197TIP3    H115597   3.868   5.038   3.127 -0.6924  0.8976  0.9865
 5197TIP3    H215598   3.858   4.935   3.238  0.3103 -0.6571 -0.3506
 5198TIP3   OH215599   1.286   1.783   3.182  0.2526 -0.2863 -0.6182
 5198TIP3    H115600   1.299   1.735   3.264 -1.4966 -0.3757 -0.3804
 5198TIP3    H215601   1.302   1.875   3.205  0.8903 -0.4364 -0.4485
 5199TIP3   OH215602   1.282   0.408   2.860 -0.1177  0.2241  0.3693
 5199TIP3    H115603   1.339   0.416   2.784 -3.1811  0.9806 -1.9445
 5199TIP3    H215604   1.273   0.498   2.893 -0.0311  0.1126  0.7009
 5200TIP3   OH215605   0.854   4.658   3.453  0.4414 -0.1870  0.4739
 5200TIP3    H115606   0.901   4.582   3.420 -0.1391 -0.8229  1.0667
 5200TIP3    H215607   0.799   4.686   3.380 -1.3621 -2.0092  1.0524
 5201TIP3   OH215608   3.051   3.526   1.072 -0.2875 -0.0915  0.0069
 5201TIP3    H115609   3.051   3.617   1.101 -1.0876 -0.1922  0.3600
 5201TIP3    H215610   3.079   3.529   0.981  1.1053  0.3558  0.4352
 5202TIP3   OH215611   3.344   6.123   3.546  0.5302  0.3197  0.3129
 5202TIP3    H115612   3.277   6.187   3.570  0.3961  0.6096 -0.7883
 5202TIP3    H215613   3.302   6.038   3.561  0.4734  0.4922  1.1368
 5203TIP3   OH215614   4.298   5.219   2.558 -0.4134 -0.0989  0.0807
 5203TIP3    H115615   4.269   5.204   2.648  0.2564  0.2553  0.3500
 5203TIP3    H215616   4.393   5.229   2.564  0.0066 -2.8970 -1.0081
 5204TIP3   OH215617   5.520   4.494   4.821 -0.3195 -0.1951 -0.2321
 5204TIP3    H115618   5.610   4.527   4.813 -0.3016  0.3610  2.0926
 5204TIP3    H215619   5.523   4.407   4.782  1.2010 -0.1376 -0.2846
 5205TIP3   OH215620   1.714   0.092   2.760  0.1479  0.0720  0.1286
 5205TIP3    H115621   1.631   0.044   2.753 -0.4248  0.6035  2.5431
 5205TIP3    H215622   1.691   0.182   2.738 -0.1472  0.3842  1.6060
 5206TIP3   OH215623   4.491   5.346   4.659 -0.4452  0.4678  0.0690
 5206TIP3    H115624   4.513   5.319   4.748  0.3865  0.2895 -0.1805
 5206TIP3    H215625   4.575   5.343   4.612 -0.4147  3.0855 -0.0878
 5207TIP3   OH215626   6.447   5.218   4.006  0.1445 -0.3939 -0.4406
 5207TIP3    H115627   6.494   5.138   3.985  0.3285 -0.3233 -0.2966
 5207TIP3    H215628   6.393   5.235   3.929  0.2080 -0.5804 -0.5261
 5208TIP3   OH215629   6.343   5.443   3.194 -0.3681  0.5466  0.2986
 5208TIP3    H115630   6.339   5.488   3.110 -2.1723  1.1258  0.6596
 5208TIP3    H215631   6.316   5.509   3.258  1.8771  0.3623  1.4485
 5209TIP3   OH215632   3.183   1.563   0.165 -0.0828  0.2277 -0.0522
 5209TIP3    H115633   3.135   1.535   0.087 -0.7693  2.1317 -0.3321
 5209TIP3    H215634   3.274   1.540   0.146 -0.0925  1.5843 -1.8640
 5210TIP3   OH215635   5.982   5.729   4.967 -0.4564 -0.2448  0.2645
 5210TIP3    H115636   6.059   5.688   4.927  0.4570  1.3644  0.3155
 5210TIP3    H215637   5.923   5.656   4.985  1.0315 -1.5094  0.1750
 5211TIP3   OH215638   4.885   4.294   4.227 -0.1817  0.6583 -0.0394
 5211TIP3    H115639   4.895   4.242   4.148  1.3847  1.6881 -0.5346
 5211TIP3    H215640   4.811   4.254   4.273  0.4119 -1.4174 -0.8470
 5212TIP3   OH215641   1.130   1.289  -0.011 -0.2425 -0.1982  0.1347
 5212TIP3    H115642   1.063   1.235   0.030 -1.1358  0.5290 -0.3373
 5212TIP3    H215643   1.097   1.379  -0.002 -0.2527  0.0073 -1.7974
 5213TIP3   OH215644   4.052   5.812   2.879  0.4729  0.0876  0.4375
 5213TIP3    H115645   3.980   5.775   2.930  1.9676  0.0703  2.5657
 5213TIP3    H215646   4.094   5.736   2.838  0.3199 -0.0522  0.5402
 5214TIP3   OH215647   0.364   4.724   3.933 -0.1277 -0.5610  0.4493
 5214TIP3    H115648   0.434   4.739   3.997 -0.7413 -1.8757  1.4725
 5214TIP3    H215649   0.349   4.809   3.893  1.6472 -0.1384  0.6313
 5215TIP3   OH215650   5.206   4.852   4.588 -0.1838  0.1907  0.0165
 5215TIP3    H115651   5.139   4.913   4.555 -0.5803 -0.8759 -1.1871
 5215TIP3    H215652   5.288   4.900   4.579 -0.2736 -0.0507 -2.5828
 5216TIP3   OH215653   4.367   2.308   4.701  0.5180  0.3445 -0.4920
 5216TIP3    H115654   4.443   2.270   4.656  0.6479 -1.8257  1.4725
 5216TIP3    H215655   4.387   2.401   4.707  2.1985  0.0840 -1.5865
 5217TIP3   OH215656   5.156   3.360   3.971 -0.1962 -0.6628 -0.1402
 5217TIP3    H115657   5.220   3.369   4.042 -1.3075 -0.1249  0.8134
 5217TIP3    H215658   5.167   3.270   3.940  1.3699 -0.4124 -0.3259
 5218TIP3   OH215659   6.405   4.342   4.874 -0.2307  0.4170 -0.4376
 5218TIP3    H115660   6.392   4.399   4.949  0.6534 -0.8846  0.7309
 5218TIP3    H215661   6.440   4.400   4.806  2.4251  0.9748  1.3102
 5219TIP3   OH215662   0.418   5.286   4.163 -0.5305  0.5099  0.0698
 5219TIP3    H115663   0.467   5.205   4.156 -1.9396 -0.3552  0.0221
 5219TIP3    H215664   0.460   5.335   4.233  0.9601  0.1952 -0.5953
 5220TIP3   OH215665   4.571   4.524   5.132 -0.6459 -0.0179 -0.5852
 5220TIP3    H115666   4.525   4.500   5.212  0.4027  0.8421  0.2943
 5220TIP3    H215667   4.654   4.560   5.162  0.9573 -2.2241 -2.1511
 5221TIP3   OH215668   1.810   0.785   4.436 -0.5266  0.0129  0.3985
 5221TIP3    H115669   1.811   0.706   4.490 -1.6496 -1.0865 -1.1467
 5221TIP3    H215670   1.719   0.797   4.412  0.1650 -0.6793 -2.8615
 5222TIP3   OH215671   2.435   0.906   0.384 -0.0153 -0.7389 -0.3245
 5222TIP3    H115672   2.494   0.831   0.373 -0.6099 -1.1625 -0.6876
 5222TIP3    H215673   2.451   0.936   0.473 -0.3031 -1.7814  0.0956
 5223TIP3   OH215674   5.837   4.773   4.897  0.1786 -0.2772 -0.0213
 5223TIP3    H115675   5.811   4.682   4.882 -0.7500 -0.2208  1.2293
 5223TIP3    H215676   5.830   4.785   4.992  0.8301  0.9462 -0.1146
 5224TIP3   OH215677   4.770   5.510   3.595 -0.1288  0.5827  0.1081
 5224TIP3    H115678   4.757   5.415   3.595 -1.1711  0.7171  1.9571
 5224TIP3    H215679   4.756   5.536   3.504  0.4284 -1.0539 -0.4656
 5225TIP3   OH215680   5.438   2.371   4.193 -0.9470  0.0781  0.2762
 5225TIP3    H115681   5.467   2.462   4.196 -1.7419  0.2935  1.6691
 5225TIP3    H215682   5.387   2.366   4.112  1.6094  0.0746 -1.3969
 5226TIP3   OH215683   4.468   3.000   4.522 -0.1381  0.3633 -0.1327
 5226TIP3    H115684   4.514   2.931   4.474 -0.4188 -0.0648  0.2125
 5226TIP3    H215685   4.438   3.060   4.453  2.1638  1.4257 -0.2564
 5227TIP3   OH215686   4.744   3.845   2.222 -0.2856  0.2370  0.3140
 5227TIP3    H115687   4.718   3.754   2.231 -1.2482  0.4808  0.0547
 5227TIP3    H215688   4.735   3.881   2.311 -0.6717  0.2738  0.2622
 5228TIP3   OH215689   0.765   5.303   0.154  0.0491  0.6587  0.0356
 5228TIP3    H115690   0.832   5.370   0.142 -0.0368  0.6747 -0.3702
 5228TIP3    H215691   0.778   5.242   0.081 -0.6585  0.9033 -0.3080
 5229TIP3   OH215692   2.848   4.218   5.275 -0.3011  0.0211 -0.4978
 5229TIP3    H115693   2.906   4.196   5.202 -0.1250  0.6727 -0.5503
 5229TIP3    H215694   2.802   4.136   5.293 -1.8727  0.3738 -2.7013
 5230TIP3   OH215695   3.880   3.380   4.677 -0.4286  0.0411  0.9380
 5230TIP3    H115696   3.877   3.376   4.581 -0.8029 -2.5265  1.0362
 5230TIP3    H215697   3.970   3.405   4.697  0.1316 -1.1264 -0.0526
 5231TIP3   OH215698   4.646   4.948   3.865  0.0720 -0.1359 -0.0717
 5231TIP3    H115699   4.710   4.894   3.912  0.6519  1.2630  0.7756
 5231TIP3    H215700   4.569   4.892   3.856  1.7483 -2.2699 -2.0734
 5232TIP3   OH215701   3.971   3.123   4.942 -0.6194 -0.1514 -0.2275
 5232TIP3    H115702   4.036   3.103   4.874  1.1737  1.8105  0.8466
 5232TIP3    H215703   4.006   3.084   5.021 -0.3909  1.4986  0.5037
 5233TIP3   OH215704   5.118   5.132   3.986 -0.0258  0.5167  0.4679
 5233TIP3    H115705   5.100   5.043   4.015  0.3482 -0.3624 -1.9054
 5233TIP3    H215706   5.132   5.181   4.067 -1.6641 -1.2428  1.8865
 5234TIP3   OH215707   3.994   4.730   3.129 -0.3969  0.0671 -0.5105
 5234TIP3    H115708   3.961   4.695   3.212  1.4786  0.4679  0.4505
 5234TIP3    H215709   3.955   4.817   3.122 -1.1096 -0.2449 -0.3723
 5235TIP3   OH215710   0.533   5.890   4.948  0.3584  0.0464  0.1619
 5235TIP3    H115711   0.512   5.842   5.028 -2.5284  0.3246 -0.3843
 5235TIP3    H215712   0.541   5.822   4.881 -2.3289  0.1405 -0.3204
 5236TIP3   OH215713   5.233   2.605   2.093 -0.0731  0.0825 -0.4371
 5236TIP3    H115714   5.197   2.625   2.006 -3.3161 -0.0914  0.7822
 5236TIP3    H215715   5.254   2.512   2.089  1.9437  0.5678 -1.7243
 5237TIP3   OH215716   4.617   4.320   1.986  0.4240 -0.4448  0.0037
 5237TIP3    H115717   4.625   4.411   2.015 -0.6883  0.4092 -2.2939
 5237TIP3    H215718   4.685   4.310   1.920  0.1318 -1.1129 -0.1969
 5238TIP3   OH215719   4.776   5.804   5.068  0.0363 -0.9422 -0.2516
 5238TIP3    H115720   4.699   5.816   5.124  0.6791  0.1155  0.4397
 5238TIP3    H215721   4.801   5.713   5.081  0.7724 -0.4505  1.9929
 5239TIP3   OH215722   3.710   2.965   4.242 -0.4610  0.3206  0.2529
 5239TIP3    H115723   3.753   3.039   4.285  0.8208  0.2290 -0.8338
 5239TIP3    H215724   3.780   2.901   4.229 -1.3336 -0.6365  0.1944
 5240TIP3   OH215725   1.152   0.024   3.984  0.2311 -0.1452  0.4740
 5240TIP3    H115726   1.130   0.102   3.933  1.3541  0.1369  0.4089
 5240TIP3    H215727   1.073   0.004   4.033 -0.4491  0.3417 -0.4080
 5241TIP3   OH215728   0.733   0.063   4.764 -0.0754  0.1837 -0.0473
 5241TIP3    H115729   0.767  -0.024   4.787 -0.7075  0.0837  0.5526
 5241TIP3    H215730   0.639   0.057   4.783 -0.2836  0.7076 -0.8910
 5242TIP3   OH215731   1.000   2.919   3.739 -0.1723  1.0300  0.1544
 5242TIP3    H115732   0.981   2.870   3.659 -1.2903 -0.9536  1.5838
 5242TIP3    H215733   0.925   2.977   3.751 -0.3888  0.7410  0.1946
 5243TIP3   OH215734   0.565   5.198   3.588  0.3347  0.1651  0.2801
 5243TIP3    H115735   0.616   5.118   3.576  0.2210  0.1644 -0.1979
 5243TIP3    H215736   0.478   5.177   3.555  0.6889  0.9270 -1.2036
 5244TIP3   OH215737   4.543   3.428   3.932  0.5207 -0.4607 -0.0497
 5244TIP3    H115738   4.510   3.353   3.982 -1.1168 -0.6040 -1.2808
 5244TIP3    H215739   4.583   3.389   3.854 -1.1184 -0.0461 -1.1272
 5245TIP3   OH215740   2.782   3.587   4.758  0.3208 -0.0515 -0.0397
 5245TIP3    H115741   2.782   3.607   4.851 -0.9950 -0.9502  0.1625
 5245TIP3    H215742   2.690   3.591   4.732  0.8579  2.3924 -1.7899
 5246TIP3   OH215743   0.782   0.486   4.922  0.3673 -0.3346 -0.3749
 5246TIP3    H115744   0.756   0.517   5.009 -2.0035 -0.5351 -0.9782
 5246TIP3    H215745   0.804   0.394   4.934  0.5343 -0.2359  0.0872
 5247TIP3   OH215746   3.791   3.986   4.072 -0.0071 -0.0169 -0.4258
 5247TIP3    H115747   3.765   3.986   3.980 -0.1426  1.6102 -0.4097
 5247TIP3    H215748   3.882   4.017   4.071  0.4605 -1.3790 -0.1272
 5248TIP3   OH215749   2.268   3.479   0.540 -0.0738 -0.2052 -0.2414
 5248TIP3    H115750   2.245   3.535   0.466 -2.7087 -0.1201  0.5862
 5248TIP3    H215751   2.286   3.393   0.502 -0.9090 -0.0356 -1.0104
 5249TIP3   OH215752   3.122   3.973   3.232 -0.3314  0.1763  0.6033
 5249TIP3    H115753   3.112   4.067   3.219 -0.1054 -0.0011 -0.8943
 5249TIP3    H215754   3.120   3.962   3.327 -0.9181  1.6256  0.7704
 5250TIP3   OH215755   5.815   0.293   4.473 -0.0416 -0.0587 -0.1267
 5250TIP3    H115756   5.866   0.283   4.554 -0.5463  0.8768  0.3116
 5250TIP3    H215757   5.881   0.302   4.405  0.4008 -1.5674  0.0674
 5251TIP3   OH215758   1.802  -0.024   3.027 -0.3537  0.1989  0.6204
 5251TIP3    H115759   1.755  -0.010   2.944 -2.0856  3.1470  2.0091
 5251TIP3    H215760   1.874   0.039   3.024 -0.3101  0.1773  1.2671
 5252TIP3   OH215761   1.038   0.211   0.537  0.1245 -0.3821 -0.1830
 5252TIP3    H115762   1.115   0.266   0.554  0.0820 -0.3343 -0.1457
 5252TIP3    H215763   1.064   0.124   0.567  0.3999 -0.5095 -0.7736
 5253TIP3   OH215764   4.961   1.589   3.761 -0.2873 -0.1218  0.1701
 5253TIP3    H115765   4.871   1.571   3.734 -0.5266  1.5340 -0.2006
 5253TIP3    H215766   4.986   1.668   3.712  0.9126  0.1825  1.2370
 5254TIP3   OH215767   6.409   0.390   3.683 -0.3907 -0.0237 -0.3010
 5254TIP3    H115768   6.360   0.417   3.606 -0.0014 -0.2534 -0.6289
 5254TIP3    H215769   6.460   0.315   3.654 -0.5399 -0.3566  0.2812
 5255TIP3   OH215770   4.108   5.295   4.907  0.1568 -0.3385 -0.2324
 5255TIP3    H115771   4.054   5.374   4.905  1.4966  0.6024  0.4453
 5255TIP3    H215772   4.151   5.293   4.821  1.1417  0.3957  0.2350
 5256TIP3   OH215773   4.688   0.287   3.419  0.2568  0.3890  0.3898
 5256TIP3    H115774   4.751   0.215   3.408 -0.3019 -0.2309  1.2500
 5256TIP3    H215775   4.603   0.244   3.428 -0.1410  1.1815  0.4413
 5257TIP3   OH215776   1.699   5.857   3.654 -0.0572  0.0572  0.1425
 5257TIP3    H115777   1.684   5.888   3.743 -0.3189  0.6860 -0.1155
 5257TIP3    H215778   1.790   5.881   3.635 -0.0641  0.1032  0.1685
 5258TIP3   OH215779   5.834   5.146   3.071 -0.4617  0.3529  0.7457
 5258TIP3    H115780   5.867   5.234   3.085 -0.1906  0.2235  0.9246
 5258TIP3    H215781   5.911   5.090   3.073 -0.6792  0.0604  1.0804
 5259TIP3   OH215782   3.854   6.063   2.652  0.1274  0.6405  0.1476
 5259TIP3    H115783   3.918   6.002   2.616 -1.2373 -0.9755  0.4229
 5259TIP3    H215784   3.813   6.103   2.575 -0.9013 -0.8346 -0.0877
 5260TIP3   OH215785   5.937   5.787   2.323 -0.0480  0.0911 -0.3496
 5260TIP3    H115786   5.980   5.850   2.381  1.1821 -0.5577 -0.5406
 5260TIP3    H215787   5.931   5.832   2.239 -0.7418  0.5831 -0.0479
 5261TIP3   OH215788   3.129   5.359   2.923  0.4048 -0.2597  0.3656
 5261TIP3    H115789   3.206   5.374   2.868 -0.4407  0.9213 -0.5179
 5261TIP3    H215790   3.136   5.267   2.948  1.3641 -0.5467 -0.8744
 5262TIP3   OH215791   1.074   3.782   0.096  0.3621 -0.4938 -0.4044
 5262TIP3    H115792   1.110   3.844   0.033  2.2569 -0.2589  0.8627
 5262TIP3    H215793   1.121   3.800   0.178  0.8592 -3.4352  0.0455
 5263TIP3   OH215794   4.836   5.722   2.831  0.0207 -0.1087  0.0813
 5263TIP3    H115795   4.809   5.650   2.889 -0.2555 -0.9735 -1.1148
 5263TIP3    H215796   4.780   5.714   2.754  1.1558  0.3440 -0.8102
 5264TIP3   OH215797   2.037   4.050   4.230  0.6143  0.7569 -0.2230
 5264TIP3    H115798   2.014   3.992   4.303  0.0653  0.8202 -0.3432
 5264TIP3    H215799   1.982   4.021   4.158  1.1240  0.7272 -0.5982
 5265TIP3   OH215800   3.502   5.219   3.230 -0.9739 -0.5111  0.1610
 5265TIP3    H115801   3.503   5.245   3.322 -0.5014 -0.2726  0.0889
 5265TIP3    H215802   3.569   5.273   3.189 -2.2981  0.5476 -0.6441
 5266TIP3   OH215803   2.768   3.982   1.535  0.0386  0.5219  0.1310
 5266TIP3    H115804   2.756   3.897   1.492 -0.8854  1.1774 -0.9281
 5266TIP3    H215805   2.789   4.042   1.463  0.9235  1.1486  0.9034
 5267TIP3   OH215806   4.761   5.489   2.580 -0.0205 -0.3488 -0.5341
 5267TIP3    H115807   4.758   5.583   2.562 -1.1836 -0.2706  0.0039
 5267TIP3    H215808   4.741   5.482   2.673  0.9033 -1.0793 -0.3901
 5268TIP3   OH215809   3.542   3.276   0.955  0.2120  0.5245 -0.6107
 5268TIP3    H115810   3.477   3.232   1.009 -1.3278  2.3513 -0.9393
 5268TIP3    H215811   3.548   3.223   0.876 -1.6045  0.8628 -0.9915
 5269TIP3   OH215812   6.296   5.875   0.057  0.0810 -0.2498  0.5040
 5269TIP3    H115813   6.329   5.836   0.138  0.5031  0.7062  0.7952
 5269TIP3    H215814   6.211   5.912   0.081  0.0402 -0.2866  0.4181
 5270TIP3   OH215815   3.071   5.638   4.018 -0.0282  0.2634 -0.4481
 5270TIP3    H115816   2.995   5.647   4.076 -0.1395 -0.7297 -0.4393
 5270TIP3    H215817   3.146   5.628   4.077 -0.0729 -0.2042 -0.4710
 5271TIP3   OH215818   0.540   4.007   4.125  0.6770 -0.0793  0.0031
 5271TIP3    H115819   0.621   3.998   4.075  0.3458  1.8804 -0.9163
 5271TIP3    H215820   0.521   3.918   4.156  2.8828 -0.6548 -0.2072
 5272TIP3   OH215821   3.230   5.301   3.222  0.1558 -1.0170  0.0547
 5272TIP3    H115822   3.323   5.320   3.220  0.0950 -0.7103  0.1083
 5272TIP3    H215823   3.205   5.311   3.314  0.0111 -0.7994 -0.0059
 5273TIP3   OH215824   5.209   4.078   4.493 -0.0696  0.0838 -1.0385
 5273TIP3    H115825   5.114   4.078   4.504  0.0755  1.2036  0.3288
 5273TIP3    H215826   5.224   4.020   4.419 -1.8698  0.3494 -1.6468
 5274TIP3   OH215827   0.274   4.597   3.388 -0.1505  0.4679 -0.4142
 5274TIP3    H115828   0.227   4.554   3.459  0.3641  0.5800  0.0045
 5274TIP3    H215829   0.250   4.548   3.310  1.4520 -1.4279  0.2322
 5275TIP3   OH215830   5.988   5.542   4.654 -0.0498  0.1284  0.6440
 5275TIP3    H115831   6.055   5.592   4.607  0.9440 -1.3507  0.4525
 5275TIP3    H215832   5.906   5.562   4.608  0.4495  1.0493  0.1532
 5276TIP3   OH215833   2.454   5.572   3.262  0.0231 -0.4832 -0.1239
 5276TIP3    H115834   2.521   5.569   3.194  1.0579 -3.0843  0.9369
 5276TIP3    H215835   2.424   5.481   3.270 -2.0293  0.2620  1.0002
 5277TIP3   OH215836   2.248   1.867   0.034  0.6985 -0.1370 -0.0082
 5277TIP3    H115837   2.303   1.791   0.055  1.4561  0.3502 -0.1920
 5277TIP3    H215838   2.181   1.867   0.102  0.6633 -1.0024 -0.0346
 5278TIP3   OH215839   3.304   5.315   4.061  0.6716  0.0506 -0.7042
 5278TIP3    H115840   3.252   5.269   4.128  0.1476  0.9041 -0.5202
 5278TIP3    H215841   3.395   5.293   4.081  0.4064 -1.1913 -0.8268
 5279TIP3   OH215842   3.929   4.312   4.034 -0.2430 -0.2891  0.5520
 5279TIP3    H115843   3.972   4.391   4.069 -0.5231  0.5129 -0.8987
 5279TIP3    H215844   3.974   4.240   4.077  1.2181  0.6097  0.5639
 5280TIP3   OH215845   5.241   4.719   3.731 -0.6272 -0.0249 -0.4926
 5280TIP3    H115846   5.219   4.697   3.822 -1.9808 -0.1434 -0.8398
 5280TIP3    H215847   5.323   4.672   3.715 -0.1763  0.3005  0.7821
 5281TIP3   OH215848   3.497   2.856   4.123  0.6631 -0.6997  0.4253
 5281TIP3    H115849   3.449   2.940   4.120  1.6366 -0.1813 -2.6540
 5281TIP3    H215850   3.568   2.871   4.185  0.3348  0.4963  0.5257
 5282TIP3   OH215851   4.143   0.146   3.961  0.0649 -0.5265 -0.1869
 5282TIP3    H115852   4.153   0.216   3.897 -0.8201 -0.4795 -0.2856
 5282TIP3    H215853   4.210   0.163   4.027  0.8407 -0.4522 -0.9828
 5283TIP3   OH215854   3.062   4.292   1.662 -0.0040  0.3780  0.2337
 5283TIP3    H115855   2.983   4.322   1.709  0.6058 -0.3282  1.7415
 5283TIP3    H215856   3.029   4.258   1.579 -1.2951  0.0383  0.8742
 5284TIP3   OH215857   5.434   0.039   4.314  0.4966  0.0127 -0.8692
 5284TIP3    H115858   5.391  -0.037   4.274  0.5978 -0.1800 -0.6160
 5284TIP3    H215859   5.370   0.073   4.376  0.6736 -0.2269 -0.5499
 5285TIP3   OH215860   4.425   5.913   3.261  0.2813  0.0193  0.0720
 5285TIP3    H115861   4.358   5.899   3.195  0.9980  0.6454 -0.8038
 5285TIP3    H215862   4.411   5.843   3.325 -1.5172  0.4470  0.1802
 5286TIP3   OH215863   0.711   0.073   4.355 -0.2138 -0.2671 -0.2417
 5286TIP3    H115864   0.660   0.108   4.428  0.6692 -0.2610  0.3805
 5286TIP3    H215865   0.645   0.038   4.294 -0.9600 -0.1508  0.4886
 5287TIP3   OH215866   2.627   4.008   1.131  0.0160  0.0664 -0.1670
 5287TIP3    H115867   2.598   3.945   1.198  0.6529 -1.2568 -1.1248
 5287TIP3    H215868   2.713   3.976   1.104 -0.3959  0.3870 -1.8869
 5288TIP3   OH215869   5.363   1.249   5.225  0.0848  0.1157  0.1897
 5288TIP3    H115870   5.270   1.252   5.205 -0.1393 -0.7020  1.0953
 5288TIP3    H215871   5.406   1.232   5.140 -0.5940  0.2721 -0.1851
 5289TIP3   OH215872   5.090   4.429   5.019 -0.0108  0.5654  0.0362
 5289TIP3    H115873   5.123   4.441   4.930  1.1841  2.3448  0.6803
 5289TIP3    H215874   5.068   4.336   5.024 -0.3930  0.5031 -2.2064
 5290TIP3   OH215875   0.295   4.896   0.160  0.0545 -0.7657  0.1412
 5290TIP3    H115876   0.373   4.928   0.116 -1.6081  2.0734 -0.9226
 5290TIP3    H215877   0.283   4.957   0.234 -1.2460 -1.0345  0.1717
 5291TIP3   OH215878   4.907   3.891   3.874 -0.0028 -0.1820 -0.3483
 5291TIP3    H115879   4.949   3.926   3.795 -0.8400  1.8077  0.0525
 5291TIP3    H215880   4.816   3.876   3.848 -0.1870  0.1011  0.1302
 5292TIP3   OH215881  -0.007   5.827   2.854  0.2596  0.0789  0.4901
 5292TIP3    H115882   0.084   5.851   2.838 -0.5361  2.5061 -0.7795
 5292TIP3    H215883  -0.037   5.888   2.921 -0.3258 -0.9897  1.2185
 5293TIP3   OH215884   0.096   0.161   3.942 -0.3909 -0.3345 -0.3941
 5293TIP3    H115885   0.186   0.141   3.919 -0.1081  0.3307  0.1035
 5293TIP3    H215886   0.046   0.148   3.861  0.6132  2.2308 -1.4670
 5294TIP3   OH215887   4.017   2.285   3.466  0.6731  0.7136 -0.2917
 5294TIP3    H115888   3.960   2.351   3.426  1.0753  0.6748 -0.9302
 5294TIP3    H215889   4.057   2.240   3.392  0.1396 -0.4814  0.1351
 5295TIP3   OH215890   0.407   0.046   2.523  0.0507  0.0219 -0.1188
 5295TIP3    H115891   0.338   0.040   2.457  0.4991 -1.3448 -0.4865
 5295TIP3    H215892   0.366   0.017   2.604  0.8252 -3.3416 -0.8474
 5296TIP3   OH215893   4.236   1.739   0.016 -0.1543  0.4083 -0.0651
 5296TIP3    H115894   4.310   1.750   0.075 -0.9284 -0.3496  1.0823
 5296TIP3    H215895   4.272   1.752  -0.071  1.3258  0.0424  0.4785
 5297TIP3   OH215896   0.347   0.350   4.164 -0.0759  0.0775 -0.0557
 5297TIP3    H115897   0.391   0.356   4.249 -0.6116 -2.2584  0.4363
 5297TIP3    H215898   0.419   0.335   4.102  0.4531  3.1024 -0.2514
 5298TIP3   OH215899   4.174   3.213   0.031 -0.4536  0.3324  0.2807
 5298TIP3    H115900   4.240   3.170  -0.024  2.5856  2.1625  2.3646
 5298TIP3    H215901   4.211   3.211   0.119 -1.7310  4.1216  0.9849
 5299TIP3   OH215902   4.053   5.544   3.195 -0.0856 -1.0654 -0.0236
 5299TIP3    H115903   4.020   5.473   3.250 -0.4764  0.0228  1.1739
 5299TIP3    H215904   3.987   5.553   3.126 -0.3510 -1.4349  0.1804
 5300TIP3   OH215905   5.063   2.482   1.125 -0.2048 -0.3810  0.3730
 5300TIP3    H115906   5.126   2.515   1.061 -1.7727 -1.3677 -1.7520
 5300TIP3    H215907   5.024   2.561   1.163 -0.1931  0.2200 -0.8513
 5301TIP3   OH215908   4.696   3.086   0.760 -0.0294  0.8375  0.2072
 5301TIP3    H115909   4.757   3.054   0.693 -1.0964 -1.5722  0.3146
 5301TIP3    H215910   4.627   3.129   0.710 -0.1149  0.2767 -0.1658
 5302TIP3   OH215911   3.335   2.131   4.661 -0.2046  0.3850  0.1433
 5302TIP3    H115912   3.372   2.173   4.583 -0.8217  1.9287  0.6685
 5302TIP3    H215913   3.253   2.092   4.630 -0.1463  0.4666 -0.1183
 5303TIP3   OH215914   3.072   4.660   0.530 -0.1512  0.2179 -0.3963
 5303TIP3    H115915   3.166   4.655   0.512 -0.1918  0.9695 -0.8528
 5303TIP3    H215916   3.048   4.749   0.503 -0.6757  0.5726  1.2025
 5304TIP3   OH215917   2.262   1.480   0.619  0.5143 -0.4176  0.3416
 5304TIP3    H115918   2.176   1.506   0.587  0.4746 -1.4860 -0.4632
 5304TIP3    H215919   2.293   1.555   0.669 -0.8915 -0.0357  0.6577
 5305TIP3   OH215920   3.563   5.270   4.104 -0.7128 -0.0295 -1.0029
 5305TIP3    H115921   3.585   5.276   4.197 -0.0783 -0.2074 -1.1423
 5305TIP3    H215922   3.623   5.330   4.061 -2.5677  1.8469 -1.0554
 5306TIP3   OH215923   0.018   5.722   4.110 -0.3822 -0.5469  0.0517
 5306TIP3    H115924   0.086   5.780   4.075  0.9777 -1.2542  1.4910
 5306TIP3    H215925   0.054   5.634   4.101 -0.3338 -0.8011  2.4891
 5307TIP3   OH215926   3.628   5.785   4.908 -0.0961 -0.2434  0.1929
 5307TIP3    H115927   3.611   5.695   4.881  1.0266 -0.2297 -0.6165
 5307TIP3    H215928   3.560   5.805   4.972 -0.6839 -1.4763 -0.0433
 5308TIP3   OH215929   4.137   2.687   4.849 -0.6457 -0.3843  0.1861
 5308TIP3    H115930   4.058   2.669   4.900 -1.0656 -0.1999 -0.3935
 5308TIP3    H215931   4.203   2.629   4.887 -0.8838 -0.0524  1.1093
 5309TIP3   OH215932   4.396   4.595   2.470 -0.0319  0.5193  0.6435
 5309TIP3    H115933   4.439   4.541   2.404  1.4368  2.5397 -0.1185
 5309TIP3    H215934   4.463   4.610   2.536 -0.8592  0.2689  1.5575
 5310TIP3   OH215935   2.516   0.853   5.178  0.2473 -0.3566 -0.0335
 5310TIP3    H115936   2.609   0.868   5.193  0.5818 -1.4347 -0.9823
 5310TIP3    H215937   2.509   0.844   5.083 -1.3233  3.0900 -0.3323
 5311TIP3   OH215938   2.960   3.531   2.330 -0.1725 -0.2294  0.0447
 5311TIP3    H115939   2.972   3.559   2.421 -2.0999  0.5158  0.0980
 5311TIP3    H215940   3.013   3.592   2.280 -0.4448  0.4407  0.5527
 5312TIP3   OH215941   4.109   1.640   2.773  0.6250 -0.0446  0.5635
 5312TIP3    H115942   4.054   1.707   2.733  1.4685  0.8644  0.9081
 5312TIP3    H215943   4.050   1.565   2.785  0.4300 -0.5191 -2.7600
 5313TIP3   OH215944   0.337   3.775   2.988  0.1228 -0.4305  0.5819
 5313TIP3    H115945   0.252   3.815   2.967  0.1016 -0.8199 -0.0841
 5313TIP3    H215946   0.400   3.846   2.982  0.0018 -0.3761 -0.0352
 5314TIP3   OH215947   5.170   5.833   3.893  0.6591 -0.3356  0.4701
 5314TIP3    H115948   5.118   5.771   3.944  0.9817 -0.3442  0.7908
 5314TIP3    H215949   5.125   5.838   3.809 -0.2456  0.1646  0.9750
 5315TIP3   OH215950   6.249   1.087   4.885  0.1868 -0.1012 -0.1811
 5315TIP3    H115951   6.240   1.124   4.797  3.8110  0.3200 -0.4356
 5315TIP3    H215952   6.229   1.160   4.944  0.2281  0.2948 -0.6569
 5316TIP3   OH215953   5.542   5.177   3.364 -0.7289  0.1608  0.5714
 5316TIP3    H115954   5.628   5.144   3.389 -0.8673 -0.3936  0.3349
 5316TIP3    H215955   5.538   5.265   3.402  0.6751  0.9290 -0.9382
 5317TIP3   OH215956   6.019   5.083   4.993 -0.6140 -0.6548 -0.0348
 5317TIP3    H115957   5.945   5.118   5.043 -0.6271  0.3809 -0.7561
 5317TIP3    H215958   6.090   5.144   5.010 -0.4247 -0.6757 -0.7415
 5318TIP3   OH215959   5.413   2.770   3.565 -0.5030  0.5887  0.1433
 5318TIP3    H115960   5.474   2.705   3.531  0.3840  0.8726  1.1695
 5318TIP3    H215961   5.465   2.850   3.575 -0.8423  0.6301  1.7431
 5319TIP3   OH215962   3.443   1.417   0.403  0.3834 -0.0971  0.1621
 5319TIP3    H115963   3.423   1.435   0.311  1.8069  1.1522  0.0725
 5319TIP3    H215964   3.538   1.409   0.405  0.9015  4.6558  2.2741
 5320TIP3   OH215965   5.092   2.809   0.185  0.1869  0.0967  0.3949
 5320TIP3    H115966   5.067   2.740   0.123 -1.3993  1.4590 -0.5456
 5320TIP3    H215967   5.017   2.816   0.244  0.3112  1.0449  0.4488
 5321TIP3   OH215968   5.106   6.042   5.096 -0.4534 -0.2818 -0.5836
 5321TIP3    H115969   5.193   6.079   5.078  0.2121 -1.4607  0.1726
 5321TIP3    H215970   5.089   6.064   5.188 -1.1827  0.3888 -0.8725
 5322TIP3   OH215971   0.613   4.470   2.917 -0.0310 -0.3461 -0.4087
 5322TIP3    H115972   0.626   4.452   2.824 -0.4908  1.5466 -0.8540
 5322TIP3    H215973   0.643   4.560   2.929  1.3808 -1.0504  1.5883
 5323TIP3   OH215974   4.915   3.964   0.189 -0.0364 -0.3016  0.5252
 5323TIP3    H115975   4.901   3.940   0.097  1.7970 -1.7476  0.6061
 5323TIP3    H215976   4.827   3.964   0.227 -0.7163 -0.6555 -0.9861
 5324TIP3   OH215977   5.443   5.255   4.176 -0.0685  0.0262 -0.3587
 5324TIP3    H115978   5.526   5.271   4.220  0.2523 -2.0792 -0.1653
 5324TIP3    H215979   5.465   5.198   4.102 -1.2964 -0.3801 -0.4294
 5325TIP3   OH215980   1.993   1.064   3.952  0.1326 -0.1553  0.3498
 5325TIP3    H115981   1.898   1.062   3.956  0.1581 -1.1718  0.5691
 5325TIP3    H215982   2.014   1.152   3.921 -0.8523  0.2851  0.9175
 5326TIP3   OH215983   2.978   3.457   0.106 -0.6233  0.5743  0.2669
 5326TIP3    H115984   3.064   3.482   0.074 -0.2165 -0.4178  0.5715
 5326TIP3    H215985   2.993   3.378   0.157 -1.6553  0.6217  0.6603
 5327TIP3   OH215986   4.838   3.586   4.214  0.7991  0.2429 -0.9654
 5327TIP3    H115987   4.840   3.600   4.308  2.3521  1.4902 -1.1581
 5327TIP3    H215988   4.837   3.490   4.204 -0.6803  0.1127  0.3081
 5328TIP3   OH215989   5.401   3.222   4.534 -0.5938 -0.3183 -0.4921
 5328TIP3    H115990   5.323   3.170   4.514 -1.0921  0.0889  0.3675
 5328TIP3    H215991   5.374   3.313   4.521 -0.2249 -0.1833 -0.3350
 5329TIP3   OH215992   0.115   5.538   5.138 -0.2566  1.2127 -0.9629
 5329TIP3    H115993   0.165   5.578   5.067 -0.1869  1.1917 -0.9257
 5329TIP3    H215994   0.118   5.445   5.120 -0.5016  1.2343 -1.1033
 5330TIP3   OH215995   5.782   4.529   4.799 -0.0448 -0.5075  0.6012
 5330TIP3    H115996   5.823   4.507   4.715 -1.4281 -1.5794  0.1808
 5330TIP3    H215997   5.799   4.453   4.855 -0.3999 -0.4463  0.7991
 5331TIP3   OH215998   2.917   0.203   0.101 -0.4667 -0.1054 -0.4500
 5331TIP3    H115999   2.855   0.250   0.045 -0.8761 -0.0490  0.0377
 5331TIP3    H216000   2.995   0.259   0.103 -1.1317  0.8064  0.5248
 5332TIP3   OH216001   5.185   4.351   3.524 -0.4603  0.2939  0.3756
 5332TIP3    H116002   5.255   4.401   3.483 -0.9699  0.9116  0.2558
 5332TIP3    H216003   5.137   4.312   3.450  0.7150 -1.4492  0.5059
 5333TIP3   OH216004   4.973   4.600   2.582  0.0690 -0.0417  0.1710
 5333TIP3    H116005   5.008   4.686   2.607 -0.1478  0.0911  0.0200
 5333TIP3    H216006   4.889   4.619   2.540  0.1549 -0.3055 -0.1286
 5334TIP3   OH216007   3.242   4.762   3.319 -0.1106  0.7507  0.9681
 5334TIP3    H116008   3.300   4.710   3.263  0.0772  2.2569 -0.2722
 5334TIP3    H216009   3.248   4.851   3.284 -2.2494  1.1646  1.5910
 5335TIP3   OH216010   6.328   3.956   4.288  0.2710 -0.2059  0.7744
 5335TIP3    H116011   6.254   3.898   4.273  0.5618 -0.7131  1.2863
 5335TIP3    H216012   6.388   3.905   4.342  1.5308 -0.2205 -0.6300
 5336TIP3   OH216013   5.887   5.983   2.808  0.1860 -0.0861 -0.0428
 5336TIP3    H116014   5.966   5.937   2.780 -0.4059 -0.8766 -0.4709
 5336TIP3    H216015   5.842   5.920   2.865 -1.4045 -0.6761 -1.8892
 5337TIP3   OH216016   5.741   4.924   2.248 -0.4313 -0.3558 -0.2851
 5337TIP3    H116017   5.752   5.018   2.256  0.1835 -0.2605 -1.9884
 5337TIP3    H216018   5.826   4.892   2.217 -1.0279 -1.2905 -1.0095
 5338TIP3   OH216019   5.054   0.704   5.238 -0.0279  0.5005 -0.0782
 5338TIP3    H116020   5.122   0.687   5.173  0.1297 -3.0021  0.8846
 5338TIP3    H216021   4.972   0.687   5.192  0.0618 -1.4861  0.4600
 5339TIP3   OH216022   6.119   5.837   2.696 -0.1451 -0.2386 -0.7875
 5339TIP3    H116023   6.207   5.854   2.727 -0.4083 -0.4802  0.1089
 5339TIP3    H216024   6.109   5.893   2.619 -0.5173  2.6109  1.2533
 5340TIP3   OH216025   3.706   4.492   3.615  0.0012  0.2122 -0.3707
 5340TIP3    H116026   3.734   4.432   3.684  1.7487 -2.4169 -3.2304
 5340TIP3    H216027   3.630   4.449   3.576 -1.2800  1.9204  0.1769
 5341TIP3   OH216028   3.072   5.127   3.642  0.3606  0.0709 -0.0037
 5341TIP3    H116029   2.993   5.154   3.689  0.8590  1.4073  0.1006
 5341TIP3    H216030   3.043   5.060   3.581 -0.4965 -0.8943  1.4297
 5342TIP3   OH216031   3.969   5.796   4.528 -0.1063  0.1014 -0.8870
 5342TIP3    H116032   3.999   5.763   4.613  1.6779  1.4170 -0.9741
 5342TIP3    H216033   4.017   5.744   4.464  0.7234  1.0328 -1.0418
 5343TIP3   OH216034   1.535   0.843   4.373  0.3065  0.0454 -0.1841
 5343TIP3    H116035   1.499   0.852   4.461  1.5621 -0.4136  0.3847
 5343TIP3    H216036   1.543   0.933   4.341 -3.1618  0.1219 -1.1108
 5344TIP3   OH216037   5.725   4.571   4.129  0.0296 -0.5320 -0.6615
 5344TIP3    H116038   5.675   4.649   4.105 -0.3168 -0.7957 -0.8001
 5344TIP3    H216039   5.677   4.499   4.089  0.0068 -0.8765 -0.0141
 5345TIP3   OH216040   4.265   1.848   4.655 -0.2508  0.2240  0.4820
 5345TIP3    H116041   4.285   1.762   4.618 -0.2754 -1.0794  3.4172
 5345TIP3    H216042   4.211   1.830   4.732  0.4910  2.8250  1.6755
 5346TIP3   OH216043   4.260   6.093   4.118 -0.8025  0.0202  0.5941
 5346TIP3    H116044   4.168   6.093   4.093 -1.4330  0.2910  2.8627
 5346TIP3    H216045   4.271   6.014   4.171  0.5990 -0.7312 -0.7530
 5347TIP3   OH216046   6.191   0.899   2.820 -0.5730 -0.0817  0.1549
 5347TIP3    H116047   6.144   0.957   2.761  0.1650 -0.1040 -0.4761
 5347TIP3    H216048   6.276   0.941   2.832  0.0424 -1.1250 -0.4734
 5348TIP3   OH216049   4.141   5.764   3.349 -0.5187 -0.0648 -0.0860
 5348TIP3    H116050   4.106   5.687   3.304  1.0559 -0.6451 -0.3443
 5348TIP3    H216051   4.164   5.733   3.437 -1.1861  0.4512  0.2749
 5349TIP3   OH216052   3.173   4.259   3.121 -0.2179 -0.3077 -1.0148
 5349TIP3    H116053   3.103   4.293   3.065 -0.2896  1.0170 -0.1646
 5349TIP3    H216054   3.172   4.317   3.197  0.2188 -1.7639  0.1146
 5350TIP3   OH216055   0.805   0.513   3.718 -0.0089 -0.2039 -0.5530
 5350TIP3    H116056   0.757   0.499   3.799  0.6073 -1.9623 -0.4753
 5350TIP3    H216057   0.739   0.542   3.655 -1.2650 -3.0252 -0.5772
 5351TIP3   OH216058   3.596   4.277   2.144 -0.9113  0.3766 -0.0251
 5351TIP3    H116059   3.551   4.297   2.061 -1.1805 -0.5053 -0.0958
 5351TIP3    H216060   3.596   4.182   2.149  1.5316  0.3312 -0.3233
 5352TIP3   OH216061   2.634   2.687   0.111  0.1986 -0.6791 -0.3944
 5352TIP3    H116062   2.566   2.671   0.176 -0.8169  1.5915 -0.8771
 5352TIP3    H216063   2.587   2.704   0.030  1.3734  0.0550 -0.9362
 5353TIP3   OH216064   5.702   1.447   4.356  0.3281 -0.2838  0.3012
 5353TIP3    H116065   5.718   1.352   4.362  1.0010 -0.2229 -0.4568
 5353TIP3    H216066   5.788   1.486   4.371 -0.2629  0.2895  2.4390
 5354TIP3   OH216067   0.820   0.585   3.193  0.5543  0.0032  0.1178
 5354TIP3    H116068   0.853   0.511   3.143  2.1969 -0.3100  1.6188
 5354TIP3    H216069   0.733   0.558   3.221  0.6492 -0.8506 -0.3761
 5355TIP3   OH216070   0.747   5.156   3.033 -0.1096 -0.2095 -0.0981
 5355TIP3    H116071   0.665   5.125   2.994  1.5065 -2.2287 -1.9954
 5355TIP3    H216072   0.761   5.242   2.994 -1.0471 -0.0756 -0.1536
 5356TIP3   OH216073   3.487   3.436   4.844  0.0043  0.3726  0.8095
 5356TIP3    H116074   3.502   3.360   4.900 -0.8807 -0.2815  0.1820
 5356TIP3    H216075   3.393   3.454   4.852 -0.2660 -0.1156 -0.9052
 5357TIP3   OH216076   2.480   2.497   4.176  0.2998  0.1922  0.5534
 5357TIP3    H116077   2.550   2.431   4.170  0.4657  0.3897  0.3231
 5357TIP3    H216078   2.518   2.576   4.138 -0.0753  0.2785  0.3530
 5358TIP3   OH216079   2.758   2.072   3.920  0.0610  0.3286  0.9747
 5358TIP3    H116080   2.701   2.024   3.860  1.2804 -2.8098  2.2146
 5358TIP3    H216081   2.840   2.083   3.873 -0.2043  1.1693  0.7068
 5359TIP3   OH216082   4.514   2.274   4.217 -0.3256  0.0344  0.4173
 5359TIP3    H116083   4.446   2.220   4.258 -0.9803 -0.4738 -1.3290
 5359TIP3    H216084   4.485   2.287   4.127  2.1678 -0.6552 -0.5378
 5360TIP3   OH216085   0.166   0.191   4.578  0.0946  0.5086  0.1060
 5360TIP3    H116086   0.208   0.176   4.663 -0.7182  1.4496  0.6737
 5360TIP3    H216087   0.074   0.168   4.592 -0.0042  0.4750 -0.5762
 5361TIP3   OH216088   4.985   4.863   3.607  0.1214  0.2883  0.0286
 5361TIP3    H116089   5.076   4.858   3.635  0.1785 -3.6210 -0.6474
 5361TIP3    H216090   4.941   4.909   3.679  2.1837  0.0435  1.4856
 5362TIP3   OH216091   4.779   5.492   4.650  0.5201  0.1400 -0.3498
 5362TIP3    H116092   4.813   5.577   4.621  0.2102  0.3504 -0.0947
 5362TIP3    H216093   4.805   5.485   4.742  0.1000  0.1828 -0.2289
 5363TIP3   OH216094   1.991   1.220  -0.004 -0.0948  0.0107 -1.0455
 5363TIP3    H116095   1.960   1.136   0.027 -0.5261  0.9898  1.2737
 5363TIP3    H216096   2.085   1.220   0.016 -0.1616  0.2092 -0.7259
 5364TIP3   OH216097   5.234   4.250   3.187 -0.1239 -0.4108  0.5367
 5364TIP3    H116098   5.177   4.181   3.153  0.5521 -1.0583  0.7107
 5364TIP3    H216099   5.307   4.204   3.227  0.1697  0.4001  0.9603
 5365TIP3   OH216100   1.111   2.544   0.465 -0.6672 -0.9255  0.8601
 5365TIP3    H116101   1.045   2.599   0.508  1.3290  0.9047  1.6334
 5365TIP3    H216102   1.179   2.532   0.530  1.3434 -0.0230 -0.9995
 5366TIP3   OH216103   1.329   0.317   4.005  1.1459  0.5825 -0.3767
 5366TIP3    H116104   1.253   0.305   3.949  0.6659 -1.3436  0.6380
 5366TIP3    H216105   1.310   0.397   4.055 -0.6084 -0.3207  0.4568
 5367TIP3   OH216106   4.354   4.437   4.674 -0.4733 -0.1981  0.3946
 5367TIP3    H116107   4.391   4.516   4.635 -0.1765  0.3529  1.7572
 5367TIP3    H216108   4.259   4.447   4.665 -0.3978 -0.2827 -0.5545
 5368TIP3   OH216109   0.036   2.629   4.000 -0.4027  0.6865  0.4532
 5368TIP3    H116110  -0.049   2.668   4.020  0.3904  1.9049  1.4774
 5368TIP3    H216111   0.022   2.585   3.916 -2.0613  0.8070  0.6429
 5369TIP3   OH216112   3.125   5.072   2.807  0.3006  0.5056  0.4203
 5369TIP3    H116113   3.100   5.124   2.731 -2.7733  0.1438  1.0877
 5369TIP3    H216114   3.124   4.981   2.775 -2.4427  0.2283  1.1881
 5370TIP3   OH216115   3.724   2.168   0.487 -0.4503  0.0671  0.5738
 5370TIP3    H116116   3.773   2.112   0.428  0.3904  2.1217 -0.7304
 5370TIP3    H216117   3.785   2.188   0.558 -0.1762  0.7293  0.1517
 5371TIP3   OH216118   1.878   0.447   5.055 -0.4243 -0.3958  0.0599
 5371TIP3    H116119   1.931   0.465   5.132 -1.4132  1.5794  0.3081
 5371TIP3    H216120   1.929   0.480   4.982 -0.4375 -0.3138  0.0881
 5372TIP3   OH216121   6.454   4.810   3.279  0.1589  0.0183 -0.1745
 5372TIP3    H116122   6.405   4.729   3.295  1.5656 -0.4471  1.9660
 5372TIP3    H216123   6.387   4.879   3.278 -0.7153 -0.7837  1.2450
 5373TIP3   OH216124   1.168   3.068   2.225 -0.3566 -0.3189 -0.4421
 5373TIP3    H116125   1.089   3.119   2.207  1.0003  1.6470 -0.9845
 5373TIP3    H216126   1.149   2.981   2.190 -1.9642  0.3699 -1.3144
 5374TIP3   OH216127   2.343   0.225   3.324  0.2895 -0.5305 -0.0411
 5374TIP3    H116128   2.248   0.238   3.333  0.3342  0.2242 -0.5700
 5374TIP3    H216129   2.371   0.297   3.267  1.3904  0.0541  1.2102
 5375TIP3   OH216130   0.486   5.912   4.487 -0.3589 -0.1110 -0.0772
 5375TIP3    H116131   0.440   5.909   4.403 -1.8021  2.4116  0.5411
 5375TIP3    H216132   0.417   5.898   4.552  0.6637 -1.5480  0.7007
 5376TIP3   OH216133   3.535   3.349   1.626  0.1000 -0.1538 -0.5400
 5376TIP3    H116134   3.593   3.283   1.589  0.0860  1.2366 -3.1973
 5376TIP3    H216135   3.495   3.392   1.550 -2.3067  0.7896  1.1633
 5377TIP3   OH216136   5.603   5.394   4.695  0.5847  0.2025  0.2823
 5377TIP3    H116137   5.624   5.335   4.768  1.4129 -0.8393 -0.7875
 5377TIP3    H216138   5.515   5.368   4.668  0.5071  0.1977  0.5412
 5378TIP3   OH216139   6.028   3.586   0.560  0.4317  0.0116 -0.0250
 5378TIP3    H116140   5.998   3.641   0.632  0.0198  0.4946 -0.5516
 5378TIP3    H216141   6.094   3.638   0.515  0.5620 -0.2134 -0.0932
 5379TIP3   OH216142   6.006   5.770   4.318 -0.3650  0.1176 -0.1921
 5379TIP3    H116143   6.028   5.678   4.334 -1.9326  0.0647  1.9331
 5379TIP3    H216144   6.008   5.810   4.405 -0.4939  1.9273 -0.9955
 5380TIP3   OH216145   6.109   3.224   3.441 -0.2865  0.0814 -0.0994
 5380TIP3    H116146   6.051   3.152   3.463 -2.4969  1.9775  0.4257
 5380TIP3    H216147   6.085   3.248   3.351 -0.3008  0.8452  0.1013
 5381TIP3   OH216148   5.566   3.522   0.706 -0.5515  0.0211  0.2865
 5381TIP3    H116149   5.477   3.509   0.737 -0.7442 -1.7976 -0.9594
 5381TIP3    H216150   5.561   3.508   0.611  0.4003  3.4326 -0.3458
 5382TIP3   OH216151   4.814   4.923   2.449  0.5581  0.9017 -0.7536
 5382TIP3    H116152   4.894   4.927   2.396  2.6534 -0.4878  2.1518
 5382TIP3    H216153   4.759   4.858   2.405  2.2642 -0.2639 -1.2205
 5383TIP3   OH216154   5.245   3.725   3.302  0.2533 -0.1047 -0.2261
 5383TIP3    H116155   5.269   3.663   3.371 -1.0917 -0.2088  0.1834
 5383TIP3    H216156   5.294   3.697   3.225  2.5842  0.6355  0.9406
 5384TIP3   OH216157   5.601   5.242   2.976 -0.2473 -0.7169 -0.2109
 5384TIP3    H116158   5.562   5.250   3.063 -1.3880  0.4726 -0.8108
 5384TIP3    H216159   5.682   5.193   2.990 -0.1845 -0.1238  1.5959
 5385TIP3   OH216160   6.488   4.739   4.933 -0.6370 -0.2657 -0.1267
 5385TIP3    H116161   6.461   4.656   4.972  0.5075 -0.6213 -0.0617
 5385TIP3    H216162   6.456   4.736   4.843  0.3729 -1.2740 -0.4663
 5386TIP3   OH216163   1.773   5.178   3.616  0.5072  0.6416 -0.9989
 5386TIP3    H116164   1.698   5.176   3.675  1.3955  1.3577  0.1483
 5386TIP3    H216165   1.756   5.106   3.555 -1.5946  1.3950 -1.3618
 5387TIP3   OH216166   2.066   5.534   4.370 -0.1304 -0.4648 -0.3785
 5387TIP3    H116167   2.030   5.472   4.434  2.1211 -0.5977  0.7984
 5387TIP3    H216168   2.041   5.620   4.403 -0.3735 -0.6031 -0.2029
 5388TIP3   OH216169   4.885   5.817   3.214  0.2150 -0.2845  0.3749
 5388TIP3    H116170   4.968   5.844   3.254  0.7108 -1.5031  0.1748
 5388TIP3    H216171   4.837   5.899   3.202  2.0409  0.6312 -1.0139
 5389TIP3   OH216172   0.664   3.773   3.164  0.3740  0.3373  0.8545
 5389TIP3    H116173   0.706   3.707   3.109 -0.6694  0.4341 -0.0669
 5389TIP3    H216174   0.736   3.831   3.190  1.0784 -0.4066  0.5988
 5390TIP3   OH216175   6.460   4.789   0.748 -0.3197  0.1508  0.4982
 5390TIP3    H116176   6.408   4.776   0.669  0.8448  1.0789 -0.4572
 5390TIP3    H216177   6.443   4.712   0.802  0.5238 -1.5355 -1.6062
 5391TIP3   OH216178   1.557   0.777   1.596 -0.0477 -0.3597  0.5427
 5391TIP3    H116179   1.503   0.711   1.638  0.1083 -0.8694 -0.0422
 5391TIP3    H216180   1.645   0.762   1.630  0.4124 -1.8714 -1.1992
 5392TIP3   OH216181   3.806   4.265   2.592  0.0718 -0.2630  0.0092
 5392TIP3    H116182   3.851   4.196   2.544  0.9352 -0.5962  1.2426
 5392TIP3    H216183   3.734   4.291   2.536  0.7904 -0.9395 -1.2521
 5393TIP3   OH216184   5.664   5.258   4.320  0.1827 -0.1059  0.3089
 5393TIP3    H116185   5.718   5.182   4.297  1.6448  1.3268 -1.1922
 5393TIP3    H216186   5.713   5.301   4.391 -2.6332 -2.6695  3.9663
 5394TIP3   OH216187   5.114   1.407   3.624  0.3662 -0.7763 -0.3504
 5394TIP3    H116188   5.039   1.453   3.661  0.9580 -0.4291  0.4228
 5394TIP3    H216189   5.183   1.473   3.620  0.3944 -0.8730 -1.8340
 5395TIP3   OH216190   0.595   3.960   4.532 -0.0414  0.1851 -0.3498
 5395TIP3    H116191   0.617   3.870   4.509  2.1780  0.1103  1.7122
 5395TIP3    H216192   0.654   4.014   4.478  1.4583  0.1945  1.2218
 5396TIP3   OH216193   6.381   5.976   3.073 -0.1904 -0.1124 -0.5932
 5396TIP3    H116194   6.413   5.996   3.161 -0.8224  1.8250 -0.7652
 5396TIP3    H216195   6.286   5.975   3.081 -0.2195 -0.9201 -1.0534
 5397TIP3   OH216196   5.625   4.824   3.529  0.2019 -0.1108  0.0137
 5397TIP3    H116197   5.612   4.918   3.526 -0.3978 -0.1783  0.3890
 5397TIP3    H216198   5.539   4.787   3.507  0.5018 -0.5690 -0.4092
 5398TIP3   OH216199   5.986   5.253   3.516  0.2298  0.1581 -0.1370
 5398TIP3    H116200   6.015   5.246   3.425 -0.2405  1.0868 -0.3601
 5398TIP3    H216201   6.023   5.335   3.547  0.4682 -0.2048  0.5491
 5399TIP3   OH216202   6.257   5.677   3.388 -0.5216 -0.2523  0.4153
 5399TIP3    H116203   6.196   5.744   3.357  0.0862 -1.0257 -2.6805
 5399TIP3    H216204   6.304   5.719   3.459 -2.0649  1.6515  0.3737
 5400TIP3   OH216205   1.744   1.177   3.224 -0.6811 -0.4395 -0.6747
 5400TIP3    H116206   1.736   1.135   3.309 -1.6974  0.6514 -0.2079
 5400TIP3    H216207   1.761   1.269   3.245  0.3977 -0.4127 -1.6591
 5401TIP3   OH216208   0.114   4.722   4.231  0.4325 -0.4011  0.2520
 5401TIP3    H116209   0.209   4.727   4.219  0.2883 -1.2680 -1.3169
 5401TIP3    H216210   0.078   4.728   4.142 -0.9394 -0.9480  0.7582
 5402TIP3   OH216211   4.918   6.146   3.940  0.0452 -0.5071  0.0175
 5402TIP3    H116212   4.905   6.121   4.032 -0.3021  0.5685  0.2670
 5402TIP3    H216213   4.868   6.082   3.890 -0.7643 -0.3630  0.6412
 5403TIP3   OH216214   4.686   2.549   4.948 -0.0812  0.2095 -0.5220
 5403TIP3    H116215   4.779   2.568   4.964  0.0145 -1.7390  1.5140
 5403TIP3    H216216   4.641   2.631   4.969  0.7856 -0.1161  3.1161
 5404TIP3   OH216217   0.393   1.017   4.266 -0.1210 -0.2872 -0.4531
 5404TIP3    H116218   0.453   1.065   4.323 -0.2454 -0.9103  0.2184
 5404TIP3    H216219   0.449   0.983   4.196  0.4471 -1.3796  0.4956
 5405TIP3   OH216220   1.727   0.635   2.322  0.1144 -0.2384 -0.0527
 5405TIP3    H116221   1.688   0.563   2.273 -0.2459 -0.2974  0.3154
 5405TIP3    H216222   1.668   0.709   2.308  1.2298  0.3796 -1.5788
 5406TIP3   OH216223   5.975   0.059   3.527 -0.2944  0.1836 -0.2449
 5406TIP3    H116224   5.908   0.067   3.458  0.4597 -1.3533 -1.1776
 5406TIP3    H216225   5.951  -0.020   3.575  0.5145 -0.0386 -0.2005
 5407TIP3   OH216226   4.339   3.634   4.296  0.4769 -0.1146 -0.1258
 5407TIP3    H116227   4.398   3.561   4.280  0.5617 -0.0750  0.0070
 5407TIP3    H216228   4.394   3.701   4.338 -0.0478 -0.7166  1.5302
 5408TIP3   OH216229   0.185   4.319   3.831  0.4938 -0.9083 -0.2079
 5408TIP3    H116230   0.246   4.312   3.904  1.4808 -2.1183 -1.1268
 5408TIP3    H216231   0.181   4.231   3.794 -0.6591 -0.5060 -1.0957
 5409TIP3   OH216232   3.676   0.067   0.311 -0.1323  0.4209  0.1881
 5409TIP3    H116233   3.743   0.118   0.358  0.2712 -1.5344  1.7916
 5409TIP3    H216234   3.596   0.118   0.324  0.4568  1.2097  0.8630
 5410TIP3   OH216235   3.320   0.172   4.110 -0.0862  0.3117 -0.1404
 5410TIP3    H116236   3.390   0.183   4.045  0.0889  0.5522  0.0873
 5410TIP3    H216237   3.248   0.226   4.077 -0.4928 -0.6619 -0.8470
 5411TIP3   OH216238   0.784   5.326   3.328 -0.4807  0.1723 -0.1605
 5411TIP3    H116239   0.777   5.247   3.381 -0.1015  0.3391  0.1353
 5411TIP3    H216240   0.693   5.356   3.318 -0.5800 -0.0330  0.1240
 5412TIP3   OH216241   0.132   3.075   2.609  0.4367 -0.7490 -0.3691
 5412TIP3    H116242   0.198   3.100   2.544  1.0789 -2.6178 -0.4589
 5412TIP3    H216243   0.058   3.134   2.592  1.2815 -0.0303 -1.6219
 5413TIP3   OH216244   5.961   4.879   3.364  0.0341  0.3578 -0.4865
 5413TIP3    H116245   5.972   4.785   3.348 -1.1709 -0.3872  2.6729
 5413TIP3    H216246   6.047   4.908   3.396  0.0191  0.0374 -0.1541
 5414TIP3   OH216247   2.643   0.520   2.138 -0.1204  0.0263  0.4449
 5414TIP3    H116248   2.704   0.548   2.071  0.1537 -0.3266  0.5435
 5414TIP3    H216249   2.610   0.601   2.176  2.1367  0.2337  2.0619
 5415TIP3   OH216250   3.030   0.461   4.999  0.2282  0.3984  0.2569
 5415TIP3    H116251   3.074   0.502   4.925 -0.3768 -1.4142 -1.1626
 5415TIP3    H216252   3.090   0.392   5.027 -1.0103 -1.1019 -0.7184
 5416TIP3   OH216253   0.230   4.880   3.348  0.4614  1.0830 -0.0429
 5416TIP3    H116254   0.135   4.891   3.354  0.3970  0.5360  0.0576
 5416TIP3    H216255   0.246   4.795   3.390  0.8861  0.7427 -0.8806
 5417TIP3   OH216256   5.501   5.724   3.494 -0.5496 -0.1410 -0.2246
 5417TIP3    H116257   5.541   5.645   3.529 -1.8016 -1.0056 -0.7192
 5417TIP3    H216258   5.520   5.722   3.400  0.4245  0.7574 -0.0599
 5418TIP3   OH216259   6.440   5.694   4.736  0.1784  0.5702  0.5726
 5418TIP3    H116260   6.454   5.602   4.713  0.5687  1.4273 -2.8795
 5418TIP3    H216261   6.521   5.738   4.711 -1.0381  2.2982 -0.4311
 5419TIP3   OH216262   6.399   4.716   4.649  0.3849  0.1081 -0.3674
 5419TIP3    H116263   6.313   4.690   4.616  0.3344 -0.8273  0.4487
 5419TIP3    H216264   6.438   4.766   4.579 -0.1848 -0.8385 -1.3777
 5420TIP3   OH216265   0.032   3.624   4.619 -0.2738 -0.0505  0.4574
 5420TIP3    H116266  -0.014   3.607   4.537  0.2907 -0.6366  0.2579
 5420TIP3    H216267   0.018   3.544   4.671 -0.1285  0.0804  0.6984
 5421TIP3   OH216268   6.147   5.502   3.569  0.1248 -0.5379  0.5567
 5421TIP3    H116269   6.187   5.569   3.513  1.9803  0.1715  2.6736
 5421TIP3    H216270   6.063   5.539   3.595 -0.3203 -0.4640 -0.9466
 5422TIP3   OH216271   6.052   3.784   4.431 -0.4218 -0.6837  0.0592
 5422TIP3    H116272   5.967   3.824   4.415  0.5651  1.6141  0.3198
 5422TIP3    H216273   6.092   3.776   4.345  0.9817  2.6883  0.3239
 5423TIP3   OH216274   1.978   0.547   4.041 -0.1507 -0.3050 -0.2089
 5423TIP3    H116275   1.958   0.629   3.994 -0.4211  0.8488  1.8498
 5423TIP3    H216276   1.910   0.541   4.108  1.6698 -0.5913  1.6641
 5424TIP3   OH216277   6.454   5.047   0.923  0.1593  0.3451 -0.3611
 5424TIP3    H116278   6.450   4.977   0.857  1.1351  0.1710 -0.2450
 5424TIP3    H216279   6.451   5.001   1.007  2.3233  0.3086 -0.2711
 5425TIP3   OH216280   1.597   0.274   2.980  0.2587 -0.3734  0.0627
 5425TIP3    H116281   1.609   0.180   2.966  0.3142 -0.3516 -0.0346
 5425TIP3    H216282   1.522   0.280   3.040  1.4675 -0.5670  1.6284
 5426TIP3   OH216283   5.484   5.870   3.882  0.4563 -1.2739 -0.7706
 5426TIP3    H116284   5.481   5.934   3.954  0.9537 -3.0157  0.8332
 5426TIP3    H216285   5.447   5.917   3.807  0.5541  0.8084  0.4303
 5427TIP3   OH216286   5.833   5.698   3.354  0.1715  0.3219  0.0788
 5427TIP3    H116287   5.877   5.696   3.439 -0.2123 -1.7591  0.2461
 5427TIP3    H216288   5.904   5.703   3.290  0.6029 -1.3234  0.4153
 5428TIP3   OH216289   4.547   2.571   3.952  0.3423 -0.1997 -0.4260
 5428TIP3    H116290   4.465   2.524   3.937 -0.4022  0.2587  2.1079
 5428TIP3    H216291   4.526   2.638   4.016  2.6097  0.1885 -0.0385
 5429TIP3   OH216292   4.767   3.701   3.217  0.4422 -0.5416  0.1702
 5429TIP3    H116293   4.839   3.739   3.166 -0.0977 -2.3111 -1.9891
 5429TIP3    H216294   4.806   3.681   3.302  1.9295  0.5578 -0.2316
 5430TIP3   OH216295   1.650   0.823   3.099 -0.1637 -0.1137  0.2322
 5430TIP3    H116296   1.697   0.772   3.033  0.1770 -0.1006  0.4683
 5430TIP3    H216297   1.669   0.780   3.182  0.4126  0.6029  0.4762
 5431TIP3   OH216298   5.641   3.131   3.873 -0.1820  0.1809 -0.2289
 5431TIP3    H116299   5.733   3.105   3.862 -0.4038 -0.8997  0.4666
 5431TIP3    H216300   5.645   3.218   3.914  0.5217  0.2261 -0.3858
 5432TIP3   OH216301   0.518   3.978   3.058 -0.4100  0.0103  0.7685
 5432TIP3    H116302   0.551   3.892   3.082  0.9898  0.1467 -0.5762
 5432TIP3    H216303   0.548   4.036   3.128  0.9244 -0.1402  0.3326
 5433TIP3   OH216304   0.024   4.484   4.612  0.5083  0.1856 -0.3976
 5433TIP3    H116305   0.043   4.463   4.521 -1.6553 -0.3923 -0.7452
 5433TIP3    H216306  -0.021   4.568   4.608  1.6404  0.8415  0.2796
 5434TIP3   OH216307   5.674   4.698   1.516 -0.3525 -0.2544 -0.2071
 5434TIP3    H116308   5.723   4.721   1.595 -0.3245 -0.1973 -0.2408
 5434TIP3    H216309   5.692   4.770   1.455  0.6908 -0.9261 -0.7279
 5435TIP3   OH216310   5.374   4.250   4.325  0.0428  0.2993 -0.1400
 5435TIP3    H116311   5.369   4.303   4.245  0.3703 -0.9881 -1.0327
 5435TIP3    H216312   5.309   4.181   4.311 -1.5126  1.3406  1.6986
 5436TIP3   OH216313   1.019   5.139   2.961  0.4352 -0.3423 -0.3795
 5436TIP3    H116314   1.011   5.139   2.866 -1.3587  1.0802 -0.2572
 5436TIP3    H216315   0.930   5.123   2.993  0.8789 -0.0766  1.0463
 5437TIP3   OH216316   1.994   0.688   2.230 -0.5252 -0.1515  0.0920
 5437TIP3    H116317   1.906   0.696   2.267 -0.0592 -1.0814  1.4508
 5437TIP3    H216318   2.007   0.771   2.183 -1.5321  0.6464  1.1689
 5438TIP3   OH216319   2.012  -0.005   2.589  0.2187  0.1994  0.3128
 5438TIP3    H116320   2.064   0.006   2.668 -0.7556  0.6487  0.9058
 5438TIP3    H216321   1.935   0.051   2.603 -0.0970  0.0704 -0.8271
 5439TIP3   OH216322   3.940   3.881   3.590 -0.6567 -0.0321  0.3339
 5439TIP3    H116323   3.860   3.879   3.538 -0.2709  1.2482 -0.3256
 5439TIP3    H216324   4.007   3.843   3.533 -0.4090  0.5940  0.2113
 5440TIP3   OH216325   0.844   5.517   4.530  0.3765 -0.4523 -0.2549
 5440TIP3    H116326   0.799   5.597   4.502  1.9738  0.4097 -0.4483
 5440TIP3    H216327   0.880   5.480   4.449 -0.3446 -1.3724 -0.1634
 5441TIP3   OH216328   2.141   5.047   2.243 -0.0416  0.5482 -0.0382
 5441TIP3    H116329   2.157   4.979   2.178 -1.9011  0.6680 -0.6416
 5441TIP3    H216330   2.092   5.002   2.313 -1.2445  1.2390 -0.4250
 5442TIP3   OH216331   5.231   5.637   3.402 -0.1617 -0.3812  0.0893
 5442TIP3    H116332   5.306   5.678   3.446 -1.3538  0.7791  1.0582
 5442TIP3    H216333   5.200   5.571   3.464  1.9950 -3.1361 -1.6188
 5443TIP3   OH216334   3.394   0.225   4.562 -0.2381  0.4813  0.4901
 5443TIP3    H116335   3.325   0.289   4.542 -0.2665  0.0467 -0.9039
 5443TIP3    H216336   3.416   0.240   4.654 -1.3234  1.4585  0.5969
 5444TIP3   OH216337   5.715   5.352   1.212 -0.0083 -0.4012  0.6247
 5444TIP3    H116338   5.804   5.324   1.192 -0.6480 -1.4786 -0.7358
 5444TIP3    H216339   5.674   5.366   1.126 -1.7735 -1.8965  1.1909
 5445TIP3   OH216340   0.328   2.340   4.701 -0.1371 -0.1393 -0.1672
 5445TIP3    H116341   0.345   2.395   4.624  2.3469 -1.0692 -0.3236
 5445TIP3    H216342   0.248   2.293   4.679  0.3390 -0.1354 -2.0685
 5446TIP3   OH216343   0.828   5.387   2.898  0.1785  0.2375  0.3671
 5446TIP3    H116344   0.899   5.451   2.909 -0.9167  2.1231 -2.8734
 5446TIP3    H216345   0.862   5.326   2.833  0.0439 -0.7510  1.2132
 5447TIP3   OH216346   1.596   3.488   3.650  0.3573 -0.3455  0.4346
 5447TIP3    H116347   1.576   3.514   3.560  0.0961  0.2541  0.6664
 5447TIP3    H216348   1.556   3.401   3.659  0.7117 -0.5718 -0.1452
 5448TIP3   OH216349   0.502   5.724   4.721 -0.2082  0.8248 -0.5241
 5448TIP3    H116350   0.422   5.715   4.670  1.1837 -2.1448 -2.3490
 5448TIP3    H216351   0.566   5.761   4.659  0.4231  1.0966  0.2736
 5449TIP3   OH216352   4.248   4.511   4.344  0.2491 -0.2109  0.0190
 5449TIP3    H116353   4.340   4.510   4.318  0.7521 -1.5070  1.7408
 5449TIP3    H216354   4.220   4.601   4.331  2.1250  0.4854  0.6798
 5450TIP3   OH216355   2.113   3.477   4.380 -0.3266 -0.5050 -0.2358
 5450TIP3    H116356   2.175   3.514   4.317 -1.1865  0.3199 -0.6128
 5450TIP3    H216357   2.166   3.419   4.435  0.3152 -1.7156 -2.1089
 5451TIP3   OH216358   1.065   4.532   3.999  0.0643 -0.2761  0.0509
 5451TIP3    H116359   1.079   4.602   3.935 -1.8356  1.0264  1.0206
 5451TIP3    H216360   1.102   4.566   4.081 -1.8752  0.0867  0.8013
 5452TIP3   OH216361   4.147   4.060   0.866 -0.5666 -0.5764 -0.3472
 5452TIP3    H116362   4.098   3.999   0.922 -0.2322  0.2138  0.8161
 5452TIP3    H216363   4.174   4.130   0.924  0.5559 -0.1749 -1.3233
 5453TIP3   OH216364   4.563   5.244   2.614  0.1530  0.3215  0.2786
 5453TIP3    H116365   4.602   5.331   2.606  0.6374  0.0072 -0.9243
 5453TIP3    H216366   4.635   5.184   2.598 -0.3958 -0.2817  0.0596
 5454TIP3   OH216367   2.166   0.584   4.613  0.2696 -0.5513  0.4002
 5454TIP3    H116368   2.219   0.512   4.581  1.3061 -0.1888  1.2586
 5454TIP3    H216369   2.156   0.642   4.538  0.7091 -0.8512  0.1070
 5455TIP3   OH216370   0.922   1.683   4.712 -0.1892 -0.1569  0.1719
 5455TIP3    H116371   0.912   1.589   4.701  2.3292 -0.4974  0.5960
 5455TIP3    H216372   1.003   1.693   4.761  0.9032  2.3378 -2.0421
 5456TIP3   OH216373   1.116   4.614   1.712 -0.2494 -0.5541  0.0422
 5456TIP3    H116374   1.054   4.616   1.785  0.3790 -0.3762  0.5798
 5456TIP3    H216375   1.071   4.563   1.644 -1.0459 -0.2839  0.3583
 5457TIP3   OH216376   0.562   5.413   2.659 -0.4027 -0.3106  0.4720
 5457TIP3    H116377   0.562   5.487   2.598 -1.8625 -0.8507 -0.2052
 5457TIP3    H216378   0.619   5.441   2.730 -1.7477  1.9092  0.7340
 5458TIP3   OH216379   4.585   4.055   2.054  0.1224 -0.2066  0.0933
 5458TIP3    H116380   4.603   4.149   2.047 -1.3350  0.0108 -0.9033
 5458TIP3    H216381   4.662   4.020   2.099  1.2363  1.2712 -0.5983
 5459TIP3   OH216382   6.470   4.275   4.078  0.1670 -0.3086 -0.1101
 5459TIP3    H116383   6.392   4.302   4.030 -0.9637 -0.1960  1.7414
 5459TIP3    H216384   6.488   4.186   4.047 -0.1203  0.0267 -1.2472
 5460TIP3   OH216385   4.270   4.739   3.113 -0.0746  0.3000  0.1690
 5460TIP3    H116386   4.303   4.664   3.065  1.1108 -0.0184  1.4775
 5460TIP3    H216387   4.181   4.751   3.079  0.5486 -0.2166 -1.7404
 5461TIP3   OH216388   0.568   0.625   2.474 -0.0166 -0.2929  0.2190
 5461TIP3    H116389   0.564   0.676   2.393  0.6064 -0.5849  0.0036
 5461TIP3    H216390   0.481   0.583   2.479 -0.4085  0.5165  0.2283
 5462TIP3   OH216391   4.175   3.018   3.263 -0.7712  0.9562  0.1849
 5462TIP3    H116392   4.149   2.930   3.289 -1.4466  1.0247 -0.2256
 5462TIP3    H216393   4.268   3.012   3.241 -1.1252  0.0624 -1.1048
 5463TIP3   OH216394   6.452   6.050   4.878 -0.1077 -0.7253  0.1385
 5463TIP3    H116395   6.407   6.118   4.828  0.0633 -0.7237 -0.0148
 5463TIP3    H216396   6.499   5.999   4.813  1.3336  0.1928  0.4218
 5464TIP3   OH216397   0.478   5.094   2.966 -0.4513  0.3641 -0.3323
 5464TIP3    H116398   0.434   5.099   3.050 -2.2938 -0.6888 -1.1966
 5464TIP3    H216399   0.440   5.165   2.914  0.3068  0.6899 -0.4570
 5465TIP3   OH216400   5.280   4.037   3.936 -0.1990  0.0184 -0.1808
 5465TIP3    H116401   5.238   4.088   3.867  3.3394  2.1740 -0.8635
 5465TIP3    H216402   5.282   3.947   3.903 -2.1810  0.3029 -1.0732
 5466TIP3   OH216403   4.717   4.600   2.887 -0.6402  0.3110  0.1863
 5466TIP3    H116404   4.663   4.537   2.934  0.2015  1.0287  2.1379
 5466TIP3    H216405   4.710   4.681   2.938 -0.1963  1.2852 -1.2566
 5467TIP3   OH216406   0.280   5.837   1.298  0.1687 -0.2198  0.0759
 5467TIP3    H116407   0.361   5.824   1.248 -0.4466 -0.1084 -0.9615
 5467TIP3    H216408   0.210   5.815   1.237 -0.6577  1.7125  0.2828
 5468TIP3   OH216409   1.089   2.392   0.016 -0.7659 -0.5942  0.3835
 5468TIP3    H116410   1.122   2.365   0.102  1.6333 -1.2995 -0.6935
 5468TIP3    H216411   1.111   2.318  -0.041 -0.0438  0.8883 -1.3182
 5469TIP3   OH216412   6.333   4.354   3.178 -0.4762 -0.5880 -0.0189
 5469TIP3    H116413   6.344   4.270   3.133 -0.2824 -1.1748  1.1124
 5469TIP3    H216414   6.257   4.394   3.136 -0.5780 -1.3315 -0.5558
 5470TIP3   OH216415   5.261   3.465   2.954  0.5207 -0.5340 -0.0794
 5470TIP3    H116416   5.352   3.434   2.950  1.6254  2.4513 -0.3199
 5470TIP3    H216417   5.217   3.419   2.883  2.2783 -0.8996 -0.9731
 5471TIP3   OH216418   0.580   4.608   1.172 -0.0963 -0.3434 -0.4449
 5471TIP3    H116419   0.602   4.699   1.149  1.4380 -0.8590 -1.0690
 5471TIP3    H216420   0.524   4.616   1.249  3.0745  0.9931  1.8183
 5472TIP3   OH216421   1.937   5.688   0.411  0.1473  0.0092  0.0700
 5472TIP3    H116422   1.895   5.764   0.372  0.6098  0.5824  0.6805
 5472TIP3    H216423   1.866   5.644   0.459 -0.0387  0.2581  0.0250
 5473TIP3   OH216424   6.201   4.559   3.422 -0.5187 -0.1338 -0.7354
 5473TIP3    H116425   6.107   4.570   3.409 -0.5844  1.7250  1.0575
 5473TIP3    H216426   6.240   4.631   3.371 -0.1432 -0.0323 -0.3002
 5474TIP3   OH216427   0.526   4.696   3.516 -0.3622  0.2929 -0.0019
 5474TIP3    H116428   0.537   4.637   3.591 -1.1422  1.6762  1.2311
 5474TIP3    H216429   0.458   4.655   3.464 -1.4510  0.4519  1.2503
 5475TIP3   OH216430   4.986   1.833   0.056 -0.2432  0.2585  0.0682
 5475TIP3    H116431   4.919   1.766   0.043  0.5571 -0.6843  0.7853
 5475TIP3    H216432   4.938   1.916   0.053 -1.4484 -0.4097  0.6360
 5476TIP3   OH216433   0.422   2.635   2.984  0.8670 -0.2905  0.0678
 5476TIP3    H116434   0.473   2.555   2.993  1.1651 -0.2591 -1.2016
 5476TIP3    H216435   0.423   2.654   2.890  0.6440  1.0958  0.3269
 5477TIP3   OH216436   0.249   5.553   4.433  0.4696 -0.1914  0.0869
 5477TIP3    H116437   0.164   5.529   4.471  0.2043  1.1947  0.3733
 5477TIP3    H216438   0.240   5.645   4.410  2.1223  0.1443  0.7282
 5478TIP3   OH216439   5.904   6.046   4.263 -0.4299  0.6479 -0.0123
 5478TIP3    H116440   5.957   6.094   4.327  0.6894  1.6763 -1.6984
 5478TIP3    H216441   5.880   6.111   4.197 -0.9492 -0.5615 -1.0333
 5479TIP3   OH216442   5.985   2.775   4.514 -0.1415 -0.0525 -0.2384
 5479TIP3    H116443   6.063   2.830   4.504 -1.1037  1.9060  2.5117
 5479TIP3    H216444   5.985   2.719   4.436  2.7502  1.4867 -1.4105
 5480TIP3   OH216445   0.310   3.305   4.323  0.0200  0.5543 -0.0392
 5480TIP3    H116446   0.269   3.271   4.244  0.2176  0.1081  0.0456
 5480TIP3    H216447   0.392   3.343   4.293  0.4679 -0.3208  0.0476
 5481TIP3   OH216448   5.787   2.355   1.096 -0.0577  0.1100 -0.4266
 5481TIP3    H116449   5.850   2.294   1.057 -0.8242 -0.6416 -0.5062
 5481TIP3    H216450   5.722   2.299   1.139 -0.5477  0.8800 -0.1432
 5482TIP3   OH216451   4.690   5.241   2.900  0.7160  0.5361 -0.2471
 5482TIP3    H116452   4.694   5.191   2.818  0.3638  0.0221  0.0490
 5482TIP3    H216453   4.732   5.185   2.965 -0.3303  0.2989  0.2433
 5483TIP3   OH216454   5.543   5.150   2.002 -0.3611 -0.4734  0.4637
 5483TIP3    H116455   5.538   5.243   2.025  1.6579 -0.5918  1.4670
 5483TIP3    H216456   5.636   5.132   1.992 -0.8364 -1.9544 -1.6957
 5484TIP3   OH216457   0.320   4.969   2.740 -0.4198 -0.3932 -0.0787
 5484TIP3    H116458   0.360   5.031   2.802 -0.5881  1.1396 -1.4833
 5484TIP3    H216459   0.297   4.894   2.794 -0.3497  0.8261  1.6987
 5485TIP3   OH216460   5.306   5.365   2.968 -0.1271  0.2334 -0.3441
 5485TIP3    H116461   5.394   5.343   2.936 -0.4112 -0.7006 -0.4909
 5485TIP3    H216462   5.321   5.395   3.058  0.5274  1.7169 -0.9305
 5486TIP3   OH216463   0.750   5.096   3.909  0.3397 -0.6091 -0.0568
 5486TIP3    H116464   0.840   5.078   3.934  0.5666  1.3436  0.5319
 5486TIP3    H216465   0.714   5.009   3.887  1.7741 -1.6341  1.5218
 5487TIP3   OH216466   4.039   3.842   3.907  0.0687 -0.2285  0.5691
 5487TIP3    H116467   4.090   3.803   3.836  2.1629  0.5466  1.6000
 5487TIP3    H216468   3.949   3.811   3.893  1.1388 -3.1124 -0.2432
 5488TIP3   OH216469   5.875   2.999   3.893  0.2276 -0.3643  0.0481
 5488TIP3    H116470   5.968   2.976   3.897  0.4315  0.5618  0.7135
 5488TIP3    H216471   5.833   2.936   3.952  0.2548 -1.6044 -1.2350
 5489TIP3   OH216472   0.814   5.377   0.729 -0.0421 -0.1673 -0.6673
 5489TIP3    H116473   0.789   5.460   0.769  0.6023  0.7339 -2.0749
 5489TIP3    H216474   0.737   5.321   0.737 -1.0840  1.1749 -1.2737
 5490TIP3   OH216475   5.207   2.879   4.655  0.4060  0.6979  0.1587
 5490TIP3    H116476   5.293   2.920   4.669  0.0983  1.3516  0.1567
 5490TIP3    H216477   5.173   2.920   4.576 -0.2123  0.9509  0.5547
 5491TIP3   OH216478   0.459   5.503   3.050  0.3165  0.6906 -0.1653
 5491TIP3    H116479   0.518   5.565   3.006 -0.5716  0.6604 -1.4201
 5491TIP3    H216480   0.443   5.435   2.985 -0.1851  0.0938  0.5764
 5492TIP3   OH216481   6.439   5.131   5.295 -0.3340  0.3340 -0.6689
 5492TIP3    H116482   6.419   5.053   5.348 -2.6744  1.1511 -0.2770
 5492TIP3    H216483   6.484   5.096   5.218  0.4295 -1.1949  0.4340
 5493TIP3   OH216484   0.013   5.515   3.659  0.4073  0.2456  0.5807
 5493TIP3    H116485   0.105   5.491   3.672  0.2431 -0.6266  0.1988
 5493TIP3    H216486   0.002   5.514   3.564 -0.3973 -1.2666  0.6652
 5494TIP3   OH216487   6.190   3.468   3.541 -0.0988  0.2756  0.9756
 5494TIP3    H116488   6.151   3.383   3.520 -1.7211  1.6690 -1.9684
 5494TIP3    H216489   6.127   3.532   3.508  2.5370  2.6325  0.3438
 5495TIP3   OH216490   6.126   4.337   4.937  0.7034  0.3035 -0.6962
 5495TIP3    H116491   6.100   4.425   4.912 -1.1190 -0.0831 -0.2143
 5495TIP3    H216492   6.217   4.329   4.906  0.9449  2.3864 -0.5642
 5496TIP3   OH216493   0.009   5.118   1.952  0.1181  0.1751  0.0732
 5496TIP3    H116494   0.075   5.050   1.943 -0.5978 -0.7503  1.5946
 5496TIP3    H216495   0.051   5.185   2.007 -0.1438 -0.3578  0.9400
 5497TIP3   OH216496   2.404   1.331   2.081  0.3792  0.3936 -0.4433
 5497TIP3    H116497   2.470   1.276   2.123 -0.2492  0.8994  1.2329
 5497TIP3    H216498   2.425   1.420   2.109  0.1903  0.7886 -1.5311
 5498TIP3   OH216499   6.344   3.144   1.965  0.1937 -0.5250  0.2883
 5498TIP3    H116500   6.357   3.081   2.036 -0.5306 -0.9021  0.0857
 5498TIP3    H216501   6.249   3.147   1.952  0.2511  0.3225  0.0395
 5499TIP3   OH216502   4.780   2.776   3.341 -0.2516 -0.2651  0.0381
 5499TIP3    H116503   4.819   2.760   3.427 -1.9341 -1.1188  0.6720
 5499TIP3    H216504   4.822   2.712   3.283  1.1139  0.5225  0.1418
 5500TIP3   OH216505   1.367   2.987   4.017  0.1297  0.0569 -0.1271
 5500TIP3    H116506   1.276   2.976   4.045 -0.1043  0.8492 -0.5449
 5500TIP3    H216507   1.411   2.907   4.044 -0.2796  0.4374  1.7698
 5501TIP3   OH216508   6.514   4.078   0.960  0.2293 -0.0604  0.2625
 5501TIP3    H116509   6.533   4.092   0.867  1.2571 -2.6263  0.0720
 5501TIP3    H216510   6.422   4.055   0.963 -0.2340  1.6528  0.0909
 5502TIP3   OH216511   4.951   4.341   2.679  0.0934 -0.7984 -0.0542
 5502TIP3    H116512   4.924   4.404   2.612  1.7530 -0.9169 -0.8743
 5502TIP3    H216513   4.944   4.389   2.762  1.5691  0.5804 -0.6828
 5503TIP3   OH216514   0.168   4.644   1.511  0.2588  0.4917 -0.0886
 5503TIP3    H116515   0.082   4.680   1.491 -0.0635 -0.1159  0.2178
 5503TIP3    H216516   0.216   4.717   1.551  0.1302  1.0388 -0.8950
 5504TIP3   OH216517   6.101   5.187   2.178 -0.1322 -0.4343  0.4068
 5504TIP3    H116518   6.125   5.136   2.255  0.1484  0.4706  0.9115
 5504TIP3    H216519   6.151   5.268   2.185 -0.0108 -0.3846 -0.7799
 5505TIP3   OH216520   1.330   0.037   4.716  0.3096  0.2496  0.2368
 5505TIP3    H116521   1.259   0.036   4.652 -0.4675  0.8768  1.0723
 5505TIP3    H216522   1.377   0.119   4.699 -0.5794  0.9695  1.1898
 5506TIP3   OH216523   5.041   4.749   3.282 -0.0271  0.2227  0.0185
 5506TIP3    H116524   5.010   4.663   3.311  0.1338  0.1251 -0.0984
 5506TIP3    H216525   4.985   4.812   3.329  0.3584  0.0682  0.6825
 5507TIP3   OH216526   5.955   5.394   3.071 -0.4857 -0.1666  0.2742
 5507TIP3    H116527   5.957   5.485   3.102 -2.8950  0.2357 -0.6854
 5507TIP3    H216528   6.016   5.348   3.129 -0.2641  1.7850  1.6367
 5508TIP3   OH216529   0.238   4.677   5.173 -0.7216 -0.0179  0.5838
 5508TIP3    H116530   0.194   4.601   5.210 -1.3059 -0.2918 -0.6399
 5508TIP3    H216531   0.326   4.647   5.151 -0.9469 -0.3392  0.1182
 5509TIP3   OH216532   3.517   1.977   0.047  0.5325  0.3512  0.3050
 5509TIP3    H116533   3.428   2.009   0.063 -0.4809 -1.3451 -1.6303
 5509TIP3    H216534   3.543   1.936   0.130 -1.8572 -2.1250 -0.0615
 5510TIP3   OH216535   4.400   4.646   3.956 -0.0993  0.2336 -0.2782
 5510TIP3    H116536   4.447   4.668   3.876  0.2403  3.3890  0.7103
 5510TIP3    H216537   4.327   4.592   3.926  1.3523 -0.6266 -2.4099
 5511TIP3   OH216538   0.756   1.780   0.742  0.0858 -0.4323 -0.0654
 5511TIP3    H116539   0.743   1.867   0.705  3.9461  0.0775 -0.4883
 5511TIP3    H216540   0.740   1.720   0.669 -0.2789  0.0756 -0.4071
 5512TIP3   OH216541   4.732   3.324   1.446 -0.0085 -0.3699  0.0898
 5512TIP3    H116542   4.736   3.228   1.442  0.3667 -0.3288 -0.5406
 5512TIP3    H216543   4.663   3.342   1.510 -1.0945 -1.0728 -0.8484
 5513TIP3   OH216544   1.055   5.955   3.569  0.6585  0.1344 -0.3089
 5513TIP3    H116545   0.985   5.994   3.517 -0.0060  0.0407  0.5136
 5513TIP3    H216546   1.046   5.861   3.555 -2.7058 -0.3285  3.8685
 5514TIP3   OH216547   5.091   1.178   4.529  0.1015 -0.3057 -0.5046
 5514TIP3    H116548   5.128   1.264   4.508  0.7849 -0.6531 -0.7253
 5514TIP3    H216549   5.032   1.159   4.456 -0.6792  0.3412 -0.0486
 5515TIP3   OH216550   1.410   4.196   0.322 -0.1209 -0.0557 -0.8762
 5515TIP3    H116551   1.404   4.100   0.320 -0.2645 -0.0248 -3.4971
 5515TIP3    H216552   1.476   4.218   0.256  0.4441  1.6231  0.2253
 5516TIP3   OH216553   3.941   0.845   4.962 -0.4131  0.5102 -0.1984
 5516TIP3    H116554   3.869   0.798   5.004 -0.0950 -0.4856 -0.7576
 5516TIP3    H216555   4.002   0.776   4.936  0.0449  1.2391 -1.0548
 5517TIP3   OH216556   2.688   0.937   2.814  0.7811  0.1562 -0.0494
 5517TIP3    H116557   2.757   0.976   2.869 -0.0118 -0.1470  1.1938
 5517TIP3    H216558   2.719   0.848   2.796  0.7451  0.0334  0.4729
 5518TIP3   OH216559   0.596   4.743   2.951 -0.0397 -0.5520 -0.5788
 5518TIP3    H116560   0.601   4.780   3.039  2.4664  1.0636 -1.3234
 5518TIP3    H216561   0.508   4.763   2.921 -0.1905  0.8663  0.7613
 5519TIP3   OH216562   1.171   3.504   0.305 -0.2679 -0.0849  0.3873
 5519TIP3    H116563   1.217   3.576   0.261 -1.4915 -0.2175 -1.1475
 5519TIP3    H216564   1.101   3.548   0.355 -0.4552 -0.1368  0.1706
 5520TIP3   OH216565   6.175   3.963   3.554  0.1822  0.6047 -0.0184
 5520TIP3    H116566   6.098   3.940   3.605  1.8665 -4.8781  0.3129
 5520TIP3    H216567   6.152   3.943   3.463  0.4783  1.1719 -0.2287
 5521TIP3   OH216568   2.349   5.811   3.855 -0.2531  0.0402  0.0791
 5521TIP3    H116569   2.299   5.766   3.787 -1.0245 -0.4725  0.9580
 5521TIP3    H216570   2.338   5.904   3.836  0.6109 -0.1169 -1.2339
 5522TIP3   OH216571   6.138   1.469   4.035 -0.9955  0.0846 -0.2859
 5522TIP3    H116572   6.234   1.465   4.036 -0.9442  1.1024 -0.7755
 5522TIP3    H216573   6.111   1.410   4.106  0.0069  0.3481  0.3284
 5523TIP3   OH216574   1.951   5.797   4.431  0.0998  0.1957  0.2264
 5523TIP3    H116575   1.866   5.840   4.435 -0.0334 -0.1259  1.0275
 5523TIP3    H216576   1.981   5.810   4.341 -0.3196  1.2197  0.2293
 5524TIP3   OH216577   2.575   6.047   4.859 -0.0796  0.1649 -0.3728
 5524TIP3    H116578   2.614   6.115   4.805  0.3646 -0.2063 -0.5199
 5524TIP3    H216579   2.484   6.075   4.871 -0.3727 -0.0933 -1.8821
 5525TIP3   OH216580   2.413   4.842   3.472  0.6416 -0.3955 -0.5749
 5525TIP3    H116581   2.479   4.799   3.527 -0.5126 -0.8640  0.4553
 5525TIP3    H216582   2.370   4.770   3.426 -0.4061 -0.2456  0.1570
 5526TIP3   OH216583   0.340   5.210   4.968  0.3814 -0.3553  0.2107
 5526TIP3    H116584   0.422   5.256   4.988 -0.1807  1.1672 -0.8760
 5526TIP3    H216585   0.324   5.230   4.876 -1.0747 -0.8736  0.3449
 5527TIP3   OH216586   0.046   5.106   4.678  0.1956 -0.2609  0.4282
 5527TIP3    H116587   0.094   5.024   4.691  0.1965 -0.3946 -0.3823
 5527TIP3    H216588   0.016   5.102   4.587 -1.6014 -0.2939  1.0048
 5528TIP3   OH216589   0.556   2.920   4.593  0.2284 -0.1883 -0.4648
 5528TIP3    H116590   0.477   2.962   4.629  0.1342  0.9964 -2.0336
 5528TIP3    H216591   0.525   2.874   4.515  1.2549  1.0204 -1.5855
 5529TIP3   OH216592   3.643   0.895   3.488  0.4717 -0.8806 -0.5958
 5529TIP3    H116593   3.680   0.844   3.560 -0.3362 -1.1265 -0.3376
 5529TIP3    H216594   3.712   0.955   3.462  0.4240 -0.0915  1.0599
 5530TIP3   OH216595   1.755   5.470   3.013 -0.1059 -0.1567  0.0231
 5530TIP3    H116596   1.691   5.530   3.052  0.1736  1.7526 -2.3555
 5530TIP3    H216597   1.713   5.439   2.933  0.1897 -2.3503  0.6973
 5531TIP3   OH216598   3.642   0.659   4.988  0.5826  0.0242 -0.0285
 5531TIP3    H116599   3.686   0.576   5.007  1.3930  0.3497 -0.4460
 5531TIP3    H216600   3.573   0.665   5.054  0.8130 -0.7575  0.2956
 5532TIP3   OH216601   0.948   5.372   4.318 -0.3468 -0.3483 -0.3139
 5532TIP3    H116602   0.899   5.293   4.294  0.5583 -0.9014 -0.4013
 5532TIP3    H216603   0.961   5.418   4.236  0.3813 -0.8522 -0.4863
 5533TIP3   OH216604   6.383   5.778   4.336 -0.0608 -0.6282  0.0540
 5533TIP3    H116605   6.432   5.765   4.255  0.4795 -0.3263  0.3325
 5533TIP3    H216606   6.343   5.693   4.354  0.7239 -0.9939  0.0666
 5534TIP3   OH216607   4.364   0.649   4.463  0.3937 -0.2581  0.8331
 5534TIP3    H116608   4.453   0.619   4.483  1.0709  1.6425  0.7010
 5534TIP3    H216609   4.363   0.741   4.489 -0.2985  0.8476 -2.8578
 5535TIP3   OH216610   3.084   0.017   0.791  0.0145 -0.7223 -0.2686
 5535TIP3    H116611   3.059   0.106   0.768  0.0050 -1.0176 -1.4475
 5535TIP3    H216612   3.145   0.026   0.864  0.6168  0.2938 -0.8909
 5536TIP3   OH216613   5.661   2.665   4.312  0.1265 -0.5050 -0.0725
 5536TIP3    H116614   5.622   2.625   4.390  0.7968  0.7607  0.9357
 5536TIP3    H216615   5.590   2.668   4.248 -0.5499 -1.1704  0.6356
 5537TIP3   OH216616   0.303   5.820   2.825 -0.3524 -0.7875 -0.3920
 5537TIP3    H116617   0.373   5.856   2.770 -0.8481 -1.0708 -1.2341
 5537TIP3    H216618   0.345   5.751   2.875  0.1683 -0.3574 -0.2348
 5538TIP3   OH216619   2.555   0.543   5.078  0.6394  0.2457  0.6992
 5538TIP3    H116620   2.641   0.578   5.054 -0.2076  1.1072 -1.1626
 5538TIP3    H216621   2.544   0.466   5.023  1.2406 -1.3074  2.6999
 5539TIP3   OH216622   0.396   5.277   3.870  0.4564 -0.1859 -0.4377
 5539TIP3    H116623   0.391   5.330   3.950 -0.4154  0.6413 -1.0324
 5539TIP3    H216624   0.488   5.282   3.844  0.7547 -0.4981  0.5365
 5540TIP3   OH216625   0.682   5.638   5.303  0.0322  0.8665  0.0784
 5540TIP3    H116626   0.736   5.585   5.244 -0.8295  0.4475 -0.3367
 5540TIP3    H216627   0.600   5.651   5.256 -0.6638  0.5339  1.1801
 5541TIP3   OH216628   0.776   5.907   0.838  0.7198 -0.0346 -0.4726
 5541TIP3    H116629   0.804   5.987   0.792 -1.0720  0.5249 -0.6439
 5541TIP3    H216630   0.745   5.938   0.923 -1.6075 -0.3094 -1.1960
 5542TIP3   OH216631   1.148   1.004   4.226 -0.0830  0.2064 -0.1899
 5542TIP3    H116632   1.055   0.986   4.210 -0.1378 -0.2252  0.6207
 5542TIP3    H216633   1.190   0.918   4.226  0.2015  0.3440  0.1780
 5543TIP3   OH216634   2.569   0.333   3.053 -0.5857 -0.0159  0.2375
 5543TIP3    H116635   2.551   0.245   3.085 -2.6291  1.6038  3.7860
 5543TIP3    H216636   2.505   0.347   2.983 -0.5699 -1.1585 -0.0153
 5544TIP3   OH216637   5.061   1.248   3.388 -0.6354  0.2122  0.1896
 5544TIP3    H116638   5.093   1.164   3.420 -0.8551  0.2033  0.3882
 5544TIP3    H216639   5.087   1.311   3.456 -2.3100 -0.0161  1.0632
 5545TIP3   OH216640   2.029   5.932   4.692 -0.2269 -0.0469 -0.0621
 5545TIP3    H116641   1.994   6.016   4.662  0.0788  0.4549  0.9459
 5545TIP3    H216642   2.007   5.870   4.623  0.8638  1.1614 -1.5382
 5546TIP3   OH216643   0.705   5.937   3.373  0.0213 -0.2487  0.0390
 5546TIP3    H116644   0.689   5.843   3.386  3.2096 -0.6771  1.4302
 5546TIP3    H216645   0.677   5.977   3.455 -4.2869  0.5041 -1.6901
 5547TIP3   OH216646   4.476   4.241   2.419 -0.1174 -0.0945  0.4208
 5547TIP3    H116647   4.515   4.265   2.335 -0.4810 -0.5321  0.1283
 5547TIP3    H216648   4.550   4.230   2.477  0.0616  2.3437  0.7345
 5548TIP3   OH216649   2.328   3.840   5.064 -0.2527 -0.0386  0.5469
 5548TIP3    H116650   2.267   3.794   5.121 -1.5914  0.9793 -0.0408
 5548TIP3    H216651   2.357   3.915   5.115  0.5720 -0.5604  0.8515
 5549TIP3   OH216652   1.772   2.943   1.003 -0.1882 -0.1617 -0.2953
 5549TIP3    H116653   1.861   2.923   0.974  0.0606 -1.1147  1.0750
 5549TIP3    H216654   1.776   2.940   1.098 -1.6808 -0.1620 -0.2147
 5550TIP3   OH216655   2.142   5.444   3.320 -0.0182 -0.0629  0.0499
 5550TIP3    H116656   2.114   5.389   3.394 -2.0353  1.3062  0.3329
 5550TIP3    H216657   2.093   5.409   3.245 -0.6798  0.8082  0.0710
 5551TIP3   OH216658   1.034   5.250   3.217 -0.0959 -0.1235  0.5737
 5551TIP3    H116659   1.038   5.172   3.161  0.7337 -0.9503  1.7587
 5551TIP3    H216660   0.942   5.273   3.220 -0.7138 -2.5947  2.2516
 5552TIP3   OH216661   0.046   3.227   0.192  0.5628  0.6318  0.8057
 5552TIP3    H116662   0.034   3.152   0.250  1.2224 -0.1594 -0.0537
 5552TIP3    H216663   0.018   3.303   0.243 -1.0797 -0.3175  1.3368
 5553TIP3   OH216664  -0.010   3.583   1.531  0.5167  0.3934 -0.6759
 5553TIP3    H116665   0.061   3.519   1.527  0.3593  0.0593  1.5785
 5553TIP3    H216666   0.025   3.661   1.488  1.2226 -0.7108 -2.1344
 5554TIP3   OH216667  -0.012   3.282   0.863  0.0667  0.1221  0.1372
 5554TIP3    H116668  -0.007   3.278   0.767  1.7861  0.2137  0.2167
 5554TIP3    H216669   0.061   3.337   0.889  0.1130 -0.5950  1.5698
 5555TIP3   OH216670   0.657   3.980   2.399 -0.7841 -0.3151  0.0764
 5555TIP3    H116671   0.693   4.045   2.338 -1.0625  0.4457  0.7103
 5555TIP3    H216672   0.733   3.953   2.452 -0.9535  0.6412  0.8315
 5556TIP3   OH216673   1.181   2.923   1.034  0.1975  0.3354  0.4610
 5556TIP3    H116674   1.215   2.860   1.097 -0.5185 -0.4528  0.0712
 5556TIP3    H216675   1.123   2.980   1.085 -1.0011 -0.7877  0.3911
 5557TIP3   OH216676   0.192   4.349   2.857 -0.5838 -0.1399 -0.0470
 5557TIP3    H116677   0.211   4.256   2.867  0.9506 -0.1356 -2.6189
 5557TIP3    H216678   0.165   4.359   2.766 -1.6593  1.7847  0.4517
 5558TIP3   OH216679   5.520   1.051   0.268  0.1966  0.3128 -0.1707
 5558TIP3    H116680   5.522   1.134   0.316 -1.8873  1.9977 -2.8545
 5558TIP3    H216681   5.608   1.043   0.231  1.5084 -0.5116  3.0012
 5559TIP3   OH216682   5.237   1.920   5.220  0.0595  0.1929 -0.2131
 5559TIP3    H116683   5.280   1.966   5.292  0.5997 -0.2026 -0.2759
 5559TIP3    H216684   5.221   1.832   5.255  1.8554 -0.5207 -1.1344
 5560TIP3   OH216685   5.151   2.162   0.108 -0.3694 -0.7142 -0.2282
 5560TIP3    H116686   5.203   2.082   0.096 -0.5127 -0.7355 -0.7050
 5560TIP3    H216687   5.105   2.173   0.025  0.8973  0.7635 -0.7372
 5561TIP3   OH216688   2.052   4.675   3.348  0.2668 -0.2256 -0.0421
 5561TIP3    H116689   2.002   4.744   3.304  0.2787  0.2866  0.7528
 5561TIP3    H216690   2.013   4.594   3.317  0.4942  0.1188 -1.2814
 5562TIP3   OH216691   2.026   5.276   3.519 -0.1747 -0.3199 -0.0844
 5562TIP3    H116692   2.052   5.336   3.588 -1.3542 -1.3078  1.2393
 5562TIP3    H216693   1.938   5.248   3.543 -0.8199 -0.3028 -2.2443
 5563TIP3   OH216694   2.581   4.487   3.836 -0.6070  0.4716 -0.1618
 5563TIP3    H116695   2.527   4.467   3.760  0.3121 -0.6983 -0.5076
 5563TIP3    H216696   2.663   4.440   3.822 -0.1589  0.7960  1.2152
 5564TIP3   OH216697   3.326   2.008   2.251 -0.1124 -0.4473  0.2168
 5564TIP3    H116698   3.370   2.048   2.326 -0.7564 -0.1375  0.4368
 5564TIP3    H216699   3.284   2.081   2.206  0.1777 -0.6448 -0.3929
 5565TIP3   OH216700   4.894   0.958   2.546 -0.2373 -0.2038  0.2466
 5565TIP3    H116701   4.979   1.000   2.562 -0.0394 -1.3113  2.1486
 5565TIP3    H216702   4.908   0.866   2.569 -2.2566 -0.1800  1.6226
 5566TIP3   OH216703   0.359   0.360   4.479  0.0894  0.4195  0.1590
 5566TIP3    H116704   0.288   0.315   4.524  0.9563  1.3989  2.6235
 5566TIP3    H216705   0.439   0.320   4.514  0.8251  2.3966  0.8334
 5567TIP3   OH216706   1.279   5.208   3.654 -0.0712 -0.8617 -0.8505
 5567TIP3    H116707   1.226   5.258   3.592  0.1299  1.3739  0.7140
 5567TIP3    H216708   1.217   5.178   3.720  0.1890 -0.5774 -0.4763
 5568TIP3   OH216709   3.321   2.363   3.885 -0.4005 -0.2065 -0.8526
 5568TIP3    H116710   3.252   2.389   3.945  0.9228 -1.2841  1.2287
 5568TIP3    H216711   3.401   2.399   3.923  0.6522 -2.1401 -1.1574
 5569TIP3   OH216712   2.906   5.005   3.392 -0.5868 -0.7589  0.3112
 5569TIP3    H116713   2.865   4.944   3.330  1.2804 -1.9100  0.1659
 5569TIP3    H216714   2.891   5.092   3.354 -2.5140 -1.1770  0.0683
 5570TIP3   OH216715   5.424   0.248   5.149  0.4584 -0.5949  0.1053
 5570TIP3    H116716   5.397   0.339   5.166 -0.0883 -1.1751  2.4241
 5570TIP3    H216717   5.468   0.253   5.064 -0.8120  1.5946 -0.4787
 5571TIP3   OH216718   0.116   1.816   0.120  0.1146 -0.3236 -0.4787
 5571TIP3    H116719   0.120   1.721   0.129  1.1368 -0.1355  1.2350
 5571TIP3    H216720   0.058   1.831   0.045 -1.0520 -2.2707  0.0009
 5572TIP3   OH216721   2.203   4.980   4.492 -0.6440  0.3361  0.0036
 5572TIP3    H116722   2.227   4.932   4.412 -0.3716  1.8864 -0.8758
 5572TIP3    H216723   2.117   4.946   4.515  1.0963 -3.2421  1.5429
 5573TIP3   OH216724   6.234   2.970   0.179  0.0800  0.0141 -0.4484
 5573TIP3    H116725   6.238   2.910   0.104  2.2968  0.2797 -0.5673
 5573TIP3    H216726   6.315   2.953   0.227  0.1856  2.0982  0.1293
 5574TIP3   OH216727   3.572   4.365   3.051 -0.0294  0.0559 -0.3656
 5574TIP3    H116728   3.559   4.426   2.978  0.0938 -0.9715 -1.2537
 5574TIP3    H216729   3.507   4.296   3.036 -0.9031  0.5090  1.2314
 5575TIP3   OH216730   0.444   3.526   3.049  0.0856 -0.0440  0.0163
 5575TIP3    H116731   0.399   3.607   3.024  0.7297  1.0227  2.1757
 5575TIP3    H216732   0.375   3.472   3.087  0.0694  0.4009  0.6262
 5576TIP3   OH216733   4.532   0.860   1.916 -0.0060 -0.0705 -0.2078
 5576TIP3    H116734   4.623   0.829   1.921 -0.0896 -0.0571  1.7426
 5576TIP3    H216735   4.481   0.779   1.908  0.1701 -0.0759 -1.3644
 5577TIP3   OH216736   4.913   1.250   4.333 -0.3188  0.4127 -0.1126
 5577TIP3    H116737   4.819   1.233   4.345 -0.9437  2.5549 -1.5170
 5577TIP3    H216738   4.922   1.343   4.353  1.7606 -0.0554  1.2102
 5578TIP3   OH216739   5.579   4.637   3.744 -0.1627  0.4811  0.0299
 5578TIP3    H116740   5.610   4.710   3.691 -1.4169  1.7900  1.0664
 5578TIP3    H216741   5.582   4.670   3.834  2.4886 -1.8938  0.9067
 5579TIP3   OH216742   4.914   0.799   3.782 -0.6234  0.5348  0.3150
 5579TIP3    H116743   4.976   0.731   3.808 -1.7087  0.2217  2.1502
 5579TIP3    H216744   4.846   0.752   3.733 -1.2555  0.3130  1.3879
 5580TIP3   OH216745   2.831   3.635   4.489 -0.1139  0.4368 -0.1754
 5580TIP3    H116746   2.851   3.594   4.573  0.0849 -1.9441 -1.3466
 5580TIP3    H216747   2.745   3.674   4.501 -1.6042 -2.8016  0.1557
 5581TIP3   OH216748   0.416   3.821   0.359 -0.3532 -0.6765  0.5661
 5581TIP3    H116749   0.444   3.732   0.380  0.7843 -0.5145 -0.1714
 5581TIP3    H216750   0.321   3.820   0.368 -0.3711 -2.0419  0.2744
 5582TIP3   OH216751   0.723   1.366   0.104 -0.3211 -0.4884  0.2046
 5582TIP3    H116752   0.731   1.435   0.038 -0.7904 -0.2551  0.3894
 5582TIP3    H216753   0.703   1.287   0.054  1.7293 -0.8083 -0.1445
 5583TIP3   OH216754   4.393   5.326   4.244 -0.4272  0.2587  0.3405
 5583TIP3    H116755   4.378   5.234   4.222 -2.3143  0.2616  1.5690
 5583TIP3    H216756   4.346   5.375   4.177 -1.9838  0.2937  1.4363
 5584TIP3   OH216757   3.424   0.613   3.760 -0.2832 -0.8099  0.4257
 5584TIP3    H116758   3.497   0.550   3.756 -1.4835 -2.1420 -1.5718
 5584TIP3    H216759   3.394   0.610   3.850  1.8171 -0.6085  1.1577
 5585TIP3   OH216760   5.479   5.843   2.344 -0.0300 -0.0504  0.3740
 5585TIP3    H116761   5.553   5.782   2.350 -0.4080 -0.5412  0.0274
 5585TIP3    H216762   5.476   5.885   2.430  1.0096  0.3850  0.2003
 5586TIP3   OH216763   4.368   0.154   4.418  0.0984  0.5877  0.5185
 5586TIP3    H116764   4.442   0.204   4.385  0.0148 -0.1095 -0.7654
 5586TIP3    H216765   4.397   0.063   4.414 -1.1261  0.2260 -0.8575
 5587TIP3   OH216766   0.639   1.560   5.271 -0.0687  0.3360 -0.0765
 5587TIP3    H116767   0.713   1.616   5.246  0.0352  0.1365 -0.2192
 5587TIP3    H216768   0.656   1.537   5.362 -1.2166  2.2762  0.6472
 5588TIP3   OH216769   3.582   5.040   2.839  0.0191  0.4200  0.4777
 5588TIP3    H116770   3.562   5.106   2.906 -0.2906  0.3724  0.4333
 5588TIP3    H216771   3.654   5.078   2.789  0.1137  0.5468  0.7081
 5589TIP3   OH216772   2.097   0.571   1.554  0.0044  0.0846 -0.8147
 5589TIP3    H116773   2.161   0.561   1.625  1.6208 -0.7310 -2.3378
 5589TIP3    H216774   2.043   0.492   1.559  0.6168 -0.3484 -0.9780
 5590TIP3   OH216775   2.505   5.433   3.927  0.6313  0.1116  0.5483
 5590TIP3    H116776   2.490   5.442   3.833  2.0433  1.2774  0.4209
 5590TIP3    H216777   2.430   5.476   3.968 -1.0171 -2.1436 -0.0110
 5591TIP3   OH216778   2.690   1.491   3.692  0.2336 -0.0233 -0.0790
 5591TIP3    H116779   2.670   1.530   3.777  1.0236 -1.3988  0.7692
 5591TIP3    H216780   2.632   1.535   3.630 -0.0557  1.2892  1.1058
 5592TIP3   OH216781   0.460   5.706   5.143 -0.0857 -0.2603 -0.2101
 5592TIP3    H116782   0.429   5.689   5.232 -2.6520  0.2266 -0.9616
 5592TIP3    H216783   0.385   5.684   5.087  1.2960 -0.0064 -2.2050
 5593TIP3   OH216784   5.159   0.304   4.308  0.2798  0.9211 -0.2433
 5593TIP3    H116785   5.147   0.211   4.328 -0.4983  1.0801  0.0176
 5593TIP3    H216786   5.239   0.328   4.356  2.0597 -0.2749 -2.4948
 5594TIP3   OH216787   3.586   0.965   2.184  0.0680  0.1598  0.5243
 5594TIP3    H116788   3.657   1.029   2.182  0.0158  0.1591 -3.2680
 5594TIP3    H216789   3.520   0.999   2.124 -1.4481 -1.8049  1.0071
 5595TIP3   OH216790   5.350   2.311   4.676  0.6366 -0.1151  0.1631
 5595TIP3    H116791   5.302   2.393   4.664  1.7470  0.5902  0.4839
 5595TIP3    H216792   5.347   2.269   4.590 -1.0280 -0.3548  0.3177
 5596TIP3   OH216793   5.022   0.208   5.152 -0.1878 -0.5082  0.3372
 5596TIP3    H116794   4.954   0.148   5.183 -0.1826 -0.2401  0.8786
 5596TIP3    H216795   5.077   0.224   5.229 -0.2586  0.2805  0.2323
 5597TIP3   OH216796   0.044   4.727   2.775 -0.1404 -0.3444 -0.6686
 5597TIP3    H116797   0.080   4.649   2.817 -0.2486  0.1521  0.3762
 5597TIP3    H216798   0.054   4.796   2.841 -0.3052  0.4580 -1.4716
 5598TIP3   OH216799   5.198   0.740   3.294  0.1840  0.2009 -0.1650
 5598TIP3    H116800   5.167   0.829   3.311  0.4575  0.2622  0.0052
 5598TIP3    H216801   5.202   0.698   3.380  0.2616  0.0880 -0.2233
 5599TIP3   OH216802   0.396   4.555   1.389  0.0467 -0.3336  0.4646
 5599TIP3    H116803   0.377   4.467   1.358 -0.0271 -0.1040 -0.1492
 5599TIP3    H216804   0.326   4.574   1.452  0.1444 -0.7652  0.7043
 5600TIP3   OH216805   4.209   3.197   4.394  0.0114  0.0421  0.2025
 5600TIP3    H116806   4.286   3.219   4.341 -0.6402  0.3729 -0.6060
 5600TIP3    H216807   4.151   3.272   4.384 -0.6405 -0.4345  0.4072
 5601TIP3   OH216808   2.070   5.178   5.135  0.5596 -0.2184 -0.0232
 5601TIP3    H116809   2.124   5.252   5.108  0.8942 -0.3826  0.2027
 5601TIP3    H216810   2.098   5.105   5.079  0.6454 -0.3315  0.1680
 5602TIP3   OH216811   2.900   0.466   5.282  0.3386 -0.4120 -0.4376
 5602TIP3    H116812   2.882   0.378   5.315  1.7564 -0.7229 -0.4834
 5602TIP3    H216813   2.929   0.452   5.192  1.1622  0.0473 -0.2462
 5603TIP3   OH216814   3.211   0.895   2.285 -0.0777 -0.7030  0.7679
 5603TIP3    H116815   3.242   0.872   2.373 -0.9550 -4.0436  0.2581
 5603TIP3    H216816   3.118   0.876   2.287 -0.3981  0.7239 -0.4313
 5604TIP3   OH216817   4.376   3.745   4.956 -0.1872 -0.1752 -0.4846
 5604TIP3    H116818   4.303   3.806   4.950  0.3541  0.4340 -0.9452
 5604TIP3    H216819   4.375   3.715   5.047 -1.1660 -0.3770 -0.5547
 5605TIP3   OH216820   5.559   0.311   3.611  0.3119  0.0037  0.3129
 5605TIP3    H116821   5.527   0.363   3.684  1.2629 -0.2057  0.8875
 5605TIP3    H216822   5.650   0.292   3.633  0.0823 -1.5947 -0.0573
 5606TIP3   OH216823   2.666   4.278   3.327 -0.2267  0.2673 -0.1623
 5606TIP3    H116824   2.744   4.242   3.286 -1.6813 -1.7356 -1.2063
 5606TIP3    H216825   2.648   4.359   3.279  0.9943  0.5600 -0.1333
 5607TIP3   OH216826   3.790   5.398   4.049  0.1061  0.4208 -0.0498
 5607TIP3    H116827   3.805   5.456   4.123 -0.8798  1.8635 -0.9464
 5607TIP3    H216828   3.865   5.412   3.991  0.1640  0.3594  0.0110
 5608TIP3   OH216829   3.047   4.765   3.871 -0.4814  0.1413  0.2875
 5608TIP3    H116830   2.996   4.785   3.792 -1.1776 -0.8848  0.4708
 5608TIP3    H216831   3.119   4.829   3.870 -0.8932  0.5969 -0.7930
 5609TIP3   OH216832   0.404   3.818   4.823  0.2489  0.1154  0.2809
 5609TIP3    H116833   0.392   3.724   4.813 -2.6347  0.4754  0.1707
 5609TIP3    H216834   0.446   3.828   4.909 -0.8093 -1.1547  0.9536
 5610TIP3   OH216835   3.680   1.885   1.705 -0.2417  0.2424  0.1185
 5610TIP3    H116836   3.714   1.859   1.790  2.9054  1.1405 -0.7927
 5610TIP3    H216837   3.675   1.804   1.655 -0.9709 -0.1173  0.7663
 5611TIP3   OH216838   0.228   1.391   5.179 -0.1950  0.0438 -0.9450
 5611TIP3    H116839   0.288   1.459   5.148  0.6208 -0.5859 -0.7756
 5611TIP3    H216840   0.238   1.319   5.116 -2.0829  0.5992 -1.9106
 5612TIP3   OH216841   3.014   4.613   3.293  0.1640  0.2785  0.1335
 5612TIP3    H116842   3.094   4.664   3.281  0.8711 -1.2196 -1.5721
 5612TIP3    H216843   3.044   4.530   3.330 -0.9690  0.9463  2.6981
 5613TIP3   OH216844   4.911   2.385   0.766  0.3368 -0.4107 -0.4230
 5613TIP3    H116845   4.983   2.448   0.763  0.0592 -0.1121 -1.0543
 5613TIP3    H216846   4.842   2.430   0.815  0.8418 -0.9834  0.8294
 5614TIP3   OH216847   3.788   0.722   2.885 -0.2883  0.0553 -0.2054
 5614TIP3    H116848   3.875   0.703   2.923 -0.0018  1.2128 -0.2643
 5614TIP3    H216849   3.752   0.636   2.865  0.3465 -0.5021  0.9501
 5615TIP3   OH216850   0.070   1.279   0.588 -0.2688 -0.0358  0.0199
 5615TIP3    H116851   0.148   1.242   0.548 -1.5163 -0.8728 -1.6713
 5615TIP3    H216852   0.057   1.362   0.543  0.1163  0.5122  0.8972
 5616TIP3   OH216853   4.547   1.381   3.024 -0.2717  0.4423 -0.0394
 5616TIP3    H116854   4.479   1.431   2.978  0.9065  1.1970 -0.9876
 5616TIP3    H216855   4.618   1.443   3.037  0.8028 -0.7028 -0.3076
 5617TIP3   OH216856   1.355   1.399   0.627 -0.1129 -0.1181 -0.1881
 5617TIP3    H116857   1.430   1.453   0.649  0.2364 -0.5775 -0.2419
 5617TIP3    H216858   1.279   1.458   0.634  0.5664  1.3127 -3.5936
 5618TIP3   OH216859   5.095   0.743   4.864 -0.6774 -0.1047  0.3707
 5618TIP3    H116860   5.163   0.756   4.797 -0.3507 -1.0132  0.5183
 5618TIP3    H216861   5.125   0.667   4.913 -1.7495 -0.4323  0.5215
 5619TIP3   OH216862   4.230   5.447   3.692  0.5537 -0.0755 -0.8449
 5619TIP3    H116863   4.289   5.425   3.764 -0.3531 -1.3513 -0.4666
 5619TIP3    H216864   4.269   5.406   3.615  0.8366  0.1762 -0.8351
 5620TIP3   OH216865   0.627   0.797   4.829  0.1570  0.3683  0.0031
 5620TIP3    H116866   0.556   0.737   4.853  0.0483  1.3085  2.1522
 5620TIP3    H216867   0.690   0.741   4.782 -0.5307 -1.1507  0.8385
 5621TIP3   OH216868   5.047   0.353   3.166  0.4914  0.1807 -0.2820
 5621TIP3    H116869   4.969   0.307   3.134 -0.9730 -0.2725  3.6737
 5621TIP3    H216870   5.119   0.292   3.153 -0.6141 -1.2812  0.3614
 5622TIP3   OH216871   1.556   5.159   3.827 -0.2843 -0.7399 -0.1883
 5622TIP3    H116872   1.464   5.171   3.806 -0.3596 -1.0817 -0.0642
 5622TIP3    H216873   1.592   5.248   3.831 -0.9074 -0.5267  1.1272
 5623TIP3   OH216874   6.134   1.797   3.556 -0.5291 -0.4061  0.1851
 5623TIP3    H116875   6.105   1.888   3.551  2.3753  0.5172 -0.7410
 5623TIP3    H216876   6.177   1.790   3.641 -0.2141 -0.7665 -0.0044
 5624TIP3   OH216877   2.262   5.086   2.999  0.1074 -0.1139  0.2553
 5624TIP3    H116878   2.286   5.043   2.917  1.4771  0.2144  0.4645
 5624TIP3    H216879   2.307   5.036   3.066 -0.9968 -0.3689  0.8200
 5625TIP3   OH216880   3.190   1.176   5.258 -0.1024 -0.1957 -0.1940
 5625TIP3    H116881   3.180   1.262   5.215 -1.7199 -0.6440 -0.7644
 5625TIP3    H216882   3.283   1.170   5.277  0.2331  1.1775 -1.2519
 5626TIP3   OH216883   2.203   0.497   1.310  0.1870  0.0688 -0.2776
 5626TIP3    H116884   2.144   0.502   1.385  0.9869 -0.0273  0.3558
 5626TIP3    H216885   2.220   0.403   1.299 -0.0085  0.0738 -0.6473
 5627TIP3   OH216886   6.141   0.096   3.832 -0.1906  0.1033 -0.3889
 5627TIP3    H116887   6.131   0.156   3.758 -0.9312 -0.8309 -1.0460
 5627TIP3    H216888   6.179   0.017   3.794  1.6874  0.4861  0.6406
 5628TIP3   OH216889   4.304   0.387   3.516 -0.4293 -0.1955  0.1820
 5628TIP3    H116890   4.336   0.358   3.601  0.5465  1.2295  0.3298
 5628TIP3    H216891   4.343   0.474   3.505 -0.8450 -0.2172 -1.5519
 5629TIP3   OH216892   1.747   5.430   2.728  0.2828 -0.0883 -0.5301
 5629TIP3    H116893   1.748   5.494   2.657  1.2419  0.3152 -0.1652
 5629TIP3    H216894   1.832   5.440   2.770  0.1889 -1.1656 -0.0706
 5630TIP3   OH216895   6.201   2.860   1.830  0.4460 -0.2616 -0.0161
 5630TIP3    H116896   6.292   2.867   1.858  0.2065  1.2442  0.4439
 5630TIP3    H216897   6.151   2.859   1.911 -0.0398  0.5909 -0.2961
 5631TIP3   OH216898   3.184   1.565   4.253  0.6653  0.0761 -0.6182
 5631TIP3    H116899   3.232   1.569   4.336  0.1162 -1.1451 -0.2383
 5631TIP3    H216900   3.233   1.623   4.195  2.6729 -1.2010 -0.2648
 5632TIP3   OH216901   5.809   4.092   4.245  0.4100 -0.5228 -0.4271
 5632TIP3    H116902   5.897   4.116   4.217  0.2013  0.7356 -0.0460
 5632TIP3    H216903   5.793   4.146   4.323  0.1124 -2.2695  0.7402
 5633TIP3   OH216904   1.423   2.608   5.115 -0.1076 -0.5848  0.4245
 5633TIP3    H116905   1.405   2.684   5.061 -1.0856 -0.0413  1.4835
 5633TIP3    H216906   1.338   2.567   5.128  0.0369 -0.4413  1.9229
 5634TIP3   OH216907   4.870   0.753   3.267  0.1367  0.8013 -0.0170
 5634TIP3    H116908   4.897   0.756   3.175 -1.5248  0.9335 -0.5120
 5634TIP3    H216909   4.844   0.663   3.282  1.8861  0.3984  0.7886
 5635TIP3   OH216910   5.535   1.682   4.419 -0.4974  0.0726  0.0075
 5635TIP3    H116911   5.598   1.611   4.408 -1.1642 -0.3334 -1.3649
 5635TIP3    H216912   5.538   1.703   4.512 -0.3013 -1.7799  0.4475
 5636TIP3   OH216913   0.303   3.537   1.220 -0.6098  0.0243 -0.1710
 5636TIP3    H116914   0.395   3.527   1.192 -1.0896 -0.4094 -1.6733
 5636TIP3    H216915   0.301   3.504   1.309  1.1475  2.1057  0.6800
 5637TIP3   OH216916   3.834   1.085   3.401  0.4735 -0.2753 -0.2222
 5637TIP3    H116917   3.836   1.150   3.330 -0.5098 -0.3641 -0.3319
 5637TIP3    H216918   3.920   1.094   3.443  0.7983  0.2709 -0.9776
 5638TIP3   OH216919   2.490   0.039   4.615 -0.0051  0.3493 -0.1203
 5638TIP3    H116920   2.419   0.089   4.575 -0.3322 -0.7270 -0.9217
 5638TIP3    H216921   2.450  -0.046   4.637  0.8846 -0.0511 -0.0285
 5639TIP3   OH216922   2.353   3.056   4.906  0.8658 -0.1650 -0.0038
 5639TIP3    H116923   2.285   3.107   4.950  1.4075  1.2024 -0.7120
 5639TIP3    H216924   2.384   2.994   4.972 -0.2386  0.0005  0.6778
 5640TIP3   OH216925   5.429   0.233   1.477  0.0440  0.3450 -0.6206
 5640TIP3    H116926   5.515   0.195   1.460 -0.4138 -0.9214 -0.1260
 5640TIP3    H216927   5.401   0.195   1.560 -2.1281 -1.3423 -2.0491
 5641TIP3   OH216928   2.310   0.275   1.194  0.5574 -0.3268  0.4311
 5641TIP3    H116929   2.382   0.218   1.221  0.1408 -0.5247  1.1486
 5641TIP3    H216930   2.260   0.223   1.131  1.6013  0.1795 -0.8361
 5642TIP3   OH216931   1.363   1.273   4.726  0.3939  0.4758  0.0473
 5642TIP3    H116932   1.393   1.209   4.791 -1.2906  0.9074  1.2941
 5642TIP3    H216933   1.377   1.230   4.642  0.0842 -1.2185  0.8334
 5643TIP3   OH216934   0.092   0.649   2.013  0.4248  0.1939  0.7547
 5643TIP3    H116935   0.147   0.611   2.082 -0.1981 -0.4858  0.8870
 5643TIP3    H216936   0.133   0.733   1.992  0.4517  0.5466  2.1710
 5644TIP3   OH216937   1.294   2.745   1.225 -0.0760  0.1396 -0.0288
 5644TIP3    H116938   1.358   2.681   1.195 -1.6788 -1.2530 -0.5391
 5644TIP3    H216939   1.241   2.698   1.289 -1.8045  0.6810 -1.0225
 5645TIP3   OH216940   6.027   1.777   4.942 -0.0687 -0.3815 -0.0607
 5645TIP3    H116941   5.937   1.746   4.944  0.1059 -0.8795  0.1658
 5645TIP3    H216942   6.057   1.768   5.032 -0.7601  2.6531  0.5373
 5646TIP3   OH216943   3.162   0.612   4.815 -0.2573  0.4917 -0.0208
 5646TIP3    H116944   3.102   0.684   4.833 -1.7808 -0.3078 -1.6468
 5646TIP3    H216945   3.171   0.611   4.720  1.4246 -0.1366  0.1318
 5647TIP3   OH216946   2.182   5.815   2.389 -0.1955  0.7371 -0.0209
 5647TIP3    H116947   2.259   5.775   2.429 -1.1073  0.2692  1.3366
 5647TIP3    H216948   2.171   5.769   2.306 -0.3653 -0.8450  0.8450
 5648TIP3   OH216949   5.246   1.645   3.530 -0.3424 -0.1832 -0.5722
 5648TIP3    H116950   5.188   1.677   3.461 -1.0780 -2.0726 -0.8876
 5648TIP3    H216951   5.279   1.724   3.573 -0.3420  1.0000 -2.6899
 5649TIP3   OH216952   3.162   0.544   1.105  0.4353  0.4106 -0.2189
 5649TIP3    H116953   3.213   0.590   1.172 -0.5804  0.2030  0.7227
 5649TIP3    H216954   3.082   0.517   1.151 -0.4871  0.6742 -1.6526
 5650TIP3   OH216955   1.167   3.815   1.070 -0.2636 -0.1140 -0.0429
 5650TIP3    H116956   1.167   3.890   1.129  1.9578 -0.5582  0.5567
 5650TIP3    H216957   1.218   3.844   0.995  0.7941 -1.0766  0.2920
 5651TIP3   OH216958   5.806   0.599   3.698  0.4175  0.4567  0.2636
 5651TIP3    H116959   5.869   0.609   3.627 -1.3124 -0.3419 -1.4292
 5651TIP3    H216960   5.758   0.682   3.700 -0.4816 -0.0444 -0.4431
 5652TIP3   OH216961   3.468   0.840   4.397 -0.4183 -0.2044 -0.0914
 5652TIP3    H116962   3.555   0.806   4.376 -0.3630  0.8439 -1.6503
 5652TIP3    H216963   3.411   0.807   4.327 -1.0459  0.0099  0.3128
 5653TIP3   OH216964   6.189   1.224   4.618  1.0596 -0.0742 -0.2853
 5653TIP3    H116965   6.213   1.316   4.602  1.2610 -0.4183 -2.0879
 5653TIP3    H216966   6.249   1.174   4.564  0.6546 -1.2622  0.3518
 5654TIP3   OH216967   2.769   1.030   4.863  0.1919 -0.3850 -0.1130
 5654TIP3    H116968   2.679   1.018   4.894 -0.1990  0.4943 -0.8902
 5654TIP3    H216969   2.803   1.101   4.918  0.6153 -1.1237  0.5893
 5655TIP3   OH216970   0.245   1.820   0.391 -0.3983  0.1228  0.1998
 5655TIP3    H116971   0.252   1.849   0.482  0.2101 -0.0080  0.1996
 5655TIP3    H216972   0.165   1.862   0.358 -0.9803 -0.3737  0.9857
 5656TIP3   OH216973   0.302   3.993   2.294 -0.5468  0.0572 -0.3693
 5656TIP3    H116974   0.209   4.016   2.304 -0.8548 -1.2103 -0.2341
 5656TIP3    H216975   0.349   4.068   2.332 -1.5430  0.0263  0.9802
 5657TIP3   OH216976   0.792   4.629   0.823  0.4950 -0.0051 -0.0902
 5657TIP3    H116977   0.723   4.637   0.757 -1.8845  0.5287  2.3535
 5657TIP3    H216978   0.816   4.720   0.844  1.8079 -0.1857 -0.7697
 5658TIP3   OH216979   1.985   0.056   3.652 -0.2060 -0.1845 -0.4795
 5658TIP3    H116980   1.924  -0.001   3.605 -1.6154  1.4771 -0.7270
 5658TIP3    H216981   2.029   0.106   3.584  0.2533 -0.2218 -0.2120
 5659TIP3   OH216982   5.100   3.075   1.929 -0.1284 -0.2977  0.8626
 5659TIP3    H116983   5.143   3.053   2.012 -3.3124  1.1564  2.9840
 5659TIP3    H216984   5.026   3.015   1.925 -1.3269  1.2099  0.2162
 5660TIP3   OH216985   5.037   1.848   3.656  0.6176 -0.0001  0.1737
 5660TIP3    H116986   5.117   1.892   3.628  1.1260  0.5501  2.4325
 5660TIP3    H216987   5.009   1.896   3.733 -1.4607 -0.6970 -0.1314
 5661TIP3   OH216988   5.736   3.983   0.686  0.0392  0.3264 -0.7714
 5661TIP3    H116989   5.794   3.973   0.762 -1.8501 -2.1812  0.4368
 5661TIP3    H216990   5.721   3.893   0.656 -1.5839  1.0896 -2.2881
 5662TIP3   OH216991   4.389   1.683   4.037 -0.0972 -0.2558  0.0393
 5662TIP3    H116992   4.442   1.604   4.037  1.4809  0.7918 -0.0299
 5662TIP3    H216993   4.349   1.685   3.949  0.3973 -0.6022 -0.1941
 5663TIP3   OH216994   1.917   1.033   4.582 -0.4820 -0.1384  0.0483
 5663TIP3    H116995   1.836   1.078   4.608 -1.1517 -1.1205 -0.2924
 5663TIP3    H216996   1.892   0.981   4.505  0.8636  0.7820 -1.0460
 5664TIP3   OH216997   2.416   5.142   4.452  0.6273  0.8948 -0.0539
 5664TIP3    H116998   2.481   5.083   4.492  0.0289  1.2270  1.4694
 5664TIP3    H216999   2.336   5.090   4.448 -0.1445  1.8557  2.1393
 5665TIP3   OH217000   5.454   0.382   4.314  0.4930  0.1519 -0.1557
 5665TIP3    H117001   5.472   0.470   4.345 -0.5465  0.3930 -0.2476
 5665TIP3    H217002   5.451   0.389   4.218 -2.2804  0.5356 -0.0657
 5666TIP3   OH217003   3.981   0.120   5.298  0.4876  0.0294  0.3197
 5666TIP3    H117004   4.000   0.040   5.347 -2.2998 -1.8146 -1.4642
 5666TIP3    H217005   3.948   0.089   5.214 -1.8229  3.0486  0.0394
 5667TIP3   OH217006   4.330   5.698   2.098 -0.1467 -0.2922  0.4456
 5667TIP3    H117007   4.388   5.742   2.035 -0.1028 -1.0736 -0.0610
 5667TIP3    H217008   4.373   5.710   2.182 -0.5892  1.4431  0.4636
 5668TIP3   OH217009   5.919   0.230   2.725 -0.1666  0.1468 -0.7428
 5668TIP3    H117010   5.827   0.251   2.738  0.0180  0.2884  0.4192
 5668TIP3    H217011   5.921   0.136   2.707 -0.2508 -0.6437  2.9428
 5669TIP3   OH217012   2.027   5.567   3.032  0.3764  0.0361 -0.3771
 5669TIP3    H117013   2.045   5.474   3.022  0.8996 -0.0802  1.5318
 5669TIP3    H217014   1.933   5.571   3.052  0.5670 -0.1584  0.5627
 5670TIP3   OH217015   0.415   0.999   1.000 -0.0299  0.7623 -0.8615
 5670TIP3    H117016   0.374   0.914   1.015  0.1270  0.6439 -1.0898
 5670TIP3    H217017   0.468   1.014   1.079  3.1626 -1.2435 -2.4836
 5671TIP3   OH217018   6.414   1.770   4.128 -0.3119  0.3362  0.0358
 5671TIP3    H117019   6.338   1.799   4.078 -0.5944 -1.5149 -0.6622
 5671TIP3    H217020   6.380   1.746   4.214 -0.5327 -0.4544 -0.2637
 5672TIP3   OH217021   3.668   5.863   4.601  0.0430 -0.2024  0.4070
 5672TIP3    H117022   3.660   5.834   4.692 -0.7606  0.9129  0.6969
 5672TIP3    H217023   3.717   5.793   4.558 -1.4579 -1.7752  1.1958
 5673TIP3   OH217024   4.153   0.987   3.186 -0.5124  0.3974  0.1965
 5673TIP3    H117025   4.204   1.064   3.159  0.7187 -0.1678  0.8859
 5673TIP3    H217026   4.110   0.958   3.106  0.3122  0.8459 -0.4213
 5674TIP3   OH217027   1.854   4.688   1.364 -0.3240 -0.5881 -0.4322
 5674TIP3    H117028   1.896   4.602   1.359 -1.4195 -1.1574 -0.1402
 5674TIP3    H217029   1.765   4.672   1.332 -0.5639  0.4183 -0.2606
 5675TIP3   OH217030   5.002   1.512   4.016 -0.3705  0.4881  0.7277
 5675TIP3    H117031   5.078   1.567   4.035  0.5859  0.1783 -2.0214
 5675TIP3    H217032   4.973   1.541   3.929 -3.3466  0.5298  1.6874
 5676TIP3   OH217033   5.508   1.686   4.158  0.0881  0.3910  0.0261
 5676TIP3    H117034   5.517   1.665   4.251 -0.9156 -2.2137 -0.4287
 5676TIP3    H217035   5.584   1.741   4.139  2.1200 -1.7556  1.6257
 5677TIP3   OH217036   0.581   5.225   0.671  0.1802  0.2381  0.2859
 5677TIP3    H117037   0.533   5.306   0.686 -1.5723 -1.1352  2.3290
 5677TIP3    H217038   0.586   5.218   0.575 -1.2051  1.8501  0.0665
 5678TIP3   OH217039   2.277   2.261   0.369  0.5836  0.6340  0.1636
 5678TIP3    H117040   2.230   2.298   0.294 -1.7433  0.4731  1.4846
 5678TIP3    H217041   2.238   2.175   0.381  2.6830 -0.3570  0.0525
 5679TIP3   OH217042   2.328   0.380   2.893  0.2580  0.2275  0.9205
 5679TIP3    H117043   2.359   0.470   2.905  0.0077  0.6705 -1.5130
 5679TIP3    H217044   2.241   0.390   2.855  1.0702 -1.0369 -1.3357
 5680TIP3   OH217045   2.119   0.383   2.729 -0.5770  0.5481 -0.1738
 5680TIP3    H117046   2.085   0.458   2.681 -1.2527  0.7646  0.6265
 5680TIP3    H217047   2.085   0.307   2.681 -2.3488  0.7612  0.6931
 5681TIP3   OH217048   5.872   6.032   4.594 -0.5735 -0.0684 -0.6528
 5681TIP3    H117049   5.967   6.018   4.598 -0.6551 -0.3645  0.2192
 5681TIP3    H217050   5.853   6.093   4.664 -1.1588 -0.7208 -0.2358
 5682TIP3   OH217051   1.294   0.909   0.940  0.0223 -0.1189 -0.4055
 5682TIP3    H117052   1.215   0.959   0.965 -0.4542 -1.0156 -0.0961
 5682TIP3    H217053   1.339   0.893   1.023 -0.4095 -1.1735 -0.3712
 5683TIP3   OH217054   5.235   1.714   4.028 -0.0374 -0.0940 -0.7108
 5683TIP3    H117055   5.247   1.776   3.956 -1.2220  0.8861 -0.0806
 5683TIP3    H217056   5.313   1.726   4.083 -1.2106  2.3871  0.5221
 5684TIP3   OH217057   2.525   5.716   0.533  0.3265 -0.2495  0.3384
 5684TIP3    H117058   2.501   5.807   0.555 -1.4972 -0.6962  0.3014
 5684TIP3    H217059   2.620   5.714   0.541  0.4430  1.7910 -0.0962
 5685TIP3   OH217060   0.888   3.476   3.990  0.0500  0.0241 -0.8607
 5685TIP3    H117061   0.905   3.382   3.982  0.3503  0.0196 -0.2149
 5685TIP3    H217062   0.959   3.517   3.941  2.0552  0.0076  1.9014
 5686TIP3   OH217063   0.922   3.966   0.341 -0.0546 -0.1655 -0.3655
 5686TIP3    H117064   0.884   4.054   0.333  0.2345  0.0604  0.5824
 5686TIP3    H217065   0.938   3.938   0.251 -0.6575  0.5331 -0.6967
 5687TIP3   OH217066   2.964   4.658   2.845 -0.0267  0.1524 -0.6054
 5687TIP3    H117067   2.892   4.600   2.818  0.7854 -1.9524  1.5284
 5687TIP3    H217068   2.923   4.720   2.905 -0.0869 -1.1748  0.7705
 5688TIP3   OH217069   4.093   4.461   4.654 -0.2494 -0.3335 -0.7203
 5688TIP3    H117070   4.043   4.404   4.595  0.2750 -0.3630 -1.1475
 5688TIP3    H217071   4.035   4.534   4.672 -0.5628 -0.5218 -0.9593
 5689TIP3   OH217072   3.964   3.807   4.411  0.0581 -0.0211  0.2451
 5689TIP3    H117073   3.985   3.788   4.320 -0.8197 -0.6286  0.1609
 5689TIP3    H217074   4.049   3.820   4.454  0.5889 -2.1620 -0.1384
 5690TIP3   OH217075   6.239   0.233   5.269  0.5004 -0.6080 -0.1502
 5690TIP3    H117076   6.316   0.230   5.213  0.0700 -1.1706 -0.7201
 5690TIP3    H217077   6.268   0.198   5.353  1.5298  1.6016  0.4592
 5691TIP3   OH217078   0.844   4.865   2.838  0.6008 -0.3104 -0.4672
 5691TIP3    H117079   0.917   4.802   2.834  1.3115  0.4297  0.4185
 5691TIP3    H217080   0.770   4.814   2.869  1.0711 -0.8127 -0.1558
 5692TIP3   OH217081   4.861   0.311   2.820 -0.1918 -0.1831 -0.2484
 5692TIP3    H117082   4.768   0.304   2.800 -0.7826 -1.1480  2.6398
 5692TIP3    H217083   4.869   0.392   2.870  0.4609 -0.3511 -0.0789
 5693TIP3   OH217084   1.442   1.441   1.148  0.1991  0.6887  0.3563
 5693TIP3    H117085   1.503   1.403   1.085 -1.6663 -0.8575 -0.5796
 5693TIP3    H217086   1.412   1.522   1.108 -0.9905 -0.2953 -0.7821
 5694TIP3   OH217087   2.666   5.346   3.310 -0.2576  0.4465 -0.3893
 5694TIP3    H117088   2.698   5.332   3.221 -0.3236  3.2688 -0.9124
 5694TIP3    H217089   2.571   5.333   3.304 -0.0344 -1.3609 -0.2671
 5695TIP3   OH217090   4.572   0.774   4.206 -0.3403  0.1270  0.0045
 5695TIP3    H117091   4.571   0.768   4.110 -1.2945 -1.6839  0.1080
 5695TIP3    H217092   4.578   0.683   4.236 -0.6972  0.6326  1.6647
 5696TIP3   OH217093   3.406   0.688   2.589 -0.0473  0.7411  0.1447
 5696TIP3    H117094   3.438   0.769   2.551 -2.6511  0.9305 -1.8267
 5696TIP3    H217095   3.378   0.635   2.514 -2.0288 -0.3489  1.5884
 5697TIP3   OH217096   1.432   5.032   3.195 -0.2245  0.0017  0.2562
 5697TIP3    H117097   1.403   4.943   3.215  1.5793 -0.8274 -0.7241
 5697TIP3    H217098   1.376   5.060   3.123 -3.1009  0.9872  2.7434
 5698TIP3   OH217099   4.654   0.226   5.133 -0.6016 -0.1449  0.0010
 5698TIP3    H117100   4.710   0.190   5.203  1.9258 -0.1899 -1.9799
 5698TIP3    H217101   4.610   0.150   5.096 -1.7607 -0.1508  1.3431
 5699TIP3   OH217102   1.070   1.896   0.949  0.0662  0.2632  0.2991
 5699TIP3    H117103   0.985   1.858   0.975 -1.3427  3.2933  0.3426
 5699TIP3    H217104   1.063   1.905   0.854 -0.0328  1.3953  0.4161
 5700TIP3   OH217105   5.140   0.624   3.835  0.3762 -0.3334  0.1870
 5700TIP3    H117106   5.143   0.541   3.882 -0.8439 -0.6130 -0.2033
 5700TIP3    H217107   5.209   0.678   3.876  1.0610 -1.4683  0.5443
 5701TIP3   OH217108   5.119   5.796   2.779  0.2040  0.7069 -0.4313
 5701TIP3    H117109   5.027   5.772   2.793  0.5066 -0.2610 -0.0692
 5701TIP3    H217110   5.127   5.883   2.818 -1.0853  1.7438 -2.3990
 5702TIP3   OH217111   6.028   1.117   2.694  0.0729  0.5316 -0.3914
 5702TIP3    H117112   6.062   1.179   2.758  1.2607 -0.5054 -0.0089
 5702TIP3    H217113   6.074   1.138   2.613  2.5896 -1.6559  0.4144
 5703TIP3   OH217114   3.905   3.987   2.360  0.3557 -0.1604  0.2833
 5703TIP3    H117115   3.970   3.921   2.384  0.8133  0.2758  0.2497
 5703TIP3    H217116   3.956   4.067   2.347 -0.2694  0.3270  0.8521
 5704TIP3   OH217117   5.605   0.725   4.019 -0.1788  0.3204  0.3578
 5704TIP3    H117118   5.637   0.798   3.966 -0.7323 -0.2262 -0.7561
 5704TIP3    H217119   5.618   0.648   3.964  2.8719 -0.8310  2.5468
 5705TIP3   OH217120   6.140   0.137   2.435 -0.2547  0.1042  0.5677
 5705TIP3    H117121   6.159   0.228   2.456 -0.1849  0.0145  0.9032
 5705TIP3    H217122   6.045   0.130   2.440 -0.3649  0.5090 -0.9238
 5706TIP3   OH217123   4.348   2.335   2.882  0.5925  0.2584 -0.1837
 5706TIP3    H117124   4.437   2.350   2.916 -0.7264  0.9979  3.1827
 5706TIP3    H217125   4.306   2.283   2.951 -2.8029  3.3660  0.1898
 5707TIP3   OH217126   1.463   1.162   3.099 -0.0511 -0.1457 -0.4600
 5707TIP3    H117127   1.458   1.217   3.020  3.0567 -0.8639 -1.2413
 5707TIP3    H217128   1.508   1.217   3.163 -1.3601 -0.0491  0.3806
 5708TIP3   OH217129   4.148   4.397   2.132  0.4510 -0.4464 -0.3214
 5708TIP3    H117130   4.226   4.450   2.113  0.4288 -0.7340 -1.2293
 5708TIP3    H217131   4.182   4.315   2.167  0.4470  0.6904  2.4714
 5709TIP3   OH217132   6.384   0.759   3.339  0.1915  0.1947  0.2688
 5709TIP3    H117133   6.373   0.672   3.378  1.9561 -0.0009  0.3939
 5709TIP3    H217134   6.295   0.792   3.328 -0.4752 -1.3256  0.9057
 5710TIP3   OH217135   4.958   1.290   2.751  0.1786 -0.0476 -0.5592
 5710TIP3    H117136   4.915   1.222   2.802  1.1787  0.2412  0.6680
 5710TIP3    H217137   5.024   1.244   2.700  0.5140 -0.0680 -0.1079
 5711TIP3   OH217138   0.502   0.866   3.578  0.1592  0.2951  0.1361
 5711TIP3    H117139   0.423   0.880   3.630  0.5667  0.8754  0.6194
 5711TIP3    H217140   0.547   0.951   3.581 -0.0456  0.4722 -1.5656
 5712TIP3   OH217141   6.129   0.384   2.043 -0.3211  0.5016  0.4343
 5712TIP3    H117142   6.196   0.447   2.018 -0.4798  0.2642 -0.6196
 5712TIP3    H217143   6.076   0.430   2.108  0.1222  1.1320  0.3503
 5713TIP3   OH217144   3.373   0.061   4.358 -0.0523  0.0780  0.1735
 5713TIP3    H117145   3.332   0.108   4.285 -2.4925 -1.1247  0.6967
 5713TIP3    H217146   3.371   0.123   4.431  1.0070  0.7604 -0.3749
 5714TIP3   OH217147   5.956   0.581   3.470 -0.0626  1.1336  0.1608
 5714TIP3    H117148   6.049   0.562   3.484 -0.5301 -0.6203  1.1100
 5714TIP3    H217149   5.935   0.539   3.386 -0.4337 -0.2119  0.9013
 5715TIP3   OH217150   3.294   4.058   3.456 -0.0445  0.7312  0.4594
 5715TIP3    H117151   3.363   4.080   3.392  2.1722  1.0868  2.8954
 5715TIP3    H217152   3.291   3.963   3.456 -0.9690  0.7450 -1.0985
 5716TIP3   OH217153   2.126   4.291   2.830 -0.0054 -0.1882 -0.6609
 5716TIP3    H117154   2.173   4.263   2.751 -0.0980  0.1571 -0.8415
 5716TIP3    H217155   2.082   4.372   2.803  0.6637  0.4041 -0.0117
 5717TIP3   OH217156   6.200   0.703   2.552  0.1937 -0.3303  0.1718
 5717TIP3    H117157   6.291   0.697   2.583  0.4292 -0.5157 -0.5462
 5717TIP3    H217158   6.149   0.719   2.632  0.7236 -1.4194  0.7387
 5718TIP3   OH217159   6.368   1.766   3.408 -0.2338 -0.2743 -0.1690
 5718TIP3    H117160   6.343   1.814   3.329  2.7765  1.8801  0.1187
 5718TIP3    H217161   6.286   1.756   3.457 -1.6208  0.9461 -2.1900
 5719TIP3   OH217162   6.034   2.206   4.379  0.7502 -0.6429 -0.8609
 5719TIP3    H117163   6.096   2.180   4.446 -0.5981 -3.3439 -0.5706
 5719TIP3    H217164   5.961   2.244   4.427  0.6909 -0.6487 -0.9458
 5720TIP3   OH217165   5.600   5.652   3.250  0.4570  0.1883  0.2930
 5720TIP3    H117166   5.687   5.670   3.286  0.1434  2.8498 -0.2019
 5720TIP3    H217167   5.593   5.707   3.172 -1.8640  0.4935  0.6481
 5721TIP3   OH217168   3.317   6.077   2.957  0.3221  0.4264 -0.6594
 5721TIP3    H117169   3.341   6.029   3.037 -0.6998  1.0266  0.0231
 5721TIP3    H217170   3.315   6.010   2.889  1.1387 -0.1101 -0.1784
 5722TIP3   OH217171   5.479   1.290   4.547  0.3209  0.1749 -0.1426
 5722TIP3    H117172   5.414   1.360   4.546 -0.8347 -0.8520  1.3244
 5722TIP3    H217173   5.484   1.261   4.456  0.1286  1.5365 -0.5926
 5723TIP3   OH217174   5.644   1.167   2.625 -0.0929  0.6520 -0.3442
 5723TIP3    H117175   5.681   1.101   2.565 -0.0753  0.9615 -0.6721
 5723TIP3    H217176   5.581   1.118   2.678  0.6119  0.1691  0.0548
 5724TIP3   OH217177   6.201   0.776   0.922 -0.3616 -0.7714  0.1141
 5724TIP3    H117178   6.198   0.871   0.928 -0.6135 -0.8208  0.8874
 5724TIP3    H217179   6.276   0.757   0.865 -0.2501 -0.1157  0.0471
 5725TIP3   OH217180   3.051   2.688   0.220 -0.2474  0.0875 -0.0449
 5725TIP3    H117181   3.108   2.742   0.274 -0.8949  0.6646  0.0676
 5725TIP3    H217182   3.095   2.684   0.135 -0.1160  0.6542 -0.0041
 5726TIP3   OH217183   0.838   3.404   0.571  0.0582  0.0759  0.2797
 5726TIP3    H117184   0.902   3.336   0.593 -0.7649 -0.7617  0.1656
 5726TIP3    H217185   0.856   3.425   0.479  1.3684  1.2008  0.7810
 5727TIP3   OH217186   5.428   1.553   3.091  0.0579 -0.0174  0.1531
 5727TIP3    H117187   5.396   1.521   3.007 -0.7785  2.0472 -0.3451
 5727TIP3    H217188   5.354   1.542   3.150  0.6486 -1.4754  0.6441
 5728TIP3   OH217189   4.132   5.721   3.628 -0.0702 -0.1258 -0.0477
 5728TIP3    H117190   4.041   5.695   3.641 -0.1684  0.2748  0.0846
 5728TIP3    H217191   4.181   5.672   3.694 -0.2324 -0.1001  0.0910
 5729TIP3   OH217192   5.831   5.010   4.787 -0.2226  0.5637 -0.2727
 5729TIP3    H117193   5.831   4.923   4.829 -0.8332  1.2969  1.3052
 5729TIP3    H217194   5.903   5.056   4.830 -1.2154  1.5174  0.3892
 5730TIP3   OH217195   2.202   3.671   0.309  0.2781 -0.2238  0.6473
 5730TIP3    H117196   2.132   3.711   0.361 -0.3360  1.8167 -1.6553
 5730TIP3    H217197   2.271   3.737   0.308 -0.1941  0.2902 -2.0408
 5731TIP3   OH217198   0.751   0.888   3.798  0.4845 -0.3232 -0.0252
 5731TIP3    H117199   0.772   0.896   3.705  0.5869  0.3202  0.0537
 5731TIP3    H217200   0.823   0.837   3.835  0.6053 -0.3049 -0.2359
 5732TIP3   OH217201   6.361   0.913   0.147  0.5227 -0.0648  0.5387
 5732TIP3    H117202   6.422   0.917   0.220  1.5680 -0.1953 -0.3258
 5732TIP3    H217203   6.278   0.887   0.187  1.4276 -1.5863  1.4785
 5733TIP3   OH217204   3.831   3.482   1.643  0.2432  0.5237  0.0175
 5733TIP3    H117205   3.901   3.525   1.593  0.9921  0.2962  0.8754
 5733TIP3    H217206   3.835   3.390   1.616 -0.1803  0.6352 -0.4459
 5734TIP3   OH217207   5.997   3.824   0.204 -0.1850 -0.1865 -0.3693
 5734TIP3    H117208   6.020   3.784   0.120  1.3850 -0.5499  0.2152
 5734TIP3    H217209   6.057   3.785   0.267  2.2099  3.8649  0.0420
 5735TIP3   OH217210   2.656   5.565   3.082 -0.1022  0.8015  0.0570
 5735TIP3    H117211   2.704   5.640   3.047 -1.1410  1.6341  0.4069
 5735TIP3    H217212   2.715   5.491   3.069  1.2051  1.7799  0.3318
 5736TIP3   OH217213   2.231   2.235   1.651 -0.0822  0.3035 -0.6502
 5736TIP3    H117214   2.310   2.261   1.698 -0.3406  1.4126 -0.8238
 5736TIP3    H217215   2.171   2.206   1.720 -0.3676  1.6765 -0.3098
 5737TIP3   OH217216   5.165   2.437   3.271 -0.0779  0.3682  0.0880
 5737TIP3    H117217   5.112   2.516   3.272 -0.6905 -0.0020 -1.5202
 5737TIP3    H217218   5.107   2.370   3.235  0.9078 -0.4760  0.0501
 5738TIP3   OH217219   0.989   1.262   4.476  0.3084  0.2845  0.3881
 5738TIP3    H117220   1.077   1.239   4.447  0.0563 -1.8795  1.2473
 5738TIP3    H217221   0.942   1.178   4.481 -1.2211  1.1838  1.8385
 5739TIP3   OH217222   6.266   0.020   3.523  0.2330  0.2881  0.3094
 5739TIP3    H117223   6.236  -0.069   3.541 -0.5839  0.2169 -1.3681
 5739TIP3    H217224   6.193   0.062   3.480 -0.7558  2.9434  4.2725
 5740TIP3   OH217225   3.338   3.720   2.288  0.6820 -0.0686  0.2145
 5740TIP3    H117226   3.256   3.768   2.300  0.9135  0.5951 -0.7558
 5740TIP3    H217227   3.321   3.661   2.214  1.7981  1.7845 -1.5745
 5741TIP3   OH217228   4.048   1.516   2.366 -0.4292 -0.1759  0.4541
 5741TIP3    H117229   4.117   1.531   2.430 -1.8924 -0.0598  2.0516
 5741TIP3    H217230   3.986   1.587   2.381 -1.8783 -1.4016  0.4297
 5742TIP3   OH217231   0.378   0.559   2.778  0.1516  0.4753  0.0261
 5742TIP3    H117232   0.453   0.499   2.776 -1.3913 -1.5569  1.5773
 5742TIP3    H217233   0.330   0.537   2.858 -1.5202  2.5055 -0.3436
 5743TIP3   OH217234   6.400   0.787   3.748 -0.5523  0.3621 -0.0141
 5743TIP3    H117235   6.379   0.719   3.812 -1.5724  0.6747 -0.0094
 5743TIP3    H217236   6.466   0.747   3.691  0.0322 -0.0717  0.9569
 5744TIP3   OH217237   4.237   5.918   4.588  0.3688 -0.3876 -0.3658
 5744TIP3    H117238   4.254   5.844   4.646  1.2652 -0.4650 -0.7125
 5744TIP3    H217239   4.151   5.901   4.552 -0.1088 -0.4527  0.7711
 5745TIP3   OH217240   0.300   0.398   1.471 -0.0169 -0.0714  0.4626
 5745TIP3    H117241   0.395   0.394   1.471 -0.0150 -0.4631 -0.5887
 5745TIP3    H217242   0.273   0.306   1.462 -0.4502  0.2007 -1.1723
 5746TIP3   OH217243   4.941   1.602   4.436  0.2743 -0.1579  0.0447
 5746TIP3    H117244   4.885   1.598   4.359 -0.4496  0.7583  0.5236
 5746TIP3    H217245   4.926   1.688   4.473 -0.3192 -1.0331  1.9215
 5747TIP3   OH217246   6.224   0.881   4.158  0.2610  0.2470  0.0239
 5747TIP3    H117247   6.181   0.935   4.091  1.8877 -0.4238 -1.5958
 5747TIP3    H217248   6.158   0.873   4.227 -2.0196 -0.2252 -2.1140
 5748TIP3   OH217249   3.223   6.124   1.954 -0.1979 -0.3790 -0.0319
 5748TIP3    H117250   3.207   6.152   1.864  2.6069 -0.9523 -0.7353
 5748TIP3    H217251   3.186   6.035   1.958 -1.2362  0.0296 -0.2925
 5749TIP3   OH217252   0.601   1.182   3.564 -0.2162 -0.2965  0.0526
 5749TIP3    H117253   0.577   1.241   3.635  0.4447  1.5452 -1.2333
 5749TIP3    H217254   0.693   1.202   3.546 -0.1476 -1.3146 -0.8112
 5750TIP3   OH217255   2.214   5.713   2.888 -0.5463 -0.5171 -0.2202
 5750TIP3    H117256   2.160   5.661   2.947 -1.7911  0.6728 -0.2894
 5750TIP3    H217257   2.214   5.663   2.806 -0.1661 -1.3467  0.2759
 5751TIP3   OH217258   5.073   0.163   2.775  0.1727  0.4573 -0.3951
 5751TIP3    H117259   5.021   0.242   2.761 -0.0062  0.4463  0.2204
 5751TIP3    H217260   5.009   0.093   2.784  0.2647  0.5217  0.8928
 5752TIP3   OH217261   5.668   0.507   3.429  0.0120  0.5094  0.2037
 5752TIP3    H117262   5.691   0.437   3.368 -0.2856  0.1393  0.5136
 5752TIP3    H217263   5.616   0.463   3.497 -1.6307  1.3434 -0.5047
 5753TIP3   OH217264   2.658   5.355   3.569 -0.2108 -0.0495  0.3938
 5753TIP3    H117265   2.565   5.373   3.582 -1.0845 -3.4537 -0.4429
 5753TIP3    H217266   2.668   5.354   3.474  0.9844  1.6043  0.4987
 5754TIP3   OH217267   2.922   5.415   0.920  0.2736 -0.9223 -0.0761
 5754TIP3    H117268   2.831   5.384   0.918 -0.3063  0.6825  0.7095
 5754TIP3    H217269   2.927   5.471   0.997  0.7409  2.5415 -2.5261
 5755TIP3   OH217270   6.252   5.217   2.504  0.2160 -0.5162  0.2641
 5755TIP3    H117271   6.295   5.166   2.436 -0.4394 -1.2997  0.4266
 5755TIP3    H217272   6.202   5.153   2.554 -0.3090  0.2313  0.7142
 5756TIP3   OH217273   2.289   5.930   4.626 -0.3949  0.2669 -0.4694
 5756TIP3    H117274   2.202   5.953   4.658  0.1004  1.1897  0.2364
 5756TIP3    H217275   2.343   5.925   4.704  0.1143 -0.6577 -0.8741
 5757TIP3   OH217276   5.518   1.077   2.845 -0.8332 -0.0707  0.0892
 5757TIP3    H117277   5.493   1.162   2.880  2.0026  0.3680  1.1638
 5757TIP3    H217278   5.542   1.025   2.922  2.1479 -0.2080 -0.8604
 5758TIP3   OH217279   6.339   2.381   1.151 -0.3935 -0.5601 -0.0068
 5758TIP3    H117280   6.256   2.393   1.104 -1.1737 -2.5679  0.7731
 5758TIP3    H217281   6.312   2.347   1.236  1.0735  1.8546  1.4480
 5759TIP3   OH217282   0.673   2.414   1.149  0.0713 -0.1663  0.1035
 5759TIP3    H117283   0.619   2.414   1.070 -0.4460  0.4119  0.4527
 5759TIP3    H217284   0.664   2.327   1.186  0.3433 -0.4489 -0.4965
 5760TIP3   OH217285   6.238   0.290   4.487  0.7291  0.3453 -0.2481
 5760TIP3    H117286   6.178   0.257   4.553  1.1215  0.9758  0.4283
 5760TIP3    H217287   6.184   0.344   4.429  0.5612  0.5114  0.0687
 5761TIP3   OH217288   0.527   0.280   2.579 -0.3101 -0.5042 -0.2227
 5761TIP3    H117289   0.443   0.312   2.546 -0.4457 -0.6144  0.0070
 5761TIP3    H217290   0.507   0.193   2.614  0.2240 -1.1823 -1.5813
 5762TIP3   OH217291   3.348   5.889   1.400  0.0173 -0.4478  0.6830
 5762TIP3    H117292   3.420   5.898   1.337 -0.2555  1.6170  0.6305
 5762TIP3    H217293   3.389   5.897   1.485  0.0127 -0.4859  0.6890
 5763TIP3   OH217294   5.355   5.929   3.603 -0.3682  0.5425  0.2501
 5763TIP3    H117295   5.405   5.850   3.580 -0.9626  0.4997 -0.9334
 5763TIP3    H217296   5.394   5.998   3.549 -2.2820  0.2894 -1.5190
 5764TIP3   OH217297   1.761   1.383   2.374 -0.2212  0.5511  0.1196
 5764TIP3    H117298   1.746   1.469   2.335  1.9241  0.6271 -0.6226
 5764TIP3    H217299   1.779   1.326   2.299  0.0574 -0.1655  0.7283
 5765TIP3   OH217300   1.993   3.285   4.641 -0.0148  0.4945 -0.1782
 5765TIP3    H117301   2.067   3.332   4.678  0.4319  1.4806 -2.2547
 5765TIP3    H217302   1.937   3.354   4.604 -0.3770 -0.4604 -1.4396
 5766TIP3   OH217303   2.108   3.996   0.194 -0.5484 -0.5070  0.9280
 5766TIP3    H117304   2.073   4.085   0.198 -1.0135 -0.6806  0.7593
 5766TIP3    H217305   2.172   3.992   0.265  0.8036  0.5331 -0.2155
 5767TIP3   OH217306   1.003   0.365   2.689  0.1507 -0.4670 -0.2847
 5767TIP3    H117307   1.031   0.357   2.598 -1.2185 -0.8776 -0.6789
 5767TIP3    H217308   1.027   0.455   2.714 -0.7564  0.1285 -1.5039
 5768TIP3   OH217309   1.398   4.153   4.915  0.1120  0.0435  0.2375
 5768TIP3    H117310   1.363   4.217   4.853  1.4300  1.7365  1.1981
 5768TIP3    H217311   1.480   4.124   4.875 -1.7268 -3.0700 -1.4614
 5769TIP3   OH217312   0.290   0.602   4.387 -0.4121  0.1401 -0.1840
 5769TIP3    H117313   0.317   0.526   4.438 -2.1670 -0.2033  0.2830
 5769TIP3    H217314   0.320   0.678   4.438  0.3588 -0.2375 -0.0846
 5770TIP3   OH217315   1.894   4.146   3.789  0.5475 -0.1914  0.0213
 5770TIP3    H117316   1.931   4.070   3.744  0.2324 -0.7075  0.6278
 5770TIP3    H217317   1.841   4.109   3.860 -0.2282  0.5659 -0.1449
 5771TIP3   OH217318   3.910   4.267   4.517 -0.8919 -0.2905 -0.4402
 5771TIP3    H117319   3.929   4.249   4.425  0.8604 -2.3673  0.2622
 5771TIP3    H217320   3.922   4.182   4.561 -1.5350  0.6941  1.7206
 5772TIP3   OH217321   5.117   4.572   4.448 -0.2510  0.1577 -0.7574
 5772TIP3    H117322   5.206   4.548   4.475 -0.6519  0.6619  1.0599
 5772TIP3    H217323   5.100   4.655   4.492 -1.3136  0.4994 -1.7814
 5773TIP3   OH217324   0.574   0.119   2.802 -0.0975  0.5813  1.0952
 5773TIP3    H117325   0.519   0.198   2.799  0.3293  0.8524  0.2314
 5773TIP3    H217326   0.663   0.152   2.790 -0.1458 -0.2712 -1.8429
 5774TIP3   OH217327   3.823   3.700   3.799  0.0571  0.8926 -0.1836
 5774TIP3    H117328   3.883   3.741   3.736 -1.0991  1.9882 -0.5916
 5774TIP3    H217329   3.785   3.626   3.753  2.0877 -0.6596  0.5241
 5775TIP3   OH217330   4.843   2.422   5.197  0.1855  0.2949 -0.1437
 5775TIP3    H117331   4.933   2.404   5.170 -0.3346 -1.5458 -0.7083
 5775TIP3    H217332   4.811   2.486   5.133 -0.0565 -1.7798 -2.1563
 5776TIP3   OH217333   2.921   4.304   0.809  0.3320  0.2435 -0.4257
 5776TIP3    H117334   2.859   4.312   0.882  0.8991 -0.8182  0.1861
 5776TIP3    H217335   2.990   4.367   0.829  1.2864 -1.1457  0.7939
 5777TIP3   OH217336   6.418   1.088   4.475 -0.0686  0.4337  0.6790
 5777TIP3    H117337   6.490   1.096   4.413 -2.1507 -1.1037 -2.0229
 5777TIP3    H217338   6.458   1.046   4.552  2.3033  1.3827  0.0089
 5778TIP3   OH217339   5.036   0.357   3.459 -0.4064 -0.0407  0.0193
 5778TIP3    H117340   5.010   0.349   3.367 -0.2102  3.1540 -0.3755
 5778TIP3    H217341   5.131   0.349   3.458 -0.0535  3.2634 -0.5827
 5779TIP3   OH217342   5.339   1.044   4.561  0.4463  0.1641  0.0120
 5779TIP3    H117343   5.250   1.071   4.537  1.0732  0.7395 -1.7489
 5779TIP3    H217344   5.391   1.124   4.557  1.3902 -0.4731 -0.7029
 5780TIP3   OH217345   5.324   2.253   0.514  0.1766 -0.5945 -0.4919
 5780TIP3    H117346   5.299   2.276   0.424 -0.6229  2.0140  0.3619
 5780TIP3    H217347   5.419   2.268   0.517 -0.1118  1.3714 -0.3530
 5781TIP3   OH217348   5.864   0.126   3.292  0.2298 -0.1193  0.4535
 5781TIP3    H117349   5.824   0.111   3.206  0.8588 -0.2456  0.1775
 5781TIP3    H217350   5.934   0.189   3.275 -0.0089  0.2835  0.9727
 5782TIP3   OH217351   5.637   0.052   1.507  0.3508  0.5063 -0.4557
 5782TIP3    H117352   5.659   0.094   1.591  0.2509  1.9373 -1.1261
 5782TIP3    H217353   5.686   0.102   1.442  0.8042 -0.8998 -1.2195
 5783TIP3   OH217354   1.229   1.971   3.994  0.5128 -0.2541  0.3203
 5783TIP3    H117355   1.137   1.998   3.988  0.4424 -0.4313  0.6326
 5783TIP3    H217356   1.236   1.926   4.078  0.7752 -0.6670  0.0803
 5784TIP3   OH217357   1.363   3.005   0.203 -0.1656 -0.2645  0.0159
 5784TIP3    H117358   1.378   2.957   0.284 -1.6486 -0.5873  0.1170
 5784TIP3    H217359   1.306   3.078   0.229 -1.6205 -1.0446 -0.9368
 5785TIP3   OH217360   1.229   1.225   3.362  0.2402  0.0076  0.3464
 5785TIP3    H117361   1.135   1.209   3.353 -0.1074  0.9617  2.0506
 5785TIP3    H217362   1.250   1.284   3.289 -0.4694 -0.1750 -0.0153
 5786TIP3   OH217363   5.444   1.119   2.226 -0.3937 -0.2170 -0.3715
 5786TIP3    H117364   5.416   1.040   2.272  0.6586 -0.1526  0.3970
 5786TIP3    H217365   5.532   1.097   2.193  0.0560  0.7621  0.1640
 5787TIP3   OH217366   5.431   6.070   4.505  0.0096  0.1930 -0.1618
 5787TIP3    H117367   5.419   6.142   4.443 -0.9102 -0.2293 -0.4798
 5787TIP3    H217368   5.478   6.003   4.456  0.2139  0.2742 -0.0802
 5788TIP3   OH217369   2.943   4.364   2.996 -0.1955 -0.1704  0.0856
 5788TIP3    H117370   2.874   4.426   3.018 -1.0090 -0.3593 -1.8395
 5788TIP3    H217371   2.963   4.382   2.904  1.1957 -1.1998  0.1642
 5789TIP3   OH217372   1.509   2.052   3.368  0.5680 -0.2026  0.1227
 5789TIP3    H117373   1.583   2.002   3.334 -0.9998 -2.1177 -0.5876
 5789TIP3    H217374   1.539   2.086   3.452  1.8797 -1.8552  0.3414
 5790TIP3   OH217375   3.430   3.503   0.173 -0.0757 -0.0063  0.1940
 5790TIP3    H117376   3.491   3.530   0.242  0.0392  2.0929 -0.6682
 5790TIP3    H217377   3.481   3.444   0.118  1.1140  1.5001 -0.3512
 5791TIP3   OH217378   3.115   5.229   4.252  0.0435  0.1478 -0.1171
 5791TIP3    H117379   3.118   5.134   4.266  2.8991  0.1302 -0.6499
 5791TIP3    H217380   3.023   5.251   4.266 -0.6687 -2.6748  0.1319
 5792TIP3   OH217381   4.056   4.569   2.869 -0.2984  0.0754  0.0437
 5792TIP3    H117382   3.978   4.556   2.815 -1.3299 -1.4684  1.7987
 5792TIP3    H217383   4.024   4.616   2.946  0.3842 -0.9692  0.9905
 5793TIP3   OH217384   2.056   2.867   0.640 -0.6513  0.2603 -0.3770
 5793TIP3    H117385   2.099   2.949   0.665  0.9170 -0.4128 -0.7891
 5793TIP3    H217386   2.080   2.854   0.549 -1.1316 -0.5168 -0.4000
 5794TIP3   OH217387   5.404   1.079   1.933 -0.1569 -0.0235 -0.0956
 5794TIP3    H117388   5.409   1.046   2.023 -0.6478 -1.1003 -0.4467
 5794TIP3    H217389   5.317   1.051   1.902 -0.0966  0.5664 -0.8181
 5795TIP3   OH217390   0.019   5.258   3.271 -0.4113 -0.2503  0.5778
 5795TIP3    H117391  -0.044   5.327   3.249 -1.3303 -1.1829  0.2219
 5795TIP3    H217392   0.030   5.209   3.190 -0.0248 -0.7220  0.9175
 5796TIP3   OH217393   6.460   6.132   2.830 -0.2438  0.1156  0.2671
 5796TIP3    H117394   6.554   6.117   2.823  0.2303  2.4651  1.4022
 5796TIP3    H217395   6.437   6.101   2.918 -0.2178  1.1028  0.6246
 5797TIP3   OH217396   0.863   0.957   3.524  0.0232 -0.0775  0.3557
 5797TIP3    H117397   0.874   0.927   3.434  4.0407  1.2579  0.3202
 5797TIP3    H217398   0.862   1.053   3.516  0.1197  0.0364  1.7253
 5798TIP3   OH217399   6.274   0.446   1.668  0.4766 -0.0584  0.2525
 5798TIP3    H117400   6.327   0.524   1.682  0.0948  0.4230 -0.9229
 5798TIP3    H217401   6.334   0.373   1.682  0.8944  0.4501  1.1083
 5799TIP3   OH217402   1.996   0.137   4.269 -0.4045  0.5425 -0.3450
 5799TIP3    H117403   1.916   0.088   4.250  1.1642 -2.0209 -0.5778
 5799TIP3    H217404   2.049   0.130   4.190  1.8740 -1.5643  1.2837
 5800TIP3   OH217405   1.391   4.725   3.207  0.1040  0.0594  0.0471
 5800TIP3    H117406   1.449   4.684   3.271  0.7882 -0.4416 -0.8877
 5800TIP3    H217407   1.347   4.795   3.256 -0.6074 -1.3793  1.4758
 5801TIP3   OH217408   2.839   5.357   3.090 -0.1047 -0.1736  0.0577
 5801TIP3    H117409   2.916   5.413   3.092 -1.3407  1.5286  0.3253
 5801TIP3    H217410   2.835   5.326   2.999  0.3936  0.4257 -0.1725
 5802TIP3   OH217411   0.258   4.148   1.810  0.3347  0.1271  0.1326
 5802TIP3    H117412   0.168   4.137   1.840  0.8846  0.8427  2.1731
 5802TIP3    H217413   0.267   4.242   1.794  0.5827 -0.0089 -0.5620
 5803TIP3   OH217414   1.300   0.029   4.981 -0.5969  0.2051  0.2299
 5803TIP3    H117415   1.321   0.024   4.887  0.2441  0.7374  0.3790
 5803TIP3    H217416   1.375  -0.012   5.024 -1.1113 -0.2800  0.6585
 5804TIP3   OH217417   3.610   5.358   2.743  0.3849 -0.6774  0.2582
 5804TIP3    H117418   3.667   5.285   2.724  0.8829 -0.4641  0.9287
 5804TIP3    H217419   3.668   5.429   2.771 -0.2715 -0.7883  1.9844
 5805TIP3   OH217420   4.109   4.101   4.117  0.0713 -0.3606  0.1419
 5805TIP3    H117421   4.137   4.011   4.101  0.3994 -0.4114  0.9523
 5805TIP3    H217422   4.153   4.125   4.199  0.8707  0.9251 -0.6564
 5806TIP3   OH217423   3.609   5.802   2.661 -0.0274 -0.5756 -0.2156
 5806TIP3    H117424   3.558   5.810   2.581  3.0380  0.0123 -2.1933
 5806TIP3    H217425   3.593   5.884   2.708 -2.5446 -1.3001  0.2677
 5807TIP3   OH217426   0.134   0.259   3.024 -0.0604  0.8951  0.1696
 5807TIP3    H117427   0.078   0.195   3.068 -0.9040 -0.5691 -2.8713
 5807TIP3    H217428   0.133   0.336   3.081 -0.3092 -1.2487  3.1146
 5808TIP3   OH217429   3.809   3.970   2.749 -0.1723  0.0341  0.3956
 5808TIP3    H117430   3.828   4.045   2.693  1.1789 -1.3349 -1.0491
 5808TIP3    H217431   3.772   4.008   2.828 -0.2309  2.1653 -0.6119
 5809TIP3   OH217432   6.392   0.441   4.178  0.0139 -0.3978 -0.1009
 5809TIP3    H117433   6.322   0.473   4.236  1.7506  2.2915  0.6270
 5809TIP3    H217434   6.374   0.485   4.095  1.0334  0.6462  0.2125
 5810TIP3   OH217435   4.276   4.510   2.710  0.5969  0.4614 -0.3306
 5810TIP3    H117436   4.255   4.458   2.632 -0.6062  0.1100  0.2230
 5810TIP3    H217437   4.193   4.518   2.757  1.7201 -1.1276  2.0023
 5811TIP3   OH217438   2.684   5.877   3.314 -0.3493  0.1238  0.3255
 5811TIP3    H117439   2.589   5.874   3.299 -0.0236 -1.0696 -1.5752
 5811TIP3    H217440   2.707   5.788   3.340  0.5522 -0.0989 -1.1917
 5812TIP3   OH217441   6.054   0.641   3.166 -0.1238  0.3427  0.1630
 5812TIP3    H117442   6.089   0.640   3.255 -1.6538 -2.0069  0.7876
 5812TIP3    H217443   6.115   0.588   3.116 -0.3301  0.0171  0.2548
 5813TIP3   OH217444   3.640   5.250   4.375  0.1582  0.2996 -0.1874
 5813TIP3    H117445   3.703   5.257   4.447 -0.0048 -1.0122  0.0901
 5813TIP3    H217446   3.621   5.157   4.368 -0.9583  0.5729 -0.9677
 5814TIP3   OH217447   3.449   3.575   3.896 -0.5448  0.1640 -0.1901
 5814TIP3    H117448   3.462   3.540   3.984 -2.7450 -0.1821  0.0252
 5814TIP3    H217449   3.401   3.657   3.910 -1.4646 -0.2110 -1.0867
 5815TIP3   OH217450   4.588   4.774   1.476  0.3747 -0.1773 -0.0012
 5815TIP3    H117451   4.580   4.807   1.566 -0.0800  0.0770 -0.1328
 5815TIP3    H217452   4.640   4.694   1.485 -0.0417 -0.3954  0.5476
 5816TIP3   OH217453   5.632   4.976   2.721 -0.2182  0.1577  0.5243
 5816TIP3    H117454   5.600   4.894   2.683  2.2537 -0.0116 -1.3010
 5816TIP3    H217455   5.703   5.004   2.663 -1.3593  3.9089  0.7799
 5817TIP3   OH217456   5.870   2.441   5.059 -0.3160 -0.1765  0.0027
 5817TIP3    H117457   5.867   2.349   5.031  1.0460  0.0402 -0.9163
 5817TIP3    H217458   5.897   2.489   4.981  0.0681  0.8753  0.7657
 5818TIP3   OH217459   3.161   5.646   2.320 -0.8217  0.2298  0.6396
 5818TIP3    H117460   3.180   5.576   2.382  1.1583  0.5522  0.4478
 5818TIP3    H217461   3.144   5.602   2.237  1.1901 -0.0272  0.3315
 5819TIP3   OH217462   4.303   4.976   3.849  0.2871  0.2314 -0.3652
 5819TIP3    H117463   4.270   5.044   3.790  0.7295  1.0252  0.2973
 5819TIP3    H217464   4.313   5.020   3.933 -0.3328 -0.8917  0.3125
 5820TIP3   OH217465   5.426   5.653   5.019  0.1699  0.3082 -0.3972
 5820TIP3    H117466   5.362   5.586   5.044 -1.0648  1.1393 -1.2381
 5820TIP3    H217467   5.501   5.604   4.986 -0.1212 -0.6839  0.4062
 5821TIP3   OH217468   0.317   0.955   3.892 -0.5504  0.6502 -0.0952
 5821TIP3    H117469   0.413   0.959   3.901 -0.4751  0.1738 -0.6765
 5821TIP3    H217470   0.289   0.902   3.966 -0.1294 -1.3549 -1.3397
 5822TIP3   OH217471   4.221   3.722   3.722  0.1368  0.1104 -0.3546
 5822TIP3    H117472   4.233   3.635   3.684 -0.4820 -0.1101 -0.0486
 5822TIP3    H217473   4.279   3.722   3.799  0.1312 -0.0297 -0.3499
 5823TIP3   OH217474   5.254   5.173   1.868 -0.6422 -0.2167  0.5930
 5823TIP3    H117475   5.206   5.202   1.791  0.8615  0.4678 -0.1061
 5823TIP3    H217476   5.233   5.238   1.935 -1.1066 -0.2217  0.4549
 5824TIP3   OH217477   3.354   5.573   4.125  0.2927 -0.2324  0.5486
 5824TIP3    H117478   3.337   5.480   4.134 -2.8924 -0.3245 -4.4451
 5824TIP3    H217479   3.429   5.578   4.065  0.6668  0.4449  1.0584
 5825TIP3   OH217480   1.259   5.064   3.898 -0.2859 -0.4468  0.7488
 5825TIP3    H117481   1.308   5.020   3.967  0.4424  0.2894  0.7092
 5825TIP3    H217482   1.270   5.158   3.916  2.0631 -0.1556 -1.8072
 5826TIP3   OH217483   4.121   5.582   5.265  0.8445 -0.5348  0.1544
 5826TIP3    H117484   4.068   5.571   5.186  1.6806 -1.4750 -0.2771
 5826TIP3    H217485   4.209   5.600   5.232  0.7784  1.2458  0.8695
 5827TIP3   OH217486   3.433  -0.027   3.913  0.2149  0.1680  0.1656
 5827TIP3    H117487   3.437   0.060   3.873 -0.8371  0.2682  0.2531
 5827TIP3    H217488   3.481  -0.017   3.995  0.5687  0.5246 -0.0816
 5828TIP3   OH217489   0.967   0.050   4.257 -0.3944  0.0809  0.2374
 5828TIP3    H117490   0.958  -0.015   4.186 -0.9315  0.5062 -0.0895
 5828TIP3    H217491   0.885   0.043   4.306  0.2830 -0.7456  1.2893
 5829TIP3   OH217492   0.967   0.372   3.041  0.1007  0.5355  0.1919
 5829TIP3    H117493   1.017   0.301   3.079  0.8642  1.0363  0.1354
 5829TIP3    H217494   1.025   0.410   2.975 -1.3752 -0.6214 -1.8405
 5830TIP3   OH217495   1.380   2.472   2.368 -0.1171 -0.1324  0.2696
 5830TIP3    H117496   1.407   2.540   2.430  0.1228 -0.6050  0.6862
 5830TIP3    H217497   1.319   2.417   2.418 -0.2052 -0.3024 -0.0241
 5831TIP3   OH217498   1.278   0.770   4.282 -0.0768 -0.1022 -0.6116
 5831TIP3    H117499   1.261   0.716   4.360 -0.7541  1.6259  0.4744
 5831TIP3    H217500   1.363   0.810   4.299 -1.0976  1.8083  0.1791
 5832TIP3   OH217501   2.591   2.454   2.641  0.3234  0.1781  0.6407
 5832TIP3    H117502   2.574   2.507   2.563 -0.1250  0.9302  1.2475
 5832TIP3    H217503   2.547   2.371   2.623  2.3876 -0.6183 -1.0178
 5833TIP3   OH217504   2.043   0.786   3.702  0.1614 -0.4530 -0.1675
 5833TIP3    H117505   2.044   0.824   3.614 -0.5432  0.0532  0.0338
 5833TIP3    H217506   2.120   0.823   3.745 -0.5498  0.8180  0.0470
 5834TIP3   OH217507   1.632   0.891   2.378 -0.4180 -0.3864 -0.3925
 5834TIP3    H117508   1.555   0.929   2.337 -2.4777 -2.7580  1.1498
 5834TIP3    H217509   1.690   0.965   2.393 -3.7901  2.0063  1.4341
 5835TIP3   OH217510   2.211   3.002   2.991 -0.2763  0.1126 -0.0720
 5835TIP3    H117511   2.305   2.985   3.003 -0.1661  0.1972 -0.8033
 5835TIP3    H217512   2.178   2.923   2.948 -0.1841  0.8143 -1.4815
 5836TIP3   OH217513   0.107   1.211   3.128  0.0604 -0.3605  0.2093
 5836TIP3    H117514   0.017   1.180   3.136  0.0855 -0.2694  0.9402
 5836TIP3    H217515   0.161   1.132   3.130  0.0808 -0.3302  1.3156
 5837TIP3   OH217516   2.130   0.944   2.215 -0.5015  0.2511  0.4261
 5837TIP3    H117517   2.197   0.965   2.280 -1.1048  0.3607  1.0139
 5837TIP3    H217518   2.177   0.944   2.132  0.0556  1.1673  0.7367
 5838TIP3   OH217519   1.728   0.192   2.394  0.1228  0.0476  0.1054
 5838TIP3    H117520   1.801   0.224   2.341  1.1277 -0.0835  1.4110
 5838TIP3    H217521   1.726   0.250   2.470 -0.4706 -0.6066  0.5906
 5839TIP3   OH217522   2.586   0.059   3.203  0.1149  0.1494 -0.2172
 5839TIP3    H117523   2.550   0.093   3.285 -2.1929  0.0304 -1.1256
 5839TIP3    H217524   2.531  -0.017   3.183  2.0999 -1.1938 -0.7323
 5840TIP3   OH217525   1.950   1.332   3.865  0.0301  0.0122 -0.5437
 5840TIP3    H117526   1.917   1.362   3.949  1.2073 -0.5658  0.1381
 5840TIP3    H217527   1.872   1.323   3.810 -0.8252 -0.3202  0.7131
 5841TIP3   OH217528   4.596   5.622   4.005 -0.0664 -0.1296 -0.0115
 5841TIP3    H117529   4.581   5.714   4.025  0.8882 -0.2364  1.2818
 5841TIP3    H217530   4.623   5.583   4.089 -1.2213 -1.7545 -0.3684
 5842TIP3   OH217531   3.060   0.281   0.691 -0.2889 -0.5897 -0.5699
 5842TIP3    H117532   3.003   0.244   0.623 -1.7675  0.1777  0.2241
 5842TIP3    H217533   3.026   0.370   0.705  0.8278 -0.2754  0.2416
 5843TIP3   OH217534   5.494   1.044   3.622 -0.6536  0.5476  0.4055
 5843TIP3    H117535   5.400   1.050   3.603 -0.2805  0.4812 -1.5014
 5843TIP3    H217536   5.516   1.129   3.661 -1.1093  1.3206 -0.9823
 5844TIP3   OH217537   1.259   0.301   4.952  0.1598  0.3722  0.4649
 5844TIP3    H117538   1.278   0.207   4.956 -0.5540  0.2620  1.6292
 5844TIP3    H217539   1.178   0.307   4.901 -0.0980  0.3055  0.8644
 5845TIP3   OH217540   5.037   5.685   4.138  0.8585  0.3699 -0.1655
 5845TIP3    H117541   5.010   5.728   4.219  0.9326 -0.1531  0.1406
 5845TIP3    H217542   5.114   5.634   4.163  0.9161  0.2523 -0.5802
 5846TIP3   OH217543   6.402   0.108   4.604  0.0001 -0.4627  0.5791
 5846TIP3    H117544   6.412   0.023   4.562  1.0432 -0.0099 -0.1218
 5846TIP3    H217545   6.348   0.158   4.543  1.5151  0.1953 -0.2617
 5847TIP3   OH217546   1.025   0.129   1.764  0.4594  0.0328 -0.6592
 5847TIP3    H117547   0.959   0.161   1.826  1.1726 -0.6160  0.4444
 5847TIP3    H217548   1.000   0.169   1.680 -0.2722  1.2510  0.1209
 5848TIP3   OH217549   1.623   0.962   1.390  0.2582 -0.7318 -0.1793
 5848TIP3    H117550   1.592   0.920   1.470  0.1416 -0.5835 -0.1454
 5848TIP3    H217551   1.624   1.055   1.411 -1.7222 -0.4904 -0.9836
 5849TIP3   OH217552   1.532   0.818   3.894 -0.4767 -0.0001  0.2969
 5849TIP3    H117553   1.457   0.873   3.874 -0.6818  0.3620  1.9281
 5849TIP3    H217554   1.495   0.734   3.921 -0.3193  0.1780  1.1050
 5850TIP3   OH217555   0.181   1.014   3.636 -0.4838 -0.3351  0.1564
 5850TIP3    H117556   0.226   1.098   3.624  1.5634 -1.4508 -0.2698
 5850TIP3    H217557   0.168   1.008   3.731 -0.5152  0.4057  0.2058
 5851TIP3   OH217558   3.494   2.179   0.715 -0.1372 -0.2040  0.4621
 5851TIP3    H117559   3.434   2.200   0.643 -0.3664  0.8566  0.9532
 5851TIP3    H217560   3.557   2.118   0.676 -0.1584  0.4846 -0.6937
 5852TIP3   OH217561   0.855   0.338   4.259 -0.4545 -0.2091  0.5647
 5852TIP3    H117562   0.836   0.289   4.179 -0.2929 -0.0072  0.4022
 5852TIP3    H217563   0.925   0.288   4.302 -0.4636 -0.2562  0.5248
 5853TIP3   OH217564   6.322   1.016   1.500 -0.1994  0.1756 -0.9431
 5853TIP3    H117565   6.257   1.086   1.492  1.0255  1.3189 -1.0083
 5853TIP3    H217566   6.294   0.966   1.576 -0.4565  1.4046 -0.2186
 5854TIP3   OH217567   1.200   0.601   4.069  0.0029  0.5745 -0.2499
 5854TIP3    H117568   1.236   0.672   4.122  0.5106 -0.5238  0.8969
 5854TIP3    H217569   1.137   0.558   4.126 -1.2091  0.8517 -1.3618
 5855TIP3   OH217570   5.196   4.467   4.774  0.0586  0.6253 -0.7769
 5855TIP3    H117571   5.205   4.422   4.690 -0.0607  1.3432 -1.1770
 5855TIP3    H217572   5.285   4.466   4.810 -0.2009 -1.1005 -0.1722
 5856TIP3   OH217573   6.347   4.886   2.553  0.1791 -0.0417 -0.1397
 5856TIP3    H117574   6.286   4.933   2.609 -0.9041 -1.4640 -0.0913
 5856TIP3    H217575   6.312   4.897   2.465  1.3561  1.3931 -0.4533
 5857TIP3   OH217576   6.015   4.485   1.206 -0.3476 -0.0902 -0.5851
 5857TIP3    H117577   5.922   4.494   1.225 -0.4182 -0.1053 -0.9185
 5857TIP3    H217578   6.054   4.459   1.289 -0.3678  1.6985 -0.0055
 5858TIP3   OH217579   1.089   5.880  -0.007 -0.2054  0.3170 -0.4691
 5858TIP3    H117580   1.044   5.953   0.036 -0.4934  0.9035 -1.7470
 5858TIP3    H217581   1.143   5.841   0.062  0.0371  1.8145  0.2033
 5859TIP3   OH217582   4.644   2.469   1.723 -0.0193  0.6264  0.3139
 5859TIP3    H117583   4.636   2.376   1.743 -0.3043  0.8539  1.3315
 5859TIP3    H217584   4.561   2.507   1.754 -0.0544  1.1535 -0.4351
 5860TIP3   OH217585   5.593   3.940   1.835  0.3876 -0.0434  0.6195
 5860TIP3    H117586   5.689   3.940   1.836  0.4229 -1.3545 -1.0442
 5860TIP3    H217587   5.570   3.937   1.742 -1.2664 -0.3648  1.0249
 5861TIP3   OH217588   0.419   0.148   1.060 -0.3361 -0.6238 -0.3416
 5861TIP3    H117589   0.480   0.175   0.991  1.6122  1.1915  1.9662
 5861TIP3    H217590   0.367   0.226   1.077 -0.0534 -0.7204  0.9872
 5862TIP3   OH217591   1.051   4.234   0.361 -0.2277  0.4024  0.1462
 5862TIP3    H117592   1.124   4.219   0.421 -1.1661  1.0592  1.4613
 5862TIP3    H217593   1.080   4.195   0.278  1.5213  0.4532  0.7122
 5863TIP3   OH217594   2.229   0.388   0.092  0.2770  0.1106  0.2261
 5863TIP3    H117595   2.185   0.337   0.025 -1.2861  1.1794  0.4135
 5863TIP3    H217596   2.159   0.413   0.153  1.4010  0.5310  1.3740
 5864TIP3   OH217597   5.744   0.236   0.721 -0.1121 -0.1612 -0.2174
 5864TIP3    H117598   5.804   0.307   0.745  0.7000 -0.1597 -2.1076
 5864TIP3    H217599   5.657   0.274   0.730  0.2422  0.4250  0.7915
 5865TIP3   OH217600   5.044   4.879   2.615  0.6981  0.5904 -0.4775
 5865TIP3    H117601   5.061   4.960   2.664  0.7667  0.3347 -0.0770
 5865TIP3    H217602   5.038   4.907   2.524 -1.4266  1.3763 -0.1273
 5866TIP3   OH217603   6.364   4.199   0.653  0.7033  0.1808 -0.1749
 5866TIP3    H117604   6.320   4.209   0.737  0.5776  0.6584 -0.2916
 5866TIP3    H217605   6.296   4.221   0.588  0.4386 -1.4265 -0.4511
 5867TIP3   OH217606   2.184   0.509   2.138 -0.1730  0.4765  0.3300
 5867TIP3    H117607   2.246   0.573   2.102  1.1213  0.0697  1.7960
 5867TIP3    H217608   2.108   0.562   2.164 -0.4085  0.9949 -1.3045
 5868TIP3   OH217609   2.918   1.620   4.787 -0.3143  0.1356 -0.0771
 5868TIP3    H117610   2.882   1.670   4.713  1.6299 -1.1752 -1.9945
 5868TIP3    H217611   2.883   1.532   4.774 -0.3978  0.0239  0.9011
 5869TIP3   OH217612   5.283   0.123   1.688  0.1172 -0.2160  0.6230
 5869TIP3    H117613   5.241   0.049   1.643  0.2376  0.5260 -0.7232
 5869TIP3    H217614   5.228   0.198   1.666  2.8890  1.0492 -2.3688
 5870TIP3   OH217615   4.136   6.008   2.144 -0.1730  0.2325  0.3743
 5870TIP3    H117616   4.210   5.994   2.203 -0.3812 -0.4770  0.4663
 5870TIP3    H217617   4.117   6.102   2.151  0.0030  0.2089  1.1853
 5871TIP3   OH217618   6.141   3.801   1.848  0.0152 -0.0488  0.0264
 5871TIP3    H117619   6.153   3.763   1.761 -0.2207  1.1274 -0.5291
 5871TIP3    H217620   6.110   3.890   1.831 -2.4809 -0.6399  1.3494
 5872TIP3   OH217621   4.595   5.176   1.122 -0.1434  0.4269 -0.2060
 5872TIP3    H117622   4.560   5.211   1.040 -1.0959  1.8687  0.7911
 5872TIP3    H217623   4.662   5.240   1.148  0.2207 -0.0777  0.0930
 5873TIP3   OH217624   1.624   5.542   5.060 -0.1322  0.1994 -0.2003
 5873TIP3    H117625   1.632   5.631   5.025 -0.7068  0.4747  0.3567
 5873TIP3    H217626   1.712   5.520   5.090 -0.4658  1.4697  1.7703
 5874TIP3   OH217627   5.538   1.164   0.695  0.7922  0.1404  0.3288
 5874TIP3    H117628   5.591   1.103   0.746 -0.5201 -1.6166 -0.3918
 5874TIP3    H217629   5.460   1.179   0.749  2.1499  3.0718  1.5957
 5875TIP3   OH217630   5.075   1.323   4.963  0.6809 -0.5022 -0.2620
 5875TIP3    H117631   5.039   1.294   5.046  1.0337 -0.4459 -0.0877
 5875TIP3    H217632   5.088   1.242   4.913  0.6385 -0.5529 -0.1914
 5876TIP3   OH217633   6.430   0.056   0.739  0.0107  0.6238 -0.5610
 5876TIP3    H117634   6.375   0.031   0.665  0.8040  0.5600 -1.1421
 5876TIP3    H217635   6.518   0.029   0.713  0.2860  0.4975  0.4542
 5877TIP3   OH217636   5.046   0.388   1.707 -0.0105 -0.4409 -0.2062
 5877TIP3    H117637   5.000   0.305   1.692 -0.9736 -0.3439  1.9322
 5877TIP3    H217638   4.977   0.449   1.733  1.1339  0.0631  1.7636
 5878TIP3   OH217639   3.747   1.018   4.636  0.4793  0.0403  0.2344
 5878TIP3    H117640   3.820   1.017   4.699  0.2881 -0.5474  0.4483
 5878TIP3    H217641   3.675   0.977   4.683  0.9872 -2.5129 -1.1477
 5879TIP3   OH217642   5.226   0.119   3.634 -0.1392 -0.6189 -0.4934
 5879TIP3    H117643   5.139   0.146   3.663 -0.7225 -1.0471 -1.7981
 5879TIP3    H217644   5.251   0.184   3.568  0.2372 -0.8717 -0.6043
 5880TIP3   OH217645   6.091   4.620   0.466 -0.4269  0.4522 -0.0488
 5880TIP3    H117646   6.154   4.678   0.509  0.5174  0.3447 -1.2708
 5880TIP3    H217647   6.016   4.676   0.448 -0.2212  0.8641  0.3590
 5881TIP3   OH217648   6.092   5.558   0.395 -0.3443 -0.4610  0.1541
 5881TIP3    H117649   6.064   5.468   0.376 -0.6855 -0.3515  0.1270
 5881TIP3    H217650   6.018   5.612   0.368 -0.0250 -0.1476 -0.0973
 5882TIP3   OH217651   2.240   1.092   4.852  0.7849 -0.7661 -0.0769
 5882TIP3    H117652   2.311   1.128   4.905  1.0491 -0.4588 -0.6307
 5882TIP3    H217653   2.259   0.998   4.849 -0.1793 -1.0486  1.7698
 5883TIP3   OH217654   6.439   5.227   0.281 -0.1328  0.1246 -0.3902
 5883TIP3    H117655   6.491   5.165   0.229 -1.9286 -1.5847 -0.1851
 5883TIP3    H217656   6.370   5.256   0.223 -0.7708 -0.0020  0.2913
 5884TIP3   OH217657   6.317   3.567   0.705  0.1739  0.3316  0.3154
 5884TIP3    H117658   6.273   3.502   0.650  1.1962 -1.2127  1.2832
 5884TIP3    H217659   6.249   3.631   0.726 -0.8889 -0.5068 -0.5216
 5885TIP3   OH217660   5.806   5.828   2.055  0.6140  0.3831 -0.4341
 5885TIP3    H117661   5.712   5.819   2.069  0.8157  1.4970  1.8231
 5885TIP3    H217662   5.835   5.740   2.030 -1.0856  0.1329 -1.5987
 5886TIP3   OH217663   3.094   3.019   5.254  0.6478 -0.4587 -0.6774
 5886TIP3    H117664   3.154   2.962   5.302  0.6887  0.3828  0.2863
 5886TIP3    H217665   3.051   2.961   5.190  1.1344 -1.4312 -0.1312
 5887TIP3   OH217666   2.645   0.567   4.784 -0.9259 -0.4339 -0.0951
 5887TIP3    H117667   2.686   0.580   4.699 -2.5328  0.5761 -0.7490
 5887TIP3    H217668   2.716   0.576   4.847  0.1637 -0.5703 -1.2848
 5888TIP3   OH217669   6.372   1.026   3.219 -0.4101  0.0170  0.0116
 5888TIP3    H117670   6.403   0.940   3.188 -2.1375 -0.3399 -0.7617
 5888TIP3    H217671   6.385   1.022   3.314  0.3097 -0.7745 -0.1064
 5889TIP3   OH217672   2.871   1.513   5.155  0.6082  0.0595  0.5576
 5889TIP3    H117673   2.786   1.553   5.137  1.4172  2.0692  1.1327
 5889TIP3    H217674   2.884   1.452   5.082 -1.6480 -0.8577  0.8642
 5890TIP3   OH217675   0.627   2.652   4.740 -0.0889 -0.8014 -0.1057
 5890TIP3    H117676   0.601   2.738   4.707 -0.9929 -1.1572 -0.3422
 5890TIP3    H217677   0.599   2.591   4.672  0.1731 -1.3245  0.2515
 5891TIP3   OH217678   5.861   5.299   0.451  0.5673 -0.3078  0.2039
 5891TIP3    H117679   5.786   5.302   0.391 -0.5731  1.9345  1.6771
 5891TIP3    H217680   5.936   5.278   0.394 -0.7602 -0.0126 -1.7162
 5892TIP3   OH217681   1.764   1.424   0.498 -0.3660  0.1573 -1.0882
 5892TIP3    H117682   1.767   1.353   0.562  1.1102  0.3342 -0.9454
 5892TIP3    H217683   1.779   1.382   0.413 -0.8590  0.1198 -1.1585
 5893TIP3   OH217684   1.298   3.009   2.983 -0.3211 -0.0635  0.2169
 5893TIP3    H117685   1.322   2.926   2.942 -2.5435 -0.2210 -0.8356
 5893TIP3    H217686   1.294   3.072   2.912  0.3911  0.7422  0.8752
 5894TIP3   OH217687   6.177   1.130   4.034 -0.5057 -0.1226  0.1261
 5894TIP3    H117688   6.231   1.157   3.960 -0.2600 -2.9558 -0.8041
 5894TIP3    H217689   6.090   1.117   3.997 -0.2301 -2.2007  0.1297
 5895TIP3   OH217690   1.221   4.794   3.681  0.3983 -0.5867  0.2174
 5895TIP3    H117691   1.155   4.778   3.749 -1.2895 -0.3861 -1.3237
 5895TIP3    H217692   1.242   4.887   3.691  0.9372 -0.8031  1.1392
 5896TIP3   OH217693   4.105   4.151   1.146 -0.0994 -0.3045  0.1266
 5896TIP3    H117694   4.108   4.157   1.242  0.6347 -1.0019  0.1446
 5896TIP3    H217695   4.185   4.195   1.117  0.0653 -0.7835 -0.1389
 5897TIP3   OH217696   2.712   4.219   1.282  0.4754  0.4092 -0.4604
 5897TIP3    H117697   2.658   4.155   1.237  0.7104  0.6220 -1.0459
 5897TIP3    H217698   2.651   4.269   1.336  0.3015 -0.3620  0.0696
 5898TIP3   OH217699   0.573   3.534   1.554 -0.3474 -0.5277  0.0159
 5898TIP3    H117700   0.504   3.599   1.566  1.6923  1.6029  0.5051
 5898TIP3    H217701   0.596   3.507   1.643  1.1510  0.6155 -0.0154
 5899TIP3   OH217702   4.421   5.745   1.784  0.1868 -0.1393 -0.1473
 5899TIP3    H117703   4.514   5.745   1.805  0.3606 -0.5478 -0.9105
 5899TIP3    H217704   4.410   5.672   1.722 -0.1696  1.5157 -2.0797
 5900TIP3   OH217705   1.670   0.259   2.018 -0.7149  0.2651 -0.0361
 5900TIP3    H117706   1.613   0.186   2.040  1.3303 -0.9739  1.3681
 5900TIP3    H217707   1.756   0.218   2.002  0.4624  2.3383  0.7548
 5901TIP3   OH217708   4.542   4.423   0.366  0.7654 -0.1361 -0.4080
 5901TIP3    H117709   4.549   4.389   0.455  0.8079  1.1191  0.0863
 5901TIP3    H217710   4.632   4.443   0.341  0.5221  1.9537  0.2723
 5902TIP3   OH217711   5.323   2.397   5.292 -0.1379  0.0684 -0.5911
 5902TIP3    H117712   5.361   2.481   5.267 -0.6154  0.4235 -0.1217
 5902TIP3    H217713   5.279   2.366   5.214  1.8101 -0.7421 -1.4099
 5903TIP3   OH217714   3.869   1.130   4.982 -0.4643  0.2524 -0.4158
 5903TIP3    H117715   3.901   1.040   4.992 -0.5353  0.2387 -0.3142
 5903TIP3    H217716   3.946   1.179   4.952 -0.2623  0.2851  0.1468
 5904TIP3   OH217717   2.460   5.425   1.351  0.4491 -0.0843  0.1689
 5904TIP3    H117718   2.472   5.442   1.444 -1.0322 -0.0773  0.3755
 5904TIP3    H217719   2.450   5.330   1.345  0.5816 -0.0883  0.0135
 5905TIP3   OH217720   6.430   3.835   0.301  0.9627 -0.0784  0.1940
 5905TIP3    H117721   6.467   3.822   0.214 -0.5411  2.1506 -0.8234
 5905TIP3    H217722   6.504   3.864   0.355  1.2446  1.9479 -1.2248
 5906TIP3   OH217723   1.321   5.377   0.743 -0.2224 -0.1530 -0.1370
 5906TIP3    H117724   1.343   5.444   0.808  0.5086  0.3975 -0.9375
 5906TIP3    H217725   1.251   5.416   0.691 -3.2375 -1.9077  2.4114
 5907TIP3   OH217726   0.216   4.765   1.229 -0.4568  0.0649 -0.1415
 5907TIP3    H117727   0.294   4.776   1.284 -1.9772  2.6026  1.6668
 5907TIP3    H217728   0.170   4.690   1.268 -1.0055  1.2057  1.4739
 5908TIP3   OH217729   1.362   4.437   0.434  0.3717 -0.0492 -0.8070
 5908TIP3    H117730   1.393   4.359   0.388  2.7304 -0.1101  0.8293
 5908TIP3    H217731   1.436   4.497   0.432 -0.1334  0.6785  1.2341
 5909TIP3   OH217732   4.601   1.932   3.266  0.1490 -0.3305 -0.5658
 5909TIP3    H117733   4.556   1.850   3.247  0.1235 -0.3431 -0.4504
 5909TIP3    H217734   4.675   1.906   3.321 -1.8485  0.1480  2.4168
 5910TIP3   OH217735   1.719   0.031   0.381  0.1398 -0.0117  0.1118
 5910TIP3    H117736   1.789   0.078   0.335 -0.7757  0.9451 -0.3416
 5910TIP3    H217737   1.645   0.093   0.381 -0.7514 -1.0589  0.4318
 5911TIP3   OH217738   1.338   3.319   0.024 -0.1409  0.1873  0.5255
 5911TIP3    H117739   1.419   3.361   0.052 -0.6774  1.5864  0.0301
 5911TIP3    H217740   1.294   3.385  -0.030 -0.4151 -1.4495 -1.3310
 5912TIP3   OH217741   4.902   2.418   3.876  0.5930  0.2604 -0.1994
 5912TIP3    H117742   4.993   2.419   3.847  0.5666 -1.3794 -0.4358
 5912TIP3    H217743   4.882   2.325   3.886 -1.3721  0.5530 -1.1654
 5913TIP3   OH217744   0.020   6.117   0.818  0.8304  0.2260  0.0345
 5913TIP3    H117745   0.088   6.050   0.822  1.8823  1.3071  0.4806
 5913TIP3    H217746   0.018   6.143   0.725 -0.4251 -1.2563 -0.3792
 5914TIP3   OH217747   3.779   2.379   4.107  0.3445 -0.1608 -0.9311
 5914TIP3    H117748   3.833   2.364   4.185 -0.7031  0.1465 -0.1473
 5914TIP3    H217749   3.784   2.473   4.093  0.0637 -0.1438 -0.9040
 5915TIP3   OH217750   4.142   0.692   2.229  0.8635  0.4461  0.0338
 5915TIP3    H117751   4.185   0.766   2.273  1.1377 -1.3987  3.0029
 5915TIP3    H217752   4.049   0.712   2.234  0.9779  0.9660  0.1600
 5916TIP3   OH217753   3.720   2.283   5.307  0.5599 -0.1232 -0.3273
 5916TIP3    H117754   3.663   2.239   5.244  0.1938 -1.1501  0.7082
 5916TIP3    H217755   3.767   2.349   5.255 -1.7167  0.8781 -1.1514
 5917TIP3   OH217756   0.877   3.410   1.697 -0.2236  0.1701  0.0826
 5917TIP3    H117757   0.889   3.338   1.758  1.3723  1.5878  1.4925
 5917TIP3    H217758   0.794   3.450   1.724  0.4759  0.7960  1.3559
 5918TIP3   OH217759   5.801   3.506   2.216  0.4782  0.0400  0.4168
 5918TIP3    H117760   5.746   3.475   2.288  1.7073 -0.6288  1.0857
 5918TIP3    H217761   5.880   3.538   2.258  0.3898  1.4910 -0.4965
 5919TIP3   OH217762   1.679   3.877   0.555 -0.4877  0.1495  0.6860
 5919TIP3    H117763   1.585   3.891   0.539 -0.7382 -0.3436  1.6981
 5919TIP3    H217764   1.722   3.940   0.497 -1.4173 -0.2654 -0.4960
 5920TIP3   OH217765   2.971   1.086   5.129  0.6708  0.5435  0.2525
 5920TIP3    H117766   2.976   1.159   5.067  1.6533 -0.3525 -0.7273
 5920TIP3    H217767   3.051   1.093   5.182 -0.6886  1.9778  2.2203
 5921TIP3   OH217768   3.416   4.980   0.274  0.3881  0.3511  0.0912
 5921TIP3    H117769   3.396   5.017   0.188  0.7274  0.1451 -0.0803
 5921TIP3    H217770   3.412   4.885   0.261 -0.0419  0.3225  0.4226
 5922TIP3   OH217771   6.347   4.132   2.425 -0.0075 -0.3540  0.4386
 5922TIP3    H117772   6.420   4.184   2.390  1.0995 -2.7782 -1.0052
 5922TIP3    H217773   6.308   4.188   2.492  1.4532  2.1173 -0.6670
 5923TIP3   OH217774   0.636   3.246   0.695  0.3371 -0.1284  0.1260
 5923TIP3    H117775   0.679   3.302   0.631 -0.4129 -0.7049 -0.8937
 5923TIP3    H217776   0.618   3.304   0.769 -0.4870  0.9892 -0.9346
 5924TIP3   OH217777   0.009   5.353   1.281  0.4164  0.2473  0.4106
 5924TIP3    H117778   0.086   5.357   1.337  0.6299  0.6314  0.0904
 5924TIP3    H217779   0.026   5.417   1.212 -0.4944  0.8273  0.7171
 5925TIP3   OH217780   0.113   3.900   0.070 -0.2311  0.6224 -0.5022
 5925TIP3    H117781   0.208   3.886   0.067 -0.0790  0.8180  1.8027
 5925TIP3    H217782   0.077   3.843   0.002  1.4089 -0.8662 -0.1492
 5926TIP3   OH217783   2.146   4.732   1.114  0.0538  0.5929 -0.1575
 5926TIP3    H117784   2.129   4.638   1.119 -0.9939  0.8044  0.2724
 5926TIP3    H217785   2.204   4.750   1.188  0.5019  0.2353 -0.4200
 5927TIP3   OH217786   2.347   4.929   0.047  0.4343  0.0715  0.2657
 5927TIP3    H117787   2.338   4.913   0.141 -1.0739 -0.6048  0.0190
 5927TIP3    H217788   2.441   4.922   0.031  0.7080  0.1209  1.7040
 5928TIP3   OH217789   1.315   4.367   1.677 -0.4944  0.3722  0.0152
 5928TIP3    H117790   1.261   4.297   1.716  0.0366 -0.3624 -0.5597
 5928TIP3    H217791   1.277   4.448   1.712 -0.6534 -0.2260  1.2886
 5929TIP3   OH217792   0.434   4.051   1.188 -0.1125  0.2349  0.3329
 5929TIP3    H117793   0.414   3.958   1.198 -1.8138  0.7418  2.2530
 5929TIP3    H217794   0.434   4.066   1.094 -0.6124 -1.5521  0.0288
 5930TIP3   OH217795   3.597   2.621   5.157  0.1909 -0.0294  0.5868
 5930TIP3    H117796   3.626   2.572   5.080  2.0503  1.3510  0.3637
 5930TIP3    H217797   3.517   2.666   5.128 -0.7226 -1.7659  0.3702
 5931TIP3   OH217798   1.398   6.119   0.085  0.5692 -0.2537 -0.1822
 5931TIP3    H117799   1.449   6.152   0.159 -0.1243  1.8869 -0.6204
 5931TIP3    H217800   1.351   6.043   0.119  0.5325  0.5008  1.4825
 5932TIP3   OH217801   2.183   4.284   0.179  0.0298  0.4373  0.5875
 5932TIP3    H117802   2.112   4.326   0.228 -1.3353 -1.4781  0.3146
 5932TIP3    H217803   2.234   4.238   0.245  1.1145  1.9374  0.8017
 5933TIP3   OH217804   0.410   1.598   5.101 -0.5609  0.0353  0.0174
 5933TIP3    H117805   0.473   1.580   5.170 -1.5930  1.2319  1.3183
 5933TIP3    H217806   0.433   1.538   5.030  1.0287 -0.6321  1.0787
 5934TIP3   OH217807   1.189  -0.010   0.212 -0.4571 -0.7815 -0.1040
 5934TIP3    H117808   1.117   0.050   0.235  0.2247 -0.2892  0.7719
 5934TIP3    H217809   1.226  -0.036   0.296  0.5228 -0.8678 -0.5590
 5935TIP3   OH217810   5.489   3.757   0.327 -0.5661 -0.7286 -0.5436
 5935TIP3    H117811   5.584   3.752   0.336 -0.3891  2.3988 -0.0519
 5935TIP3    H217812   5.461   3.666   0.317  2.4676 -1.7024 -0.7825
 5936TIP3   OH217813   5.514   4.696   2.700  0.3241 -0.1075 -0.2245
 5936TIP3    H117814   5.529   4.602   2.714 -1.8245 -0.1400  2.3568
 5936TIP3    H217815   5.441   4.699   2.637  0.5600 -0.1433 -0.5032
 5937TIP3   OH217816   5.548   2.497   4.549  0.1230 -0.5245  0.1641
 5937TIP3    H117817   5.500   2.566   4.594  1.4615 -0.8799  2.1761
 5937TIP3    H217818   5.571   2.434   4.617  2.6937 -0.7919 -0.8727
 5938TIP3   OH217819   1.041   0.016   5.089  0.1524  0.3164 -0.2665
 5938TIP3    H117820   1.030  -0.027   5.173 -0.7689  0.6872 -0.1860
 5938TIP3    H217821   1.135   0.021   5.076  0.2767 -1.1072  0.0423
 5939TIP3   OH217822   0.808   1.798   5.212  0.1409  0.4000  0.3990
 5939TIP3    H117823   0.776   1.887   5.227 -0.9599 -0.1429  1.4117
 5939TIP3    H217824   0.850   1.773   5.295 -1.1000 -0.6384  0.7403
 5940TIP3   OH217825   0.627   5.107   0.318  0.0394 -0.0029 -0.1310
 5940TIP3    H117826   0.642   5.167   0.246  0.7228  0.6455  0.5357
 5940TIP3    H217827   0.532   5.098   0.324 -0.0677  1.0346 -0.2164
 5941TIP3   OH217828   1.718   4.585   0.608  0.4495  0.1962  0.5419
 5941TIP3    H117829   1.631   4.586   0.648 -0.1759  0.0443 -0.7940
 5941TIP3    H217830   1.767   4.652   0.655 -0.7159  1.0306  0.5692
 5942TIP3   OH217831   6.122   0.086   5.011 -0.2116  0.2216  0.3746
 5942TIP3    H117832   6.131   0.152   5.080  1.5633  1.2269 -0.7955
 5942TIP3    H217833   6.027   0.074   5.003 -0.6482  3.3578 -0.0316
 5943TIP3   OH217834   1.512   0.617   5.079  0.6155  0.7708 -0.0918
 5943TIP3    H117835   1.597   0.646   5.047  0.1049  2.3368 -0.0537
 5943TIP3    H217836   1.490   0.677   5.150 -1.1329  1.2726 -1.0019
 5944TIP3   OH217837   1.094   4.715   2.382  0.2677  0.4700  0.0462
 5944TIP3    H117838   1.149   4.678   2.313 -0.7384 -1.1516  0.0905
 5944TIP3    H217839   1.006   4.685   2.361 -0.2537  1.0752  1.2995
 5945TIP3   OH217840   3.167   0.339   0.115 -0.0142 -0.0428 -0.2224
 5945TIP3    H117841   3.186   0.404   0.047  1.0106 -1.8611 -1.7288
 5945TIP3    H217842   3.253   0.306   0.141 -0.5602 -1.3400 -0.0315
 5946TIP3   OH217843   0.296   5.730   1.568 -0.5148  0.0896  0.2482
 5946TIP3    H117844   0.345   5.648   1.572 -1.5054 -0.5175  0.0767
 5946TIP3    H217845   0.289   5.749   1.475  0.7085  0.9944  0.3156
 5947TIP3   OH217846   6.413   5.687   2.643  0.2010  0.1183 -0.2672
 5947TIP3    H117847   6.430   5.747   2.715 -1.2680  0.4509 -0.1983
 5947TIP3    H217848   6.479   5.710   2.577  1.7841 -0.4219  1.0713
 5948TIP3   OH217849   3.922   4.975   1.309 -0.1286 -0.0862  0.5094
 5948TIP3    H117850   3.851   4.930   1.354 -1.0872  3.1340  2.3500
 5948TIP3    H217851   3.997   4.967   1.368 -0.5879  1.6183  1.3308
 5949TIP3   OH217852   1.017   4.294   1.080 -0.2912  0.5206  0.2250
 5949TIP3    H117853   1.074   4.357   1.036 -1.1173  0.4868 -0.9217
 5949TIP3    H217854   0.943   4.346   1.112  1.3768  0.9392  3.6401
 5950TIP3   OH217855   2.187   0.718   0.362 -0.0911  0.0552  0.3739
 5950TIP3    H117856   2.173   0.812   0.359  0.9896  0.3092  2.3350
 5950TIP3    H217857   2.279   0.706   0.338 -0.1623 -0.4777  0.3549
 5951TIP3   OH217858   3.414   1.034   3.410  0.4765 -0.4301 -0.2722
 5951TIP3    H117859   3.356   0.977   3.459 -0.7794  0.2289 -0.9687
 5951TIP3    H217860   3.502   1.002   3.429 -0.1355 -1.6073  0.5685
 5952TIP3   OH217861   3.661   2.501   4.903  0.3279  0.4430 -0.7317
 5952TIP3    H117862   3.633   2.562   4.835 -0.9907  1.8469  0.9829
 5952TIP3    H217863   3.589   2.438   4.909  0.1689  0.6542 -0.3033
 5953TIP3   OH217864   5.994   2.162   5.233  0.7616  0.2379 -0.1022
 5953TIP3    H117865   5.945   2.205   5.162  1.5034  0.2562 -0.6162
 5953TIP3    H217866   5.984   2.069   5.215 -0.5178  0.1866  0.7871
 5954TIP3   OH217867   1.531   1.182   0.792 -0.3937  0.4388  0.4999
 5954TIP3    H117868   1.499   1.092   0.782 -1.8600  0.8932  0.9727
 5954TIP3    H217869   1.486   1.230   0.723  0.1159  0.8772  0.4776
 5955TIP3   OH217870   0.198   5.229   0.968  0.1365  0.4497 -0.5948
 5955TIP3    H117871   0.133   5.159   0.963 -0.5099  0.8811  1.4119
 5955TIP3    H217872   0.149   5.305   0.999  1.3461  1.1195 -0.3203
 5956TIP3   OH217873   3.218   4.833   2.159  0.3293  0.0557  0.3938
 5956TIP3    H117874   3.285   4.804   2.221  0.6000 -0.9336 -0.3578
 5956TIP3    H217875   3.142   4.778   2.178 -0.2890  1.1690  1.2397
 5957TIP3   OH217876   0.295   3.044   4.462  1.3924 -0.2831  0.1090
 5957TIP3    H117877   0.298   3.097   4.383  2.4839  0.6309  0.7402
 5957TIP3    H217878   0.247   3.098   4.526 -1.2272 -1.8207 -0.4803
 5958TIP3   OH217879   2.085   5.304   2.056 -0.1201  0.0271  0.3377
 5958TIP3    H117880   2.018   5.371   2.065  1.4900  1.6789  0.2983
 5958TIP3    H217881   2.044   5.236   2.002 -1.4324  1.4329 -0.4781
 5959TIP3   OH217882   5.320   2.685   2.808  0.0016  0.1149  0.7169
 5959TIP3    H117883   5.232   2.649   2.818  0.1889 -0.8520 -0.9579
 5959TIP3    H217884   5.305   2.776   2.781 -0.5538 -0.8403 -2.4317
 5960TIP3   OH217885   5.696   2.762   5.167  0.2724  0.4608  0.0311
 5960TIP3    H117886   5.726   2.815   5.093  0.2747 -0.8444 -0.9344
 5960TIP3    H217887   5.636   2.819   5.215  1.9618  2.0733  0.2801
 5961TIP3   OH217888   0.655   0.818   0.276 -0.1006  0.3741  0.0644
 5961TIP3    H117889   0.708   0.744   0.249  0.0190  0.2397  0.6614
 5961TIP3    H217890   0.601   0.785   0.348  0.2867  0.9876  0.6440
 5962TIP3   OH217891   3.830   5.590   0.986 -0.2186  0.1391  0.4773
 5962TIP3    H117892   3.809   5.594   1.079 -1.7820 -0.9344  0.1910
 5962TIP3    H217893   3.901   5.526   0.980 -0.1794  0.1378  0.9197
 5963TIP3   OH217894   4.240   0.482   0.930  0.3298  0.0773  0.2243
 5963TIP3    H117895   4.305   0.527   0.876 -0.8094  0.6837 -0.6505
 5963TIP3    H217896   4.218   0.546   0.999  2.1754 -0.8882  1.7515
 5964TIP3   OH217897   3.697   3.916   3.455 -1.1084 -0.0333 -0.1936
 5964TIP3    H117898   3.635   3.913   3.528  0.1317  1.5355  0.9711
 5964TIP3    H217899   3.668   3.991   3.403  0.3063  1.3244  0.8847
 5965TIP3   OH217900   2.184   3.747   4.004  0.0871 -0.1087 -0.0617
 5965TIP3    H117901   2.097   3.786   3.999  0.4318  0.6232 -0.4595
 5965TIP3    H217902   2.180   3.671   3.946 -1.0270 -1.5519  1.8118
 5966TIP3   OH217903   4.800   0.061   2.563  0.0609 -0.2433 -0.2836
 5966TIP3    H117904   4.861   0.030   2.630  0.7685  0.0212 -0.8002
 5966TIP3    H217905   4.822   0.153   2.550 -2.0658  0.5286  1.2805
 5967TIP3   OH217906   0.811   0.449   2.453  0.2215 -0.2122 -0.1486
 5967TIP3    H117907   0.805   0.357   2.480  1.4438 -0.0097  0.8854
 5967TIP3    H217908   0.732   0.490   2.488  0.7141 -0.4299  1.2474
 5968TIP3   OH217909   0.121   0.684   0.632 -0.2620 -0.2060 -0.7116
 5968TIP3    H117910   0.194   0.666   0.691  0.1740  0.1780 -1.1312
 5968TIP3    H217911   0.089   0.770   0.659 -0.0965 -0.0538 -0.9994
 5969TIP3   OH217912   4.912   3.565   1.734  0.0576 -0.2629 -0.2457
 5969TIP3    H117913   4.957   3.645   1.707  0.3946 -0.6000 -0.6928
 5969TIP3    H217914   4.886   3.581   1.825  0.3715  0.2434 -0.2453
 5970TIP3   OH217915   6.179   2.393   4.721  0.8081 -0.0270  0.4122
 5970TIP3    H117916   6.183   2.353   4.809  0.8419 -0.7203  0.1016
 5970TIP3    H217917   6.270   2.412   4.700  1.0783 -2.2539 -0.5430
 5971TIP3   OH217918   5.713   1.192   3.295  0.4166 -0.0239  0.2284
 5971TIP3    H117919   5.806   1.214   3.302  0.2732  0.5920  0.1719
 5971TIP3    H217920   5.687   1.225   3.209 -0.0356  0.4709  0.5529
 5972TIP3   OH217921   0.612   1.771   2.287  1.3774  0.1700 -0.1795
 5972TIP3    H117922   0.604   1.857   2.329  0.1806  0.8389 -1.7292
 5972TIP3    H217923   0.594   1.709   2.357 -2.1100  1.2903  0.0056
 5973TIP3   OH217924   1.532   3.709   4.022  0.5505 -0.2879 -0.2158
 5973TIP3    H117925   1.500   3.748   4.103 -2.2758  0.4408 -1.6127
 5973TIP3    H217926   1.498   3.765   3.953  2.3052 -1.3072 -1.9646
 5974TIP3   OH217927   0.110   0.761   4.872 -0.2251 -0.2344 -0.2313
 5974TIP3    H117928   0.202   0.753   4.847 -0.8772 -1.1330 -2.4446
 5974TIP3    H217929   0.069   0.681   4.838 -1.4519 -0.8566  2.5635
 5975TIP3   OH217930   6.170   0.573   1.120 -0.4501 -0.0007 -0.0356
 5975TIP3    H117931   6.211   0.648   1.076 -0.3921 -0.7203 -1.2308
 5975TIP3    H217932   6.085   0.606   1.148 -0.6941  0.3458 -1.1316
 5976TIP3   OH217933   5.645   2.860   2.609  0.4438  0.0489 -0.0408
 5976TIP3    H117934   5.562   2.877   2.564 -0.1740 -0.6926  0.8029
 5976TIP3    H217935   5.703   2.930   2.580  0.1401 -0.5520 -2.1893
 5977TIP3   OH217936   1.219   1.403   3.146  0.4158  0.0482 -0.3251
 5977TIP3    H117937   1.293   1.460   3.124  0.6460 -0.1476 -0.0620
 5977TIP3    H217938   1.161   1.408   3.070  2.1243 -2.1669 -1.8414
 5978TIP3   OH217939   0.215   1.792   1.346 -0.1375  0.5281 -0.1296
 5978TIP3    H117940   0.237   1.739   1.423 -0.2930 -0.2664 -0.6278
 5978TIP3    H217941   0.178   1.872   1.383  0.1216  0.3061  0.6354
 5979TIP3   OH217942   3.654   5.787   0.590 -0.0981  0.3275  0.7913
 5979TIP3    H117943   3.616   5.866   0.629 -0.5497  0.4456  0.1111
 5979TIP3    H217944   3.593   5.762   0.521 -0.8419 -1.5844  2.0980
 5980TIP3   OH217945   2.255   3.284   4.510  0.2833 -0.0471  0.0658
 5980TIP3    H117946   2.345   3.279   4.477  0.1997  1.1601 -0.3699
 5980TIP3    H217947   2.259   3.352   4.578 -0.8708  2.1003 -1.9362
 5981TIP3   OH217948   1.331   5.108   5.079  0.3212 -0.3211  0.0887
 5981TIP3    H117949   1.369   5.086   5.165 -1.3384  0.9891  1.1826
 5981TIP3    H217950   1.398   5.163   5.037  0.9086 -0.5035  0.7709
 5982TIP3   OH217951   3.883   0.347   1.529 -0.3461 -0.2793 -0.0563
 5982TIP3    H117952   3.841   0.298   1.459  1.0953 -1.0327 -0.4198
 5982TIP3    H217953   3.952   0.289   1.561 -0.4323  0.4008  1.4081
 5983TIP3   OH217954   1.757   0.721   2.611 -0.5571 -0.1699  0.2397
 5983TIP3    H117955   1.742   0.687   2.523  0.3815 -1.1249  0.4440
 5983TIP3    H217956   1.754   0.817   2.600 -1.5974 -0.2853 -0.6076
 5984TIP3   OH217957   2.638   0.431   3.615 -0.0925 -0.5886 -0.5199
 5984TIP3    H117958   2.691   0.496   3.660 -0.1676 -0.9729  0.1237
 5984TIP3    H217959   2.687   0.349   3.624  2.0373  0.0963 -4.7859
 5985TIP3   OH217960   5.495   1.352   3.368 -0.6103  0.6980 -0.0399
 5985TIP3    H117961   5.475   1.343   3.275 -1.9412 -0.1721  0.3066
 5985TIP3    H217962   5.560   1.283   3.385 -1.1256  0.1952 -0.1094
 5986TIP3   OH217963   0.679   1.018   0.956 -0.3151 -0.2320 -0.4255
 5986TIP3    H117964   0.583   1.022   0.958 -0.2750  0.6188  0.6457
 5986TIP3    H217965   0.699   0.925   0.969 -0.9798 -0.1127  1.8045
 5987TIP3   OH217966   1.954   1.528   0.152 -0.0452 -0.0415  0.2921
 5987TIP3    H117967   1.974   1.435   0.167 -1.0889 -0.4435 -0.7214
 5987TIP3    H217968   1.996   1.549   0.069 -1.5437 -0.1864 -0.5276
 5988TIP3   OH217969   1.201   4.307   5.031  0.0321  0.1758  0.0934
 5988TIP3    H117970   1.179   4.301   5.124 -1.2421  0.7522 -0.1596
 5988TIP3    H217971   1.241   4.222   5.010 -0.4674 -0.2751  0.9623
 5989TIP3   OH217972   5.998   5.434   1.629 -0.0995 -0.0596 -0.0020
 5989TIP3    H117973   5.990   5.466   1.539  2.4353  1.7538  0.3647
 5989TIP3    H217974   5.941   5.358   1.632 -0.2641 -0.1468 -3.1453
 5990TIP3   OH217975   5.435   6.073   2.574 -0.2251  0.2634 -0.5104
 5990TIP3    H117976   5.480   6.118   2.503  0.0007  0.3767 -0.2958
 5990TIP3    H217977   5.480   6.102   2.653  0.9690 -1.5933 -0.4902
 5991TIP3   OH217978   5.169   6.029   0.625 -0.3058 -0.3745 -0.3664
 5991TIP3    H117979   5.207   5.990   0.546  1.0368 -0.5470  0.3392
 5991TIP3    H217980   5.229   6.100   0.648 -0.8070 -0.1812  0.3580
 5992TIP3   OH217981   5.513   5.732   2.744  0.1737  0.0140  0.3172
 5992TIP3    H117982   5.544   5.668   2.680  2.3283  3.2044 -2.0181
 5992TIP3    H217983   5.438   5.690   2.786  1.9030 -4.2487 -0.6142
 5993TIP3   OH217984   0.181   4.674   0.039  0.7646  0.0935  0.7527
 5993TIP3    H117985   0.235   4.719   0.105  2.3061 -0.4547 -0.1033
 5993TIP3    H217986   0.091   4.684   0.071  1.3319  1.3116  2.0489
 5994TIP3   OH217987   1.034   1.017   0.955 -0.3734  0.4959  0.0358
 5994TIP3    H117988   0.994   1.016   1.042 -0.1036  3.1832  0.2299
 5994TIP3    H217989   0.962   1.040   0.896 -0.0988  0.7279 -0.2071
 5995TIP3   OH217990   3.094   5.956   0.356  0.1017 -0.4392  0.0360
 5995TIP3    H117991   3.142   6.035   0.333  0.0984 -0.4450  0.0100
 5995TIP3    H217992   3.042   5.936   0.278  1.0184 -1.1541 -0.3961
 5996TIP3   OH217993   0.253   1.132   1.480 -0.2066 -0.2497 -0.2894
 5996TIP3    H117994   0.190   1.204   1.474  0.7846  0.5367 -1.2982
 5996TIP3    H217995   0.266   1.104   1.389  1.3335 -0.0530 -0.1262
 5997TIP3   OH217996   5.981   5.271   1.201  0.1587  0.3585 -0.4328
 5997TIP3    H117997   6.006   5.186   1.166  1.0430  0.4432 -0.0140
 5997TIP3    H217998   6.057   5.300   1.252 -0.6107  0.8209  0.4677
 5998TIP3   OH217999   1.193   4.859   1.581 -0.2572  0.0631  0.0111
 5998TIP3    H118000   1.274   4.864   1.632  1.3861 -0.0267 -2.4787
 5998TIP3    H218001   1.148   4.783   1.616  1.5173 -0.8432  0.4158
 5999TIP3   OH218002   3.053   3.226   4.389 -0.2347 -0.0678  0.6596
 5999TIP3    H118003   2.986   3.274   4.339 -0.1785  0.3278  0.9620
 5999TIP3    H218004   3.131   3.281   4.383  0.1410 -0.6594  0.0830
 6000TIP3   OH218005   4.982   5.611   0.326 -0.2466  0.5238 -0.0074
 6000TIP3    H118006   5.007   5.600   0.234  1.8862 -1.5540  0.7965
 6000TIP3    H218007   4.962   5.523   0.356 -0.0545  1.0796  1.7729
 6001TIP3   OH218008   0.434   0.511   1.980 -0.0278 -0.3070  0.5388
 6001TIP3    H118009   0.397   0.529   2.066 -1.1313  1.4034 -0.2656
 6001TIP3    H218010   0.526   0.539   1.987 -0.7541  2.1818  0.4311
 6002TIP3   OH218011   1.087   1.488   0.957  0.2407  0.0017  0.5422
 6002TIP3    H118012   1.085   1.423   1.027 -0.1245 -0.2292  0.3241
 6002TIP3    H218013   1.018   1.551   0.980  2.2214  1.6972  2.0409
 6003TIP3   OH218014   6.003   1.345   1.218 -0.6773 -0.0808 -0.2597
 6003TIP3    H118015   6.091   1.350   1.255 -0.4684  0.3956 -0.8315
 6003TIP3    H218016   5.983   1.251   1.217 -0.8984 -0.0714  1.5706
 6004TIP3   OH218017   1.532   1.255   2.100  0.5379 -0.4336 -0.5423
 6004TIP3    H118018   1.580   1.174   2.082  1.2059 -0.0497 -0.4942
 6004TIP3    H218019   1.443   1.225   2.121  0.9418 -1.2057  0.1170
 6005TIP3   OH218020   3.434   4.654   5.208 -0.2456  0.2954  0.3023
 6005TIP3    H118021   3.385   4.678   5.130 -1.8560 -4.1632 -0.2020
 6005TIP3    H218022   3.523   4.639   5.176 -0.8131 -1.1586 -0.6334
 6006TIP3   OH218023   5.458   5.097   3.936 -0.2537 -0.4240 -0.3711
 6006TIP3    H118024   5.407   5.177   3.925 -0.3450 -0.3881  0.2501
 6006TIP3    H218025   5.408   5.029   3.890  0.1012 -0.0151 -1.3551
 6007TIP3   OH218026   2.135   0.173   0.343  0.4613  0.4157 -0.3031
 6007TIP3    H118027   2.199   0.242   0.324 -0.1173  1.0706  0.0798
 6007TIP3    H218028   2.050   0.214   0.325  0.1447 -0.3910 -0.6466
 6008TIP3   OH218029   5.697   5.587   0.173  0.0894 -0.1395  0.3426
 6008TIP3    H118030   5.738   5.552   0.094 -1.4803  0.2777 -0.6708
 6008TIP3    H218031   5.764   5.644   0.211  0.6212  0.1867 -1.0507
 6009TIP3   OH218032   1.774   2.720   5.099 -0.1226 -0.2508  0.2894
 6009TIP3    H118033   1.748   2.799   5.052 -0.1900  1.2058  2.6940
 6009TIP3    H218034   1.739   2.648   5.047 -2.1480  1.3975 -0.6870
 6010TIP3   OH218035   3.561   5.197   3.572 -0.0239 -0.1539  0.0373
 6010TIP3    H118036   3.534   5.179   3.662 -0.2907 -0.6770 -0.1464
 6010TIP3    H218037   3.593   5.113   3.540  0.6908  0.1850 -0.1426
 6011TIP3   OH218038   0.234   4.210   0.023  0.3481 -0.3710  0.1909
 6011TIP3    H118039   0.322   4.196   0.059  0.8745  0.1532 -0.8819
 6011TIP3    H218040   0.248   4.237  -0.068 -0.8400  1.6682  0.5710
 6012TIP3   OH218041   4.976   4.232   0.383  0.0437 -0.0152  0.0957
 6012TIP3    H118042   5.003   4.317   0.418  0.2401 -0.9867  2.3841
 6012TIP3    H218043   5.059   4.188   0.361 -0.0005 -0.1526  0.2069
 6013TIP3   OH218044   1.102   1.545   0.685 -0.1302 -0.6495 -0.3884
 6013TIP3    H118045   1.054   1.479   0.634  2.7757 -1.7560 -1.7660
 6013TIP3    H218046   1.097   1.514   0.776 -0.3448 -1.7777 -0.7822
 6014TIP3   OH218047   6.526   1.455   1.163 -0.1844 -0.3911 -0.4596
 6014TIP3    H118048   6.475   1.511   1.221 -0.7187 -0.9280 -0.3998
 6014TIP3    H218049   6.473   1.446   1.084  0.6725  0.5747 -1.1648
 6015TIP3   OH218050   0.549   1.377   2.365 -0.0432 -0.2417  0.3643
 6015TIP3    H118051   0.569   1.294   2.321  0.0619  0.1837 -0.4080
 6015TIP3    H218052   0.485   1.420   2.307  1.2840  1.0353 -0.1789
 6016TIP3   OH218053   5.140   5.506   0.090 -0.2221 -0.0738 -0.2650
 6016TIP3    H118054   5.207   5.464   0.036 -0.5214  0.3534 -0.9791
 6016TIP3    H218055   5.133   5.594   0.054 -0.4069  0.2249  0.4982
 6017TIP3   OH218056   6.038   4.567   2.565  0.4327  0.0444  0.2814
 6017TIP3    H118057   6.110   4.629   2.550  2.0532 -1.6077  1.1125
 6017TIP3    H218058   6.058   4.493   2.508 -1.1244 -0.0331 -0.1789
 6018TIP3   OH218059   5.772   5.230   1.609 -0.0350  0.2351  0.2650
 6018TIP3    H118060   5.701   5.238   1.545  0.0431  1.3075  0.3011
 6018TIP3    H218061   5.731   5.250   1.693 -0.0264 -0.6820  0.4961
 6019TIP3   OH218062   3.120   0.801   1.605  0.0562  0.4717 -0.3130
 6019TIP3    H118063   3.107   0.755   1.688  2.0609  0.4485  0.0142
 6019TIP3    H218064   3.051   0.768   1.548  0.1342 -1.3170  0.5948
 6020TIP3   OH218065   1.096   0.301   2.454 -0.0100 -0.0903 -0.3929
 6020TIP3    H118066   1.064   0.277   2.367  0.7760 -1.4635 -0.3153
 6020TIP3    H218067   1.191   0.306   2.444 -0.0991  2.5848 -0.2802
 6021TIP3   OH218068   4.032   5.851   2.573 -0.1640  0.1807  0.1127
 6021TIP3    H118069   4.086   5.833   2.650 -2.0239  0.1076  1.4308
 6021TIP3    H218070   3.984   5.770   2.557 -0.3236  0.4274 -0.6720
 6022TIP3   OH218071   1.185   0.021   2.286  0.2791  0.1569 -0.9397
 6022TIP3    H118072   1.096   0.055   2.297  0.5645  1.2535 -1.8825
 6022TIP3    H218073   1.174  -0.074   2.283 -0.5601  0.1305  1.5416
 6023TIP3   OH218074   4.941   3.917   1.401  0.3120 -0.2099 -0.1081
 6023TIP3    H118075   4.987   3.997   1.376 -1.1038  1.0903  1.2902
 6023TIP3    H218076   5.010   3.853   1.416  1.4355  0.5252 -1.9356
 6024TIP3   OH218077   4.134   4.533   1.382  0.5524  0.2806 -0.2739
 6024TIP3    H118078   4.074   4.460   1.396 -0.0175  0.7447 -0.3119
 6024TIP3    H218079   4.218   4.500   1.414  0.2298 -0.2773  0.0173
 6025TIP3   OH218080   4.891   6.089   0.711 -0.2656 -0.4040 -0.1786
 6025TIP3    H118081   4.974   6.093   0.662 -0.7154 -0.8130 -0.9736
 6025TIP3    H218082   4.917   6.059   0.798  0.3265 -1.2919 -0.6526
 6026TIP3   OH218083   5.892   5.748   1.129  0.2055 -0.1811  0.2582
 6026TIP3    H118084   5.968   5.800   1.101 -1.2886  1.8678 -0.0496
 6026TIP3    H218085   5.911   5.660   1.096  1.2367  0.8684 -2.0933
 6027TIP3   OH218086   5.004   5.700   0.910 -0.1087 -0.0952 -0.5318
 6027TIP3    H118087   4.936   5.710   0.977 -2.3963 -0.7688 -2.6619
 6027TIP3    H218088   4.968   5.636   0.848  1.6690  0.9402 -2.7303
 6028TIP3   OH218089   2.268   1.843   2.609 -0.5829  0.3965  0.1854
 6028TIP3    H118090   2.274   1.934   2.579  0.4235  0.7551  1.3956
 6028TIP3    H218091   2.298   1.847   2.700 -1.3548 -1.0157  0.5142
 6029TIP3   OH218092   0.194   0.898   1.893 -0.9182 -0.2690  0.1337
 6029TIP3    H118093   0.149   0.950   1.826  0.5614 -0.6132 -1.1849
 6029TIP3    H218094   0.239   0.830   1.843  1.5197  0.4004  1.2964
 6030TIP3   OH218095   5.266   4.745   3.098 -0.0758  0.0771  0.0010
 6030TIP3    H118096   5.182   4.737   3.142  0.9688 -1.0723  1.8422
 6030TIP3    H218097   5.321   4.793   3.160  0.9711 -0.1916 -0.7025
 6031TIP3   OH218098   1.393   1.774   1.849  0.0145  0.1191 -0.3860
 6031TIP3    H118099   1.487   1.781   1.869  0.0738 -2.5309  0.6039
 6031TIP3    H218100   1.387   1.784   1.754  1.5084 -1.1146 -0.6345
 6032TIP3   OH218101   4.797   4.600   1.759  0.4068 -0.3921 -0.0931
 6032TIP3    H118102   4.802   4.574   1.667  1.7015 -0.9363  0.1157
 6032TIP3    H218103   4.879   4.569   1.797 -0.3481 -0.6693  1.3699
 6033TIP3   OH218104   1.192   0.335   1.451 -0.5682 -0.1441  0.3902
 6033TIP3    H118105   1.280   0.328   1.414 -0.4254 -1.2102  0.9068
 6033TIP3    H218106   1.204   0.388   1.530 -0.8294  1.9073 -0.9049
 6034TIP3   OH218107   0.181   4.196   2.107  0.6505  0.4045  0.4765
 6034TIP3    H118108   0.177   4.147   2.025 -0.0794  0.4426  0.4885
 6034TIP3    H218109   0.179   4.288   2.080  1.6470  0.4301  0.4735
 6035TIP3   OH218110   5.418   5.445   1.163 -0.0495  0.8145 -0.0289
 6035TIP3    H118111   5.360   5.516   1.137 -0.9260  0.4201  0.8548
 6035TIP3    H218112   5.503   5.487   1.177  0.1072  1.2646 -2.1318
 6036TIP3   OH218113   0.605   1.305   2.755  0.1404  0.0068  0.1345
 6036TIP3    H118114   0.601   1.380   2.815  0.9853 -0.4189  0.7346
 6036TIP3    H218115   0.666   1.245   2.797 -0.3363 -0.9068 -0.4778
 6037TIP3   OH218116   0.279   6.069   1.444  0.3579 -0.2531  0.0044
 6037TIP3    H118117   0.228   6.068   1.525 -0.6693 -0.8255 -0.6319
 6037TIP3    H218118   0.264   5.983   1.405  2.4153 -0.7126  0.1600
 6038TIP3   OH218119   0.865   0.875   3.255  0.6345 -0.5350 -0.0090
 6038TIP3    H118120   0.879   0.782   3.235 -1.9156 -1.1977  1.0771
 6038TIP3    H218121   0.789   0.899   3.203  1.7193  1.1630 -0.8342
 6039TIP3   OH218122   0.536   1.114   0.453 -0.4503  0.0703  0.1229
 6039TIP3    H118123   0.489   1.076   0.379 -0.5714  1.5342 -0.5767
 6039TIP3    H218124   0.516   1.057   0.526 -0.2863 -1.4445 -0.9864
 6040TIP3   OH218125   2.496   1.496   1.186 -0.2624  0.2350 -0.3712
 6040TIP3    H118126   2.410   1.507   1.143 -0.4728  1.1218  0.2502
 6040TIP3    H218127   2.500   1.568   1.249  0.9706  0.2293 -0.4337
 6041TIP3   OH218128   4.781   6.012   2.840 -0.1110 -0.5889 -0.2025
 6041TIP3    H118129   4.832   5.931   2.834  1.7928  0.5612  0.0909
 6041TIP3    H218130   4.847   6.081   2.846 -1.7208  0.9626 -0.1134
 6042TIP3   OH218131   1.653   1.817   1.231  0.1268  0.1959  0.1490
 6042TIP3    H118132   1.643   1.880   1.303  0.1138  2.1624 -1.5290
 6042TIP3    H218133   1.668   1.871   1.154 -0.3662 -1.8614 -1.4332
 6043TIP3   OH218134   0.584   0.510   0.085 -0.3852 -0.1815 -0.4397
 6043TIP3    H118135   0.553   0.439   0.142 -0.0009  1.2206  1.5669
 6043TIP3    H218136   0.663   0.543   0.129  0.2895  0.5134 -2.1333
 6044TIP3   OH218137   4.422   3.375   4.559 -0.1167 -0.3122 -0.8130
 6044TIP3    H118138   4.506   3.336   4.580 -0.4895 -0.0269  1.3295
 6044TIP3    H218139   4.441   3.439   4.491  1.3973 -0.2475 -0.3414
 6045TIP3   OH218140   4.723   0.857   4.416 -0.0182 -0.3324  0.6874
 6045TIP3    H118141   4.680   0.930   4.460  0.1684  1.0690 -1.4084
 6045TIP3    H218142   4.663   0.832   4.346  0.0642 -1.9992  1.1854
 6046TIP3   OH218143   5.536   1.282   0.447  0.6289 -0.0872  0.0639
 6046TIP3    H118144   5.485   1.351   0.489  1.1012  0.6487 -0.5536
 6046TIP3    H218145   5.565   1.226   0.519 -0.3647 -0.0626  0.4998
 6047TIP3   OH218146   0.181   2.055   1.389  0.1457  0.2069  0.5306
 6047TIP3    H118147   0.131   2.091   1.316  0.1690  0.4774  0.6462
 6047TIP3    H218148   0.187   2.127   1.451  1.2919  0.3872  0.2097
 6048TIP3   OH218149   0.140   0.693   0.104 -0.0142  0.3102  0.4386
 6048TIP3    H118150   0.126   0.755   0.175  1.1545  1.6334 -0.4551
 6048TIP3    H218151   0.137   0.607   0.146 -0.4898  1.0144  1.8825
 6049TIP3   OH218152   6.308   4.336   2.673  0.8541  0.7330  0.1336
 6049TIP3    H118153   6.217   4.362   2.684  0.2030 -0.8413 -1.3704
 6049TIP3    H218154   6.349   4.411   2.629  0.2374  1.3464  0.6065
 6050TIP3   OH218155   4.327   4.183   2.163  0.2248 -0.2731 -0.0182
 6050TIP3    H118156   4.259   4.115   2.162 -1.5807  1.4981 -0.0623
 6050TIP3    H218157   4.372   4.172   2.079 -2.3114  0.7621 -1.5834
 6051TIP3   OH218158   3.917   4.783   0.667  0.2728  0.3946  0.4977
 6051TIP3    H118159   3.896   4.690   0.665 -0.7321  0.6422 -1.4587
 6051TIP3    H218160   3.938   4.801   0.759  1.6209 -1.9904  0.6871
 6052TIP3   OH218161   3.293   1.633   1.914 -0.4955  0.0660  0.0563
 6052TIP3    H118162   3.328   1.712   1.954 -0.3874  1.2663 -2.2739
 6052TIP3    H218163   3.204   1.656   1.889  0.0218 -0.0121 -1.9810
 6053TIP3   OH218164   2.424   0.649   2.936 -0.2177 -0.2553  0.0228
 6053TIP3    H118165   2.346   0.702   2.919 -0.1860  0.8574  2.9946
 6053TIP3    H218166   2.480   0.706   2.990  2.8090 -0.9274 -2.2890
 6054TIP3   OH218167   2.183   1.282   1.922  0.8087  0.2404 -0.2319
 6054TIP3    H118168   2.127   1.359   1.934  0.5181  0.0123 -0.1020
 6054TIP3    H218169   2.242   1.283   1.997 -1.2270 -1.3680  1.4803
 6055TIP3   OH218170   1.228   0.334   4.570 -0.2371  0.2868 -0.2673
 6055TIP3    H118171   1.297   0.342   4.637 -0.9349  0.3170  0.4565
 6055TIP3    H218172   1.273   0.298   4.494  0.9047  1.7778 -0.3275
 6056TIP3   OH218173   0.155   0.612   1.537  0.1526 -0.1120  0.3372
 6056TIP3    H118174   0.201   0.528   1.536  1.2780  0.5033  0.3363
 6056TIP3    H218175   0.221   0.676   1.561 -0.3170  1.0097 -1.2695
 6057TIP3   OH218176   4.605   5.882   4.045  0.2608 -0.8707  0.4287
 6057TIP3    H118177   4.588   5.949   3.979  1.3437 -1.0676 -0.0651
 6057TIP3    H218178   4.534   5.892   4.108  0.6142  0.9759  0.5510
 6058TIP3   OH218179   3.782   2.706   4.447 -0.1230 -0.0365  0.7981
 6058TIP3    H118180   3.846   2.648   4.489  0.9840  1.2660  0.9342
 6058TIP3    H218181   3.825   2.735   4.366 -1.3348 -0.7073 -0.1127
 6059TIP3   OH218182   2.940   5.221   4.799 -0.7827 -0.2281 -0.4871
 6059TIP3    H118183   2.845   5.217   4.808 -0.5528 -2.3238  1.3220
 6059TIP3    H218184   2.965   5.136   4.763  0.5595 -0.4237  0.8386
 6060TIP3   OH218185   1.152   0.402   2.075  0.1574  0.0197 -0.2960
 6060TIP3    H118186   1.224   0.342   2.096 -0.0524 -0.0828  0.1321
 6060TIP3    H218187   1.073   0.355   2.102 -0.0985  0.0021 -1.0520
 6061TIP3   OH218188   3.816   4.329   4.994  0.0309  0.3218  0.0835
 6061TIP3    H118189   3.809   4.237   5.020 -1.2051  0.0513 -1.2129
 6061TIP3    H218190   3.778   4.333   4.907 -0.6349  2.2148  0.4374
 6062TIP3   OH218191   4.221   5.529   4.055  0.3140  0.0350 -0.3791
 6062TIP3    H118192   4.140   5.554   4.010 -0.9470 -1.3712  1.0380
 6062TIP3    H218193   4.237   5.601   4.116 -0.4897 -0.2078  0.1222
 6063TIP3   OH218194   1.893   2.851   4.155 -0.4352  0.3775  0.2161
 6063TIP3    H118195   1.956   2.804   4.209  1.5479  0.9319 -1.5542
 6063TIP3    H218196   1.908   2.818   4.066 -1.0459  2.2032 -0.5858
 6064TIP3   OH218197   0.484   0.018   4.851 -0.5761  0.0352 -0.3201
 6064TIP3    H118198   0.451  -0.066   4.817 -0.2840  0.1857 -0.9755
 6064TIP3    H218199   0.407   0.059   4.891 -1.1085  0.1862 -1.4649
 6065TIP3   OH218200   1.315   0.258   0.138 -0.1633 -0.0035  0.2308
 6065TIP3    H118201   1.298   0.297   0.052 -1.9686  1.4073  1.1690
 6065TIP3    H218202   1.255   0.184   0.142 -0.5342  0.3062  0.4982
 6066TIP3   OH218203   3.573   4.257   5.261 -0.5222 -0.1084 -0.1627
 6066TIP3    H118204   3.589   4.180   5.315  0.4217  0.8633  0.9625
 6066TIP3    H218205   3.493   4.296   5.297 -0.4204  0.0224 -0.0809
 6067TIP3   OH218206   2.505   3.342   4.414  0.1374 -0.3750 -0.0286
 6067TIP3    H118207   2.465   3.428   4.407 -0.6543 -0.8010 -1.0121
 6067TIP3    H218208   2.577   3.343   4.351  0.8597 -0.0411  0.8047
 6068TIP3   OH218209   2.829   5.536   5.154 -0.0065  0.1996 -0.5328
 6068TIP3    H118210   2.835   5.475   5.227 -1.0953 -0.0460 -0.6383
 6068TIP3    H218211   2.847   5.622   5.193 -0.9640  0.1179  0.0994
 6069TIP3   OH218212   2.347   1.697   0.760 -0.4128 -0.8109  0.4869
 6069TIP3    H118213   2.441   1.695   0.778 -0.5129 -0.4471  1.0590
 6069TIP3    H218214   2.328   1.789   0.743 -0.7567 -0.8133  0.8561
 6070TIP3   OH218215   4.632   5.161   1.523 -0.4359 -0.3981  0.2549
 6070TIP3    H118216   4.700   5.110   1.479 -1.4863 -0.8311 -0.8995
 6070TIP3    H218217   4.653   5.252   1.503  1.0269 -0.4075  1.7047
 6071TIP3   OH218218   5.763   1.499   1.902 -0.0461  0.6380 -0.6186
 6071TIP3    H118219   5.688   1.441   1.916  0.6023 -0.4463 -1.5786
 6071TIP3    H218220   5.816   1.454   1.836  2.5740  0.2755  1.6312
 6072TIP3   OH218221   2.355   1.069   0.876  0.3057 -0.1915 -0.4544
 6072TIP3    H118222   2.270   1.064   0.920 -1.3065 -1.4095 -3.5032
 6072TIP3    H218223   2.377   1.162   0.878  0.2142 -0.2012  2.6948
 6073TIP3   OH218224   2.013   1.633   3.042 -0.1292 -0.5188 -0.1994
 6073TIP3    H118225   2.010   1.649   2.948  2.5335 -0.0308 -0.2360
 6073TIP3    H218226   2.073   1.560   3.052  0.1972 -0.0716  1.1786
 6074TIP3   OH218227   2.307   0.940   1.746 -0.1643  0.1706 -0.2946
 6074TIP3    H118228   2.299   0.952   1.652  1.5895 -1.8926 -0.7317
 6074TIP3    H218229   2.385   0.990   1.770 -0.7861  0.9547  0.1432
 6075TIP3   OH218230   2.322   1.944   0.635  0.2529 -0.3214 -0.1921
 6075TIP3    H118231   2.242   1.996   0.628  0.4672  0.2011  1.0985
 6075TIP3    H218232   2.349   1.929   0.544  0.0864  1.6803 -0.6088
 6076TIP3   OH218233   2.195   0.605   1.061 -0.4369  0.3559 -0.1284
 6076TIP3    H118234   2.263   0.624   1.126 -0.9522 -0.0899  0.5548
 6076TIP3    H218235   2.133   0.549   1.108 -1.6790  1.4083 -0.4970
 6077TIP3   OH218236   6.364   1.375   2.706  0.1825  0.2060 -0.7832
 6077TIP3    H118237   6.411   1.405   2.628  0.6635  0.4140 -0.4135
 6077TIP3    H218238   6.363   1.451   2.765 -0.2137  0.0608 -0.6010
 6078TIP3   OH218239   2.096   4.189   5.244 -0.3631  0.1500  0.1264
 6078TIP3    H118240   2.055   4.162   5.162  0.0517  2.2933 -0.8164
 6078TIP3    H218241   2.052   4.136   5.311  0.9995 -3.4514 -1.6649
 6079TIP3   OH218242   3.759   3.533   3.619  0.1591 -0.0021 -0.5535
 6079TIP3    H118243   3.731   3.449   3.656  0.9942 -0.1078 -0.1524
 6079TIP3    H218244   3.831   3.511   3.560  0.4692  0.4458 -0.3447
 6080TIP3   OH218245   4.245   5.992   2.425  0.2906  0.1823  0.6550
 6080TIP3    H118246   4.163   5.946   2.444  0.2253  0.8506  2.0646
 6080TIP3    H218247   4.233   6.079   2.462  1.0676  0.7922 -0.4777
 6081TIP3   OH218248   2.414   0.958   4.522 -0.1780  0.1421  0.4345
 6081TIP3    H118249   2.492   0.994   4.565  0.0756  0.8549 -0.6080
 6081TIP3    H218250   2.423   0.983   4.431 -1.1913 -0.5530  0.1314
 6082TIP3   OH218251   2.660   0.686   0.129 -0.1075  0.0070  0.0193
 6082TIP3    H118252   2.732   0.667   0.068  0.1237 -1.2381  0.6692
 6082TIP3    H218253   2.703   0.710   0.211 -0.4284 -0.4145  0.3125
 6083TIP3   OH218254   3.112   2.261   1.499  0.1055 -0.7020 -0.4969
 6083TIP3    H118255   3.033   2.287   1.547  2.3351  1.0716  2.2809
 6083TIP3    H218256   3.113   2.319   1.423 -0.9897 -0.4125 -0.3119
 6084TIP3   OH218257   2.775   0.547   4.515  0.5802 -0.6982 -0.5042
 6084TIP3    H118258   2.786   0.642   4.510  1.0282 -0.8282 -2.2871
 6084TIP3    H218259   2.681   0.533   4.502  0.0716 -0.3614  2.4423
 6085TIP3   OH218260   4.490   5.957   1.410  0.3766  0.2621  0.2175
 6085TIP3    H118261   4.534   5.875   1.434 -0.9599 -1.1059 -1.7929
 6085TIP3    H218262   4.550   5.998   1.348  0.0555 -0.3017 -0.4782
 6086TIP3   OH218263   2.737   0.291   1.335 -0.0208 -0.2021 -0.0599
 6086TIP3    H118264   2.693   0.229   1.393 -1.8893  0.0438 -1.1681
 6086TIP3    H218265   2.670   0.316   1.272  1.7117  0.2145 -1.7950
 6087TIP3   OH218266   4.909   3.421   5.223 -0.2421 -0.1810  0.0654
 6087TIP3    H118267   4.874   3.472   5.150 -0.3154  3.2568  2.4158
 6087TIP3    H218268   4.832   3.401   5.276  0.2585  0.1893  0.9258
 6088TIP3   OH218269   5.930   2.128   3.317  0.1880  0.1495  0.5014
 6088TIP3    H118270   5.880   2.210   3.321  0.6915  0.4575  0.4835
 6088TIP3    H218271   5.879   2.072   3.259  0.2525  0.7276 -0.1132
 6089TIP3   OH218272   0.817   0.763   2.795  0.1067  0.1336 -0.0891
 6089TIP3    H118273   0.723   0.780   2.797  0.1478  0.4358 -0.7485
 6089TIP3    H218274   0.858   0.850   2.797  0.4065 -0.0203  1.6431
 6090TIP3   OH218275   0.727   3.757   0.470  0.0893 -0.0742  0.1242
 6090TIP3    H118276   0.723   3.755   0.374  0.1623 -0.3983  0.1293
 6090TIP3    H218277   0.714   3.850   0.492 -3.3837 -0.4420 -0.0437
 6091TIP3   OH218278   1.144   0.619   0.165 -0.6323  0.2952  0.4279
 6091TIP3    H118279   1.158   0.699   0.215  1.4395 -1.0691  2.1289
 6091TIP3    H218280   1.091   0.563   0.222 -1.7645  0.2946 -0.6001
 6092TIP3   OH218281   2.467   4.294   5.121  0.2012 -0.1837 -0.3872
 6092TIP3    H118282   2.532   4.249   5.067  2.9610  3.4968 -0.2706
 6092TIP3    H218283   2.433   4.363   5.064 -0.5505  0.5436  0.9382
 6093TIP3   OH218284   0.999   0.783   0.503  0.0033 -1.0055  0.0622
 6093TIP3    H118285   0.923   0.727   0.517 -1.2854  0.8808  0.8368
 6093TIP3    H218286   0.964   0.861   0.461  1.5953 -0.2869  0.0275
 6094TIP3   OH218287   4.073   5.593   2.136 -0.4986  0.6181  0.7789
 6094TIP3    H118288   4.151   5.649   2.141  0.7535 -1.0120  0.0097
 6094TIP3    H218289   4.099   5.522   2.078 -1.8199 -1.1626  2.3137
 6095TIP3   OH218290   1.881   3.072   4.940  0.6537 -0.5374 -0.4520
 6095TIP3    H118291   1.854   3.143   4.882 -0.9535  0.0971  1.0154
 6095TIP3    H218292   1.967   3.098   4.972  0.5705  0.1716 -0.8043
 6096TIP3   OH218293   4.644   0.393   4.707 -0.5592  0.1312 -0.1782
 6096TIP3    H118294   4.560   0.404   4.752 -1.1910 -2.0187 -0.7693
 6096TIP3    H218295   4.671   0.303   4.728  1.4049  0.6672 -0.3118
 6097TIP3   OH218296   0.987   5.209   0.523 -0.5983 -0.1046  0.0603
 6097TIP3    H118297   0.994   5.274   0.453  1.0817 -1.3941 -1.0163
 6097TIP3    H218298   0.932   5.250   0.589  0.0711  2.2078 -0.7933
 6098TIP3   OH218299   3.122   1.213   0.937  0.1206  0.6064 -0.5713
 6098TIP3    H118300   3.040   1.204   0.888  1.2916 -1.0075 -2.2775
 6098TIP3    H218301   3.094   1.239   1.025 -2.2309  0.0514 -1.1161
 6099TIP3   OH218302   2.365   0.480   0.871  0.0659  0.3105  0.5818
 6099TIP3    H118303   2.306   0.495   0.945  1.8663  0.2811  2.0687
 6099TIP3    H218304   2.385   0.567   0.838  0.1014  0.3859  0.8030
 6100TIP3   OH218305   4.141   5.126   2.162 -0.1623 -0.7221  0.4547
 6100TIP3    H118306   4.225   5.160   2.192  0.5534 -2.9669  1.0845
 6100TIP3    H218307   4.076   5.179   2.208  0.9150 -0.5484  1.8142
 6101TIP3   OH218308   5.027   5.292   2.049  0.3147 -0.3558 -0.0866
 6101TIP3    H118309   4.952   5.246   2.089  0.3924 -0.6063 -0.2248
 6101TIP3    H218310   4.988   5.365   2.002  0.2520  0.1651  0.7565
 6102TIP3   OH218311   2.464   3.428   4.972 -0.4455  0.6185  0.7193
 6102TIP3    H118312   2.417   3.353   5.009 -0.6292 -0.1730 -1.0916
 6102TIP3    H218313   2.550   3.426   5.015  0.1990 -1.7082 -0.5793
 6103TIP3   OH218314   1.645   0.649   1.041  0.2777 -0.1263 -0.1513
 6103TIP3    H118315   1.694   0.608   0.969  0.8269 -0.7183  0.5549
 6103TIP3    H218316   1.603   0.725   1.000  0.6357 -0.4152 -1.0882
 6104TIP3   OH218317   2.317   1.790   1.558  0.2009 -0.6143 -0.6701
 6104TIP3    H118318   2.294   1.839   1.479 -1.1632  0.1578  0.1850
 6104TIP3    H218319   2.248   1.812   1.621  1.1766 -1.3498  0.6842
 6105TIP3   OH218320   3.959   4.699   4.427  0.2828  0.1203 -0.0656
 6105TIP3    H118321   4.030   4.746   4.471  0.4977 -0.5524  0.3103
 6105TIP3    H218322   3.996   4.675   4.342  0.3785  0.1059 -0.0206
 6106TIP3   OH218323   6.172   3.729   4.199  0.3213 -0.4670 -0.2017
 6106TIP3    H118324   6.128   3.722   4.115 -0.1595  0.6572 -0.0611
 6106TIP3    H218325   6.249   3.674   4.191 -1.6403 -3.3410 -0.1035
 6107TIP3   OH218326   6.266   4.589   0.848  0.2213  0.2877  0.7177
 6107TIP3    H118327   6.335   4.553   0.792  1.4257  1.2406  1.5551
 6107TIP3    H218328   6.204   4.517   0.858  1.2697 -0.7080  0.2380
 6108TIP3   OH218329   5.241   2.663   5.143 -0.1655 -0.0131 -0.1715
 6108TIP3    H118330   5.158   2.694   5.180 -0.0527  1.1806 -0.8784
 6108TIP3    H218331   5.308   2.701   5.200 -0.0362  0.8053 -0.8599
 6109TIP3   OH218332   0.448   1.884   4.958 -0.2501 -0.0055 -0.2382
 6109TIP3    H118333   0.519   1.829   4.994 -1.9073 -1.0409  1.5539
 6109TIP3    H218334   0.458   1.967   5.004 -0.9099 -0.5557  0.9439
 6110TIP3   OH218335   2.845   2.768   1.099 -0.0216 -0.0827  0.1054
 6110TIP3    H118336   2.762   2.814   1.095  0.7234  1.3768  1.0365
 6110TIP3    H218337   2.824   2.685   1.143 -1.1646 -0.1777 -0.6061
 6111TIP3   OH218338   3.384   0.157   0.322 -0.2176  0.0484  0.3473
 6111TIP3    H118339   3.309   0.124   0.371  1.1665 -1.6385  1.3649
 6111TIP3    H218340   3.411   0.236   0.370  0.7684 -1.2711  1.9946
 6112TIP3   OH218341   0.277   5.664   0.136  0.2522  0.3290 -0.4078
 6112TIP3    H118342   0.253   5.588   0.083 -0.2439  0.1562  0.0518
 6112TIP3    H218343   0.219   5.659   0.212  1.7590 -0.1022  0.7521
 6113TIP3   OH218344   2.474   1.245   3.281 -0.0369  0.0891 -0.5187
 6113TIP3    H118345   2.454   1.225   3.373 -0.3445  1.5087 -0.2584
 6113TIP3    H218346   2.569   1.238   3.275  0.1080  1.2639  0.2395
 6114TIP3   OH218347   3.803   3.594   5.134  0.0098  0.2014 -0.1478
 6114TIP3    H118348   3.877   3.652   5.116  1.5752 -1.7382 -0.2491
 6114TIP3    H218349   3.767   3.574   5.047  0.5464 -0.2952 -0.2647
 6115TIP3   OH218350   4.497   4.987   5.054  0.2473  0.5659 -0.0314
 6115TIP3    H118351   4.434   5.041   5.102  1.5214  1.7446  0.3689
 6115TIP3    H218352   4.546   4.941   5.122  0.1952  0.1046 -0.3076
 6116TIP3   OH218353   6.467   3.048   3.507  0.2311  0.0366 -0.6138
 6116TIP3    H118354   6.407   3.002   3.448  0.2165 -0.8276  0.0633
 6116TIP3    H218355   6.553   3.038   3.465  0.2255 -0.5907 -0.4899
 6117TIP3   OH218356   4.933   2.950   4.686  0.1290 -0.2337  0.0339
 6117TIP3    H118357   4.903   2.912   4.604  1.6317  0.5337 -0.8937
 6117TIP3    H218358   5.015   2.905   4.705  0.8607  1.0808  0.0171
 6118TIP3   OH218359   5.824   3.775   4.016 -0.2275  0.3603  0.2294
 6118TIP3    H118360   5.863   3.727   3.944 -0.1794 -0.3446  0.7219
 6118TIP3    H218361   5.744   3.727   4.037 -0.6971  1.0639  0.0686
 6119TIP3   OH218362   2.338   0.078   0.051  0.1642 -0.0839 -0.4371
 6119TIP3    H118363   2.376   0.161   0.021  0.4771 -0.3217 -0.7052
 6119TIP3    H218364   2.413   0.020   0.062  0.0925  0.1288  1.2351
 6120TIP3   OH218365   1.654  -0.020   1.525  0.0525 -0.6591 -0.4236
 6120TIP3    H118366   1.663   0.005   1.433  0.9126  0.1000 -0.1336
 6120TIP3    H218367   1.593   0.044   1.561 -0.5909 -1.1914 -0.5477
 6121TIP3   OH218368   0.795   5.092   2.093 -0.2196  0.5119  0.4513
 6121TIP3    H118369   0.781   5.021   2.156 -0.2945  0.9711  0.9604
 6121TIP3    H218370   0.885   5.078   2.062  0.0230  0.6126  1.0925
 6122TIP3   OH218371   6.124   4.340   1.911 -0.0158  0.3941 -0.4116
 6122TIP3    H118372   6.068   4.413   1.939 -0.8631 -0.3092 -0.2612
 6122TIP3    H218373   6.210   4.380   1.896 -1.1478  1.9829 -3.1404
 6123TIP3   OH218374   0.073   5.079   0.094 -0.1783 -0.0183 -0.4608
 6123TIP3    H118375   0.097   4.990   0.120  0.2633 -0.5915 -2.7369
 6123TIP3    H218376   0.017   5.067   0.018  0.1050  1.6751 -0.9360
 6124TIP3   OH218377   2.635   2.617   1.242  0.0041  0.0029 -0.3178
 6124TIP3    H118378   2.610   2.530   1.273 -1.6796  1.6756  3.3335
 6124TIP3    H218379   2.557   2.649   1.197  0.4220 -0.1245 -1.1416
 6125TIP3   OH218380   6.268   5.404   1.599  0.9053 -0.2458 -0.0468
 6125TIP3    H118381   6.178   5.399   1.632  0.3045  0.1540 -1.5562
 6125TIP3    H218382   6.264   5.362   1.513  1.8273  1.0390 -0.7396
 6126TIP3   OH218383   5.085   4.507   0.375  0.2471 -0.4101 -0.1565
 6126TIP3    H118384   5.101   4.486   0.283 -3.4412 -1.2087 -0.6942
 6126TIP3    H218385   5.056   4.598   0.375  0.3853 -0.3625  0.2557
 6127TIP3   OH218386   0.522   0.665   0.472 -0.3648  0.0420 -0.0484
 6127TIP3    H118387   0.500   0.657   0.565 -1.0268  2.9648  0.0745
 6127TIP3    H218388   0.464   0.602   0.428 -1.3654 -0.0053  1.3211
 6128TIP3   OH218389   6.324   0.429   0.376  0.1977 -0.3248  0.4054
 6128TIP3    H118390   6.310   0.435   0.282 -0.6802  0.1494  0.5647
 6128TIP3    H218391   6.261   0.363   0.406  0.2479 -0.2364  0.7118
 6129TIP3   OH218392   5.278   5.754   2.575 -0.2666 -0.1498  0.6928
 6129TIP3    H118393   5.217   5.765   2.647 -0.3134 -0.0580  0.6401
 6129TIP3    H218394   5.365   5.763   2.615 -0.1260 -3.9541  1.4409
 6130TIP3   OH218395   5.433   3.041   5.143 -0.3367 -0.1589 -0.1721
 6130TIP3    H118396   5.437   2.965   5.201  1.4324 -0.0808 -0.1599
 6130TIP3    H218397   5.379   3.013   5.069 -1.0838 -0.8639  0.6319
 6131TIP3   OH218398   4.216   3.298   5.217 -0.0269 -0.0242 -0.0885
 6131TIP3    H118399   4.195   3.205   5.214  0.7497 -0.1501 -2.3376
 6131TIP3    H218400   4.131   3.342   5.216 -0.4124 -0.6890  1.4387
 6132TIP3   OH218401   2.993   2.027   0.567  0.4202 -0.5181  0.8054
 6132TIP3    H118402   3.027   1.964   0.503  2.7008  1.3826  0.0935
 6132TIP3    H218403   3.010   1.987   0.652  1.4881 -1.0461  0.3474
 6133TIP3   OH218404   5.175   4.696   3.997 -0.1309 -0.0589 -0.0159
 6133TIP3    H118405   5.156   4.622   4.054 -4.5425  0.8311 -0.1356
 6133TIP3    H218406   5.159   4.773   4.051 -1.8054  0.7775 -1.6238
 6134TIP3   OH218407   0.945   4.558   4.846 -0.1946 -0.4985 -0.3212
 6134TIP3    H118408   0.947   4.482   4.786  1.0578 -1.1081  0.4719
 6134TIP3    H218409   0.996   4.529   4.922 -0.8174  0.6876  0.5457
 6135TIP3   OH218410   2.552   5.864   0.018  0.0794  0.4827 -0.1984
 6135TIP3    H118411   2.633   5.817   0.001  0.6628  1.0166  1.1194
 6135TIP3    H218412   2.494   5.798   0.057 -0.2369  0.0291 -1.4045
 6136TIP3   OH218413   4.184   2.474   1.201  0.3753  0.2182 -0.1937
 6136TIP3    H118414   4.089   2.473   1.191  0.5636  2.7666 -2.6927
 6136TIP3    H218415   4.210   2.383   1.193 -1.7299 -0.3543 -0.7881
 6137TIP3   OH218416   1.291   4.983   0.088  0.6654 -0.4295 -0.0527
 6137TIP3    H118417   1.303   4.925   0.163 -1.8575 -0.5392  0.2919
 6137TIP3    H218418   1.222   5.043   0.114  0.2814  0.0220 -2.0093
 6138TIP3   OH218419   0.421   5.956   0.516 -0.2879  0.6912 -0.1522
 6138TIP3    H118420   0.468   6.037   0.496  0.5257  0.3198  0.2146
 6138TIP3    H218421   0.395   5.921   0.431 -0.9753  1.5252 -0.2915
 6139TIP3   OH218422   0.473   1.293   3.375  0.0435  0.4691  0.2373
 6139TIP3    H118423   0.520   1.375   3.386 -1.2611  1.0230  1.9673
 6139TIP3    H218424   0.491   1.244   3.456 -3.4488  1.3118  1.6197
 6140TIP3   OH218425   1.631   0.737   1.935 -0.1677 -0.4894  0.1867
 6140TIP3    H118426   1.669   0.736   1.847 -2.6359  1.1712 -0.9787
 6140TIP3    H218427   1.648   0.826   1.967 -1.9512 -0.1032  0.1198
 6141TIP3   OH218428   0.632   3.695   4.448  0.4560 -0.5170  0.1531
 6141TIP3    H118429   0.633   3.650   4.533 -0.4751 -0.8181  0.0135
 6141TIP3    H218430   0.695   3.646   4.394  1.7764  0.2663  0.9565
 6142TIP3   OH218431   6.426   5.283   0.733  0.0414  0.0290  0.1179
 6142TIP3    H118432   6.421   5.224   0.808  2.9739  0.0852  0.4330
 6142TIP3    H218433   6.428   5.226   0.657  2.4772 -0.3274  0.4042
 6143TIP3   OH218434   0.469   5.044  -0.002  0.3623 -0.0038  0.4001
 6143TIP3    H118435   0.477   5.136   0.026 -0.4501  0.0249  0.5477
 6143TIP3    H218436   0.559   5.011  -0.002  0.5257  0.4096  1.6529
 6144TIP3   OH218437   4.732   2.391   4.553  0.2867  0.1316 -0.4054
 6144TIP3    H118438   4.781   2.435   4.484 -0.1510  1.9856  0.4186
 6144TIP3    H218439   4.798   2.369   4.619  0.2374  1.2756  0.0305
 6145TIP3   OH218440   5.201   5.824   1.361  0.0998 -0.1605 -0.3441
 6145TIP3    H118441   5.136   5.878   1.406  0.9099 -0.1088  0.7904
 6145TIP3    H218442   5.161   5.737   1.356  0.6627 -0.5861  1.9931
 6146TIP3   OH218443   2.810   1.755   1.126  0.3205 -0.2431 -0.0468
 6146TIP3    H118444   2.817   1.709   1.042  1.9518 -0.7550  0.3541
 6146TIP3    H218445   2.885   1.723   1.177 -0.5209  0.2369  1.5205
 6147TIP3   OH218446   5.534   4.010   5.125 -0.3958 -0.8581 -1.0889
 6147TIP3    H118447   5.626   4.027   5.144 -0.2517 -1.1535 -1.5132
 6147TIP3    H218448   5.498   4.096   5.102 -0.3968 -0.6254 -0.2410
 6148TIP3   OH218449   3.758   0.249   0.051  0.2361  0.0642  0.0832
 6148TIP3    H118450   3.669   0.250   0.085  0.1403  0.3133 -0.1686
 6148TIP3    H218451   3.793   0.164   0.077 -0.7437 -0.8469 -1.4994
 6149TIP3   OH218452   4.645   5.207   3.407  0.4140 -0.4552  0.2383
 6149TIP3    H118453   4.739   5.203   3.423  0.6992  0.0961 -1.1593
 6149TIP3    H218454   4.638   5.253   3.323 -1.1411  0.3509  0.7987
 6150TIP3   OH218455   5.555   3.690   4.280  0.4694  0.4028  0.0608
 6150TIP3    H118456   5.524   3.775   4.250 -0.3162  0.9262  2.2709
 6150TIP3    H218457   5.591   3.706   4.367 -2.2034 -1.9736  1.6903
 6151TIP3   OH218458   1.863   1.753   1.716  0.3437 -0.8298 -0.5602
 6151TIP3    H118459   1.806   1.811   1.767  2.4743 -0.0116  1.0058
 6151TIP3    H218460   1.822   1.747   1.630 -1.4486  0.6612  0.1610
 6152TIP3   OH218461   0.589   0.921   0.036  0.2792 -0.1132  0.0001
 6152TIP3    H118462   0.621   0.898   0.124 -0.2927 -0.8485  0.0205
 6152TIP3    H218463   0.521   0.856   0.018  0.2163  0.1999 -0.8841
 6153TIP3   OH218464   4.500   2.368   5.059  0.2246 -0.2677 -0.2617
 6153TIP3    H118465   4.564   2.401   4.997  2.6485  1.5806  3.0352
 6153TIP3    H218466   4.438   2.440   5.071  1.3102  0.4348  1.3951
 6154TIP3   OH218467   5.275   3.354   5.125 -0.3625  0.2216  0.3384
 6154TIP3    H118468   5.326   3.278   5.150 -0.0725  0.2324 -0.2127
 6154TIP3    H218469   5.320   3.428   5.165 -0.7559  0.0915  1.0386
 6155TIP3   OH218470   3.718   2.340   2.639 -0.7905  0.2130 -0.2345
 6155TIP3    H118471   3.779   2.386   2.696 -0.3610  0.4734 -0.8921
 6155TIP3    H218472   3.707   2.254   2.679 -0.5623  0.4260  0.2842
 6156TIP3   OH218473   5.382   4.863   2.891 -0.2612  0.1491 -0.3698
 6156TIP3    H118474   5.322   4.813   2.945 -1.2859  2.4382  0.6940
 6156TIP3    H218475   5.446   4.799   2.859 -1.8688 -1.8918  0.4219
 6157TIP3   OH218476   6.379   2.052   4.257 -0.2714  0.7570 -0.3482
 6157TIP3    H118477   6.442   2.097   4.313  0.2987 -0.9229  0.4091
 6157TIP3    H218478   6.412   2.064   4.168  0.9882  0.1066  0.0212
 6158TIP3   OH218479   4.784   1.659   4.955 -0.4902  0.6518 -0.2996
 6158TIP3    H118480   4.748   1.744   4.980 -3.2000  0.1519 -2.1803
 6158TIP3    H218481   4.746   1.597   5.017 -0.6636  0.4876 -0.5652
 6159TIP3   OH218482   4.705   0.765   0.976  0.3193 -0.3070 -0.9859
 6159TIP3    H118483   4.782   0.784   1.031  0.1807  0.7236 -1.1270
 6159TIP3    H218484   4.631   0.799   1.027  0.3706  2.3416 -2.5854
 6160TIP3   OH218485   0.970   0.392   0.255 -0.1844  0.0600 -0.0582
 6160TIP3    H118486   0.943   0.316   0.203 -2.2070  0.3384  0.5277
 6160TIP3    H218487   1.033   0.358   0.318  0.5970 -0.7056 -1.2428
 6161TIP3   OH218488   3.767   1.409   5.103 -0.3000  0.3579  0.3596
 6161TIP3    H118489   3.737   1.379   5.189 -3.4287 -1.4918 -1.2927
 6161TIP3    H218490   3.838   1.349   5.080 -0.5389 -0.1593  0.9513
 6162TIP3   OH218491   3.148   2.310   5.230 -0.8252 -0.7481 -0.4715
 6162TIP3    H118492   3.162   2.332   5.138  0.2716  0.5008 -0.0248
 6162TIP3    H218493   3.227   2.263   5.256  0.1239  1.2957  0.5284
 6163TIP3   OH218494   4.059   0.348   1.138  0.5470 -0.5958 -0.1304
 6163TIP3    H118495   4.006   0.336   1.059 -1.6291 -2.4951  1.5440
 6163TIP3    H218496   4.043   0.439   1.164 -1.9485 -1.1333  0.3380
 6164TIP3   OH218497   2.714   3.567   1.819 -0.4344 -0.4925 -0.3914
 6164TIP3    H118498   2.656   3.643   1.827 -1.3955 -1.2680  0.1221
 6164TIP3    H218499   2.772   3.572   1.896 -0.4971 -0.2805 -0.3601
 6165TIP3   OH218500   5.217   3.462   4.558 -0.0930 -0.7932 -0.5370
 6165TIP3    H118501   5.187   3.548   4.530  0.0869 -0.8017 -0.7568
 6165TIP3    H218502   5.246   3.475   4.648 -0.3137 -0.6820 -0.4812
 6166TIP3   OH218503   6.166   5.920   0.955  0.1251 -0.4518  1.4220
 6166TIP3    H118504   6.221   5.843   0.972  1.8132 -0.0433 -1.6715
 6166TIP3    H218505   6.204   5.989   1.009  1.9775 -0.4964  0.2438
 6167TIP3   OH218506   0.706   5.729   2.165  0.3646 -0.2399 -0.9899
 6167TIP3    H118507   0.794   5.720   2.128  0.0182  0.3836 -1.9841
 6167TIP3    H218508   0.667   5.803   2.118 -0.0097  0.7248  0.8049
 6168TIP3   OH218509   4.276   2.199   4.089 -0.2250  0.2462 -0.0359
 6168TIP3    H118510   4.285   2.112   4.050  0.4084 -0.2385  1.1584
 6168TIP3    H218511   4.221   2.184   4.167  2.2155  0.4009  1.7716
 6169TIP3   OH218512   2.508   3.033   0.891 -0.1247  0.3548  0.3793
 6169TIP3    H118513   2.510   2.954   0.945 -3.5931 -0.2748 -0.3230
 6169TIP3    H218514   2.517   3.104   0.954 -1.8808 -0.4535  1.5945
 6170TIP3   OH218515   4.555   0.753   4.826 -0.4490 -0.6972 -0.1989
 6170TIP3    H118516   4.566   0.664   4.792  0.3645 -1.1566  1.2328
 6170TIP3    H218517   4.642   0.779   4.857 -0.9178  0.1450  0.4492
 6171TIP3   OH218518   6.087   4.094   1.764  0.1928  0.3439  1.2069
 6171TIP3    H118519   6.107   4.164   1.826 -0.3175  1.7467 -0.1894
 6171TIP3    H218520   6.156   4.099   1.698 -0.2837  0.0521  0.6756
 6172TIP3   OH218521   5.515   2.995   2.882  0.0280  0.0713 -0.1880
 6172TIP3    H118522   5.590   2.998   2.941  0.5381 -0.5368 -0.7889
 6172TIP3    H218523   5.503   2.902   2.863  0.3972  0.3018 -1.6771
 6173TIP3   OH218524   0.474   3.478   3.626  0.2424  0.3250 -0.3451
 6173TIP3    H118525   0.469   3.427   3.708 -2.3884 -1.0012 -1.2710
 6173TIP3    H218526   0.400   3.538   3.630 -1.1994 -1.2187 -2.6735
 6174TIP3   OH218527   2.345   0.880   3.413 -0.2342  0.4001 -0.2527
 6174TIP3    H118528   2.353   0.831   3.331  3.2213  0.8862 -0.2830
 6174TIP3    H218529   2.371   0.818   3.481  0.0070  0.9532  0.1592
 6175TIP3   OH218530   2.704   1.628   0.513  0.5287  0.0830 -0.0703
 6175TIP3    H118531   2.799   1.631   0.501  0.4721 -0.9845 -0.8875
 6175TIP3    H218532   2.669   1.662   0.431  0.2110  0.4143  0.2075
 6176TIP3   OH218533   3.757   1.409   0.102  0.0218 -0.1081 -0.2149
 6176TIP3    H118534   3.733   1.396   0.011 -0.2317 -0.7557 -0.0603
 6176TIP3    H218535   3.851   1.389   0.105  0.1497  0.4587 -0.4383
 6177TIP3   OH218536   2.294   1.690   1.953  0.4200  0.3048 -0.1707
 6177TIP3    H118537   2.274   1.782   1.970 -2.0769 -0.2271 -0.0753
 6177TIP3    H218538   2.356   1.666   2.022 -0.8350  1.2683  1.3138
 6178TIP3   OH218539   0.758   4.363   3.126 -0.2845  0.0578 -0.4056
 6178TIP3    H118540   0.695   4.366   3.198  1.3341  0.6294  1.0125
 6178TIP3    H218541   0.707   4.387   3.049 -1.9731 -0.2488  0.5844
 6179TIP3   OH218542   3.698   0.951   0.249  0.2676 -0.6650 -0.3967
 6179TIP3    H118543   3.708   0.968   0.155  2.5352 -0.9489 -0.2441
 6179TIP3    H218544   3.788   0.942   0.281 -0.3437  1.9169  2.2803
 6180TIP3   OH218545   3.890   0.595   0.412  0.5685  0.0969 -0.6889
 6180TIP3    H118546   3.939   0.639   0.482 -0.0389 -0.3941  0.0422
 6180TIP3    H218547   3.882   0.661   0.343  0.1271  0.9667  0.1906
 6181TIP3   OH218548   4.093   3.115   4.667  0.1370 -0.2276 -0.8731
 6181TIP3    H118549   4.109   3.209   4.672  0.9299 -0.3920 -0.2862
 6181TIP3    H218550   4.027   3.106   4.598  1.4622  0.5938 -2.2796
 6182TIP3   OH218551   4.737   3.925   4.465 -0.1439  0.3157 -0.1400
 6182TIP3    H118552   4.816   3.970   4.497 -0.6786 -0.2471  2.0850
 6182TIP3    H218553   4.679   3.996   4.437  0.9465  0.7608 -1.2938
 6183TIP3   OH218554   4.364   1.811   5.138 -0.1224  0.2331  0.2715
 6183TIP3    H118555   4.331   1.781   5.223  1.6353 -2.8628 -0.0362
 6183TIP3    H218556   4.458   1.794   5.142  0.3302  2.2228 -1.4560
 6184TIP3   OH218557   2.570   2.501   3.300  0.7283 -0.7559 -0.0072
 6184TIP3    H118558   2.526   2.506   3.385  3.1234 -1.6047  1.3357
 6184TIP3    H218559   2.575   2.592   3.270 -0.9290 -0.5351  0.3018
 6185TIP3   OH218560   5.311   5.946   0.399  0.0006  0.5942 -0.3632
 6185TIP3    H118561   5.405   5.953   0.415  0.3411  1.7950 -2.6941
 6185TIP3    H218562   5.301   5.869   0.343 -0.7658 -1.3183  2.3166
 6186TIP3   OH218563   0.657   3.724   5.057  0.0121  0.3058  0.1466
 6186TIP3    H118564   0.580   3.684   5.098 -0.1071  1.7821  1.4324
 6186TIP3    H218565   0.715   3.651   5.036 -1.1084 -0.6992  0.5042
 6187TIP3   OH218566   4.470   5.111   3.029 -0.0966 -0.0383  0.0642
 6187TIP3    H118567   4.520   5.063   3.094 -0.6032  1.7845  1.8379
 6187TIP3    H218568   4.537   5.152   2.973  0.3887  0.5295  1.0469
 6188TIP3   OH218569   0.744   4.851   4.715  0.2440  0.3691 -0.1416
 6188TIP3    H118570   0.801   4.873   4.641  0.4483 -0.8506 -0.3648
 6188TIP3    H218571   0.678   4.792   4.678 -1.9491  2.7389 -0.1523
 6189TIP3   OH218572   3.271   1.663   3.317  0.2761 -0.0864  0.2572
 6189TIP3    H118573   3.205   1.658   3.248 -1.4851  2.0196  1.7053
 6189TIP3    H218574   3.273   1.575   3.355 -0.1814 -0.7152 -1.1500
 6190TIP3   OH218575   6.204   2.323   5.016  0.5290  0.0221  0.3099
 6190TIP3    H118576   6.207   2.365   5.102 -0.7472 -0.3106  0.5282
 6190TIP3    H218577   6.163   2.238   5.033 -0.8255  0.4355 -0.8059
 6191TIP3   OH218578   3.916   1.986   2.347  0.1698 -0.3772 -0.0092
 6191TIP3    H118579   3.865   2.050   2.397 -0.4819 -1.6020  0.9224
 6191TIP3    H218580   3.980   2.038   2.298 -1.4635  1.1099 -0.5710
 6192TIP3   OH218581   5.848   5.191   5.151 -0.3778 -0.5222 -0.2470
 6192TIP3    H118582   5.770   5.166   5.199 -1.6267  1.1826 -1.3122
 6192TIP3    H218583   5.898   5.246   5.212  0.4480 -2.3288  0.7350
 6193TIP3   OH218584   2.668   2.072   0.362 -0.2094 -0.4094  0.3624
 6193TIP3    H118585   2.677   2.161   0.330 -0.2860 -0.3267  0.5721
 6193TIP3    H218586   2.695   2.076   0.454 -0.3881 -0.5659  0.4231
 6194TIP3   OH218587   2.660   3.180   4.568  0.1252  1.2294  0.0449
 6194TIP3    H118588   2.632   3.136   4.648  2.0950  1.1987  0.7380
 6194TIP3    H218589   2.582   3.225   4.536 -0.6996  1.1540  1.9314
 6195TIP3   OH218590   4.858   0.849   1.650 -0.3709 -0.4657  0.2276
 6195TIP3    H118591   4.885   0.932   1.690  1.5253 -1.7058  1.6216
 6195TIP3    H218592   4.763   0.845   1.665 -0.8322  2.2975 -1.5447
 6196TIP3   OH218593   2.397   5.706   0.910 -0.1414  0.1665  0.0519
 6196TIP3    H118594   2.359   5.764   0.976  2.4768  2.6927 -0.5775
 6196TIP3    H218595   2.377   5.748   0.827 -1.7313 -1.9959 -0.7105
 6197TIP3   OH218596   4.630   0.531   2.272  0.0089 -0.5022 -0.3484
 6197TIP3    H118597   4.711   0.555   2.319  1.0961  0.0021 -2.4276
 6197TIP3    H218598   4.586   0.614   2.256 -0.9898 -0.7877  0.8663
 6198TIP3   OH218599   4.622   1.454   5.109  1.0628 -0.0208  0.6876
 6198TIP3    H118600   4.555   1.424   5.048  1.5956 -0.9247  0.5311
 6198TIP3    H218601   4.575   1.502   5.176  0.1920 -1.2387  0.9505
 6199TIP3   OH218602   1.760   4.304   0.286 -0.4761 -0.2700  0.0703
 6199TIP3    H118603   1.745   4.352   0.204  1.2319 -0.9582 -0.6663
 6199TIP3    H218604   1.848   4.330   0.313 -0.9731 -0.1673  1.6308
 6200TIP3   OH218605   5.244   3.824   3.764 -0.0932 -0.2933  0.1468
 6200TIP3    H118606   5.273   3.780   3.684  2.8640 -0.4650  1.2784
 6200TIP3    H218607   5.212   3.753   3.820  1.1464 -0.5799  0.4962
 6201TIP3   OH218608   1.259   4.725   0.568  0.3154 -0.5129  0.0704
 6201TIP3    H118609   1.204   4.747   0.643  1.3912  0.0505  0.7095
 6201TIP3    H218610   1.331   4.673   0.605  0.6291 -0.5908 -0.6350
 6202TIP3   OH218611   1.820   5.498   0.816  0.0800 -0.3113  0.3522
 6202TIP3    H118612   1.740   5.550   0.812  0.8758  0.9095 -0.1415
 6202TIP3    H218613   1.814   5.438   0.742 -0.1138  0.1756 -0.0264
 6203TIP3   OH218614   4.470   4.826   4.159 -0.0804 -0.1253 -0.4551
 6203TIP3    H118615   4.489   4.762   4.228 -3.0154 -0.3628  0.1938
 6203TIP3    H218616   4.448   4.773   4.082 -1.5477  0.0646 -0.1889
 6204TIP3   OH218617   0.950   0.132   0.179  0.6883 -0.0511 -0.1057
 6204TIP3    H118618   0.939   0.081   0.099 -0.3981  0.4750 -0.3158
 6204TIP3    H218619   0.881   0.100   0.237 -0.1249  1.2848 -0.3120
 6205TIP3   OH218620   5.035   3.806   4.094 -0.2679 -0.1001  0.0402
 6205TIP3    H118621   4.968   3.751   4.134  0.0127  0.1758  0.9165
 6205TIP3    H218622   4.993   3.846   4.018 -0.8376 -0.5717  0.1120
 6206TIP3   OH218623   0.316   0.843   1.506 -0.0333 -0.1145 -0.2281
 6206TIP3    H118624   0.261   0.862   1.430 -0.6233 -0.3663  0.1377
 6206TIP3    H218625   0.340   0.929   1.541 -2.0639 -0.0076  0.9625
 6207TIP3   OH218626   4.476   3.832   4.474  0.3378 -0.2709 -0.2925
 6207TIP3    H118627   4.458   3.751   4.522  1.7877 -2.3645 -3.0677
 6207TIP3    H218628   4.572   3.839   4.475  0.1686  2.6165  1.7082
 6208TIP3   OH218629   1.286   5.900   0.170 -0.2438  0.2177  0.5471
 6208TIP3    H118630   1.280   5.923   0.263  0.0309  2.7558 -0.0243
 6208TIP3    H218631   1.348   5.827   0.168 -0.3027  0.0847  2.3681
 6209TIP3   OH218632   1.448   3.084   4.802 -0.2083  0.5223 -0.0464
 6209TIP3    H118633   1.414   3.003   4.765 -0.2567  0.4493  0.1567
 6209TIP3    H218634   1.390   3.103   4.876 -0.8941  1.3478 -0.7779
 6210TIP3   OH218635   0.274   4.062   3.722 -0.5199  0.1989 -0.4555
 6210TIP3    H118636   0.325   4.043   3.644  0.4133  0.5645  0.0657
 6210TIP3    H218637   0.326   4.126   3.770 -0.2179 -1.3612  1.3503
 6211TIP3   OH218638   5.552   5.630   0.881  0.0770 -0.0265 -0.3929
 6211TIP3    H118639   5.552   5.637   0.977 -0.5295 -1.3999 -0.2689
 6211TIP3    H218640   5.486   5.693   0.852  0.6169  0.7519  0.0556
 6212TIP3   OH218641   4.001   4.652   4.841 -0.2405 -0.8058 -0.1634
 6212TIP3    H118642   4.051   4.571   4.849 -1.0699 -1.2378  0.7120
 6212TIP3    H218643   4.041   4.712   4.904 -0.9247 -1.2123  0.6716
 6213TIP3   OH218644   4.595   2.805   4.318 -0.1188  0.4007  0.0160
 6213TIP3    H118645   4.596   2.829   4.226  2.0193  2.2560  0.4681
 6213TIP3    H218646   4.584   2.710   4.318  1.2349  0.2181 -2.1937
 6214TIP3   OH218647   6.338   5.933   1.654  0.0339  0.2108  0.1654
 6214TIP3    H118648   6.269   5.940   1.720 -0.2259 -1.7625  0.1108
 6214TIP3    H218649   6.367   5.842   1.658  1.3068  0.5348 -1.1673
 6215TIP3   OH218650   1.765   5.541   2.285  0.4285  0.1415 -0.1241
 6215TIP3    H118651   1.729   5.452   2.291  0.7738  0.1163  1.8527
 6215TIP3    H218652   1.843   5.538   2.340  0.4324  1.6879 -0.0451
 6216TIP3   OH218653   0.335   4.780   0.491  0.1721 -0.0691  0.1112
 6216TIP3    H118654   0.376   4.754   0.573 -0.0229  0.2966  0.3243
 6216TIP3    H218655   0.408   4.806   0.435  0.1768  1.2685  0.7392
 6217TIP3   OH218656   5.778   4.442   5.184  0.3080 -0.2955  0.5219
 6217TIP3    H118657   5.816   4.368   5.136 -1.3573 -1.5771  1.1236
 6217TIP3    H218658   5.712   4.478   5.125  0.5985  0.2557  0.5265
 6218TIP3   OH218659   3.843   5.336   4.582  0.1500 -0.0156  0.4798
 6218TIP3    H118660   3.858   5.252   4.626  0.3267 -0.8224 -1.1101
 6218TIP3    H218661   3.843   5.401   4.653 -1.0853 -1.4819  1.8420
 6219TIP3   OH218662   2.249   3.824   0.750  0.0687 -0.4967 -0.0297
 6219TIP3    H118663   2.223   3.733   0.759  0.2766 -0.4429  1.2436
 6219TIP3    H218664   2.168   3.874   0.762 -0.1920 -0.5307 -1.5313
 6220TIP3   OH218665   0.032   3.675   2.716  0.5949  0.5485 -0.0158
 6220TIP3    H118666   0.126   3.674   2.732  0.5302  0.8016  0.3950
 6220TIP3    H218667  -0.005   3.615   2.781  0.4433  0.6825  0.0226
 6221TIP3   OH218668   5.315   2.702   3.859 -0.3317  0.2430 -0.1454
 6221TIP3    H118669   5.347   2.733   3.774  0.0380 -0.8409 -0.4032
 6221TIP3    H218670   5.259   2.773   3.890 -1.4128  0.1361 -1.8297
 6222TIP3   OH218671   2.532   2.548   0.971 -0.7764  0.3763 -0.2472
 6222TIP3    H118672   2.503   2.459   0.949 -1.7411  1.0261 -1.6763
 6222TIP3    H218673   2.476   2.575   1.044 -0.8549  0.0308 -0.1805
 6223TIP3   OH218674   4.723   2.123   3.097 -0.4002  0.3316 -0.4614
 6223TIP3    H118675   4.652   2.088   3.151  1.4642 -2.8412  0.0411
 6223TIP3    H218676   4.712   2.079   3.012  0.4514  0.5099 -0.6629
 6224TIP3   OH218677   0.888   5.232   1.155 -0.2076  0.0117 -0.1478
 6224TIP3    H118678   0.913   5.195   1.240 -1.6677  0.1638  0.3641
 6224TIP3    H218679   0.948   5.306   1.142  0.9781 -0.8902  0.0606
 6225TIP3   OH218680   6.292   3.854   4.748 -0.0362  0.4082  0.3809
 6225TIP3    H118681   6.315   3.945   4.764 -1.1391  0.9375 -0.9625
 6225TIP3    H218682   6.364   3.804   4.786  0.4042  1.8234  1.4229
 6226TIP3   OH218683   4.601   5.484   2.367  0.3527  0.1752  0.1597
 6226TIP3    H118684   4.663   5.491   2.439  2.1582 -0.3641 -1.3116
 6226TIP3    H218685   4.654   5.459   2.291 -2.1787 -4.1918 -0.3158
 6227TIP3   OH218686   2.791   0.055   0.284 -0.1056 -0.3226  0.1829
 6227TIP3    H118687   2.850   0.113   0.236 -0.7140  0.2354  0.0967
 6227TIP3    H218688   2.815  -0.033   0.256  0.0481 -0.0448 -0.5696
 6228TIP3   OH218689   4.655   1.152   3.190 -0.9594 -0.0794 -0.3032
 6228TIP3    H118690   4.703   1.214   3.245 -2.9127  0.6115  0.6649
 6228TIP3    H218691   4.616   1.206   3.121  0.9129 -0.8507 -2.0095
 6229TIP3   OH218692   6.027   2.757   4.162 -0.3182 -0.3295  0.2904
 6229TIP3    H118693   5.990   2.696   4.226 -0.0223 -0.8354 -0.0224
 6229TIP3    H218694   5.951   2.798   4.122 -0.5316 -1.0458 -0.0398
 6230TIP3   OH218695   4.797   0.312   0.726  0.1802 -0.5179  0.5993
 6230TIP3    H118696   4.808   0.226   0.767 -0.9078 -0.6045  0.7348
 6230TIP3    H218697   4.755   0.365   0.794 -1.5339 -0.6217 -0.3341
 6231TIP3   OH218698   5.012   2.774   5.231  0.3852 -0.1200  0.1085
 6231TIP3    H118699   4.980   2.745   5.317  0.0494  0.9101  0.3358
 6231TIP3    H218700   4.976   2.861   5.220 -0.2126 -0.5520 -1.4383
 6232TIP3   OH218701   3.224   1.466   0.934 -0.3273 -0.0743  0.0621
 6232TIP3    H118702   3.201   1.375   0.915  1.2264 -0.4334 -0.1480
 6232TIP3    H218703   3.208   1.476   1.028  2.1172 -1.3869  0.6632
 6233TIP3   OH218704   4.401   0.415   4.843 -0.9948  0.3812  0.1725
 6233TIP3    H118705   4.407   0.393   4.937 -0.3061  0.6313  0.1877
 6233TIP3    H218706   4.329   0.477   4.838 -1.3483  0.0072  0.4703
 6234TIP3   OH218707   4.221   5.252   4.643 -0.3038 -0.0361  0.4347
 6234TIP3    H118708   4.311   5.283   4.635 -0.1362 -0.4917  0.5661
 6234TIP3    H218709   4.182   5.270   4.557  0.3505 -1.2533 -0.1287
 6235TIP3   OH218710   3.568   4.070   4.698 -0.1862  1.2153 -0.2080
 6235TIP3    H118711   3.648   4.063   4.646  0.3362  1.3450  0.5705
 6235TIP3    H218712   3.497   4.051   4.636  0.5601 -0.9940 -0.4320
 6236TIP3   OH218713   6.401   4.571   0.557  0.4278 -0.4859  0.2114
 6236TIP3    H118714   6.445   4.624   0.491 -0.8402 -1.2652 -1.2918
 6236TIP3    H218715   6.359   4.500   0.507 -1.3820 -0.5158  1.7170
 6237TIP3   OH218716   3.920   2.794   4.241  0.7826  0.1420 -0.3627
 6237TIP3    H118717   3.922   2.719   4.181 -0.0212  0.4820 -0.8074
 6237TIP3    H218718   4.009   2.830   4.236  0.6178  0.3777 -1.6051
 6238TIP3   OH218719   0.326   3.013   1.500 -0.2480 -0.0975 -1.1029
 6238TIP3    H118720   0.321   2.955   1.577  0.4144  1.9646  0.5289
 6238TIP3    H218721   0.257   3.078   1.515  0.6118  0.9634 -1.6907
 6239TIP3   OH218722   2.278   0.340   0.651 -0.0056 -0.1127  0.5112
 6239TIP3    H118723   2.332   0.378   0.582  0.9336 -2.5078 -0.1036
 6239TIP3    H218724   2.302   0.389   0.730  3.1246 -1.1580  0.2564
 6240TIP3   OH218725   3.844   0.531   1.738 -0.4925  0.4531 -0.1207
 6240TIP3    H118726   3.882   0.464   1.680 -0.6657 -0.3266  0.6592
 6240TIP3    H218727   3.822   0.484   1.818  0.5611  1.7058  0.9268
 6241TIP3   OH218728   2.103   1.017   1.910  0.7543  0.1363  0.0861
 6241TIP3    H118729   2.168   0.985   1.848  1.1013  0.4238  0.3041
 6241TIP3    H218730   2.119   1.111   1.915  1.0710  0.0327  1.0223
 6242TIP3   OH218731   5.751   2.788   3.289  0.0020  0.1147 -0.2507
 6242TIP3    H118732   5.676   2.758   3.236 -0.7671  0.0268  0.8678
 6242TIP3    H218733   5.796   2.708   3.314 -0.3211  0.0750  0.2147
 6243TIP3   OH218734   5.685   2.686   4.840  0.2567  0.1878  0.1658
 6243TIP3    H118735   5.650   2.608   4.882  1.9508 -0.6744  0.0134
 6243TIP3    H218736   5.779   2.669   4.832  0.4320  1.6377 -1.1429
 6244TIP3   OH218737   5.352   0.809   0.292  0.0611 -0.2407 -0.4077
 6244TIP3    H118738   5.261   0.835   0.278  0.4719  2.1833  1.2544
 6244TIP3    H218739   5.402   0.890   0.283  1.9632 -1.3774 -0.3331
 6245TIP3   OH218740   0.984   4.528   2.971  0.0840 -0.6952  0.3850
 6245TIP3    H118741   0.954   4.443   3.002 -2.6205  0.6159  1.6105
 6245TIP3    H218742   1.031   4.566   3.045  0.0354 -0.5616  0.3488
 6246TIP3   OH218743   6.208   5.709   0.651  0.2672  0.1430 -0.2991
 6246TIP3    H118744   6.119   5.737   0.630  1.3404  2.2144 -2.2106
 6246TIP3    H218745   6.221   5.630   0.598 -0.5711 -0.4842  0.3913
 6247TIP3   OH218746   3.732   5.315   3.052  0.2573 -0.0240 -0.0920
 6247TIP3    H118747   3.752   5.399   3.010  1.1847  0.4220  1.1941
 6247TIP3    H218748   3.789   5.252   3.007 -0.6734 -0.0364 -1.2781
 6248TIP3   OH218749   0.747   4.193   0.504 -0.3014  0.3246  0.2014
 6248TIP3    H118750   0.683   4.149   0.448  2.4777  1.1963 -3.8049
 6248TIP3    H218751   0.769   4.127   0.570 -2.3280 -1.3413 -0.7081
 6249TIP3   OH218752   0.648   0.729   1.011  0.8593 -0.0611  0.0257
 6249TIP3    H118753   0.725   0.722   0.954  0.5631  0.3893 -0.4383
 6249TIP3    H218754   0.575   0.710   0.953  0.6158 -0.4595  0.4626
 6250TIP3   OH218755   4.656   3.709   5.211  0.2996  0.5527 -0.0603
 6250TIP3    H118756   4.733   3.717   5.266 -0.0551 -0.0304  0.5321
 6250TIP3    H218757   4.629   3.799   5.193  0.1423  0.7386  1.1102
 6251TIP3   OH218758   1.951   0.339   0.958 -0.6617 -0.4465  0.0470
 6251TIP3    H118759   1.938   0.380   1.044  1.5306  1.4527 -0.4739
 6251TIP3    H218760   2.023   0.277   0.972  0.4065  0.6266 -0.6418
 6252TIP3   OH218761   4.487   2.794   4.752  0.0240  0.0870 -0.3257
 6252TIP3    H118762   4.494   2.713   4.702 -0.5628  0.4618 -1.0229
 6252TIP3    H218763   4.488   2.766   4.844 -0.5039 -0.7393 -0.5664
 6253TIP3   OH218764   6.309   2.029   5.065 -0.0039  0.7582  0.4255
 6253TIP3    H118765   6.382   1.992   5.115 -1.1754 -1.2784  0.6676
 6253TIP3    H218766   6.345   2.110   5.028  2.5927 -0.5123  0.0146
 6254TIP3   OH218767   5.823   5.033   4.266 -0.1048 -0.3515 -0.0704
 6254TIP3    H118768   5.914   5.003   4.268 -0.3511 -1.0587  1.3061
 6254TIP3    H218769   5.780   4.983   4.335 -1.1597  1.2317  0.4514
 6255TIP3   OH218770   5.577   2.684   3.960 -0.1583  0.1006  0.2497
 6255TIP3    H118771   5.494   2.702   3.917  0.3722  0.0816 -0.8089
 6255TIP3    H218772   5.606   2.601   3.923  0.3995  0.1771  0.5067
 6256TIP3   OH218773   3.796   4.009   3.770 -0.1707 -0.1517 -0.4156
 6256TIP3    H118774   3.721   3.955   3.746  0.2599  0.0442 -2.2694
 6256TIP3    H218775   3.868   3.976   3.716  0.5770  1.0176 -0.1625
 6257TIP3   OH218776   5.529   0.766   1.085 -0.2339  0.1224  0.3548
 6257TIP3    H118777   5.488   0.824   1.148  0.8015  0.9440  0.2920
 6257TIP3    H218778   5.476   0.773   1.006 -0.5233  0.4324  0.5798
 6258TIP3   OH218779   4.221   1.056   1.689  0.3819 -0.0913 -0.3602
 6258TIP3    H118780   4.289   1.117   1.660 -0.0504 -0.0454 -1.3130
 6258TIP3    H218781   4.139   1.104   1.676 -0.0366 -1.2050 -2.0577
 6259TIP3   OH218782   2.747   4.104   0.097 -0.0248  0.1724  0.3185
 6259TIP3    H118783   2.778   4.191   0.070 -1.2763  0.7759  0.7751
 6259TIP3    H218784   2.771   4.098   0.189 -0.6831  0.3963  0.5127
 6260TIP3   OH218785   1.626   4.865   4.617 -0.7824 -0.1669 -0.0502
 6260TIP3    H118786   1.660   4.830   4.699  0.6178  2.3033  0.4851
 6260TIP3    H218787   1.704   4.879   4.563 -1.6934 -1.9602 -1.9404
 6261TIP3   OH218788   2.504   5.010   0.295 -0.1694  0.2134  0.3929
 6261TIP3    H118789   2.509   4.953   0.372 -1.3427 -3.0534 -1.8605
 6261TIP3    H218790   2.583   4.989   0.245 -0.5741  0.6348 -0.4241
 6262TIP3   OH218791   6.122   3.238   1.564 -0.0468 -0.7223  0.2616
 6262TIP3    H118792   6.125   3.149   1.531 -1.8240 -0.6521 -0.1307
 6262TIP3    H218793   6.131   3.293   1.486 -0.2947 -0.5596  0.3461
 6263TIP3   OH218794   0.433   3.729   4.210  0.3172  0.7037 -0.1886
 6263TIP3    H118795   0.481   3.684   4.280 -0.3960 -0.4477 -0.4115
 6263TIP3    H218796   0.369   3.664   4.181  0.1815  1.4105 -1.4726
 6264TIP3   OH218797   4.338   2.291   2.435  0.5983 -0.1295 -0.0495
 6264TIP3    H118798   4.329   2.196   2.423  2.4752 -0.2815 -0.4681
 6264TIP3    H218799   4.266   2.329   2.386 -0.0918 -1.3374  0.0072
 6265TIP3   OH218800   1.547   3.436   3.334  1.2089  0.0089  0.1898
 6265TIP3    H118801   1.513   3.524   3.320  0.4387 -0.2578  0.3404
 6265TIP3    H218802   1.641   3.445   3.324  1.0581  0.6718 -0.7172
 6266TIP3   OH218803   1.576   2.614   0.340  0.8671  0.0652 -0.0691
 6266TIP3    H118804   1.554   2.703   0.368 -0.1094 -1.1119  3.1229
 6266TIP3    H218805   1.670   2.607   0.357  0.7209  0.1055  0.7707
 6267TIP3   OH218806   1.765   5.873   0.023  0.1775 -0.1829  0.2989
 6267TIP3    H118807   1.729   5.873   0.111 -1.4019  1.5821 -0.3207
 6267TIP3    H218808   1.718   5.802  -0.022 -1.5177  1.1549 -0.0840
 6268TIP3   OH218809   6.217   3.892   2.882  0.3317  0.4320  0.0085
 6268TIP3    H118810   6.248   3.823   2.940  0.7283  0.5063 -0.1136
 6268TIP3    H218811   6.289   3.905   2.820 -0.0797  0.3661 -0.4862
 6269TIP3   OH218812   5.047   0.485   0.149  0.2869 -0.2831  0.0304
 6269TIP3    H118813   5.034   0.503   0.242  2.5099  0.5967  0.2095
 6269TIP3    H218814   5.002   0.557   0.104  2.3794  1.4247  0.5559
 6270TIP3   OH218815   0.112   2.993   5.177 -0.3220 -0.3412 -0.4844
 6270TIP3    H118816   0.081   3.076   5.214  1.1462 -0.8807  2.0578
 6270TIP3    H218817   0.034   2.938   5.175 -0.1857 -0.7497  3.1756
 6271TIP3   OH218818   0.164   2.071   1.750  0.0949 -0.1470  0.3415
 6271TIP3    H118819   0.195   2.111   1.831 -0.8661  0.2884  0.4976
 6271TIP3    H218820   0.117   2.141   1.705  0.8883 -0.2973 -0.7500
 6272TIP3   OH218821   5.064   5.280   4.664 -0.1598  0.9012  0.6509
 6272TIP3    H118822   5.068   5.374   4.647 -0.5647  1.1477  1.8848
 6272TIP3    H218823   5.131   5.243   4.606  1.7183  2.2118  1.9344
 6273TIP3   OH218824   5.274   2.593   4.653 -0.6984 -0.0427 -0.1908
 6273TIP3    H118825   5.185   2.598   4.618  0.0693 -0.0264 -2.2475
 6273TIP3    H218826   5.311   2.680   4.636  0.1543 -0.4864 -0.6450
 6274TIP3   OH218827   0.311   5.429   3.647 -0.3372  0.9310  0.2821
 6274TIP3    H118828   0.321   5.375   3.726 -0.7664  0.0515 -0.2474
 6274TIP3    H218829   0.369   5.503   3.661 -1.3237  1.4222  1.9738
 6275TIP3   OH218830   1.788   1.907   0.387 -0.7364 -0.1746 -0.3921
 6275TIP3    H118831   1.834   1.889   0.469 -2.9869  1.1775  1.2161
 6275TIP3    H218832   1.743   1.825   0.367  0.8966 -0.9399 -1.0382
 6276TIP3   OH218833   5.318   2.357   2.084  0.1277 -0.3783 -0.3150
 6276TIP3    H118834   5.399   2.330   2.129 -0.5494  0.3885  1.4120
 6276TIP3    H218835   5.348   2.397   2.003  1.3729 -2.1759 -0.7943
 6277TIP3   OH218836   3.647   0.989   1.423 -0.1582  0.3904 -0.4646
 6277TIP3    H118837   3.680   0.925   1.360  0.7781  1.7226 -1.3569
 6277TIP3    H218838   3.677   0.957   1.508  0.1718 -0.4290 -0.8837
 6278TIP3   OH218839   5.148   2.607   4.106  0.0965 -0.1155  0.0583
 6278TIP3    H118840   5.116   2.528   4.149  0.6253  0.1623  0.9738
 6278TIP3    H218841   5.148   2.586   4.013  1.2638 -1.5809  0.3689
 6279TIP3   OH218842   0.961   6.038   0.230  0.5037 -0.2467 -0.0029
 6279TIP3    H118843   0.877   6.003   0.259 -0.0862  0.5196 -0.7378
 6279TIP3    H218844   1.013   6.045   0.310  0.0048 -1.0941  0.4032
 6280TIP3   OH218845   5.883   0.371   1.664  0.3148  0.0219  0.4091
 6280TIP3    H118846   5.960   0.326   1.699  0.6827  1.7700  1.9543
 6280TIP3    H218847   5.915   0.456   1.636 -0.6356 -0.1143 -1.1258
 6281TIP3   OH218848   6.086   5.206   4.422  0.6544 -0.6082  0.7779
 6281TIP3    H118849   6.070   5.164   4.337  0.5857  1.4455 -0.2595
 6281TIP3    H218850   5.999   5.228   4.455  0.7995  0.8427  0.2020
 6282TIP3   OH218851   1.115   1.831   2.946 -0.6946 -0.1725 -0.2760
 6282TIP3    H118852   1.126   1.796   3.034  0.4035 -2.9352 -1.4560
 6282TIP3    H218853   1.110   1.926   2.958  0.5615 -0.4330  2.6447
 6283TIP3   OH218854   3.515   0.168   1.734 -0.2158 -0.4455 -0.3238
 6283TIP3    H118855   3.560   0.165   1.650 -0.7135 -1.2297 -0.5685
 6283TIP3    H218856   3.466   0.085   1.738 -0.0591 -0.4921  0.8048
 6284TIP3   OH218857   1.366   1.620   2.503 -0.4457 -0.2868 -0.5058
 6284TIP3    H118858   1.360   1.663   2.417 -3.6000 -1.0025 -0.6981
 6284TIP3    H218859   1.279   1.584   2.518  0.0497 -0.2113  3.0107
 6285TIP3   OH218860   4.495   0.177   1.717  0.0013  0.2848 -0.6246
 6285TIP3    H118861   4.574   0.216   1.753 -0.9163  1.7230 -0.0807
 6285TIP3    H218862   4.463   0.243   1.654 -2.2983  1.0878  1.2700
 6286TIP3   OH218863   2.220   5.918   0.491 -0.0862 -0.6878  0.2290
 6286TIP3    H118864   2.245   6.006   0.464  0.6510 -1.1503 -0.6300
 6286TIP3    H218865   2.146   5.896   0.435 -1.5381  0.1235  1.7828
 6287TIP3   OH218866   5.362   0.729   0.583 -0.3655  0.1504  0.4999
 6287TIP3    H118867   5.273   0.706   0.556  0.0739  0.3097 -1.1242
 6287TIP3    H218868   5.401   0.768   0.505  0.7418  1.1862  1.5687
 6288TIP3   OH218869   4.459   0.304   0.890  0.3978  0.0849  0.0600
 6288TIP3    H118870   4.393   0.364   0.925 -0.6322 -1.1632  0.2853
 6288TIP3    H218871   4.541   0.353   0.896 -0.5329  1.7799 -0.5039
 6289TIP3   OH218872   0.746   2.990   4.798 -0.1829 -0.1448 -0.5282
 6289TIP3    H118873   0.791   3.060   4.751 -0.1382 -0.4953 -1.0075
 6289TIP3    H218874   0.673   2.965   4.742  0.6345 -1.4603 -1.0303
 6290TIP3   OH218875   5.783   2.924   4.646  0.0391 -0.2896  0.5849
 6290TIP3    H118876   5.752   2.982   4.576  0.8036 -0.3584  0.1862
 6290TIP3    H218877   5.831   2.855   4.601  0.2260 -0.5359  1.1521
 6291TIP3   OH218878   1.174   3.874   4.747 -0.1001 -0.0731 -0.7012
 6291TIP3    H118879   1.269   3.884   4.747  0.0529 -1.3669 -2.0393
 6291TIP3    H218880   1.147   3.899   4.835  1.4649  0.3702 -0.3323
 6292TIP3   OH218881   2.557   0.959   2.051  0.3436  0.6258 -0.0334
 6292TIP3    H118882   2.569   0.877   2.003  0.2023  0.9824 -0.6791
 6292TIP3    H218883   2.538   1.024   1.983  0.0165  1.1057  0.5150
 6293TIP3   OH218884   5.470   1.493   1.287  0.5769  0.2446  0.2982
 6293TIP3    H118885   5.520   1.468   1.209  0.1219 -1.9696  0.6904
 6293TIP3    H218886   5.380   1.499   1.257  0.3005 -1.2876  0.7743
 6294TIP3   OH218887   0.966   1.132   0.162 -0.1203  0.5252 -0.1188
 6294TIP3    H118888   0.936   1.222   0.170 -1.4093  0.0184  0.9259
 6294TIP3    H218889   0.886   1.079   0.165  0.6623 -0.6881 -0.1536
 6295TIP3   OH218890   3.218   2.631   5.088 -0.5703 -0.1678  0.4330
 6295TIP3    H118891   3.238   2.637   5.182 -0.2698  1.3156  0.2848
 6295TIP3    H218892   3.293   2.670   5.045 -0.7886 -0.6879 -0.4348
 6296TIP3   OH218893   1.320   2.902   5.041 -0.3485  0.6483 -0.0844
 6296TIP3    H118894   1.272   2.971   4.996  2.4786  1.6289 -1.6854
 6296TIP3    H218895   1.325   2.932   5.132 -3.0772  0.3164  0.2035
 6297TIP3   OH218896   4.733   1.337   0.498 -0.3301 -0.5373 -0.2157
 6297TIP3    H118897   4.704   1.282   0.425 -2.0893  0.2624 -0.1496
 6297TIP3    H218898   4.740   1.278   0.573 -0.2160 -1.0316 -0.6164
 6298TIP3   OH218899   2.602   5.035   4.666 -0.5728  1.4459 -0.0509
 6298TIP3    H118900   2.591   5.113   4.721 -1.5224  0.5970  1.0003
 6298TIP3    H218901   2.675   4.988   4.705 -1.9068  0.3266  1.1163
 6299TIP3   OH218902   0.705   1.649   1.765  0.5572  0.5397 -0.3135
 6299TIP3    H118903   0.772   1.605   1.817  0.1235 -1.2676 -1.2355
 6299TIP3    H218904   0.733   1.635   1.674 -1.1208 -0.3524 -0.7136
 6300TIP3   OH218905   3.429   1.463   0.099 -0.1529  0.9982 -0.1980
 6300TIP3    H118906   3.385   1.397   0.045  0.2721  0.4961  0.0642
 6300TIP3    H218907   3.517   1.469   0.061  0.1494  0.6418  0.4344
 6301TIP3   OH218908   1.227   0.883   0.602 -0.0290  0.7269 -0.1326
 6301TIP3    H118909   1.218   0.979   0.601 -1.0769  0.6581  1.0687
 6301TIP3    H218910   1.139   0.850   0.586  0.1182 -0.0344  0.5880
 6302TIP3   OH218911   5.379   5.442   4.506  0.2655 -0.1834  0.5041
 6302TIP3    H118912   5.334   5.459   4.423  0.2252 -1.3093  0.2838
 6302TIP3    H218913   5.367   5.522   4.557  0.3479  0.5557 -0.6021
 6303TIP3   OH218914   4.932   2.245   0.397  0.0012 -0.3658 -1.0746
 6303TIP3    H118915   4.947   2.328   0.351 -1.8393  0.0973 -0.8592
 6303TIP3    H218916   4.950   2.265   0.489  0.0653 -0.3379 -1.0930
 6304TIP3   OH218917   4.075   0.367   4.915 -0.1693  0.3691  0.5571
 6304TIP3    H118918   4.101   0.277   4.936  0.9819  0.7134  0.6407
 6304TIP3    H218919   4.031   0.360   4.830  0.4963 -0.1813  0.2516
 6305TIP3   OH218920   3.960   4.841   1.903 -0.1435 -0.2101  0.0047
 6305TIP3    H118921   3.989   4.770   1.960  0.7458 -0.5042 -0.7964
 6305TIP3    H218922   4.007   4.918   1.934  1.4782 -0.6733 -1.2520
 6306TIP3   OH218923   3.581   5.718   0.915 -0.0358  0.9147 -0.1784
 6306TIP3    H118924   3.501   5.668   0.929  0.0327  0.5054 -1.2127
 6306TIP3    H218925   3.624   5.719   1.001 -1.3215  1.4590  0.4610
 6307TIP3   OH218926   5.672   0.264   0.131 -0.2228 -0.0861  0.4134
 6307TIP3    H118927   5.608   0.200   0.100  0.2336 -0.5858  0.4999
 6307TIP3    H218928   5.754   0.239   0.089  0.2493 -0.3490  1.4604
 6308TIP3   OH218929   1.027   3.470   4.801 -0.0057  0.2852 -0.3711
 6308TIP3    H118930   1.064   3.396   4.753 -0.6320  0.4481 -1.1093
 6308TIP3    H218931   1.007   3.535   4.734  1.8026  1.7013  0.3821
 6309TIP3   OH218932   3.963   5.570   0.689  0.0176 -0.4390  0.5069
 6309TIP3    H118933   4.045   5.562   0.640  1.5997  0.0073  2.9964
 6309TIP3    H218934   3.931   5.480   0.697  1.4303 -0.8858  1.3739
 6310TIP3   OH218935   3.480   5.319   2.135 -0.1274 -0.4624  0.2990
 6310TIP3    H118936   3.493   5.273   2.218  2.0480  0.6301  0.6000
 6310TIP3    H218937   3.526   5.266   2.071 -0.0956 -0.2524  0.1464
 6311TIP3   OH218938   4.454   0.601   3.497 -0.7749 -0.5054 -0.1878
 6311TIP3    H118939   4.491   0.676   3.542 -2.4634  0.8407 -0.9617
 6311TIP3    H218940   4.473   0.616   3.404 -3.3725  0.3530 -0.6361
 6312TIP3   OH218941   1.183   3.669   3.776 -0.1424  0.2364 -0.1360
 6312TIP3    H118942   1.246   3.713   3.719 -1.6418  2.6092 -0.0711
 6312TIP3    H218943   1.212   3.578   3.779  1.5428  0.6484 -2.4585
 6313TIP3   OH218944   3.399   5.605   1.973 -0.1228 -0.4734 -0.1586
 6313TIP3    H118945   3.425   5.657   2.048  1.2763  0.2478 -1.1219
 6313TIP3    H218946   3.424   5.516   1.995  2.4890  0.0811 -0.7255
 6314TIP3   OH218947   0.379   1.966   4.317 -0.0124 -0.6268  0.3027
 6314TIP3    H118948   0.363   1.924   4.402 -2.2092  0.8819  0.6748
 6314TIP3    H218949   0.474   1.962   4.306  0.3846 -0.2414  3.1869
 6315TIP3   OH218950   2.184   5.001   4.982 -0.2745 -0.1600 -0.3163
 6315TIP3    H118951   2.248   4.963   5.042 -0.8264 -0.8606 -0.1561
 6315TIP3    H218952   2.235   5.028   4.906  0.6277  1.9721  1.0077
 6316TIP3   OH218953   2.889   5.834   5.205  0.1280 -0.0614  0.0705
 6316TIP3    H118954   2.892   5.849   5.110 -1.4610 -1.8911 -0.3159
 6316TIP3    H218955   2.976   5.802   5.227  0.4846  0.2998 -0.7885
 6317TIP3   OH218956   5.134   1.296   0.868 -0.0816 -0.2368 -0.4611
 6317TIP3    H118957   5.162   1.371   0.815 -0.2413 -0.7904 -1.3451
 6317TIP3    H218958   5.057   1.327   0.915 -0.4373  0.0006 -1.1980
 6318TIP3   OH218959   1.969   0.115   4.759  0.0829  0.1495  0.0133
 6318TIP3    H118960   1.946   0.168   4.683 -0.4980  1.2109  0.9131
 6318TIP3    H218961   2.046   0.160   4.796  2.4135 -2.1975 -1.7861
 6319TIP3   OH218962   1.222   5.498   3.275 -0.1550  0.1499  0.4095
 6319TIP3    H118963   1.272   5.566   3.320  1.1857  0.1936 -1.1131
 6319TIP3    H218964   1.283   5.425   3.264 -0.9233 -0.4528  0.0290
 6320TIP3   OH218965   4.534   0.768   0.577 -0.2828 -0.5179  0.2400
 6320TIP3    H118966   4.528   0.794   0.485  1.9446  1.8741  0.7211
 6320TIP3    H218967   4.625   0.741   0.589 -0.8530 -2.0071  1.4911
 6321TIP3   OH218968   0.980   2.803   4.656 -0.0784 -0.3491 -0.2075
 6321TIP3    H118969   0.957   2.878   4.602  0.6404 -0.8266 -1.2008
 6321TIP3    H218970   1.010   2.840   4.739  1.5884  0.5337 -1.1759
 6322TIP3   OH218971   3.599   3.531   0.963 -0.0938  0.9961  0.4017
 6322TIP3    H118972   3.651   3.529   1.043  0.3027  1.0076  0.1445
 6322TIP3    H218973   3.561   3.443   0.957  3.9999 -0.7044 -2.1068
 6323TIP3   OH218974   0.882   5.199   5.008 -0.0439 -0.2523 -0.2874
 6323TIP3    H118975   0.817   5.151   4.955 -0.4388 -0.5414  0.4599
 6323TIP3    H218976   0.832   5.236   5.080  0.6153 -0.4486  0.2759
 6324TIP3   OH218977   5.564   1.518   0.046 -0.1578  0.0024 -0.3484
 6324TIP3    H118978   5.634   1.509   0.111 -2.3142  0.6878  2.1219
 6324TIP3    H218979   5.536   1.428   0.028  1.4537 -0.2936 -1.5110
 6325TIP3   OH218980   5.445   2.706   0.732  0.6120 -0.3478 -0.1085
 6325TIP3    H118981   5.401   2.717   0.817  3.2043 -1.0694  1.4055
 6325TIP3    H218982   5.470   2.794   0.706  1.6789 -0.3143  0.9698
 6326TIP3   OH218983   1.972   4.444   4.713  0.6986 -0.0728  0.3831
 6326TIP3    H118984   2.038   4.478   4.774  0.2629  1.1867  0.1809
 6326TIP3    H218985   1.984   4.497   4.634 -1.9092  1.6023  1.0633
 6327TIP3   OH218986   0.911   5.774   5.053  0.0451  0.0221  0.1479
 6327TIP3    H118987   0.872   5.687   5.040  1.4842 -0.3571 -1.8105
 6327TIP3    H218988   0.996   5.756   5.094  1.9367  0.1602 -3.4552
 6328TIP3   OH218989   0.232   4.281   4.125  0.0274 -0.2508  0.2186
 6328TIP3    H118990   0.137   4.276   4.121 -0.0831  1.4473  0.3535
 6328TIP3    H218991   0.257   4.218   4.193 -0.9185 -1.3674 -0.4628
 6329TIP3   OH218992   0.786   4.300   3.767  0.5269  0.4696  0.1932
 6329TIP3    H118993   0.754   4.260   3.686 -0.8790 -1.0990  1.4907
 6329TIP3    H218994   0.880   4.312   3.753  0.2980  0.2900 -1.6762
 6330TIP3   OH218995   1.110   4.631   5.088 -0.6959 -0.4086 -0.1249
 6330TIP3    H118996   1.158   4.619   5.169  0.9114  0.4233 -0.9295
 6330TIP3    H218997   1.174   4.612   5.019 -1.6673  0.1553 -1.2056
 6331TIP3   OH218998   1.900   3.617   4.035 -0.7630 -0.2957 -0.0489
 6331TIP3    H118999   1.930   3.531   4.066 -1.2044  0.1305  1.5742
 6331TIP3    H219000   1.809   3.604   4.011 -0.7822 -0.3065  0.0319
 6332TIP3   OH219001   3.797   0.903   0.590  0.0232  0.0618 -0.1172
 6332TIP3    H119002   3.722   0.922   0.533 -0.4044 -3.1288 -0.7219
 6332TIP3    H219003   3.826   0.989   0.620 -1.8714  1.6032 -2.4332
 6333TIP3   OH219004   5.935   3.309   0.114  0.3959  0.1368 -0.0278
 6333TIP3    H119005   6.008   3.272   0.065 -0.5519 -2.7546  0.6663
 6333TIP3    H219006   5.865   3.244   0.107 -1.4434  1.9323  0.9886
 6334TIP3   OH219007   2.378   2.689   4.630 -0.0587 -0.3703 -0.2629
 6334TIP3    H119008   2.302   2.745   4.611  1.0159  1.0936 -0.3396
 6334TIP3    H219009   2.382   2.629   4.556  0.2585  1.1088 -1.4867
 6335TIP3   OH219010   0.927   4.817   4.181 -0.3943 -0.7308  0.4497
 6335TIP3    H119011   0.989   4.744   4.176 -0.5999 -0.9632  1.1840
 6335TIP3    H219012   0.842   4.777   4.166 -0.3377 -0.3578 -0.8738
 6336TIP3   OH219013   0.134   0.852   0.330  0.3555  0.3781  0.1773
 6336TIP3    H119014   0.094   0.778   0.376 -1.1045  1.7396  1.1329
 6336TIP3    H219015   0.165   0.910   0.400  1.4161  0.7170 -0.5609
 6337TIP3   OH219016   1.144   1.320   1.962  0.0713  0.1622 -0.0222
 6337TIP3    H119017   1.198   1.255   2.004  0.6916  0.3088 -0.5802
 6337TIP3    H219018   1.178   1.326   1.873 -0.7070  0.4247 -0.3136
 6338TIP3   OH219019   5.357   3.194   1.796 -0.2513  0.4292 -0.6761
 6338TIP3    H119020   5.267   3.181   1.828 -0.1765 -1.0440 -1.0444
 6338TIP3    H219021   5.411   3.188   1.875 -0.1557 -2.3004 -0.8998
 6339TIP3   OH219022   5.463   0.088   0.014  0.1874  0.5043 -0.4068
 6339TIP3    H119023   5.385   0.053   0.058 -0.0639  0.9998 -0.4602
 6339TIP3    H219024   5.428   0.139  -0.058  0.6337 -1.8979 -2.4038
 6340TIP3   OH219025   1.713   3.923   4.257  0.2179  0.4201 -0.0251
 6340TIP3    H119026   1.801   3.920   4.220  0.7087  0.0259  1.1624
 6340TIP3    H219027   1.700   4.015   4.282 -0.0371  0.6465 -0.9582
 6341TIP3   OH219028   0.135   2.016   2.219  0.3838  0.5778 -0.3173
 6341TIP3    H119029   0.075   1.949   2.187  1.6327 -1.0650  0.7163
 6341TIP3    H219030   0.092   2.052   2.297  0.7986 -0.7176  0.5233
 6342TIP3   OH219031   6.030   1.700   3.129  0.3013  0.2667  0.3525
 6342TIP3    H119032   6.020   1.667   3.219 -0.0599 -1.5065 -0.3140
 6342TIP3    H219033   5.951   1.752   3.114 -0.1389 -0.2943  0.7067
 6343TIP3   OH219034   4.957   0.778   1.118 -0.0698  0.0968  0.1977
 6343TIP3    H119035   4.957   0.765   1.213 -2.4690  0.1540  0.2502
 6343TIP3    H219036   5.025   0.843   1.103  0.4751 -0.0597  1.8648
 6344TIP3   OH219037   3.938   4.665   1.219 -0.0696  0.3559  0.3186
 6344TIP3    H119038   3.899   4.695   1.301 -1.1051  0.9447 -0.3779
 6344TIP3    H219039   4.026   4.638   1.243  0.2183  2.1213  1.3226
 6345TIP3   OH219040   5.594   3.104   2.246 -0.1051  0.3212  0.5109
 6345TIP3    H119041   5.618   3.011   2.248 -1.5263 -0.0621  0.6428
 6345TIP3    H219042   5.516   3.109   2.302  0.4121  1.7343  1.1240
 6346TIP3   OH219043   3.797   5.156   2.689 -0.1580 -0.3558  0.1611
 6346TIP3    H119044   3.854   5.185   2.760 -0.1134 -0.2014  0.0628
 6346TIP3    H219045   3.830   5.202   2.611 -1.0712  0.5486  0.2939
 6347TIP3   OH219046   6.466   0.889   0.789  0.0998 -0.2659 -0.3624
 6347TIP3    H119047   6.484   0.965   0.844  0.8344  0.1171 -1.1231
 6347TIP3    H219048   6.387   0.913   0.741  1.4525  0.8529 -2.0876
 6348TIP3   OH219049   6.089   2.115   1.522  1.0247  0.1873  0.0315
 6348TIP3    H119050   6.050   2.136   1.607  1.8759 -2.2461  1.0486
 6348TIP3    H219051   6.014   2.101   1.464  0.4276  0.4596  0.7305
 6349TIP3   OH219052   3.548   6.071   4.743  0.4505  0.5752  0.0111
 6349TIP3    H119053   3.595   6.022   4.676  1.4802 -0.1435  1.2371
 6349TIP3    H219054   3.614   6.092   4.809 -1.2595 -2.1434  2.7225
 6350TIP3   OH219055   0.993   4.761   3.811  0.0756  0.3033  0.2134
 6350TIP3    H119056   0.927   4.711   3.763 -0.5523  3.0635 -1.9687
 6350TIP3    H219057   0.944   4.831   3.854  1.3591  1.4507 -0.1422
 6351TIP3   OH219058   2.176   3.939   4.843  0.0917  0.1751 -0.6388
 6351TIP3    H119059   2.209   3.903   4.926 -1.2520  0.0798 -0.1259
 6351TIP3    H219060   2.248   3.927   4.781  1.6330  1.5536  0.8586
 6352TIP3   OH219061   3.123   5.087   4.610 -0.0670 -0.1148 -0.4463
 6352TIP3    H119062   3.173   5.139   4.673 -0.4599 -1.8972  1.3795
 6352TIP3    H219063   3.189   5.051   4.551  0.7715 -1.6817  1.3845
 6353TIP3   OH219064   1.863   3.750   2.577 -0.2820  0.3450 -0.5869
 6353TIP3    H119065   1.828   3.661   2.571  0.6444 -0.3248  3.0102
 6353TIP3    H219066   1.930   3.754   2.508 -1.2681 -1.2758 -1.6608
 6354TIP3   OH219067   1.185   2.315   0.903 -0.0612  0.0257  0.4663
 6354TIP3    H119068   1.118   2.336   0.968 -0.7534 -1.2190  0.1589
 6354TIP3    H219069   1.148   2.243   0.852  1.7259 -1.1008  0.6870
 6355TIP3   OH219070   2.288   2.130   1.394 -0.5136 -0.3751 -0.5599
 6355TIP3    H119071   2.378   2.159   1.383 -0.1959 -1.5596 -1.2267
 6355TIP3    H219072   2.253   2.184   1.465  0.5790  0.3894 -0.5991
 6356TIP3   OH219073   2.453   2.001   1.768  0.6229 -0.0521 -0.5634
 6356TIP3    H119074   2.468   1.950   1.689 -0.1222 -0.4405 -0.4590
 6356TIP3    H219075   2.387   1.951   1.817 -1.3953  1.8500 -1.2641
 6357TIP3   OH219076   1.995   3.209   0.207 -0.6967 -0.2727  0.7378
 6357TIP3    H119077   2.042   3.291   0.222  0.0337 -0.2405 -1.6154
 6357TIP3    H219078   2.057   3.141   0.234  0.4218 -0.1968 -1.5558
 6358TIP3   OH219079   6.103   0.525   0.602 -0.2089  0.0082  0.1147
 6358TIP3    H119080   6.192   0.530   0.638 -0.8656  1.9794  1.4908
 6358TIP3    H219081   6.096   0.435   0.570  2.2551 -0.2018  0.0539
 6359TIP3   OH219082   4.448   4.019   4.706  0.1704  0.1161 -0.5625
 6359TIP3    H119083   4.355   4.024   4.728  0.7418 -0.3678  2.0782
 6359TIP3    H219084   4.459   3.930   4.671 -0.1173 -0.2620  0.3034
 6360TIP3   OH219085   1.035   0.625   1.741 -0.2664  0.3170 -0.0703
 6360TIP3    H119086   1.124   0.592   1.726 -0.0664  1.1091 -0.6562
 6360TIP3    H219087   0.978   0.549   1.727  0.3287 -0.2553  0.5428
 6361TIP3   OH219088   1.161   1.375   1.201 -0.3927  0.3397  0.0992
 6361TIP3    H119089   1.253   1.367   1.176 -0.7791 -0.4798 -1.1298
 6361TIP3    H219090   1.157   1.341   1.291  0.4412  0.0086  0.0177
 6362TIP3   OH219091   0.288   3.631   1.986  0.5198  0.3647 -0.2826
 6362TIP3    H119092   0.199   3.608   1.960 -0.0890 -1.1366  2.8379
 6362TIP3    H219093   0.341   3.617   1.908 -2.0710  1.9831 -2.3930
 6363TIP3   OH219094   6.105   1.770   2.542  0.5565  0.5222 -0.0947
 6363TIP3    H119095   6.171   1.760   2.611  0.7370  0.8211 -0.2268
 6363TIP3    H219096   6.092   1.681   2.509 -1.0327  0.0538  1.7251
 6364TIP3   OH219097   2.854   5.790   1.525  0.2020 -0.1014  0.0662
 6364TIP3    H119098   2.871   5.711   1.474 -0.6388 -1.4775  1.8477
 6364TIP3    H219099   2.937   5.808   1.569  0.6490  0.5287 -1.0263
 6365TIP3   OH219100   6.368   2.632   0.611  0.7554 -0.5718  0.2945
 6365TIP3    H119101   6.408   2.662   0.529  1.0105 -0.9771  0.2712
 6365TIP3    H219102   6.426   2.564   0.643  0.9448 -0.0341  1.1044
 6366TIP3   OH219103   2.937   3.833   3.802  0.1136  0.1161 -0.4976
 6366TIP3    H119104   2.944   3.897   3.730  1.5861 -0.4092 -0.8374
 6366TIP3    H219105   2.849   3.797   3.793 -0.5947  1.7978 -0.5590
 6367TIP3   OH219106   0.897   1.647   2.827 -0.0381  0.4079  0.4128
 6367TIP3    H119107   0.983   1.687   2.831 -0.9256  2.2661  1.6083
 6367TIP3    H219108   0.850   1.699   2.761 -0.5753  0.0644  0.5220
 6368TIP3   OH219109   4.129   3.853   4.948 -0.1143  0.2730 -0.1562
 6368TIP3    H119110   4.062   3.820   4.889  0.9733  2.4810 -2.7126
 6368TIP3    H219111   4.081   3.905   5.012 -1.1919 -1.2575  0.3198
 6369TIP3   OH219112   1.079   0.547   0.611 -0.1967  0.3427 -0.1572
 6369TIP3    H119113   1.125   0.493   0.547 -2.5068 -0.3261 -1.3416
 6369TIP3    H219114   1.067   0.632   0.568  0.7426  0.8212  0.5113
 6370TIP3   OH219115   3.955   3.419   5.291  0.5463  0.0627  0.1514
 6370TIP3    H119116   3.934   3.467   5.371  0.6501  0.5841 -0.1267
 6370TIP3    H219117   3.901   3.461   5.224  3.5646  2.4820 -0.8781
 6371TIP3   OH219118   0.475   5.254   0.985  0.1476 -0.2913 -0.6327
 6371TIP3    H119119   0.478   5.350   0.987  0.4767 -0.3193  0.5798
 6371TIP3    H219120   0.383   5.234   0.970 -0.1676  0.2013  0.5982
 6372TIP3   OH219121   4.954   4.045   4.576 -0.1225  0.2053  0.2778
 6372TIP3    H119122   4.928   4.136   4.587 -1.2206 -0.0882  0.1922
 6372TIP3    H219123   4.962   4.011   4.665 -0.3411  0.2138  0.3013
 6373TIP3   OH219124   5.261   3.808   4.782  0.0292 -0.3228  0.0634
 6373TIP3    H119125   5.201   3.881   4.792 -1.8613 -2.0324  1.7849
 6373TIP3    H219126   5.345   3.841   4.813 -0.6024  1.3660 -0.0172
 6374TIP3   OH219127   4.163   4.925   4.528 -0.5584  0.5949 -0.2329
 6374TIP3    H119128   4.257   4.936   4.514 -0.6616 -0.0539 -1.5676
 6374TIP3    H219129   4.147   4.957   4.616  0.5781  2.6641 -0.7512
 6375TIP3   OH219130   3.177   5.593   3.538  0.1391  0.1136  0.0724
 6375TIP3    H119131   3.120   5.596   3.461  0.0536  2.0009  0.2047
 6375TIP3    H219132   3.123   5.555   3.607  0.3518 -2.0130 -0.9004
 6376TIP3   OH219133   1.578   3.221   2.493 -0.3798 -0.2282  0.0128
 6376TIP3    H119134   1.670   3.213   2.468 -0.4223  0.4174 -0.3356
 6376TIP3    H219135   1.530   3.222   2.410 -0.4985  2.2374  0.0823
 6377TIP3   OH219136   0.391   4.270   0.785 -0.0375 -0.4034 -0.1224
 6377TIP3    H119137   0.459   4.228   0.838 -0.0512  0.1216  0.3054
 6377TIP3    H219138   0.325   4.202   0.774 -0.0516 -0.5018  0.5603
 6378TIP3   OH219139   5.050   4.098   3.076  0.2724  0.5742  0.0727
 6378TIP3    H119140   5.077   4.093   2.984  2.0464  2.1022  0.4920
 6378TIP3    H219141   4.960   4.131   3.073  0.7832  1.9076 -1.0659
 6379TIP3   OH219142   4.588   4.230   5.079  0.2472 -0.2728  0.5736
 6379TIP3    H119143   4.582   4.324   5.097 -0.0087 -0.1500 -0.1311
 6379TIP3    H219144   4.502   4.207   5.044  0.3488 -0.7484  0.6355
 6380TIP3   OH219145   5.997   1.075   3.073 -0.8833  0.3290  0.2501
 6380TIP3    H119146   5.948   1.149   3.109 -0.7877  1.9057 -2.6691
 6380TIP3    H219147   6.084   1.111   3.054 -0.9108 -0.4306 -1.4169
 6381TIP3   OH219148   4.583   4.078   2.790  0.1226  0.5921 -0.5270
 6381TIP3    H119149   4.513   4.106   2.732 -0.9261 -0.1143  0.3735
 6381TIP3    H219150   4.561   3.989   2.815  0.9928  0.5819  0.2889
 6382TIP3   OH219151   3.158   1.673   5.244 -0.5065  0.4308 -0.4510
 6382TIP3    H119152   3.233   1.632   5.286  0.4668  0.3994 -2.1678
 6382TIP3    H219153   3.137   1.615   5.171 -1.3712  1.1241 -0.7618
 6383TIP3   OH219154   1.982   3.764   4.586  0.0496 -0.7747  0.3219
 6383TIP3    H119155   1.963   3.784   4.494  1.0583  1.8080  0.6371
 6383TIP3    H219156   2.017   3.675   4.584  1.5658 -0.1833 -2.0330
 6384TIP3   OH219157   5.730   5.547   4.980 -0.3573  0.2905 -0.2738
 6384TIP3    H119158   5.700   5.492   5.052  0.2561  2.3856  1.6294
 6384TIP3    H219159   5.769   5.485   4.918 -0.2109 -1.4812  1.5306
 6385TIP3   OH219160   5.930   1.542   0.747  0.4868  0.5965 -0.2309
 6385TIP3    H119161   5.871   1.467   0.745  1.4098 -0.1864  0.9515
 6385TIP3    H219162   5.886   1.609   0.694 -0.7335 -0.4832 -0.6118
 6386TIP3   OH219163   0.146   3.861   0.468 -0.2655  0.2972  0.4341
 6386TIP3    H119164   0.106   3.820   0.545  0.5747 -1.0644  0.1572
 6386TIP3    H219165   0.168   3.950   0.497 -2.5668  0.7617  0.8913
 6387TIP3   OH219166   0.353   2.787   1.674  0.4301 -0.3872  0.2724
 6387TIP3    H119167   0.300   2.759   1.600  0.0645  0.5036  0.1898
 6387TIP3    H219168   0.440   2.753   1.655  0.4886  0.3571 -0.8860
 6388TIP3   OH219169   0.813   2.126   4.855  0.2251 -0.1496 -0.3269
 6388TIP3    H119170   0.721   2.128   4.883  0.2922  0.1928 -0.1191
 6388TIP3    H219171   0.809   2.114   4.760  0.0331 -3.0126  0.0113
 6389TIP3   OH219172   0.019   1.643   1.567  0.2027  0.2587 -0.0728
 6389TIP3    H119173  -0.048   1.648   1.636 -1.1254 -0.7313 -1.2813
 6389TIP3    H219174   0.098   1.676   1.610 -0.5143 -0.6345  2.0444
 6390TIP3   OH219175   5.540   1.724   2.489 -0.1126 -0.0614 -0.2798
 6390TIP3    H119176   5.572   1.637   2.510 -0.9916 -0.2376  0.3297
 6390TIP3    H219177   5.620   1.774   2.469  0.4297 -0.8663 -0.1589
 6391TIP3   OH219178   2.895   1.758   0.028 -0.0953 -0.1832 -0.2616
 6391TIP3    H119179   2.889   1.676  -0.021  0.1395 -0.3976  0.0611
 6391TIP3    H219180   2.979   1.795   0.003  0.4368 -0.7460  0.6655
 6392TIP3   OH219181   6.344   1.245   0.401 -0.4216  0.7390 -0.3247
 6392TIP3    H119182   6.376   1.295   0.327  0.3029 -0.9557 -1.1946
 6392TIP3    H219183   6.415   1.248   0.465 -0.4738  1.0209 -0.2801
 6393TIP3   OH219184   1.875   3.864   4.803  0.7253 -0.3134  0.2890
 6393TIP3    H119185   1.903   3.806   4.733  1.8727 -0.0360  0.5085
 6393TIP3    H219186   1.956   3.905   4.834  0.0700  0.5291  0.9074
 6394TIP3   OH219187   5.766   1.780   0.270 -0.1311 -0.3223  0.1539
 6394TIP3    H119188   5.739   1.699   0.314  2.0218 -0.3282  1.5645
 6394TIP3    H219189   5.829   1.751   0.204 -0.5702  0.0713 -0.4468
 6395TIP3   OH219190   4.031   5.941   1.716 -0.1578 -0.2997  0.0124
 6395TIP3    H119191   3.994   5.949   1.804  0.9997 -0.8320  0.5513
 6395TIP3    H219192   4.108   5.998   1.717 -1.6695  1.8858 -1.5335
 6396TIP3   OH219193   2.494   4.728   4.914 -0.0387  0.1519 -0.2896
 6396TIP3    H119194   2.517   4.701   4.825  0.6184  0.7102 -0.2941
 6396TIP3    H219195   2.564   4.693   4.969 -0.2680  0.0937 -0.0337
 6397TIP3   OH219196   3.703   4.363   3.283  0.2307 -0.5847  0.1590
 6397TIP3    H119197   3.739   4.275   3.293 -2.3288 -1.8928 -1.4132
 6397TIP3    H219198   3.675   4.367   3.191  0.5913  1.9837  0.1349
 6398TIP3   OH219199   4.473   4.181   3.438  0.1702  0.1507 -0.5088
 6398TIP3    H119200   4.483   4.265   3.482  1.3961 -0.8413  1.1964
 6398TIP3    H219201   4.384   4.182   3.403 -0.1104  1.8087  0.2463
 6399TIP3   OH219202   6.134   0.209   0.261 -0.4699  0.7573  0.2566
 6399TIP3    H119203   6.173   0.127   0.232  0.6142  0.9088  1.2225
 6399TIP3    H219204   6.110   0.255   0.181  0.3108  0.1506 -0.3258
 6400TIP3   OH219205   2.315   5.951   0.758 -0.1750 -0.3983 -0.0347
 6400TIP3    H119206   2.409   5.961   0.744 -0.0550 -0.7317  0.5120
 6400TIP3    H219207   2.280   5.932   0.671 -0.0257  1.7589 -0.5920
 6401TIP3   OH219208   2.404   2.079   3.084 -0.2828  0.4899  0.7095
 6401TIP3    H119209   2.461   2.061   3.009 -0.2025 -0.2240  0.9358
 6401TIP3    H219210   2.364   1.994   3.104  0.4203  0.4686  2.0752
 6402TIP3   OH219211   2.946   2.812   4.545 -0.0740 -0.4475 -0.0980
 6402TIP3    H119212   2.979   2.724   4.528  1.7892 -0.3521  2.7018
 6402TIP3    H219213   2.997   2.869   4.488  0.9559 -0.8560  0.4112
 6403TIP3   OH219214   2.308   5.489   0.250 -0.4984  0.5968  0.0594
 6403TIP3    H119215   2.233   5.503   0.308 -0.6502 -0.0710  0.0328
 6403TIP3    H219216   2.361   5.422   0.295 -1.1695 -0.7231 -1.0639
 6404TIP3   OH219217   4.824   5.528   5.123 -0.4865  0.2526 -0.2322
 6404TIP3    H119218   4.760   5.467   5.159  0.0319 -0.2579 -0.1642
 6404TIP3    H219219   4.882   5.548   5.197 -0.7093  0.9027 -0.2312
 6405TIP3   OH219220   1.124   2.664   1.447 -0.0333  0.1147  0.1450
 6405TIP3    H119221   1.053   2.601   1.455 -1.3809  1.5840 -0.1672
 6405TIP3    H219222   1.092   2.742   1.492  0.1895  1.8034 -2.5269
 6406TIP3   OH219223   0.314   1.078   0.234 -0.5200  0.2300  0.8947
 6406TIP3    H119224   0.274   1.054   0.151  0.9320  0.3156  0.1562
 6406TIP3    H219225   0.291   1.007   0.294 -2.1993  0.5437  0.6290
 6407TIP3   OH219226   4.478   6.082   0.028 -0.1924 -0.2894  0.1743
 6407TIP3    H119227   4.554   6.119   0.074  0.0048  2.4354 -2.2303
 6407TIP3    H219228   4.515   6.038  -0.048 -1.0038  1.6361 -1.3804
 6408TIP3   OH219229   6.035   2.287   0.368  0.1909  0.2746 -0.2394
 6408TIP3    H119230   6.105   2.229   0.399 -0.2949 -1.0234 -1.5049
 6408TIP3    H219231   6.054   2.371   0.409  1.4789 -0.5215  0.8518
 6409TIP3   OH219232   1.781   4.530   4.441 -0.4347  0.0810  0.5899
 6409TIP3    H119233   1.858   4.565   4.486  0.3267 -2.1124  1.0478
 6409TIP3    H219234   1.809   4.444   4.408 -2.3619 -0.2789 -0.1820
 6410TIP3   OH219235   3.356   4.929   4.073  0.6907 -0.0590 -0.3754
 6410TIP3    H119236   3.277   4.925   4.128  1.5666  1.6284  1.0611
 6410TIP3    H219237   3.330   4.979   3.997  0.3231  0.3594  0.0221
 6411TIP3   OH219238   0.903   2.199   0.303  0.2081  0.6064  0.4180
 6411TIP3    H119239   0.994   2.223   0.287  0.1093 -1.0399 -2.9805
 6411TIP3    H219240   0.906   2.105   0.324 -0.9501 -0.3697 -3.3521
 6412TIP3   OH219241   4.373   0.608   0.180  0.0820  0.3523 -0.6126
 6412TIP3    H119242   4.320   0.543   0.226  0.1826  1.5847  1.3273
 6412TIP3    H219243   4.462   0.574   0.185  0.1053  0.5145  0.2201
 6413TIP3   OH219244   6.384   1.768   0.002 -0.0550 -0.1020  0.2459
 6413TIP3    H119245   6.298   1.784  -0.037  0.1175 -2.6736 -1.2533
 6413TIP3    H219246   6.365   1.747   0.094 -0.9032  0.4166  0.1999
 6414TIP3   OH219247   1.699   5.058   4.973  0.1164 -0.3158 -0.4780
 6414TIP3    H119248   1.655   4.974   4.977  0.4186 -0.4139  2.2774
 6414TIP3    H219249   1.629   5.122   4.962 -0.5024 -0.6649  1.2912
 6415TIP3   OH219250   3.895   5.098   4.674  0.4346 -0.8357 -0.3436
 6415TIP3    H119251   3.981   5.062   4.650 -0.4526 -2.4579 -1.1665
 6415TIP3    H219252   3.853   5.027   4.723 -0.7829 -0.3600 -0.6995
 6416TIP3   OH219253   1.767   0.523   0.209 -0.1291 -0.3737 -0.7433
 6416TIP3    H119254   1.821   0.512   0.287 -2.1836 -0.6732  0.6959
 6416TIP3    H219255   1.700   0.586   0.235 -1.2240 -0.9580 -2.0517
 6417TIP3   OH219256   2.264   3.178   0.056  0.0407  0.1122 -0.1323
 6417TIP3    H119257   2.216   3.240  -0.000 -3.0578 -0.9700  1.2061
 6417TIP3    H219258   2.300   3.232   0.126  1.1397  0.9981 -1.3547
 6418TIP3   OH219259   3.989   0.103   5.002 -0.3088 -0.2142 -0.2327
 6418TIP3    H119260   3.942   0.022   5.024 -1.5554  0.1523 -1.5036
 6418TIP3    H219261   3.923   0.159   4.961  0.5686  1.4279  0.5429
 6419TIP3   OH219262   3.326   5.558   3.808  0.2696 -0.2883 -0.3583
 6419TIP3    H119263   3.275   5.483   3.838  2.0299 -2.0181 -1.6006
 6419TIP3    H219264   3.288   5.580   3.722  0.3589 -0.3562 -0.4154
 6420TIP3   OH219265   5.164   0.232   0.331 -0.0255 -0.0803 -0.2113
 6420TIP3    H119266   5.099   0.253   0.398 -0.5087 -1.0037 -0.3754
 6420TIP3    H219267   5.193   0.317   0.298  1.8157  0.4797  2.6866
 6421TIP3   OH219268   4.421   0.376   5.111 -0.0112 -0.4043  0.7814
 6421TIP3    H119269   4.503   0.328   5.125  1.3527  2.2547  2.4085
 6421TIP3    H219270   4.355   0.324   5.156  1.3713 -1.0045  2.1866
 6422TIP3   OH219271   1.597   4.594   1.351 -0.1678 -0.4678 -0.4102
 6422TIP3    H119272   1.557   4.593   1.439 -0.0040 -1.9692 -0.3391
 6422TIP3    H219273   1.557   4.520   1.306  1.3190 -0.9858 -0.9068
 6423TIP3   OH219274   2.617   5.001   4.277 -0.3188 -0.2990 -0.5354
 6423TIP3    H119275   2.575   5.086   4.263  0.2827  0.0001 -0.5174
 6423TIP3    H219276   2.590   4.949   4.201 -1.7654 -0.5247  0.1100
 6424TIP3   OH219277   6.056   0.213   4.699 -0.1242 -0.1262  0.4789
 6424TIP3    H119278   6.088   0.123   4.702  0.9967  0.2912  2.1556
 6424TIP3    H219279   6.003   0.223   4.778 -0.8924  0.4583 -0.1000
 6425TIP3   OH219280   1.731   0.390   1.734 -0.3764 -0.1574  0.2411
 6425TIP3    H119281   1.817   0.390   1.776 -0.2194  1.8512 -0.0138
 6425TIP3    H219282   1.675   0.338   1.791  1.0454 -1.5939  0.3322
 6426TIP3   OH219283   5.563   1.414   1.038 -0.7536  0.3577 -0.2074
 6426TIP3    H119284   5.631   1.481   1.029 -1.3138  1.0603  0.7188
 6426TIP3    H219285   5.507   1.426   0.962  0.0803 -0.1340 -0.9025
 6427TIP3   OH219286   5.236   0.719   4.400 -0.6609  0.6432  0.6749
 6427TIP3    H119287   5.163   0.779   4.385  0.1372  0.9716 -2.1719
 6427TIP3    H219288   5.263   0.690   4.313  2.0339 -0.1666  1.6990
 6428TIP3   OH219289   5.904   2.374   4.646 -0.1148 -0.5056  0.1424
 6428TIP3    H119290   5.992   2.386   4.682 -0.6320 -1.2079  1.6853
 6428TIP3    H219291   5.877   2.288   4.678 -1.9120  0.2961  0.8053
 6429TIP3   OH219292   2.160   1.060   0.207  0.0831 -0.1563 -0.0068
 6429TIP3    H119293   2.217   1.123   0.163  1.2477  0.0067  1.6668
 6429TIP3    H219294   2.207   1.038   0.288 -1.9885 -0.4307  1.1624
 6430TIP3   OH219295   2.087   1.768   0.237  0.1529 -0.5464 -0.3062
 6430TIP3    H119296   2.015   1.725   0.192 -0.2717  1.1021 -1.2419
 6430TIP3    H219297   2.160   1.706   0.230  0.3891  0.0220 -4.1083
 6431TIP3   OH219298   4.457   4.642   0.525 -0.4147  0.4407  0.2726
 6431TIP3    H119299   4.475   4.717   0.468 -1.1079 -0.0573 -0.6080
 6431TIP3    H219300   4.483   4.566   0.473 -1.5273 -0.0454  0.4305
 6432TIP3   OH219301   1.696   5.109   4.104 -0.0257  0.4321 -0.3196
 6432TIP3    H119302   1.674   5.157   4.025  0.9719 -1.5471 -1.8490
 6432TIP3    H219303   1.790   5.095   4.099 -0.0191 -0.1533  0.9673
 6433TIP3   OH219304   5.362   1.142   0.913  0.7825  0.1622  0.3195
 6433TIP3    H119305   5.281   1.192   0.909  0.9519  0.3774 -0.4946
 6433TIP3    H219306   5.383   1.137   1.006 -1.2866 -1.7001  0.7486
 6434TIP3   OH219307   3.363   4.006   2.764 -0.7404  0.2341 -0.0440
 6434TIP3    H119308   3.408   3.922   2.766  0.1811  0.7184  0.0177
 6434TIP3    H219309   3.331   4.014   2.675 -1.4238 -0.4897  0.1344
 6435TIP3   OH219310   0.852   4.635   2.276  0.2211  0.1667  0.2851
 6435TIP3    H119311   0.803   4.629   2.194 -0.9616  0.1637  0.9688
 6435TIP3    H219312   0.902   4.554   2.280 -1.7253 -1.0520  0.7964
 6436TIP3   OH219313   3.282   5.036   3.815  0.6531 -0.3135  0.0101
 6436TIP3    H119314   3.208   5.071   3.766  1.0265 -1.0223 -1.0744
 6436TIP3    H219315   3.340   5.111   3.827 -0.8062  0.5432  1.9721
 6437TIP3   OH219316   0.341   3.172   2.452  0.2008  0.8990 -0.2974
 6437TIP3    H119317   0.422   3.196   2.496 -0.8874  1.8092  1.2963
 6437TIP3    H219318   0.359   3.089   2.410  1.8548  0.9380  0.3200
 6438TIP3   OH219319   2.780   5.798   4.366  0.0126  0.4087  0.0209
 6438TIP3    H119320   2.697   5.782   4.412  0.2994  2.6717  1.3819
 6438TIP3    H219321   2.848   5.773   4.428  0.3897  2.1279  0.3105
 6439TIP3   OH219322   6.239   4.799   2.016 -0.1340 -0.1507 -0.0765
 6439TIP3    H119323   6.279   4.885   2.030  0.9378 -0.8272  1.1114
 6439TIP3    H219324   6.176   4.814   1.945  1.5977  1.1332 -1.4059
 6440TIP3   OH219325   3.514   6.038   3.759  0.6421  0.0869 -0.0890
 6440TIP3    H119326   3.444   5.993   3.806  1.3627  1.0565  2.0088
 6440TIP3    H219327   3.477   6.058   3.673 -0.2627 -2.9111 -0.4567
 6441TIP3   OH219328   0.939   4.783   4.519  0.1773  0.6989 -0.5485
 6441TIP3    H119329   0.973   4.695   4.504 -0.4242  0.0946  1.5741
 6441TIP3    H219330   0.966   4.832   4.441 -0.2169 -1.5569 -2.1482
 6442TIP3   OH219331   0.464   1.377   1.804 -0.0344 -0.1454 -0.3460
 6442TIP3    H119332   0.370   1.373   1.788  0.0174 -0.7762 -0.5055
 6442TIP3    H219333   0.503   1.331   1.730  0.3192 -1.2030  0.4867
 6443TIP3   OH219334   4.099   0.044   4.576  0.1466  0.4394  0.2045
 6443TIP3    H119335   4.037   0.115   4.560 -1.1426 -0.5871  0.5706
 6443TIP3    H219336   4.183   0.088   4.589 -0.8718  1.9883  1.8031
 6444TIP3   OH219337   4.787   4.531   4.749  0.5825  0.2133  0.4294
 6444TIP3    H119338   4.703   4.529   4.703 -0.5519 -0.5036  2.4551
 6444TIP3    H219339   4.843   4.586   4.695 -1.2262  0.7799 -0.9126
 6445TIP3   OH219340   0.950   2.341   1.073  0.0040  0.4599 -0.1864
 6445TIP3    H119341   0.863   2.360   1.108  0.5647  1.5187  0.6469
 6445TIP3    H219342   1.005   2.329   1.150  0.3639 -1.3755 -0.7028
 6446TIP3   OH219343   6.455   0.775   4.276 -0.0382 -0.2876  0.6316
 6446TIP3    H119344   6.395   0.705   4.300 -0.2889  0.1460  1.2686
 6446TIP3    H219345   6.404   0.832   4.219  0.3521 -0.9501 -0.3990
 6447TIP3   OH219346   3.452   3.472   5.219  0.5656  0.3364  0.3570
 6447TIP3    H119347   3.383   3.466   5.153 -0.2607  0.1630  1.2246
 6447TIP3    H219348   3.482   3.563   5.214 -0.1208  0.5663  0.3657
 6448TIP3   OH219349   2.690   4.145   4.963 -0.3929  0.1025 -0.6785
 6448TIP3    H119350   2.684   4.050   4.955  0.2173  0.0535 -0.5549
 6448TIP3    H219351   2.771   4.161   5.011 -2.0543  0.5623  2.0913
 6449TIP3   OH219352   5.878   0.818   4.632 -0.1161  0.5196  0.5720
 6449TIP3    H119353   5.874   0.874   4.555 -0.3527  0.4432  0.5283
 6449TIP3    H219354   5.962   0.773   4.625 -0.3755  0.0994  0.0680
 6450TIP3   OH219355   3.424   3.024   5.114  0.0308  0.1896 -0.4742
 6450TIP3    H119356   3.502   3.080   5.115 -0.9502  1.5692  1.3320
 6450TIP3    H219357   3.351   3.084   5.106 -1.0087 -0.8946  0.6142
 6451TIP3   OH219358   4.696   0.998   1.346  0.2509  0.0633  0.0247
 6451TIP3    H119359   4.660   1.084   1.325  0.3699  0.3097  0.8367
 6451TIP3    H219360   4.767   1.016   1.408 -0.4469 -0.7209  1.0565
 6452TIP3   OH219361   6.345   1.590   1.305  0.2870 -0.6545 -0.2143
 6452TIP3    H119362   6.360   1.610   1.398  1.4348 -0.9644 -0.3254
 6452TIP3    H219363   6.294   1.664   1.273 -1.5115 -1.3131  1.0416
 6453TIP3   OH219364   2.841   3.084   0.036 -0.0319 -0.0780 -0.4454
 6453TIP3    H119365   2.853   3.173   0.068  0.0975  0.1653 -1.1488
 6453TIP3    H219366   2.853   3.028   0.113 -0.1140  0.5110 -0.0051
 6454TIP3   OH219367   1.323   1.925   1.049  0.6815  0.4297  0.4602
 6454TIP3    H119368   1.240   1.926   1.002 -0.4129  1.8073  2.3592
 6454TIP3    H219369   1.344   1.832   1.057 -1.0504  0.0145  0.5428
 6455TIP3   OH219370   3.003   5.450   4.586 -0.0188  0.5087 -0.4072
 6455TIP3    H119371   2.972   5.398   4.660 -0.3732 -0.1575 -1.0223
 6455TIP3    H219372   2.966   5.537   4.602 -0.2187  0.3347  0.1194
 6456TIP3   OH219373   2.153   5.219   3.998 -0.5087 -0.2669 -0.6765
 6456TIP3    H119374   2.212   5.153   3.960  1.2435  1.0288 -0.2852
 6456TIP3    H219375   2.083   5.228   3.934 -0.7605 -2.4820 -0.7476
 6457TIP3   OH219376   1.670   0.652   2.869  0.1389  0.2041  0.2890
 6457TIP3    H119377   1.726   0.680   2.797 -0.9932  0.3896 -0.5233
 6457TIP3    H219378   1.583   0.646   2.831 -0.5385  0.7008  1.7429
 6458TIP3   OH219379   5.900   5.818   4.077  0.4994 -0.2019 -0.1784
 6458TIP3    H119380   5.926   5.729   4.054  2.9735  0.0605  1.3500
 6458TIP3    H219381   5.920   5.825   4.171 -0.2401  1.7482 -0.1485
 6459TIP3   OH219382   2.055   5.950   4.190  0.0772 -0.2636 -0.2820
 6459TIP3    H119383   2.100   5.874   4.154 -0.6051 -0.3699 -0.9451
 6459TIP3    H219384   2.120   5.995   4.243  0.3068 -1.6650  0.6462
 6460TIP3   OH219385   4.104   4.368   5.036  0.5722 -0.0493  0.4431
 6460TIP3    H119386   4.133   4.349   5.125 -0.0907  2.4256  1.2126
 6460TIP3    H219387   4.010   4.346   5.037  0.9589 -1.8115 -0.2002
 6461TIP3   OH219388   2.191   3.476   3.852 -0.0162 -0.3820  0.2373
 6461TIP3    H119389   2.279   3.454   3.883 -0.5467 -0.3864  1.8198
 6461TIP3    H219390   2.142   3.394   3.859 -0.5044 -0.0559  0.7137
 6462TIP3   OH219391   4.607   3.590   3.664  0.3670 -0.3121  0.9932
 6462TIP3    H119392   4.561   3.590   3.580 -0.6304 -2.9150  1.4755
 6462TIP3    H219393   4.595   3.678   3.698  0.1370  0.5658 -1.2355
 6463TIP3   OH219394   0.504   1.531   0.257  0.5519 -0.0654 -0.5974
 6463TIP3    H119395   0.538   1.496   0.175  0.5444  0.7258 -0.9370
 6463TIP3    H219396   0.568   1.504   0.323  0.8627 -0.1891 -0.9522
 6464TIP3   OH219397   2.718   4.135   4.685 -0.2495 -0.4846  0.0768
 6464TIP3    H119398   2.811   4.127   4.707 -0.0292 -0.7642 -0.9743
 6464TIP3    H219399   2.674   4.079   4.749  0.3216 -0.6186  0.3640
 6465TIP3   OH219400   3.251   3.633   2.745 -0.2703  0.0212  0.5840
 6465TIP3    H119401   3.342   3.632   2.715 -0.8838 -1.0199 -1.2420
 6465TIP3    H219402   3.243   3.556   2.801 -0.3746 -0.6207 -0.3087
 6466TIP3   OH219403   2.991   5.086   3.963  0.6567 -0.1726 -0.1590
 6466TIP3    H119404   3.032   5.162   4.006 -0.4293  0.4144 -0.1339
 6466TIP3    H219405   2.923   5.125   3.907  2.5205 -0.8565 -2.9889
 6467TIP3   OH219406   4.804   3.162   1.062  0.5248  0.1332  0.0856
 6467TIP3    H119407   4.803   3.197   0.973 -0.3184  0.2435  0.1358
 6467TIP3    H219408   4.819   3.068   1.051  0.7892  0.2050 -0.1561
 6468TIP3   OH219409   2.336   5.643   4.339  0.7017  0.0686  0.4739
 6468TIP3    H119410   2.251   5.598   4.343 -0.2646  1.9317  1.1799
 6468TIP3    H219411   2.315   5.730   4.306  2.5020  0.1872 -0.3791
 6469TIP3   OH219412   3.670   6.109   3.971 -0.2648 -0.1976 -0.1896
 6469TIP3    H119413   3.626   6.076   3.892 -0.8609  1.2022 -0.4612
 6469TIP3    H219414   3.599   6.119   4.035 -0.1511  0.8449 -0.2180
 6470TIP3   OH219415   4.131   1.354   1.254 -0.1604 -0.2358 -0.4332
 6470TIP3    H119416   4.122   1.276   1.200  2.6419 -0.2341 -0.9727
 6470TIP3    H219417   4.216   1.344   1.297 -1.8775  0.2514  3.2070
 6471TIP3   OH219418   1.250   1.311   0.288 -0.0240 -0.6998  0.6761
 6471TIP3    H119419   1.271   1.247   0.356 -2.1052 -1.5402  0.5902
 6471TIP3    H219420   1.173   1.274   0.244  1.2915 -0.2019 -2.1703
 6472TIP3   OH219421   1.600   1.235   1.395  0.4098 -0.1267 -0.1521
 6472TIP3    H119422   1.660   1.285   1.340 -0.7583  0.0357 -1.2862
 6472TIP3    H219423   1.519   1.286   1.396 -0.0970 -0.9342  0.4000
 6473TIP3   OH219424   0.496   4.375   2.143  0.2299  0.4483 -0.1617
 6473TIP3    H119425   0.422   4.317   2.126  0.6633 -0.0747 -0.2757
 6473TIP3    H219426   0.507   4.372   2.238  0.7913 -0.3298 -0.2472
 6474TIP3   OH219427   1.421   2.667   2.556  0.3503 -0.9088 -0.3088
 6474TIP3    H119428   1.411   2.643   2.648  1.7738 -1.8181 -0.3816
 6474TIP3    H219429   1.451   2.758   2.558 -1.5475 -0.2716  0.0584
 6475TIP3   OH219430   2.506   2.972   5.139 -0.3848  0.0467 -0.2781
 6475TIP3    H119431   2.579   3.022   5.176 -1.8317  0.4993  2.1150
 6475TIP3    H219432   2.539   2.884   5.127  0.5225  0.2373  0.8461
 6476TIP3   OH219433   1.183   0.892   1.368 -0.4886  0.5465  0.0350
 6476TIP3    H119434   1.238   0.968   1.388  0.4718 -0.6646  2.2471
 6476TIP3    H219435   1.244   0.829   1.330 -0.4232 -0.5525  1.8722
 6477TIP3   OH219436   1.178   2.163   0.643  0.0089  0.2203  0.1937
 6477TIP3    H119437   1.246   2.222   0.611  1.4983 -1.4019  0.3060
 6477TIP3    H219438   1.184   2.086   0.588 -1.5195 -0.0926  0.4379
 6478TIP3   OH219439   3.409   3.764   5.223  0.4710  0.4744 -0.1278
 6478TIP3    H119440   3.344   3.720   5.277 -0.2044  1.1675 -0.3681
 6478TIP3    H219441   3.358   3.807   5.155  1.3622 -0.9385 -1.7237
 6479TIP3   OH219442   3.276   4.770   5.037  0.4282  0.3371 -0.2762
 6479TIP3    H119443   3.301   4.781   4.946 -1.1654 -2.1134 -1.0576
 6479TIP3    H219444   3.200   4.827   5.048  1.5404  1.8176 -0.0125
 6480TIP3   OH219445   4.967   0.391   0.993 -0.6006 -0.1913 -0.1432
 6480TIP3    H119446   4.980   0.315   0.937  1.2116  0.6584 -0.9278
 6480TIP3    H219447   4.910   0.360   1.063 -0.1135 -2.1894 -0.6010
 6481TIP3   OH219448   1.419   0.331   1.350 -0.1636  0.3480 -0.4040
 6481TIP3    H119449   1.405   0.333   1.256  0.2426 -1.3266 -0.5059
 6481TIP3    H219450   1.487   0.397   1.365  1.2853 -0.8543 -1.5620
 6482TIP3   OH219451   0.796   0.564   1.397 -0.1632  0.1926  0.0431
 6482TIP3    H119452   0.831   0.599   1.479 -1.0085  0.5034  0.2780
 6482TIP3    H219453   0.793   0.640   1.339  0.0083  0.0697 -0.1240
 6483TIP3   OH219454   2.328   4.998   4.748  0.9033 -0.4781  0.2264
 6483TIP3    H119455   2.264   4.987   4.679 -0.7165  0.4859  1.5468
 6483TIP3    H219456   2.412   5.008   4.702 -0.3309  1.6625 -1.6453
 6484TIP3   OH219457   4.540   1.071   4.490  0.0289  0.0018  0.6063
 6484TIP3    H119458   4.554   1.127   4.565 -0.2729 -1.5379  1.8397
 6484TIP3    H219459   4.460   1.022   4.510 -1.8694  1.8319 -2.1217
 6485TIP3   OH219460   2.878   5.038   4.441 -0.1282  0.0417 -0.2141
 6485TIP3    H119461   2.923   5.059   4.523 -0.1893 -0.0036 -0.1692
 6485TIP3    H219462   2.875   5.120   4.393  0.1876  0.0003 -0.3074
 6486TIP3   OH219463   1.661   0.476   1.418  0.1861  0.4535 -0.0283
 6486TIP3    H119464   1.681   0.456   1.510 -0.1096  0.0853 -0.0393
 6486TIP3    H219465   1.704   0.559   1.401 -0.5483  1.0000  0.7267
 6487TIP3   OH219466   0.616   2.364   2.308  0.5922  0.1449 -0.4884
 6487TIP3    H119467   0.657   2.320   2.233  1.2557  1.7284 -1.0766
 6487TIP3    H219468   0.676   2.347   2.381  0.4701 -0.5267 -0.5395
 6488TIP3   OH219469   6.086   3.548   0.986  0.7549 -0.0263  0.2156
 6488TIP3    H119470   6.124   3.608   1.051  0.8434  0.7691 -0.5610
 6488TIP3    H219471   6.065   3.469   1.036 -2.5494  1.8672  2.0029
 6489TIP3   OH219472   0.816   5.175   4.182 -0.3163  0.9107 -0.0892
 6489TIP3    H119473   0.728   5.192   4.149 -0.0071  2.7008 -0.0190
 6489TIP3    H219474   0.858   5.125   4.112 -0.7186  1.8511 -1.0136
 6490TIP3   OH219475   5.555   0.459   4.608 -0.2833 -0.6079  0.0404
 6490TIP3    H119476   5.581   0.543   4.646 -0.9999  0.9487 -2.7483
 6490TIP3    H219477   5.637   0.419   4.580 -0.0951  0.3139 -0.7984
 6491TIP3   OH219478   5.299   0.671   4.655 -0.3429  0.3464 -0.2697
 6491TIP3    H119479   5.349   0.592   4.637  0.2029  0.1914  1.7559
 6491TIP3    H219480   5.266   0.699   4.570  1.4667 -0.7048 -1.3508
 6492TIP3   OH219481   3.452   0.758   0.854 -0.6918  0.4616 -0.6958
 6492TIP3    H119482   3.479   0.748   0.763  0.0141  0.5321 -0.5042
 6492TIP3    H219483   3.365   0.719   0.859 -2.0001  3.0914 -2.0422
 6493TIP3   OH219484   4.175   3.717   2.094 -0.6326  0.0785  0.0654
 6493TIP3    H119485   4.180   3.623   2.075 -1.2505 -0.0951  0.7016
 6493TIP3    H219486   4.265   3.748   2.090 -0.2473 -0.8518  1.3551
 6494TIP3   OH219487   2.993   3.094   1.344  0.3528 -0.5875  0.5742
 6494TIP3    H119488   3.034   3.011   1.370  0.0710  0.0682  3.2680
 6494TIP3    H219489   3.041   3.160   1.393 -0.3037  0.7234 -0.5336
 6495TIP3   OH219490   4.162   4.824   1.376  0.0013  0.3669  0.4998
 6495TIP3    H119491   4.218   4.811   1.299 -1.0309  1.4529 -0.4475
 6495TIP3    H219492   4.129   4.736   1.396  0.7219 -0.0141  0.0545
 6496TIP3   OH219493   0.490   5.393   2.195 -0.4938  0.5491  0.2239
 6496TIP3    H119494   0.573   5.415   2.239 -0.4738 -0.2569  0.5900
 6496TIP3    H219495   0.455   5.478   2.167  0.1784  0.9447  0.5691
 6497TIP3   OH219496   4.383   5.635   5.185  0.0628 -0.5825  0.0634
 6497TIP3    H119497   4.453   5.669   5.241  0.9894 -0.4709 -1.1484
 6497TIP3    H219498   4.407   5.543   5.170  0.5929 -0.2326 -1.3188
 6498TIP3   OH219499   0.968   5.069   3.650  0.1147  0.1562 -0.2353
 6498TIP3    H119500   1.020   5.048   3.572 -0.9357 -0.6923 -0.7250
 6498TIP3    H219501   0.890   5.014   3.642 -0.4159  0.7149  0.9726
 6499TIP3   OH219502   3.182   1.827   0.108  0.1388  0.6288  0.1567
 6499TIP3    H119503   3.199   1.733   0.118 -3.5308 -0.3557 -1.7364
 6499TIP3    H219504   3.123   1.849   0.180  0.4182  1.3161  0.1814
 6500TIP3   OH219505   3.296   1.147   0.332 -0.4063  0.4168  0.1748
 6500TIP3    H119506   3.228   1.147   0.399 -0.0852  0.5576  0.5010
 6500TIP3    H219507   3.368   1.198   0.370  0.3488 -0.7113  0.3085
 6501TIP3   OH219508   2.894   3.257   2.269 -0.3746  0.6507 -1.0453
 6501TIP3    H119509   2.980   3.229   2.238 -1.2470 -1.6682 -1.5007
 6501TIP3    H219510   2.910   3.340   2.313  1.6854  1.5445 -3.3980
 6502TIP3   OH219511   5.342   2.804   0.315 -0.0030 -0.5025 -0.2921
 6502TIP3    H119512   5.260   2.805   0.266 -0.0130  1.9193 -0.3044
 6502TIP3    H219513   5.323   2.754   0.394 -1.7441  0.6928  0.0849
 6503TIP3   OH219514   4.053   3.060   5.193  0.3054  0.0984  0.1751
 6503TIP3    H119515   3.983   3.064   5.258  0.0073  0.4851 -0.1623
 6503TIP3    H219516   4.111   2.991   5.223 -0.0968 -0.0564  0.5884
 6504TIP3   OH219517   4.581   3.396   0.790 -0.3331 -0.6234 -0.1143
 6504TIP3    H119518   4.557   3.373   0.880 -0.6502 -0.4121 -0.1444
 6504TIP3    H219519   4.642   3.470   0.800 -0.1555 -0.7757 -0.0631
 6505TIP3   OH219520   3.079   6.078   2.635 -0.1913 -0.0160  0.0866
 6505TIP3    H119521   3.016   6.148   2.617 -0.9883 -0.2909  1.7012
 6505TIP3    H219522   3.025   6.000   2.648  0.6898 -0.9410 -1.6991
 6506TIP3   OH219523   3.295   5.749   1.732 -0.3376 -0.0178 -0.0174
 6506TIP3    H119524   3.369   5.811   1.733 -0.6447  0.3601 -0.4523
 6506TIP3    H219525   3.321   5.680   1.792  0.0126  0.5378  0.4766
 6507TIP3   OH219526   2.527   4.705   1.772  0.9632  0.0891 -0.0621
 6507TIP3    H119527   2.468   4.772   1.805  1.3391  0.1911  0.4049
 6507TIP3    H219528   2.600   4.704   1.834  0.6211 -1.2546  0.3309
 6508TIP3   OH219529   3.925   4.859   4.054 -0.4666  0.0579 -0.5922
 6508TIP3    H119530   3.861   4.842   4.123  0.3106 -0.1396  0.0823
 6508TIP3    H219531   4.002   4.892   4.100  0.5396 -1.3631 -1.2353
 6509TIP3   OH219532   0.080   4.985   5.068 -0.1662 -0.1665  0.1362
 6509TIP3    H119533   0.016   5.011   5.001 -0.5369  0.4974  0.7392
 6509TIP3    H219534   0.113   4.900   5.038 -0.9812 -0.2912 -0.4382
 6510TIP3   OH219535   3.722   2.604   0.522  0.1608  0.3801  0.5021
 6510TIP3    H119536   3.795   2.579   0.467 -1.5328  0.8314 -2.0319
 6510TIP3    H219537   3.706   2.696   0.501 -0.0230  0.7943  2.3404
 6511TIP3   OH219538   0.845   5.895   1.879  0.2319  0.1622 -0.1035
 6511TIP3    H119539   0.749   5.896   1.886  0.3587 -0.0504  1.8210
 6511TIP3    H219540   0.872   5.820   1.932  1.4692  0.1646 -0.7162
 6512TIP3   OH219541   2.352   2.253   2.260 -0.3932  0.3903 -0.6532
 6512TIP3    H119542   2.287   2.251   2.331  0.1400  1.3223 -0.1243
 6512TIP3    H219543   2.384   2.163   2.253  0.3696  0.5146  1.0579
 6513TIP3   OH219544   5.450   3.666   3.967  0.8579 -0.6094 -0.5601
 6513TIP3    H119545   5.437   3.725   4.041  1.5889 -2.2456  0.9073
 6513TIP3    H219546   5.363   3.632   3.947  1.1355 -3.0111  2.0158
 6514TIP3   OH219547   1.871   5.451   4.537  0.0063 -0.0332 -0.3077
 6514TIP3    H119548   1.819   5.531   4.544  0.2869  0.3073 -1.8829
 6514TIP3    H219549   1.808   5.383   4.516 -0.0991 -0.0558  0.0680
 6515TIP3   OH219550   4.958   5.806   4.631 -0.2354 -0.1316  0.1875
 6515TIP3    H119551   5.009   5.847   4.701 -1.2603 -0.9203  1.4137
 6515TIP3    H219552   4.867   5.821   4.656 -0.6260  1.8769 -2.3549
 6516TIP3   OH219553   1.735   2.001   0.807 -0.7445  0.0484  0.3598
 6516TIP3    H119554   1.721   2.027   0.898  2.6084  0.8840  0.7156
 6516TIP3    H219555   1.766   2.081   0.764  0.7469 -1.0776 -0.7363
 6517TIP3   OH219556   4.196   4.802   4.999 -0.0995 -0.6084  0.5369
 6517TIP3    H119557   4.260   4.804   4.927 -2.1624  0.2297 -1.3420
 6517TIP3    H219558   4.249   4.814   5.078  1.9191  1.8013 -1.0891
 6518TIP3   OH219559   3.932   1.988   0.338  0.4678  0.6464  0.3589
 6518TIP3    H119560   3.936   1.896   0.316  1.0549  0.8513 -0.3967
 6518TIP3    H219561   4.017   2.007   0.377 -0.5960  0.2464  3.0154
 6519TIP3   OH219562   4.169   5.026   4.800  0.1024 -0.2420  0.3739
 6519TIP3    H119563   4.106   5.062   4.863  0.6574 -1.5264  1.6725
 6519TIP3    H219564   4.214   5.103   4.765 -0.7589  0.5369  0.9586
 6520TIP3   OH219565   6.342   5.600   0.277 -0.6132  0.2613 -0.1936
 6520TIP3    H119566   6.393   5.531   0.321 -0.9489 -0.3634 -0.7839
 6520TIP3    H219567   6.251   5.579   0.297 -0.6813  0.9636  0.2468
 6521TIP3   OH219568   4.137   4.765   0.509 -0.1316 -1.0677  0.0810
 6521TIP3    H119569   4.064   4.800   0.560  0.9149  4.5322 -1.9308
 6521TIP3    H219570   4.212   4.769   0.568 -0.3420 -1.6575  0.3979
 6522TIP3   OH219571   3.424   3.754   0.853 -0.5495  0.9051  0.1169
 6522TIP3    H119572   3.440   3.827   0.913  0.7191  0.7179  0.0076
 6522TIP3    H219573   3.498   3.695   0.865 -1.8089 -0.6171  0.5441
 6523TIP3   OH219574   3.029   2.837   5.050  0.2822 -0.2780  0.1130
 6523TIP3    H119575   3.092   2.768   5.067 -0.0231 -0.6274 -0.1593
 6523TIP3    H219576   2.993   2.816   4.964  1.3704  1.1238 -0.7064
 6524TIP3   OH219577   3.834   2.469   0.743  0.0177  0.0810 -0.5787
 6524TIP3    H119578   3.811   2.504   0.657 -0.0392  1.9428  0.1550
 6524TIP3    H219579   3.749   2.458   0.787  0.0645 -0.5984 -0.6548
 6525TIP3   OH219580   0.767   0.665   4.150  0.1371 -0.3081  0.2939
 6525TIP3    H119581   0.849   0.616   4.148 -0.2364 -0.8761 -1.1797
 6525TIP3    H219582   0.706   0.614   4.097  0.0554  2.2390 -2.2019
 6526TIP3   OH219583   3.385   2.989   0.093  0.5010 -0.1367  0.0365
 6526TIP3    H119584   3.292   2.970   0.104  0.6986 -0.1708  1.8037
 6526TIP3    H219585   3.415   2.924   0.028 -1.1967  1.4670 -2.4410
 6527TIP3   OH219586   5.786   5.189   4.559 -0.1616 -0.0179  0.0031
 6527TIP3    H119587   5.763   5.266   4.610  2.5867  0.8320  0.0479
 6527TIP3    H219588   5.805   5.122   4.624 -1.8379 -0.5411 -0.0255
 6528TIP3   OH219589   0.466   1.335   1.214 -0.5427 -0.0861  0.1719
 6528TIP3    H119590   0.522   1.266   1.249  1.4115  0.6416 -1.4279
 6528TIP3    H219591   0.499   1.351   1.126 -1.7907  1.9776  0.0382
 6529TIP3   OH219592   3.698   1.369   0.555  0.1421  0.3111  0.0550
 6529TIP3    H119593   3.680   1.321   0.474 -0.8637 -0.9621  1.0203
 6529TIP3    H219594   3.708   1.302   0.622  1.3822  1.3393  0.9231
 6530TIP3   OH219595   3.993   5.840   1.989  0.4756 -0.1808  0.5388
 6530TIP3    H119596   4.017   5.753   2.021 -0.0197  0.2435  2.1108
 6530TIP3    H219597   4.045   5.900   2.042  1.9283  0.4639 -1.5368
 6531TIP3   OH219598   3.344   4.528   2.246 -0.2261  0.1044  0.6316
 6531TIP3    H119599   3.332   4.469   2.172  0.0094  1.2098 -0.2984
 6531TIP3    H219600   3.439   4.541   2.251 -0.3459  1.1540  0.2341
 6532TIP3   OH219601   3.355   5.649   3.175 -0.3768  0.9577 -0.2990
 6532TIP3    H119602   3.433   5.703   3.187 -1.5079  2.3641  0.9839
 6532TIP3    H219603   3.331   5.662   3.083  0.7319  0.7367 -0.6290
 6533TIP3   OH219604   3.396   2.731   0.497  0.8068 -0.0559  0.0692
 6533TIP3    H119605   3.477   2.781   0.488 -0.8905  3.1443  1.6770
 6533TIP3    H219606   3.395   2.704   0.589  0.0127 -0.0148  0.0780
 6534TIP3   OH219607   4.065   5.318   4.421 -0.2083 -0.2348  0.2855
 6534TIP3    H119608   4.038   5.312   4.330 -0.3983  0.7698  0.2736
 6534TIP3    H219609   3.984   5.335   4.470 -0.1528 -1.0620  0.6745
 6535TIP3   OH219610   0.507   5.655   3.711 -0.0984  0.2318  0.8784
 6535TIP3    H119611   0.569   5.666   3.783  0.4391  0.2471  0.4234
 6535TIP3    H219612   0.462   5.740   3.705 -0.6812 -0.0168  1.6767
 6536TIP3   OH219613   6.144   5.328   4.990  0.0898 -0.2974  0.2622
 6536TIP3    H119614   6.150   5.419   4.960 -1.3779  0.0847  1.0496
 6536TIP3    H219615   6.118   5.335   5.082  0.5269 -1.5023  0.4787
 6537TIP3   OH219616   5.355   5.928   4.748 -0.6786 -0.3112 -1.0341
 6537TIP3    H119617   5.352   5.989   4.674 -1.8295  2.2389  1.0044
 6537TIP3    H219618   5.448   5.919   4.768 -0.4779  0.5534 -1.5540
 6538TIP3   OH219619   5.762   3.545   4.646  0.9191 -0.4593 -0.6591
 6538TIP3    H119620   5.847   3.502   4.656  0.1629 -1.7263  0.5982
 6538TIP3    H219621   5.699   3.472   4.646 -0.0623  0.3543 -3.0148
 6539TIP3   OH219622   3.500   2.810   1.000  0.1337  0.2742  0.2204
 6539TIP3    H119623   3.479   2.776   1.086 -0.9416  1.6853  0.5456
 6539TIP3    H219624   3.462   2.898   0.999  0.2674  0.3416 -1.6280
 6540TIP3   OH219625   6.323   0.276   3.964  0.5018 -0.2780  0.0045
 6540TIP3    H119626   6.334   0.346   3.900  1.7054 -1.9094 -1.6245
 6540TIP3    H219627   6.246   0.228   3.936  1.7141 -1.7143 -0.9566
 6541TIP3   OH219628   1.654   1.653   0.073  0.5874  0.0750 -0.3825
 6541TIP3    H119629   1.721   1.592   0.103  1.3350  1.2590  0.4017
 6541TIP3    H219630   1.572   1.607   0.086  1.0209 -0.1248  1.8633
 6542TIP3   OH219631   5.392   5.655   4.681 -0.4441 -0.0922  0.4808
 6542TIP3    H119632   5.481   5.651   4.715 -0.8696 -0.6269  1.5853
 6542TIP3    H219633   5.352   5.730   4.726 -0.6573 -0.0713  0.2601
 6543TIP3   OH219634   4.118  -0.003   0.173 -0.7731  0.2027  0.1323
 6543TIP3    H119635   4.190  -0.045   0.126 -0.5467  0.0554  0.5981
 6543TIP3    H219636   4.082   0.060   0.111 -1.4166 -0.9994 -0.7309
 6544TIP3   OH219637   4.177   2.671   0.585 -0.2011  0.3242 -0.2333
 6544TIP3    H119638   4.152   2.644   0.673 -1.2235  1.2528 -0.2302
 6544TIP3    H219639   4.120   2.620   0.527  1.3034 -1.1854 -0.4158
 6545TIP3   OH219640   2.439   5.433   2.818 -0.1065 -0.0996 -0.0253
 6545TIP3    H119641   2.353   5.475   2.809  1.6022  3.4886 -0.7278
 6545TIP3    H219642   2.479   5.442   2.732  0.7430 -2.3904  0.0987
 6546TIP3   OH219643   2.315   2.777   0.357 -0.1869 -0.0032 -0.3292
 6546TIP3    H119644   2.284   2.740   0.440 -2.2958  1.3174 -0.4823
 6546TIP3    H219645   2.339   2.701   0.304 -1.7341 -1.0279  0.4045
 6547TIP3   OH219646   1.441   0.059   4.064 -0.6654 -0.3827 -0.0438
 6547TIP3    H119647   1.434   0.152   4.041 -1.7778  0.1413  2.2523
 6547TIP3    H219648   1.353   0.024   4.049 -0.4050 -0.9389 -0.3065
 6548TIP3   OH219649   5.075   5.923   4.855  0.6060  0.4048 -0.9480
 6548TIP3    H119650   5.167   5.904   4.837  0.4821 -1.9707  0.6962
 6548TIP3    H219651   5.074   5.959   4.944 -0.3173 -2.6804  0.3778
 6549TIP3   OH219652   4.109   3.453   4.300  0.7462 -0.0966 -0.4626
 6549TIP3    H119653   4.036   3.485   4.352  1.6434 -0.7555  1.2553
 6549TIP3    H219654   4.163   3.531   4.284  1.5017 -0.2066  1.3564
 6550TIP3   OH219655   3.901   5.800   4.924 -0.1658 -0.2765  0.6839
 6550TIP3    H119656   3.808   5.811   4.905 -0.3609 -1.1831  1.1243
 6550TIP3    H219657   3.903   5.744   5.002  0.7126  0.6631  1.3486
 6551TIP3   OH219658   3.570   1.273   0.915  0.4148  0.1636  0.5466
 6551TIP3    H119659   3.524   1.340   0.865 -0.3469 -0.8966 -0.1986
 6551TIP3    H219660   3.508   1.199   0.919  1.1246 -0.3901  1.5908
 6552TIP3   OH219661   1.196   0.550   3.793  0.1449  0.1186 -0.3158
 6552TIP3    H119662   1.282   0.570   3.756  0.4882 -0.7519 -0.0083
 6552TIP3    H219663   1.210   0.552   3.888 -0.2001  0.0621 -0.2633
 6553TIP3   OH219664   2.469   2.587   0.697 -1.0760 -0.7746  0.3831
 6553TIP3    H119665   2.491   2.570   0.788 -0.0005 -0.2030  0.2353
 6553TIP3    H219666   2.477   2.502   0.654  0.2603 -0.7042  0.4608
 6554TIP3   OH219667   4.630   5.769   4.298 -0.1380 -0.0674 -0.1882
 6554TIP3    H119668   4.624   5.788   4.391  0.2975 -0.2268 -0.1259
 6554TIP3    H219669   4.655   5.853   4.258  3.0336 -0.7680  0.2293
 6555TIP3   OH219670   2.052   2.696   1.658  0.7993  0.4533  0.1419
 6555TIP3    H119671   2.041   2.789   1.677  0.6962  0.4081  0.3044
 6555TIP3    H219672   1.975   2.672   1.607  1.8665  0.9526 -1.7556
 6556TIP3   OH219673   5.761   3.776   0.345  0.4227 -0.1875  0.2516
 6556TIP3    H119674   5.830   3.785   0.280 -0.3579  0.2224 -0.5272
 6556TIP3    H219675   5.804   3.736   0.421  1.4104 -0.3310 -0.3833
 6557TIP3   OH219676   3.108   2.354   0.653 -0.2028 -0.0967 -0.2664
 6557TIP3    H119677   3.167   2.299   0.601  0.3184 -1.3694  1.5830
 6557TIP3    H219678   3.164   2.426   0.684 -0.5577  0.7596 -1.5938
 6558TIP3   OH219679   2.799   4.721   4.537  0.3923 -0.5423 -0.0089
 6558TIP3    H119680   2.732   4.682   4.594  1.6441 -0.0432  1.8248
 6558TIP3    H219681   2.880   4.715   4.587  1.6097 -0.4624 -1.9169
 6559TIP3   OH219682   4.014   2.781   1.260 -0.2384  0.2634  0.7796
 6559TIP3    H119683   3.967   2.714   1.211 -0.8969  0.6639  0.8582
 6559TIP3    H219684   3.985   2.769   1.350 -1.1247  1.3040  0.6360
 6560TIP3   OH219685   4.377   0.850   0.374  0.1876 -0.2147 -0.4680
 6560TIP3    H119686   4.410   0.885   0.291  0.0458 -0.7080 -0.7343
 6560TIP3    H219687   4.353   0.759   0.354  2.0830 -0.9724  0.6090
 6561TIP3   OH219688   0.089   4.708   2.138 -0.3882  0.1783  0.0937
 6561TIP3    H119689   0.126   4.782   2.187 -1.0176  1.0781 -0.7537
 6561TIP3    H219690   0.010   4.684   2.186  0.5221 -0.8251  1.1165
 6562TIP3   OH219691   2.576   1.193   1.419  0.2645  0.0506  0.3292
 6562TIP3    H119692   2.534   1.273   1.452  0.6751  0.6734 -0.6271
 6562TIP3    H219693   2.664   1.195   1.457  0.1786 -0.1050  0.5398
 6563TIP3   OH219694   2.665   5.229   4.857  0.1616  0.2432  0.2875
 6563TIP3    H119695   2.658   5.316   4.896  1.4246 -0.9267  3.3595
 6563TIP3    H219696   2.629   5.170   4.923 -1.1936 -1.5352 -1.9718
 6564TIP3   OH219697   5.083   2.914   0.846 -0.0754 -0.3875  0.2965
 6564TIP3    H119698   5.006   2.937   0.897  1.2701  2.3695  1.2012
 6564TIP3    H219699   5.125   2.998   0.827  1.6329 -1.6734 -1.8961
 6565TIP3   OH219700   3.231   3.933   4.677 -0.6110 -0.1369  0.5682
 6565TIP3    H119701   3.275   3.987   4.611 -2.1346 -0.3660 -0.6607
 6565TIP3    H219702   3.281   3.851   4.677  1.2490  0.9504  1.9042
 6566TIP3   OH219703   1.521   0.934   1.109 -0.3625 -0.6436  0.3808
 6566TIP3    H119704   1.566   0.994   1.049 -1.1234  0.6583  1.1044
 6566TIP3    H219705   1.532   0.973   1.195 -2.9936 -0.2152  0.5667
 6567TIP3   OH219706   4.907   4.925   4.859  0.5019  0.1707  0.0960
 6567TIP3    H119707   4.993   4.946   4.894  1.7552  0.4098 -2.9788
 6567TIP3    H219708   4.917   4.839   4.818 -1.3438 -0.8587  1.7313
 6568TIP3   OH219709   4.570   4.990   3.271  0.3744 -0.2501  0.3736
 6568TIP3    H119710   4.600   5.073   3.307  0.0450 -0.3539  0.8784
 6568TIP3    H219711   4.647   4.933   3.276 -0.0148 -0.6555  2.0999
 6569TIP3   OH219712   6.319   3.623   4.432 -0.2355 -0.7530 -0.5992
 6569TIP3    H119713   6.273   3.559   4.378 -1.2049  0.2113 -0.9375
 6569TIP3    H219714   6.250   3.682   4.463  0.2643 -1.3950  1.8661
 6570TIP3   OH219715   4.597   5.842   4.549 -0.2795  0.0613  0.3003
 6570TIP3    H119716   4.660   5.846   4.621 -0.9721  0.2213  0.9041
 6570TIP3    H219717   4.512   5.834   4.592 -0.5519 -1.7587 -0.5373
 6571TIP3   OH219718   5.345   4.966   4.270 -0.0372  0.4518  0.9537
 6571TIP3    H119719   5.418   4.919   4.310  2.2748  3.4943  0.5584
 6571TIP3    H219720   5.369   5.059   4.279 -3.8477  1.5406  0.7447
 6572TIP3   OH219721   4.907   5.519   3.943 -0.4875 -0.1602 -0.0831
 6572TIP3    H119722   4.813   5.527   3.927 -0.4664 -0.6499 -0.4392
 6572TIP3    H219723   4.919   5.556   4.031 -1.4654 -2.8352  1.2177
 6573TIP3   OH219724   4.523   0.074   3.815 -0.7139  0.6160 -0.1478
 6573TIP3    H119725   4.567   0.036   3.891 -0.4753 -1.1981 -1.1605
 6573TIP3    H219726   4.591   0.126   3.771  0.1833 -1.3518 -1.1500
 6574TIP3   OH219727   3.378   4.771   3.057 -0.3617  0.6309 -0.0678
 6574TIP3    H119728   3.473   4.778   3.048 -0.1610  0.1342  1.4452
 6574TIP3    H219729   3.345   4.859   3.039  0.5182  1.1563  0.8607
 6575TIP3   OH219730   4.341   5.076   4.146 -0.5465 -0.2735  0.3140
 6575TIP3    H119731   4.266   5.064   4.204 -1.0210 -0.7470 -0.3814
 6575TIP3    H219732   4.381   4.989   4.140 -0.0814 -0.0752  0.4870
 6576TIP3   OH219733   3.428   0.382   5.064 -0.2441  0.0145  0.0413
 6576TIP3    H119734   3.384   0.467   5.067 -0.2402 -0.0180  1.2171
 6576TIP3    H219735   3.491   0.385   5.137 -1.3261 -1.5701  1.0607
 6577TIP3   OH219736   5.640   1.427   2.829 -0.0878 -0.3436  0.1774
 6577TIP3    H119737   5.712   1.365   2.818 -0.0801 -0.5599  1.3274
 6577TIP3    H219738   5.672   1.508   2.791  0.9225 -0.3382  0.9944
 6578TIP3   OH219739   4.943   4.134   4.020 -0.7060  0.8367 -0.3451
 6578TIP3    H119740   4.913   4.198   3.955 -0.1095 -0.4426 -1.9102
 6578TIP3    H219741   4.949   4.052   3.971 -1.9515 -0.5475  1.7501
 6579TIP3   OH219742   6.333   5.609   2.941 -0.3413 -0.0196  0.1205
 6579TIP3    H119743   6.373   5.692   2.917 -0.6604 -0.0833 -0.6554
 6579TIP3    H219744   6.293   5.577   2.860  0.1509 -1.1361  0.3016
 6580TIP3   OH219745   6.005   1.569   3.356  0.0133 -0.1551  0.6939
 6580TIP3    H119746   5.918   1.537   3.382  0.5215 -0.7425  1.6892
 6580TIP3    H219747   6.025   1.637   3.420 -0.3126  0.9820 -0.3860
 6581TIP3   OH219748   6.362   5.743   3.638  0.0278 -0.1868 -0.0118
 6581TIP3    H119749   6.405   5.676   3.692 -2.2262  0.2300  2.3823
 6581TIP3    H219750   6.431   5.808   3.621  1.7677 -2.2362 -0.9194
 6582TIP3   OH219751   6.331   3.795   3.117 -0.3375 -0.1094  0.0605
 6582TIP3    H119752   6.412   3.780   3.166  0.2666 -0.3787 -1.0147
 6582TIP3    H219753   6.275   3.841   3.179  1.1181  1.2777  0.4003
 6583TIP3   OH219754   5.545   3.534   2.672 -0.3122 -0.4943  0.0800
 6583TIP3    H119755   5.510   3.471   2.735  1.2771 -0.3083  1.2005
 6583TIP3    H219756   5.637   3.543   2.696  0.0298  0.5290 -1.5074
 6584TIP3   OH219757   0.953   2.030   4.020  0.2106 -0.2948  0.4910
 6584TIP3    H119758   0.928   1.955   4.073 -1.1396  0.6213  1.1716
 6584TIP3    H219759   0.929   2.106   4.073 -2.1061  0.6736 -1.8111
 6585TIP3   OH219760   6.306   5.343   4.194  0.5146 -0.2476 -0.5513
 6585TIP3    H119761   6.372   5.285   4.155 -1.5257 -2.2091 -1.2245
 6585TIP3    H219762   6.276   5.398   4.121  0.5604 -0.1644 -0.5072
 6586TIP3   OH219763   6.380   3.217   1.330  0.0028 -0.0669  0.0788
 6586TIP3    H119764   6.453   3.200   1.269 -1.0966 -0.1140 -1.2430
 6586TIP3    H219765   6.398   3.304   1.364  1.6053 -0.7529  1.1048
 6587TIP3   OH219766   1.237   2.036   2.070  0.1145 -0.2497 -0.3141
 6587TIP3    H119767   1.210   2.010   1.982 -2.3843  0.9480  0.0768
 6587TIP3    H219768   1.222   1.958   2.123 -0.0774 -0.4121 -0.6029
 6588TIP3   OH219769   2.848   3.662   5.042  0.8483  0.2427 -0.0359
 6588TIP3    H119770   2.803   3.746   5.035 -0.2107 -0.1288  2.0668
 6588TIP3    H219771   2.939   3.685   5.064  0.3021  0.8226  1.6968
 6589TIP3   OH219772   5.608   0.891   4.929  0.3619 -0.0924 -0.3569
 6589TIP3    H119773   5.528   0.886   4.877 -1.3418  1.3114  2.0577
 6589TIP3    H219774   5.646   0.975   4.906  1.5324 -1.0421 -1.9958
 6590TIP3   OH219775   1.396   2.337   4.458  0.1590  0.3729  0.5679
 6590TIP3    H119776   1.471   2.389   4.434 -0.7903  1.4171 -0.1719
 6590TIP3    H219777   1.320   2.390   4.433 -0.8171 -1.0897  0.3528
 6591TIP3   OH219778   4.183   1.165   3.888  0.1039 -0.1358  0.3894
 6591TIP3    H119779   4.096   1.154   3.926  0.5805 -0.5488  1.3906
 6591TIP3    H219780   4.242   1.164   3.963  0.9622  0.2890 -0.2710
 6592TIP3   OH219781   0.808   4.747   0.545  0.3725  0.5731  0.1277
 6592TIP3    H119782   0.752   4.785   0.477  2.0084 -0.6269 -1.9590
 6592TIP3    H219783   0.850   4.822   0.585  1.6412  1.1809 -2.2340
 6593TIP3   OH219784   5.266   4.976   5.176  0.0165  0.9010 -0.0825
 6593TIP3    H119785   5.319   4.982   5.097  0.0137 -0.1355 -0.1724
 6593TIP3    H219786   5.328   4.950   5.244 -0.2587  0.2511 -0.0718
 6594TIP3   OH219787   4.744   2.011   4.725  0.2466 -0.6162 -0.0547
 6594TIP3    H119788   4.832   2.039   4.751  0.7761 -0.8813 -1.5111
 6594TIP3    H219789   4.687   2.047   4.792  1.2812  1.1147 -0.0664
 6595TIP3   OH219790   0.798   3.876   2.171  0.1582  0.0207  0.3808
 6595TIP3    H119791   0.728   3.861   2.235 -0.5743  0.5146 -0.3004
 6595TIP3    H219792   0.791   3.969   2.148 -0.3918 -0.4320 -1.3500
 6596TIP3   OH219793   1.773   0.144   1.019  0.1175 -0.9668 -0.4486
 6596TIP3    H119794   1.803   0.220   0.968  2.2362 -1.3075  0.2437
 6596TIP3    H219795   1.733   0.087   0.954 -3.2762  1.5577 -0.7115
 6597TIP3   OH219796   5.565   2.676   0.211 -0.0983 -0.6084 -0.3956
 6597TIP3    H119797   5.645   2.686   0.262 -0.5482  0.4177  0.1176
 6597TIP3    H219798   5.498   2.720   0.263 -0.5460  0.5451 -1.9054
 6598TIP3   OH219799   6.477   0.748   1.091  0.3640  0.3161  0.3328
 6598TIP3    H119800   6.468   0.820   1.154  1.8502  1.6478 -0.9228
 6598TIP3    H219801   6.509   0.791   1.011  0.5757 -1.6481 -0.6531
 6599TIP3   OH219802   0.719   3.864   2.787  0.0171 -0.1611 -0.8532
 6599TIP3    H119803   0.770   3.791   2.823 -0.4887 -0.5217 -0.8746
 6599TIP3    H219804   0.693   3.915   2.864  2.1262  1.1727 -0.9575
 6600TIP3   OH219805   0.334   3.035   1.161  0.0567 -0.3166 -0.1692
 6600TIP3    H119806   0.334   2.958   1.105 -0.1488 -0.0794 -0.4936
 6600TIP3    H219807   0.353   3.001   1.249  0.8085 -0.6267 -0.4566
 6601TIP3   OH219808   6.484   2.093   0.795 -0.0109  0.2143 -0.3528
 6601TIP3    H119809   6.496   2.048   0.878  1.1398 -0.0018 -0.6264
 6601TIP3    H219810   6.456   2.025   0.734  1.2280 -0.0511 -0.6432
 6602TIP3   OH219811   0.135   0.209   4.260 -0.5355 -0.0902 -0.3577
 6602TIP3    H119812   0.143   0.258   4.342 -0.2495  0.7524 -0.8860
 6602TIP3    H219813   0.207   0.241   4.206 -1.3734  0.1571 -1.3471
 6603TIP3   OH219814   3.199   4.550   2.994 -0.5684 -0.2708  0.0750
 6603TIP3    H119815   3.247   4.583   3.070 -0.1513 -0.5468 -0.0669
 6603TIP3    H219816   3.133   4.617   2.976 -0.4749 -0.0648  0.4947
 6604TIP3   OH219817   2.367   4.575   3.992  1.0320 -0.8875  0.0675
 6604TIP3    H119818   2.297   4.579   3.927 -0.2949  0.3593  1.5499
 6604TIP3    H219819   2.445   4.551   3.942  0.3755  1.6495 -2.2549
 6605TIP3   OH219820   0.224   4.453   0.452 -0.0010  0.3047 -0.0305
 6605TIP3    H119821   0.231   4.465   0.547 -1.7308 -1.9675  0.4337
 6605TIP3    H219822   0.160   4.519   0.425 -1.0105 -0.3500  0.7182
 6606TIP3   OH219823   4.181   0.718   3.237 -0.3497 -0.0209 -0.4254
 6606TIP3    H119824   4.275   0.708   3.223 -0.4484  0.3814 -1.4521
 6606TIP3    H219825   4.166   0.812   3.229 -1.0587 -0.2308 -1.7573
 6607TIP3   OH219826   0.973   4.392   1.383 -0.0887  0.0213  0.0614
 6607TIP3    H119827   1.059   4.368   1.349  1.2263  1.0987  2.4636
 6607TIP3    H219828   0.952   4.322   1.445 -2.2223 -1.6575 -2.4552
 6608TIP3   OH219829   4.052   0.515   4.081  0.3812  0.3731 -0.4489
 6608TIP3    H119830   4.145   0.506   4.105  0.5562  2.0676 -0.4023
 6608TIP3    H219831   4.053   0.525   3.986 -0.0358 -2.8030 -0.8422
 6609TIP3   OH219832   2.487   4.037   4.418 -0.1259 -0.5000  0.2060
 6609TIP3    H119833   2.560   4.052   4.358 -0.8718 -0.5471 -0.7213
 6609TIP3    H219834   2.413   4.080   4.376 -0.5343 -0.0540  1.3657
 6610TIP3   OH219835   4.870   0.118   4.737  0.3467  0.5117  0.3312
 6610TIP3    H119836   4.953   0.073   4.747  0.7017  1.0624 -0.1172
 6610TIP3    H219837   4.892   0.211   4.742 -0.3750  0.6470  1.2231
 6611TIP3   OH219838   0.915   3.081   2.020 -0.0663 -0.2692 -0.1538
 6611TIP3    H119839   0.874   3.059   1.936  0.5516 -1.0204 -0.2626
 6611TIP3    H219840   0.953   2.998   2.051  0.9220  0.3032  0.1943
 6612TIP3   OH219841   5.137   0.957   5.294  0.1397 -0.9692  0.4428
 6612TIP3    H119842   5.164   0.968   5.202  0.1999 -0.7286  0.4913
 6612TIP3    H219843   5.097   0.870   5.296 -1.6910 -0.1830 -0.2605
 6613TIP3   OH219844   6.327   0.198   4.865  0.3157 -0.2924  0.0621
 6613TIP3    H119845   6.347   0.145   4.789  0.0290  1.2810 -1.1400
 6613TIP3    H219846   6.260   0.148   4.912  2.6596 -2.7190  0.9557
 6614TIP3   OH219847   5.226   0.012   5.012 -0.2238  0.3896 -0.0516
 6614TIP3    H119848   5.159   0.078   5.027 -0.5415 -0.3121  1.7191
 6614TIP3    H219849   5.294   0.031   5.076  0.1917 -0.3138 -0.2731
 6615TIP3   OH219850   1.682   5.128   1.315  0.0393 -0.3719 -0.6161
 6615TIP3    H119851   1.726   5.213   1.308 -0.7700  0.1547  0.5424
 6615TIP3    H219852   1.745   5.065   1.280  0.8414  0.6537 -1.0193
 6616TIP3   OH219853   4.822   1.482   5.300 -0.2008  0.6213 -0.8547
 6616TIP3    H119854   4.775   1.462   5.381 -0.0029  0.6936 -0.7216
 6616TIP3    H219855   4.753   1.485   5.233 -0.5809  2.1735 -0.4171
 6617TIP3   OH219856   2.180   3.408   2.207 -0.0163  0.1966  0.5648
 6617TIP3    H119857   2.118   3.474   2.235  0.6463  1.1557 -0.1856
 6617TIP3    H219858   2.179   3.342   2.276 -0.2984  1.2511  1.5702
 6618TIP3   OH219859   1.812   5.304   3.233 -0.1722 -0.4163 -0.4478
 6618TIP3    H119860   1.762   5.222   3.229  1.2307 -1.2234 -2.8782
 6618TIP3    H219861   1.779   5.355   3.158  0.2957  0.4387 -0.0727
 6619TIP3   OH219862   2.724   2.983   1.868  0.5144 -0.3951 -0.2996
 6619TIP3    H119863   2.812   2.964   1.902  1.4923 -1.1086 -3.0912
 6619TIP3    H219864   2.722   3.078   1.859  0.8889 -0.3480  0.1130
 6620TIP3   OH219865   1.407   1.754   1.551  0.5539 -0.3671  0.3909
 6620TIP3    H119866   1.432   1.686   1.489 -0.7554  0.1027 -0.6819
 6620TIP3    H219867   1.465   1.828   1.531  1.0957 -0.7186  0.6789
 6621TIP3   OH219868   3.649   3.716   5.332 -0.7430  0.0552 -0.0447
 6621TIP3    H119869   3.558   3.733   5.307 -1.1588 -0.1816  1.3076
 6621TIP3    H219870   3.685   3.665   5.259 -1.4796  0.7588 -0.9102
 6622TIP3   OH219871   6.468   5.635   0.763 -0.1088  0.1839  0.2263
 6622TIP3    H119872   6.389   5.672   0.723 -0.5332  0.1739  1.0371
 6622TIP3    H219873   6.539   5.661   0.704 -0.8176 -0.5562 -0.9871
 6623TIP3   OH219874   6.215   3.474   1.342 -0.3379  0.0676 -0.2580
 6623TIP3    H119875   6.282   3.531   1.305 -1.0114  0.2338 -1.2383
 6623TIP3    H219876   6.218   3.395   1.289 -0.9114  0.0697 -0.2954
 6624TIP3   OH219877   5.318   3.260   2.100 -0.5237  0.0906 -0.1190
 6624TIP3    H119878   5.375   3.294   2.169  1.9439  0.0645 -2.0834
 6624TIP3    H219879   5.255   3.331   2.084  1.4577  1.7781 -0.6777
 6625TIP3   OH219880   4.155   3.451   3.886  0.0792  0.1584 -0.7852
 6625TIP3    H119881   4.167   3.429   3.793 -0.1918 -0.8503 -0.5947
 6625TIP3    H219882   4.061   3.468   3.894  0.0311 -0.1754 -0.6178
 6626TIP3   OH219883   3.926   5.974   3.961 -0.2873 -0.5083  0.5739
 6626TIP3    H119884   3.862   5.952   4.029 -1.4301  0.5947 -0.1217
 6626TIP3    H219885   3.899   6.060   3.929  1.4095 -0.1256  0.0878
 6627TIP3   OH219886   6.191   5.041   2.731  0.3055 -0.0029 -0.0166
 6627TIP3    H119887   6.166   5.124   2.771  1.2817 -0.7696  2.2255
 6627TIP3    H219888   6.145   4.974   2.781  1.0820 -0.9468 -0.5308
 6628TIP3   OH219889   3.390   2.271   1.231 -0.2516 -0.1680  0.1759
 6628TIP3    H119890   3.443   2.193   1.217  0.1651  0.3929 -1.4440
 6628TIP3    H219891   3.306   2.238   1.261  0.4523 -1.1489  1.1134
 6629TIP3   OH219892   1.031   1.828   0.693 -0.6025 -0.0750 -0.9793
 6629TIP3    H119893   0.944   1.814   0.732  0.6048  0.1872  1.9726
 6629TIP3    H219894   1.066   1.739   0.683  0.1142 -0.0557  1.1018
 6630TIP3   OH219895   6.368   2.206   2.016 -0.6481 -0.1712 -0.0395
 6630TIP3    H119896   6.348   2.213   1.923  0.0041 -0.6599 -0.2211
 6630TIP3    H219897   6.404   2.118   2.027  0.0672  0.1781  0.5177
 6631TIP3   OH219898   5.100   3.212   0.870  0.0926 -0.1073  0.3916
 6631TIP3    H119899   5.146   3.252   0.797 -0.8529 -0.8328 -0.6215
 6631TIP3    H219900   5.019   3.261   0.878 -0.3083 -0.7452  0.2399
 6632TIP3   OH219901   6.294   0.404   0.087  0.0510 -0.2090  0.6109
 6632TIP3    H119902   6.265   0.479   0.036  1.7176 -0.1384 -0.2593
 6632TIP3    H219903   6.256   0.328   0.043  0.5680 -0.0649 -0.0857
 6633TIP3   OH219904   0.104   3.272   1.153  0.5814 -0.3912 -0.0197
 6633TIP3    H119905   0.166   3.344   1.139 -0.1089 -0.1458 -1.9750
 6633TIP3    H219906   0.136   3.202   1.097 -0.9371 -0.2345 -1.1127
 6634TIP3   OH219907   3.870   5.624   3.680 -0.0086  0.6436  0.0659
 6634TIP3    H119908   3.833   5.710   3.663 -0.2028  0.1870 -2.0038
 6634TIP3    H219909   3.801   5.562   3.658 -0.3969 -0.0502  2.9849
 6635TIP3   OH219910   5.870   1.372   3.559  0.3160 -1.3302 -0.4300
 6635TIP3    H119911   5.934   1.401   3.624  0.3423 -1.0616 -0.5733
 6635TIP3    H219912   5.916   1.306   3.508  1.1488  0.2519 -1.7913
 6636TIP3   OH219913   6.484   0.757   4.547 -0.1211  0.5325  0.3182
 6636TIP3    H119914   6.508   0.782   4.457  3.2893  0.6518  1.2045
 6636TIP3    H219915   6.455   0.667   4.540 -0.0920  0.6089 -0.9420
 6637TIP3   OH219916   6.314   3.347   1.067 -0.3705 -0.2672  0.0927
 6637TIP3    H119917   6.354   3.424   1.106 -0.8126 -0.1845  0.3932
 6637TIP3    H219918   6.373   3.322   0.997 -0.5318  0.6987 -0.3960
 6638TIP3   OH219919   2.733   3.948   2.177 -0.1034  0.5612 -0.0938
 6638TIP3    H119920   2.809   3.960   2.121  0.7061  1.0400  1.0765
 6638TIP3    H219921   2.769   3.908   2.257 -1.2562 -0.2918  0.0053
 6639TIP3   OH219922   1.756   2.222   2.169 -0.3077 -0.2316 -0.2651
 6639TIP3    H119923   1.665   2.236   2.141 -1.4020 -2.7779  1.8144
 6639TIP3    H219924   1.760   2.265   2.255  0.5029 -0.0471 -0.3936
 6640TIP3   OH219925   2.830   5.713   4.116 -0.4315  0.3164 -0.6366
 6640TIP3    H119926   2.749   5.754   4.085 -0.4954  0.0415 -0.8291
 6640TIP3    H219927   2.822   5.715   4.211 -0.2272  1.1798 -0.6317
   6.50000   6.12826   5.30723   0.00000   0.00000  -2.16667   0.00000  -2.16667  -3.06413
