Title
29212
    1ASP      N    1   0.890   1.505   2.331 -0.2720  0.0453 -0.0676
    1ASP    HT1    2   0.852   1.424   2.278  0.7394  0.9285 -2.2406
    1ASP    HT2    3   0.906   1.586   2.268  2.6737  0.3138  0.8942
    1ASP    HT3    4   0.835   1.542   2.411  2.6492 -0.1944  2.2233
    1ASP     CA    5   1.021   1.483   2.406  0.6745  0.1077  0.5096
    1ASP     HA    6   1.008   1.393   2.464  0.4933 -1.4979 -1.8909
    1ASP     CB    7   1.149   1.479   2.316  0.4253 -0.0364  0.6609
    1ASP    HB1    8   1.232   1.452   2.385  0.5571 -0.4813  0.3268
    1ASP    HB2    9   1.174   1.569   2.257 -0.2586  0.2961  0.8664
    1ASP     CG   10   1.151   1.363   2.229 -0.5744  0.1299 -0.4843
    1ASP    OD1   11   1.234   1.349   2.134  0.4850  0.2248 -0.5452
    1ASP    OD2   12   1.078   1.265   2.259  0.2538  0.2982  0.1473
    1ASP      C   13   1.028   1.598   2.518 -0.0386  0.0645  0.3386
    1ASP      O   14   0.944   1.612   2.609  0.4357 -0.5195 -0.0450
    2GLY      N   15   1.140   1.670   2.511  0.7472 -0.7303  0.7359
    2GLY     HN   16   1.185   1.667   2.422  0.1470  1.6565  0.2723
    2GLY     CA   17   1.197   1.769   2.605  0.8080  0.2151 -0.3209
    2GLY    HA1   18   1.135   1.857   2.599 -0.0877 -0.3584  0.3156
    2GLY    HA2   19   1.295   1.784   2.561  0.7036 -1.4131 -1.1723
    2GLY      C   20   1.216   1.733   2.754  0.0847 -0.0620  0.5528
    2GLY      O   21   1.213   1.615   2.791 -0.3992  0.1494 -0.3556
    3ASP      N   22   1.242   1.838   2.827  0.1164  0.1082  0.2302
    3ASP     HN   23   1.228   1.921   2.775 -1.2836 -0.8056 -0.9234
    3ASP     CA   24   1.289   1.847   2.967  0.0007 -0.2387 -0.2172
    3ASP     HA   25   1.330   1.751   2.995  2.1711  0.5697 -0.3652
    3ASP     CB   26   1.411   1.942   2.987  0.4133 -0.3749  0.4860
    3ASP    HB1   27   1.446   1.931   3.092 -0.1934 -1.8395  0.5620
    3ASP    HB2   28   1.393   2.047   2.958  1.9485 -0.5898 -1.4249
    3ASP     CG   29   1.540   1.914   2.912 -0.9688 -0.2180 -0.4377
    3ASP    OD1   30   1.638   1.990   2.932 -0.1724 -0.5490 -0.6578
    3ASP    OD2   31   1.557   1.813   2.836 -0.3374 -0.7531  0.1035
    3ASP      C   32   1.182   1.885   3.075  0.0512  0.6822  0.3366
    3ASP      O   33   1.208   1.892   3.192 -0.2152  0.6641 -0.6728
    4GLY      N   34   1.054   1.904   3.026 -0.6118 -0.2246 -0.4753
    4GLY     HN   35   1.040   1.890   2.928  1.0332 -0.7556 -0.6683
    4GLY     CA   36   0.943   1.953   3.110 -0.5187 -0.3017 -0.2510
    4GLY    HA1   37   0.852   1.975   3.056 -0.4453  0.3302 -0.1232
    4GLY    HA2   38   0.981   2.048   3.144 -0.6580 -0.5643  0.6664
    4GLY      C   39   0.908   1.853   3.225 -0.8917 -0.2951  0.7896
    4GLY      O   40   0.947   1.738   3.233 -0.1930  0.0278 -0.2211
    5PRO      N   41   0.827   1.900   3.320  0.6929 -0.6462 -0.2990
    5PRO     CD   42   0.769   2.038   3.315 -0.2516 -0.3097 -0.7404
    5PRO    HD1   43   0.723   2.058   3.216  0.2203 -0.8546 -1.0781
    5PRO    HD2   44   0.845   2.110   3.355 -2.0932  1.4201 -0.1816
    5PRO     CA   45   0.755   1.821   3.417  0.6361 -0.2667 -0.0278
    5PRO     HA   46   0.821   1.759   3.475 -0.6811 -0.9688  0.7746
    5PRO     CB   47   0.698   1.930   3.515 -0.7072 -0.0063  0.5006
    5PRO    HB1   48   0.777   1.969   3.583  0.2201  1.0521 -1.1006
    5PRO    HB2   49   0.615   1.890   3.576 -1.5064  2.0086  0.8376
    5PRO     CG   50   0.660   2.043   3.414  0.5616  0.5463 -0.4391
    5PRO    HG1   51   0.570   2.016   3.354 -0.2754 -1.4753  1.5764
    5PRO    HG2   52   0.634   2.135   3.470  2.4550  1.2037 -0.5837
    5PRO      C   53   0.633   1.741   3.370  0.2711 -0.4902 -0.1175
    5PRO      O   54   0.555   1.693   3.454 -0.2137 -0.1402 -0.0323
    6GLY      N   55   0.620   1.715   3.242  0.3707 -0.0216 -0.2138
    6GLY     HN   56   0.693   1.742   3.179  1.7045  1.1904  1.7446
    6GLY     CA   57   0.516   1.639   3.186  0.2069 -0.2599  0.3293
    6GLY    HA1   58   0.534   1.640   3.080  0.3351 -1.8688  0.3040
    6GLY    HA2   59   0.424   1.678   3.227  1.2263  1.2390  1.3063
    6GLY      C   60   0.506   1.494   3.224 -0.6196 -0.1658  0.1583
    6GLY      O   61   0.604   1.429   3.253 -0.1522 -0.3187  0.1946
    7ASP      N   62   0.381   1.439   3.223 -0.8051 -0.2224 -0.1065
    7ASP     HN   63   0.306   1.495   3.190 -1.5243 -1.0284  0.1398
    7ASP     CA   64   0.360   1.306   3.270 -0.8300  0.1265 -0.2570
    7ASP     HA   65   0.417   1.301   3.361 -3.0264 -2.4395  1.1067
    7ASP     CB   66   0.211   1.270   3.289 -0.3164  0.0794 -0.2011
    7ASP    HB1   67   0.198   1.161   3.305 -1.6722 -0.0196 -1.6588
    7ASP    HB2   68   0.172   1.285   3.186  1.0001 -2.5405 -1.1802
    7ASP     CG   69   0.134   1.343   3.395  0.7677  0.2683 -0.3456
    7ASP    OD1   70   0.185   1.441   3.458 -0.0608  0.7518  0.0836
    7ASP    OD2   71   0.013   1.305   3.415 -0.6317 -0.3364  0.6091
    7ASP      C   72   0.413   1.216   3.157 -0.0062  0.0932 -0.4394
    7ASP      O   73   0.407   1.251   3.036 -0.4567 -0.6054 -0.2082
    8PRO      N   74   0.473   1.102   3.185 -0.3570 -0.6694 -0.8998
    8PRO     CD   75   0.537   1.078   3.312  0.2687 -0.1270 -0.2805
    8PRO    HD1   76   0.463   1.061   3.394 -0.5198 -0.6296 -1.0722
    8PRO    HD2   77   0.600   1.167   3.334  1.3198 -0.6098 -1.2653
    8PRO     CA   78   0.478   0.989   3.093 -0.1540 -0.4058 -0.4460
    8PRO     HA   79   0.549   1.020   3.018  1.5737 -1.1103  0.8372
    8PRO     CB   80   0.530   0.868   3.175  0.1475 -0.2117 -0.3074
    8PRO    HB1   81   0.591   0.793   3.121  2.0331 -1.0526  2.6977
    8PRO    HB2   82   0.437   0.822   3.213 -0.0260  0.3456 -0.0414
    8PRO     CG   83   0.607   0.937   3.290  0.0528 -0.5788 -0.0316
    8PRO    HG1   84   0.610   0.870   3.378  2.7065  0.8688  1.1032
    8PRO    HG2   85   0.709   0.957   3.252  0.1100  2.1702  1.2856
    8PRO      C   86   0.351   0.957   3.017  0.5686 -1.1180 -0.4212
    8PRO      O   87   0.243   0.965   3.081  0.3717 -0.0775  0.3681
    9GLY      N   88   0.352   0.938   2.887 -1.0912  0.0342 -0.5748
    9GLY     HN   89   0.440   0.963   2.847 -1.9857  1.3150 -1.8781
    9GLY     CA   90   0.247   0.870   2.816 -0.3307  0.2572  0.1576
    9GLY    HA1   91   0.261   0.888   2.711  1.2149 -1.2089  0.0754
    9GLY    HA2   92   0.155   0.915   2.850 -1.2581 -0.2396 -1.5781
    9GLY      C   93   0.245   0.719   2.830  0.7091  0.0997  0.3777
    9GLY      O   94   0.325   0.651   2.890  0.3186  0.3535 -0.3494
   10ASP      N   95   0.143   0.662   2.763 -0.5235  0.4293 -0.1037
   10ASP     HN   96   0.082   0.722   2.712 -2.0222  1.7731  3.0048
   10ASP     CA   97   0.100   0.524   2.752  0.2257 -0.5151 -0.1764
   10ASP     HA   98   0.096   0.480   2.851 -0.3027 -2.7721 -1.1285
   10ASP     CB   99  -0.031   0.503   2.667 -0.3063  0.1814  0.4265
   10ASP    HB1  100  -0.055   0.395   2.666  1.1721 -0.1733 -0.4767
   10ASP    HB2  101  -0.015   0.537   2.562 -0.3745  0.7003  0.5799
   10ASP     CG  102  -0.155   0.574   2.709  0.2657  0.1211 -0.0144
   10ASP    OD1  103  -0.167   0.698   2.732 -0.8298 -0.1210 -0.0429
   10ASP    OD2  104  -0.258   0.493   2.718  0.2469  0.8512  0.6923
   10ASP      C  105   0.210   0.425   2.691 -0.4393  0.1486 -0.2967
   10ASP      O  106   0.294   0.466   2.610 -0.1966  0.1950  0.5077
   11GLY      N  107   0.205   0.304   2.740 -0.0056 -0.8914  0.9127
   11GLY     HN  108   0.145   0.287   2.817 -1.2089 -1.6115 -0.1535
   11GLY     CA  109   0.275   0.182   2.696  0.3880  0.1511 -0.0888
   11GLY    HA1  110   0.301   0.129   2.787 -1.1759 -0.0316  0.2810
   11GLY    HA2  111   0.354   0.195   2.624 -0.8731  0.8215 -1.3793
   11GLY      C  112   0.177   0.089   2.629  0.2321  0.5048 -0.1702
   11GLY    OT1  113   0.058   0.118   2.613  0.1766 -0.0076  0.3961
   11GLY    OT2  114   0.217  -0.018   2.575 -0.6481 -0.2225  0.1938
   12LIT    LIT  115   6.969   5.478   4.786  0.0579  0.6351 -0.3880
   13LIT    LIT  116   1.319   0.186   5.096 -0.0358  1.1352 -0.6717
   14LIT    LIT  117   1.854   5.143   5.728 -0.7845 -0.9584 -0.0093
   15LIT    LIT  118   3.321   5.658   0.156  0.0298  0.0179 -0.2517
   16LIT    LIT  119   4.827   6.737   2.547  0.2735 -0.3113  0.3761
   17LIT    LIT  120   1.129   6.168   1.104 -0.0055  0.6255 -0.1852
   18LIT    LIT  121   2.481   3.013   4.858  0.5970 -0.2429  0.4458
   19LIT    LIT  122   0.373   1.102   5.204  0.3697  0.7856  0.0836
   20LIT    LIT  123   1.353   2.811   5.151  0.5199  1.4734  0.2097
   21LIT    LIT  124   6.453   3.432   3.806  0.1905  0.9308 -0.7715
   22LIT    LIT  125   0.301   2.966   5.186 -0.4383  0.2815 -0.7296
   23LIT    LIT  126   4.087   6.438   4.076 -0.9241 -0.1301  0.5978
   24LIT    LIT  127   6.509   4.897   1.755 -0.9094  0.5303  0.3900
   25LIT    LIT  128   1.906   0.679   3.011 -0.4430 -0.0856 -0.3312
   26LIT    LIT  129   6.935   0.314   2.802  0.1880 -0.4957  0.1976
   27LIT    LIT  130   6.750   3.815   1.085 -0.1224  0.3719  0.6285
   28LIT    LIT  131   5.228   2.248   1.760 -0.6616  0.9244 -0.2134
   29LIT    LIT  132   2.218   5.568   3.149 -0.2535  0.2136 -0.1670
   30LIT    LIT  133   1.611   0.937   1.827 -0.5885 -0.9154  0.2155
   31LIT    LIT  134   5.853   1.533   3.688 -0.7255  0.1781 -0.0313
   32LIT    LIT  135   6.816   0.723   5.738 -0.7808 -0.6528  0.2358
   33LIT    LIT  136   6.998   5.623   1.579  1.1557 -0.8443 -1.0170
   34LIT    LIT  137   0.340   5.041   0.602 -0.8685 -0.1778  0.1861
   35LIT    LIT  138   4.970   6.068   4.225  0.9139 -0.0711 -0.3543
   36LIT    LIT  139   2.846   1.137   0.357 -0.4642  0.6960  0.2198
   37LIT    LIT  140   2.886   6.635   1.188 -0.1103 -1.5519 -0.2096
   38LIT    LIT  141   6.614   1.710   5.155  1.1763 -0.5267  0.3258
   39LIT    LIT  142   1.142   1.181   2.083  0.1837 -1.3960  0.0121
   40LIT    LIT  143   4.793   1.132   1.799 -0.0329  0.2899 -0.4037
   41LIT    LIT  144   1.748   2.855   3.223  0.4989  0.4259 -0.1508
   42LIT    LIT  145   1.752   1.878   2.828 -0.1232  0.5038  0.5355
   43CLA    CLA  146   0.025   4.495   4.331 -0.1273 -0.2179  0.0412
   44CLA    CLA  147   5.951   2.836   2.045  0.6043  0.1548  0.0017
   45CLA    CLA  148   4.063   4.337   4.842 -0.1336  0.1677  0.1626
   46CLA    CLA  149   1.085   3.970   4.465 -0.0173 -0.0171  0.2038
   47CLA    CLA  150   1.166   0.327   0.944  0.0761 -0.1772  0.4628
   48CLA    CLA  151   3.382   5.660   4.593  0.2891 -0.0669  0.2296
   49CLA    CLA  152   6.115   6.090   5.833  0.2601  0.3263 -0.1283
   50CLA    CLA  153   3.119   5.575   0.030 -0.0948  0.0852  0.0757
   51CLA    CLA  154   1.414   2.503   0.817  0.0265  0.0138 -0.0897
   52CLA    CLA  155   6.339   0.783   4.927 -0.0378  0.3892 -0.4055
   53CLA    CLA  156   0.372   5.156   2.354  0.0833  0.0595  0.2747
   54CLA    CLA  157   1.054   5.876   2.809 -0.0004  0.0511 -0.0364
   55CLA    CLA  158   6.400   6.002   3.136 -0.1848  0.3104 -0.3893
   56CLA    CLA  159   2.906   0.549   3.966  0.2569  0.0605  0.0804
   57CLA    CLA  160   5.721   1.633   5.612 -0.3594  0.1310  0.1375
   58CLA    CLA  161   3.176   1.995   4.905 -0.0520  0.0424 -0.2459
   59CLA    CLA  162   6.778   6.305   4.207 -0.2652  0.0819 -0.4342
   60CLA    CLA  163   3.412   0.985   2.620 -0.0725  0.4873 -0.2981
   61CLA    CLA  164   1.810   2.895   0.774 -0.2883  0.1182  0.3600
   62CLA    CLA  165   3.823   6.317   3.208 -0.1615 -0.0530 -0.3529
   63CLA    CLA  166   6.643   2.055   5.782  0.6895  0.1138 -0.2121
   64CLA    CLA  167   3.757   2.363   3.392  0.1573  0.1173  0.2015
   65CLA    CLA  168   0.332   6.373   1.772  0.0323 -0.5254 -0.0725
   66CLA    CLA  169   1.932   3.270   5.560 -0.2324  0.1173  0.5083
   67CLA    CLA  170   6.943   5.267   0.764  0.1099 -0.1141 -0.3139
   68CLA    CLA  171   2.418   6.568   4.323  0.6097 -0.1185 -0.3118
   69CLA    CLA  172   4.245   2.050   1.341  0.1718  0.1076  0.0862
   70TIP3   OH2  173   5.602   2.244   3.316  0.2569  0.4350 -0.0538
   70TIP3    H1  174   5.661   2.258   3.242  0.3905 -0.5702 -0.1414
   70TIP3    H2  175   5.568   2.156   3.304 -0.0388  0.4139  0.8602
   71TIP3   OH2  176   4.632   2.885   2.973  0.1129 -0.3692 -0.1646
   71TIP3    H1  177   4.633   2.905   3.066 -0.2581  2.3213 -0.6386
   71TIP3    H2  178   4.666   2.796   2.966  1.7385 -0.0413  2.3969
   72TIP3   OH2  179   2.204   0.196   5.483 -0.2040 -0.0497 -0.5765
   72TIP3    H1  180   2.144   0.174   5.554  0.0458  1.3255  0.0889
   72TIP3    H2  181   2.284   0.148   5.504 -0.5331 -0.6062 -0.5861
   73TIP3   OH2  182   2.381   2.583   0.104  0.8791  0.0845 -0.3143
   73TIP3    H1  183   2.363   2.562   0.195 -0.0021 -1.3855 -0.7979
   73TIP3    H2  184   2.336   2.667   0.090  2.0419  0.9524  0.8900
   74TIP3   OH2  185   3.298   4.612   0.038  0.0070 -0.1700  0.0883
   74TIP3    H1  186   3.228   4.666   0.003  0.5686  0.9017  0.5683
   74TIP3    H2  187   3.262   4.523   0.039 -0.4679 -0.0556 -1.9787
   75TIP3   OH2  188   2.055   5.156   2.462  0.6314  0.3433 -0.1368
   75TIP3    H1  189   1.989   5.088   2.462 -0.1939  1.1306  0.0274
   75TIP3    H2  190   2.113   5.134   2.389 -0.2334  0.0605 -0.7469
   76TIP3   OH2  191   1.131   2.668   5.402 -0.3932 -0.2912 -0.2972
   76TIP3    H1  192   1.069   2.676   5.329 -0.8835 -1.8103 -0.0890
   76TIP3    H2  193   1.083   2.621   5.470 -0.0537  1.4066  1.1875
   77TIP3   OH2  194   5.639   0.007   5.854 -0.6099  0.1744  0.2380
   77TIP3    H1  195   5.669   0.055   5.777 -0.0816 -1.3156 -0.5262
   77TIP3    H2  196   5.544   0.001   5.842 -0.7564  1.4155  0.6037
   78TIP3   OH2  197   0.416   0.506   4.977 -0.2811  0.5040  0.0616
   78TIP3    H1  198   0.383   0.564   5.045 -0.0578  1.4695 -0.6318
   78TIP3    H2  199   0.505   0.536   4.961 -0.2626  0.1561 -0.5167
   79TIP3   OH2  200   3.389   2.515   5.218 -0.4460 -0.1274  0.2032
   79TIP3    H1  201   3.313   2.570   5.197 -0.2287  0.3540  0.6808
   79TIP3    H2  202   3.407   2.468   5.137  0.4538  1.7948 -0.7556
   80TIP3   OH2  203   3.252   2.066   0.216  0.3122  0.4849 -0.0356
   80TIP3    H1  204   3.317   2.136   0.209  1.0704 -0.1732  0.2931
   80TIP3    H2  205   3.265   2.030   0.304 -0.0233 -0.1042 -0.2218
   81TIP3   OH2  206   2.861   0.355   4.224 -0.0478  0.5657 -0.0276
   81TIP3    H1  207   2.897   0.268   4.240 -0.9761  0.5157  2.1487
   81TIP3    H2  208   2.906   0.386   4.146  0.9308 -1.5098 -0.3461
   82TIP3   OH2  209   5.583   5.433   3.768  0.2438 -0.3259 -0.1047
   82TIP3    H1  210   5.534   5.439   3.850  2.4751 -1.0175  1.3760
   82TIP3    H2  211   5.672   5.458   3.792  0.8993 -0.2493 -2.4146
   83TIP3   OH2  212   5.866   0.769   1.495  0.4857 -0.1086 -0.2888
   83TIP3    H1  213   5.817   0.831   1.441 -2.0694 -0.9986  0.8574
   83TIP3    H2  214   5.938   0.821   1.531 -1.5272  2.2762  0.5981
   84TIP3   OH2  215   3.152   1.408   2.367 -0.6295  0.3616  0.0963
   84TIP3    H1  216   3.129   1.397   2.460  1.3671 -1.3480  0.4437
   84TIP3    H2  217   3.121   1.328   2.325  1.5512 -0.4776 -0.0237
   85TIP3   OH2  218   7.043   5.709   4.389 -0.3547 -0.0649  0.0156
   85TIP3    H1  219   7.139   5.706   4.387 -0.2866  1.3142 -0.3149
   85TIP3    H2  220   7.016   5.646   4.323  0.3517 -0.1409 -0.2184
   86TIP3   OH2  221   1.132   6.373   5.266 -0.3102 -0.0140 -0.1012
   86TIP3    H1  222   1.162   6.287   5.294  2.0923  0.0871 -2.0475
   86TIP3    H2  223   1.170   6.434   5.330 -0.8733 -0.2788  0.4938
   87TIP3   OH2  224   4.191   5.401   2.504  0.2978  0.4664 -0.3973
   87TIP3    H1  225   4.279   5.433   2.524  0.6072  0.5407 -1.7462
   87TIP3    H2  226   4.194   5.308   2.529  0.9946  0.2940 -1.0696
   88TIP3   OH2  227   3.379   0.177   2.854  0.2092  0.2758  0.3483
   88TIP3    H1  228   3.359   0.198   2.945  0.2444 -0.6271  0.5736
   88TIP3    H2  229   3.335   0.246   2.804 -0.0168  0.6429  1.0350
   89TIP3   OH2  230   4.100   2.961   2.183  0.0028 -0.3020  0.2759
   89TIP3    H1  231   4.033   2.996   2.242  0.3380  0.2092  0.3602
   89TIP3    H2  232   4.176   2.949   2.239  0.0328 -0.7208  0.1430
   90TIP3   OH2  233   6.320   6.510   2.628  0.2165 -0.0295 -0.2311
   90TIP3    H1  234   6.355   6.541   2.711 -1.4008  0.3312  0.3590
   90TIP3    H2  235   6.380   6.545   2.562  0.7213  0.9040  0.6909
   91TIP3   OH2  236   0.580   3.153   5.399 -0.3639  0.0040  0.4890
   91TIP3    H1  237   0.646   3.202   5.450 -1.1772  0.2011  1.3816
   91TIP3    H2  238   0.609   3.062   5.405 -0.2237  0.0750  0.9713
   92TIP3   OH2  239   4.863   1.344   2.805 -0.1238  0.3154  0.5133
   92TIP3    H1  240   4.957   1.352   2.819  0.0137  0.4280 -0.4267
   92TIP3    H2  241   4.827   1.427   2.837  0.3780  1.2948 -1.3001
   93TIP3   OH2  242   2.600   6.491   5.244  0.0019 -0.2108 -0.2717
   93TIP3    H1  243   2.654   6.412   5.235 -0.6720 -0.6939 -0.1819
   93TIP3    H2  244   2.653   6.550   5.297  0.4627 -0.6597 -0.2198
   94TIP3   OH2  245   0.300   4.571   1.482 -0.3103 -0.0266  0.4103
   94TIP3    H1  246   0.378   4.590   1.533 -0.4213 -0.0823  0.6031
   94TIP3    H2  247   0.234   4.632   1.514 -0.0271  0.8125 -0.5512
   95TIP3   OH2  248   5.983   1.280   5.733 -0.2587 -0.0614  0.3397
   95TIP3    H1  249   5.890   1.274   5.753 -0.3565  1.4793  0.4475
   95TIP3    H2  250   6.027   1.258   5.815 -0.5416  0.0289  0.5155
   96TIP3   OH2  251   3.959   1.945   5.262  0.5355 -0.3520  0.1806
   96TIP3    H1  252   3.946   1.850   5.260  0.6417 -0.3994  1.2631
   96TIP3    H2  253   4.028   1.958   5.327 -0.7559  0.5957  1.3916
   97TIP3   OH2  254   4.033   4.117   2.172  0.5213  0.0665 -0.3806
   97TIP3    H1  255   4.094   4.133   2.100  2.7284  1.0053  1.5448
   97TIP3    H2  256   3.986   4.199   2.183 -0.1955 -0.2441 -1.0457
   98TIP3   OH2  257   2.966   2.047   5.448 -0.2868 -0.0916  0.1110
   98TIP3    H1  258   3.053   2.016   5.423 -0.1265 -0.7367  1.3621
   98TIP3    H2  259   2.933   1.980   5.509 -1.2848  0.5889  0.3513
   99TIP3   OH2  260   4.026   0.103   1.519  0.1282  0.0709  0.4956
   99TIP3    H1  261   4.029   0.042   1.445  1.6685  1.4030 -0.6340
   99TIP3    H2  262   4.049   0.049   1.595  0.2562 -0.9873 -0.2651
  100TIP3   OH2  263   1.312   6.558   4.784 -0.2031 -0.3214  0.1288
  100TIP3    H1  264   1.310   6.463   4.772  0.9055 -0.5658  1.5254
  100TIP3    H2  265   1.312   6.594   4.696 -0.7019 -1.6194 -0.4205
  101TIP3   OH2  266   1.123   5.508   1.964 -0.2342 -0.1083  0.0014
  101TIP3    H1  267   1.078   5.434   1.924 -0.9865  0.5545 -0.4033
  101TIP3    H2  268   1.209   5.473   1.989 -1.1993 -1.5706  1.4196
  102TIP3   OH2  269   4.657   3.176   2.059 -0.2092  0.1970  0.1251
  102TIP3    H1  270   4.624   3.087   2.050 -1.3566  0.5796  0.2964
  102TIP3    H2  271   4.747   3.166   2.089 -0.7792 -0.8953  1.6190
  103TIP3   OH2  272   5.758   3.331   5.745 -0.3784 -0.0404  0.2056
  103TIP3    H1  273   5.764   3.424   5.762  0.8154 -0.3111  1.4303
  103TIP3    H2  274   5.749   3.291   5.831  0.4633 -1.1333 -0.1885
  104TIP3   OH2  275   4.025   5.162   5.568  0.1972 -0.0843 -0.1952
  104TIP3    H1  276   4.106   5.201   5.602 -0.3127  0.2458  0.6730
  104TIP3    H2  277   4.002   5.217   5.493  1.4059 -0.8977 -1.2102
  105TIP3   OH2  278   5.928   2.277   4.246  0.2167 -0.2210 -0.2039
  105TIP3    H1  279   5.883   2.362   4.247 -1.3193 -0.9466 -1.8614
  105TIP3    H2  280   6.020   2.299   4.230 -0.2568  1.1025 -1.2789
  106TIP3   OH2  281   4.740   5.151   1.492 -0.5456  0.0679 -0.0848
  106TIP3    H1  282   4.788   5.228   1.462 -2.1437  0.2921 -2.2845
  106TIP3    H2  283   4.651   5.164   1.459 -0.8968 -2.6488 -0.3932
  107TIP3   OH2  284   1.922   1.361   5.647  0.1090  0.3150  0.1927
  107TIP3    H1  285   1.885   1.388   5.731 -0.9961  0.3770 -0.2945
  107TIP3    H2  286   1.949   1.442   5.606  0.6190  0.2880  0.4664
  108TIP3   OH2  287   0.241   1.574   2.668 -0.0306  0.8177 -0.3042
  108TIP3    H1  288   0.264   1.501   2.610 -1.2624 -1.4926  1.9159
  108TIP3    H2  289   0.155   1.603   2.638  0.6129  1.6825 -1.4120
  109TIP3   OH2  290   2.916   3.820   5.367 -0.5562 -0.2336  0.0808
  109TIP3    H1  291   2.952   3.817   5.456  1.3716  0.0433 -0.6520
  109TIP3    H2  292   2.943   3.736   5.328  1.7988  1.0822 -1.3567
  110TIP3   OH2  293   5.456   2.860   1.017 -0.0300 -0.1888  0.5944
  110TIP3    H1  294   5.527   2.798   1.031 -0.2832 -0.6115  0.0461
  110TIP3    H2  295   5.421   2.838   0.931 -1.9251 -1.0999  1.5421
  111TIP3   OH2  296   5.678   1.080   5.043  0.6062 -0.4249 -0.0764
  111TIP3    H1  297   5.609   1.095   5.108 -1.7483 -2.4108 -1.9545
  111TIP3    H2  298   5.700   1.168   5.013  0.7583  0.4493  2.3220
  112TIP3   OH2  299   6.938   2.760   4.389 -0.2778 -0.3865  0.4682
  112TIP3    H1  300   7.033   2.747   4.382 -0.3667 -1.2444  0.7345
  112TIP3    H2  301   6.906   2.681   4.433 -0.9452  0.4850  1.6209
  113TIP3   OH2  302   4.180   6.145   2.298  0.2533  0.2685 -0.1904
  113TIP3    H1  303   4.247   6.207   2.329  0.2514  1.2051 -1.8930
  113TIP3    H2  304   4.194   6.141   2.203 -0.5779 -1.3944 -0.2763
  114TIP3   OH2  305   4.066   3.908   3.897  0.4385  0.2551 -0.2342
  114TIP3    H1  306   4.016   3.946   3.825 -0.8953  0.1815  0.6267
  114TIP3    H2  307   4.070   3.977   3.963 -1.5040 -0.8087  1.1032
  115TIP3   OH2  308   0.488   0.884   4.685 -0.4625 -0.1564 -0.1435
  115TIP3    H1  309   0.427   0.852   4.751  0.7730 -1.0736  0.6175
  115TIP3    H2  310   0.471   0.978   4.679 -1.2972 -0.2344  0.7187
  116TIP3   OH2  311   3.420   6.112   2.617 -0.1540  0.1224  0.4935
  116TIP3    H1  312   3.496   6.170   2.621  0.5105 -0.6030 -0.8408
  116TIP3    H2  313   3.375   6.126   2.700  0.0516  2.4272  0.2942
  117TIP3   OH2  314   2.319   4.679   0.575  0.0737 -0.1555 -0.3460
  117TIP3    H1  315   2.306   4.732   0.653  2.7023 -0.1855  0.1810
  117TIP3    H2  316   2.364   4.736   0.514  0.4770 -0.9526 -0.8080
  118TIP3   OH2  317   5.859   4.733   3.216 -0.3308  0.3894  0.0893
  118TIP3    H1  318   5.915   4.733   3.139 -0.7020 -0.2031 -0.1884
  118TIP3    H2  319   5.775   4.768   3.186 -1.0961 -1.6445 -0.2626
  119TIP3   OH2  320   3.185   3.208   0.324  0.2223 -0.3280 -0.9237
  119TIP3    H1  321   3.130   3.223   0.247 -1.1170  1.3021  0.2739
  119TIP3    H2  322   3.216   3.295   0.349  0.6197 -0.8184  0.3965
  120TIP3   OH2  323   3.076   5.241   5.468  0.0994  0.2041 -0.1190
  120TIP3    H1  324   3.126   5.298   5.409  0.7294  0.4420  0.6302
  120TIP3    H2  325   3.027   5.302   5.524  0.6193  0.0164  0.5495
  121TIP3   OH2  326   3.746   4.787   1.448 -0.6214  0.0012 -0.0130
  121TIP3    H1  327   3.748   4.812   1.356  0.3517 -0.7314 -0.2128
  121TIP3    H2  328   3.800   4.853   1.492 -0.5654 -0.0111 -0.0638
  122TIP3   OH2  329   3.301   0.835   2.889  0.5027 -0.2925 -0.0481
  122TIP3    H1  330   3.237   0.827   2.819  0.2710 -0.9018  0.2202
  122TIP3    H2  331   3.351   0.913   2.868  1.0209 -0.9510 -1.3664
  123TIP3   OH2  332   7.121   3.639   1.972  0.1629  0.0567  0.1620
  123TIP3    H1  333   7.142   3.729   1.945 -0.2983  0.4825  1.1702
  123TIP3    H2  334   7.194   3.586   1.939  1.0620  0.9828  0.6114
  124TIP3   OH2  335   4.068   6.521   3.125 -0.5524 -0.2030  0.0635
  124TIP3    H1  336   4.117   6.479   3.054  0.7262 -2.0220  1.9120
  124TIP3    H2  337   4.001   6.457   3.149 -1.4186  0.6818  0.0783
  125TIP3   OH2  338   3.324   2.749   5.012 -0.1130 -0.0606  0.6402
  125TIP3    H1  339   3.243   2.724   5.056  0.1640 -1.1516  0.5647
  125TIP3    H2  340   3.340   2.840   5.039 -1.5779  0.3238  0.3158
  126TIP3   OH2  341   4.653   3.927   4.602  0.0684  0.3859  0.2099
  126TIP3    H1  342   4.682   3.886   4.520 -1.2243  1.5065 -0.8780
  126TIP3    H2  343   4.576   3.979   4.576 -0.6150  0.4554  2.2269
  127TIP3   OH2  344   0.749   5.180   3.966  0.3720 -0.1993 -0.3846
  127TIP3    H1  345   0.726   5.231   4.044 -2.2403 -0.0153 -1.2039
  127TIP3    H2  346   0.845   5.179   3.967  0.5057  2.6274  1.0201
  128TIP3   OH2  347   0.957   5.362   3.323  0.2702  0.1765  0.2637
  128TIP3    H1  348   1.019   5.349   3.250  0.5513 -0.2905  0.5778
  128TIP3    H2  349   0.876   5.389   3.281  0.3471 -0.3752 -0.2516
  129TIP3   OH2  350   2.340   2.601   3.281  0.3185  0.3302  0.2003
  129TIP3    H1  351   2.315   2.574   3.369 -0.3757  1.5316  0.3940
  129TIP3    H2  352   2.429   2.634   3.290  0.1511  0.6984  0.5074
  130TIP3   OH2  353   2.678   1.840   5.584 -0.1840  0.3362  0.0741
  130TIP3    H1  354   2.702   1.819   5.493 -1.2640 -1.2335  0.0990
  130TIP3    H2  355   2.612   1.909   5.576 -1.3905 -0.8244 -0.4758
  131TIP3   OH2  356   2.821   6.454   4.553 -0.2093  0.2725 -0.1345
  131TIP3    H1  357   2.776   6.446   4.469  1.5627 -0.6659 -1.0347
  131TIP3    H2  358   2.829   6.548   4.567  1.3819  0.4976 -2.1291
  132TIP3   OH2  359   0.519   5.618   1.668 -0.0106  0.5146 -0.0926
  132TIP3    H1  360   0.563   5.567   1.736  0.8935  1.7125  0.2621
  132TIP3    H2  361   0.577   5.694   1.654 -1.3792  1.5270 -0.4704
  133TIP3   OH2  362   4.444   2.807   3.394  0.1340  0.0273  0.0731
  133TIP3    H1  363   4.442   2.819   3.488 -1.1967 -0.3285  0.1091
  133TIP3    H2  364   4.445   2.895   3.358 -0.9149  0.1887  0.4126
  134TIP3   OH2  365   5.345   1.944   4.750 -0.4170 -0.0718  0.1889
  134TIP3    H1  366   5.344   2.039   4.735 -2.5772 -0.2104 -1.0082
  134TIP3    H2  367   5.369   1.935   4.843  0.3184  1.6087  0.1957
  135TIP3   OH2  368   2.460   5.742   4.757 -0.2005 -0.5757  0.1410
  135TIP3    H1  369   2.500   5.656   4.774 -0.2316 -0.2079  2.2858
  135TIP3    H2  370   2.529   5.791   4.712  0.3272 -1.2582  0.1708
  136TIP3   OH2  371   6.949   3.961   5.733  0.0281  0.3655  0.3042
  136TIP3    H1  372   6.959   3.919   5.648 -0.2397  1.0999 -0.0999
  136TIP3    H2  373   7.015   3.920   5.788 -0.6255 -0.9971  0.0972
  137TIP3   OH2  374   6.427   3.589   5.578 -0.8482 -0.3945  0.4365
  137TIP3    H1  375   6.460   3.519   5.634  2.5512  0.8519  0.2651
  137TIP3    H2  376   6.412   3.662   5.638 -0.0325  0.0568  0.1045
  138TIP3   OH2  377   3.122   5.609   5.418 -0.2676  0.1656  0.2044
  138TIP3    H1  378   3.055   5.641   5.478 -0.7442 -0.1520 -0.1496
  138TIP3    H2  379   3.199   5.662   5.437 -0.2158 -0.3422  1.5242
  139TIP3   OH2  380   5.150   6.204   3.611  0.2081  0.0928  0.1523
  139TIP3    H1  381   5.206   6.264   3.661  3.1275 -0.7030 -1.9046
  139TIP3    H2  382   5.186   6.205   3.523 -2.2249 -1.6173 -0.9675
  140TIP3   OH2  383   0.974   6.006   5.799  0.0754 -0.2612 -0.1803
  140TIP3    H1  384   0.978   5.912   5.781 -2.6069 -0.8396  1.7577
  140TIP3    H2  385   1.054   6.024   5.849  0.3750 -1.5762 -0.1565
  141TIP3   OH2  386   4.962   0.049   5.162 -0.0754  0.4591  0.0565
  141TIP3    H1  387   4.961   0.142   5.138  2.3005 -0.0366 -2.4470
  141TIP3    H2  388   5.037   0.040   5.221  1.5610 -0.2415 -2.0134
  142TIP3   OH2  389   4.486   6.532   5.876 -0.0587 -0.4404 -0.4129
  142TIP3    H1  390   4.464   6.479   5.800  0.4768 -1.1950 -0.0543
  142TIP3    H2  391   4.418   6.511   5.940  0.0812 -0.6022 -0.3163
  143TIP3   OH2  392   1.428   1.195   0.247 -0.1876 -0.1292  0.4522
  143TIP3    H1  393   1.363   1.134   0.283  0.7551 -0.7438  1.1679
  143TIP3    H2  394   1.511   1.167   0.287  0.9339 -0.8243 -2.1558
  144TIP3   OH2  395   6.232   3.793   3.391 -0.4056  0.4078  0.6193
  144TIP3    H1  396   6.243   3.764   3.481  2.1001 -1.2246 -0.1104
  144TIP3    H2  397   6.303   3.856   3.377 -0.4563  0.2613 -0.3535
  145TIP3   OH2  398   1.781   4.377   2.908 -0.2907  0.3057 -0.1663
  145TIP3    H1  399   1.725   4.300   2.918  0.5195 -0.1039  1.4783
  145TIP3    H2  400   1.830   4.382   2.989  0.1996  2.1598 -0.5292
  146TIP3   OH2  401   6.536   5.554   4.164  0.4992  0.2374  0.0439
  146TIP3    H1  402   6.530   5.649   4.161 -0.6773  0.1761  0.1395
  146TIP3    H2  403   6.454   5.525   4.204 -0.4241 -0.9417 -2.4403
  147TIP3   OH2  404   6.065   0.263   0.686 -0.1211  0.2675 -0.0880
  147TIP3    H1  405   6.084   0.198   0.619 -0.0413  1.0062 -0.7872
  147TIP3    H2  406   6.113   0.342   0.659  0.0467  0.5327  0.9134
  148TIP3   OH2  407   6.480   4.807   4.714 -0.1834 -0.0217 -0.7872
  148TIP3    H1  408   6.385   4.802   4.723 -0.0148 -1.7478  0.7093
  148TIP3    H2  409   6.511   4.831   4.801  0.7521  0.8833 -1.3534
  149TIP3   OH2  410   6.045   3.938   3.607  0.7345 -0.4976  0.3703
  149TIP3    H1  411   5.955   3.958   3.584  0.5739 -0.1696  1.2260
  149TIP3    H2  412   6.043   3.847   3.638  1.0191 -1.0637 -1.2194
  150TIP3   OH2  413   1.226   6.450   2.998  0.0122  0.3105 -0.0697
  150TIP3    H1  414   1.147   6.496   3.029 -0.0692  0.6404 -0.7537
  150TIP3    H2  415   1.270   6.422   3.078 -1.0841 -0.3702  0.3300
  151TIP3   OH2  416   1.439   6.413   0.355  0.4089 -0.1524  0.0050
  151TIP3    H1  417   1.510   6.433   0.416 -0.5124  0.9506  0.7595
  151TIP3    H2  418   1.363   6.399   0.411 -0.0580 -0.9920 -0.8088
  152TIP3   OH2  419   2.296   4.145   3.666 -0.0878  0.3315  0.0233
  152TIP3    H1  420   2.216   4.092   3.670 -0.2972  0.6063 -0.4711
  152TIP3    H2  421   2.345   4.107   3.593 -0.6645  1.3978 -0.9473
  153TIP3   OH2  422   1.629   2.081   4.473  0.2219 -0.2167 -0.0016
  153TIP3    H1  423   1.698   2.122   4.525 -1.0949  2.1136  0.0588
  153TIP3    H2  424   1.671   2.004   4.434  3.0388  1.3990 -0.4712
  154TIP3   OH2  425   1.563   4.826   3.725  0.4494 -0.4819 -0.4099
  154TIP3    H1  426   1.514   4.879   3.788 -0.0395 -0.3339 -0.9042
  154TIP3    H2  427   1.654   4.852   3.737  0.2872  0.0062 -0.2005
  155TIP3   OH2  428   3.726   3.380   5.124  0.1496  0.3955  0.3535
  155TIP3    H1  429   3.735   3.352   5.215 -1.8798 -1.1023  0.1773
  155TIP3    H2  430   3.801   3.340   5.080 -0.7360 -1.9491  0.7926
  156TIP3   OH2  431   2.107   5.448   0.104  0.1040  0.3418  0.3864
  156TIP3    H1  432   2.150   5.533   0.089  0.3595 -0.1467 -2.0417
  156TIP3    H2  433   2.027   5.452   0.053  0.3460 -1.0402 -0.1399
  157TIP3   OH2  434   5.400   2.074   5.576 -0.2251  0.1853  0.7260
  157TIP3    H1  435   5.356   2.145   5.623 -1.9045 -1.4538  1.7914
  157TIP3    H2  436   5.453   2.118   5.509 -2.2030  2.3721  0.4817
  158TIP3   OH2  437   3.363   3.008   0.263 -0.2012 -0.3912 -0.2472
  158TIP3    H1  438   3.302   3.073   0.298 -1.1970 -0.6732 -1.3877
  158TIP3    H2  439   3.375   3.034   0.172 -0.0305 -1.3841 -0.5142
  159TIP3   OH2  440   5.419   2.204   1.383 -0.2036 -0.8897  0.3045
  159TIP3    H1  441   5.376   2.170   1.304 -2.3946  1.1150  0.5230
  159TIP3    H2  442   5.464   2.283   1.353 -1.6624  0.2996  1.1037
  160TIP3   OH2  443   3.767   2.977   2.204  0.1111  0.0782 -0.1335
  160TIP3    H1  444   3.773   2.889   2.166  2.0633 -0.1682  0.6419
  160TIP3    H2  445   3.687   2.975   2.256 -0.4023 -0.9079 -0.9232
  161TIP3   OH2  446   3.373   0.944   4.799 -0.3919  0.2328 -0.4384
  161TIP3    H1  447   3.361   1.015   4.736 -1.6470 -0.6025 -1.1912
  161TIP3    H2  448   3.339   0.866   4.754  0.5445 -0.7716  0.5237
  162TIP3   OH2  449   0.919   4.722   3.106  0.0721 -0.1172  0.6165
  162TIP3    H1  450   0.966   4.803   3.088  0.0059 -0.5427 -1.9015
  162TIP3    H2  451   0.852   4.747   3.169 -1.7207  2.5436 -2.0524
  163TIP3   OH2  452   1.980   1.025   1.944 -0.5909  0.1692  0.2065
  163TIP3    H1  453   2.066   1.027   1.987 -1.2459 -0.6055  1.6446
  163TIP3    H2  454   1.998   0.994   1.855  0.7281  1.0525  0.1297
  164TIP3   OH2  455   5.388   3.087   4.182  0.5960 -0.3206  0.1063
  164TIP3    H1  456   5.308   3.046   4.149  0.0937  1.9136 -1.6160
  164TIP3    H2  457   5.454   3.017   4.177 -0.5198 -1.3275 -1.4005
  165TIP3   OH2  458   1.036   4.141   4.211 -0.3727 -0.3228 -0.3699
  165TIP3    H1  459   1.095   4.215   4.217 -1.3155  0.4013  0.5213
  165TIP3    H2  460   1.052   4.091   4.291 -0.0039 -0.8781 -0.7872
  166TIP3   OH2  461   0.130   6.160   5.192 -0.6284  0.1925 -0.1972
  166TIP3    H1  462   0.174   6.152   5.277 -0.4253  1.6105 -0.1566
  166TIP3    H2  463   0.174   6.232   5.149 -2.8130  1.6075 -0.2025
  167TIP3   OH2  464   4.354   0.372   5.649 -1.1077  0.4087 -0.6153
  167TIP3    H1  465   4.330   0.303   5.588  0.6716  0.4584 -1.4426
  167TIP3    H2  466   4.408   0.329   5.715  1.0542  1.1479 -1.8194
  168TIP3   OH2  467   6.975   1.859   4.717 -0.2361  0.1563  0.0224
  168TIP3    H1  468   7.048   1.801   4.696  0.3813  1.6430 -2.3476
  168TIP3    H2  469   6.897   1.803   4.709  0.4440 -0.7430 -0.5790
  169TIP3   OH2  470   2.980   5.072   0.136 -0.0692 -0.6296  0.0878
  169TIP3    H1  471   2.953   5.128   0.208  0.3315  0.2611 -0.4309
  169TIP3    H2  472   2.906   5.013   0.122 -0.1016 -0.8990  1.2937
  170TIP3   OH2  473   4.849   3.883   5.687 -0.1951  0.6838  0.0907
  170TIP3    H1  474   4.817   3.898   5.598  1.0263  0.2194 -0.4579
  170TIP3    H2  475   4.772   3.893   5.743 -0.8928  1.4256 -0.9698
  171TIP3   OH2  476   6.321   6.432   2.301  0.2826 -0.4015  0.5725
  171TIP3    H1  477   6.413   6.460   2.304  1.1172 -2.6749 -0.8596
  171TIP3    H2  478   6.271   6.514   2.300  2.4742  1.1196 -2.9256
  172TIP3   OH2  479   0.142   0.542   4.311  0.0076  0.2231  0.3368
  172TIP3    H1  480   0.163   0.547   4.405 -0.7536 -0.9610  0.5946
  172TIP3    H2  481   0.047   0.550   4.307  0.0586  0.5705 -0.3715
  173TIP3   OH2  482   1.000   2.445   2.151  0.5490 -0.2268  0.0742
  173TIP3    H1  483   0.979   2.352   2.158 -4.7807  0.1923 -3.8742
  173TIP3    H2  484   0.959   2.485   2.227 -2.8066 -0.7511 -1.2920
  174TIP3   OH2  485   1.892   3.483   5.342  0.1295  0.4703  0.1064
  174TIP3    H1  486   1.908   3.411   5.403 -0.1020  0.2940 -0.0396
  174TIP3    H2  487   1.956   3.550   5.366 -0.5634  0.7818  1.1405
  175TIP3   OH2  488   1.940   1.547   3.420 -0.5358 -0.0421  0.3139
  175TIP3    H1  489   2.008   1.539   3.487 -0.1598  0.5556  0.0053
  175TIP3    H2  490   1.985   1.584   3.344 -1.3955  1.2320  0.4041
  176TIP3   OH2  491   4.500   2.679   3.156  0.3008 -0.0294  0.0618
  176TIP3    H1  492   4.486   2.585   3.159 -1.9996  0.2506 -0.2234
  176TIP3    H2  493   4.459   2.713   3.236  1.0404  0.7441  0.1338
  177TIP3   OH2  494   2.416   2.614   5.575 -0.5071  0.5173  0.1784
  177TIP3    H1  495   2.354   2.541   5.575 -0.0224  0.0931 -0.7602
  177TIP3    H2  496   2.486   2.587   5.634  1.7504 -1.6480 -3.1616
  178TIP3   OH2  497   2.257   3.927   3.459 -0.5285 -0.3549  0.1213
  178TIP3    H1  498   2.213   4.007   3.432  0.9338  0.3635 -0.2317
  178TIP3    H2  499   2.296   3.893   3.379  0.3596 -0.4402  0.5727
  179TIP3   OH2  500   3.586   4.766   5.158 -0.3458 -0.3445  0.1694
  179TIP3    H1  501   3.673   4.731   5.140 -0.5925 -1.6785  1.4251
  179TIP3    H2  502   3.600   4.837   5.220 -0.1188 -0.2417  0.0015
  180TIP3   OH2  503   5.453   2.847   1.614 -0.2605 -0.3555  0.6938
  180TIP3    H1  504   5.530   2.875   1.565 -0.1474 -1.5231  0.1654
  180TIP3    H2  505   5.473   2.757   1.640 -1.3018 -0.5472  0.8722
  181TIP3   OH2  506   2.984   5.706   5.644 -0.1332  0.0504 -0.3589
  181TIP3    H1  507   2.981   5.617   5.679  1.2895  0.1693  0.1439
  181TIP3    H2  508   2.900   5.718   5.600 -0.7467 -1.1808  0.4346
  182TIP3   OH2  509   2.504   4.696   2.924  0.0334 -0.1586 -0.8007
  182TIP3    H1  510   2.535   4.623   2.978  1.3263  2.2956  2.0565
  182TIP3    H2  511   2.572   4.708   2.858 -0.1323 -1.4187 -1.2177
  183TIP3   OH2  512   5.525   6.504   4.880 -0.3889 -0.2185  0.3034
  183TIP3    H1  513   5.499   6.527   4.969 -1.3349 -1.4537  0.3702
  183TIP3    H2  514   5.584   6.429   4.891 -0.1776 -0.1130 -0.0893
  184TIP3   OH2  515   6.570   0.076   0.151 -0.3487  0.6486  0.1856
  184TIP3    H1  516   6.647   0.062   0.205  0.0895  1.5276 -0.2019
  184TIP3    H2  517   6.596   0.048   0.064 -0.1854  1.7265 -0.1242
  185TIP3   OH2  518   2.120   4.975   1.190 -0.0391  0.4055 -0.1808
  185TIP3    H1  519   2.089   5.060   1.220 -0.9540  0.0177  0.0190
  185TIP3    H2  520   2.107   4.917   1.265 -0.8938 -0.2343 -0.8029
  186TIP3   OH2  521   5.449   4.947   4.785  0.1722 -0.2165 -0.3114
  186TIP3    H1  522   5.361   4.968   4.752 -0.7523 -0.6339  1.6634
  186TIP3    H2  523   5.447   4.852   4.798  1.5410 -0.4816 -1.7945
  187TIP3   OH2  524   1.298   5.021   5.169 -0.1305  0.6520  0.0155
  187TIP3    H1  525   1.289   5.105   5.124 -0.4417  0.4399 -0.3153
  187TIP3    H2  526   1.258   5.036   5.255 -2.0205  0.2817 -0.7447
  188TIP3   OH2  527   0.904   5.352   0.987  0.1065  0.1876 -0.0529
  188TIP3    H1  528   0.836   5.359   0.920 -0.3805 -1.8143  0.1597
  188TIP3    H2  529   0.977   5.308   0.942 -0.1012 -0.8732  0.6230
  189TIP3   OH2  530   3.296   4.586   5.131  0.4441 -1.2344  0.1180
  189TIP3    H1  531   3.371   4.630   5.092  0.6615 -1.1382  0.6303
  189TIP3    H2  532   3.219   4.633   5.099  0.4552 -2.5373 -2.0012
  190TIP3   OH2  533   5.636   4.405   1.412 -0.3523 -0.7136 -0.5674
  190TIP3    H1  534   5.594   4.407   1.498  0.2023  1.8588 -0.2821
  190TIP3    H2  535   5.709   4.344   1.423 -0.5948 -0.8197  0.6279
  191TIP3   OH2  536  -0.007   3.527   2.310  0.0675 -0.6298 -0.0896
  191TIP3    H1  537   0.037   3.446   2.334 -0.2903 -0.7391  0.1944
  191TIP3    H2  538   0.011   3.536   2.216  1.2058 -0.3526  0.1415
  192TIP3   OH2  539   6.205   5.990   5.135  0.0916 -0.5134  0.1686
  192TIP3    H1  540   6.116   5.970   5.107  0.1553 -1.7312  0.7549
  192TIP3    H2  541   6.194   6.051   5.208 -0.2390 -0.2854 -0.0720
  193TIP3   OH2  542   5.068   3.113   5.298 -0.2026  0.3561 -0.2992
  193TIP3    H1  543   5.070   3.169   5.376 -0.4580  0.2369 -0.2070
  193TIP3    H2  544   5.008   3.157   5.238  0.4357  0.7561 -0.6664
  194TIP3   OH2  545   2.917   1.919   2.494  0.3217 -0.1344  0.1167
  194TIP3    H1  546   2.916   1.977   2.418  1.5839 -0.0911  0.1132
  194TIP3    H2  547   2.827   1.922   2.528 -0.0937  0.3439 -0.9839
  195TIP3   OH2  548   6.187   5.084   4.259 -0.5699  0.2264  0.5392
  195TIP3    H1  549   6.200   5.115   4.349  0.8366  3.3660 -0.6081
  195TIP3    H2  550   6.275   5.062   4.229 -1.0415 -0.8568 -0.0662
  196TIP3   OH2  551   6.076   2.193   1.758  0.2358  0.6016 -0.2429
  196TIP3    H1  552   5.986   2.162   1.762  0.9401 -2.0609 -2.0347
  196TIP3    H2  553   6.115   2.164   1.840 -0.2019  0.6003 -0.0306
  197TIP3   OH2  554   3.397   5.164   4.241 -0.0028 -0.2565  0.5576
  197TIP3    H1  555   3.490   5.142   4.237  0.1165  0.2315  0.6370
  197TIP3    H2  556   3.394   5.251   4.281 -0.3713  0.5184 -1.0542
  198TIP3   OH2  557   2.430   2.778   1.507  0.0872  0.5632 -0.6072
  198TIP3    H1  558   2.435   2.852   1.567 -2.7249  0.3003  0.0858
  198TIP3    H2  559   2.464   2.813   1.424  2.5304  1.3904  0.6356
  199TIP3   OH2  560   5.281   1.566   5.835 -0.3943 -0.2978 -0.0608
  199TIP3    H1  561   5.370   1.594   5.855 -0.0369 -0.2264 -1.6073
  199TIP3    H2  562   5.290   1.474   5.811 -0.7376 -0.2964 -0.1951
  200TIP3   OH2  563   1.456   0.507   3.276 -0.0956 -0.5479 -0.2179
  200TIP3    H1  564   1.552   0.504   3.271  0.1382 -1.0519  2.7432
  200TIP3    H2  565   1.435   0.475   3.364 -3.0114 -0.4324 -0.7577
  201TIP3   OH2  566   6.961   5.732   3.774 -0.4433  0.2779  0.4324
  201TIP3    H1  567   6.970   5.685   3.857  1.9162  0.5077  0.3914
  201TIP3    H2  568   6.974   5.824   3.797  0.5299  0.3143 -0.2059
  202TIP3   OH2  569   6.483   1.238   5.594 -0.0451 -0.5007  0.1396
  202TIP3    H1  570   6.472   1.236   5.499 -0.7941 -0.1296  0.2100
  202TIP3    H2  571   6.470   1.147   5.622 -1.4514 -0.3592  0.0398
  203TIP3   OH2  572   4.107   3.386   2.044 -0.2004  0.3563 -0.3109
  203TIP3    H1  573   4.018   3.422   2.035  0.3019  1.6874 -0.1777
  203TIP3    H2  574   4.158   3.432   1.978  0.7666  0.9091  0.7868
  204TIP3   OH2  575   2.633   5.293   0.059  0.3063  0.3587 -0.2102
  204TIP3    H1  576   2.545   5.303   0.096  0.2930 -0.1009 -0.1142
  204TIP3    H2  577   2.619   5.274  -0.034  0.3385  1.4685 -0.4505
  205TIP3   OH2  578   0.547   1.712   2.839 -0.0424 -0.1114 -0.0369
  205TIP3    H1  579   0.478   1.654   2.870 -1.6819  1.4487 -0.6161
  205TIP3    H2  580   0.518   1.739   2.752  1.8244 -0.2141 -0.7275
  206TIP3   OH2  581   1.094   1.799   2.029 -0.2341  0.4508 -0.2998
  206TIP3    H1  582   1.033   1.757   1.969  0.2528 -0.0096 -0.4796
  206TIP3    H2  583   1.177   1.799   1.982  1.0103 -2.9180  1.5844
  207TIP3   OH2  584   3.074   1.516   1.919  0.1388  0.0324  0.1523
  207TIP3    H1  585   3.100   1.440   1.972 -1.2874 -0.9103 -0.4290
  207TIP3    H2  586   3.148   1.532   1.861  1.7181  1.0250  2.2766
  208TIP3   OH2  587   6.466   1.801   4.310 -0.1441 -0.1589  0.5689
  208TIP3    H1  588   6.410   1.869   4.273 -0.1045 -0.4402 -0.0313
  208TIP3    H2  589   6.406   1.743   4.356 -0.6599 -1.4786 -1.5847
  209TIP3   OH2  590   1.978   1.079   5.617  0.3107 -0.2321  0.0087
  209TIP3    H1  591   1.959   1.170   5.641 -2.9890 -0.7066 -0.2431
  209TIP3    H2  592   1.995   1.035   5.700 -1.9409 -0.0575  0.6385
  210TIP3   OH2  593   0.144   0.054   4.642 -0.4014 -0.1992  0.3395
  210TIP3    H1  594   0.093   0.114   4.588  0.3416  0.4882  0.3965
  210TIP3    H2  595   0.221   0.104   4.668 -0.0615 -0.9848  0.8751
  211TIP3   OH2  596   4.165   1.762   4.325  0.4308 -0.2404 -0.2316
  211TIP3    H1  597   4.131   1.710   4.253  0.5011  0.1981 -0.5838
  211TIP3    H2  598   4.087   1.783   4.378  0.6249 -2.2611  0.9623
  212TIP3   OH2  599   2.040   6.621   1.416  0.1227 -0.3296  0.6147
  212TIP3    H1  600   1.991   6.550   1.456 -1.4253  0.4080  0.0860
  212TIP3    H2  601   2.049   6.686   1.485  0.5295 -0.5374  0.7618
  213TIP3   OH2  602   5.875   1.651   4.574 -0.3653  0.2698 -0.3258
  213TIP3    H1  603   5.836   1.574   4.614 -1.8460  1.2606  0.2563
  213TIP3    H2  604   5.803   1.690   4.523  0.2902  1.3291 -0.4716
  214TIP3   OH2  605   6.077   4.344   1.782 -0.8395  0.3198 -0.2827
  214TIP3    H1  606   6.149   4.281   1.772  0.6190  1.8236  0.3582
  214TIP3    H2  607   6.108   4.423   1.739 -1.0220  1.8151  2.1885
  215TIP3   OH2  608   4.645   3.060   4.075 -0.2904  0.1697  0.6982
  215TIP3    H1  609   4.694   3.137   4.048 -0.8927 -0.1001 -1.2490
  215TIP3    H2  610   4.710   2.989   4.075 -0.2924  0.1676 -0.0945
  216TIP3   OH2  611   6.087   0.925   4.376 -0.3030  0.0774  0.0468
  216TIP3    H1  612   6.099   1.020   4.373 -0.6294  0.1121 -0.3909
  216TIP3    H2  613   6.017   0.912   4.440 -0.5757  0.1716 -0.2273
  217TIP3   OH2  614   3.138   2.103   5.742  0.1464 -0.5243 -0.3490
  217TIP3    H1  615   3.232   2.096   5.722  0.0858 -0.2295 -0.7544
  217TIP3    H2  616   3.107   2.013   5.743  0.9228 -0.8339  2.2530
  218TIP3   OH2  617   3.793   2.050   3.378  0.3923 -0.1835 -0.3395
  218TIP3    H1  618   3.736   2.041   3.302 -0.8473  0.3860  0.5006
  218TIP3    H2  619   3.801   2.145   3.392  1.4543 -0.2516 -0.3647
  219TIP3   OH2  620   3.894   5.736   2.292 -0.1588 -0.7246 -0.4344
  219TIP3    H1  621   3.856   5.757   2.377 -0.1763  0.8525 -0.7898
  219TIP3    H2  622   3.926   5.646   2.300  0.4979 -0.3594  1.4760
  220TIP3   OH2  623   1.539   5.596   3.639  0.2002  0.2291 -0.6568
  220TIP3    H1  624   1.547   5.684   3.677 -1.4408  1.3304 -2.6462
  220TIP3    H2  625   1.609   5.593   3.573  0.1687  0.1152 -0.6840
  221TIP3   OH2  626   2.038   1.978   4.088  0.3533  0.2512  0.2685
  221TIP3    H1  627   1.958   1.989   4.140  0.8819  1.6496  0.8559
  221TIP3    H2  628   2.050   2.063   4.045  1.2335 -0.1112 -0.2212
  222TIP3   OH2  629   1.770   1.867   5.267  0.5176 -0.5748  0.3081
  222TIP3    H1  630   1.735   1.901   5.185  1.2153  0.7697  0.5492
  222TIP3    H2  631   1.781   1.773   5.251 -0.8737 -0.6093 -0.5717
  223TIP3   OH2  632   7.011   6.536   3.944  0.2187  0.0145 -0.1363
  223TIP3    H1  633   7.095   6.524   3.989  0.7401 -1.4019 -1.3842
  223TIP3    H2  634   6.967   6.605   3.993  0.9265 -1.1133  2.2605
  224TIP3   OH2  635   1.531   0.332   0.246 -0.1467  0.1070 -0.2824
  224TIP3    H1  636   1.513   0.336   0.340  0.3812 -2.0013 -0.0351
  224TIP3    H2  637   1.446   0.320   0.205 -0.3504  0.7617 -0.0546
  225TIP3   OH2  638   3.517   1.881   3.379 -0.4983  0.1638 -0.3745
  225TIP3    H1  639   3.512   1.972   3.408 -0.6264  0.8038 -2.2938
  225TIP3    H2  640   3.549   1.886   3.289 -1.2821 -1.6367 -0.7889
  226TIP3   OH2  641   5.260   1.005   4.523 -0.7263 -0.0178  0.0345
  226TIP3    H1  642   5.176   0.980   4.562 -0.5403 -0.2380  0.3002
  226TIP3    H2  643   5.302   0.921   4.501 -0.9285  0.1074 -0.8578
  227TIP3   OH2  644   5.574   0.367   5.768 -0.4146 -0.1021 -0.0375
  227TIP3    H1  645   5.548   0.332   5.853 -0.3024  0.4162  0.2183
  227TIP3    H2  646   5.669   0.372   5.772 -0.1651 -2.7130 -1.2596
  228TIP3   OH2  647   1.388   0.067   4.290  0.6197  0.6150  0.2271
  228TIP3    H1  648   1.473   0.044   4.328  1.5056  2.1574 -0.6814
  228TIP3    H2  649   1.372   0.156   4.321  0.5062  1.2342 -1.4552
  229TIP3   OH2  650   5.312   2.546   0.936 -0.1441 -0.2491 -0.5128
  229TIP3    H1  651   5.253   2.564   1.009  0.1385 -1.2962  0.0096
  229TIP3    H2  652   5.399   2.542   0.976  0.1973  0.5645 -1.1502
  230TIP3   OH2  653   3.640   1.624   2.064  0.5946 -0.3300 -0.0805
  230TIP3    H1  654   3.623   1.532   2.084  2.8429 -0.5734  1.0631
  230TIP3    H2  655   3.594   1.672   2.133  2.7980 -0.8603  1.8577
  231TIP3   OH2  656   2.948   3.279   1.000  0.2922  0.5266  0.3157
  231TIP3    H1  657   2.970   3.370   1.015 -0.0881  0.4547  1.4047
  231TIP3    H2  658   2.876   3.261   1.061 -0.4206 -0.1829 -0.6966
  232TIP3   OH2  659   6.433   6.086   2.829 -0.3858 -0.3711 -0.7771
  232TIP3    H1  660   6.428   6.071   2.924  0.5918 -0.4291 -0.7212
  232TIP3    H2  661   6.345   6.066   2.797 -0.8842  0.1771  0.1902
  233TIP3   OH2  662   4.151   1.441   2.611 -0.0263  0.3486 -0.0868
  233TIP3    H1  663   4.198   1.465   2.531  1.9486  1.2671  1.2844
  233TIP3    H2  664   4.187   1.356   2.636 -0.2655  0.3044  0.1171
  234TIP3   OH2  665   2.296   1.248   3.115 -0.2896 -0.6681  0.5941
  234TIP3    H1  666   2.285   1.197   3.195 -1.3079  0.2420  1.0588
  234TIP3    H2  667   2.390   1.268   3.111 -0.0486 -1.7104  0.9268
  235TIP3   OH2  668   3.643   5.891   1.777 -0.6017 -0.1766  0.9249
  235TIP3    H1  669   3.706   5.855   1.841 -0.9423  1.0671  1.9998
  235TIP3    H2  670   3.697   5.918   1.703  0.1055  0.4475  1.6432
  236TIP3   OH2  671   2.562   4.190   3.882  0.1834  0.7582 -0.6552
  236TIP3    H1  672   2.498   4.209   3.951  0.7874 -0.8401  0.4047
  236TIP3    H2  673   2.509   4.172   3.805 -0.8450 -2.1298  0.5873
  237TIP3   OH2  674   1.881   5.560   3.322  0.2603 -0.3326 -0.4644
  237TIP3    H1  675   1.804   5.526   3.277  0.5223 -0.8504 -0.5379
  237TIP3    H2  676   1.929   5.481   3.350 -0.4087 -0.0513  1.6304
  238TIP3   OH2  677   3.646   4.593   4.873  0.1461  0.4809 -0.4841
  238TIP3    H1  678   3.660   4.530   4.802  3.8109  1.1419 -0.5628
  238TIP3    H2  679   3.631   4.540   4.950 -2.1026 -0.2767 -1.3554
  239TIP3   OH2  680   0.208   4.034   4.887 -0.1486  0.3849  0.1741
  239TIP3    H1  681   0.204   4.130   4.891 -2.4934  0.3902 -0.7627
  239TIP3    H2  682   0.183   4.013   4.798  0.4883 -1.1188  0.3312
  240TIP3   OH2  683   5.346   3.549   2.712  0.0961 -0.2484 -0.2510
  240TIP3    H1  684   5.365   3.470   2.661 -1.2118 -1.8945  1.6706
  240TIP3    H2  685   5.317   3.612   2.647  3.2073 -0.5374 -2.1452
  241TIP3   OH2  686   0.564   0.226   0.224  0.2324  0.1277 -0.0473
  241TIP3    H1  687   0.650   0.268   0.221  0.5348 -0.5006 -0.4590
  241TIP3    H2  688   0.573   0.158   0.291 -0.1763  0.5376  0.4358
  242TIP3   OH2  689   3.428   0.772   3.904  0.0721  0.3788 -0.3386
  242TIP3    H1  690   3.358   0.745   3.962 -0.2438  0.1304 -0.8336
  242TIP3    H2  691   3.453   0.693   3.857 -0.2426  0.7421 -1.1400
  243TIP3   OH2  692   5.979   4.325   2.827  0.4201 -0.3151  0.1661
  243TIP3    H1  693   5.978   4.233   2.853 -1.2180  0.0491  1.5347
  243TIP3    H2  694   6.034   4.368   2.893  0.8543 -0.2299 -0.2421
  244TIP3   OH2  695   6.304   5.386   4.180 -0.6893  0.2702  0.0597
  244TIP3    H1  696   6.246   5.349   4.246  0.9875  0.0000  1.4362
  244TIP3    H2  697   6.245   5.428   4.117 -2.3721 -0.2398  1.2344
  245TIP3   OH2  698   5.454   5.436   4.033 -0.2337 -0.4234 -0.0016
  245TIP3    H1  699   5.544   5.417   4.061  0.4607 -0.7313 -2.1995
  245TIP3    H2  700   5.400   5.370   4.076  0.8776 -1.5138 -0.2326
  246TIP3   OH2  701   4.305   5.107   3.789 -0.0414 -0.0739 -0.0853
  246TIP3    H1  702   4.222   5.066   3.764 -0.3112 -0.4119  1.2951
  246TIP3    H2  703   4.280   5.187   3.835  0.1087 -1.9864  3.8002
  247TIP3   OH2  704   5.747   5.835   5.498  0.1592 -0.5244  0.0506
  247TIP3    H1  705   5.680   5.834   5.430 -1.2041  1.9679  1.2075
  247TIP3    H2  706   5.799   5.913   5.478  0.9728 -0.8776  0.7639
  248TIP3   OH2  707   6.550   6.498   4.131  0.1260 -0.1670  0.8985
  248TIP3    H1  708   6.532   6.481   4.039 -0.8238 -0.4802  1.1351
  248TIP3    H2  709   6.642   6.476   4.142 -0.3431 -2.4883  0.5542
  249TIP3   OH2  710   5.778   5.518   4.935  0.5657  0.2339  0.1060
  249TIP3    H1  711   5.836   5.473   4.874  3.4086  1.8563  1.4414
  249TIP3    H2  712   5.720   5.449   4.968  0.4112 -1.0917 -2.6943
  250TIP3   OH2  713   1.817   1.110   3.782 -0.1317 -0.6506 -0.1740
  250TIP3    H1  714   1.882   1.115   3.711 -1.0137 -1.8769 -1.1187
  250TIP3    H2  715   1.855   1.047   3.844 -0.2332 -1.0716 -0.5339
  251TIP3   OH2  716   5.197   5.784   1.595 -0.4297 -0.3147  1.2105
  251TIP3    H1  717   5.189   5.877   1.574  0.1945 -0.7071 -1.0850
  251TIP3    H2  718   5.231   5.782   1.684  2.3080  1.7680  0.3487
  252TIP3   OH2  719   2.953   4.225   0.253 -0.2062 -0.6081 -0.5105
  252TIP3    H1  720   2.921   4.273   0.330  0.9638  1.0611 -1.0101
  252TIP3    H2  721   2.948   4.133   0.279  1.0687 -0.0778  1.9614
  253TIP3   OH2  722   4.483   5.023   5.294  0.0899  0.1902  0.0477
  253TIP3    H1  723   4.447   5.050   5.209  0.1220  0.7043  0.1914
  253TIP3    H2  724   4.577   5.034   5.284  0.0487  0.8728  0.3560
  254TIP3   OH2  725   3.948   2.681   2.433 -0.2549 -0.7305  0.0696
  254TIP3    H1  726   3.972   2.643   2.348  0.2669 -0.8964  0.2871
  254TIP3    H2  727   4.028   2.674   2.486  0.1308  1.4150 -0.1357
  255TIP3   OH2  728   2.758   1.141   2.795  0.3696  0.1685  0.0735
  255TIP3    H1  729   2.710   1.091   2.860  0.8819  0.7133  0.8836
  255TIP3    H2  730   2.804   1.208   2.845 -0.0186  1.2305 -0.9495
  256TIP3   OH2  731   3.474   2.019   3.721  0.0584  0.4658 -0.9651
  256TIP3    H1  732   3.420   2.014   3.642 -0.5226  1.1298 -0.6129
  256TIP3    H2  733   3.544   1.955   3.705  1.0323  1.8844 -2.8429
  257TIP3   OH2  734   3.578   0.309   1.695  0.1111  0.1881  0.1589
  257TIP3    H1  735   3.535   0.223   1.697  0.5060 -0.1480 -2.1704
  257TIP3    H2  736   3.663   0.291   1.656 -0.0342  1.7183 -0.9323
  258TIP3   OH2  737   4.547   1.350   1.012  0.1715 -0.1553 -0.0497
  258TIP3    H1  738   4.555   1.307   0.927 -0.5855  0.6843 -0.5625
  258TIP3    H2  739   4.532   1.442   0.991  2.0806  0.4541  1.0191
  259TIP3   OH2  740   7.073   3.262   4.439  0.0074 -0.1781  0.2910
  259TIP3    H1  741   7.111   3.191   4.387 -1.3957 -1.4923  0.9561
  259TIP3    H2  742   7.055   3.331   4.375  1.9470 -0.1522 -0.2771
  260TIP3   OH2  743   2.082   3.345   0.268 -0.1295  0.1598 -0.3819
  260TIP3    H1  744   2.141   3.273   0.289  3.7977  3.0860 -0.2823
  260TIP3    H2  745   2.100   3.366   0.176 -0.2323  1.7591 -0.0665
  261TIP3   OH2  746   5.184   2.885   2.416 -0.1746 -0.4474  0.0209
  261TIP3    H1  747   5.219   2.901   2.329  0.9244 -0.1652  0.4952
  261TIP3    H2  748   5.127   2.960   2.433 -1.3061 -1.0783 -0.8956
  262TIP3   OH2  749   6.772   1.249   1.039 -0.3626 -0.0477  0.3461
  262TIP3    H1  750   6.811   1.206   1.116 -1.1423  0.6806  1.1602
  262TIP3    H2  751   6.782   1.184   0.969 -1.9326 -1.8012  1.6478
  263TIP3   OH2  752   2.046   5.075   0.951 -0.0223 -0.2061  0.3670
  263TIP3    H1  753   2.087   5.014   1.012  0.8020  0.9175  0.9920
  263TIP3    H2  754   2.067   5.162   0.987 -0.2102  0.4672 -1.0718
  264TIP3   OH2  755   6.646   6.237   0.975  0.2096 -0.2485  0.0588
  264TIP3    H1  756   6.735   6.254   0.946  0.0881 -1.2271 -0.9442
  264TIP3    H2  757   6.653   6.159   1.031 -0.0404 -0.4927 -0.2429
  265TIP3   OH2  758   6.880   3.227   3.524  0.4493  0.4697  0.3172
  265TIP3    H1  759   6.929   3.225   3.442 -1.6513 -0.4156 -0.9807
  265TIP3    H2  760   6.855   3.136   3.541 -0.0827  0.7842  1.3414
  266TIP3   OH2  761   4.663   1.112   3.582  0.1620  0.1868  0.4641
  266TIP3    H1  762   4.618   1.197   3.582 -1.3438 -0.5806  0.5225
  266TIP3    H2  763   4.673   1.090   3.489  1.0517  0.6559  0.4342
  267TIP3   OH2  764   0.459   5.842   3.321  0.7524 -0.8868 -0.0073
  267TIP3    H1  765   0.517   5.916   3.303  1.0680 -0.7366  1.5113
  267TIP3    H2  766   0.505   5.766   3.285  2.4204 -0.9149  2.0174
  268TIP3   OH2  767   0.907   3.305   1.204 -0.6365  0.6732 -0.2398
  268TIP3    H1  768   0.830   3.269   1.249 -0.3319  0.3279  0.0177
  268TIP3    H2  769   0.880   3.313   1.113 -0.6593 -0.4351 -0.3534
  269TIP3   OH2  770   1.116   3.860   0.657  0.0018 -0.0008  0.7031
  269TIP3    H1  771   1.097   3.881   0.748 -0.2129 -0.0349  0.6677
  269TIP3    H2  772   1.080   3.772   0.644  0.1525 -0.0522  0.6232
  270TIP3   OH2  773   3.700   6.467   2.852  0.4899  0.1783  0.2742
  270TIP3    H1  774   3.762   6.448   2.782  0.0928 -3.0453  0.6840
  270TIP3    H2  775   3.750   6.454   2.933 -0.2301 -0.6996  0.5909
  271TIP3   OH2  776   0.962   5.341   4.336 -0.4662  0.0938  0.4749
  271TIP3    H1  777   0.916   5.257   4.331 -1.8614  0.7010  2.0786
  271TIP3    H2  778   0.926   5.392   4.263 -1.2566  0.0437  0.8212
  272TIP3   OH2  779   0.912   6.572   5.541  0.7379 -0.1523 -0.2739
  272TIP3    H1  780   0.843   6.567   5.476  2.0986 -1.2823 -1.7133
  272TIP3    H2  781   0.867   6.573   5.626 -1.1019  1.9016 -1.1911
  273TIP3   OH2  782   6.778   0.022   2.568 -0.1023  0.2301  0.3374
  273TIP3    H1  783   6.699  -0.011   2.610  0.9301  0.7393  2.9277
  273TIP3    H2  784   6.748   0.071   2.492 -1.9536 -2.9154 -1.1639
  274TIP3   OH2  785   5.507   5.641   4.557 -0.2632 -0.3735  0.2703
  274TIP3    H1  786   5.599   5.621   4.540 -0.1528 -1.4820  1.9535
  274TIP3    H2  787   5.496   5.731   4.527  1.6857  0.2063  1.1413
  275TIP3   OH2  788   4.812   3.574   0.461  0.1232  0.1175 -0.1062
  275TIP3    H1  789   4.734   3.519   0.451  0.2424 -0.5579  2.1402
  275TIP3    H2  790   4.784   3.660   0.430 -1.8549  0.1281  1.5035
  276TIP3   OH2  791   3.448   5.260   1.408  0.2817 -0.2225 -0.3837
  276TIP3    H1  792   3.412   5.348   1.399  2.2779  0.5489 -1.6502
  276TIP3    H2  793   3.380   5.211   1.454 -1.8141  1.3793 -1.5731
  277TIP3   OH2  794   0.242   1.457   0.409  0.1159  0.0353  0.4349
  277TIP3    H1  795   0.256   1.440   0.316  1.0161  0.1192  0.5439
  277TIP3    H2  796   0.329   1.449   0.448 -0.6546 -3.0410  1.8002
  278TIP3   OH2  797   7.173   4.783   4.541  0.2329 -0.7141  0.0631
  278TIP3    H1  798   7.248   4.809   4.487 -0.7854  1.9327 -0.1889
  278TIP3    H2  799   7.124   4.721   4.487  1.9568 -2.1946  0.0848
  279TIP3   OH2  800   2.151   5.357   5.555 -0.0033  0.0257  0.1896
  279TIP3    H1  801   2.143   5.432   5.614  0.1795 -0.9800  1.5354
  279TIP3    H2  802   2.087   5.375   5.485  0.3887  1.6503  0.2085
  280TIP3   OH2  803   6.822   5.669   1.494  0.0133  0.4730 -0.0386
  280TIP3    H1  804   6.830   5.602   1.426 -0.1054 -0.9182  1.2736
  280TIP3    H2  805   6.730   5.694   1.492 -0.3416 -0.7038  0.6158
  281TIP3   OH2  806   4.208   3.558   1.415 -0.0221 -0.2235 -0.0922
  281TIP3    H1  807   4.121   3.576   1.381  0.4045 -1.1337 -1.7816
  281TIP3    H2  808   4.234   3.475   1.374  1.6135 -0.0045  0.3942
  282TIP3   OH2  809   0.798   0.777   5.128 -0.1571 -0.2911 -0.1849
  282TIP3    H1  810   0.852   0.831   5.185  0.1480 -1.1580  0.3614
  282TIP3    H2  811   0.785   0.831   5.050  0.6271  0.3344  0.0994
  283TIP3   OH2  812   5.054   5.668   5.372 -0.0991  0.2985 -0.2381
  283TIP3    H1  813   5.113   5.598   5.399  0.9759  0.5709 -1.7545
  283TIP3    H2  814   4.976   5.655   5.425  0.1820 -1.8571 -0.2597
  284TIP3   OH2  815   1.487   5.792   0.073  0.0879 -0.4881 -0.0077
  284TIP3    H1  816   1.553   5.722   0.075  1.4797  0.7316 -1.0308
  284TIP3    H2  817   1.470   5.806  -0.019  1.6510  2.0811 -0.0034
  285TIP3   OH2  818   4.770   1.278   3.304  0.2807  0.6213 -0.3012
  285TIP3    H1  819   4.755   1.184   3.317  1.1585  0.3129 -1.4020
  285TIP3    H2  820   4.687   1.310   3.268  0.2266  0.1144 -0.6402
  286TIP3   OH2  821   1.306   3.326   2.281  0.1560 -0.4866  0.2993
  286TIP3    H1  822   1.234   3.387   2.265  0.0121 -0.7639 -0.1275
  286TIP3    H2  823   1.263   3.241   2.294  0.3755 -0.5576  0.5640
  287TIP3   OH2  824   2.317   4.669   2.363  0.2511  0.3812  0.0935
  287TIP3    H1  825   2.297   4.713   2.280 -0.6072  0.4763  0.3431
  287TIP3    H2  826   2.280   4.726   2.430  1.5885  0.6695  0.5969
  288TIP3   OH2  827   6.437   4.716   0.757 -0.6850 -0.5019 -0.3422
  288TIP3    H1  828   6.531   4.714   0.773 -0.3027  0.1736 -2.2501
  288TIP3    H2  829   6.398   4.690   0.840  1.1896 -1.2179  0.3662
  289TIP3   OH2  830   3.189   6.468   5.720  0.1588  0.3976 -0.4707
  289TIP3    H1  831   3.211   6.532   5.787  1.4504 -1.4583  0.9681
  289TIP3    H2  832   3.110   6.426   5.752 -0.3501  0.8473 -1.1184
  290TIP3   OH2  833   0.235   2.281   2.350  0.0986 -0.0285 -0.7181
  290TIP3    H1  834   0.197   2.369   2.344 -2.0050 -0.6408  1.6341
  290TIP3    H2  835   0.314   2.293   2.403 -0.9383  0.3103  0.8115
  291TIP3   OH2  836   2.560   1.123   3.389  0.2613 -1.0217 -0.3616
  291TIP3    H1  837   2.603   1.153   3.309 -0.3671 -0.4189 -0.4882
  291TIP3    H2  838   2.592   1.183   3.457 -1.5134  0.4549 -0.7374
  292TIP3   OH2  839   7.167   4.488   0.161  0.1959  0.4431  0.2371
  292TIP3    H1  840   7.151   4.427   0.233 -0.8347  0.2879 -0.1014
  292TIP3    H2  841   7.151   4.575   0.199 -1.7696  0.2818 -0.1352
  293TIP3   OH2  842   5.578   5.265   5.396  0.2483 -0.0268  0.7159
  293TIP3    H1  843   5.593   5.353   5.431  0.9258  0.6905 -1.2587
  293TIP3    H2  844   5.661   5.219   5.410  0.6799  0.4107 -0.3018
  294TIP3   OH2  845   1.999   0.881   5.822 -0.1035 -0.3281 -0.5308
  294TIP3    H1  846   2.018   0.804   5.875  0.6491  0.7647  0.8609
  294TIP3    H2  847   1.928   0.926   5.868  1.4685  1.3528  0.3911
  295TIP3   OH2  848   3.334   4.224   4.540 -0.6664  0.5366  0.0800
  295TIP3    H1  849   3.313   4.231   4.633  0.4683  0.9248  0.3168
  295TIP3    H2  850   3.393   4.149   4.534 -0.3030  0.8477 -0.2499
  296TIP3   OH2  851   5.310   4.547   4.152 -0.5693  0.3988  0.1622
  296TIP3    H1  852   5.328   4.524   4.243  1.6534  1.5839  0.1029
  296TIP3    H2  853   5.276   4.636   4.155  1.4507  1.2602 -0.1902
  297TIP3   OH2  854   3.850   0.007   0.472  0.4808  0.2823 -0.2577
  297TIP3    H1  855   3.797   0.072   0.519  0.1666 -0.8304  0.9798
  297TIP3    H2  856   3.911  -0.026   0.538  0.2817 -1.0497 -0.7125
  298TIP3   OH2  857   7.207   3.892   3.007 -0.2898  0.3816  0.2180
  298TIP3    H1  858   7.138   3.914   3.069 -0.4622  0.1865  0.0973
  298TIP3    H2  859   7.198   3.957   2.937 -2.2811 -1.3674 -1.2968
  299TIP3   OH2  860   2.199   6.092   4.976 -0.4485 -0.9294 -0.3589
  299TIP3    H1  861   2.118   6.125   5.014 -1.3922 -1.7086 -1.6007
  299TIP3    H2  862   2.213   6.147   4.898  0.1493 -0.8796 -0.2183
  300TIP3   OH2  863   5.827   1.106   4.316  0.4823  0.3032 -0.8813
  300TIP3    H1  864   5.745   1.078   4.357 -0.3671  2.0801 -1.2440
  300TIP3    H2  865   5.828   1.201   4.330  3.5061  0.1402  0.9269
  301TIP3   OH2  866   6.859   1.456   3.975  0.1226  0.1296 -0.1522
  301TIP3    H1  867   6.873   1.403   4.054 -0.8195  0.6339  0.3836
  301TIP3    H2  868   6.918   1.419   3.910 -0.2029 -1.2950  0.3268
  302TIP3   OH2  869   6.652   5.974   3.741 -0.0308  0.4130 -0.2012
  302TIP3    H1  870   6.701   6.026   3.677 -0.6093 -0.0991 -1.0771
  302TIP3    H2  871   6.690   5.886   3.736 -1.4556 -0.1730 -1.3974
  303TIP3   OH2  872   5.315   1.837   2.398  0.0249  0.1077  0.0623
  303TIP3    H1  873   5.220   1.836   2.410 -0.3283 -0.8410 -2.1673
  303TIP3    H2  874   5.336   1.927   2.374  0.1015  0.9009  2.8507
  304TIP3   OH2  875   2.265   3.111   3.663  0.1417 -0.7866  0.2266
  304TIP3    H1  876   2.218   3.129   3.581 -0.6948 -0.4647  0.7719
  304TIP3    H2  877   2.309   3.193   3.684  1.5216 -1.2639 -0.6191
  305TIP3   OH2  878   3.925   6.478   1.901 -0.4665  0.6226  0.0714
  305TIP3    H1  879   3.887   6.532   1.970 -1.0285 -0.1404  0.3839
  305TIP3    H2  880   3.967   6.406   1.948  0.6238  0.9959 -0.3186
  306TIP3   OH2  881   2.533   1.699   5.064 -0.3816 -0.2824  0.2626
  306TIP3    H1  882   2.603   1.685   5.001  0.6064 -0.8904  1.4788
  306TIP3    H2  883   2.453   1.681   5.014  0.1965  1.3464 -1.4177
  307TIP3   OH2  884   0.176   1.244   0.689  0.1474 -0.0339  0.1732
  307TIP3    H1  885   0.246   1.232   0.624  0.6704  1.9179  0.3001
  307TIP3    H2  886   0.111   1.299   0.644  0.4967  1.3130  1.2372
  308TIP3   OH2  887   1.082   3.256   4.112 -0.1337 -0.2522  0.0217
  308TIP3    H1  888   1.046   3.297   4.033 -1.7533  2.1659  1.8788
  308TIP3    H2  889   1.176   3.268   4.104 -0.4095  2.0964 -0.5039
  309TIP3   OH2  890   4.439   3.885   5.112  0.1835 -0.1894 -0.2164
  309TIP3    H1  891   4.355   3.925   5.089 -0.6630 -1.9605 -0.4477
  309TIP3    H2  892   4.481   3.869   5.027  1.0609  1.2572 -0.0741
  310TIP3   OH2  893   5.154   6.061   2.806 -0.4896  0.1947  0.2283
  310TIP3    H1  894   5.150   6.097   2.718 -1.1046  1.9975  0.9347
  310TIP3    H2  895   5.125   5.971   2.797 -2.7390  0.9658 -1.1056
  311TIP3   OH2  896   6.414   2.746   3.466  0.4459  0.0997 -0.0489
  311TIP3    H1  897   6.497   2.697   3.467 -0.2377 -1.4429 -3.2850
  311TIP3    H2  898   6.349   2.681   3.439 -1.3791  1.8305 -0.0088
  312TIP3   OH2  899   6.091   0.110   2.522  0.4116  0.2248 -0.5134
  312TIP3    H1  900   6.006   0.101   2.481  0.3169 -0.1343 -0.2447
  312TIP3    H2  901   6.080   0.181   2.585  0.6510  1.0106 -1.3347
  313TIP3   OH2  902   5.266   2.025   2.104  0.7683  0.0977 -0.7028
  313TIP3    H1  903   5.189   2.081   2.107  0.5006 -0.2963 -0.1098
  313TIP3    H2  904   5.305   2.032   2.191  0.1469 -1.4312 -0.2683
  314TIP3   OH2  905   3.276   0.819   2.152  0.3067 -0.3953  0.3136
  314TIP3    H1  906   3.294   0.868   2.071  0.7408  1.8568  1.6725
  314TIP3    H2  907   3.285   0.727   2.127  2.6375  0.2614 -1.7007
  315TIP3   OH2  908   0.730   5.063   5.249 -0.5345  0.3074  0.1082
  315TIP3    H1  909   0.748   5.044   5.157 -2.3082 -0.0914 -0.1933
  315TIP3    H2  910   0.802   5.022   5.297  0.6461  0.8965 -1.1130
  316TIP3   OH2  911   5.134   5.605   5.799  0.1036 -0.1293 -0.0139
  316TIP3    H1  912   5.161   5.586   5.889  2.3626  1.5836 -0.2264
  316TIP3    H2  913   5.117   5.700   5.800 -1.0630 -0.3059 -1.1396
  317TIP3   OH2  914   1.330   3.762   4.591  0.5394  0.0004 -0.1484
  317TIP3    H1  915   1.359   3.672   4.580 -1.3693 -1.0102  2.1210
  317TIP3    H2  916   1.241   3.763   4.556 -0.6240  0.0884  2.5464
  318TIP3   OH2  917   5.742   4.104   5.351 -0.2454  0.1413  0.6219
  318TIP3    H1  918   5.648   4.108   5.334  0.1299  2.2370 -1.5168
  318TIP3    H2  919   5.754   4.023   5.399 -3.3373  0.5964  2.4640
  319TIP3   OH2  920   4.906   0.288   4.675 -0.5410 -0.8945 -0.0189
  319TIP3    H1  921   4.990   0.253   4.704  1.4181  3.3704  0.1750
  319TIP3    H2  922   4.928   0.351   4.606 -3.4449  1.0270  0.6262
  320TIP3   OH2  923   5.801   6.025   4.416  0.5233 -0.1836 -0.1543
  320TIP3    H1  924   5.828   5.979   4.336  0.3885 -1.5669  0.5759
  320TIP3    H2  925   5.798   5.957   4.483 -2.5696  0.2715  0.3296
  321TIP3   OH2  926   6.620   4.983   2.924 -0.2141 -0.3389  0.0851
  321TIP3    H1  927   6.616   5.062   2.978 -1.1160 -0.5143  0.2834
  321TIP3    H2  928   6.678   5.007   2.851 -0.9821  0.7107 -0.1980
  322TIP3   OH2  929   0.991   2.441   4.316 -0.6159  0.0769  0.1606
  322TIP3    H1  930   1.024   2.529   4.303  0.3780 -0.3944 -0.6474
  322TIP3    H2  931   1.053   2.400   4.376 -0.7405 -0.2517  0.0715
  323TIP3   OH2  932   4.035   4.212   2.796 -0.0921  0.0329  0.0338
  323TIP3    H1  933   4.128   4.233   2.785  0.0393  0.9392  2.4135
  323TIP3    H2  934   3.991   4.297   2.793 -0.4482 -0.0412  2.0710
  324TIP3   OH2  935   5.640   5.511   5.507 -0.2616  0.5364 -0.3095
  324TIP3    H1  936   5.565   5.552   5.549 -0.5038 -1.6541  1.6373
  324TIP3    H2  937   5.715   5.532   5.564 -0.4597 -1.8136  0.9788
  325TIP3   OH2  938   5.656   0.008   4.757  0.0488 -0.1754 -0.1013
  325TIP3    H1  939   5.686   0.065   4.827 -2.3969 -0.3345  1.1645
  325TIP3    H2  940   5.662   0.062   4.678  0.2547  0.9499  0.6575
  326TIP3   OH2  941   5.526   6.416   0.810 -0.5563 -0.4904 -0.1141
  326TIP3    H1  942   5.568   6.445   0.729  1.4467 -2.2161  0.2203
  326TIP3    H2  943   5.597   6.378   0.862 -2.1228 -1.1673  1.6579
  327TIP3   OH2  944   4.469   5.895   2.828  0.8785  0.5582  0.0245
  327TIP3    H1  945   4.376   5.904   2.850  0.4556 -0.6214 -1.1741
  327TIP3    H2  946   4.514   5.917   2.910 -0.5199 -0.5827  1.1817
  328TIP3   OH2  947   4.705   4.644   4.180 -0.0688 -0.0390 -0.0610
  328TIP3    H1  948   4.675   4.607   4.263 -1.3107 -1.4294 -1.0730
  328TIP3    H2  949   4.685   4.577   4.115  1.1063  0.9049 -1.4746
  329TIP3   OH2  950   4.258   1.564   1.876 -0.2806  0.1807 -0.0832
  329TIP3    H1  951   4.205   1.532   1.802 -1.2205 -1.2311  1.1325
  329TIP3    H2  952   4.210   1.640   1.908  1.2517  2.1433 -2.1642
  330TIP3   OH2  953   0.615   2.278   2.931 -0.2822  0.5185 -0.2587
  330TIP3    H1  954   0.641   2.189   2.955 -1.0980  0.2355 -0.4005
  330TIP3    H2  955   0.604   2.323   3.015 -1.5071  0.0011 -0.1252
  331TIP3   OH2  956   0.812   4.800   5.764  0.0678  0.4146  0.5318
  331TIP3    H1  957   0.747   4.730   5.759  0.2808  0.2042 -4.7694
  331TIP3    H2  958   0.766   4.878   5.734  1.5454  0.8600 -0.6925
  332TIP3   OH2  959   0.651   6.030   0.165 -0.2973  0.3755 -0.3637
  332TIP3    H1  960   0.679   5.950   0.209 -0.2413  0.4252 -0.3115
  332TIP3    H2  961   0.655   6.008   0.071 -0.6830  0.1795 -0.3372
  333TIP3   OH2  962   0.326   5.105   0.257 -0.2111  0.3728  0.2499
  333TIP3    H1  963   0.231   5.105   0.261 -0.2777  2.7051  0.3766
  333TIP3    H2  964   0.351   5.013   0.264 -2.4137 -0.2322  0.9326
  334TIP3   OH2  965   5.249   1.856   1.000  0.1369  0.0923 -0.2354
  334TIP3    H1  966   5.165   1.815   0.982  0.9594 -0.9812 -1.8539
  334TIP3    H2  967   5.251   1.933   0.944 -0.5607  1.3057  1.3119
  335TIP3   OH2  968   4.725   4.338   1.890  0.7820  0.0915 -0.4714
  335TIP3    H1  969   4.821   4.329   1.895  0.8132 -0.5419 -1.7291
  335TIP3    H2  970   4.692   4.252   1.918  0.4354  1.0588  2.4329
  336TIP3   OH2  971   3.847   4.652   5.470 -0.1668  0.5668  0.7465
  336TIP3    H1  972   3.878   4.641   5.380  2.6594  1.0077  1.5504
  336TIP3    H2  973   3.825   4.745   5.476  2.4493  1.2440  1.1829
  337TIP3   OH2  974   3.839   1.020   3.154  0.3810  0.4132  0.0319
  337TIP3    H1  975   3.830   1.107   3.115  0.2435  1.0165  1.3673
  337TIP3    H2  976   3.797   1.027   3.240  0.6732 -0.8746  0.3038
  338TIP3   OH2  977   4.175   2.612   4.435 -0.8844  0.0428  0.0786
  338TIP3    H1  978   4.156   2.603   4.529  0.1844 -2.4253  0.1281
  338TIP3    H2  979   4.088   2.611   4.394 -1.3089 -1.8554  0.8940
  339TIP3   OH2  980   4.308   6.333   3.400 -0.5526 -0.1168 -0.1913
  339TIP3    H1  981   4.326   6.351   3.308 -0.3383 -0.3727 -0.2008
  339TIP3    H2  982   4.348   6.247   3.416 -0.7602 -0.1630  0.0880
  340TIP3   OH2  983   1.024   2.286   3.296  0.3840 -0.0550  0.4333
  340TIP3    H1  984   1.004   2.325   3.381 -1.8467  0.0192 -0.0592
  340TIP3    H2  985   1.070   2.205   3.317 -0.6708 -0.3517  1.7559
  341TIP3   OH2  986   3.053   5.151   4.664  0.1479 -0.7258 -0.0715
  341TIP3    H1  987   3.014   5.187   4.744 -1.4156  0.1633 -1.1749
  341TIP3    H2  988   3.025   5.060   4.662  0.4760 -0.8431  0.5473
  342TIP3   OH2  989   4.778   2.700   1.585 -0.4707  0.6190 -0.4353
  342TIP3    H1  990   4.732   2.753   1.650  0.4219  0.7206  0.1360
  342TIP3    H2  991   4.725   2.708   1.505  0.5170  3.7797 -0.8899
  343TIP3   OH2  992   4.200   0.441   4.536  0.6850  0.2587 -0.0507
  343TIP3    H1  993   4.231   0.457   4.625  4.2929  1.5769 -1.3820
  343TIP3    H2  994   4.278   0.413   4.488 -0.9009  0.6269 -3.0632
  344TIP3   OH2  995   1.871   0.463   5.837  0.2783 -0.1952 -0.0153
  344TIP3    H1  996   1.782   0.498   5.825 -0.1414 -0.7428  1.3162
  344TIP3    H2  997   1.866   0.373   5.805  0.4215 -0.1340 -0.2057
  345TIP3   OH2  998   3.716   2.013   3.090  0.3314  0.5333 -0.1819
  345TIP3    H1  999   3.737   1.920   3.099 -0.1957  0.6269  3.9429
  345TIP3    H2 1000   3.622   2.014   3.071 -0.4072  0.0575  2.8590
  346TIP3   OH2 1001   6.857   3.095   1.503  0.0161  0.0057 -0.0871
  346TIP3    H1 1002   6.879   3.127   1.416 -1.1597  0.7111 -0.1498
  346TIP3    H2 1003   6.859   2.999   1.495 -2.3018 -0.0131 -1.5445
  347TIP3   OH2 1004   3.136   3.722   3.231  0.2829  0.1762  0.4142
  347TIP3    H1 1005   3.084   3.660   3.282  1.7387 -0.1343  1.5819
  347TIP3    H2 1006   3.209   3.670   3.199  0.7888  0.9835  0.2499
  348TIP3   OH2 1007   2.065   4.789   1.431  0.1540 -0.0779 -0.3746
  348TIP3    H1 1008   2.040   4.697   1.420  0.3713 -0.0704 -0.9459
  348TIP3    H2 1009   2.095   4.795   1.522  0.9739 -0.7676 -0.5899
  349TIP3   OH2 1010   6.265   5.333   4.640 -0.6865 -0.4708  0.2447
  349TIP3    H1 1011   6.252   5.382   4.721  1.7127  1.0078 -0.1658
  349TIP3    H2 1012   6.330   5.266   4.662 -1.3388 -1.2256 -0.0639
  350TIP3   OH2 1013   3.490   0.242   4.023  0.5603  0.5996  0.2709
  350TIP3    H1 1014   3.576   0.200   4.016 -0.7133 -1.9169 -2.2047
  350TIP3    H2 1015   3.505   0.332   3.995  2.0271 -0.4296 -2.5764
  351TIP3   OH2 1016   5.979   6.522   4.689 -0.4111  0.3177  0.7655
  351TIP3    H1 1017   5.916   6.455   4.664 -0.0122 -0.3380  1.4821
  351TIP3    H2 1018   6.057   6.474   4.714  0.1513  1.0880  0.5490
  352TIP3   OH2 1019   5.211   0.434   2.131  0.4557  0.2323 -0.0222
  352TIP3    H1 1020   5.225   0.505   2.069  1.0481  2.4420  2.4677
  352TIP3    H2 1021   5.117   0.415   2.125  0.2757  1.2441 -0.7050
  353TIP3   OH2 1022   3.078   0.257   3.395  0.1650 -0.0459 -0.2710
  353TIP3    H1 1023   3.156   0.295   3.436  0.5913 -2.3849  1.2987
  353TIP3    H2 1024   3.106   0.170   3.364 -1.7817 -0.9740  0.3728
  354TIP3   OH2 1025   3.044   3.246   3.188  0.0251 -0.4355  0.2749
  354TIP3    H1 1026   3.093   3.275   3.111 -1.5689  0.8161 -0.3138
  354TIP3    H2 1027   3.106   3.190   3.236  1.3727 -0.4478 -1.3898
  355TIP3   OH2 1028   1.838   0.443   1.042 -0.7498 -0.1197  0.1111
  355TIP3    H1 1029   1.879   0.371   1.089  0.6338  1.6167  1.6935
  355TIP3    H2 1030   1.896   0.459   0.967 -0.0748  0.4707  0.7479
  356TIP3   OH2 1031   6.784   0.124   4.881  0.1136  0.0419 -0.0113
  356TIP3    H1 1032   6.708   0.177   4.904  0.4499  0.8888 -0.7757
  356TIP3    H2 1033   6.841   0.129   4.958 -0.5629 -0.5359  0.5347
  357TIP3   OH2 1034   1.218   5.901   2.342  0.2958  0.4770  0.5999
  357TIP3    H1 1035   1.191   5.844   2.271  1.4456  1.1519 -0.4184
  357TIP3    H2 1036   1.136   5.930   2.382 -0.3276 -0.8836  0.3455
  358TIP3   OH2 1037   1.991   3.745   0.655  0.5224  0.0861 -0.4020
  358TIP3    H1 1038   1.988   3.683   0.582  0.9032 -0.8252  0.3381
  358TIP3    H2 1039   1.909   3.794   0.648  0.0289 -0.7635 -0.7762
  359TIP3   OH2 1040   5.963   3.808   2.328  0.8484 -0.0057 -0.1899
  359TIP3    H1 1041   5.941   3.716   2.315  1.4807 -0.0129 -1.3611
  359TIP3    H2 1042   5.887   3.845   2.373  0.1900 -0.9007 -0.5340
  360TIP3   OH2 1043   2.780   3.529   3.226  0.5199 -0.1596  0.5401
  360TIP3    H1 1044   2.763   3.502   3.136 -0.1590  2.2768 -0.1232
  360TIP3    H2 1045   2.875   3.538   3.231  0.4584  1.5430 -0.5661
  361TIP3   OH2 1046   0.989   5.895   1.832 -0.2384  0.0831  0.1238
  361TIP3    H1 1047   0.980   5.801   1.813  0.9110 -0.1332  0.6108
  361TIP3    H2 1048   1.053   5.927   1.769 -0.1504  0.4033  0.3700
  362TIP3   OH2 1049   3.952   5.751   5.126 -0.3261  0.8636 -0.1757
  362TIP3    H1 1050   4.011   5.714   5.060 -2.6024  1.2520 -2.5766
  362TIP3    H2 1051   3.977   5.843   5.131  1.2065  0.4408  1.1651
  363TIP3   OH2 1052   0.911   1.582   1.608 -0.2083 -0.3512  0.5681
  363TIP3    H1 1053   0.873   1.667   1.627 -1.6610 -0.7035 -0.5689
  363TIP3    H2 1054   0.973   1.599   1.537 -1.2045 -0.3530 -0.3312
  364TIP3   OH2 1055   4.539   2.232   4.990 -0.0524 -0.6697  0.3616
  364TIP3    H1 1056   4.538   2.310   4.935  0.7222 -1.2301 -0.4881
  364TIP3    H2 1057   4.626   2.233   5.030 -0.6770 -0.1606  1.7748
  365TIP3   OH2 1058   4.347   2.035   1.624 -0.5372 -0.1181  0.2483
  365TIP3    H1 1059   4.283   2.036   1.553 -1.0918  1.2952  0.7221
  365TIP3    H2 1060   4.422   1.987   1.588 -1.5246 -1.0605 -0.6099
  366TIP3   OH2 1061   3.950   4.868   4.423  0.1344 -0.0937 -0.0028
  366TIP3    H1 1062   3.990   4.914   4.497  1.3507 -1.0633 -0.0175
  366TIP3    H2 1063   3.892   4.804   4.464 -1.0302  0.9428  0.0310
  367TIP3   OH2 1064   3.395   6.502   1.859  0.0582  0.4031  0.0541
  367TIP3    H1 1065   3.415   6.422   1.909  0.7343  1.0061  0.7865
  367TIP3    H2 1066   3.333   6.474   1.792 -1.2967 -0.3493  1.5525
  368TIP3   OH2 1067   0.633   3.200   3.142 -0.0748 -0.4061  0.1536
  368TIP3    H1 1068   0.695   3.141   3.100  0.7505  0.0188  0.7577
  368TIP3    H2 1069   0.635   3.177   3.235 -0.0283  0.3048  0.3396
  369TIP3   OH2 1070   2.633   0.565   1.249  0.2908 -0.1729 -0.4792
  369TIP3    H1 1071   2.720   0.597   1.227  0.1204  1.0878  0.4822
  369TIP3    H2 1072   2.646   0.475   1.279  1.3017  0.0891 -0.0980
  370TIP3   OH2 1073   1.274   1.673   3.383  0.2568 -0.5741 -0.1226
  370TIP3    H1 1074   1.367   1.650   3.385  0.4093 -0.0026 -0.4200
  370TIP3    H2 1075   1.258   1.704   3.294  0.5676  2.3982  0.7336
  371TIP3   OH2 1076   4.705   2.982   5.853 -0.4814  0.3784  0.1737
  371TIP3    H1 1077   4.641   2.988   5.783 -0.4926  0.8529  0.2162
  371TIP3    H2 1078   4.702   3.068   5.896 -0.9875 -0.1357  1.2076
  372TIP3   OH2 1079   4.396   1.226   1.851  0.4557  0.1130 -0.0968
  372TIP3    H1 1080   4.377   1.138   1.818  2.6164 -0.2965 -0.4418
  372TIP3    H2 1081   4.337   1.284   1.803  0.4539 -0.9387 -1.4140
  373TIP3   OH2 1082   5.509   6.692   1.897  0.1308  0.0526  0.5210
  373TIP3    H1 1083   5.517   6.685   1.992  1.6214 -1.8481  0.3129
  373TIP3    H2 1084   5.596   6.717   1.867 -0.1093 -0.1942 -0.4170
  374TIP3   OH2 1085   5.534   4.183   3.697  0.2112  0.3928 -0.2337
  374TIP3    H1 1086   5.545   4.117   3.628 -0.4536 -1.1705  1.0867
  374TIP3    H2 1087   5.464   4.148   3.752 -0.4826  2.4495  0.2773
  375TIP3   OH2 1088   4.181   0.245   3.099 -0.2200 -0.1879  0.2010
  375TIP3    H1 1089   4.255   0.305   3.107 -0.1577 -0.0765 -0.9924
  375TIP3    H2 1090   4.104   0.298   3.122 -0.0727  0.0786  0.0830
  376TIP3   OH2 1091   6.969   0.391   2.310  0.0353  0.3619 -0.5111
  376TIP3    H1 1092   6.975   0.427   2.221  1.1224  1.6559  0.0557
  376TIP3    H2 1093   7.056   0.354   2.326  0.0452  0.7154  0.2488
  377TIP3   OH2 1094  -0.001   6.232   1.383 -0.4289 -0.5222 -0.0477
  377TIP3    H1 1095   0.038   6.230   1.471 -1.3759  0.5289  0.4195
  377TIP3    H2 1096   0.018   6.321   1.351  0.0082 -0.9313 -0.9652
  378TIP3   OH2 1097   3.700   2.200   0.779 -0.1960  0.0545  0.3753
  378TIP3    H1 1098   3.732   2.215   0.868  1.3924  0.5558 -0.2455
  378TIP3    H2 1099   3.616   2.247   0.775 -0.3679 -0.1189  1.6339
  379TIP3   OH2 1100   1.365   6.557   3.345  0.2497  0.1329 -0.1079
  379TIP3    H1 1101   1.398   6.470   3.321 -0.6312  0.0027 -0.9196
  379TIP3    H2 1102   1.303   6.540   3.415  1.2334  0.2858  0.8185
  380TIP3   OH2 1103   2.179   1.085   1.483  0.8434  0.0152  0.0093
  380TIP3    H1 1104   2.146   1.068   1.395  1.2577  1.1138 -0.3750
  380TIP3    H2 1105   2.192   1.180   1.486 -0.0615  0.1145  1.5840
  381TIP3   OH2 1106   2.422   4.424   4.551  0.1472  0.0321  0.0898
  381TIP3    H1 1107   2.482   4.485   4.596  0.5532  0.1942 -0.6533
  381TIP3    H2 1108   2.444   4.338   4.588  1.6818 -0.0888 -1.0098
  382TIP3   OH2 1109   3.080   6.144   0.274  0.0822 -0.3756  0.3625
  382TIP3    H1 1110   3.119   6.207   0.336  0.2577 -0.6523  0.5371
  382TIP3    H2 1111   3.122   6.164   0.190  0.4599 -0.5393  0.5080
  383TIP3   OH2 1112   3.395   6.494   5.070  0.3794 -0.1529  0.6589
  383TIP3    H1 1113   3.315   6.537   5.100  0.0507 -0.4394  0.2032
  383TIP3    H2 1114   3.442   6.471   5.151 -0.0508 -0.0821  0.9306
  384TIP3   OH2 1115   2.364   4.191   4.074  0.8845  0.3991  0.1525
  384TIP3    H1 1116   2.385   4.266   4.130  0.4574  0.6965 -0.0846
  384TIP3    H2 1117   2.278   4.163   4.103  0.9759  0.0971  0.1334
  385TIP3   OH2 1118   1.792   3.081   0.489 -0.0275  0.0849  0.3846
  385TIP3    H1 1119   1.868   3.061   0.434 -0.6168 -0.6878 -0.1715
  385TIP3    H2 1120   1.803   3.026   0.566  0.0159  0.0361  0.3435
  386TIP3   OH2 1121   0.588   0.320   1.885 -0.9139 -0.2157  0.2856
  386TIP3    H1 1122   0.596   0.304   1.979  0.7398  0.8484  0.3755
  386TIP3    H2 1123   0.679   0.333   1.856 -1.1935 -2.3397 -1.8173
  387TIP3   OH2 1124   2.213   2.552   3.897 -0.1832 -0.0668  0.1656
  387TIP3    H1 1125   2.296   2.600   3.889  0.2225 -0.5170  1.3943
  387TIP3    H2 1126   2.158   2.610   3.951  0.3996 -1.0299  1.8780
  388TIP3   OH2 1127   0.758   5.032   0.378  0.3615 -0.2439  0.5439
  388TIP3    H1 1128   0.846   5.002   0.402 -0.3279 -1.2829  1.9816
  388TIP3    H2 1129   0.757   5.031   0.282  1.2727 -2.2498  0.5055
  389TIP3   OH2 1130   5.838   1.232   1.160 -0.4905 -0.3001 -0.6541
  389TIP3    H1 1131   5.762   1.205   1.211  0.1699 -0.2404  0.3910
  389TIP3    H2 1132   5.823   1.325   1.142 -1.0694 -0.4970 -1.1929
  390TIP3   OH2 1133   6.367   0.728   0.186  0.2229  0.4914  0.2222
  390TIP3    H1 1134   6.314   0.756   0.261 -0.2025  0.1887  0.0394
  390TIP3    H2 1135   6.381   0.808   0.136 -1.0047  0.4009 -0.3072
  391TIP3   OH2 1136   1.480   0.718   3.094  0.1698  0.4841  0.6416
  391TIP3    H1 1137   1.493   0.647   3.157  0.4969 -0.3970 -0.3914
  391TIP3    H2 1138   1.394   0.754   3.116  0.3097  0.2487  1.6326
  392TIP3   OH2 1139   6.825   6.464   1.438 -0.3384 -0.0170  0.1034
  392TIP3    H1 1140   6.741   6.421   1.420 -1.0577  0.8278  1.2858
  392TIP3    H2 1141   6.871   6.403   1.497 -0.5556 -0.0231  0.2673
  393TIP3   OH2 1142   6.335   6.045   3.482  0.2563 -0.3325 -0.6483
  393TIP3    H1 1143   6.383   6.021   3.402  1.8831 -2.0173  0.7512
  393TIP3    H2 1144   6.277   6.116   3.454  1.3220 -0.3226 -3.1433
  394TIP3   OH2 1145   5.070   0.448   4.072  0.4903  0.1891  0.2151
  394TIP3    H1 1146   5.014   0.407   4.138  1.0608  1.1310  1.3307
  394TIP3    H2 1147   5.151   0.397   4.074  0.2838 -0.1622 -0.2155
  395TIP3   OH2 1148   3.656   6.627   1.808  0.5894 -0.6594 -0.2095
  395TIP3    H1 1149   3.581   6.568   1.819  1.4614 -1.5355  1.2022
  395TIP3    H2 1150   3.707   6.616   1.888  0.3670  2.6519  0.5114
  396TIP3   OH2 1151   1.144   3.183   3.394  0.0211 -0.0260 -0.6207
  396TIP3    H1 1152   1.100   3.187   3.310 -0.3862  0.8509 -0.3787
  396TIP3    H2 1153   1.233   3.215   3.376  0.0062 -0.0668 -0.7640
  397TIP3   OH2 1154   0.866   0.831   4.268 -0.2702 -0.0316 -0.3070
  397TIP3    H1 1155   0.941   0.879   4.233  0.5074 -1.0453 -0.0907
  397TIP3    H2 1156   0.794   0.894   4.267  0.7807  1.2159  0.2424
  398TIP3   OH2 1157   7.069   3.269   0.831  0.2728  0.1742  0.6491
  398TIP3    H1 1158   7.090   3.185   0.870  1.4842 -0.5256 -1.3436
  398TIP3    H2 1159   7.054   3.249   0.738 -0.0041  2.0706  0.2425
  399TIP3   OH2 1160   1.948   1.656   4.034  0.3677 -0.0333  0.3268
  399TIP3    H1 1161   1.935   1.750   4.028  1.7671  0.0959 -1.4772
  399TIP3    H2 1162   1.907   1.621   3.955 -0.1771 -0.9627  1.0003
  400TIP3   OH2 1163   5.039   1.808   2.411  0.5287 -0.6188  0.6492
  400TIP3    H1 1164   5.001   1.797   2.323  0.6392 -2.1033  0.7637
  400TIP3    H2 1165   4.990   1.881   2.448 -0.3187 -0.6999 -0.2347
  401TIP3   OH2 1166   2.667   5.632   4.483 -0.4429 -0.1658  0.6585
  401TIP3    H1 1167   2.739   5.695   4.479  0.2697 -0.9878 -0.1911
  401TIP3    H2 1168   2.652   5.607   4.392 -0.1622 -1.7919  1.0197
  402TIP3   OH2 1169   0.335   2.681   0.495  0.0823 -0.3472 -0.0238
  402TIP3    H1 1170   0.384   2.652   0.418  1.9543 -3.2916  2.0537
  402TIP3    H2 1171   0.402   2.694   0.562 -1.5077  1.7133  1.2721
  403TIP3   OH2 1172   4.287   5.864   0.503 -0.7513 -0.8412 -0.8398
  403TIP3    H1 1173   4.369   5.817   0.493  1.6576  2.7545  0.2889
  403TIP3    H2 1174   4.264   5.892   0.415 -1.1053 -2.2140 -1.2185
  404TIP3   OH2 1175   6.639   0.910   1.136  0.5954  0.9402 -0.5770
  404TIP3    H1 1176   6.731   0.934   1.148  0.5271  1.3835 -0.9189
  404TIP3    H2 1177   6.626   0.910   1.041  0.9345 -1.7699 -0.7054
  405TIP3   OH2 1178   1.989   4.248   2.768 -0.7401 -0.3158 -0.2730
  405TIP3    H1 1179   2.048   4.310   2.725 -2.3837  1.0757 -0.6752
  405TIP3    H2 1180   1.951   4.298   2.840 -1.1062 -1.2976  0.2272
  406TIP3   OH2 1181   3.600   4.932   5.350  0.0837 -0.1884  0.3222
  406TIP3    H1 1182   3.664   4.906   5.416 -1.1938 -0.9483  1.2965
  406TIP3    H2 1183   3.521   4.952   5.400 -0.6492  0.0944 -0.9109
  407TIP3   OH2 1184   0.124   3.707   5.216 -0.3754 -0.0050 -0.0716
  407TIP3    H1 1185   0.192   3.660   5.265  1.2641  0.6849 -1.5579
  407TIP3    H2 1186   0.043   3.691   5.265  0.8347 -0.9172  1.7515
  408TIP3   OH2 1187   2.902   1.034   1.377 -0.2280  0.1614  1.0846
  408TIP3    H1 1188   2.925   0.976   1.304 -0.5258 -0.7731  1.7187
  408TIP3    H2 1189   2.846   1.101   1.337  1.9963  1.4017 -0.1040
  409TIP3   OH2 1190   5.465   0.259   3.490  0.0507 -0.6058  0.3465
  409TIP3    H1 1191   5.540   0.201   3.495  0.8077  0.2711 -0.4509
  409TIP3    H2 1192   5.501   0.344   3.467 -1.2661 -0.3988 -1.1688
  410TIP3   OH2 1193   2.097   5.357   4.127 -0.4978  0.0514  0.5328
  410TIP3    H1 1194   2.086   5.329   4.218 -1.1187  0.2345  0.5203
  410TIP3    H2 1195   2.162   5.297   4.091  2.3422  2.0050  2.0199
  411TIP3   OH2 1196   0.030   3.773   2.445  0.3753 -0.3023  0.0686
  411TIP3    H1 1197   0.120   3.753   2.470  0.4506 -0.7700 -0.5571
  411TIP3    H2 1198  -0.002   3.693   2.403 -0.3257 -0.1317  0.2698
  412TIP3   OH2 1199   2.204   6.421   2.080 -0.1705 -0.2356  0.5148
  412TIP3    H1 1200   2.171   6.336   2.109 -2.3440  0.7425  1.1676
  412TIP3    H2 1201   2.161   6.484   2.138  0.9368  1.3417 -0.3064
  413TIP3   OH2 1202   1.492   5.469   1.661 -0.5035  0.1494  0.7157
  413TIP3    H1 1203   1.476   5.375   1.649 -0.0399 -0.0613  1.6428
  413TIP3    H2 1204   1.583   5.475   1.688  0.0982  1.0677 -1.3545
  414TIP3   OH2 1205   3.390   0.609   0.765 -0.0285 -0.0787 -0.0507
  414TIP3    H1 1206   3.422   0.522   0.744 -0.2124 -0.3547  0.7938
  414TIP3    H2 1207   3.303   0.613   0.724 -0.7077 -0.8897  1.2418
  415TIP3   OH2 1208   6.012   6.270   0.907 -0.2502 -0.0569 -0.3377
  415TIP3    H1 1209   6.022   6.328   0.983 -1.3092 -1.8504  1.2522
  415TIP3    H2 1210   6.101   6.249   0.881  0.1337  0.6830  0.3424
  416TIP3   OH2 1211   0.114   2.053   2.646 -0.2766 -1.1460  0.1285
  416TIP3    H1 1212   0.059   2.011   2.712 -0.3704 -0.9273  0.1920
  416TIP3    H2 1213   0.128   2.142   2.679  0.2882 -1.2654  0.2110
  417TIP3   OH2 1214   5.536   3.936   3.554  0.5479  0.6710  0.6808
  417TIP3    H1 1215   5.523   3.894   3.639 -0.5954  2.0231  1.2046
  417TIP3    H2 1216   5.501   3.873   3.490 -1.1306  0.7674  1.4470
  418TIP3   OH2 1217   4.736   3.354   0.876  0.2432  0.0786 -0.5794
  418TIP3    H1 1218   4.731   3.449   0.860 -0.3617  0.0297 -0.7116
  418TIP3    H2 1219   4.649   3.331   0.909  0.5960 -0.3194  0.0836
  419TIP3   OH2 1220   2.894   6.433   1.730 -0.3035  0.1712  0.7965
  419TIP3    H1 1221   2.962   6.497   1.751  0.1378  0.5466 -1.5404
  419TIP3    H2 1222   2.875   6.448   1.638 -1.4365 -1.9462  0.6387
  420TIP3   OH2 1223   0.647   2.753   2.313  0.4163 -0.5181  0.0274
  420TIP3    H1 1224   0.613   2.840   2.294  0.4634 -0.3882  0.5205
  420TIP3    H2 1225   0.619   2.735   2.403 -1.3667 -1.8581 -0.7367
  421TIP3   OH2 1226   4.415   2.268   1.830 -0.4297  0.2848 -0.0514
  421TIP3    H1 1227   4.350   2.329   1.865 -1.2451 -0.3298 -0.4524
  421TIP3    H2 1228   4.364   2.208   1.774  0.3516 -0.7252  0.2876
  422TIP3   OH2 1229   1.410   4.441   1.116  0.8820  0.4852 -0.4838
  422TIP3    H1 1230   1.495   4.402   1.095  0.6695  0.1970 -0.8151
  422TIP3    H2 1231   1.393   4.503   1.045  1.4575  1.5823  0.3066
  423TIP3   OH2 1232   6.787   2.764   2.505  0.3827  0.1607  0.4683
  423TIP3    H1 1233   6.700   2.793   2.532  0.1899 -0.7322  0.8560
  423TIP3    H2 1234   6.771   2.708   2.429  0.7471  1.0284 -0.2656
  424TIP3   OH2 1235   6.429   0.111   1.414  0.2924  0.0505  0.1974
  424TIP3    H1 1236   6.499   0.098   1.478  0.6616  0.7072 -0.0675
  424TIP3    H2 1237   6.409   0.204   1.418  2.0753  0.6533 -2.4351
  425TIP3   OH2 1238   5.540   1.330   1.989  0.2844 -0.0764 -0.2765
  425TIP3    H1 1239   5.547   1.267   1.917  0.7798  0.2767 -0.5475
  425TIP3    H2 1240   5.538   1.415   1.945 -2.5113  0.0613 -0.0598
  426TIP3   OH2 1241   4.547   1.602   3.719 -0.3447 -0.1934  0.6448
  426TIP3    H1 1242   4.572   1.683   3.674 -1.5338  0.3703  0.9369
  426TIP3    H2 1243   4.578   1.614   3.808  0.7407 -0.6875  0.3428
  427TIP3   OH2 1244   6.736   1.596   2.600 -0.2471  0.7987  0.0071
  427TIP3    H1 1245   6.725   1.521   2.659 -0.1847  2.0222  1.6380
  427TIP3    H2 1246   6.729   1.558   2.512 -0.9062 -1.0074  0.7826
  428TIP3   OH2 1247   2.111   5.457   0.649  0.2597 -0.3148  0.1830
  428TIP3    H1 1248   2.094   5.429   0.559  1.9339  0.4464 -0.4179
  428TIP3    H2 1249   2.161   5.384   0.687 -1.4262 -1.1460  0.9124
  429TIP3   OH2 1250   1.181   6.331   4.325  0.0305 -0.3431  0.3707
  429TIP3    H1 1251   1.273   6.307   4.323  0.1693  0.0320  1.3854
  429TIP3    H2 1252   1.162   6.345   4.418 -1.1510 -0.8038  0.2154
  430TIP3   OH2 1253   4.067   2.299   4.917 -0.1386 -0.5888  0.3404
  430TIP3    H1 1254   4.090   2.207   4.931 -0.7153 -0.5990  1.2992
  430TIP3    H2 1255   3.972   2.299   4.904 -0.1684 -0.1068  0.5274
  431TIP3   OH2 1256   0.329   3.619   2.102  0.4994  0.2371 -0.0654
  431TIP3    H1 1257   0.364   3.547   2.153  0.4260 -0.1844 -0.6009
  431TIP3    H2 1258   0.393   3.689   2.112  0.5098  0.1434  0.5524
  432TIP3   OH2 1259   5.872   0.946   4.941 -0.4516  0.3442 -0.2599
  432TIP3    H1 1260   5.787   0.988   4.956 -0.0391  1.1591 -0.0866
  432TIP3    H2 1261   5.918   1.007   4.884  1.2799  1.6917  2.3648
  433TIP3   OH2 1262   0.319   6.149   0.869  0.3382 -0.6250  0.0162
  433TIP3    H1 1263   0.396   6.123   0.819  0.8758  1.1466 -0.1197
  433TIP3    H2 1264   0.245   6.113   0.819  0.9433 -0.1857 -1.2217
  434TIP3   OH2 1265   2.179   4.248   2.445 -0.2958  0.5031 -0.0392
  434TIP3    H1 1266   2.187   4.304   2.522 -0.2294  2.1602 -1.2133
  434TIP3    H2 1267   2.266   4.250   2.404 -1.2343  2.7722 -2.1947
  435TIP3   OH2 1268   0.861   0.996   1.106 -0.0091 -0.3400  0.1441
  435TIP3    H1 1269   0.791   0.947   1.062 -0.3437 -0.1035  0.4032
  435TIP3    H2 1270   0.859   0.964   1.197 -0.0311 -0.0618  0.2427
  436TIP3   OH2 1271   3.170   6.008   3.043 -0.7045  0.0578 -0.2431
  436TIP3    H1 1272   3.135   5.931   2.997  0.4265 -1.0830  0.6998
  436TIP3    H2 1273   3.229   5.971   3.108 -0.1838  1.7569  0.2972
  437TIP3   OH2 1274   4.842   5.213   2.234  0.2387  0.3352 -0.6539
  437TIP3    H1 1275   4.893   5.132   2.232 -0.9348 -0.4226 -1.0356
  437TIP3    H2 1276   4.814   5.222   2.325  2.4249  1.6840 -0.0440
  438TIP3   OH2 1277   1.384   0.156   3.299  0.4699  0.6571  0.0321
  438TIP3    H1 1278   1.415   0.199   3.220  0.2984  0.5757 -0.0812
  438TIP3    H2 1279   1.289   0.166   3.296  0.5019  1.1887  0.5371
  439TIP3   OH2 1280   1.747   0.852   4.337 -0.1446  0.5018 -0.5206
  439TIP3    H1 1281   1.718   0.891   4.255  0.6382  1.1066 -0.5239
  439TIP3    H2 1282   1.800   0.920   4.378  0.4010 -0.1941 -0.0457
  440TIP3   OH2 1283   6.075   5.593   1.729 -0.2555  0.3702 -0.2022
  440TIP3    H1 1284   6.149   5.548   1.769 -0.2864 -0.3961 -0.9836
  440TIP3    H2 1285   5.998   5.544   1.758 -0.5496  1.5948  1.1997
  441TIP3   OH2 1286   4.037   5.442   4.001 -0.3179  0.8221  0.4507
  441TIP3    H1 1287   4.007   5.358   4.036  0.6886 -2.7873 -5.7328
  441TIP3    H2 1288   3.957   5.486   3.972 -0.7532 -1.5627 -2.4178
  442TIP3   OH2 1289   0.880   0.387   1.904 -0.3832  0.2599 -0.5830
  442TIP3    H1 1290   0.903   0.383   1.996 -1.1681 -1.4113 -0.4275
  442TIP3    H2 1291   0.951   0.339   1.860 -0.1655  0.7983 -0.8311
  443TIP3   OH2 1292   3.366   3.327   1.255  0.6496 -0.2295  0.0705
  443TIP3    H1 1293   3.440   3.388   1.261 -0.9446  1.7606  0.7613
  443TIP3    H2 1294   3.366   3.299   1.164  1.5702  0.6646 -0.2333
  444TIP3   OH2 1295   6.881   6.455   5.444  0.0059  0.1913 -0.2058
  444TIP3    H1 1296   6.789   6.451   5.471 -0.4468  0.3418 -1.6628
  444TIP3    H2 1297   6.883   6.414   5.357  1.2803  0.4040 -0.2993
  445TIP3   OH2 1298   2.080   5.259   4.393  0.3053 -0.2131  0.0036
  445TIP3    H1 1299   2.068   5.353   4.407 -0.6663 -0.3966  0.5380
  445TIP3    H2 1300   2.040   5.219   4.470  0.0471 -1.0866 -0.5738
  446TIP3   OH2 1301   1.919   2.291   2.791 -0.5242  0.1082  0.1038
  446TIP3    H1 1302   2.002   2.325   2.825 -1.1314  1.2109  0.5371
  446TIP3    H2 1303   1.925   2.302   2.696 -0.6702  1.3944  0.2251
  447TIP3   OH2 1304   0.858   0.508   5.205 -0.1258  0.2287  0.0996
  447TIP3    H1 1305   0.952   0.523   5.213 -0.2924  0.9675  0.7969
  447TIP3    H2 1306   0.820   0.595   5.195 -0.8677  0.0808  1.4027
  448TIP3   OH2 1307   0.510   0.780   1.496 -0.3227 -0.0326  0.5751
  448TIP3    H1 1308   0.547   0.692   1.483  1.2158  0.8482 -1.5270
  448TIP3    H2 1309   0.555   0.812   1.574  0.1659 -0.6033  0.5440
  449TIP3   OH2 1310   5.548   3.133   3.123  0.2042 -0.0703  0.4962
  449TIP3    H1 1311   5.610   3.066   3.094  2.2084  0.4613  3.1528
  449TIP3    H2 1312   5.562   3.207   3.064  1.0798 -0.4974  0.1523
  450TIP3   OH2 1313   4.208   2.032   4.858  0.1221 -0.0113  0.1841
  450TIP3    H1 1314   4.303   2.038   4.854  0.0067  2.8394 -0.5839
  450TIP3    H2 1315   4.184   1.972   4.788  1.3372 -0.4800  0.1525
  451TIP3   OH2 1316   6.808   0.164   1.980 -0.7393 -0.6087  0.0037
  451TIP3    H1 1317   6.758   0.235   2.020 -0.1663 -0.2938  0.1723
  451TIP3    H2 1318   6.774   0.085   2.022 -0.5049 -0.3256  0.7459
  452TIP3   OH2 1319   5.390   0.657   5.407  0.5378  0.1097  0.0225
  452TIP3    H1 1320   5.356   0.742   5.433 -0.0109  0.5148 -1.8507
  452TIP3    H2 1321   5.400   0.608   5.489 -0.9379  1.3156  0.9649
  453TIP3   OH2 1322   3.098   0.906   0.940 -0.3843 -0.0142  0.3023
  453TIP3    H1 1323   3.148   0.839   0.987 -0.5232  0.1211  0.6508
  453TIP3    H2 1324   3.163   0.973   0.918 -0.7625  1.3521  2.8996
  454TIP3   OH2 1325   5.540   1.859   4.036 -0.1043 -0.2663  0.6586
  454TIP3    H1 1326   5.496   1.774   4.028 -0.0285 -0.3749  1.3605
  454TIP3    H2 1327   5.486   1.909   4.097  0.3007 -0.1118  0.8929
  455TIP3   OH2 1328   2.265   6.486   2.410 -0.1477 -0.1130 -0.5961
  455TIP3    H1 1329   2.325   6.543   2.457 -1.3112  2.1361 -1.6776
  455TIP3    H2 1330   2.321   6.438   2.349  0.7768  0.5370 -0.2863
  456TIP3   OH2 1331   3.654   2.228   1.162  0.1697 -0.7453 -0.2559
  456TIP3    H1 1332   3.598   2.301   1.186  0.0681 -1.4507  1.8066
  456TIP3    H2 1333   3.722   2.266   1.106 -0.7232  0.6164 -0.4454
  457TIP3   OH2 1334   6.527   0.689   1.245 -0.4676 -0.2153 -0.2825
  457TIP3    H1 1335   6.555   0.700   1.336 -1.9771  0.2945  0.1437
  457TIP3    H2 1336   6.576   0.756   1.197  0.2434 -0.4051  0.1616
  458TIP3   OH2 1337   2.755   3.780   3.584 -0.3298  0.0246  0.0016
  458TIP3    H1 1338   2.760   3.747   3.673 -0.5831  0.7609  0.2935
  458TIP3    H2 1339   2.844   3.770   3.550 -0.5211 -1.4570 -0.1107
  459TIP3   OH2 1340   4.376   4.916   4.704 -0.7679  0.4873  1.0072
  459TIP3    H1 1341   4.375   4.921   4.609 -1.6372 -0.8511  0.9251
  459TIP3    H2 1342   4.369   5.007   4.733 -0.9411  0.8706 -0.2070
  460TIP3   OH2 1343   0.890   0.482   3.396 -0.1179 -0.2550  0.1630
  460TIP3    H1 1344   0.937   0.438   3.325  2.7750  0.0331  1.7397
  460TIP3    H2 1345   0.889   0.574   3.371  0.4088 -0.2322  0.2096
  461TIP3   OH2 1346   6.284   0.715   1.385 -0.0929 -0.3385 -0.3575
  461TIP3    H1 1347   6.204   0.695   1.337  0.5102  1.1114 -2.1031
  461TIP3    H2 1348   6.353   0.709   1.319  0.8803  1.0270  0.4767
  462TIP3   OH2 1349   3.650   4.430   0.168 -0.1863 -0.2033  0.6530
  462TIP3    H1 1350   3.582   4.486   0.205 -0.1766 -0.7284  1.4893
  462TIP3    H2 1351   3.628   4.424   0.075  0.7690  2.5545  0.1517
  463TIP3   OH2 1352   6.312   3.680   1.479 -0.2096  0.0172  0.7120
  463TIP3    H1 1353   6.406   3.675   1.494  0.2023  2.9578 -0.2239
  463TIP3    H2 1354   6.300   3.643   1.391  0.2787  0.7600  0.3241
  464TIP3   OH2 1355   4.525   3.049   1.121  0.6172 -0.0356 -0.2156
  464TIP3    H1 1356   4.442   3.006   1.140 -0.0807  0.7037 -1.4744
  464TIP3    H2 1357   4.502   3.124   1.067  2.1752 -0.3141 -1.3435
  465TIP3   OH2 1358   0.682   4.464   0.050  0.1472  0.0591  0.0111
  465TIP3    H1 1359   0.734   4.391   0.082  0.0622 -0.0651 -0.1341
  465TIP3    H2 1360   0.639   4.431  -0.029 -0.8377 -0.1190  0.6091
  466TIP3   OH2 1361   6.436   4.270   1.914 -0.6958  0.1909  0.9981
  466TIP3    H1 1362   6.363   4.211   1.894 -0.6790  0.2023  0.9046
  466TIP3    H2 1363   6.415   4.305   2.001 -1.5916  1.3802  0.3368
  467TIP3   OH2 1364   1.118   6.263   1.829 -0.1945  0.1802 -0.1922
  467TIP3    H1 1365   1.134   6.211   1.908 -0.4094  0.6916  0.1939
  467TIP3    H2 1366   1.033   6.232   1.797  0.3353 -0.7245 -0.7948
  468TIP3   OH2 1367   5.117   5.120   3.036  0.0491 -0.1035 -0.3224
  468TIP3    H1 1368   5.036   5.093   3.079 -0.1275 -0.1942 -0.7110
  468TIP3    H2 1369   5.094   5.127   2.944 -0.4866  3.3183 -0.0885
  469TIP3   OH2 1370   6.630   0.912   2.487 -0.6161 -0.5543 -0.3251
  469TIP3    H1 1371   6.698   0.860   2.531 -0.9206 -1.8051 -1.2658
  469TIP3    H2 1372   6.657   0.913   2.395 -0.1598  1.7417 -0.2347
  470TIP3   OH2 1373   2.108   1.943   0.763  0.1209 -0.7163 -0.1655
  470TIP3    H1 1374   2.029   1.994   0.742  0.7132  0.0122 -0.6563
  470TIP3    H2 1375   2.076   1.853   0.771 -0.5441 -0.6654 -1.7859
  471TIP3   OH2 1376   1.255   3.756   3.711 -0.1677  0.0001  0.5107
  471TIP3    H1 1377   1.325   3.746   3.647  1.9581  0.3127  2.6292
  471TIP3    H2 1378   1.199   3.825   3.675  1.2216  0.5001 -0.8008
  472TIP3   OH2 1379   2.655   0.841   2.000  0.1901  0.0175 -0.3367
  472TIP3    H1 1380   2.662   0.936   1.996  0.4679  0.0632  0.8367
  472TIP3    H2 1381   2.701   0.817   2.080  1.1674 -1.2204 -1.2299
  473TIP3   OH2 1382   5.784   3.582   5.816  0.5264 -0.1249  0.3678
  473TIP3    H1 1383   5.696   3.618   5.822  0.3845 -0.6618  2.2855
  473TIP3    H2 1384   5.829   3.618   5.893  1.1062 -2.0546  0.9957
  474TIP3   OH2 1385   2.484   1.798   3.350 -0.3293  0.2058  0.6508
  474TIP3    H1 1386   2.406   1.837   3.312  0.3842 -0.4102 -1.6531
  474TIP3    H2 1387   2.473   1.704   3.336  0.3123  0.0199  1.3269
  475TIP3   OH2 1388   2.314   3.660   2.124 -0.6707 -0.0946 -0.0251
  475TIP3    H1 1389   2.285   3.750   2.112  0.9061  0.3119 -1.2040
  475TIP3    H2 1390   2.265   3.610   2.059 -0.6800  0.1198 -0.1825
  476TIP3   OH2 1391   6.396   4.625   4.971 -0.3589 -0.8025 -0.0450
  476TIP3    H1 1392   6.310   4.658   4.998 -0.2022  0.4115 -0.9537
  476TIP3    H2 1393   6.458   4.688   5.008 -0.0803  0.2888 -2.2455
  477TIP3   OH2 1394   1.039   3.938   5.102 -0.1465  0.0598 -0.0893
  477TIP3    H1 1395   1.070   3.861   5.054  1.4210  0.9243 -0.5413
  477TIP3    H2 1396   0.983   3.984   5.039  0.0242 -0.0127 -0.2971
  478TIP3   OH2 1397   0.027   4.186   1.408 -0.3720 -0.6166  0.3179
  478TIP3    H1 1398   0.082   4.252   1.366 -1.1484  0.8112  1.4412
  478TIP3    H2 1399   0.089   4.130   1.455  0.3535 -1.1611 -1.2157
  479TIP3   OH2 1400   6.225   5.405   2.909  0.5211 -0.4594 -0.1640
  479TIP3    H1 1401   6.293   5.466   2.939 -1.4448  2.1950 -0.7110
  479TIP3    H2 1402   6.172   5.388   2.987 -0.9964  1.4943 -0.6972
  480TIP3   OH2 1403   1.854   2.830   1.673  0.1628  0.3566  0.2567
  480TIP3    H1 1404   1.841   2.923   1.693  1.0696  0.1638  2.0338
  480TIP3    H2 1405   1.940   2.810   1.712  0.1556 -1.1344 -0.4368
  481TIP3   OH2 1406   6.495   5.355   4.414 -0.5224 -0.3413  0.3990
  481TIP3    H1 1407   6.444   5.318   4.486 -2.2512 -0.0338 -0.6127
  481TIP3    H2 1408   6.438   5.348   4.338 -0.2805  2.7505 -0.2093
  482TIP3   OH2 1409   3.982   2.437   1.882  0.1281  0.2753  1.2142
  482TIP3    H1 1410   3.897   2.469   1.851  0.3550 -0.1334  0.0978
  482TIP3    H2 1411   3.961   2.356   1.929 -0.2252  0.8789  2.1034
  483TIP3   OH2 1412   5.779   1.570   0.089 -0.4593 -0.2684  0.1173
  483TIP3    H1 1413   5.698   1.566   0.037 -1.1567  0.1280  1.1534
  483TIP3    H2 1414   5.849   1.572   0.023 -1.3530  1.2302 -0.8476
  484TIP3   OH2 1415   2.274   4.403   3.630  0.4622 -0.4635 -0.2647
  484TIP3    H1 1416   2.264   4.308   3.632 -0.7868 -0.3401 -0.2634
  484TIP3    H2 1417   2.204   4.436   3.687 -1.0623  0.5857 -2.5899
  485TIP3   OH2 1418   3.408   2.091   1.330  0.6846  0.6849 -0.0478
  485TIP3    H1 1419   3.399   2.124   1.420 -1.4085  0.1195 -0.0032
  485TIP3    H2 1420   3.384   2.165   1.275 -2.6401 -0.2148  0.0228
  486TIP3   OH2 1421   0.868   3.471   1.548  0.3777 -0.6708  0.2074
  486TIP3    H1 1422   0.919   3.515   1.480  0.8103 -2.2292 -0.5141
  486TIP3    H2 1423   0.875   3.378   1.527 -2.0155 -1.0024  0.6182
  487TIP3   OH2 1424   6.589   3.232   3.064 -0.1160  0.2199 -0.4226
  487TIP3    H1 1425   6.521   3.288   3.025 -0.3175  0.5975  0.4502
  487TIP3    H2 1426   6.647   3.293   3.109 -0.6038 -0.2984  0.9404
  488TIP3   OH2 1427   1.240   0.542   2.151 -0.1904  0.0921 -0.0065
  488TIP3    H1 1428   1.314   0.506   2.200  0.9753  0.5554 -1.3804
  488TIP3    H2 1429   1.167   0.483   2.172  1.1380 -1.8104 -0.4883
  489TIP3   OH2 1430   2.228   2.788   3.142 -0.1385  0.2358 -0.2284
  489TIP3    H1 1431   2.263   2.716   3.195 -1.0392 -0.3066 -0.3535
  489TIP3    H2 1432   2.266   2.774   3.055  1.4202  1.1804  0.2457
  490TIP3   OH2 1433   4.467   6.482   0.989  0.4819  0.1340  0.0687
  490TIP3    H1 1434   4.447   6.562   0.940 -0.1948 -0.4504 -0.6333
  490TIP3    H2 1435   4.491   6.418   0.922  0.1541 -0.5060  0.5474
  491TIP3   OH2 1436   1.437   1.977   3.469  0.2793  0.1157 -0.6163
  491TIP3    H1 1437   1.372   1.996   3.537  1.0233  0.6525 -0.0305
  491TIP3    H2 1438   1.408   2.027   3.393 -0.4705 -0.3558 -0.6458
  492TIP3   OH2 1439   6.108   1.868   5.761 -0.3943  0.1982 -0.0512
  492TIP3    H1 1440   6.121   1.949   5.810 -2.9782  1.2418 -0.9209
  492TIP3    H2 1441   6.121   1.798   5.826  2.5770  1.1715  0.5538
  493TIP3   OH2 1442   0.238   1.427   4.976 -0.5809 -0.5212  0.5831
  493TIP3    H1 1443   0.274   1.441   5.063 -0.2699 -0.9652  0.5283
  493TIP3    H2 1444   0.155   1.476   4.976  0.2083  0.8614  0.5592
  494TIP3   OH2 1445   5.289   3.595   4.331 -0.1005  0.1865  0.7405
  494TIP3    H1 1446   5.312   3.636   4.415  1.7655 -0.0572  0.3791
  494TIP3    H2 1447   5.316   3.504   4.341 -0.2983  0.0451  0.0234
  495TIP3   OH2 1448   4.152   5.029   4.934 -0.4431 -0.0475  0.9371
  495TIP3    H1 1449   4.233   4.983   4.955 -0.0678  0.3173  0.3235
  495TIP3    H2 1450   4.099   5.022   5.014  1.2532  1.9754  2.3507
  496TIP3   OH2 1451   5.831   6.090   5.662 -0.0441 -0.5123  0.5271
  496TIP3    H1 1452   5.898   6.068   5.598 -0.7492 -2.4435  0.3724
  496TIP3    H2 1453   5.879   6.104   5.743  0.8677  2.0511 -0.3767
  497TIP3   OH2 1454   0.702   2.889   0.206  0.5017  0.2196  0.0623
  497TIP3    H1 1455   0.723   2.884   0.299  1.5349 -0.6016 -0.2007
  497TIP3    H2 1456   0.615   2.929   0.203  1.4717  2.6377  1.2601
  498TIP3   OH2 1457   2.530   1.958   4.008 -0.1761  0.3670 -0.2273
  498TIP3    H1 1458   2.564   1.982   3.922  0.6384 -0.9339 -0.2858
  498TIP3    H2 1459   2.607   1.932   4.059 -0.8908 -1.3176  0.0703
  499TIP3   OH2 1460   3.647   2.588   2.168 -0.6568 -0.4654 -0.3709
  499TIP3    H1 1461   3.719   2.590   2.106 -0.2687  0.3628  0.0883
  499TIP3    H2 1462   3.684   2.553   2.249 -1.3682 -2.3904 -0.8251
  500TIP3   OH2 1463   5.642   5.687   3.315 -0.2924  0.3057 -0.0281
  500TIP3    H1 1464   5.589   5.639   3.379  0.5514 -0.8620 -0.1830
  500TIP3    H2 1465   5.730   5.688   3.352  0.8845 -2.8135 -2.3035
  501TIP3   OH2 1466   3.738   6.289   4.077 -0.2672  0.2338 -0.7411
  501TIP3    H1 1467   3.746   6.278   4.171 -0.2597  0.4580 -0.7159
  501TIP3    H2 1468   3.789   6.216   4.040 -0.8736 -0.2799 -0.5754
  502TIP3   OH2 1469   4.191   5.216   2.019 -0.1487  0.2801  0.2022
  502TIP3    H1 1470   4.286   5.207   2.020 -0.1202  0.5043  1.2609
  502TIP3    H2 1471   4.165   5.194   1.930  0.8415 -0.3060  0.0487
  503TIP3   OH2 1472   6.244   5.615   3.662  0.3486  0.1784  0.1737
  503TIP3    H1 1473   6.330   5.614   3.619  0.1058  0.0421 -0.3234
  503TIP3    H2 1474   6.206   5.700   3.637 -0.4384 -0.5492 -1.2118
  504TIP3   OH2 1475   1.376   1.421   1.918 -0.2235 -0.7944 -0.3888
  504TIP3    H1 1476   1.341   1.381   1.997 -1.2004  0.5396 -0.1139
  504TIP3    H2 1477   1.300   1.461   1.876  0.6304  0.3445 -0.8908
  505TIP3   OH2 1478   2.176   0.633   2.288 -0.6153  0.0091  0.0687
  505TIP3    H1 1479   2.178   0.719   2.330 -0.0994 -0.6085  1.3617
  505TIP3    H2 1480   2.267   0.604   2.288 -0.9006 -0.9626  0.5868
  506TIP3   OH2 1481   2.781   2.849   4.591 -0.1954 -0.5441 -0.6090
  506TIP3    H1 1482   2.694   2.810   4.605 -1.5476  2.3629 -0.2405
  506TIP3    H2 1483   2.763   2.941   4.570  2.7502 -0.2076 -2.1620
  507TIP3   OH2 1484   6.046   2.136   0.286  0.3165  0.0974 -0.0637
  507TIP3    H1 1485   5.956   2.112   0.309 -0.1939  0.8310 -1.1977
  507TIP3    H2 1486   6.067   2.209   0.344  0.1699 -0.0515  0.1784
  508TIP3   OH2 1487   2.998   0.716   1.434 -0.5269 -0.3960  0.0191
  508TIP3    H1 1488   2.985   0.805   1.400  2.2633  0.4986  0.9846
  508TIP3    H2 1489   2.926   0.704   1.497 -2.3155  0.1852 -1.8045
  509TIP3   OH2 1490   0.875   4.004   0.426 -0.5743 -0.0327  0.5611
  509TIP3    H1 1491   0.863   3.990   0.520 -3.1848  1.6772  0.6009
  509TIP3    H2 1492   0.804   3.954   0.385 -0.0086 -0.0447 -0.4356
  510TIP3   OH2 1493   1.667   0.033   4.255  0.6609  0.1710 -0.0100
  510TIP3    H1 1494   1.742   0.006   4.203  1.9743  1.2185  1.2443
  510TIP3    H2 1495   1.606   0.071   4.192  0.7929 -1.4280 -1.1540
  511TIP3   OH2 1496   1.620   1.400   1.426  0.2836  0.3336  0.0344
  511TIP3    H1 1497   1.597   1.486   1.461 -1.2577  0.1746 -0.5181
  511TIP3    H2 1498   1.715   1.395   1.435  0.3179  1.8008  0.7238
  512TIP3   OH2 1499   2.578   4.617   4.707 -0.5248 -0.3887  0.5774
  512TIP3    H1 1500   2.646   4.684   4.704 -1.2669  0.3523 -1.4580
  512TIP3    H2 1501   2.615   4.548   4.761  0.9291  0.9468  1.3777
  513TIP3   OH2 1502   3.357   1.932   0.980  0.9475  0.7281 -0.1223
  513TIP3    H1 1503   3.375   1.894   0.894 -2.0336  0.4725 -0.7507
  513TIP3    H2 1504   3.441   1.931   1.025  2.3856 -0.1352 -2.6296
  514TIP3   OH2 1505   6.875   0.329   4.689 -0.1029  0.0688  0.1632
  514TIP3    H1 1506   6.788   0.324   4.729  0.0769  0.6011  0.6297
  514TIP3    H2 1507   6.921   0.252   4.723 -0.5694 -0.5420 -0.5445
  515TIP3   OH2 1508   1.027   6.109   4.248 -0.2372 -0.0454  0.1587
  515TIP3    H1 1509   1.093   6.175   4.269  0.6617 -0.5599 -0.9632
  515TIP3    H2 1510   0.950   6.160   4.222  0.4536  0.5928 -0.7274
  516TIP3   OH2 1511   4.287   6.240   3.087 -0.6101  0.0129 -0.0320
  516TIP3    H1 1512   4.249   6.301   3.024 -2.4611 -0.6331  0.3855
  516TIP3    H2 1513   4.212   6.199   3.128  0.5817 -1.3324  0.8976
  517TIP3   OH2 1514   6.953   5.581   0.060  0.3867 -0.1327 -0.4895
  517TIP3    H1 1515   6.990   5.591  -0.027 -1.0856  1.3146 -1.0164
  517TIP3    H2 1516   6.882   5.518   0.049  2.2906 -2.5890  0.4276
  518TIP3   OH2 1517   0.771   6.064   4.874  0.4545 -0.5868 -0.1007
  518TIP3    H1 1518   0.805   6.138   4.822 -0.2601 -1.8141 -2.4830
  518TIP3    H2 1519   0.711   6.104   4.936 -0.0456  0.8749 -1.4459
  519TIP3   OH2 1520   6.621   5.702   5.340  0.3664  0.5622 -0.2350
  519TIP3    H1 1521   6.557   5.751   5.287  0.6041  0.2726 -0.8010
  519TIP3    H2 1522   6.596   5.611   5.327  0.5499  0.4796  0.0029
  520TIP3   OH2 1523   6.114   2.632   5.762 -0.1497  0.3437  0.4215
  520TIP3    H1 1524   6.160   2.554   5.733 -4.3463 -2.3687  0.2295
  520TIP3    H2 1525   6.121   2.693   5.688  0.0389 -1.3965 -1.0572
  521TIP3   OH2 1526   5.964   3.648   5.617 -0.0132 -0.6674 -0.0167
  521TIP3    H1 1527   6.027   3.577   5.629 -0.3686 -0.8913  0.5270
  521TIP3    H2 1528   5.914   3.650   5.698  0.6183  0.8279  0.3646
  522TIP3   OH2 1529   4.354   0.315   1.799  0.0085  0.0763  0.0238
  522TIP3    H1 1530   4.288   0.250   1.822  1.1574 -1.0477  0.2881
  522TIP3    H2 1531   4.328   0.394   1.847 -2.0965  0.2424 -1.2524
  523TIP3   OH2 1532   2.303   1.436   5.693  0.9642 -0.1557 -0.3481
  523TIP3    H1 1533   2.222   1.474   5.728  0.1485 -2.0139 -0.1295
  523TIP3    H2 1534   2.370   1.502   5.713  0.2363 -0.2553  3.1000
  524TIP3   OH2 1535   1.756   1.259   4.360 -0.5440 -0.9192 -0.0687
  524TIP3    H1 1536   1.700   1.182   4.371 -0.0285 -1.3494 -0.4302
  524TIP3    H2 1537   1.809   1.240   4.283  1.1437 -1.1657  1.0967
  525TIP3   OH2 1538   3.252   1.058   1.398  0.3609 -1.1702 -0.5736
  525TIP3    H1 1539   3.293   1.036   1.481  0.0169 -0.8791 -0.3213
  525TIP3    H2 1540   3.262   0.980   1.344  0.3477 -1.4558 -0.1631
  526TIP3   OH2 1541   4.694   2.391   1.752  0.0361  0.3654 -0.5392
  526TIP3    H1 1542   4.611   2.424   1.785 -0.1882  0.1493 -0.8800
  526TIP3    H2 1543   4.674   2.360   1.664  0.9061  2.1066 -1.3893
  527TIP3   OH2 1544   3.765   5.093   2.993  0.4006  0.2082 -0.0281
  527TIP3    H1 1545   3.675   5.112   2.970 -0.0804 -1.7162  0.1090
  527TIP3    H2 1546   3.765   5.091   3.089  0.4728 -0.2863 -0.0375
  528TIP3   OH2 1547   2.234   6.680   0.240 -0.2610  0.1216  0.6627
  528TIP3    H1 1548   2.251   6.656   0.149 -0.2592  0.0946  0.6701
  528TIP3    H2 1549   2.214   6.597   0.284 -1.4869  0.2813  0.4319
  529TIP3   OH2 1550   6.786   4.233   1.037  0.2427 -0.1921  0.0264
  529TIP3    H1 1551   6.788   4.324   1.066  1.0968 -0.3577  0.5046
  529TIP3    H2 1552   6.859   4.226   0.976  0.4924 -0.6814  0.3767
  530TIP3   OH2 1553   6.851   0.397   4.086  0.0905 -0.0711 -0.4896
  530TIP3    H1 1554   6.871   0.486   4.056  0.0243 -0.3176 -1.2885
  530TIP3    H2 1555   6.910   0.342   4.035 -0.6617 -0.5775 -0.8129
  531TIP3   OH2 1556   5.523   5.317   2.246  0.0816 -0.2564  0.4625
  531TIP3    H1 1557   5.532   5.369   2.326 -0.1166  2.7203 -1.2727
  531TIP3    H2 1558   5.429   5.321   2.226  0.3400  0.3933 -0.6946
  532TIP3   OH2 1559   2.563   5.414   3.616 -0.1662  0.0758 -0.3592
  532TIP3    H1 1560   2.594   5.404   3.707 -0.2960 -3.9148 -0.5485
  532TIP3    H2 1561   2.470   5.433   3.625 -0.1960 -0.3408  0.3981
  533TIP3   OH2 1562   5.599   4.767   4.238 -0.2896  0.6972 -0.5727
  533TIP3    H1 1563   5.541   4.749   4.312 -0.9540  0.2336 -1.1869
  533TIP3    H2 1564   5.564   4.713   4.167  2.0166 -1.1121 -0.4723
  534TIP3   OH2 1565   6.468   0.100   4.053 -0.0478 -0.6985  0.0012
  534TIP3    H1 1566   6.411   0.171   4.025  0.8477 -0.0058 -0.1231
  534TIP3    H2 1567   6.535   0.143   4.106  0.6750 -1.4081 -0.3146
  535TIP3   OH2 1568   6.022   6.638   4.281  0.2481  0.0685 -0.5239
  535TIP3    H1 1569   6.059   6.714   4.237  0.4659  1.1394  1.3831
  535TIP3    H2 1570   5.929   6.659   4.293  0.7049  1.1097  1.9136
  536TIP3   OH2 1571   0.510   3.444   1.013  0.0763  0.1005  0.4039
  536TIP3    H1 1572   0.505   3.349   1.010 -0.4347  0.1196  0.4729
  536TIP3    H2 1573   0.564   3.463   1.090 -1.1651 -0.1216  1.3822
  537TIP3   OH2 1574   5.894   4.862   2.916 -0.4255 -0.1494 -0.3245
  537TIP3    H1 1575   5.816   4.906   2.883 -0.6296 -0.4813 -0.2908
  537TIP3    H2 1576   5.944   4.931   2.961  0.3649  0.5391 -2.1705
  538TIP3   OH2 1577   4.458   3.831   1.959 -0.2945 -0.4307  0.5501
  538TIP3    H1 1578   4.375   3.799   1.996 -0.7707  0.5795  0.3981
  538TIP3    H2 1579   4.432   3.901   1.899  0.7806  2.0139  2.7108
  539TIP3   OH2 1580   5.285   3.618   3.537  0.0377 -0.3146  0.4127
  539TIP3    H1 1581   5.190   3.621   3.548 -0.0742 -0.2552 -0.4817
  539TIP3    H2 1582   5.299   3.645   3.446  0.8976 -0.5327  0.4763
  540TIP3   OH2 1583   6.723   4.339   3.702 -0.2371  0.0281  0.7786
  540TIP3    H1 1584   6.652   4.402   3.699 -1.7130 -1.4291 -3.4702
  540TIP3    H2 1585   6.799   4.387   3.667 -0.1566  0.5405  1.6321
  541TIP3   OH2 1586   1.605   4.545   0.692  0.2875 -0.1937  0.1258
  541TIP3    H1 1587   1.619   4.616   0.754  1.3303 -0.4270  0.1803
  541TIP3    H2 1588   1.556   4.585   0.620  2.9778  1.2573 -1.0202
  542TIP3   OH2 1589   5.923   3.573   3.209  0.0555 -0.3372  0.2946
  542TIP3    H1 1590   5.834   3.579   3.174  0.7771 -0.1584 -1.6501
  542TIP3    H2 1591   5.927   3.641   3.276 -0.9366  0.4628 -0.4247
  543TIP3   OH2 1592   5.272   1.504   0.818  0.0830 -0.1955  0.0335
  543TIP3    H1 1593   5.264   1.505   0.914  1.4449 -1.0263  0.1864
  543TIP3    H2 1594   5.309   1.590   0.797 -0.8237  0.2386  0.1763
  544TIP3   OH2 1595   7.011   2.642   4.107  0.8156  0.0242  0.3208
  544TIP3    H1 1596   7.067   2.690   4.168  1.6707 -0.1710 -0.2847
  544TIP3    H2 1597   7.035   2.550   4.120  2.6012  0.1013 -1.7643
  545TIP3   OH2 1598   1.854   4.254   3.862 -0.3099 -0.4175 -0.3898
  545TIP3    H1 1599   1.759   4.264   3.861 -0.2887 -0.0618 -2.1375
  545TIP3    H2 1600   1.872   4.204   3.942 -1.9644 -0.6549 -0.1227
  546TIP3   OH2 1601   2.984   2.225   1.337 -0.1800  0.8549  0.6307
  546TIP3    H1 1602   2.946   2.197   1.254  0.9247  1.6575 -0.1736
  546TIP3    H2 1603   2.915   2.276   1.380 -0.1145  2.1620 -0.7300
  547TIP3   OH2 1604   0.661   5.420   1.795  0.2210 -0.0316  0.6060
  547TIP3    H1 1605   0.567   5.415   1.813 -0.0111  0.2970 -0.4183
  547TIP3    H2 1606   0.699   5.349   1.846 -0.5549 -0.0025  1.2353
  548TIP3   OH2 1607   1.138   5.145   5.439  0.2699 -0.0782  0.0025
  548TIP3    H1 1608   1.067   5.090   5.472 -0.1975  0.2887 -0.3768
  548TIP3    H2 1609   1.100   5.190   5.363  1.2030 -0.6075 -0.7949
  549TIP3   OH2 1610   4.537   4.537   3.260  0.1091  0.3892 -0.7265
  549TIP3    H1 1611   4.606   4.475   3.236 -1.0431 -1.1603 -0.2505
  549TIP3    H2 1612   4.457   4.500   3.222 -0.7207  1.2651  0.0902
  550TIP3   OH2 1613   6.276   0.754   1.958 -0.8748 -0.4125 -0.1758
  550TIP3    H1 1614   6.244   0.664   1.952  0.3113 -0.7860 -1.5265
  550TIP3    H2 1615   6.312   0.772   1.872 -1.4528  1.5225 -0.0488
  551TIP3   OH2 1616   2.664   5.329   5.508  0.2005  0.2032  0.3311
  551TIP3    H1 1617   2.573   5.349   5.489  1.0186  1.4409 -3.1406
  551TIP3    H2 1618   2.697   5.406   5.554 -0.4594 -0.2089  1.5070
  552TIP3   OH2 1619   5.382   4.047   1.271 -0.1183  0.0928  0.3127
  552TIP3    H1 1620   5.366   4.036   1.365  1.3965  1.9091  0.8505
  552TIP3    H2 1621   5.397   3.958   1.239  0.5703 -0.4704  2.0432
  553TIP3   OH2 1622   6.246   0.814   4.633 -0.7371 -0.2960  0.4352
  553TIP3    H1 1623   6.259   0.772   4.718  1.8970 -1.9249 -0.6486
  553TIP3    H2 1624   6.300   0.893   4.637  1.0488 -1.4196 -0.3376
  554TIP3   OH2 1625   5.248   0.168   0.796 -0.2175  0.2207  0.2809
  554TIP3    H1 1626   5.265   0.107   0.724 -0.6306  0.4403 -0.0034
  554TIP3    H2 1627   5.292   0.249   0.769  0.0157  0.1629  0.4869
  555TIP3   OH2 1628   2.357   3.793   4.610 -0.0106 -0.2617 -0.1070
  555TIP3    H1 1629   2.387   3.763   4.696  0.7911 -1.0028 -0.6247
  555TIP3    H2 1630   2.262   3.794   4.617  0.0155 -1.0700  0.5601
  556TIP3   OH2 1631   3.149   5.673   3.140 -0.1806 -0.1522  0.1557
  556TIP3    H1 1632   3.240   5.663   3.112 -0.1958  1.7747 -0.7438
  556TIP3    H2 1633   3.112   5.585   3.134  1.2503 -0.7140 -0.8555
  557TIP3   OH2 1634   6.112   5.423   2.399  0.4873 -0.2232  0.3100
  557TIP3    H1 1635   6.182   5.487   2.389  0.0704  0.2740  0.4961
  557TIP3    H2 1636   6.142   5.364   2.467  2.1423 -1.9751 -1.8306
  558TIP3   OH2 1637   1.953   6.417   5.170 -0.1397  0.3400  0.3613
  558TIP3    H1 1638   2.026   6.479   5.168  0.1286  0.0135 -0.2770
  558TIP3    H2 1639   1.882   6.463   5.125  0.0931  0.1572 -0.2108
  559TIP3   OH2 1640   0.933   6.422   2.636  0.7479 -0.2015 -0.7265
  559TIP3    H1 1641   0.956   6.498   2.689  1.3911 -1.0614  0.2696
  559TIP3    H2 1642   0.874   6.456   2.568  1.7142  1.3338 -0.8419
  560TIP3   OH2 1643   5.815   1.424   5.247  0.1043 -0.0167  0.1433
  560TIP3    H1 1644   5.860   1.429   5.331  0.2200  0.8437  0.0364
  560TIP3    H2 1645   5.791   1.515   5.226  1.4117  0.0177 -1.4744
  561TIP3   OH2 1646   4.435   2.037   3.428  0.0901 -0.1115  0.8692
  561TIP3    H1 1647   4.396   1.955   3.398 -1.1928  0.8756 -0.2642
  561TIP3    H2 1648   4.494   2.063   3.358 -0.5488  0.6126  0.5845
  562TIP3   OH2 1649   4.848   6.770   5.487  0.5489  0.4038  0.0807
  562TIP3    H1 1650   4.811   6.812   5.565  1.8404 -0.7256  1.3890
  562TIP3    H2 1651   4.797   6.690   5.477  1.9843 -0.7431  1.3905
  563TIP3   OH2 1652   5.108   3.638   5.538 -0.8394  0.1482  0.5241
  563TIP3    H1 1653   5.145   3.683   5.462  0.5751 -2.1798 -0.2798
  563TIP3    H2 1654   5.034   3.589   5.503 -0.2950 -0.7885  0.6590
  564TIP3   OH2 1655   2.358   1.288   4.612  0.2101  0.2367 -1.2442
  564TIP3    H1 1656   2.373   1.212   4.556 -1.7089 -0.1485 -1.3133
  564TIP3    H2 1657   2.335   1.252   4.697 -1.3315  0.6605 -1.4358
  565TIP3   OH2 1658   5.019   1.165   1.071  0.3196  0.2571  0.4700
  565TIP3    H1 1659   5.016   1.117   0.988 -1.7793 -1.7564  1.5504
  565TIP3    H2 1660   4.952   1.233   1.061 -0.1278 -0.1574  0.5637
  566TIP3   OH2 1661   6.039   0.248   2.815 -0.2806 -0.0784  0.6366
  566TIP3    H1 1662   5.958   0.229   2.768 -0.0948  1.8335 -0.5484
  566TIP3    H2 1663   6.054   0.170   2.869 -1.3122 -1.7417 -1.3372
  567TIP3   OH2 1664   0.478   4.510   1.940  0.5633  0.3182  0.2569
  567TIP3    H1 1665   0.459   4.434   1.995  2.5492 -1.0017 -0.7322
  567TIP3    H2 1666   0.523   4.473   1.864 -0.9047  2.2179 -1.6386
  568TIP3   OH2 1667   0.629   3.811   2.776 -0.4456 -0.5811 -0.0450
  568TIP3    H1 1668   0.616   3.906   2.775 -1.8055 -0.7342  0.2104
  568TIP3    H2 1669   0.541   3.776   2.790  0.0159 -1.8880 -0.3187
  569TIP3   OH2 1670   4.154   5.715   5.465 -0.1499 -0.3192 -0.4014
  569TIP3    H1 1671   4.233   5.760   5.436 -0.5701  1.2693  0.7893
  569TIP3    H2 1672   4.082   5.771   5.435 -0.6549  0.2441  1.7162
  570TIP3   OH2 1673   6.196   5.387   0.641 -0.4032  0.2430 -0.0220
  570TIP3    H1 1674   6.213   5.296   0.667 -2.6436 -0.5100 -0.9924
  570TIP3    H2 1675   6.230   5.439   0.715 -1.8543 -1.5334  2.0303
  571TIP3   OH2 1676   3.228   3.837   2.338 -0.2235 -0.8811  0.5027
  571TIP3    H1 1677   3.312   3.791   2.347  0.8966  1.1879  1.4234
  571TIP3    H2 1678   3.189   3.833   2.425  0.0952  0.2017  0.7153
  572TIP3   OH2 1679   2.896   0.978   0.269 -0.1702 -0.4234 -0.6557
  572TIP3    H1 1680   2.986   0.948   0.258  0.5259  1.7811 -1.3773
  572TIP3    H2 1681   2.844   0.898   0.259  1.7224 -2.0360  1.3587
  573TIP3   OH2 1682   7.103   5.473   5.575  0.0796  0.2616  0.4555
  573TIP3    H1 1683   7.026   5.417   5.567 -0.2958  0.6068  1.5264
  573TIP3    H2 1684   7.110   5.515   5.489 -0.4736 -0.3375  0.1048
  574TIP3   OH2 1685   5.727   3.644   5.460  0.3225  0.2491  0.2067
  574TIP3    H1 1686   5.702   3.560   5.423  1.7581  0.0675 -0.4080
  574TIP3    H2 1687   5.809   3.626   5.507  0.4074  1.2138  0.4505
  575TIP3   OH2 1688   5.632   6.399   4.246 -0.1292  0.4332 -0.2918
  575TIP3    H1 1689   5.584   6.460   4.191  1.9950  1.4109 -1.1943
  575TIP3    H2 1690   5.719   6.394   4.206  0.0132 -2.7009  0.1315
  576TIP3   OH2 1691   5.839   6.106   1.130 -0.2441  0.0791  0.3668
  576TIP3    H1 1692   5.933   6.124   1.129 -0.1563 -0.2521  1.3180
  576TIP3    H2 1693   5.802   6.174   1.185 -0.6989  0.7240 -0.6989
  577TIP3   OH2 1694   1.340   6.480   0.108  0.0082  0.2037 -0.2471
  577TIP3    H1 1695   1.284   6.410   0.076 -0.8739  0.6039  0.3578
  577TIP3    H2 1696   1.385   6.443   0.184  0.8989 -0.2511 -0.9850
  578TIP3   OH2 1697   5.223   1.605   2.234 -0.4106 -0.6564 -0.4688
  578TIP3    H1 1698   5.315   1.611   2.258 -0.7692  0.6776  0.7296
  578TIP3    H2 1699   5.177   1.656   2.302 -2.0986 -1.9209 -0.5933
  579TIP3   OH2 1700   3.397   5.949   1.683 -0.0770  0.1873 -0.4845
  579TIP3    H1 1701   3.409   6.021   1.622  1.9375 -1.2594 -1.8966
  579TIP3    H2 1702   3.483   5.935   1.722 -0.9671  0.0520  1.5913
  580TIP3   OH2 1703   0.847   2.300   0.401  0.1349 -0.4457 -0.1845
  580TIP3    H1 1704   0.868   2.392   0.385 -2.9560  0.2724 -0.7121
  580TIP3    H2 1705   0.828   2.265   0.315 -2.3392 -0.5038  0.3109
  581TIP3   OH2 1706   4.960   2.357   3.929 -0.0358  0.3690 -0.3029
  581TIP3    H1 1707   5.039   2.304   3.921 -0.1362  0.3243 -1.1595
  581TIP3    H2 1708   4.947   2.367   4.023  0.3753 -0.5385 -0.1364
  582TIP3   OH2 1709   1.147   3.345   4.596 -0.0228 -0.6323  0.3466
  582TIP3    H1 1710   1.089   3.287   4.546  0.5538 -0.8180 -0.1188
  582TIP3    H2 1711   1.122   3.433   4.569 -0.2971 -0.6983  0.3808
  583TIP3   OH2 1712   4.525   2.177   1.288  0.2684 -0.1730  0.1967
  583TIP3    H1 1713   4.438   2.160   1.322  0.0714 -0.4918 -0.4462
  583TIP3    H2 1714   4.521   2.150   1.196  1.5352 -1.9125  0.5909
  584TIP3   OH2 1715   4.576   4.792   3.390 -0.0685 -0.7940 -0.1713
  584TIP3    H1 1716   4.584   4.708   3.346 -0.1560  0.3154 -2.4412
  584TIP3    H2 1717   4.485   4.818   3.375  0.9279  1.5379 -3.2709
  585TIP3   OH2 1718   1.804   4.774   0.416  0.1524  0.4041  0.3562
  585TIP3    H1 1719   1.712   4.799   0.403  0.3081  1.3567  1.0407
  585TIP3    H2 1720   1.851   4.817   0.345  0.0542 -0.2821 -0.1397
  586TIP3   OH2 1721   2.819   3.775   4.136  0.1281  0.2737  0.5418
  586TIP3    H1 1722   2.864   3.857   4.118  1.7707 -0.4017  1.3989
  586TIP3    H2 1723   2.751   3.799   4.199  0.9022  0.9116  1.1580
  587TIP3   OH2 1724   5.337   0.338   4.623  0.5100  0.4783  0.5872
  587TIP3    H1 1725   5.285   0.279   4.678 -0.7638  0.5023 -0.5440
  587TIP3    H2 1726   5.273   0.380   4.566  1.7450  0.7520 -0.6508
  588TIP3   OH2 1727   6.628   1.672   0.188 -0.4010  0.5698 -0.2256
  588TIP3    H1 1728   6.602   1.764   0.180 -0.4507  0.6937  1.1457
  588TIP3    H2 1729   6.721   1.671   0.164  0.1015  1.3253  1.5064
  589TIP3   OH2 1730   2.393   1.601   2.577 -0.0219 -0.5524 -0.2350
  589TIP3    H1 1731   2.407   1.696   2.581 -0.2694 -0.4289 -1.6606
  589TIP3    H2 1732   2.481   1.564   2.576  0.0779 -0.3267  0.1029
  590TIP3   OH2 1733   0.080   5.659   4.039 -0.3380 -0.0641  0.4313
  590TIP3    H1 1734  -0.006   5.631   4.008  0.2303 -1.4594  0.0403
  590TIP3    H2 1735   0.133   5.668   3.960  0.2554 -0.6024  0.7511
  591TIP3   OH2 1736   0.110   3.256   1.597 -0.5351 -0.2318 -0.3432
  591TIP3    H1 1737   0.033   3.270   1.543 -0.1305  1.1020 -0.6245
  591TIP3    H2 1738   0.169   3.329   1.575  0.9700 -1.4149 -0.4265
  592TIP3   OH2 1739   2.165   5.384   3.129  0.8556  0.4275  0.6288
  592TIP3    H1 1740   2.086   5.354   3.083  0.6077  1.9702 -0.0288
  592TIP3    H2 1741   2.236   5.333   3.091  0.3410 -0.0545  0.2911
  593TIP3   OH2 1742   2.371   0.675   1.325 -0.3089 -0.5149  0.0264
  593TIP3    H1 1743   2.447   0.620   1.303 -0.8918  0.3214 -5.2275
  593TIP3    H2 1744   2.409   0.760   1.346  0.2922 -1.0351  1.1348
  594TIP3   OH2 1745   1.811   4.899   1.120 -0.1844  0.3048 -0.0916
  594TIP3    H1 1746   1.892   4.915   1.071  0.0955 -1.0319 -0.0931
  594TIP3    H2 1747   1.746   4.953   1.076  0.2018 -0.3766 -1.5508
  595TIP3   OH2 1748   0.991   5.594   3.457 -0.3426  0.0040  0.7796
  595TIP3    H1 1749   0.982   5.526   3.391  0.1783 -0.0578  0.7739
  595TIP3    H2 1750   0.901   5.625   3.472 -0.5725 -0.6490  0.7532
  596TIP3   OH2 1751   4.299   2.893   2.359 -0.1067  0.1428 -0.1515
  596TIP3    H1 1752   4.382   2.860   2.323  2.0115  1.7324  2.7574
  596TIP3    H2 1753   4.268   2.823   2.417 -0.1319  0.0195 -0.3139
  597TIP3   OH2 1754   2.401   6.792   0.427 -0.2495 -0.1074  0.3750
  597TIP3    H1 1755   2.471   6.729   0.445 -0.0250  0.1945  0.5603
  597TIP3    H2 1756   2.351   6.752   0.356 -1.6714 -1.7677  2.2099
  598TIP3   OH2 1757   2.302   3.003   3.351 -0.3617  0.3551  0.3414
  598TIP3    H1 1758   2.386   3.019   3.393 -0.8684  0.0616  1.5018
  598TIP3    H2 1759   2.313   2.920   3.306  0.4054  1.0084 -0.7187
  599TIP3   OH2 1760   5.263   1.330   5.003  0.4604 -0.1929  0.0667
  599TIP3    H1 1761   5.317   1.359   4.929 -1.0739 -0.9580 -1.4119
  599TIP3    H2 1762   5.189   1.391   5.005  1.4376  1.0702  2.3074
  600TIP3   OH2 1763   0.644   4.544   5.823 -0.1164  0.3369  0.1493
  600TIP3    H1 1764   0.579   4.484   5.787  0.4837 -0.8120  0.9109
  600TIP3    H2 1765   0.600   4.583   5.899  0.0365 -0.3545  0.5978
  601TIP3   OH2 1766   0.214   4.638   5.488 -0.2556  0.1980  0.0902
  601TIP3    H1 1767   0.219   4.717   5.542 -0.0265  0.3063 -0.0868
  601TIP3    H2 1768   0.143   4.588   5.526 -1.3881  1.1650 -0.6856
  602TIP3   OH2 1769   5.949   1.949   3.828 -0.0669  0.1939 -0.0326
  602TIP3    H1 1770   6.008   1.967   3.755  1.9919 -1.4719  1.1020
  602TIP3    H2 1771   5.927   2.035   3.864 -0.7284  1.0101 -2.2604
  603TIP3   OH2 1772   2.487   0.388   5.626  0.4395 -0.1160  0.2869
  603TIP3    H1 1773   2.511   0.360   5.538  0.2062 -0.2879  0.2776
  603TIP3    H2 1774   2.571   0.412   5.667  0.7886 -1.7475  0.6157
  604TIP3   OH2 1775   3.988   4.946   1.254  0.4010 -0.0514  0.9749
  604TIP3    H1 1776   3.948   5.032   1.259  4.2415  2.2687 -2.1479
  604TIP3    H2 1777   4.045   4.941   1.331  0.8885  0.6817  0.6718
  605TIP3   OH2 1778   4.636   0.653   2.544 -0.2815 -0.0759  0.4503
  605TIP3    H1 1779   4.720   0.622   2.510 -1.6146 -1.2967 -1.9691
  605TIP3    H2 1780   4.659   0.731   2.595  2.1087  1.0793 -2.0811
  606TIP3   OH2 1781   4.120   0.175   5.658  0.2247 -0.1716  0.2915
  606TIP3    H1 1782   4.039   0.151   5.702  0.7442 -2.2123  0.2209
  606TIP3    H2 1783   4.189   0.148   5.718  0.9578 -3.0495 -1.6505
  607TIP3   OH2 1784   5.003   4.999   2.248  0.6836 -0.2538  0.3605
  607TIP3    H1 1785   5.051   5.002   2.166 -0.5325 -0.5442 -0.3895
  607TIP3    H2 1786   5.043   4.927   2.297  0.9837 -0.5022 -0.2447
  608TIP3   OH2 1787   3.023   0.826   3.131 -0.3616 -0.1874 -0.7662
  608TIP3    H1 1788   2.971   0.871   3.064 -0.0378  1.3578 -0.0287
  608TIP3    H2 1789   3.103   0.877   3.137  0.0761 -0.9460  0.0411
  609TIP3   OH2 1790   1.342   6.318   4.611  0.7804 -0.2994  0.1265
  609TIP3    H1 1791   1.384   6.317   4.526  0.5538  1.0887 -0.0392
  609TIP3    H2 1792   1.405   6.279   4.671  1.6966  0.4115 -0.3644
  610TIP3   OH2 1793   2.289   6.771   0.945  0.3121 -0.1913 -0.1763
  610TIP3    H1 1794   2.277   6.858   0.907  1.6088 -0.5073 -1.3670
  610TIP3    H2 1795   2.211   6.758   1.000 -0.3235  1.3525 -0.6646
  611TIP3   OH2 1796   5.862   1.177   2.873 -0.2720 -0.0656  0.0147
  611TIP3    H1 1797   5.917   1.227   2.813  1.6827 -1.5065  0.4821
  611TIP3    H2 1798   5.867   1.225   2.956  0.5164 -0.3119  0.1178
  612TIP3   OH2 1799   2.663   0.805   2.749 -0.4063  0.5486 -0.3401
  612TIP3    H1 1800   2.751   0.796   2.710  0.9570 -3.4622  2.9472
  612TIP3    H2 1801   2.614   0.731   2.713 -1.0248  0.3099  0.9595
  613TIP3   OH2 1802   3.455   3.480   0.993  0.6239  0.5592  0.1660
  613TIP3    H1 1803   3.458   3.386   1.007 -1.9405  0.2658 -0.6757
  613TIP3    H2 1804   3.478   3.491   0.900  1.1737  0.7845  0.3294
  614TIP3   OH2 1805   0.503   6.246   0.250  0.2042 -0.3449  0.4701
  614TIP3    H1 1806   0.571   6.179   0.254  1.9424  1.3699  1.6951
  614TIP3    H2 1807   0.421   6.198   0.261  1.0565 -2.6063 -1.9467
  615TIP3   OH2 1808   4.436   2.758   0.784 -0.2779 -0.2260 -0.2184
  615TIP3    H1 1809   4.504   2.694   0.765  1.2674  0.9532  1.0532
  615TIP3    H2 1810   4.455   2.832   0.727 -1.9431 -0.7487 -1.5466
  616TIP3   OH2 1811   1.275   1.379   5.004  0.2381 -0.1232  0.5857
  616TIP3    H1 1812   1.289   1.284   5.006  0.4397 -0.0932  0.6394
  616TIP3    H2 1813   1.342   1.411   4.943  0.1045 -0.0261  0.4892
  617TIP3   OH2 1814   5.029   4.177   1.664  0.0741 -0.0984 -0.2497
  617TIP3    H1 1815   4.996   4.087   1.667 -1.2902  0.1366 -3.3315
  617TIP3    H2 1816   5.009   4.213   1.750 -2.7807 -1.7080 -0.1030
  618TIP3   OH2 1817   6.149   1.882   5.131 -0.0704 -0.1262 -0.1210
  618TIP3    H1 1818   6.195   1.935   5.065 -0.5521 -0.2351 -0.5500
  618TIP3    H2 1819   6.199   1.896   5.212 -0.3832  1.2596 -0.1465
  619TIP3   OH2 1820   0.264   3.335   3.207  0.0239 -0.0854 -0.1220
  619TIP3    H1 1821   0.254   3.331   3.302  1.3539 -0.3475  0.0270
  619TIP3    H2 1822   0.176   3.321   3.173 -0.7176  1.4234  1.0907
  620TIP3   OH2 1823   4.866   2.942   5.593 -0.4809 -0.0629 -0.4815
  620TIP3    H1 1824   4.812   2.963   5.516 -0.8750 -2.3275 -0.9109
  620TIP3    H2 1825   4.813   2.971   5.668  0.1691  2.7302 -0.9948
  621TIP3   OH2 1826   2.664   1.451   0.164  0.3694 -0.5850  0.9183
  621TIP3    H1 1827   2.740   1.401   0.137 -0.3493 -1.4847  0.5104
  621TIP3    H2 1828   2.698   1.538   0.184  1.7668 -1.4298  2.4032
  622TIP3   OH2 1829   2.038   4.814   4.892 -0.5604 -0.4861  0.2264
  622TIP3    H1 1830   2.065   4.724   4.872 -0.3431 -0.1223 -1.2601
  622TIP3    H2 1831   1.943   4.814   4.879 -0.5484 -0.4836  0.1362
  623TIP3   OH2 1832   5.027   0.906   4.671  0.2477  0.4202 -0.2329
  623TIP3    H1 1833   4.951   0.850   4.661  0.0531  0.6403 -0.0161
  623TIP3    H2 1834   4.991   0.995   4.674  0.2406  0.4031  2.4461
  624TIP3   OH2 1835   0.121   5.989   0.685  0.3961  0.4313 -0.1344
  624TIP3    H1 1836   0.175   5.910   0.692 -1.6469 -0.8710  2.5140
  624TIP3    H2 1837   0.080   5.982   0.599 -1.4087 -2.6530  0.8322
  625TIP3   OH2 1838   4.495   2.665   0.087 -0.1671  0.1398 -0.3104
  625TIP3    H1 1839   4.584   2.681   0.055 -0.3804  2.1931 -0.0087
  625TIP3    H2 1840   4.442   2.731   0.043 -1.1507  0.3677  1.1395
  626TIP3   OH2 1841   6.594   1.729   0.835  0.0602 -0.4987 -0.0476
  626TIP3    H1 1842   6.513   1.722   0.885  0.0060  0.4753  0.0105
  626TIP3    H2 1843   6.651   1.784   0.889  0.5514 -0.7009 -0.3500
  627TIP3   OH2 1844   1.004   1.884   1.347 -0.1912 -0.1683  0.2912
  627TIP3    H1 1845   0.930   1.860   1.292 -1.8889  1.7855  1.5948
  627TIP3    H2 1846   1.074   1.904   1.285 -2.0602  2.0771 -1.2718
  628TIP3   OH2 1847   0.872   3.506   4.786  0.0999  0.2990  0.0998
  628TIP3    H1 1848   0.875   3.464   4.700  0.4619  0.0338  0.2441
  628TIP3    H2 1849   0.794   3.562   4.781 -0.9683 -1.1134  0.2454
  629TIP3   OH2 1850  -0.010   3.044   1.457  0.4398  0.4982  0.1439
  629TIP3    H1 1851   0.072   3.007   1.424  1.5645  2.6355  0.4185
  629TIP3    H2 1852   0.017   3.105   1.526 -1.5353 -0.2038  1.6345
  630TIP3   OH2 1853   3.559   4.026   5.161 -0.1823 -0.4894  0.3700
  630TIP3    H1 1854   3.617   4.071   5.223 -1.1838  0.3583  0.7125
  630TIP3    H2 1855   3.489   3.991   5.216 -1.8196  1.4216 -0.3677
  631TIP3   OH2 1856   3.999   5.038   2.869 -0.1269 -0.0005 -0.2681
  631TIP3    H1 1857   3.987   5.007   2.780  1.6417 -1.9295  0.0995
  631TIP3    H2 1858   3.912   5.034   2.909 -0.5659 -1.1105 -1.3024
  632TIP3   OH2 1859   2.976   1.709   4.267 -0.0612 -0.0249 -0.0435
  632TIP3    H1 1860   3.064   1.723   4.232 -0.3558 -0.0235 -0.7869
  632TIP3    H2 1861   2.972   1.769   4.342  0.3555  0.4380 -0.3761
  633TIP3   OH2 1862   2.178   0.390   4.862  0.4648  0.0790  0.0441
  633TIP3    H1 1863   2.264   0.431   4.866 -0.1110  1.5198 -1.3696
  633TIP3    H2 1864   2.174   0.350   4.775  0.4528 -1.7910  0.8586
  634TIP3   OH2 1865   5.536   5.911   1.334 -0.9681 -0.3556  0.3760
  634TIP3    H1 1866   5.604   5.916   1.400 -0.2635 -0.7781 -0.2978
  634TIP3    H2 1867   5.529   6.000   1.299  0.6593 -0.6893 -0.9225
  635TIP3   OH2 1868   2.569   0.379   3.372  0.6254  0.0993 -0.0308
  635TIP3    H1 1869   2.649   0.359   3.421  2.4938  0.6028 -2.6430
  635TIP3    H2 1870   2.573   0.474   3.358 -0.0922  0.0344 -0.7458
  636TIP3   OH2 1871   5.448   5.664   4.804  0.1042  0.5905 -0.0128
  636TIP3    H1 1872   5.353   5.663   4.789  0.2203 -2.3590 -1.1562
  636TIP3    H2 1873   5.486   5.654   4.716  1.3929 -0.2429  0.6162
  637TIP3   OH2 1874   2.028   4.725   3.538 -0.8119  0.4556  0.5598
  637TIP3    H1 1875   2.020   4.699   3.447 -0.0905  3.0824 -0.3584
  637TIP3    H2 1876   1.954   4.785   3.552  0.6576  2.2896  0.7788
  638TIP3   OH2 1877   5.890   3.370   1.955  0.1286 -0.0028  0.1674
  638TIP3    H1 1878   5.800   3.355   1.981 -0.8754  1.3509 -2.1953
  638TIP3    H2 1879   5.903   3.464   1.963  0.6850  0.0750 -1.2766
  639TIP3   OH2 1880   0.517   3.312   4.888  0.0720  0.5795  0.1369
  639TIP3    H1 1881   0.543   3.324   4.979 -0.7280  1.5382  0.2641
  639TIP3    H2 1882   0.599   3.299   4.841  0.4345 -0.9241  1.1199
  640TIP3   OH2 1883   5.885   6.684   0.834  0.0473  0.0161  0.3245
  640TIP3    H1 1884   5.898   6.653   0.923  0.3157  2.5698  1.2523
  640TIP3    H2 1885   5.972   6.679   0.794  0.6451  1.8344  1.2862
  641TIP3   OH2 1886   3.246   3.658   0.718  0.4653 -0.3518 -0.9360
  641TIP3    H1 1887   3.221   3.744   0.753  0.4843  0.6763 -3.2200
  641TIP3    H2 1888   3.222   3.596   0.786  0.2151  1.4397  0.7023
  642TIP3   OH2 1889   6.290   1.094   1.099 -0.5432  0.5101 -0.6645
  642TIP3    H1 1890   6.310   1.040   1.023 -0.8152 -1.4908  0.6068
  642TIP3    H2 1891   6.344   1.173   1.088 -0.8773  0.4931 -3.0858
  643TIP3   OH2 1892   0.712   5.865   2.573 -0.2190  0.3541 -0.4492
  643TIP3    H1 1893   0.740   5.781   2.608  0.1612  0.7606  0.2530
  643TIP3    H2 1894   0.627   5.848   2.533 -0.3567 -0.2685  0.0986
  644TIP3   OH2 1895   0.172   0.102   1.668  0.0461  0.3150  0.5179
  644TIP3    H1 1896   0.084   0.118   1.636 -0.1559  1.5769  1.6219
  644TIP3    H2 1897   0.225   0.089   1.589 -0.5222  2.8060 -0.3335
  645TIP3   OH2 1898   0.941   5.086   2.559 -0.3159 -0.4255  0.4003
  645TIP3    H1 1899   0.900   5.034   2.489  0.6028 -3.1666  1.7658
  645TIP3    H2 1900   1.034   5.083   2.539 -0.2779  1.1831  0.2505
  646TIP3   OH2 1901   2.565   5.363   3.279  0.2407 -0.3865  0.0169
  646TIP3    H1 1902   2.482   5.356   3.326  1.0044  2.8698  2.1959
  646TIP3    H2 1903   2.618   5.290   3.311 -1.2111 -1.5827 -0.2183
  647TIP3   OH2 1904   3.737   5.249   5.696 -0.3965 -0.5055  0.4532
  647TIP3    H1 1905   3.727   5.242   5.601  0.2070  1.4232  0.1977
  647TIP3    H2 1906   3.660   5.300   5.724  0.4751  0.7179  0.6843
  648TIP3   OH2 1907   4.413   5.065   5.032 -0.5300  0.7472  0.0617
  648TIP3    H1 1908   4.386   5.124   4.962 -0.0727  0.2382 -0.5535
  648TIP3    H2 1909   4.500   5.035   5.006 -0.4388  0.3947  0.7510
  649TIP3   OH2 1910   4.806   1.401   1.317 -0.0280 -0.3973 -0.0601
  649TIP3    H1 1911   4.829   1.396   1.224 -1.8947 -0.8748 -0.5326
  649TIP3    H2 1912   4.889   1.419   1.361  1.0705 -1.1145 -1.7250
  650TIP3   OH2 1913   2.830   6.626   5.387  0.7201  0.9486  0.5654
  650TIP3    H1 1914   2.852   6.666   5.303 -0.8031 -1.4566 -1.1064
  650TIP3    H2 1915   2.909   6.579   5.414  0.6096  0.0471 -0.6096
  651TIP3   OH2 1916   3.506   1.450   3.403  0.1386  0.3399  0.2277
  651TIP3    H1 1917   3.487   1.440   3.496  1.3473 -1.6165  0.3325
  651TIP3    H2 1918   3.593   1.490   3.401  1.0124 -1.4411  0.0510
  652TIP3   OH2 1919   4.852   2.730   1.107  0.4491 -0.1883  0.0010
  652TIP3    H1 1920   4.800   2.659   1.070 -0.7353  0.4699  0.3700
  652TIP3    H2 1921   4.806   2.756   1.187  1.1484  0.6435  0.1526
  653TIP3   OH2 1922   2.422   0.044   5.164 -0.8038 -0.0706 -0.3104
  653TIP3    H1 1923   2.359   0.116   5.150 -1.2980 -0.2777  0.7506
  653TIP3    H2 1924   2.370  -0.025   5.205  0.5978  0.7556  3.2657
  654TIP3   OH2 1925   2.295   2.724   2.491  0.1658 -0.5367  0.4429
  654TIP3    H1 1926   2.288   2.698   2.399  1.0661  0.6957 -0.0022
  654TIP3    H2 1927   2.271   2.817   2.490 -1.4956 -0.9177  1.7295
  655TIP3   OH2 1928   3.509   2.688   2.809 -0.5098  0.2813  0.1760
  655TIP3    H1 1929   3.582   2.642   2.766 -0.0955  2.0743 -1.1639
  655TIP3    H2 1930   3.550   2.763   2.852 -1.2480 -0.2154  1.8186
  656TIP3   OH2 1931   1.317   0.662   4.504 -0.0704 -0.3984  0.4173
  656TIP3    H1 1932   1.402   0.658   4.459  0.1101  1.4161  0.5403
  656TIP3    H2 1933   1.332   0.614   4.586  0.7541 -0.3565  0.3026
  657TIP3   OH2 1934   6.679   1.336   0.333 -0.3198  0.1832  0.4656
  657TIP3    H1 1935   6.618   1.405   0.308  2.3313  2.4471 -0.3113
  657TIP3    H2 1936   6.630   1.255   0.320 -2.5229  1.7301 -2.0502
  658TIP3   OH2 1937   3.219   0.042   4.397 -0.5670 -0.3532 -0.1568
  658TIP3    H1 1938   3.290   0.087   4.352 -0.1095 -1.2629 -0.3718
  658TIP3    H2 1939   3.263  -0.010   4.464 -0.9477 -1.5793 -0.8386
  659TIP3   OH2 1940   1.561   4.552   3.627 -0.0648  0.3222 -0.1424
  659TIP3    H1 1941   1.568   4.647   3.631  2.0198  0.2066  0.6489
  659TIP3    H2 1942   1.473   4.532   3.659  0.5966  1.8807  3.0390
  660TIP3   OH2 1943   4.250   4.635   5.662 -0.1569 -0.2086  0.0155
  660TIP3    H1 1944   4.168   4.683   5.660  0.3451  0.6635 -0.1541
  660TIP3    H2 1945   4.234   4.561   5.720 -1.8416 -1.4936 -1.9344
  661TIP3   OH2 1946   6.051   6.482   3.349 -0.0266 -0.0035  0.0847
  661TIP3    H1 1947   5.996   6.555   3.377 -0.1791  0.1067 -0.4856
  661TIP3    H2 1948   6.094   6.514   3.270  0.9727 -0.0368  0.5966
  662TIP3   OH2 1949   5.328   6.354   4.272  0.2805 -0.1471  0.6186
  662TIP3    H1 1950   5.344   6.288   4.204  1.4057 -0.6242  1.3241
  662TIP3    H2 1951   5.304   6.433   4.224  0.9076 -0.5182 -0.3272
  663TIP3   OH2 1952   4.188   3.804   2.029 -0.0234  0.4661  0.2119
  663TIP3    H1 1953   4.119   3.786   2.092  1.3445  1.1720  1.9914
  663TIP3    H2 1954   4.142   3.838   1.952 -1.9455 -2.6534 -0.1765
  664TIP3   OH2 1955   5.568   2.344   4.951  0.2541  0.7566 -0.0879
  664TIP3    H1 1956   5.643   2.347   5.011  1.3462 -0.8315 -1.2797
  664TIP3    H2 1957   5.605   2.367   4.866 -0.2610 -1.4082 -0.9605
  665TIP3   OH2 1958   6.831   4.382   1.838 -0.2974 -0.8040  0.5758
  665TIP3    H1 1959   6.771   4.341   1.775  0.2997 -1.0507  0.1495
  665TIP3    H2 1960   6.788   4.373   1.923 -0.7633 -1.1633  0.3052
  666TIP3   OH2 1961   3.272   4.968   2.499 -0.0318  0.3881 -0.2848
  666TIP3    H1 1962   3.224   5.045   2.529  0.2495  0.2099  0.6684
  666TIP3    H2 1963   3.335   5.002   2.436  1.0744  1.1856  1.1829
  667TIP3   OH2 1964   4.641   2.120   5.535 -0.5128 -0.1004  0.3154
  667TIP3    H1 1965   4.613   2.152   5.450  0.3797 -2.0807 -0.8036
  667TIP3    H2 1966   4.682   2.195   5.577 -1.5626  1.0841 -0.7051
  668TIP3   OH2 1967   3.684   3.609   3.765 -0.1571 -0.0512 -0.3613
  668TIP3    H1 1968   3.683   3.569   3.677 -1.4440 -3.3268  0.9931
  668TIP3    H2 1969   3.763   3.573   3.806 -1.7251 -1.9884  1.1449
  669TIP3   OH2 1970   1.070   3.872   5.553 -0.2284  0.4731 -0.3492
  669TIP3    H1 1971   1.000   3.813   5.583  0.3230  0.4789  1.0380
  669TIP3    H2 1972   1.057   3.952   5.604  1.4488  0.0626  0.8244
  670TIP3   OH2 1973   4.095   0.147   0.641  0.3689  0.0111 -0.0586
  670TIP3    H1 1974   4.089   0.229   0.591 -0.7866 -1.0592 -1.8026
  670TIP3    H2 1975   4.039   0.161   0.717 -0.3138  0.6467 -0.6605
  671TIP3   OH2 1976   5.594   1.345   0.298 -0.3158  0.6615 -0.3376
  671TIP3    H1 1977   5.504   1.313   0.310 -0.3101  0.7168 -0.1430
  671TIP3    H2 1978   5.587   1.409   0.227 -0.1123 -0.6871 -1.6173
  672TIP3   OH2 1979   1.863   3.792   5.687  0.7986 -0.3046  0.3372
  672TIP3    H1 1980   1.811   3.775   5.766 -2.6865  0.6553 -1.5460
  672TIP3    H2 1981   1.903   3.708   5.666 -0.2749 -1.2198  1.7239
  673TIP3   OH2 1982   0.471   2.451   4.684 -0.3067  0.1580  0.0556
  673TIP3    H1 1983   0.507   2.535   4.714  2.1053 -0.3559 -1.1624
  673TIP3    H2 1984   0.522   2.385   4.730 -1.4931 -0.6684  0.2348
  674TIP3   OH2 1985   5.285   1.297   3.094  0.6257  0.1802 -0.0620
  674TIP3    H1 1986   5.225   1.316   3.166  1.5497  1.9451  0.2923
  674TIP3    H2 1987   5.335   1.222   3.124 -0.9895 -0.9800 -0.1368
  675TIP3   OH2 1988   0.765   1.611   2.949  0.1382 -0.0110 -0.6087
  675TIP3    H1 1989   0.769   1.524   2.908 -0.2065 -0.0454 -0.5727
  675TIP3    H2 1990   0.688   1.652   2.910  0.3733  0.3274 -0.7176
  676TIP3   OH2 1991   2.297   2.826   4.031  0.3124  0.5735 -0.0214
  676TIP3    H1 1992   2.298   2.905   4.086  1.2307  1.6689 -1.5145
  676TIP3    H2 1993   2.381   2.784   4.049 -0.4629 -0.5232  1.3048
  677TIP3   OH2 1994   2.931   6.494   0.317  0.5449  0.2358 -0.2818
  677TIP3    H1 1995   2.887   6.493   0.233 -0.5204 -0.3993  0.2606
  677TIP3    H2 1996   2.888   6.425   0.368  2.3832 -0.6508  0.1757
  678TIP3   OH2 1997   5.002   5.066   0.339 -0.4064  0.2686  0.2058
  678TIP3    H1 1998   4.994   5.102   0.251  1.2738  0.5239  0.1195
  678TIP3    H2 1999   4.919   5.022   0.355 -1.2788  1.4223 -0.9514
  679TIP3   OH2 2000   3.393   2.556   0.241 -0.2813 -0.1312 -0.1863
  679TIP3    H1 2001   3.301   2.577   0.226 -0.0356  2.6535  1.6077
  679TIP3    H2 2002   3.440   2.592   0.166 -0.5042 -0.4611 -0.4880
  680TIP3   OH2 2003   4.863   2.389   4.867  0.0723  0.5398  0.3169
  680TIP3    H1 2004   4.849   2.482   4.882 -2.9819  0.2502 -0.1862
  680TIP3    H2 2005   4.883   2.354   4.954  3.8111  1.8770  0.2069
  681TIP3   OH2 2006   6.411   2.695   0.689  0.0436 -0.3376  0.1887
  681TIP3    H1 2007   6.416   2.766   0.753  0.7414 -0.3928  0.2136
  681TIP3    H2 2008   6.362   2.731   0.616  2.3637  1.0172 -0.8246
  682TIP3   OH2 2009   6.499   4.422   1.189 -0.0078 -0.5576  0.3494
  682TIP3    H1 2010   6.572   4.479   1.212 -0.7226  0.3636  0.3805
  682TIP3    H2 2011   6.426   4.481   1.174 -0.3000 -1.3016 -1.5396
  683TIP3   OH2 2012   1.736   2.960   2.178 -0.4589 -0.0953  0.5957
  683TIP3    H1 2013   1.763   2.885   2.230  0.3050 -0.1863  0.0953
  683TIP3    H2 2014   1.765   3.036   2.228  3.1249 -0.1789 -1.0047
  684TIP3   OH2 2015   6.086   0.976   2.753  0.0804  0.3727  0.4040
  684TIP3    H1 2016   6.121   1.065   2.750  1.0864  0.0247  1.0444
  684TIP3    H2 2017   6.109   0.944   2.841  0.4824 -0.8020 -0.1066
  685TIP3   OH2 2018   0.777   4.322   0.476  0.4823  0.3751  0.3821
  685TIP3    H1 2019   0.847   4.286   0.422  2.2274 -0.7056  3.1796
  685TIP3    H2 2020   0.707   4.256   0.472 -0.0548  0.9900 -1.6024
  686TIP3   OH2 2021   4.391   6.161   3.619 -0.3032  0.0841  0.7784
  686TIP3    H1 2022   4.470   6.185   3.668  0.8247  0.9891 -1.3723
  686TIP3    H2 2023   4.321   6.212   3.660  0.6881  1.2123  1.1254
  687TIP3   OH2 2024   2.542   0.732   2.401  0.1417 -0.2025 -0.7917
  687TIP3    H1 2025   2.589   0.674   2.461  0.4620 -0.1368 -0.9778
  687TIP3    H2 2026   2.584   0.719   2.316 -0.5290 -0.5414 -1.0766
  688TIP3   OH2 2027   5.721   0.688   0.157 -0.3171  0.4043  0.2260
  688TIP3    H1 2028   5.803   0.655   0.120 -0.7895  1.2277 -1.7189
  688TIP3    H2 2029   5.737   0.693   0.251  1.3331 -0.8563  0.0657
  689TIP3   OH2 2030   2.480   0.058   1.701 -0.2662 -0.1835  0.6256
  689TIP3    H1 2031   2.393   0.066   1.740 -1.1315 -1.6218 -0.8617
  689TIP3    H2 2032   2.499  -0.036   1.705  0.2781 -0.1698 -0.9525
  690TIP3   OH2 2033   4.673   3.902   5.476 -0.4941 -0.9087  0.0319
  690TIP3    H1 2034   4.694   3.975   5.417  0.8678 -0.4729  1.0028
  690TIP3    H2 2035   4.577   3.898   5.475 -0.5800  0.5594 -0.4453
  691TIP3   OH2 2036   5.329   3.135   0.402 -0.3526  0.2395  0.0652
  691TIP3    H1 2037   5.298   3.098   0.485  0.4759 -4.1183 -1.2957
  691TIP3    H2 2038   5.249   3.152   0.352 -0.9134 -2.7177 -0.2463
  692TIP3   OH2 2039   4.633   4.661   2.727 -0.1266 -0.9438 -0.3470
  692TIP3    H1 2040   4.662   4.591   2.784  0.0125  0.2118  1.0602
  692TIP3    H2 2041   4.700   4.665   2.658  1.1251 -0.7135  0.8264
  693TIP3   OH2 2042   4.686   2.214   2.015  0.1738 -0.0204 -0.3163
  693TIP3    H1 2043   4.611   2.154   2.016 -1.6815  2.1514  1.0540
  693TIP3    H2 2044   4.670   2.273   1.941  1.0354 -0.0970 -0.5769
  694TIP3   OH2 2045   0.436   1.745   4.779 -0.3573 -0.7014 -0.6141
  694TIP3    H1 2046   0.407   1.744   4.870  0.3702  1.2670 -0.3196
  694TIP3    H2 2047   0.517   1.696   4.779  0.7794  1.0656  0.2738
  695TIP3   OH2 2048   7.199   4.573   1.653  0.7140  0.1583 -0.0105
  695TIP3    H1 2049   7.231   4.647   1.601 -0.7422  0.1606 -0.9696
  695TIP3    H2 2050   7.157   4.515   1.590  0.4342 -0.7118  0.9427
  696TIP3   OH2 2051   5.279   5.639   3.230 -0.6151 -0.2322 -0.0441
  696TIP3    H1 2052   5.276   5.581   3.307 -0.0438 -0.1381  0.0566
  696TIP3    H2 2053   5.348   5.601   3.175 -0.3165  0.2793 -0.0310
  697TIP3   OH2 2054   0.522   5.588   0.119  0.5518 -0.2932  0.4065
  697TIP3    H1 2055   0.491   5.505   0.155  0.6811 -0.6632 -0.3148
  697TIP3    H2 2056   0.507   5.652   0.189 -1.3856 -0.5473  0.2588
  698TIP3   OH2 2057   6.800   6.102   2.459 -0.2668  0.0379 -0.1966
  698TIP3    H1 2058   6.837   6.173   2.513 -0.7112 -2.1025  3.1856
  698TIP3    H2 2059   6.723   6.073   2.506 -0.5730 -2.2071 -1.9003
  699TIP3   OH2 2060   2.606   1.062   4.640  0.1017  0.2427 -0.4756
  699TIP3    H1 2061   2.532   1.052   4.581 -1.9134  0.0166  1.9331
  699TIP3    H2 2062   2.644   1.146   4.617 -1.7120  0.9704 -0.9555
  700TIP3   OH2 2063   0.681   4.860   3.977  0.1674  0.2267  0.5538
  700TIP3    H1 2064   0.668   4.819   4.063  1.0828 -0.3582  0.4268
  700TIP3    H2 2065   0.623   4.811   3.918  2.8511 -2.4914 -0.0517
  701TIP3   OH2 2066   1.601   1.755   4.503 -0.8051  0.0826  0.9289
  701TIP3    H1 2067   1.635   1.666   4.490  0.5106  0.4422  1.8118
  701TIP3    H2 2068   1.548   1.772   4.424  1.8548 -0.1215 -1.0306
  702TIP3   OH2 2069   1.217   0.051   1.816 -0.3235  0.6340 -0.2677
  702TIP3    H1 2070   1.262   0.043   1.900 -2.1060  0.4874  0.7217
  702TIP3    H2 2071   1.278   0.014   1.752  1.0889  0.7870  0.9353
  703TIP3   OH2 2072   5.022   3.032   2.916  0.0587 -0.5301 -0.4800
  703TIP3    H1 2073   5.036   2.987   2.833 -0.3119  1.1725 -1.5113
  703TIP3    H2 2074   4.927   3.048   2.919  0.1383 -0.1378  0.0243
  704TIP3   OH2 2075   6.497   5.038   1.990 -0.1331  0.0060 -0.2020
  704TIP3    H1 2076   6.461   5.066   2.074 -0.6734 -0.4993 -0.2665
  704TIP3    H2 2077   6.544   4.957   2.009 -0.6015 -0.3278 -0.4641
  705TIP3   OH2 2078   4.680   4.833   4.718 -0.1707 -0.1087  0.2513
  705TIP3    H1 2079   4.663   4.919   4.679  1.3293 -0.2592 -0.8244
  705TIP3    H2 2080   4.594   4.798   4.739 -1.1813 -0.2803 -3.5364
  706TIP3   OH2 2081   1.370   4.118   4.437 -0.6171  0.3030  0.0265
  706TIP3    H1 2082   1.285   4.102   4.478 -0.6691  1.8997  0.6175
  706TIP3    H2 2083   1.374   4.213   4.427  0.9408  0.2213 -0.3451
  707TIP3   OH2 2084   1.126   1.636   0.179 -0.1708 -0.0742 -0.5222
  707TIP3    H1 2085   1.144   1.574   0.109 -0.8593  0.4975 -1.2316
  707TIP3    H2 2086   1.137   1.722   0.138  0.0545  0.2718  0.2448
  708TIP3   OH2 2087   0.006   1.697   4.012 -0.3343  0.0122 -0.0641
  708TIP3    H1 2088   0.006   1.602   4.001  0.2596 -0.1452  1.1228
  708TIP3    H2 2089   0.088   1.726   3.971 -0.7463  0.0855 -0.8598
  709TIP3   OH2 2090   2.773   2.050   3.164  0.4505  0.5576  1.2655
  709TIP3    H1 2091   2.768   2.046   3.260 -0.4341  0.3845  1.2253
  709TIP3    H2 2092   2.682   2.052   3.136  0.7052  1.1232  0.4386
  710TIP3   OH2 2093   1.860   1.502   2.978  0.0707 -0.4689 -0.3016
  710TIP3    H1 2094   1.775   1.521   3.017  0.3904  1.3747 -0.4090
  710TIP3    H2 2095   1.839   1.462   2.893 -0.8549  2.3792 -1.5649
  711TIP3   OH2 2096   2.744   3.912   5.775 -0.4263  0.6016  0.1561
  711TIP3    H1 2097   2.821   3.897   5.720 -0.8333  1.7673 -0.7669
  711TIP3    H2 2098   2.744   3.838   5.836 -0.0674 -0.8668 -1.5267
  712TIP3   OH2 2099   6.507   4.759   2.828  0.1593 -0.4175 -0.1777
  712TIP3    H1 2100   6.553   4.840   2.850 -0.9069  0.0625  0.3514
  712TIP3    H2 2101   6.546   4.693   2.885  1.2594 -0.3618 -0.8381
  713TIP3   OH2 2102   1.665   4.044   4.728 -0.0658 -0.2770  0.4935
  713TIP3    H1 2103   1.607   3.967   4.728  0.1021 -0.4114 -0.1224
  713TIP3    H2 2104   1.628   4.101   4.795 -1.1897 -0.1678 -0.1770
  714TIP3   OH2 2105   3.819   0.191   3.561 -0.1764  0.3972  0.2935
  714TIP3    H1 2106   3.798   0.145   3.479 -0.9390  1.0003  0.1400
  714TIP3    H2 2107   3.879   0.261   3.534  1.5389 -0.8782  0.6262
  715TIP3   OH2 2108   6.562   0.682   4.350  0.2467  0.5353 -0.2688
  715TIP3    H1 2109   6.491   0.647   4.404  0.4508  0.2318 -0.1967
  715TIP3    H2 2110   6.536   0.663   4.260  1.0086 -1.0842 -0.1899
  716TIP3   OH2 2111   2.425   4.706   0.028  0.4435 -0.1296  0.2752
  716TIP3    H1 2112   2.341   4.751   0.014  1.1922  1.5420  0.8821
  716TIP3    H2 2113   2.403   4.633   0.086 -0.7215 -0.2211 -0.2510
  717TIP3   OH2 2114   0.313   0.624   0.499  0.0835  0.7811 -0.8359
  717TIP3    H1 2115   0.339   0.556   0.561 -1.4305  0.0796 -0.9179
  717TIP3    H2 2116   0.342   0.591   0.414 -2.3928 -0.8394 -1.1692
  718TIP3   OH2 2117   4.453   0.351   0.245  0.4796  0.1519  0.1224
  718TIP3    H1 2118   4.431   0.258   0.253  2.4695 -0.3139  0.5629
  718TIP3    H2 2119   4.548   0.354   0.254  0.4489  2.2434  0.0976
  719TIP3   OH2 2120   1.489   5.945   4.923 -0.2748  0.3043 -0.3769
  719TIP3    H1 2121   1.584   5.933   4.930 -0.6487 -3.3512  0.7605
  719TIP3    H2 2122   1.465   5.993   5.002  0.3092 -2.3032  1.5190
  720TIP3   OH2 2123   0.889   0.249   2.558  0.0344  0.4949  0.1173
  720TIP3    H1 2124   0.801   0.217   2.580  0.1995  0.2563  0.4435
  720TIP3    H2 2125   0.874   0.330   2.510 -0.3443  0.8597  0.8504
  721TIP3   OH2 2126   1.677   5.372   1.326 -0.0842 -0.3862  0.9115
  721TIP3    H1 2127   1.692   5.414   1.241 -0.8572  0.3574  1.1312
  721TIP3    H2 2128   1.661   5.280   1.305  1.2696 -0.5224  0.3942
  722TIP3   OH2 2129   3.192   3.272   2.889 -0.2909 -0.0641 -0.3430
  722TIP3    H1 2130   3.257   3.314   2.946 -1.8070 -0.4933  1.8002
  722TIP3    H2 2131   3.166   3.341   2.828  1.4246  0.3964 -0.6007
  723TIP3   OH2 2132   4.461   3.757   1.262 -0.0305 -0.2530 -0.1985
  723TIP3    H1 2133   4.380   3.773   1.310 -0.1232  1.2912 -0.8225
  723TIP3    H2 2134   4.452   3.667   1.230 -1.5037 -0.1111 -0.2564
  724TIP3   OH2 2135   1.219   1.497   0.793  0.1675  0.2916  0.3718
  724TIP3    H1 2136   1.268   1.554   0.852  1.8306 -0.0084 -0.6826
  724TIP3    H2 2137   1.258   1.410   0.805  0.3932  0.1865 -0.9931
  725TIP3   OH2 2138   5.502   3.018   4.988  0.2215  0.0534 -0.2961
  725TIP3    H1 2139   5.421   2.997   4.941  0.3046  1.3856 -1.1147
  725TIP3    H2 2140   5.483   3.100   5.034  0.7048 -0.3112  0.5844
  726TIP3   OH2 2141   3.063   2.208   3.208  0.3767  0.0411 -0.4812
  726TIP3    H1 2142   2.978   2.239   3.239  0.2978  0.9194 -1.4982
  726TIP3    H2 2143   3.067   2.238   3.117  1.9529  0.4023 -0.3234
  727TIP3   OH2 2144   1.201   6.679   0.555 -0.2248  0.2807 -0.0967
  727TIP3    H1 2145   1.273   6.712   0.503  2.0830  0.6914  3.0628
  727TIP3    H2 2146   1.205   6.584   0.546  0.5866  0.3176 -0.1317
  728TIP3   OH2 2147   2.718   0.679   0.937 -0.4530  0.3417 -0.1019
  728TIP3    H1 2148   2.697   0.682   1.030 -2.5910 -0.9758 -0.4828
  728TIP3    H2 2149   2.697   0.590   0.910  1.1384  0.3810 -1.6491
  729TIP3   OH2 2150   2.061   3.827   3.138 -0.2865  0.1506 -0.9456
  729TIP3    H1 2151   1.968   3.850   3.139  0.0523  1.7341 -2.1928
  729TIP3    H2 2152   2.080   3.802   3.229 -1.6006  1.1448 -0.3580
  730TIP3   OH2 2153   1.901   2.504   3.922 -0.1434  0.6365 -0.6420
  730TIP3    H1 2154   1.937   2.573   3.978  1.3660  0.2778 -1.1298
  730TIP3    H2 2155   1.952   2.509   3.841  0.3812 -1.3785 -0.4926
  731TIP3   OH2 2156   2.546   3.643   1.025  0.5621 -0.9622  0.2312
  731TIP3    H1 2157   2.632   3.643   1.067  0.2068  0.9577  1.0344
  731TIP3    H2 2158   2.532   3.734   0.999 -0.0421 -1.7380 -2.4455
  732TIP3   OH2 2159   7.185   6.694   3.260 -0.6707 -0.2601 -0.4381
  732TIP3    H1 2160   7.100   6.680   3.303 -0.8072 -0.3640 -0.7408
  732TIP3    H2 2161   7.249   6.685   3.331 -0.8033 -1.6939 -0.4647
  733TIP3   OH2 2162   3.263   2.927   4.743  0.4051  0.3380 -0.1925
  733TIP3    H1 2163   3.313   2.886   4.673 -1.8674  0.3498 -1.9372
  733TIP3    H2 2164   3.224   2.854   4.791  0.9631  0.3583  0.2990
  734TIP3   OH2 2165   4.509   1.784   1.940 -0.1594 -0.1137  0.4978
  734TIP3    H1 2166   4.489   1.875   1.960 -0.3640  0.2169 -1.0593
  734TIP3    H2 2167   4.551   1.787   1.854  1.0533 -1.3753  0.9993
  735TIP3   OH2 2168   6.893   4.797   2.238 -0.2129  0.1624  0.3550
  735TIP3    H1 2169   6.912   4.706   2.216 -1.5570  0.4609 -2.4993
  735TIP3    H2 2170   6.976   4.844   2.223 -0.2743 -0.1702 -1.1689
  736TIP3   OH2 2171   3.990   5.196   3.251 -0.1272  0.0695 -0.3300
  736TIP3    H1 2172   3.983   5.231   3.162  1.6775  1.0461 -0.1261
  736TIP3    H2 2173   4.041   5.116   3.241 -0.3623 -0.0963 -0.2199
  737TIP3   OH2 2174   7.174   4.107   1.810  0.1441 -0.3455 -0.3605
  737TIP3    H1 2175   7.173   4.091   1.904  0.3764  0.8283 -0.1349
  737TIP3    H2 2176   7.234   4.181   1.799 -1.6397  1.0667 -1.1482
  738TIP3   OH2 2177   6.930   4.449   4.572  0.1850  0.2447 -0.0624
  738TIP3    H1 2178   7.013   4.490   4.547  0.9067 -1.7488 -1.1589
  738TIP3    H2 2179   6.954   4.363   4.606 -1.4458 -0.5333 -0.7429
  739TIP3   OH2 2180   2.674   1.487   2.494 -0.0115 -0.4468 -0.0786
  739TIP3    H1 2181   2.743   1.460   2.434 -0.0454 -1.0017  0.1294
  739TIP3    H2 2182   2.716   1.554   2.549 -0.2641  0.7882 -1.3460
  740TIP3   OH2 2183   3.125   4.013   5.467 -0.0442  0.5820  0.1303
  740TIP3    H1 2184   3.062   4.081   5.491 -0.9183 -0.6343  1.3927
  740TIP3    H2 2185   3.106   3.940   5.525 -0.0980 -1.3335 -2.1341
  741TIP3   OH2 2186   1.644   4.159   5.653 -0.2654  0.1848  0.2612
  741TIP3    H1 2187   1.554   4.189   5.642  0.1926  1.5235 -0.0061
  741TIP3    H2 2188   1.682   4.163   5.565  0.4424  0.9541  0.5919
  742TIP3   OH2 2189   1.420   2.515   3.857  0.1963  0.1971 -0.0395
  742TIP3    H1 2190   1.380   2.454   3.795 -0.4257 -0.6673  1.1587
  742TIP3    H2 2191   1.513   2.495   3.854  0.2111  0.3878 -0.9273
  743TIP3   OH2 2192   7.049   5.134   3.529 -0.0675 -0.2969  0.0027
  743TIP3    H1 2193   6.994   5.058   3.549 -0.4762  0.4576  1.9645
  743TIP3    H2 2194   7.020   5.201   3.591  1.2576  1.0005 -0.7284
  744TIP3   OH2 2195   0.642   3.600   2.420 -0.1353 -0.1630 -0.1252
  744TIP3    H1 2196   0.687   3.602   2.505  1.2287 -1.3907 -0.7709
  744TIP3    H2 2197   0.605   3.512   2.415 -0.6829  0.0931 -0.5762
  745TIP3   OH2 2198   0.213   5.143   4.511  0.0361 -0.0231  0.3592
  745TIP3    H1 2199   0.295   5.121   4.468  0.2378 -0.1014  0.7770
  745TIP3    H2 2200   0.150   5.151   4.440  0.3414 -0.2501  0.0590
  746TIP3   OH2 2201   6.038   5.464   4.801 -0.1333 -0.3659 -0.3453
  746TIP3    H1 2202   6.007   5.521   4.730 -0.2737  0.2144  0.1730
  746TIP3    H2 2203   6.126   5.497   4.821 -0.3680 -0.0707  0.2245
  747TIP3   OH2 2204   0.975   1.507   3.434 -0.7752  0.5931  0.0971
  747TIP3    H1 2205   1.056   1.558   3.429 -0.0947 -0.5790 -1.6523
  747TIP3    H2 2206   0.925   1.534   3.357 -2.1114  1.3402  1.1813
  748TIP3   OH2 2207   0.266   4.050   1.514  0.2853  0.1584  0.0759
  748TIP3    H1 2208   0.340   4.110   1.525  0.4430  0.0041 -0.1436
  748TIP3    H2 2209   0.250   4.015   1.602 -0.9511  1.8533  0.5678
  749TIP3   OH2 2210   2.595   0.488   2.937  0.2395 -0.3472  0.9806
  749TIP3    H1 2211   2.562   0.534   2.861  0.5810 -1.3541  0.2010
  749TIP3    H2 2212   2.649   0.552   2.983 -1.4168  0.8278  1.3878
  750TIP3   OH2 2213   3.058   2.757   2.512 -0.7840  0.2583  0.4667
  750TIP3    H1 2214   2.978   2.763   2.564 -0.1932  2.1354  1.2854
  750TIP3    H2 2215   3.113   2.829   2.545  0.4522  0.2472 -1.3875
  751TIP3   OH2 2216   3.239   6.402   1.209 -0.4260 -0.2820 -0.3143
  751TIP3    H1 2217   3.305   6.409   1.141 -2.0044 -0.3076 -1.9316
  751TIP3    H2 2218   3.286   6.421   1.291  1.3086  0.8279 -1.5004
  752TIP3   OH2 2219   2.879   2.778   1.847 -0.1004  0.7462 -0.5844
  752TIP3    H1 2220   2.784   2.784   1.836 -0.0836  2.2148 -0.0237
  752TIP3    H2 2221   2.892   2.703   1.905 -1.0290  1.5425  0.6859
  753TIP3   OH2 2222   6.175   5.250   1.719  0.0945  0.3237 -0.2631
  753TIP3    H1 2223   6.112   5.248   1.791  0.2987 -0.6933 -0.1109
  753TIP3    H2 2224   6.121   5.246   1.640 -0.0972  0.8626 -0.1662
  754TIP3   OH2 2225   3.824   0.778   2.547  0.4211 -0.2302 -0.0089
  754TIP3    H1 2226   3.855   0.696   2.509  2.2742  0.5243 -0.2344
  754TIP3    H2 2227   3.730   0.779   2.529  0.6364 -1.5748 -1.3987
  755TIP3   OH2 2228   2.469   0.569   2.690 -0.2499 -0.0722  0.0335
  755TIP3    H1 2229   2.424   0.493   2.653 -1.8370  0.4546  0.8038
  755TIP3    H2 2230   2.405   0.640   2.683  0.9929  1.0691 -0.1330
  756TIP3   OH2 2231   0.888   1.654   5.192 -0.0144 -0.0155  0.3163
  756TIP3    H1 2232   0.923   1.624   5.108 -0.9200  0.0680 -0.1031
  756TIP3    H2 2233   0.952   1.625   5.257  0.4180 -0.5644 -0.3462
  757TIP3   OH2 2234   4.801   4.763   5.082  0.4386  0.1117 -0.1116
  757TIP3    H1 2235   4.743   4.837   5.065 -1.2576 -1.1354  0.0005
  757TIP3    H2 2236   4.764   4.721   5.159  1.1111 -1.0908 -0.4192
  758TIP3   OH2 2237   0.842   2.584   2.736 -0.2066 -0.4960  0.1764
  758TIP3    H1 2238   0.922   2.634   2.718  0.2335 -1.6773 -1.2853
  758TIP3    H2 2239   0.847   2.565   2.830  0.8998 -0.0077  0.2335
  759TIP3   OH2 2240   6.093   4.745   5.474 -0.0584 -0.1045  0.0504
  759TIP3    H1 2241   6.169   4.703   5.433  0.7180  0.6457  0.6874
  759TIP3    H2 2242   6.105   4.731   5.568 -1.9798 -2.0700  0.0772
  760TIP3   OH2 2243   2.570   4.655   5.259 -0.1845 -0.1293 -0.3900
  760TIP3    H1 2244   2.644   4.615   5.304 -0.9511 -0.3641  0.7068
  760TIP3    H2 2245   2.531   4.583   5.209  0.2345 -0.0339 -0.8681
  761TIP3   OH2 2246   1.758   0.146   1.995 -0.0719  0.3739 -0.1701
  761TIP3    H1 2247   1.818   0.202   2.044  2.1346 -0.8364 -1.3200
  761TIP3    H2 2248   1.815   0.090   1.942 -2.1847 -1.9185 -0.2179
  762TIP3   OH2 2249   6.917   0.892   3.187 -0.3496 -0.2647  0.0158
  762TIP3    H1 2250   6.943   0.828   3.252 -1.8634 -0.5152  0.4194
  762TIP3    H2 2251   6.912   0.975   3.235 -1.2392 -0.4063  0.1801
  763TIP3   OH2 2252   0.279   5.772   4.196 -0.4601  0.0706  0.0819
  763TIP3    H1 2253   0.205   5.730   4.152  0.4322 -1.4853 -0.0135
  763TIP3    H2 2254   0.252   5.779   4.288  0.2775 -3.2026  0.6824
  764TIP3   OH2 2255   1.057   3.175   0.917  0.4620 -0.5484 -0.3821
  764TIP3    H1 2256   1.127   3.124   0.876 -0.0005  0.0390 -1.9638
  764TIP3    H2 2257   0.977   3.127   0.896  0.2787 -0.7078  0.6176
  765TIP3   OH2 2258   7.184   6.215   3.977  0.2169 -0.3091 -0.5033
  765TIP3    H1 2259   7.163   6.301   4.015  0.0616  0.1679 -1.6131
  765TIP3    H2 2260   7.269   6.193   4.014 -0.4271 -0.4013  0.9820
  766TIP3   OH2 2261   1.408   2.488   0.230  0.1103 -0.1207 -0.2361
  766TIP3    H1 2262   1.470   2.460   0.162  0.3106 -0.2631  0.0021
  766TIP3    H2 2263   1.337   2.529   0.182 -0.1008 -0.8717 -0.5831
  767TIP3   OH2 2264   2.137   2.158   1.401  0.2357 -0.5301  0.1155
  767TIP3    H1 2265   2.211   2.190   1.452  1.4252 -2.4452 -0.2904
  767TIP3    H2 2266   2.124   2.225   1.333  1.0177  0.2516  0.7099
  768TIP3   OH2 2267   2.680   0.171   5.082  0.2202  0.0420  0.0613
  768TIP3    H1 2268   2.626   0.094   5.103  1.6935 -0.7568  1.0343
  768TIP3    H2 2269   2.618   0.234   5.045 -1.0874 -1.4846 -0.4724
  769TIP3   OH2 2270   7.066   3.073   4.027 -0.4847 -0.3961  0.3802
  769TIP3    H1 2271   7.111   3.116   3.954 -1.7693  1.2457  0.4791
  769TIP3    H2 2272   7.021   2.999   3.986  0.5917 -0.8066 -0.0815
  770TIP3   OH2 2273   3.182   6.524   0.231  0.1727  0.5425  0.2157
  770TIP3    H1 2274   3.102   6.527   0.284 -0.3383 -0.1756 -0.4960
  770TIP3    H2 2275   3.243   6.470   0.283 -0.3228 -0.1550  0.0830
  771TIP3   OH2 2276   3.006   3.539   3.793  0.2188 -0.2901  0.3669
  771TIP3    H1 2277   3.085   3.568   3.840 -0.6400 -0.5625  2.0816
  771TIP3    H2 2278   2.940   3.605   3.815 -0.9635 -1.8606  1.9148
  772TIP3   OH2 2279   0.368   6.680   5.653 -0.0497 -0.3989 -0.3627
  772TIP3    H1 2280   0.348   6.771   5.677  0.3834 -0.1453 -0.9484
  772TIP3    H2 2281   0.295   6.652   5.598 -0.8394 -0.8472  0.8608
  773TIP3   OH2 2282   4.526   3.000   0.657 -0.1655  0.2997  0.3001
  773TIP3    H1 2283   4.542   3.089   0.626  0.1858  0.6870  1.5102
  773TIP3    H2 2284   4.452   3.009   0.718 -0.6496 -0.3737 -0.1764
  774TIP3   OH2 2285   4.586   5.655   0.675  0.3373 -0.1761  0.0150
  774TIP3    H1 2286   4.666   5.602   0.672 -0.4719 -1.8211  3.2053
  774TIP3    H2 2287   4.517   5.594   0.649 -0.2216  0.3358  0.3039
  775TIP3   OH2 2288   0.913   1.663   1.892 -0.3142 -0.1637  0.0620
  775TIP3    H1 2289   0.819   1.651   1.874 -0.2133 -0.1280 -0.4995
  775TIP3    H2 2290   0.955   1.647   1.808 -0.0157  2.5059 -0.3913
  776TIP3   OH2 2291   5.181   3.745   3.840  0.4208  0.1944 -0.1799
  776TIP3    H1 2292   5.116   3.678   3.860  0.9289 -0.7294 -1.5159
  776TIP3    H2 2293   5.232   3.755   3.921 -0.2748 -0.3204  0.3267
  777TIP3   OH2 2294   3.850   3.538   3.182 -1.2070 -0.0124  0.5167
  777TIP3    H1 2295   3.821   3.454   3.218  1.9457 -1.3003  0.3969
  777TIP3    H2 2296   3.833   3.532   3.088 -1.7823 -0.1429  0.6271
  778TIP3   OH2 2297   4.213   3.903   1.679 -0.2855 -0.2673 -0.0851
  778TIP3    H1 2298   4.298   3.921   1.720 -0.6113 -1.8157  1.3969
  778TIP3    H2 2299   4.168   3.987   1.678 -0.0342 -0.0379  2.3231
  779TIP3   OH2 2300   2.546   4.606   0.343 -0.1654  0.4160  0.4915
  779TIP3    H1 2301   2.619   4.553   0.310  0.6692 -0.4018  3.3835
  779TIP3    H2 2302   2.587   4.689   0.367 -1.0463  1.5961 -1.7747
  780TIP3   OH2 2303   4.127   5.972   3.402 -0.4400  0.1277  0.1582
  780TIP3    H1 2304   4.070   6.020   3.461 -0.1479  1.1531 -0.3651
  780TIP3    H2 2305   4.213   5.974   3.443  0.1389  2.2692 -1.0101
  781TIP3   OH2 2306   4.542   4.118   2.784 -0.0131  0.2969 -0.0683
  781TIP3    H1 2307   4.493   4.195   2.815  0.4665  0.9486 -0.8624
  781TIP3    H2 2308   4.484   4.044   2.800 -0.3444  0.7836  1.0397
  782TIP3   OH2 2309   6.931   4.048   2.054  0.0356 -0.2834  0.1849
  782TIP3    H1 2310   6.972   4.134   2.051 -0.3870  0.0618  2.3589
  782TIP3    H2 2311   6.838   4.065   2.042 -0.0413 -0.4478  0.5364
  783TIP3   OH2 2312   3.889   1.377   2.508 -0.4020 -0.2055 -0.8249
  783TIP3    H1 2313   3.959   1.385   2.573 -1.0434 -0.6034 -0.0809
  783TIP3    H2 2314   3.918   1.304   2.453 -0.5141 -0.7664 -0.1522
  784TIP3   OH2 2315   6.854   3.601   2.389 -0.9481 -0.2803  0.6205
  784TIP3    H1 2316   6.948   3.587   2.403 -0.7351 -0.5591 -0.9096
  784TIP3    H2 2317   6.849   3.645   2.304 -2.1984 -0.0613  0.7929
  785TIP3   OH2 2318   0.659   2.171   5.074  0.4055 -0.2709 -0.6426
  785TIP3    H1 2319   0.661   2.156   4.980  1.0774  0.5611 -0.7738
  785TIP3    H2 2320   0.718   2.105   5.111  0.3688 -0.4093 -0.8317
  786TIP3   OH2 2321   0.034   2.571   3.359 -0.1063  0.1233  0.1044
  786TIP3    H1 2322   0.073   2.495   3.316 -0.9065 -0.3174  0.1383
  786TIP3    H2 2323   0.005   2.627   3.287 -1.3855 -0.5840  0.0310
  787TIP3   OH2 2324   0.898   2.815   4.216  0.2649  0.3386 -0.2753
  787TIP3    H1 2325   0.949   2.737   4.193 -0.1816  0.4836 -1.8623
  787TIP3    H2 2326   0.884   2.860   4.133 -3.8043 -0.5210 -0.2512
  788TIP3   OH2 2327   6.226   6.551   1.919  0.3687  0.6114 -0.2694
  788TIP3    H1 2328   6.290   6.609   1.878 -0.1521  0.4411 -1.3529
  788TIP3    H2 2329   6.224   6.579   2.010  0.7577  1.7337 -0.5828
  789TIP3   OH2 2330   7.010   5.072   0.422 -0.1825  0.1526 -0.5438
  789TIP3    H1 2331   6.974   5.113   0.501 -1.7930  0.6412 -1.4987
  789TIP3    H2 2332   6.978   4.982   0.425 -0.5537  0.2727 -0.8134
  790TIP3   OH2 2333   2.611   2.087   2.716 -0.2064  0.5739  0.0610
  790TIP3    H1 2334   2.680   2.103   2.781 -1.5524 -1.9756  2.3228
  790TIP3    H2 2335   2.540   2.145   2.741 -0.7257 -0.4099  0.9497
  791TIP3   OH2 2336   2.348   2.760   5.853  0.2297 -0.3601 -0.2164
  791TIP3    H1 2337   2.372   2.687   5.797  0.6013 -0.3760 -0.0453
  791TIP3    H2 2338   2.425   2.773   5.909 -0.0762 -0.2437  0.1779
  792TIP3   OH2 2339   0.253   0.932   3.671  0.1888 -0.2706  0.3095
  792TIP3    H1 2340   0.298   1.007   3.710  0.9668 -1.1442  1.1434
  792TIP3    H2 2341   0.191   0.971   3.610  1.0968  1.0311  0.1622
  793TIP3   OH2 2342   2.586   5.155   2.907  0.1135  0.6102  0.1861
  793TIP3    H1 2343   2.591   5.101   2.828  1.3739  1.1090 -0.1097
  793TIP3    H2 2344   2.670   5.142   2.950 -1.3610 -1.4199  2.7053
  794TIP3   OH2 2345   0.077   0.064   2.154  0.6309 -0.0526 -0.4434
  794TIP3    H1 2346  -0.016   0.046   2.163  0.4282  0.7141 -0.9103
  794TIP3    H2 2347   0.114  -0.016   2.117  0.3132 -0.6824  0.5522
  795TIP3   OH2 2348   5.998   2.533   4.553  0.1594 -0.3101  0.0293
  795TIP3    H1 2349   5.989   2.439   4.570  1.7339 -0.3611  0.7331
  795TIP3    H2 2350   6.090   2.545   4.533 -0.4171  0.7701 -2.3678
  796TIP3   OH2 2351   1.018   6.124   5.545 -0.0602  0.4871 -0.6630
  796TIP3    H1 2352   0.972   6.077   5.615 -1.1498  0.0914 -1.6081
  796TIP3    H2 2353   1.030   6.213   5.580  0.1418  0.0840  0.3264
  797TIP3   OH2 2354   1.307   3.544   4.197  0.3197 -0.3337  0.6135
  797TIP3    H1 2355   1.285   3.484   4.125  0.7097  1.1169 -0.7795
  797TIP3    H2 2356   1.222   3.573   4.230  0.0958 -2.4085  2.0407
  798TIP3   OH2 2357   5.327   4.497   1.531 -0.1345 -0.1169  0.1975
  798TIP3    H1 2358   5.403   4.508   1.588  0.3252 -0.6224 -0.3096
  798TIP3    H2 2359   5.298   4.407   1.548 -1.5811  0.5556  1.5472
  799TIP3   OH2 2360   2.534   5.341   2.060 -0.2081 -0.0444 -0.1162
  799TIP3    H1 2361   2.513   5.288   2.137 -0.2675 -0.7988 -0.6415
  799TIP3    H2 2362   2.492   5.295   1.987  4.1423 -2.4792 -1.4958
  800TIP3   OH2 2363   4.466   3.488   1.193  0.2215  0.2173 -0.1142
  800TIP3    H1 2364   4.523   3.424   1.237 -0.8619 -0.2659  0.6368
  800TIP3    H2 2365   4.402   3.435   1.146 -2.3412  0.5941  2.6356
  801TIP3   OH2 2366   4.515   3.151   5.396 -0.4228 -0.3386 -0.1425
  801TIP3    H1 2367   4.508   3.217   5.465  0.1262  1.0828 -1.4121
  801TIP3    H2 2368   4.467   3.187   5.322 -2.3222 -2.5150 -0.0829
  802TIP3   OH2 2369   2.670   1.268   3.589  0.2650  0.8692 -0.1482
  802TIP3    H1 2370   2.731   1.200   3.617 -0.9183  0.2153  0.9434
  802TIP3    H2 2371   2.712   1.351   3.613  0.2642  0.3937  1.5982
  803TIP3   OH2 2372   4.389   6.603   4.478 -0.5877  0.6247  0.3468
  803TIP3    H1 2373   4.295   6.608   4.457 -0.6054  0.1708  0.3028
  803TIP3    H2 2374   4.392   6.607   4.573 -1.1627 -5.0128  0.9678
  804TIP3   OH2 2375   3.030   3.493   3.331  0.5260  0.4102  0.2097
  804TIP3    H1 2376   2.981   3.441   3.394 -0.6471  0.3369 -0.7244
  804TIP3    H2 2377   3.067   3.429   3.270  1.2648  0.5136  0.5329
  805TIP3   OH2 2378   0.114   4.115   3.797  0.1493 -0.3021 -0.3228
  805TIP3    H1 2379   0.097   4.040   3.853 -1.5935 -0.2059 -0.6761
  805TIP3    H2 2380   0.163   4.176   3.853 -1.5890 -0.1876  1.1602
  806TIP3   OH2 2381   0.830   4.394   2.191  0.0627  0.2846 -0.1885
  806TIP3    H1 2382   0.836   4.485   2.219  0.6961  0.0889  0.3562
  806TIP3    H2 2383   0.738   4.371   2.202  0.2511  0.2805  1.5712
  807TIP3   OH2 2384   3.640   4.282   4.088  0.2845 -0.3049 -0.2730
  807TIP3    H1 2385   3.559   4.257   4.133 -0.0249 -0.4365 -0.8902
  807TIP3    H2 2386   3.610   4.325   4.007  0.8081 -1.6442 -1.2164
  808TIP3   OH2 2387   2.794   3.233   1.748 -0.4144 -0.0299  0.1407
  808TIP3    H1 2388   2.767   3.182   1.672  1.0843  1.0216 -1.1862
  808TIP3    H2 2389   2.875   3.276   1.720  0.9729 -0.6696  2.8242
  809TIP3   OH2 2390   6.773   2.205   5.008 -0.1121  0.0313 -0.1429
  809TIP3    H1 2391   6.835   2.266   4.968 -1.3954  0.2891 -1.8178
  809TIP3    H2 2392   6.696   2.258   5.027 -0.1368 -0.4522  1.2061
  810TIP3   OH2 2393   6.389   3.747   4.036 -0.0194  0.3269  0.1656
  810TIP3    H1 2394   6.346   3.733   4.120 -0.3243  1.8095  0.2705
  810TIP3    H2 2395   6.461   3.806   4.055 -0.7222  1.5386 -0.7565
  811TIP3   OH2 2396   2.443   3.773   4.870 -0.4593 -0.1366 -0.5109
  811TIP3    H1 2397   2.373   3.788   4.934 -0.5086 -2.1284 -0.0546
  811TIP3    H2 2398   2.524   3.781   4.921 -0.4743 -1.0103 -0.3426
  812TIP3   OH2 2399   6.408   0.316   1.692  0.2320  0.5684  0.4522
  812TIP3    H1 2400   6.345   0.326   1.620  0.4329 -0.6608  0.0833
  812TIP3    H2 2401   6.493   0.327   1.651  0.3055  0.9821  0.7155
  813TIP3   OH2 2402   0.675   2.292   2.353  0.6673 -0.0616  0.6156
  813TIP3    H1 2403   0.731   2.251   2.287  1.6904  0.9777  0.8041
  813TIP3    H2 2404   0.727   2.292   2.433 -0.2644 -0.5959  1.2410
  814TIP3   OH2 2405   5.933   0.108   4.191 -0.1810  0.4801  0.2333
  814TIP3    H1 2406   5.984   0.148   4.120 -1.9939  0.1828 -1.3048
  814TIP3    H2 2407   5.933   0.174   4.261 -0.3334  1.7910 -0.9662
  815TIP3   OH2 2408   3.935   1.266   3.338 -0.5158  0.0350 -0.2170
  815TIP3    H1 2409   3.991   1.343   3.347 -1.4955  0.6897  0.5365
  815TIP3    H2 2410   3.888   1.280   3.256  0.3838 -0.5109 -0.8455
  816TIP3   OH2 2411  -0.007   4.728   2.362  0.4525  0.0423 -0.5907
  816TIP3    H1 2412   0.045   4.765   2.434  2.9241 -0.6463 -1.9111
  816TIP3    H2 2413   0.028   4.640   2.351 -2.4984 -1.2802 -0.2168
  817TIP3   OH2 2414   4.914   2.428   2.595 -0.0000 -0.0820  0.0178
  817TIP3    H1 2415   4.842   2.420   2.658 -0.0091 -0.4868 -0.0372
  817TIP3    H2 2416   4.881   2.486   2.527  0.4277  1.3133  0.9632
  818TIP3   OH2 2417   2.776   5.765   2.864  0.2897 -0.1224  0.0553
  818TIP3    H1 2418   2.829   5.827   2.915 -0.7834  3.0450 -2.3045
  818TIP3    H2 2419   2.834   5.736   2.794  0.3934 -0.6867  0.3777
  819TIP3   OH2 2420   2.559   1.484   4.356 -0.3254 -0.2704  0.4988
  819TIP3    H1 2421   2.488   1.547   4.343 -0.9946 -1.1470 -0.2334
  819TIP3    H2 2422   2.630   1.535   4.394 -1.2439  0.6863  0.9617
  820TIP3   OH2 2423   3.484   3.507   0.732 -0.0977  0.3872  0.3374
  820TIP3    H1 2424   3.472   3.446   0.659 -2.3470  0.4101  0.6132
  820TIP3    H2 2425   3.421   3.577   0.714 -1.1981  0.0487  2.6131
  821TIP3   OH2 2426   0.494   4.162   2.275  0.1167  0.4148  0.4195
  821TIP3    H1 2427   0.506   4.191   2.185  0.1922 -1.7589 -0.3335
  821TIP3    H2 2428   0.543   4.226   2.327  0.2145  1.6197 -1.0696
  822TIP3   OH2 2429   4.034   5.417   2.115 -0.6021 -0.6742 -0.3132
  822TIP3    H1 2430   4.053   5.503   2.078 -2.2786 -0.3418 -0.4846
  822TIP3    H2 2431   4.103   5.360   2.080  0.7052  0.6232  0.0405
  823TIP3   OH2 2432   0.657   2.953   3.619 -0.0988 -0.1345 -0.6828
  823TIP3    H1 2433   0.668   2.975   3.526  0.6735  2.1349 -0.1130
  823TIP3    H2 2434   0.718   2.881   3.633  0.9902  0.5651 -1.6022
  824TIP3   OH2 2435   4.365   2.431   0.153 -0.9662  0.4876 -0.5876
  824TIP3    H1 2436   4.416   2.500   0.110  1.0427 -0.0329  0.8273
  824TIP3    H2 2437   4.307   2.478   0.213  0.1487  0.9809  0.1256
  825TIP3   OH2 2438   3.320   3.726   3.783  0.2329  0.1522 -0.2234
  825TIP3    H1 2439   3.307   3.697   3.873 -0.1326  0.7941 -0.0684
  825TIP3    H2 2440   3.233   3.751   3.752  0.3006 -0.3678 -0.8657
  826TIP3   OH2 2441   4.658   0.078   4.915  0.2125 -0.1068 -0.3207
  826TIP3    H1 2442   4.697   0.165   4.913  0.5211 -0.1448  1.9820
  826TIP3    H2 2443   4.675   0.042   4.828 -0.0007  2.1379 -1.3567
  827TIP3   OH2 2444   0.150   1.769   1.759  0.1069  0.3290  0.1880
  827TIP3    H1 2445   0.069   1.816   1.741  1.9963  4.2026  0.8426
  827TIP3    H2 2446   0.187   1.751   1.673 -0.7702 -0.3425 -0.0756
  828TIP3   OH2 2447   0.968   4.500   3.436 -0.0040  0.4497 -0.1485
  828TIP3    H1 2448   1.006   4.575   3.480  2.1287 -0.8043  0.2837
  828TIP3    H2 2449   1.026   4.483   3.362 -0.6867 -0.5397 -0.4836
  829TIP3   OH2 2450   4.237   5.345   1.399  0.1632  0.2369  0.2787
  829TIP3    H1 2451   4.215   5.332   1.306  0.1382 -0.9842  0.4464
  829TIP3    H2 2452   4.310   5.408   1.397 -0.1343  0.5773 -0.5364
  830TIP3   OH2 2453   2.827   5.504   1.747  0.0788 -0.1274 -0.6927
  830TIP3    H1 2454   2.788   5.491   1.660 -0.0303 -0.8342 -0.5389
  830TIP3    H2 2455   2.909   5.550   1.730 -1.1130  2.0132 -0.9782
  831TIP3   OH2 2456   2.342   6.257   4.760  0.3321 -0.5991 -0.0773
  831TIP3    H1 2457   2.378   6.172   4.787 -1.7276 -1.2324  0.8085
  831TIP3    H2 2458   2.407   6.292   4.699  0.5360 -3.4897 -1.6661
  832TIP3   OH2 2459   1.685   4.398   3.403 -0.1374 -0.0463 -0.4246
  832TIP3    H1 2460   1.684   4.468   3.337 -3.4550  0.4265 -0.0653
  832TIP3    H2 2461   1.625   4.428   3.471  0.0592 -2.3023  0.8502
  833TIP3   OH2 2462   6.570   1.679   2.284  0.1753  0.2582  0.7193
  833TIP3    H1 2463   6.618   1.749   2.327 -0.4275  0.4816  1.0379
  833TIP3    H2 2464   6.630   1.605   2.285  0.3975  0.4425  1.3730
  834TIP3   OH2 2465   1.116   2.725   4.863  0.1929 -0.1813  0.1692
  834TIP3    H1 2466   1.197   2.710   4.813 -0.1427  0.6390 -0.6498
  834TIP3    H2 2467   1.046   2.693   4.805 -0.2311  1.1315 -0.0830
  835TIP3   OH2 2468   5.311   4.850   1.116  0.0922 -0.1423 -0.0581
  835TIP3    H1 2469   5.334   4.778   1.174 -2.6660 -0.3887  0.8982
  835TIP3    H2 2470   5.373   4.920   1.137 -0.1697 -0.5807  2.5352
  836TIP3   OH2 2471   3.821   0.854   1.890 -0.4193 -0.0437 -0.2054
  836TIP3    H1 2472   3.814   0.889   1.801  2.9967 -3.5246 -2.1129
  836TIP3    H2 2473   3.734   0.818   1.908 -1.2790  1.0089 -1.9969
  837TIP3   OH2 2474   5.440   4.807   3.435 -0.0721  0.3038  0.2550
  837TIP3    H1 2475   5.428   4.747   3.361 -0.3640 -0.1433  0.6605
  837TIP3    H2 2476   5.497   4.760   3.495 -0.5148  0.3234  0.6949
  838TIP3   OH2 2477   5.006   0.044   4.260 -0.7228 -0.2104  0.0389
  838TIP3    H1 2478   4.959  -0.037   4.279 -0.7159 -0.2235  0.0025
  838TIP3    H2 2479   4.977   0.068   4.172  0.5734 -1.1218 -0.6878
  839TIP3   OH2 2480   5.570   0.674   3.712 -0.4354  0.1128  0.0565
  839TIP3    H1 2481   5.634   0.605   3.729  0.4035  0.6937 -0.6334
  839TIP3    H2 2482   5.525   0.646   3.632 -1.0896 -0.3205  0.5703
  840TIP3   OH2 2483   3.573   3.096   4.087  0.2042  0.0746 -0.1769
  840TIP3    H1 2484   3.559   3.002   4.099  0.9970 -0.1342 -0.7874
  840TIP3    H2 2485   3.590   3.129   4.175  0.9876 -0.5499 -0.0759
  841TIP3   OH2 2486   0.118   5.079   0.946  0.5908  0.6061 -0.0603
  841TIP3    H1 2487   0.134   5.159   0.997 -0.0781  0.8987 -0.2949
  841TIP3    H2 2488   0.114   5.009   1.011 -0.9191  1.0685  0.3826
  842TIP3   OH2 2489   3.041   2.335   2.960 -0.1925  0.1559 -0.5208
  842TIP3    H1 2490   3.033   2.358   2.868  0.5772  0.0195 -0.6310
  842TIP3    H2 2491   3.003   2.410   3.007  0.1150  0.5760 -0.9308
  843TIP3   OH2 2492   4.849   3.112   0.074 -0.4731 -0.2199 -0.1160
  843TIP3    H1 2493   4.902   3.049   0.025 -1.1018 -1.4122  0.7111
  843TIP3    H2 2494   4.791   3.151   0.007 -1.4083 -1.9142 -0.3492
  844TIP3   OH2 2495   0.316   4.866   0.542  0.0970 -0.3855  0.0677
  844TIP3    H1 2496   0.271   4.811   0.477  0.9192 -1.3653  0.3150
  844TIP3    H2 2497   0.366   4.805   0.596  1.2071  0.6223  0.2238
  845TIP3   OH2 2498   3.209   2.410   1.390  0.2843 -0.4141 -0.2172
  845TIP3    H1 2499   3.145   2.339   1.390 -0.6800  0.4137 -1.3081
  845TIP3    H2 2500   3.223   2.430   1.298 -0.4012  1.6127  0.0632
  846TIP3   OH2 2501   6.502   3.155   4.625 -0.6931  0.1595  0.0312
  846TIP3    H1 2502   6.529   3.121   4.539  0.8156 -0.9347  0.8744
  846TIP3    H2 2503   6.464   3.079   4.669  0.7638  0.0516  1.1804
  847TIP3   OH2 2504   6.597   4.964   5.232 -0.1407 -0.2599 -0.5088
  847TIP3    H1 2505   6.614   4.965   5.327 -2.6608 -0.9482  0.0256
  847TIP3    H2 2506   6.609   4.872   5.207 -2.2348 -0.6773 -0.2019
  848TIP3   OH2 2507   1.691   1.549   3.891  0.3771  0.5976 -0.1771
  848TIP3    H1 2508   1.768   1.508   3.852  0.2610  0.9995 -0.8328
  848TIP3    H2 2509   1.644   1.476   3.932  0.4692  0.1597 -0.8316
  849TIP3   OH2 2510   5.539   5.290   1.446 -0.1159 -0.4667  0.5756
  849TIP3    H1 2511   5.536   5.353   1.374 -0.4434  1.4304  2.1751
  849TIP3    H2 2512   5.449   5.285   1.477 -0.6110 -3.5987 -0.9495
  850TIP3   OH2 2513   0.257   2.767   4.214 -0.4491 -0.4928 -0.2655
  850TIP3    H1 2514   0.263   2.861   4.200 -0.3079 -0.6349 -1.2230
  850TIP3    H2 2515   0.206   2.735   4.140  0.1755 -1.2670 -0.3747
  851TIP3   OH2 2516   4.000   1.165   2.376  0.1138  0.2551  0.0616
  851TIP3    H1 2517   4.014   1.197   2.287  0.8773  1.5688  0.6155
  851TIP3    H2 2518   3.929   1.102   2.369 -0.7005  1.2724 -1.2990
  852TIP3   OH2 2519   3.033   0.375   1.193  0.2537  0.2883 -0.1914
  852TIP3    H1 2520   3.046   0.412   1.105 -2.4313  0.5326 -0.5784
  852TIP3    H2 2521   2.982   0.296   1.178  0.0264  0.1608  1.1352
  853TIP3   OH2 2522   4.607   4.460   0.551 -0.1298 -0.1354  0.2235
  853TIP3    H1 2523   4.586   4.456   0.458  0.8672  2.1347 -0.1785
  853TIP3    H2 2524   4.674   4.394   0.564 -2.1458 -2.3414 -0.0340
  854TIP3   OH2 2525   3.013   2.104   4.092 -0.2615 -0.2278 -0.1016
  854TIP3    H1 2526   3.044   2.083   4.180  1.0356 -1.7151 -0.8646
  854TIP3    H2 2527   2.970   2.024   4.061 -2.0158  0.7482 -0.3096
  855TIP3   OH2 2528   3.364   3.285   3.865  0.8085 -0.2527  0.1812
  855TIP3    H1 2529   3.328   3.207   3.906 -1.0858 -0.0935 -1.0838
  855TIP3    H2 2530   3.374   3.348   3.937  0.2125 -0.9021  0.8380
  856TIP3   OH2 2531   1.610   6.012   5.369 -0.0300 -0.2334  0.0691
  856TIP3    H1 2532   1.588   6.094   5.325 -0.2691  1.3128  2.7885
  856TIP3    H2 2533   1.661   5.963   5.306  1.0633  2.4983 -1.3423
  857TIP3   OH2 2534   2.485   4.305   0.913  0.0063 -0.0608 -0.2357
  857TIP3    H1 2535   2.421   4.266   0.854 -1.4292 -0.4822  1.5198
  857TIP3    H2 2536   2.451   4.393   0.931  1.0230  0.4876 -0.8664
  858TIP3   OH2 2537   6.255   4.506   2.404  0.0068  0.3088 -1.0366
  858TIP3    H1 2538   6.171   4.543   2.376 -0.0520  0.6782 -0.3904
  858TIP3    H2 2539   6.278   4.554   2.483  0.5189 -0.2298 -0.8438
  859TIP3   OH2 2540   3.556   2.597   4.983  0.0613  0.0944 -0.4783
  859TIP3    H1 2541   3.550   2.569   4.892 -1.6221  0.4620 -0.5040
  859TIP3    H2 2542   3.485   2.660   4.995  0.6631  0.5619  0.9157
  860TIP3   OH2 2543   3.040   2.796   5.415  0.1304  0.0021  0.0322
  860TIP3    H1 2544   3.123   2.790   5.462 -0.4811 -0.0808  1.1331
  860TIP3    H2 2545   3.054   2.745   5.335  1.9757  2.1540 -1.1089
  861TIP3   OH2 2546   0.764   2.941   5.399  0.4916  0.0138 -0.1035
  861TIP3    H1 2547   0.738   2.875   5.334 -1.6704 -0.6449  1.3091
  861TIP3    H2 2548   0.838   2.986   5.359 -0.8732 -0.1908 -3.1488
  862TIP3   OH2 2549   4.446   2.610   1.684 -0.1525 -0.2706  0.5424
  862TIP3    H1 2550   4.377   2.599   1.750 -1.8293 -2.0926 -1.4038
  862TIP3    H2 2551   4.421   2.552   1.613  1.3883  1.8622 -1.9012
  863TIP3   OH2 2552   2.067   2.723   5.856 -0.4563  0.1544 -0.3759
  863TIP3    H1 2553   2.065   2.634   5.890  1.0735  0.2078 -0.0396
  863TIP3    H2 2554   2.160   2.748   5.861 -0.8913  1.8809 -0.1534
  864TIP3   OH2 2555   1.305   0.591   5.543 -0.0364  0.4475  0.0705
  864TIP3    H1 2556   1.308   0.619   5.634 -2.2475  0.3931  0.2166
  864TIP3    H2 2557   1.211   0.590   5.521  0.2998 -1.5012 -1.5833
  865TIP3   OH2 2558   6.883   3.476   0.811 -0.0779 -0.3063 -0.1151
  865TIP3    H1 2559   6.933   3.395   0.814  0.6639  0.1245 -0.4658
  865TIP3    H2 2560   6.895   3.508   0.722  1.9819  1.6002  0.7370
  866TIP3   OH2 2561   6.373   0.141   0.677 -0.4444  0.4178  0.0808
  866TIP3    H1 2562   6.347   0.128   0.769  1.0856 -0.0127  0.4783
  866TIP3    H2 2563   6.364   0.235   0.663  0.9542  0.7614  1.2258
  867TIP3   OH2 2564   4.936   4.891   0.033 -0.0411 -0.1400  0.0157
  867TIP3    H1 2565   4.941   4.915  -0.060 -0.6623  1.0292  0.2728
  867TIP3    H2 2566   5.021   4.850   0.051  0.3621  0.2667 -0.8951
  868TIP3   OH2 2567   1.706   5.453   4.005  1.0750 -0.0442  0.0825
  868TIP3    H1 2568   1.730   5.456   4.098  0.9321 -0.5505  0.1400
  868TIP3    H2 2569   1.783   5.488   3.960  0.2796  2.4277  0.5114
  869TIP3   OH2 2570   4.073   2.226   2.559  0.0606 -0.2978 -0.0026
  869TIP3    H1 2571   4.104   2.175   2.634  0.3308 -0.3055 -0.1162
  869TIP3    H2 2572   3.980   2.204   2.552  0.1697 -0.7763 -0.0429
  870TIP3   OH2 2573   6.485   4.228   0.708  0.3397 -0.0127  0.5361
  870TIP3    H1 2574   6.528   4.305   0.745 -0.0702 -0.2932  1.6257
  870TIP3    H2 2575   6.407   4.264   0.664  0.5497  0.2708  0.3944
  871TIP3   OH2 2576   5.410   1.366   1.365  0.5419  0.0994 -0.6180
  871TIP3    H1 2577   5.415   1.271   1.355  0.0094  0.1579 -1.5914
  871TIP3    H2 2578   5.344   1.393   1.301 -0.8043  0.9267  1.0413
  872TIP3   OH2 2579   1.345   5.250   5.007  0.5715  0.2921  0.0208
  872TIP3    H1 2580   1.343   5.287   5.095 -0.1043  0.0291  0.1157
  872TIP3    H2 2581   1.291   5.309   4.955 -1.8575 -1.3785  0.5046
  873TIP3   OH2 2582   1.527   3.836   2.882 -0.3345 -0.4712  0.8916
  873TIP3    H1 2583   1.618   3.830   2.852 -0.6216  1.4040 -0.5139
  873TIP3    H2 2584   1.482   3.765   2.837  0.2184 -0.7410  0.7592
  874TIP3   OH2 2585   6.834   0.645   3.602 -0.2374  0.5057  0.1823
  874TIP3    H1 2586   6.876   0.706   3.663  1.1704  0.7862 -1.0101
  874TIP3    H2 2587   6.766   0.601   3.654 -1.1766  2.9307  1.1348
  875TIP3   OH2 2588   0.508   4.343   5.517  0.0781 -0.6824 -0.2692
  875TIP3    H1 2589   0.450   4.374   5.587  0.5880  0.0247 -0.1461
  875TIP3    H2 2590   0.528   4.253   5.541  1.0851 -0.1397  1.0991
  876TIP3   OH2 2591   3.654   0.139   4.645 -0.7469  0.1317  0.1656
  876TIP3    H1 2592   3.663   0.103   4.733  0.2489  0.5828  0.2549
  876TIP3    H2 2593   3.718   0.210   4.640 -1.0739  0.3860 -0.7837
  877TIP3   OH2 2594   1.374   1.003   2.459  0.4877  0.0938 -0.5217
  877TIP3    H1 2595   1.283   1.026   2.476  0.7169  0.7059 -0.0989
  877TIP3    H2 2596   1.398   1.053   2.381  0.0917 -1.0424 -1.3980
  878TIP3   OH2 2597   4.998   5.795   3.620  0.7482  0.2317  0.0743
  878TIP3    H1 2598   5.064   5.732   3.648  0.2518  0.4183  1.7541
  878TIP3    H2 2599   4.951   5.818   3.700 -1.5283 -0.0674 -1.1006
  879TIP3   OH2 2600   3.623   5.630   5.825  0.1134 -0.6277 -0.2859
  879TIP3    H1 2601   3.643   5.724   5.828 -0.5280 -0.5303  1.9955
  879TIP3    H2 2602   3.596   5.607   5.914  1.3834 -3.2453 -0.4729
  880TIP3   OH2 2603   0.771   2.753   4.512  0.6958  0.0568  0.4639
  880TIP3    H1 2604   0.738   2.834   4.550 -0.3054  0.6208 -1.4604
  880TIP3    H2 2605   0.841   2.781   4.453  0.2053 -0.4349 -0.3707
  881TIP3   OH2 2606   2.727   4.736  -0.016 -0.3551  0.0262  0.1092
  881TIP3    H1 2607   2.761   4.695   0.063  0.1616  1.9067  0.9202
  881TIP3    H2 2608   2.633   4.746  -0.000 -0.3620 -0.1756  0.2025
  882TIP3   OH2 2609   4.013   5.934   5.383 -0.0409 -0.6466 -0.0377
  882TIP3    H1 2610   4.040   6.023   5.359  1.5358 -1.1228 -0.1245
  882TIP3    H2 2611   3.919   5.933   5.368 -0.4683  1.6332  1.9004
  883TIP3   OH2 2612   6.332   4.043   4.771  0.6434  0.2374 -0.0922
  883TIP3    H1 2613   6.384   4.120   4.792  0.3504  0.6304 -0.7711
  883TIP3    H2 2614   6.300   4.059   4.682 -1.3450  0.4148  0.6019
  884TIP3   OH2 2615   1.244   5.903   4.179  0.5772 -0.2837 -0.2438
  884TIP3    H1 2616   1.193   5.960   4.236  1.3324 -0.4766  0.6579
  884TIP3    H2 2617   1.192   5.895   4.100  0.9030  2.5053 -0.8454
  885TIP3   OH2 2618   5.596   5.875   0.822 -0.0686  0.5485 -0.5197
  885TIP3    H1 2619   5.558   5.814   0.758  1.8085 -2.4063  0.9781
  885TIP3    H2 2620   5.684   5.893   0.789  0.1318  0.7384  0.1021
  886TIP3   OH2 2621   6.437   5.095   4.156 -0.4887  0.2658  0.1360
  886TIP3    H1 2622   6.493   5.060   4.086  0.4015 -0.3333  1.1099
  886TIP3    H2 2623   6.426   5.188   4.134 -0.9226 -0.0879 -1.2303
  887TIP3   OH2 2624   0.383   2.361   1.846  0.1104 -0.0951  0.0253
  887TIP3    H1 2625   0.448   2.430   1.855 -0.8452  0.8046  0.2565
  887TIP3    H2 2626   0.417   2.304   1.777  1.9327 -0.5892  1.2704
  888TIP3   OH2 2627   6.799   1.756   2.822 -0.1164  0.7780  0.1898
  888TIP3    H1 2628   6.883   1.800   2.822  0.5703 -0.4913  0.4310
  888TIP3    H2 2629   6.806   1.691   2.751 -0.9986  0.8467  0.0225
  889TIP3   OH2 2630   0.311   0.263   4.538 -0.1519  0.3153  0.3261
  889TIP3    H1 2631   0.390   0.289   4.492 -0.2110 -0.9490 -0.5471
  889TIP3    H2 2632   0.245   0.253   4.469 -1.0101  1.0613  1.0044
  890TIP3   OH2 2633   3.897   1.994   0.358 -0.6733  0.1286  0.3839
  890TIP3    H1 2634   3.987   1.961   0.357 -0.2377  1.2121  1.2778
  890TIP3    H2 2635   3.899   2.070   0.300 -1.1378 -0.1359  0.0185
  891TIP3   OH2 2636   5.365   1.616   3.763  0.1305  0.6121  0.1070
  891TIP3    H1 2637   5.368   1.599   3.857 -1.4470  0.2414  0.1299
  891TIP3    H2 2638   5.272   1.629   3.745  0.3487  0.1667 -1.4827
  892TIP3   OH2 2639   2.753   4.826   4.798  0.2003  0.3171  0.3408
  892TIP3    H1 2640   2.829   4.829   4.740  0.8035  1.9648  1.1565
  892TIP3    H2 2641   2.785   4.784   4.877 -0.2343 -0.6179  0.0278
  893TIP3   OH2 2642   5.228   6.193   3.311  0.1341  0.5136  0.3191
  893TIP3    H1 2643   5.215   6.101   3.337  1.1493 -0.2420 -1.6067
  893TIP3    H2 2644   5.310   6.191   3.260 -0.8075  2.1310 -1.3614
  894TIP3   OH2 2645   1.484   1.809   0.237  0.1220 -0.0781 -0.6313
  894TIP3    H1 2646   1.523   1.722   0.231  1.2305  0.3287  0.3235
  894TIP3    H2 2647   1.440   1.810   0.322 -1.4359 -0.2865 -1.3897
  895TIP3   OH2 2648   2.765   2.113   0.176  0.6117  0.1433  0.1818
  895TIP3    H1 2649   2.857   2.099   0.154  1.2792  0.5728  2.3941
  895TIP3    H2 2650   2.752   2.062   0.256 -1.2795 -0.4309 -0.4449
  896TIP3   OH2 2651   3.747   3.732   1.708 -0.2630 -0.5071  0.3158
  896TIP3    H1 2652   3.677   3.696   1.763 -0.1505 -1.3215 -0.0596
  896TIP3    H2 2653   3.827   3.718   1.759 -0.3446  0.3453  0.7062
  897TIP3   OH2 2654   2.399   1.861   1.913  0.0441  0.7665  0.3094
  897TIP3    H1 2655   2.321   1.816   1.946  2.2080 -3.9058 -0.1035
  897TIP3    H2 2656   2.395   1.850   1.818  1.5654 -0.4465  0.3444
  898TIP3   OH2 2657   6.463   0.970   2.904  0.4687  0.3215 -0.1627
  898TIP3    H1 2658   6.516   0.927   2.972  0.5227  1.3688  0.4798
  898TIP3    H2 2659   6.380   0.990   2.947 -0.1493 -0.5037 -0.9106
  899TIP3   OH2 2660   5.121   2.154   4.053 -0.2510  0.5362 -0.0811
  899TIP3    H1 2661   5.095   2.076   4.004  0.0603 -0.4837  1.3011
  899TIP3    H2 2662   5.084   2.140   4.140  2.1791  0.5195  1.0372
  900TIP3   OH2 2663   1.179   5.207   2.085  0.1054  0.2482  0.0198
  900TIP3    H1 2664   1.269   5.230   2.109  0.3130 -0.5255 -0.0088
  900TIP3    H2 2665   1.158   5.133   2.142  0.4485 -1.3325 -1.8270
  901TIP3   OH2 2666   6.048   5.399   3.154  0.2856  0.4576 -0.0575
  901TIP3    H1 2667   6.031   5.487   3.120 -1.2771 -0.2179 -1.0905
  901TIP3    H2 2668   5.963   5.367   3.184  0.4104 -1.4277 -1.5057
  902TIP3   OH2 2669   7.159   0.459   0.258  0.4736 -0.2496 -0.1172
  902TIP3    H1 2670   7.128   0.374   0.228 -0.4894 -0.1715  0.6246
  902TIP3    H2 2671   7.116   0.522   0.199 -0.4625 -0.1688  0.6274
  903TIP3   OH2 2672   1.250   6.247   0.976  0.6646  0.1869 -0.3079
  903TIP3    H1 2673   1.255   6.332   0.934  0.9979  1.2968  1.8207
  903TIP3    H2 2674   1.326   6.199   0.945 -0.6555 -0.2264 -3.2070
  904TIP3   OH2 2675   1.692   4.482   4.284 -0.3275  0.3638 -0.5151
  904TIP3    H1 2676   1.657   4.446   4.366 -2.3270 -0.2105 -1.5394
  904TIP3    H2 2677   1.775   4.437   4.271 -0.8868 -0.9549  0.2500
  905TIP3   OH2 2678   2.151   4.947   0.352 -0.0388  0.1273 -0.2997
  905TIP3    H1 2679   2.236   4.905   0.359  0.4472  1.0383 -0.6004
  905TIP3    H2 2680   2.167   5.028   0.303 -0.8584  0.8793  0.6181
  906TIP3   OH2 2681   0.808   3.312   3.504  0.2693  0.2557 -0.3373
  906TIP3    H1 2682   0.749   3.244   3.473 -0.2568  1.2485 -1.6164
  906TIP3    H2 2683   0.767   3.345   3.584 -1.8054  1.9582 -1.9919
  907TIP3   OH2 2684   2.038   0.632   4.596  0.0538 -0.2418  0.3728
  907TIP3    H1 2685   2.005   0.582   4.671  3.2690 -1.9230  0.8627
  907TIP3    H2 2686   2.094   0.570   4.550  0.8896  1.7749 -1.4578
  908TIP3   OH2 2687   2.462   5.318   5.228  0.1539 -1.2244  0.0969
  908TIP3    H1 2688   2.438   5.364   5.309  0.1359 -2.4058  0.7772
  908TIP3    H2 2689   2.392   5.255   5.214  0.6151 -1.6504 -0.3396
  909TIP3   OH2 2690   1.676   0.903   3.505 -0.2358  0.3239 -0.2239
  909TIP3    H1 2691   1.716   0.859   3.580 -0.4134  1.5666  0.6299
  909TIP3    H2 2692   1.584   0.914   3.529  0.6061  5.3627  1.8114
  910TIP3   OH2 2693   1.929   1.605   0.301 -0.2284  0.8492  0.7166
  910TIP3    H1 2694   1.934   1.640   0.212 -0.7614  1.6472  0.9848
  910TIP3    H2 2695   1.837   1.581   0.312 -0.2846  1.2768  1.2357
  911TIP3   OH2 2696   4.539   4.842   5.486  0.2606 -0.3070  0.1702
  911TIP3    H1 2697   4.525   4.881   5.572 -1.7846 -1.0926  0.2630
  911TIP3    H2 2698   4.520   4.913   5.425 -3.2280 -0.8824  0.3448
  912TIP3   OH2 2699   5.943   1.508   1.147  0.4211 -0.3084  0.4464
  912TIP3    H1 2700   6.010   1.522   1.213  2.2347 -1.2892 -1.0863
  912TIP3    H2 2701   5.977   1.437   1.092 -0.4197  1.1709 -2.1940
  913TIP3   OH2 2702   1.854   0.665   5.561  0.4007 -0.1590  0.2807
  913TIP3    H1 2703   1.949   0.663   5.569  0.3356  0.9717  1.8420
  913TIP3    H2 2704   1.831   0.757   5.569 -0.8805 -0.5040  0.8215
  914TIP3   OH2 2705   0.804   3.279   2.025 -0.8322 -0.3603  0.3798
  914TIP3    H1 2706   0.828   3.360   1.979  0.0149 -1.0973 -0.5140
  914TIP3    H2 2707   0.724   3.249   1.982 -0.0273 -1.0618 -0.6808
  915TIP3   OH2 2708   3.645   2.860   2.963  0.0968 -0.0597  0.1050
  915TIP3    H1 2709   3.698   2.810   3.025 -0.0935  2.4336  2.4583
  915TIP3    H2 2710   3.699   2.937   2.942 -0.1911 -0.4187 -2.2762
  916TIP3   OH2 2711   1.445   2.957   5.220 -0.5624  0.2166  0.3982
  916TIP3    H1 2712   1.476   2.936   5.308  0.4853 -0.0967 -0.0240
  916TIP3    H2 2713   1.429   3.052   5.222 -1.8573  0.0034  1.2920
  917TIP3   OH2 2714   3.078   1.572   3.060 -0.2269  0.6002 -0.1993
  917TIP3    H1 2715   3.119   1.646   3.105  0.1119  0.9419 -1.0487
  917TIP3    H2 2716   3.089   1.498   3.121  0.1992  1.0522  0.2842
  918TIP3   OH2 2717   1.994   5.762   4.811  0.0533  0.5569 -0.1192
  918TIP3    H1 2718   2.033   5.770   4.898  0.1692  0.1421 -0.1261
  918TIP3    H2 2719   2.064   5.724   4.758 -0.2122  0.2310 -0.2407
  919TIP3   OH2 2720   5.224   3.770   1.364  0.1083 -0.3799 -0.0742
  919TIP3    H1 2721   5.230   3.693   1.420  1.0757 -1.1169 -1.1488
  919TIP3    H2 2722   5.295   3.827   1.393 -1.3669  0.7316  1.5579
  920TIP3   OH2 2723   6.467   1.449   4.456 -0.1990 -0.2143  0.2537
  920TIP3    H1 2724   6.503   1.512   4.518 -0.0454  0.7787 -0.8036
  920TIP3    H2 2725   6.391   1.493   4.418  0.4240 -0.2911 -1.1427
  921TIP3   OH2 2726   6.696   0.857   3.795 -0.4285 -0.1802 -0.0661
  921TIP3    H1 2727   6.737   0.916   3.732 -1.2902  0.0845 -0.3954
  921TIP3    H2 2728   6.629   0.911   3.838  0.3157 -0.2794  1.2631
  922TIP3   OH2 2729   6.302   3.015   0.266 -0.4192  0.3587 -0.2459
  922TIP3    H1 2730   6.376   2.990   0.320 -0.4493 -0.9497 -0.7721
  922TIP3    H2 2731   6.285   2.938   0.212 -2.4482  0.4468  0.1822
  923TIP3   OH2 2732   6.968   4.086   0.544  0.4806 -0.2974 -0.3005
  923TIP3    H1 2733   6.978   4.056   0.454  0.0454 -1.2538 -0.0456
  923TIP3    H2 2734   6.946   4.007   0.593  1.5099  0.0636  0.7889
  924TIP3   OH2 2735   3.925   0.274   1.149  0.2899  0.3716 -0.4061
  924TIP3    H1 2736   4.015   0.303   1.134 -0.0424  1.9572  0.4891
  924TIP3    H2 2737   3.907   0.297   1.240 -0.3424 -1.8618  0.1108
  925TIP3   OH2 2738   1.021   4.125   2.913 -0.0400 -0.3190  0.0005
  925TIP3    H1 2739   0.953   4.176   2.958  1.2116  0.0908  1.4748
  925TIP3    H2 2740   1.022   4.041   2.958  2.5992  0.7699  2.2475
  926TIP3   OH2 2741   6.975   1.862   1.399 -0.7807 -0.2363  0.1475
  926TIP3    H1 2742   6.912   1.791   1.400  0.3234 -1.2695 -0.4472
  926TIP3    H2 2743   6.954   1.911   1.319  0.0819 -1.4682 -0.8699
  927TIP3   OH2 2744   0.075   5.156   4.288 -0.0007 -0.0643  0.5652
  927TIP3    H1 2745   0.109   5.169   4.199  1.1556  1.3555  1.1744
  927TIP3    H2 2746   0.053   5.244   4.318  0.7976 -0.3670  2.1309
  928TIP3   OH2 2747   3.873   4.341   2.214  0.2954 -0.4480 -0.0554
  928TIP3    H1 2748   3.883   4.428   2.175 -0.4695 -0.4867 -0.3550
  928TIP3    H2 2749   3.786   4.313   2.187 -0.6533 -0.1307  2.3774
  929TIP3   OH2 2750   3.807   2.728   4.554  0.8320  0.6306 -0.4739
  929TIP3    H1 2751   3.846   2.802   4.602  0.4941  0.0117  0.7928
  929TIP3    H2 2752   3.722   2.761   4.524  0.6347  0.7381  0.1794
  930TIP3   OH2 2753   2.317   3.902   2.349 -0.2335 -0.3634  0.6671
  930TIP3    H1 2754   2.280   3.963   2.285 -1.8655 -1.1656  0.7940
  930TIP3    H2 2755   2.412   3.907   2.335 -0.5292 -0.5132 -1.8118
  931TIP3   OH2 2756   2.952   3.861   0.653  0.2459  0.3262  0.3519
  931TIP3    H1 2757   3.003   3.874   0.573  0.1592  0.6976  0.3517
  931TIP3    H2 2758   3.015   3.878   0.724  1.1058 -2.7183  0.4752
  932TIP3   OH2 2759   2.804   5.374   1.984  0.1459  0.0898  0.6162
  932TIP3    H1 2760   2.830   5.429   1.910 -0.1465  1.6949  1.6636
  932TIP3    H2 2761   2.720   5.410   2.012 -0.6542 -1.6616  0.6136
  933TIP3   OH2 2762   2.052   5.967   5.296 -0.3820 -0.3960 -0.4674
  933TIP3    H1 2763   1.973   5.914   5.307  0.5716 -1.9688 -0.8327
  933TIP3    H2 2764   2.031   6.051   5.338 -1.8231 -1.1694  0.4489
  934TIP3   OH2 2765   6.379   4.094   3.636  0.1247 -0.7188 -0.3985
  934TIP3    H1 2766   6.327   4.048   3.702  1.5726 -0.6048  0.8829
  934TIP3    H2 2767   6.315   4.145   3.586 -0.8900  0.5106  1.9952
  935TIP3   OH2 2768   2.954   2.758   0.550  0.2718  0.6453 -0.5327
  935TIP3    H1 2769   2.876   2.794   0.507  0.2692  0.7729 -0.4195
  935TIP3    H2 2770   3.015   2.832   0.553 -0.1191  0.9377  0.6551
  936TIP3   OH2 2771   4.402   6.326   0.168  0.2876  0.1575 -0.6942
  936TIP3    H1 2772   4.349   6.403   0.146  1.4158  0.3262 -3.0999
  936TIP3    H2 2773   4.399   6.271   0.090  0.5249 -1.6838  0.5298
  937TIP3   OH2 2774   4.460   3.436   3.121  0.5028  0.1543 -0.1946
  937TIP3    H1 2775   4.454   3.529   3.140  1.7211  0.1589  0.2697
  937TIP3    H2 2776   4.375   3.400   3.150  0.5059  0.9205  0.8222
  938TIP3   OH2 2777   4.773   6.664   2.725 -0.2808 -0.3546  0.0691
  938TIP3    H1 2778   4.805   6.601   2.788 -1.0567 -0.4117  0.4227
  938TIP3    H2 2779   4.707   6.715   2.773 -0.9313 -0.4468 -0.6955
  939TIP3   OH2 2780   6.880   2.297   0.688 -0.3941 -0.0776  0.0384
  939TIP3    H1 2781   6.858   2.386   0.660  2.0202 -0.1374 -2.5730
  939TIP3    H2 2782   6.924   2.309   0.772 -0.6291  1.1413  0.0106
  940TIP3   OH2 2783   2.343   4.848   4.158  0.1106  0.0130 -0.9709
  940TIP3    H1 2784   2.409   4.916   4.147 -2.0107  2.3541 -0.2061
  940TIP3    H2 2785   2.349   4.824   4.251 -0.5334  0.6903 -0.7539
  941TIP3   OH2 2786   6.057   4.077   2.286 -0.4379 -0.0360  0.1970
  941TIP3    H1 2787   5.980   4.071   2.344 -0.8944 -0.2109 -0.4209
  941TIP3    H2 2788   6.022   4.060   2.199  0.5412 -1.4890  0.0614
  942TIP3   OH2 2789   5.261   6.780   4.266  0.2203 -0.3034  0.1329
  942TIP3    H1 2790   5.265   6.712   4.198  0.5715  0.6247 -0.7961
  942TIP3    H2 2791   5.169   6.804   4.271 -0.2427 -2.1360  1.8142
  943TIP3   OH2 2792   4.055   2.300   2.302 -0.1471 -0.3123  0.6333
  943TIP3    H1 2793   4.071   2.300   2.397  0.6868  0.0922  0.5023
  943TIP3    H2 2794   4.136   2.266   2.264 -0.5365 -0.6270  0.0695
  944TIP3   OH2 2795   4.889   2.729   0.163 -0.4612 -0.1495 -0.1114
  944TIP3    H1 2796   4.964   2.686   0.123 -1.1730 -0.9388 -0.6370
  944TIP3    H2 2797   4.838   2.761   0.089 -1.2253 -0.6407  0.1908
  945TIP3   OH2 2798   5.909   2.750   2.913 -0.1685  0.2168 -0.5711
  945TIP3    H1 2799   5.998   2.783   2.927 -0.7809  1.0231  1.8971
  945TIP3    H2 2800   5.921   2.664   2.873  1.7102  0.4237 -0.5348
  946TIP3   OH2 2801   1.698   0.064   1.066  0.2463 -0.4529  0.4195
  946TIP3    H1 2802   1.675   0.089   1.155 -0.9519 -1.2618  0.3492
  946TIP3    H2 2803   1.624   0.013   1.035  0.6299 -0.1615 -1.0624
  947TIP3   OH2 2804   5.039   6.648   1.021  0.0101  0.2479 -0.2543
  947TIP3    H1 2805   5.036   6.711   1.093 -2.1895  1.1855 -1.0761
  947TIP3    H2 2806   5.045   6.702   0.942 -0.0537 -0.6683 -0.8988
  948TIP3   OH2 2807   4.208   4.681   1.189  0.1431  0.3523  0.4080
  948TIP3    H1 2808   4.271   4.743   1.153 -1.1086  2.8786  2.3086
  948TIP3    H2 2809   4.244   4.654   1.273 -0.1437 -0.1611  0.3753
  949TIP3   OH2 2810   0.121   0.881   3.333  0.0769  0.1917 -0.1021
  949TIP3    H1 2811   0.146   0.922   3.251  1.2688  0.6914  0.4823
  949TIP3    H2 2812   0.173   0.800   3.336 -0.4625 -0.1630 -0.1382
  950TIP3   OH2 2813   6.793   0.729   2.601  0.6583 -0.3964  0.3586
  950TIP3    H1 2814   6.887   0.746   2.613  0.5375  1.2020 -0.5503
  950TIP3    H2 2815   6.787   0.635   2.585  2.2594 -0.3539 -0.7002
  951TIP3   OH2 2816   1.703   2.642   2.786  0.0266  0.2647  0.2578
  951TIP3    H1 2817   1.686   2.723   2.739  0.7782  0.6209  0.5912
  951TIP3    H2 2818   1.688   2.573   2.721  0.6667  0.7326 -0.4024
  952TIP3   OH2 2819   1.786   4.917   1.412 -0.0265 -0.5522 -0.1485
  952TIP3    H1 2820   1.795   4.931   1.318  0.0050  1.3947  0.0975
  952TIP3    H2 2821   1.862   4.864   1.436  0.2283 -0.6473 -1.1333
  953TIP3   OH2 2822   5.755   3.375   5.306 -0.6109  0.1056 -0.1815
  953TIP3    H1 2823   5.772   3.398   5.215 -1.6668  0.4684 -0.3020
  953TIP3    H2 2824   5.731   3.282   5.303 -0.5677  0.0975 -0.2684
  954TIP3   OH2 2825   3.792   4.480   4.218  0.0429 -0.0577 -0.7513
  954TIP3    H1 2826   3.844   4.480   4.138  0.0160 -1.9557 -0.8333
  954TIP3    H2 2827   3.737   4.402   4.211 -0.4463  0.1013  0.8032
  955TIP3   OH2 2828   4.436   6.205   1.724  0.5025 -0.3752  0.6936
  955TIP3    H1 2829   4.450   6.125   1.773  2.1477 -0.3205  0.3522
  955TIP3    H2 2830   4.511   6.212   1.666 -0.9856 -0.0268 -1.3028
  956TIP3   OH2 2831   3.318   5.749   2.309  0.2813 -0.7567 -0.2061
  956TIP3    H1 2832   3.292   5.680   2.370 -0.9493 -1.5808 -1.5893
  956TIP3    H2 2833   3.244   5.810   2.309  0.1430 -0.9062 -1.0387
  957TIP3   OH2 2834   0.252   0.960   0.659  0.2549  0.0943 -0.1287
  957TIP3    H1 2835   0.298   1.008   0.590 -0.0336 -0.6550 -0.8550
  957TIP3    H2 2836   0.236   1.026   0.727  0.9457  0.7387 -0.5707
  958TIP3   OH2 2837   6.468   3.263   2.442 -0.0972 -0.5117 -0.6939
  958TIP3    H1 2838   6.379   3.294   2.461 -0.0251 -0.4030 -0.5367
  958TIP3    H2 2839   6.464   3.235   2.350 -0.8973 -2.5914 -0.1039
  959TIP3   OH2 2840   1.835   0.356   4.325 -0.4351  0.0058  0.5153
  959TIP3    H1 2841   1.743   0.346   4.348 -0.2278 -0.5200  1.1405
  959TIP3    H2 2842   1.851   0.450   4.329 -1.2135  0.2165 -0.7005
  960TIP3   OH2 2843   5.204   0.060   1.492  0.1683  0.2805 -0.3590
  960TIP3    H1 2844   5.138   0.121   1.460  0.7658  0.3044 -1.6055
  960TIP3    H2 2845   5.260   0.113   1.549  1.3859  1.2420 -2.3555
  961TIP3   OH2 2846   7.166   5.479   0.216  0.2800  0.3150 -0.0610
  961TIP3    H1 2847   7.087   5.489   0.162 -0.4857 -1.2735  0.6936
  961TIP3    H2 2848   7.220   5.417   0.167  0.3065  0.1371  0.1886
  962TIP3   OH2 2849   4.700   1.434   0.607 -0.1645  0.1032 -0.5911
  962TIP3    H1 2850   4.676   1.400   0.522  0.9227 -0.1303 -0.8224
  962TIP3    H2 2851   4.704   1.529   0.595  0.8539  0.0194 -1.0601
  963TIP3   OH2 2852   3.630   1.290   5.312  0.0745  0.1271  0.3262
  963TIP3    H1 2853   3.555   1.249   5.268  1.1446 -1.2467 -0.3371
  963TIP3    H2 2854   3.592   1.343   5.382 -1.4849 -0.8590  0.2718
  964TIP3   OH2 2855   2.815   6.717   2.505  0.2926 -0.2938 -0.1207
  964TIP3    H1 2856   2.874   6.729   2.579  1.4436 -1.7823 -0.7292
  964TIP3    H2 2857   2.873   6.693   2.432 -0.5913  2.9094 -2.0406
  965TIP3   OH2 2858   4.958   3.776   2.473  0.0180  0.0519 -0.1827
  965TIP3    H1 2859   5.013   3.699   2.458 -1.2512 -1.0986  0.7597
  965TIP3    H2 2860   4.917   3.760   2.558  0.1990  2.0969  0.3367
  966TIP3   OH2 2861   6.342   1.311   1.339 -0.2501  0.5266  0.0797
  966TIP3    H1 2862   6.256   1.304   1.380  0.7175 -0.8993  2.0041
  966TIP3    H2 2863   6.342   1.242   1.272 -0.2491 -0.1260  0.7496
  967TIP3   OH2 2864   5.322   2.102   1.832  0.4083  0.1832  0.1221
  967TIP3    H1 2865   5.347   2.018   1.794 -1.3018  1.0506 -3.3605
  967TIP3    H2 2866   5.347   2.096   1.924  2.7730 -3.0729 -0.5765
  968TIP3   OH2 2867   4.914   0.037   2.859  0.7165  0.1149  0.0762
  968TIP3    H1 2868   4.878  -0.051   2.855 -0.7844  0.6885  0.3703
  968TIP3    H2 2869   5.009   0.025   2.854  0.4857 -1.4038 -1.5516
  969TIP3   OH2 2870   4.095   5.401   3.410 -0.0782 -0.2603  1.1696
  969TIP3    H1 2871   4.080   5.480   3.357 -0.4993 -0.1015  1.5135
  969TIP3    H2 2872   4.061   5.330   3.356  2.0542 -0.4816  0.0184
  970TIP3   OH2 2873   6.059   0.618   2.581 -0.0815 -0.6365  0.3900
  970TIP3    H1 2874   6.024   0.653   2.499 -0.3768 -2.7226 -0.4325
  970TIP3    H2 2875   6.151   0.599   2.561 -0.6251 -3.0066 -0.1711
  971TIP3   OH2 2876   1.638   6.002   1.158  0.4181  0.0156 -0.2740
  971TIP3    H1 2877   1.648   5.999   1.253 -4.0796  0.0424  0.4302
  971TIP3    H2 2878   1.635   5.910   1.132  0.9593  0.0008 -0.2889
  972TIP3   OH2 2879   1.509   5.212   1.923  0.1616  0.0634 -0.1990
  972TIP3    H1 2880   1.489   5.121   1.903 -0.5592 -0.6420  3.1342
  972TIP3    H2 2881   1.604   5.215   1.929  0.1281 -0.7971  0.9252
  973TIP3   OH2 2882   5.180   1.869   0.462  0.0507  0.0849  0.1061
  973TIP3    H1 2883   5.244   1.799   0.474 -0.6293 -0.2423  2.1605
  973TIP3    H2 2884   5.138   1.849   0.378  1.1482 -0.8847 -0.2395
  974TIP3   OH2 2885   3.072   1.644   2.790  0.2788  0.0878  0.8196
  974TIP3    H1 2886   3.063   1.608   2.878  0.1149 -0.2484  0.6665
  974TIP3    H2 2887   3.166   1.655   2.779  0.6783 -3.3381 -0.3167
  975TIP3   OH2 2888   0.550   5.190   2.101  0.5677  0.0067  0.3678
  975TIP3    H1 2889   0.472   5.180   2.156  0.8759  1.4377  1.1099
  975TIP3    H2 2890   0.529   5.142   2.021 -0.4292 -0.9811  1.1784
  976TIP3   OH2 2891   6.657   4.864   0.560  0.3981  0.4047 -0.0334
  976TIP3    H1 2892   6.670   4.951   0.598  2.3341 -0.3407  1.1828
  976TIP3    H2 2893   6.678   4.803   0.631 -0.5251 -1.0680 -0.9688
  977TIP3   OH2 2894   6.158   4.804   0.389 -0.3952  0.3719 -0.3576
  977TIP3    H1 2895   6.069   4.768   0.390 -0.2780  0.0655 -0.7076
  977TIP3    H2 2896   6.197   4.769   0.309 -0.5660  1.9584 -1.1789
  978TIP3   OH2 2897   1.816   5.182   3.164  0.4130 -0.4659 -0.6238
  978TIP3    H1 2898   1.810   5.087   3.153  0.7378 -0.4793 -0.6803
  978TIP3    H2 2899   1.881   5.210   3.100  1.0405 -0.3295  0.0604
  979TIP3   OH2 2900   3.540   0.788   4.550 -0.4565 -0.0820 -0.3422
  979TIP3    H1 2901   3.540   0.879   4.581 -0.2834 -0.3213  0.3909
  979TIP3    H2 2902   3.570   0.793   4.460 -1.1474  0.6623 -0.5385
  980TIP3   OH2 2903   6.840   3.643   0.012  0.1891  0.4344 -0.0580
  980TIP3    H1 2904   6.801   3.558  -0.009 -0.8588  1.0806 -0.8593
  980TIP3    H2 2905   6.783   3.679   0.080  1.1088  0.1507  0.8673
  981TIP3   OH2 2906   2.198   4.858   4.650 -0.0955  0.5079  0.6029
  981TIP3    H1 2907   2.280   4.905   4.635  2.1945 -3.3526 -0.3797
  981TIP3    H2 2908   2.185   4.862   4.745  0.3126  2.4287  0.6209
  982TIP3   OH2 2909   4.394   5.381   2.247  0.3831  0.3398 -0.3552
  982TIP3    H1 2910   4.482   5.395   2.212  0.3567  1.0111 -0.1626
  982TIP3    H2 2911   4.362   5.468   2.268 -0.7448  0.2057 -1.4036
  983TIP3   OH2 2912   1.358   5.865   1.955  0.2746  0.0057  0.4429
  983TIP3    H1 2913   1.413   5.818   2.017  2.5407  0.5176 -1.0611
  983TIP3    H2 2914   1.330   5.799   1.892  1.6546  0.2280 -0.4393
  984TIP3   OH2 2915   4.392   5.410   0.923 -0.3691 -0.0794  0.3058
  984TIP3    H1 2916   4.430   5.495   0.945  0.8057 -0.0807 -1.5130
  984TIP3    H2 2917   4.357   5.420   0.835 -0.8862 -1.2778  0.3477
  985TIP3   OH2 2918   0.083   2.108   4.402 -0.2905  0.4086  0.3891
  985TIP3    H1 2919   0.057   2.027   4.358 -2.2230  1.8334 -1.2387
  985TIP3    H2 2920   0.066   2.091   4.495 -0.2707 -1.1659  0.1304
  986TIP3   OH2 2921   3.985   2.965   4.993  0.0839 -0.3194  0.0858
  986TIP3    H1 2922   4.042   2.905   5.041  0.5980  0.6621  0.7425
  986TIP3    H2 2923   4.040   3.000   4.922  0.1370  0.1811  0.3637
  987TIP3   OH2 2924   2.077   2.067   1.739 -0.3082  0.2998  0.0388
  987TIP3    H1 2925   2.055   2.005   1.669 -0.5597 -1.7800  1.8531
  987TIP3    H2 2926   1.994   2.086   1.781  0.0232  0.3895  0.6585
  988TIP3   OH2 2927   3.138   3.173   4.889 -0.2096 -0.7066 -0.2572
  988TIP3    H1 2928   3.187   3.213   4.961  0.9942 -1.0422 -0.8545
  988TIP3    H2 2929   3.168   3.082   4.887 -0.0427 -0.6407 -1.3238
  989TIP3   OH2 2930   3.163   6.273   4.061  0.8218  0.3789 -0.5357
  989TIP3    H1 2931   3.185   6.180   4.059  1.0913  0.4323 -0.2382
  989TIP3    H2 2932   3.154   6.298   3.969  0.4460 -0.0100 -0.6058
  990TIP3   OH2 2933   2.147   1.076   0.953  0.1383  0.0984 -0.1970
  990TIP3    H1 2934   2.203   1.088   0.877  0.4385  1.5622  0.2281
  990TIP3    H2 2935   2.099   1.159   0.961 -0.0714 -0.1226  1.0563
  991TIP3   OH2 2936   2.010   5.811   1.157  0.1328 -0.1735 -0.0088
  991TIP3    H1 2937   1.932   5.846   1.200  0.6619 -0.0548  0.8862
  991TIP3    H2 2938   2.058   5.767   1.227  1.3154  0.5458 -0.3352
  992TIP3   OH2 2939   4.593   3.384   1.880  0.1304  0.0268  0.6688
  992TIP3    H1 2940   4.611   3.325   1.953  0.3540 -2.6666 -1.4080
  992TIP3    H2 2941   4.679   3.400   1.841 -0.1166  0.4117  0.2808
  993TIP3   OH2 2942   6.700   0.185   4.197 -0.5931 -0.4868  0.5302
  993TIP3    H1 2943   6.698   0.200   4.291  2.2588  0.2100  0.5886
  993TIP3    H2 2944   6.737   0.266   4.161  1.4045 -1.8689 -0.7704
  994TIP3   OH2 2945   2.502   3.383   5.171 -0.2842 -0.2921 -0.8370
  994TIP3    H1 2946   2.440   3.311   5.167 -0.3124 -0.3665  0.5742
  994TIP3    H2 2947   2.450   3.459   5.193  0.2373 -0.5749  1.5896
  995TIP3   OH2 2948   1.571   3.175   1.333 -0.0689  0.4830 -0.2324
  995TIP3    H1 2949   1.509   3.206   1.266  0.7786  2.6182 -0.0951
  995TIP3    H2 2950   1.522   3.182   1.415 -0.7107 -1.0069 -0.4562
  996TIP3   OH2 2951   1.923   2.304   1.178 -0.8386  0.5481  0.2060
  996TIP3    H1 2952   1.905   2.249   1.103 -2.6990  1.1440  0.1768
  996TIP3    H2 2953   1.909   2.393   1.147 -3.4399  0.7457  1.6297
  997TIP3   OH2 2954   6.778   2.613   3.851  0.1100  0.2233 -0.5253
  997TIP3    H1 2955   6.682   2.612   3.856  0.1437  0.1064  0.2785
  997TIP3    H2 2956   6.806   2.564   3.929  0.7970 -1.4757 -1.7755
  998TIP3   OH2 2957   0.730   5.902   1.739 -0.4256  0.5591  0.3061
  998TIP3    H1 2958   0.810   5.895   1.792 -0.5279  0.3319  0.4319
  998TIP3    H2 2959   0.659   5.903   1.803 -0.5626  0.0492  0.1680
  999TIP3   OH2 2960   3.167   6.797   3.542 -0.2407  0.3341 -0.1975
  999TIP3    H1 2961   3.107   6.733   3.504 -0.0174  0.0261 -0.0405
  999TIP3    H2 2962   3.238   6.806   3.478 -0.8549  1.3096 -0.7541
 1000TIP3   OH2 2963   4.904   4.928   4.392 -0.8224 -0.3055 -0.0290
 1000TIP3    H1 2964   4.919   4.909   4.299 -1.1481 -0.6358 -0.0155
 1000TIP3    H2 2965   4.878   4.845   4.430 -0.4670 -0.2154  0.4110
 1001TIP3   OH2 2966   2.475   0.021   0.595 -0.3359  0.0443  0.0232
 1001TIP3    H1 2967   2.568   0.013   0.617 -0.4999 -0.1436  0.6678
 1001TIP3    H2 2968   2.474   0.048   0.503  0.3506 -1.0458 -0.3299
 1002TIP3   OH2 2969   6.041   3.055   2.726 -0.4556  0.3901  0.6210
 1002TIP3    H1 2970   5.983   3.112   2.774 -0.5426  0.1272  0.8290
 1002TIP3    H2 2971   6.084   3.001   2.793  0.1171  0.6626  0.4837
 1003TIP3   OH2 2972   6.552   1.644   1.138 -0.3343  0.0798 -0.0851
 1003TIP3    H1 2973   6.579   1.726   1.180 -1.1758 -1.0333  2.8773
 1003TIP3    H2 2974   6.635   1.599   1.118  0.1167  0.7584  0.2076
 1004TIP3   OH2 2975   6.159   0.060   0.502 -0.1612  0.0597  0.3601
 1004TIP3    H1 2976   6.212   0.065   0.582  0.2766  0.8526  0.0236
 1004TIP3    H2 2977   6.223   0.054   0.431 -0.5251 -2.8358  0.1439
 1005TIP3   OH2 2978   5.132   1.660   4.259 -0.0032  0.1902 -0.7723
 1005TIP3    H1 2979   5.164   1.746   4.231  0.6970  0.4853  0.8189
 1005TIP3    H2 2980   5.050   1.678   4.304 -0.5676 -0.1596 -1.6249
 1006TIP3   OH2 2981   3.529   5.877   2.533 -0.0595  0.2609 -0.3253
 1006TIP3    H1 2982   3.461   5.810   2.540  1.4278 -1.1436  1.7771
 1006TIP3    H2 2983   3.485   5.959   2.555 -1.3117 -0.4511 -0.1064
 1007TIP3   OH2 2984   4.438   3.596   2.561 -0.1676  0.0078 -0.1077
 1007TIP3    H1 2985   4.445   3.566   2.470  1.2841 -1.6960  0.4924
 1007TIP3    H2 2986   4.506   3.546   2.607 -1.1342  0.5370  1.9840
 1008TIP3   OH2 2987   2.969   1.403   0.749 -0.3151 -0.2812  0.0980
 1008TIP3    H1 2988   2.941   1.465   0.816  2.4341  0.7990  0.3486
 1008TIP3    H2 2989   2.952   1.448   0.666  2.5294  1.3432  0.2915
 1009TIP3   OH2 2990   1.049   0.572   5.452  0.5920  0.2343  0.5539
 1009TIP3    H1 2991   1.000   0.493   5.474  0.1904  0.7738  1.6625
 1009TIP3    H2 2992   1.076   0.559   5.361  0.4148 -1.1080  0.6803
 1010TIP3   OH2 2993   0.065   3.017   3.186 -0.1750  0.3796 -0.2043
 1010TIP3    H1 2994   0.036   3.089   3.130 -0.8853  0.7972  0.6535
 1010TIP3    H2 2995   0.037   3.044   3.274  2.7945  0.7702  0.7126
 1011TIP3   OH2 2996   2.248   3.874   0.635  0.1598  0.2072  0.3936
 1011TIP3    H1 2997   2.247   3.931   0.558  1.2125 -1.6075 -1.0511
 1011TIP3    H2 2998   2.156   3.851   0.649 -0.0601  0.6714 -0.2422
 1012TIP3   OH2 2999   5.229   1.668   1.355 -0.0733 -0.0017 -0.3081
 1012TIP3    H1 3000   5.210   1.626   1.271 -1.1126  0.1519 -0.1630
 1012TIP3    H2 3001   5.272   1.750   1.332  0.0848 -0.1817 -0.6689
 1013TIP3   OH2 3002   3.249   1.625   4.917  0.0168 -0.4742  0.0910
 1013TIP3    H1 3003   3.216   1.608   5.006 -0.9885 -0.0376 -0.1788
 1013TIP3    H2 3004   3.303   1.703   4.927  3.5069 -2.7814  1.0748
 1014TIP3   OH2 3005   5.763   6.244   1.346 -0.1169 -0.0032 -0.7392
 1014TIP3    H1 3006   5.677   6.204   1.339 -0.3376  0.6192 -1.7880
 1014TIP3    H2 3007   5.809   6.190   1.411 -2.0388  1.0317  1.6328
 1015TIP3   OH2 3008   3.564   1.705   4.190 -0.6361  0.3612 -0.1455
 1015TIP3    H1 3009   3.472   1.726   4.201 -0.3413  0.6699  2.2017
 1015TIP3    H2 3010   3.598   1.697   4.279  1.7606  0.9883 -0.9243
 1016TIP3   OH2 3011   4.229   4.564   1.448  0.1434  0.3002 -0.4114
 1016TIP3    H1 3012   4.266   4.605   1.526 -1.4419  2.5933 -0.7390
 1016TIP3    H2 3013   4.206   4.476   1.476  1.0775  0.5406  1.2410
 1017TIP3   OH2 3014   6.920   5.523   2.114  0.3157 -0.0707 -0.3404
 1017TIP3    H1 3015   6.950   5.466   2.185  0.4269  1.7789  1.1993
 1017TIP3    H2 3016   6.849   5.475   2.072 -0.4343 -0.8434  1.7035
 1018TIP3   OH2 3017   3.835   0.084   5.687 -0.7818  0.5257  0.0361
 1018TIP3    H1 3018   3.846   0.091   5.592 -0.8160  0.7437  0.0478
 1018TIP3    H2 3019   3.792  -0.001   5.700  0.1487  0.0252 -0.0678
 1019TIP3   OH2 3020   1.911   4.057   5.069 -0.3506 -0.1384  0.6284
 1019TIP3    H1 3021   1.905   4.055   4.974  2.1625 -0.8885  0.4120
 1019TIP3    H2 3022   1.851   4.127   5.095 -0.5072  0.6240 -1.5653
 1020TIP3   OH2 3023   4.598   1.843   2.720  0.1590  0.0718 -0.2487
 1020TIP3    H1 3024   4.531   1.779   2.697  0.8382 -0.4700 -0.7537
 1020TIP3    H2 3025   4.676   1.791   2.741  0.8519  0.7331 -1.0772
 1021TIP3   OH2 3026   0.320   6.543   3.197 -0.5591 -0.2719 -0.5585
 1021TIP3    H1 3027   0.253   6.501   3.251 -2.7088  2.1051 -1.1861
 1021TIP3    H2 3028   0.278   6.557   3.113  1.8265 -1.4089 -2.0599
 1022TIP3   OH2 3029   3.504   4.042   2.543 -0.5301  0.4398 -0.2012
 1022TIP3    H1 3030   3.495   4.019   2.635 -1.7021 -1.3761 -0.7156
 1022TIP3    H2 3031   3.416   4.033   2.506  0.1412 -0.1712 -1.7558
 1023TIP3   OH2 3032   4.140   3.415   2.578 -0.1515 -0.1205  0.2478
 1023TIP3    H1 3033   4.135   3.401   2.673  0.4008 -0.8760  0.1682
 1023TIP3    H2 3034   4.210   3.479   2.567  0.1667 -0.4558  0.3117
 1024TIP3   OH2 3035   2.385   5.612   5.156  0.3651  0.2378 -0.0568
 1024TIP3    H1 3036   2.315   5.641   5.214  0.6114 -0.1691  0.4497
 1024TIP3    H2 3037   2.363   5.651   5.071 -0.7554 -0.3049 -0.0361
 1025TIP3   OH2 3038   6.872   3.137   4.222  0.3364 -0.1769  0.4271
 1025TIP3    H1 3039   6.931   3.109   4.152 -0.8279 -0.6448 -0.3916
 1025TIP3    H2 3040   6.788   3.097   4.200 -0.0272 -0.4151  2.1639
 1026TIP3   OH2 3041   1.111   4.983   5.724  0.3437  0.3226  0.3875
 1026TIP3    H1 3042   1.152   4.918   5.666 -3.4388 -1.7213 -0.3418
 1026TIP3    H2 3043   1.153   5.065   5.701  0.5956 -0.7451 -3.7859
 1027TIP3   OH2 3044   4.837   0.478   3.069  0.4353 -0.3274 -0.4323
 1027TIP3    H1 3045   4.797   0.393   3.051  0.1396 -0.2511 -0.1539
 1027TIP3    H2 3046   4.931   0.461   3.071  0.5063 -0.3092 -2.1709
 1028TIP3   OH2 3047   6.124   0.168   3.659 -0.0661 -0.3794 -0.0086
 1028TIP3    H1 3048   6.168   0.097   3.707  2.0472  1.3293  0.7790
 1028TIP3    H2 3049   6.153   0.157   3.569  0.9523 -0.0760  0.2620
 1029TIP3   OH2 3050   7.092   5.362   3.353 -0.1142 -0.4564 -0.1728
 1029TIP3    H1 3051   7.054   5.359   3.440 -2.7281  0.8491 -1.1719
 1029TIP3    H2 3052   7.037   5.303   3.301  0.9295 -0.6317 -1.1151
 1030TIP3   OH2 3053   5.000   1.690   0.973  0.2728  0.0572 -0.0103
 1030TIP3    H1 3054   4.920   1.718   1.017 -1.5257 -2.2575 -1.5648
 1030TIP3    H2 3055   5.007   1.746   0.896  1.2015  1.4175  1.0028
 1031TIP3   OH2 3056   3.035   4.640   2.451 -0.3241 -0.1889  0.0383
 1031TIP3    H1 3057   3.071   4.680   2.372 -0.6531  0.8399  0.4008
 1031TIP3    H2 3058   3.012   4.551   2.424 -0.7771  0.2587 -1.1346
 1032TIP3   OH2 3059   7.171   1.970   4.057  0.6849  0.0922  0.0291
 1032TIP3    H1 3060   7.199   2.025   3.984  1.1025  0.2430  0.2999
 1032TIP3    H2 3061   7.189   1.880   4.028  0.1646  0.1080 -0.3438
 1033TIP3   OH2 3062   2.795   3.583   1.133 -0.6506 -0.2458  0.4082
 1033TIP3    H1 3063   2.810   3.635   1.212  0.2136 -0.3435  0.3204
 1033TIP3    H2 3064   2.865   3.610   1.074 -1.8318  0.5168 -0.6910
 1034TIP3   OH2 3065   5.527   1.617   3.180 -0.2107  0.4346  0.2262
 1034TIP3    H1 3066   5.464   1.664   3.125  0.6435  0.0306 -1.1522
 1034TIP3    H2 3067   5.535   1.670   3.259  1.0536  2.9005 -1.4477
 1035TIP3   OH2 3068   4.641   6.655   0.801  0.0326 -0.0895 -0.0180
 1035TIP3    H1 3069   4.571   6.701   0.846  1.2411  2.4103 -0.4999
 1035TIP3    H2 3070   4.683   6.602   0.869 -0.2424  1.0244  1.0599
 1036TIP3   OH2 3071   0.954   2.668   5.179 -0.2863 -0.3296  0.2896
 1036TIP3    H1 3072   0.879   2.719   5.207 -0.5457  0.5882 -1.8654
 1036TIP3    H2 3073   0.916   2.597   5.127  0.2767 -0.5329  0.1491
 1037TIP3   OH2 3074   3.093   3.570   0.064  0.5686 -0.2658 -0.4469
 1037TIP3    H1 3075   3.026   3.513   0.100  1.3496 -0.5333  0.6108
 1037TIP3    H2 3076   3.047   3.651   0.044 -0.1932 -0.6619 -0.3292
 1038TIP3   OH2 3077   2.037   6.499   5.854 -0.1244 -0.5130 -0.2008
 1038TIP3    H1 3078   2.094   6.512   5.778 -1.0783  0.2413 -0.8081
 1038TIP3    H2 3079   2.098   6.478   5.925  0.9711  0.8290 -0.6889
 1039TIP3   OH2 3080   6.416   1.442   0.388  0.2692  0.2520 -0.2149
 1039TIP3    H1 3081   6.336   1.452   0.337  0.0196  1.6468  0.3930
 1039TIP3    H2 3082   6.420   1.521   0.443  0.0311 -1.5386  2.6132
 1040TIP3   OH2 3083   0.485   5.095   5.742  0.3880 -0.2343 -0.8751
 1040TIP3    H1 3084   0.565   5.146   5.753 -0.8616  1.7892 -0.7189
 1040TIP3    H2 3085   0.465   5.104   5.649 -0.0817 -0.0418 -0.7567
 1041TIP3   OH2 3086   4.429   4.201   3.510 -0.6369 -0.5575 -0.2676
 1041TIP3    H1 3087   4.402   4.214   3.419  1.3166 -0.0691 -0.8117
 1041TIP3    H2 3088   4.517   4.237   3.515  0.0299 -2.2348  1.3675
 1042TIP3   OH2 3089   6.898   6.291   5.226  0.3087  0.4263  0.1962
 1042TIP3    H1 3090   6.972   6.236   5.251  0.6530  0.3810 -0.8849
 1042TIP3    H2 3091   6.909   6.305   5.132 -0.3383  1.4967  0.2647
 1043TIP3   OH2 3092   6.006   0.747   0.208  0.0472 -0.3106 -0.0276
 1043TIP3    H1 3093   5.988   0.841   0.210  1.2234 -0.0793  0.2672
 1043TIP3    H2 3094   6.048   0.728   0.292 -1.0430 -1.2956  0.3308
 1044TIP3   OH2 3095   2.347   4.513   1.041 -0.5506  0.7692 -0.1343
 1044TIP3    H1 3096   2.365   4.471   1.126  1.0689  0.0997 -0.7833
 1044TIP3    H2 3097   2.377   4.603   1.052 -2.2794  1.2953  0.6445
 1045TIP3   OH2 3098   2.660   6.194   0.665 -0.7598  0.0335 -0.5745
 1045TIP3    H1 3099   2.630   6.238   0.585  2.6954 -0.4449 -2.3203
 1045TIP3    H2 3100   2.684   6.106   0.637 -0.0323 -0.3629  1.1359
 1046TIP3   OH2 3101   3.570   1.106   1.215  0.0637  0.1632 -0.0272
 1046TIP3    H1 3102   3.621   1.177   1.175 -1.8187  2.1753  0.9974
 1046TIP3    H2 3103   3.565   1.039   1.146  1.3541  1.2606 -1.2512
 1047TIP3   OH2 3104   0.179   1.147   0.322 -0.3550 -0.8506  0.6184
 1047TIP3    H1 3105   0.144   1.073   0.274 -0.9833 -0.6761  0.8037
 1047TIP3    H2 3106   0.105   1.182   0.371 -0.0328 -0.1988  0.6577
 1048TIP3   OH2 3107   6.250   2.287   0.727 -0.1214 -0.0947  0.2033
 1048TIP3    H1 3108   6.197   2.344   0.671 -0.5771 -1.3387 -0.6895
 1048TIP3    H2 3109   6.335   2.330   0.731 -1.2407  2.1785  2.0104
 1049TIP3   OH2 3110   5.321   6.002   5.165  0.3075  0.6570  0.4361
 1049TIP3    H1 3111   5.232   6.018   5.196  0.8137  0.1577  2.2679
 1049TIP3    H2 3112   5.375   6.065   5.212  0.9717  0.8488 -0.5364
 1050TIP3   OH2 3113   1.029   5.183   0.777 -0.6726 -0.3949 -0.4810
 1050TIP3    H1 3114   1.117   5.146   0.780 -0.3113  0.5178  0.4721
 1050TIP3    H2 3115   1.037   5.260   0.720 -0.6451  0.1866  0.2907
 1051TIP3   OH2 3116   0.832   0.467   2.416 -0.4621  0.1252 -0.1407
 1051TIP3    H1 3117   0.886   0.545   2.400 -1.1027  0.6130  0.0603
 1051TIP3    H2 3118   0.769   0.494   2.483 -2.0572  0.0882 -1.5540
 1052TIP3   OH2 3119   5.095   2.990   4.518 -0.5839 -0.2148 -0.5924
 1052TIP3    H1 3120   5.188   3.013   4.510 -0.1776  0.1985  3.1354
 1052TIP3    H2 3121   5.096   2.901   4.553 -1.5912 -0.2837 -0.7244
 1053TIP3   OH2 3122   1.907   0.582   3.445 -0.0723 -0.7910 -0.0496
 1053TIP3    H1 3123   1.912   0.488   3.460  1.8279 -0.9247 -1.1315
 1053TIP3    H2 3124   1.946   0.621   3.523  1.1878 -1.0518 -0.5077
 1054TIP3   OH2 3125   1.693   6.591   3.212 -0.0513  0.1235  1.0468
 1054TIP3    H1 3126   1.603   6.590   3.179 -0.2930 -1.2617  1.6995
 1054TIP3    H2 3127   1.684   6.613   3.305  0.5964  3.6723  0.4209
 1055TIP3   OH2 3128   2.390   0.555   4.667  0.3025 -0.6894  0.0101
 1055TIP3    H1 3129   2.469   0.536   4.718 -0.5058 -1.3469  1.0629
 1055TIP3    H2 3130   2.405   0.512   4.582  1.0522 -0.8320  0.2078
 1056TIP3   OH2 3131   6.281   6.217   0.842 -0.0092 -0.7996  0.1302
 1056TIP3    H1 3132   6.356   6.268   0.811 -0.8827  0.1997 -0.4423
 1056TIP3    H2 3133   6.319   6.144   0.890  1.2991  0.4514  1.0740
 1057TIP3   OH2 3134   6.328   4.290   4.506  0.7835  0.4933  0.4788
 1057TIP3    H1 3135   6.351   4.376   4.474  1.0249  0.5352  0.7644
 1057TIP3    H2 3136   6.395   4.231   4.470 -0.5084  0.0838 -1.4105
 1058TIP3   OH2 3137   6.894   5.286   2.259 -0.5040 -0.3446  0.3105
 1058TIP3    H1 3138   6.836   5.210   2.252  1.5963 -1.9683 -0.3135
 1058TIP3    H2 3139   6.962   5.260   2.321 -0.5241  1.6139  1.2296
 1059TIP3   OH2 3140   6.656   4.063   2.038  0.1359 -0.2881 -0.9286
 1059TIP3    H1 3141   6.591   4.059   1.967  0.0639  1.3438 -0.9868
 1059TIP3    H2 3142   6.608   4.103   2.111  0.4142 -1.3012 -0.1665
 1060TIP3   OH2 3143   6.405   3.085   1.266 -0.4176  0.3448  0.0648
 1060TIP3    H1 3144   6.374   3.161   1.315 -1.1727 -0.3370  0.6565
 1060TIP3    H2 3145   6.466   3.041   1.326 -1.3482 -0.4945  0.4163
 1061TIP3   OH2 3146   6.197   4.662   2.065 -0.2859 -0.2691 -0.0226
 1061TIP3    H1 3147   6.114   4.626   2.095  0.5111 -1.3601  0.9547
 1061TIP3    H2 3148   6.222   4.725   2.133 -0.2396 -0.0635 -0.2295
 1062TIP3   OH2 3149   3.573   1.756   2.769 -0.4400 -0.0075 -0.3590
 1062TIP3    H1 3150   3.641   1.720   2.713 -0.6414  0.0683 -0.6535
 1062TIP3    H2 3151   3.568   1.848   2.745 -0.9262 -0.1007 -0.6268
 1063TIP3   OH2 3152   0.267   0.337   3.466 -0.3896 -0.2358 -0.2842
 1063TIP3    H1 3153   0.180   0.377   3.466  0.4048  1.5768 -1.1959
 1063TIP3    H2 3154   0.310   0.374   3.543  0.0497 -0.0724 -0.6100
 1064TIP3   OH2 3155   1.500   0.663   1.439  0.0037 -0.2481  0.1105
 1064TIP3    H1 3156   1.423   0.715   1.462 -0.6725 -1.3668  0.4064
 1064TIP3    H2 3157   1.510   0.601   1.510  1.2373 -0.0799  0.1124
 1065TIP3   OH2 3158   0.210   1.425   2.387 -0.1895  0.1092  0.5978
 1065TIP3    H1 3159   0.227   1.493   2.323 -0.6174 -2.0529 -1.9785
 1065TIP3    H2 3160   0.120   1.441   2.416 -0.8807 -0.2706 -1.2435
 1066TIP3   OH2 3161   1.714   1.158   5.142  0.0168  1.0091 -0.2378
 1066TIP3    H1 3162   1.748   1.174   5.230  0.5327  1.7820 -0.5729
 1066TIP3    H2 3163   1.716   1.062   5.133  0.1465  0.9330  0.5105
 1067TIP3   OH2 3164   4.503   6.178   2.152  0.1785  0.2396  0.6867
 1067TIP3    H1 3165   4.497   6.197   2.246 -1.0067 -0.5134  0.7771
 1067TIP3    H2 3166   4.504   6.083   2.147  1.9341  0.2600  0.0115
 1068TIP3   OH2 3167   3.012   5.940   2.823  0.7607 -0.6039 -0.0490
 1068TIP3    H1 3168   2.942   5.957   2.760  0.3541 -1.3666  0.1874
 1068TIP3    H2 3169   3.071   5.880   2.778  1.6833  0.6166 -0.5267
 1069TIP3   OH2 3170   5.419   2.761   4.498 -0.1706 -0.3273 -0.8303
 1069TIP3    H1 3171   5.418   2.834   4.559 -0.8435  0.5395 -1.8464
 1069TIP3    H2 3172   5.386   2.687   4.549  0.8813 -0.0434  0.3224
 1070TIP3   OH2 3173   1.853   2.987   5.756  0.9397  0.6516 -0.4239
 1070TIP3    H1 3174   1.862   3.036   5.838 -0.4591 -0.0655  0.1977
 1070TIP3    H2 3175   1.890   3.045   5.690  2.0584  1.2661  0.7005
 1071TIP3   OH2 3176   0.230   2.415   3.242 -0.5116 -0.4109 -0.2146
 1071TIP3    H1 3177   0.262   2.501   3.217  0.3715 -1.0259 -1.3349
 1071TIP3    H2 3178   0.255   2.358   3.169 -0.4391 -1.7455  0.8013
 1072TIP3   OH2 3179   2.606   3.616   0.767 -0.0476 -0.3570 -0.5635
 1072TIP3    H1 3180   2.654   3.697   0.749 -0.6942 -0.0422 -0.9469
 1072TIP3    H2 3181   2.593   3.616   0.861 -1.4294  0.8161 -0.7194
 1073TIP3   OH2 3182   1.788   4.850   3.550  0.0206  0.0718  0.1296
 1073TIP3    H1 3183   1.726   4.921   3.537 -1.5704 -1.3270 -0.2915
 1073TIP3    H2 3184   1.791   4.839   3.645  0.6260  0.9728  0.2251
 1074TIP3   OH2 3185   1.992   4.032   1.304  0.2008 -0.4687 -0.1197
 1074TIP3    H1 3186   1.917   3.975   1.320  1.7398 -3.1680 -1.8024
 1074TIP3    H2 3187   2.068   3.979   1.328  1.7024  1.2012 -0.9408
 1075TIP3   OH2 3188   1.751   6.147   0.260  0.0700 -0.4168 -0.4014
 1075TIP3    H1 3189   1.839   6.121   0.233  0.0361 -0.2623 -0.6618
 1075TIP3    H2 3190   1.695   6.126   0.185 -0.1523 -0.7207 -0.1531
 1076TIP3   OH2 3191   6.354   6.534   1.173 -0.0637  0.6379 -0.0779
 1076TIP3    H1 3192   6.307   6.584   1.106 -1.7781  1.9039  1.9298
 1076TIP3    H2 3193   6.310   6.449   1.175  0.6204  0.2408 -1.1635
 1077TIP3   OH2 3194   5.531   3.004   4.650 -0.0894 -0.2190  0.1244
 1077TIP3    H1 3195   5.557   2.994   4.741 -0.4573 -0.1058  0.2447
 1077TIP3    H2 3196   5.480   3.085   4.648  1.6592  0.9277 -0.5771
 1078TIP3   OH2 3197   4.223   0.480   0.187  0.1429 -0.1159 -0.3188
 1078TIP3    H1 3198   4.305   0.442   0.219  0.2284  1.3392  1.3391
 1078TIP3    H2 3199   4.190   0.415   0.125  2.6981 -0.5835 -1.3215
 1079TIP3   OH2 3200   5.001   0.323   0.280 -0.2607 -1.1070  0.0288
 1079TIP3    H1 3201   5.026   0.306   0.371  0.1388 -1.5834 -0.1653
 1079TIP3    H2 3202   5.083   0.346   0.236 -0.6479  0.4814  0.0759
 1080TIP3   OH2 3203   1.106   0.997   3.318  0.0259 -0.4032 -0.4768
 1080TIP3    H1 3204   1.177   0.995   3.381  0.5529  0.2125 -1.0299
 1080TIP3    H2 3205   1.074   1.088   3.321 -0.8105 -0.6947 -0.1580
 1081TIP3   OH2 3206   4.873   6.061   1.926  0.1640 -0.2535  0.3822
 1081TIP3    H1 3207   4.920   6.090   2.005 -0.7975  0.2876  0.7707
 1081TIP3    H2 3208   4.849   5.970   1.944  0.0979 -0.1860  0.6448
 1082TIP3   OH2 3209   1.592   5.682   5.287  0.3610  0.4441  0.3843
 1082TIP3    H1 3210   1.563   5.600   5.327  2.2867  0.7532  2.5543
 1082TIP3    H2 3211   1.602   5.660   5.194 -1.7543 -0.9972  0.4187
 1083TIP3   OH2 3212   5.179   4.541   3.643 -0.2418 -0.5850 -0.4635
 1083TIP3    H1 3213   5.131   4.608   3.596 -0.0141 -0.3270 -0.3301
 1083TIP3    H2 3214   5.193   4.577   3.730  1.1458 -0.1768 -0.8167
 1084TIP3   OH2 3215   3.571   3.486   1.342  0.4942 -0.2479 -0.5838
 1084TIP3    H1 3216   3.590   3.471   1.434 -0.4133  2.4611  0.1371
 1084TIP3    H2 3217   3.580   3.580   1.330 -1.4719 -0.2370 -2.7601
 1085TIP3   OH2 3218   0.991   5.614   1.416 -0.5089  0.5241 -0.1679
 1085TIP3    H1 3219   0.955   5.545   1.359  0.9663  0.8713 -1.5976
 1085TIP3    H2 3220   0.916   5.670   1.436 -1.1839  0.1037 -1.3954
 1086TIP3   OH2 3221   2.188   3.956   1.018  0.5716 -0.3942  0.4977
 1086TIP3    H1 3222   2.133   3.878   1.029 -1.7324  1.2652  1.5624
 1086TIP3    H2 3223   2.215   3.979   1.107  0.4904  0.5147  0.2910
 1087TIP3   OH2 3224   4.527   4.956   2.893 -0.2137  0.0781 -0.4669
 1087TIP3    H1 3225   4.498   4.893   2.959  0.1608 -1.1300 -1.4112
 1087TIP3    H2 3226   4.447   5.002   2.867 -0.9005 -1.4428 -1.2027
 1088TIP3   OH2 3227   1.028   0.097   1.506 -0.7268  0.0451 -0.2052
 1088TIP3    H1 3228   0.953   0.087   1.448 -0.3823  0.8633 -0.8080
 1088TIP3    H2 3229   1.042   0.009   1.542 -1.6305 -0.2282 -0.4998
 1089TIP3   OH2 3230   1.509   1.141   4.305 -0.4763 -0.0982  0.7142
 1089TIP3    H1 3231   1.472   1.113   4.221 -0.6601  0.0199  0.7554
 1089TIP3    H2 3232   1.458   1.219   4.328 -0.5595 -0.2476  1.0315
 1090TIP3   OH2 3233   4.593   0.535   5.247 -1.1959  0.3249 -0.1138
 1090TIP3    H1 3234   4.574   0.507   5.337 -1.5010 -0.6667 -0.4792
 1090TIP3    H2 3235   4.659   0.603   5.257 -0.6279 -0.3359  0.8298
 1091TIP3   OH2 3236   5.619   4.513   2.180  0.5646 -0.1781 -0.1404
 1091TIP3    H1 3237   5.553   4.451   2.150  2.0438 -1.6278 -0.5545
 1091TIP3    H2 3238   5.602   4.524   2.273 -0.2995 -0.4549 -0.2584
 1092TIP3   OH2 3239   5.381   3.495   1.911 -0.1795 -0.6200 -0.2959
 1092TIP3    H1 3240   5.341   3.423   1.862 -1.3542 -0.1261 -0.0701
 1092TIP3    H2 3241   5.451   3.527   1.853 -0.1719 -1.4126 -0.7391
 1093TIP3   OH2 3242   2.414   0.204   0.198  0.0348 -0.1765 -0.0017
 1093TIP3    H1 3243   2.445   0.138   0.136 -1.7545 -2.1377  1.0261
 1093TIP3    H2 3244   2.447   0.173   0.283  2.0518  2.1982  0.1829
 1094TIP3   OH2 3245   5.894   5.238   4.383  0.4656  0.3016  0.0717
 1094TIP3    H1 3246   5.884   5.142   4.381 -0.2948  0.3857 -1.0704
 1094TIP3    H2 3247   5.989   5.252   4.379  0.5467 -0.4052 -0.8601
 1095TIP3   OH2 3248   1.912   2.763   3.167  0.0519  0.6294  0.3863
 1095TIP3    H1 3249   1.989   2.816   3.145  1.2209 -0.4950  1.6288
 1095TIP3    H2 3250   1.934   2.675   3.137 -1.2686  0.5190 -0.3369
 1096TIP3   OH2 3251   6.179   4.937   1.459  0.7421  0.1416 -0.7054
 1096TIP3    H1 3252   6.154   4.906   1.547  1.5667  0.3738 -0.3822
 1096TIP3    H2 3253   6.151   5.028   1.457 -0.2120 -0.1466 -1.0684
 1097TIP3   OH2 3254   5.201   6.405   1.765  0.1325  0.0428 -0.2339
 1097TIP3    H1 3255   5.203   6.465   1.690 -1.1611 -2.0751 -2.0941
 1097TIP3    H2 3256   5.108   6.384   1.777  0.5699 -2.1971 -0.2316
 1098TIP3   OH2 3257   0.316   5.163   1.719  0.5264 -0.2374  0.5008
 1098TIP3    H1 3258   0.351   5.103   1.785  1.8498  0.7202  0.7150
 1098TIP3    H2 3259   0.392   5.185   1.664 -0.4524 -0.6637 -1.0913
 1099TIP3   OH2 3260   4.017   5.778   1.488  0.1734 -0.3668 -0.2116
 1099TIP3    H1 3261   3.977   5.707   1.438  2.1465 -1.0942 -0.8748
 1099TIP3    H2 3262   4.082   5.734   1.543  1.9384  0.9247 -1.1417
 1100TIP3   OH2 3263   0.302   0.066   2.325 -0.1750 -0.4495 -0.1127
 1100TIP3    H1 3264   0.225   0.061   2.268  0.0407  2.1337 -0.7260
 1100TIP3    H2 3265   0.269   0.041   2.411 -1.3748 -0.7356 -0.6358
 1101TIP3   OH2 3266   3.433   5.426   3.678  0.2609 -0.3264 -0.4674
 1101TIP3    H1 3267   3.342   5.404   3.694  0.2253 -0.5416 -0.9422
 1101TIP3    H2 3268   3.437   5.522   3.687  0.0017 -0.3233 -0.3921
 1102TIP3   OH2 3269   0.576   2.000   1.934  0.0902  0.2841  0.5579
 1102TIP3    H1 3270   0.513   1.974   1.867  1.4406 -1.3280 -0.1404
 1102TIP3    H2 3271   0.552   2.090   1.955 -1.3131  0.3224 -0.9752
 1103TIP3   OH2 3272   6.936   6.565   0.988 -0.0257  0.1484  0.3809
 1103TIP3    H1 3273   6.923   6.625   1.062 -3.1313  1.2495 -0.9016
 1103TIP3    H2 3274   6.861   6.507   0.990  0.9653 -1.2442 -0.6777
 1104TIP3   OH2 3275   4.527   2.176   5.255  0.1407  0.1770 -0.7107
 1104TIP3    H1 3276   4.454   2.122   5.287  0.6133  0.4942  1.0131
 1104TIP3    H2 3277   4.510   2.185   5.161 -1.4682 -0.6247 -0.5476
 1105TIP3   OH2 3278   4.790   1.903   5.394 -0.1450 -0.0731  0.4139
 1105TIP3    H1 3279   4.743   1.982   5.423  0.3655  0.6511 -0.6786
 1105TIP3    H2 3280   4.751   1.883   5.309  1.4431  0.5098 -0.4900
 1106TIP3   OH2 3281   1.375   0.296   5.229 -0.1984 -0.2193  0.1623
 1106TIP3    H1 3282   1.333   0.259   5.306 -1.3685 -0.3482 -0.5075
 1106TIP3    H2 3283   1.379   0.391   5.246 -0.0507 -0.2973  0.5580
 1107TIP3   OH2 3284   6.878   3.594   0.380 -0.0334 -0.4040  0.4851
 1107TIP3    H1 3285   6.938   3.668   0.387 -0.9076  0.3000  0.7027
 1107TIP3    H2 3286   6.798   3.623   0.426 -0.5956 -1.2554  0.0738
 1108TIP3   OH2 3287   6.440   0.497   1.071  0.5472 -0.1809 -0.1444
 1108TIP3    H1 3288   6.478   0.542   1.147  1.3654  0.6419 -1.0166
 1108TIP3    H2 3289   6.390   0.564   1.025 -1.0341 -0.9902  0.3540
 1109TIP3   OH2 3290   2.479   0.742   5.395 -0.2642 -0.1956  0.6182
 1109TIP3    H1 3291   2.398   0.692   5.401  1.6347 -3.9305 -1.4311
 1109TIP3    H2 3292   2.534   0.708   5.466  0.4761  0.3166  0.3054
 1110TIP3   OH2 3293   6.690   3.442   2.100  0.6693 -0.3135  0.2145
 1110TIP3    H1 3294   6.659   3.369   2.046  0.0226 -1.6498  2.2618
 1110TIP3    H2 3295   6.724   3.506   2.037 -1.6790 -0.9615 -1.8686
 1111TIP3   OH2 3296   3.684   3.784   2.767  0.0267  0.2481  0.6361
 1111TIP3    H1 3297   3.700   3.743   2.682  3.3658 -0.1007  1.2798
 1111TIP3    H2 3298   3.733   3.866   2.763 -1.7528  1.4155  1.4387
 1112TIP3   OH2 3299   5.335   1.614   4.989 -0.1123 -0.0251 -0.0168
 1112TIP3    H1 3300   5.424   1.632   5.018 -0.4123  2.4188 -0.4427
 1112TIP3    H2 3301   5.346   1.569   4.905  0.7600  2.0634 -1.0746
 1113TIP3   OH2 3302   2.336   1.096   1.869  0.3075  0.1744  0.1824
 1113TIP3    H1 3303   2.425   1.128   1.878  0.8214 -1.0949 -0.1155
 1113TIP3    H2 3304   2.287   1.169   1.831  1.1682  0.9428  0.5143
 1114TIP3   OH2 3305   0.302   0.184   0.558 -0.4864 -0.2780  0.1004
 1114TIP3    H1 3306   0.333   0.264   0.600  0.2136  1.1808 -2.8822
 1114TIP3    H2 3307   0.383   0.136   0.536 -0.9129 -2.4458  2.7786
 1115TIP3   OH2 3308   6.877   1.161   4.450 -0.3144  0.0409 -0.3086
 1115TIP3    H1 3309   6.928   1.136   4.527 -0.4890 -2.5005 -0.9089
 1115TIP3    H2 3310   6.832   1.242   4.476  0.5715 -0.0746  1.8042
 1116TIP3   OH2 3311   3.259   4.930   3.186 -0.2565 -0.3653  0.5854
 1116TIP3    H1 3312   3.339   4.919   3.133 -1.5255 -4.2353 -0.9028
 1116TIP3    H2 3313   3.286   4.905   3.274  0.9603  2.1887  1.0242
 1117TIP3   OH2 3314   3.432   0.284   1.129  0.0864  0.2083  0.0700
 1117TIP3    H1 3315   3.518   0.278   1.088 -0.8304 -0.2341 -1.8869
 1117TIP3    H2 3316   3.373   0.243   1.066 -1.5717  0.5207  1.3676
 1118TIP3   OH2 3317   3.008   2.908   1.632  0.1057 -0.0936 -0.4493
 1118TIP3    H1 3318   2.949   2.873   1.698  0.8939 -0.2658  0.1847
 1118TIP3    H2 3319   3.079   2.950   1.682 -0.2161  1.4074 -1.1895
 1119TIP3   OH2 3320   2.263   6.667   2.837  0.0658  0.0663  0.1082
 1119TIP3    H1 3321   2.248   6.761   2.829  0.6430  0.3006  1.4685
 1119TIP3    H2 3322   2.177   6.628   2.824 -0.1714  0.7744 -0.5116
 1120TIP3   OH2 3323   5.967   1.150   1.801 -0.5865 -0.1049  0.1760
 1120TIP3    H1 3324   6.037   1.188   1.854 -1.4578  1.7920  0.0520
 1120TIP3    H2 3325   5.958   1.209   1.726 -0.6300 -1.7232 -1.1350
 1121TIP3   OH2 3326   2.617   2.646   4.378  0.1277  0.0049  0.7009
 1121TIP3    H1 3327   2.572   2.636   4.462  0.4058  1.1530  1.0100
 1121TIP3    H2 3328   2.664   2.564   4.366 -1.7999 -1.1322  0.4899
 1122TIP3   OH2 3329   6.417   2.533   2.110 -0.0621  0.4050 -0.3349
 1122TIP3    H1 3330   6.452   2.447   2.087  0.1950  0.5305 -0.4195
 1122TIP3    H2 3331   6.332   2.514   2.152  0.3946  0.0625  0.4605
 1123TIP3   OH2 3332   5.441   0.858   3.009  0.6738  0.8003 -0.2095
 1123TIP3    H1 3333   5.476   0.897   2.930 -1.2304 -0.1275 -1.6111
 1123TIP3    H2 3334   5.386   0.926   3.048  1.6375  1.2681  0.3553
 1124TIP3   OH2 3335   3.020   2.071   0.084 -0.4491  0.2308  0.4833
 1124TIP3    H1 3336   3.041   2.013   0.011  0.2136  0.5335  0.4267
 1124TIP3    H2 3337   3.088   2.052   0.149  0.9328  2.2332 -0.2636
 1125TIP3   OH2 3338   5.191   0.111   3.329 -0.4168  0.1320 -0.2045
 1125TIP3    H1 3339   5.175   0.168   3.405  0.9176 -0.2593  0.4110
 1125TIP3    H2 3340   5.272   0.145   3.291  0.9012 -1.8509  0.7055
 1126TIP3   OH2 3341   6.455   5.711   0.436 -0.5534 -0.6526 -0.1623
 1126TIP3    H1 3342   6.533   5.678   0.391 -1.1169  0.2021 -1.8379
 1126TIP3    H2 3343   6.477   5.801   0.460 -1.0162 -0.4224 -0.6074
 1127TIP3   OH2 3344   0.405   2.308   5.160 -0.2273 -0.3603 -0.0848
 1127TIP3    H1 3345   0.477   2.255   5.126  2.5342  1.5680  2.2568
 1127TIP3    H2 3346   0.427   2.397   5.133 -1.3426  0.3628  1.2914
 1128TIP3   OH2 3347   1.419   1.728   1.467  0.4542 -0.0342 -1.0291
 1128TIP3    H1 3348   1.425   1.822   1.486 -0.4857  0.3830 -2.6533
 1128TIP3    H2 3349   1.480   1.687   1.529  1.3672  1.6994 -0.7381
 1129TIP3   OH2 3350   3.753   1.037   4.554 -0.4450 -0.6034 -0.1368
 1129TIP3    H1 3351   3.808   1.105   4.515 -1.5187  0.4006  0.0382
 1129TIP3    H2 3352   3.681   1.027   4.492 -0.3017 -1.5880 -0.1544
 1130TIP3   OH2 3353   1.352   2.409   4.619  0.1907  0.4950 -0.4368
 1130TIP3    H1 3354   1.258   2.399   4.633  0.4713 -1.6035  0.3296
 1130TIP3    H2 3355   1.368   2.375   4.531  0.1605  1.5632 -0.8723
 1131TIP3   OH2 3356   2.975   3.894   1.752  0.2780 -0.3883 -0.0525
 1131TIP3    H1 3357   2.983   3.926   1.662  0.2643 -0.8239 -0.2084
 1131TIP3    H2 3358   3.000   3.802   1.747  1.3372 -0.1613  0.5681
 1132TIP3   OH2 3359   5.109   4.403   5.561  0.3221 -0.5612  0.3958
 1132TIP3    H1 3360   5.033   4.345   5.564 -0.7810  0.5960 -2.3328
 1132TIP3    H2 3361   5.074   4.489   5.587  1.4050 -0.5450  1.9774
 1133TIP3   OH2 3362   0.812   5.523   0.011 -0.0227  0.7577 -0.0213
 1133TIP3    H1 3363   0.735   5.534   0.067  0.2722  1.4473  0.2509
 1133TIP3    H2 3364   0.789   5.450  -0.046 -0.0484 -0.4943  1.4909
 1134TIP3   OH2 3365   2.139   6.144   4.548  0.4088 -0.0094 -0.0666
 1134TIP3    H1 3366   2.214   6.203   4.555  0.5689 -0.2010 -0.1657
 1134TIP3    H2 3367   2.132   6.125   4.455 -2.6692  3.7804 -0.8715
 1135TIP3   OH2 3368   1.661   0.243   4.009  0.1499 -0.1722  0.5458
 1135TIP3    H1 3369   1.642   0.149   4.010  0.0152 -0.1410  0.8547
 1135TIP3    H2 3370   1.730   0.252   3.944 -0.9712 -0.2760 -0.7159
 1136TIP3   OH2 3371   1.354   4.223   5.701 -0.0741 -0.1469 -0.1859
 1136TIP3    H1 3372   1.286   4.290   5.697 -0.9368 -0.9097  1.0582
 1136TIP3    H2 3373   1.347   4.176   5.617 -1.5591 -0.6368  0.1765
 1137TIP3   OH2 3374   0.797   2.468   0.648 -0.2732  0.2845 -0.0340
 1137TIP3    H1 3375   0.889   2.487   0.635 -0.6881  2.4575 -0.2201
 1137TIP3    H2 3376   0.773   2.516   0.728 -1.5756  1.1273 -0.8846
 1138TIP3   OH2 3377   5.995   0.943   2.486 -0.5371 -0.0702 -0.3690
 1138TIP3    H1 3378   6.047   1.009   2.441  0.1308  0.0485  0.5512
 1138TIP3    H2 3379   6.032   0.939   2.574 -2.5793  0.5927  0.5921
 1139TIP3   OH2 3380   0.949   6.708   2.557  0.1763 -0.2525  0.0078
 1139TIP3    H1 3381   0.970   6.624   2.517  0.7318  0.1009 -0.4485
 1139TIP3    H2 3382   1.027   6.762   2.545 -0.7282  0.8701 -1.1559
 1140TIP3   OH2 3383   0.504   4.700   3.308 -0.0960 -0.3774  0.1046
 1140TIP3    H1 3384   0.593   4.698   3.341 -0.1194 -0.9608  0.1545
 1140TIP3    H2 3385   0.513   4.681   3.214 -0.2152 -1.1838  0.2450
 1141TIP3   OH2 3386   4.039   5.028   3.747 -0.0290 -0.3392 -0.4895
 1141TIP3    H1 3387   4.026   4.986   3.663  1.1286  0.0200 -0.8691
 1141TIP3    H2 3388   3.968   5.092   3.754 -0.0798 -0.3085 -1.2406
 1142TIP3   OH2 3389   0.500   5.131   0.526 -0.2441  0.3978  0.0587
 1142TIP3    H1 3390   0.574   5.090   0.481  0.4774 -0.5510  1.9801
 1142TIP3    H2 3391   0.475   5.205   0.470  0.5323 -0.7370 -1.8738
 1143TIP3   OH2 3392   1.608   5.215   0.319 -0.3204 -0.6718 -0.5204
 1143TIP3    H1 3393   1.653   5.241   0.238 -1.1277  0.8743 -0.5000
 1143TIP3    H2 3394   1.676   5.172   0.371  0.5575 -0.4138 -1.4242
 1144TIP3   OH2 3395   6.229   4.095   1.800  0.7012 -0.3468 -0.4159
 1144TIP3    H1 3396   6.239   4.003   1.825  0.7805 -0.5846 -1.2810
 1144TIP3    H2 3397   6.269   4.100   1.713  1.3487  0.6654 -0.0757
 1145TIP3   OH2 3398   5.729   1.513   3.533  0.2371 -0.1515  0.3882
 1145TIP3    H1 3399   5.759   1.500   3.443  1.9632 -0.1524  0.9270
 1145TIP3    H2 3400   5.645   1.467   3.537 -0.5037  0.8739 -1.5351
 1146TIP3   OH2 3401   2.229   6.301   3.884 -0.0391 -0.6475 -0.2683
 1146TIP3    H1 3402   2.152   6.318   3.938  1.5319  1.3131  1.5412
 1146TIP3    H2 3403   2.280   6.382   3.888  1.7426 -1.5775 -2.0677
 1147TIP3   OH2 3404   1.113   4.653   1.577 -0.2007  0.0027  0.2843
 1147TIP3    H1 3405   1.188   4.626   1.524  0.0006 -0.5052  0.8202
 1147TIP3    H2 3406   1.121   4.602   1.657 -1.1148 -0.0453  0.3533
 1148TIP3   OH2 3407   3.435   3.923   1.677  0.5291 -0.4788 -0.2343
 1148TIP3    H1 3408   3.493   3.983   1.723 -0.1104 -0.4297  0.5197
 1148TIP3    H2 3409   3.420   3.852   1.738 -0.1444 -0.5270 -0.4490
 1149TIP3   OH2 3410   2.861   4.520   4.552  0.1676 -0.1007  0.1361
 1149TIP3    H1 3411   2.932   4.584   4.549  0.5168 -0.3717  1.7943
 1149TIP3    H2 3412   2.896   4.444   4.507  0.4353  0.2236 -0.2138
 1150TIP3   OH2 3413   6.200   1.039   3.006 -0.4340  0.1907 -0.3092
 1150TIP3    H1 3414   6.138   0.966   3.012 -0.2280 -0.1189 -1.7071
 1150TIP3    H2 3415   6.178   1.095   3.081  0.7334 -2.2987  2.1155
 1151TIP3   OH2 3416   1.165   3.903   1.547 -0.2538 -0.6942 -0.1006
 1151TIP3    H1 3417   1.131   3.896   1.458 -0.5996 -0.8260  0.0411
 1151TIP3    H2 3418   1.243   3.848   1.548 -1.0296 -1.8256  0.0624
 1152TIP3   OH2 3419   4.660   1.278   1.738 -0.5044  0.2346 -0.2639
 1152TIP3    H1 3420   4.653   1.299   1.644 -0.5339  2.3579  0.1495
 1152TIP3    H2 3421   4.569   1.270   1.767 -0.5010 -0.1590 -0.3567
 1153TIP3   OH2 3422   6.425   2.317   1.409 -0.0669 -0.7403  0.1015
 1153TIP3    H1 3423   6.437   2.226   1.383 -2.2083 -1.0958  0.1534
 1153TIP3    H2 3424   6.488   2.331   1.480  0.4055 -2.1180 -0.0272
 1154TIP3   OH2 3425   3.229   1.825   5.517  0.4635  0.7357  0.0033
 1154TIP3    H1 3426   3.214   1.798   5.426  0.9330 -1.2820  0.4804
 1154TIP3    H2 3427   3.323   1.845   5.521  0.1718  2.2690 -0.2782
 1155TIP3   OH2 3428   4.137   0.255   2.706 -0.6806  0.1783 -0.0433
 1155TIP3    H1 3429   4.205   0.305   2.752  0.4152  1.8470 -3.1880
 1155TIP3    H2 3430   4.069   0.242   2.772  2.0889 -0.5211  2.9379
 1156TIP3   OH2 3431   2.326   2.169   5.072 -0.6184 -0.2448  0.0292
 1156TIP3    H1 3432   2.394   2.105   5.052  1.3816  1.6770  0.2091
 1156TIP3    H2 3433   2.298   2.148   5.161  0.1200 -0.7849  0.1423
 1157TIP3   OH2 3434   2.813   0.902   4.893  0.1790 -0.4708  0.1054
 1157TIP3    H1 3435   2.726   0.911   4.932 -0.8679 -0.9311 -1.9972
 1157TIP3    H2 3436   2.803   0.834   4.827  1.4311  1.2516 -2.0042
 1158TIP3   OH2 3437   4.808   5.603   4.556 -0.2861 -0.4727 -0.4462
 1158TIP3    H1 3438   4.882   5.664   4.556  0.8188 -1.7484 -0.8020
 1158TIP3    H2 3439   4.749   5.637   4.489  0.6325 -0.1337 -1.1134
 1159TIP3   OH2 3440   5.060   5.413   3.724 -0.3167 -0.7245 -0.1740
 1159TIP3    H1 3441   4.973   5.372   3.724  0.4918 -2.7516 -2.9484
 1159TIP3    H2 3442   5.121   5.340   3.731  1.1777  0.3202 -1.5567
 1160TIP3   OH2 3443   4.193   4.301   1.466  0.3769 -0.3494 -0.4089
 1160TIP3    H1 3444   4.151   4.223   1.503  1.2351 -1.3297 -1.4411
 1160TIP3    H2 3445   4.284   4.275   1.451  0.9340  1.1728  0.1309
 1161TIP3   OH2 3446   1.865   6.619   4.564 -1.2499  0.1117  0.2958
 1161TIP3    H1 3447   1.929   6.671   4.515  1.0027  0.3034  3.1302
 1161TIP3    H2 3448   1.796   6.680   4.586  0.0493  1.2941  1.2968
 1162TIP3   OH2 3449  -0.008   4.179   2.095 -0.2113  0.4064  0.2880
 1162TIP3    H1 3450   0.075   4.219   2.122 -0.2213  0.8120 -0.2711
 1162TIP3    H2 3451  -0.020   4.106   2.155  0.2258  0.7443  0.7935
 1163TIP3   OH2 3452   3.897   3.151   2.042 -0.1796 -0.5061  0.1675
 1163TIP3    H1 3453   3.866   3.065   2.073 -0.1634 -0.7316 -0.4298
 1163TIP3    H2 3454   3.992   3.147   2.054 -0.1591 -0.6432 -0.0341
 1164TIP3   OH2 3455   0.515   3.712   5.723  0.2228  0.1655 -0.2942
 1164TIP3    H1 3456   0.592   3.683   5.772  0.3985  0.0660 -0.6245
 1164TIP3    H2 3457   0.527   3.675   5.635 -0.2638  0.0471 -0.3111
 1165TIP3   OH2 3458   2.741   4.319   0.420 -0.0444 -0.7886 -0.1391
 1165TIP3    H1 3459   2.746   4.242   0.476  2.4584 -1.6933 -1.4400
 1165TIP3    H2 3460   2.753   4.393   0.480  0.2101 -1.5736  0.8055
 1166TIP3   OH2 3461   1.424   5.604   2.172  0.3955  0.3979  0.2078
 1166TIP3    H1 3462   1.400   5.529   2.117  0.0570 -1.0669  2.2577
 1166TIP3    H2 3463   1.497   5.572   2.225  2.1172  2.4621 -0.8114
 1167TIP3   OH2 3464   0.639   3.806   5.112 -0.0381 -0.1964 -0.0546
 1167TIP3    H1 3465   0.553   3.847   5.106 -0.7197 -1.3190  1.5730
 1167TIP3    H2 3466   0.672   3.806   5.022 -1.9402 -0.1964 -0.7783
 1168TIP3   OH2 3467   2.876   6.740   4.590 -0.0005 -0.4325  0.2778
 1168TIP3    H1 3468   2.875   6.786   4.674 -1.3638 -1.6226  0.9426
 1168TIP3    H2 3469   2.845   6.805   4.527 -1.6652 -0.3062  1.1605
 1169TIP3   OH2 3470   5.678   5.411   0.666  0.3521 -0.3851  0.0181
 1169TIP3    H1 3471   5.749   5.362   0.626  1.5383  0.6412  0.7647
 1169TIP3    H2 3472   5.643   5.464   0.595 -0.2600 -1.5380 -0.5535
 1170TIP3   OH2 3473   2.395   0.447   5.269 -0.2673 -0.1717 -0.6935
 1170TIP3    H1 3474   2.421   0.367   5.314  0.9695  0.5527 -0.0744
 1170TIP3    H2 3475   2.459   0.459   5.199 -0.4558  0.2586 -0.8018
 1171TIP3   OH2 3476   2.280   2.469   0.615  0.3482 -0.4678  0.3546
 1171TIP3    H1 3477   2.319   2.402   0.671  0.6102 -0.1996  0.4950
 1171TIP3    H2 3478   2.192   2.481   0.649  0.1011 -1.1644 -0.0384
 1172TIP3   OH2 3479   4.131   6.180   5.302 -0.0343 -0.0098 -0.2515
 1172TIP3    H1 3480   4.087   6.173   5.217 -0.8618 -0.6519  0.2180
 1172TIP3    H2 3481   4.224   6.183   5.280 -0.2142 -0.6207 -1.1653
 1173TIP3   OH2 3482   1.641   5.394   2.215  0.4015  0.0471  0.5334
 1173TIP3    H1 3483   1.716   5.340   2.188  0.7628  1.4217 -1.4618
 1173TIP3    H2 3484   1.565   5.341   2.193  0.7655 -0.3303  0.1587
 1174TIP3   OH2 3485   4.086   0.135   3.371  0.0772 -0.0346 -0.6886
 1174TIP3    H1 3486   4.042   0.138   3.286  1.0119  0.2282 -1.1829
 1174TIP3    H2 3487   4.062   0.050   3.407  0.5902 -0.6507 -1.7435
 1175TIP3   OH2 3488   6.664   6.109   5.197  0.2162  0.5377  0.3913
 1175TIP3    H1 3489   6.747   6.080   5.161  0.0460  1.8476 -1.1768
 1175TIP3    H2 3490   6.665   6.079   5.288  1.1021 -2.0641 -0.3865
 1176TIP3   OH2 3491   3.842   5.108   1.822 -0.4651  0.2317 -0.2244
 1176TIP3    H1 3492   3.925   5.128   1.780 -1.2630  2.1862 -0.9818
 1176TIP3    H2 3493   3.852   5.142   1.912 -0.8218  1.5966 -0.6720
 1177TIP3   OH2 3494   1.368   4.718   1.933 -0.1204  0.2685  0.4275
 1177TIP3    H1 3495   1.334   4.681   2.014  1.2279 -0.6243  0.6054
 1177TIP3    H2 3496   1.318   4.675   1.863 -0.6794  0.4083  0.7311
 1178TIP3   OH2 3497   1.894   3.776   4.221  0.4926 -0.9243  0.2072
 1178TIP3    H1 3498   1.923   3.836   4.289  1.0094 -0.6410 -0.2557
 1178TIP3    H2 3499   1.799   3.782   4.222  0.5608  1.3776 -1.1398
 1179TIP3   OH2 3500   2.084   3.109   4.457 -0.0600  0.2017  0.0934
 1179TIP3    H1 3501   1.994   3.127   4.430 -0.4821 -1.0984  0.5437
 1179TIP3    H2 3502   2.098   3.163   4.535  0.0397  1.4447 -0.7578
 1180TIP3   OH2 3503   1.548   1.672   3.284  0.0823  0.0093 -0.2197
 1180TIP3    H1 3504   1.596   1.755   3.285  1.5646 -0.7951 -1.0741
 1180TIP3    H2 3505   1.611   1.607   3.316 -0.5041 -1.0398 -1.1047
 1181TIP3   OH2 3506   3.540   2.007   4.517 -0.3590  0.2724  0.1100
 1181TIP3    H1 3507   3.589   2.019   4.599 -0.0827 -0.7098  0.0933
 1181TIP3    H2 3508   3.603   2.029   4.449 -0.5111  0.8325  0.1424
 1182TIP3   OH2 3509   2.458   4.581   3.757 -0.0684 -0.2794  0.6661
 1182TIP3    H1 3510   2.502   4.563   3.674  1.3617  2.2504  0.7899
 1182TIP3    H2 3511   2.422   4.496   3.784  1.2375 -1.5967 -1.4621
 1183TIP3   OH2 3512   2.485   1.448   2.251  0.1523  0.0466 -0.2242
 1183TIP3    H1 3513   2.459   1.361   2.221 -0.7826 -0.5120  2.0191
 1183TIP3    H2 3514   2.529   1.433   2.335  0.4794  1.6915 -0.0604
 1184TIP3   OH2 3515   2.114   0.788   0.924 -0.0937  0.1137  0.5492
 1184TIP3    H1 3516   2.099   0.878   0.952 -2.6902  0.3354 -1.1485
 1184TIP3    H2 3517   2.143   0.743   1.002 -0.2999  2.0963  1.8471
 1185TIP3   OH2 3518   1.068   5.306   0.514  0.7457  0.5058 -0.1461
 1185TIP3    H1 3519   1.146   5.256   0.488  0.4330  1.1908 -2.6058
 1185TIP3    H2 3520   1.104   5.386   0.552  1.2232 -0.7217  2.1629
 1186TIP3   OH2 3521   7.159   4.805   1.861  0.3963  0.2089 -0.0474
 1186TIP3    H1 3522   7.199   4.739   1.804  2.7104 -0.3011  2.0218
 1186TIP3    H2 3523   7.093   4.756   1.910  0.0010  0.1357 -0.6392
 1187TIP3   OH2 3524   1.030   0.505   1.174 -0.0882 -0.4412 -0.6897
 1187TIP3    H1 3525   1.062   0.457   1.097  2.5905  0.3983 -0.1858
 1187TIP3    H2 3526   1.105   0.557   1.203 -1.5819  0.6695  1.4265
 1188TIP3   OH2 3527   4.148   3.796   0.659  0.0298  0.0483 -0.4561
 1188TIP3    H1 3528   4.065   3.777   0.615 -0.6995  0.3291  0.7368
 1188TIP3    H2 3529   4.130   3.873   0.713  0.4728 -1.0549  1.3575
 1189TIP3   OH2 3530   5.590   0.788   3.381 -0.1477  0.0673 -0.0739
 1189TIP3    H1 3531   5.580   0.862   3.441 -0.4773 -0.8877  1.0885
 1189TIP3    H2 3532   5.519   0.728   3.403  0.1607 -0.6463 -0.9263
 1190TIP3   OH2 3533   0.125   5.281   3.055  0.3177 -0.1797 -0.8238
 1190TIP3    H1 3534   0.211   5.244   3.032 -0.5706 -3.7421  0.8768
 1190TIP3    H2 3535   0.062   5.221   3.015 -1.3027  0.4186  0.7143
 1191TIP3   OH2 3536   2.799   5.971   0.510  0.1546  0.2218  0.0205
 1191TIP3    H1 3537   2.811   5.965   0.415 -1.4040  1.4381 -0.2929
 1191TIP3    H2 3538   2.775   5.883   0.537  0.8538 -0.1951 -0.6576
 1192TIP3   OH2 3539   1.602   0.059   0.632 -0.2530  0.1278 -0.1495
 1192TIP3    H1 3540   1.606   0.005   0.711 -0.4489 -0.2407 -0.3942
 1192TIP3    H2 3541   1.673   0.122   0.644 -1.1420  0.9526  0.9573
 1193TIP3   OH2 3542   2.388   4.413   0.634 -0.1118 -0.2818  0.2478
 1193TIP3    H1 3543   2.298   4.382   0.632 -0.3862  0.3323  1.6366
 1193TIP3    H2 3544   2.383   4.503   0.601 -0.2462  0.2288  1.6143
 1194TIP3   OH2 3545   5.122   4.909   0.924 -0.3719 -0.0509  0.6805
 1194TIP3    H1 3546   5.177   4.873   0.854 -1.3869  1.2644 -0.8663
 1194TIP3    H2 3547   5.164   4.880   1.004  0.5488 -2.0883 -0.4497
 1195TIP3   OH2 3548   6.181   6.471   1.655  0.2888 -0.4690  0.3763
 1195TIP3    H1 3549   6.215   6.461   1.744  0.1069 -0.1422  0.4853
 1195TIP3    H2 3550   6.132   6.553   1.658 -1.3635 -1.4088  0.5068
 1196TIP3   OH2 3551   4.574   5.608   2.881  0.3119  0.3318  1.2228
 1196TIP3    H1 3552   4.522   5.688   2.874 -0.0073  0.0970  0.8378
 1196TIP3    H2 3553   4.558   5.576   2.970 -1.5297 -0.6222  0.5962
 1197TIP3   OH2 3554   7.063   1.989   2.097 -0.1065 -0.0626 -0.0671
 1197TIP3    H1 3555   7.151   2.012   2.125  0.0274  0.3930 -0.8220
 1197TIP3    H2 3556   7.010   1.996   2.176  0.5372 -0.3713  0.3987
 1198TIP3   OH2 3557   2.362   5.023   2.424 -0.5364 -0.0142 -0.5972
 1198TIP3    H1 3558   2.306   4.974   2.484 -0.3167 -1.5195 -1.5677
 1198TIP3    H2 3559   2.302   5.077   2.373 -0.6834  1.6897  1.2665
 1199TIP3   OH2 3560   1.623   2.419   4.650 -0.0345 -0.0852  0.2061
 1199TIP3    H1 3561   1.643   2.490   4.590  0.7125  0.1602  0.7350
 1199TIP3    H2 3562   1.529   2.425   4.665  0.0602  0.9423  0.4269
 1200TIP3   OH2 3563   0.740   1.931   4.598 -0.8965  0.0779  0.3332
 1200TIP3    H1 3564   0.824   1.977   4.600 -0.8095 -0.1009  0.8430
 1200TIP3    H2 3565   0.727   1.909   4.506 -1.2739  1.7432 -0.0385
 1201TIP3   OH2 3566   4.614   6.777   2.183 -0.1235 -0.0896 -0.1607
 1201TIP3    H1 3567   4.545   6.813   2.126  0.0145  1.0489  0.3633
 1201TIP3    H2 3568   4.605   6.682   2.175 -0.6694  0.0488 -1.4028
 1202TIP3   OH2 3569   1.412   0.213   4.660 -0.0073  0.0451  0.4697
 1202TIP3    H1 3570   1.452   0.130   4.684 -1.4023 -0.7272  0.2186
 1202TIP3    H2 3571   1.318   0.198   4.667 -0.4609  0.5201 -2.8788
 1203TIP3   OH2 3572   0.003   6.052   3.746 -0.2509  0.5189  0.3364
 1203TIP3    H1 3573   0.056   6.003   3.809 -0.0617  0.0975 -0.1403
 1203TIP3    H2 3574  -0.042   6.118   3.798  0.0689  0.3134  0.8791
 1204TIP3   OH2 3575   2.253   0.191   3.998 -0.0255  0.2740 -0.7136
 1204TIP3    H1 3576   2.311   0.225   4.065 -0.9862 -1.9944  1.4326
 1204TIP3    H2 3577   2.165   0.204   4.032 -0.5581 -0.8067 -1.5880
 1205TIP3   OH2 3578   2.635   5.410   3.878 -0.2466  0.1620 -0.1588
 1205TIP3    H1 3579   2.690   5.361   3.939 -0.7187 -0.7337 -0.4307
 1205TIP3    H2 3580   2.668   5.499   3.882  2.2204 -0.5853 -1.4001
 1206TIP3   OH2 3581   4.696   5.229   3.180  0.4444  0.4686 -0.2540
 1206TIP3    H1 3582   4.758   5.189   3.120  0.3884  1.0466 -0.7082
 1206TIP3    H2 3583   4.686   5.165   3.251  1.7772  0.4835 -0.0165
 1207TIP3   OH2 3584   0.828   5.062   3.749  1.1586 -0.4451  0.0690
 1207TIP3    H1 3585   0.748   5.049   3.801  1.0978 -1.0387 -0.1569
 1207TIP3    H2 3586   0.897   5.021   3.801  1.2420 -0.3013  0.0704
 1208TIP3   OH2 3587   0.250   6.029   5.396 -0.1944 -0.0402  0.6885
 1208TIP3    H1 3588   0.219   5.946   5.431 -1.0318  0.2070  0.5636
 1208TIP3    H2 3589   0.269   6.082   5.473 -1.0120  0.1318  0.7877
 1209TIP3   OH2 3590   3.325   2.306   4.613 -0.0620  0.1802  0.3031
 1209TIP3    H1 3591   3.294   2.388   4.576  0.7453  0.6876  0.7279
 1209TIP3    H2 3592   3.418   2.303   4.589  0.1536 -0.1098  1.1646
 1210TIP3   OH2 3593   0.937   4.731   5.025 -0.2815  0.2629 -0.3122
 1210TIP3    H1 3594   0.948   4.658   5.086  0.1673  0.7695  0.2290
 1210TIP3    H2 3595   0.893   4.693   4.949 -1.3843 -0.2779  0.5589
 1211TIP3   OH2 3596   3.641   3.045   0.334  0.2930  0.1730 -0.0424
 1211TIP3    H1 3597   3.679   2.965   0.300  0.3481  0.0723  0.2500
 1211TIP3    H2 3598   3.547   3.035   0.320  0.3812  0.5170 -0.9656
 1212TIP3   OH2 3599   3.534   0.086   5.762 -0.1986  0.0071 -0.0747
 1212TIP3    H1 3600   3.540   0.045   5.676  1.7423 -0.6499  0.3316
 1212TIP3    H2 3601   3.529   0.013   5.823 -1.6055  0.4683  0.4167
 1213TIP3   OH2 3602   5.555   1.893   2.859  0.2406 -0.3183 -0.7772
 1213TIP3    H1 3603   5.470   1.879   2.900 -0.8176  0.9874 -2.3932
 1213TIP3    H2 3604   5.540   1.877   2.766  2.0585 -1.1622 -0.9803
 1214TIP3   OH2 3605   0.216   2.940   0.468  0.4157 -0.1412  0.3455
 1214TIP3    H1 3606   0.155   2.964   0.537  2.6032  0.0803  2.3552
 1214TIP3    H2 3607   0.233   2.847   0.481  0.8378 -0.1051  0.1022
 1215TIP3   OH2 3608   2.837   6.267   4.787 -0.3253  0.1221 -0.2042
 1215TIP3    H1 3609   2.904   6.207   4.819  0.6259  1.1651 -0.1761
 1215TIP3    H2 3610   2.869   6.296   4.702 -0.5817  0.8744 -0.0509
 1216TIP3   OH2 3611   2.695   5.678   2.303 -0.3171 -1.0179  0.0080
 1216TIP3    H1 3612   2.742   5.637   2.230  0.0432  0.8402 -0.8745
 1216TIP3    H2 3613   2.761   5.734   2.345 -1.3707  0.6489 -0.4560
 1217TIP3   OH2 3614   0.138   5.748   4.956  0.4670 -0.1588  0.0606
 1217TIP3    H1 3615   0.139   5.837   4.921  1.5175 -0.3813 -0.5001
 1217TIP3    H2 3616   0.224   5.712   4.934  0.1783 -1.2049  0.5713
 1218TIP3   OH2 3617   6.332   0.694   1.650  0.6234 -0.3837 -0.4239
 1218TIP3    H1 3618   6.320   0.713   1.557  1.0896 -1.9204 -0.8287
 1218TIP3    H2 3619   6.244   0.673   1.683 -0.0384  2.7954  0.1986
 1219TIP3   OH2 3620   3.860   0.557   2.884  0.4808 -0.0233  0.0802
 1219TIP3    H1 3621   3.786   0.573   2.825 -0.0879  0.6795  0.9545
 1219TIP3    H2 3622   3.854   0.626   2.949 -0.9554 -2.5687  2.9383
 1220TIP3   OH2 3623   5.636   0.000   2.177 -0.4657  0.0045  0.1539
 1220TIP3    H1 3624   5.548  -0.004   2.140 -0.3525 -0.8465 -0.0394
 1220TIP3    H2 3625   5.622   0.005   2.271 -0.7236 -0.2052  0.1278
 1221TIP3   OH2 3626   5.465   0.831   0.348  0.3425 -0.0098  0.1079
 1221TIP3    H1 3627   5.387   0.799   0.303  1.0328 -0.5308 -0.7505
 1221TIP3    H2 3628   5.516   0.752   0.366 -0.0749  0.1449  2.1588
 1222TIP3   OH2 3629   6.453   1.378   3.523  0.1982 -0.2428 -0.5265
 1222TIP3    H1 3630   6.499   1.405   3.443  0.1575  1.8543  0.1065
 1222TIP3    H2 3631   6.518   1.390   3.593 -0.0701 -1.1428 -0.1168
 1223TIP3   OH2 3632   1.622   0.858   2.236 -0.5066 -0.5995  0.2339
 1223TIP3    H1 3633   1.544   0.913   2.244 -1.2232 -1.5735  0.0465
 1223TIP3    H2 3634   1.589   0.768   2.243  0.6487 -1.0135  0.5692
 1224TIP3   OH2 3635   0.605   2.439   4.133  0.2024  0.4122  0.6028
 1224TIP3    H1 3636   0.629   2.388   4.055 -1.1891 -1.1991  1.1686
 1224TIP3    H2 3637   0.599   2.529   4.102  0.2932 -0.1027 -1.0060
 1225TIP3   OH2 3638   0.921   6.156   3.311  0.1162 -0.1476 -0.0220
 1225TIP3    H1 3639   1.016   6.145   3.309  0.3346  1.4953 -2.2113
 1225TIP3    H2 3640   0.905   6.209   3.389  1.0625  0.0586  0.0443
 1226TIP3   OH2 3641   2.802   4.359   3.835 -0.5645  0.0168  0.1020
 1226TIP3    H1 3642   2.722   4.319   3.871 -0.7033  0.0398 -0.1782
 1226TIP3    H2 3643   2.825   4.303   3.761  1.6050 -2.0260  2.1501
 1227TIP3   OH2 3644   5.195   5.902   0.930  0.2258  0.2210 -0.7055
 1227TIP3    H1 3645   5.261   5.852   0.977  0.4028 -0.4369 -1.6184
 1227TIP3    H2 3646   5.228   5.905   0.840 -1.3101 -0.7279 -1.3429
 1228TIP3   OH2 3647   2.494   5.930   2.176 -0.2185  0.1530 -0.1732
 1228TIP3    H1 3648   2.582   5.962   2.195 -0.4297  1.0579 -0.6854
 1228TIP3    H2 3649   2.497   5.907   2.083 -0.0683 -1.3626  0.1753
 1229TIP3   OH2 3650   6.313   2.103   4.245  0.1090 -0.0213  0.6595
 1229TIP3    H1 3651   6.264   2.045   4.186 -2.5262  1.9726  0.6929
 1229TIP3    H2 3652   6.378   2.145   4.190  0.3576 -1.1017  0.1001
 1230TIP3   OH2 3653   0.254   1.347   0.148  0.3015  0.2229  0.2887
 1230TIP3    H1 3654   0.218   1.275   0.200  1.3227  0.6180  1.6032
 1230TIP3    H2 3655   0.312   1.304   0.085 -1.1355 -0.2815 -0.7360
 1231TIP3   OH2 3656   6.635   0.485   5.405 -0.1046  0.4222  0.3073
 1231TIP3    H1 3657   6.555   0.523   5.367 -0.1375 -1.3430 -1.5558
 1231TIP3    H2 3658   6.644   0.400   5.361  1.4270 -0.5430  2.3287
 1232TIP3   OH2 3659   1.252   0.987   5.782  0.0867  0.0704  0.3753
 1232TIP3    H1 3660   1.301   0.977   5.700 -2.5430 -1.0506 -1.2102
 1232TIP3    H2 3661   1.224   1.079   5.782 -1.7608 -0.4213 -1.2397
 1233TIP3   OH2 3662   6.788   0.622   5.029  0.3238 -0.0200  0.0382
 1233TIP3    H1 3663   6.788   0.716   5.048  0.0285  0.1947 -0.9786
 1233TIP3    H2 3664   6.696   0.596   5.039 -0.2835  0.5409 -3.0075
 1234TIP3   OH2 3665   7.215   1.571   2.514  0.4418 -0.4169  0.1872
 1234TIP3    H1 3666   7.174   1.653   2.489  1.0665 -0.2881 -0.4431
 1234TIP3    H2 3667   7.143   1.518   2.549  0.0512  0.4096  0.6513
 1235TIP3   OH2 3668   1.782   3.842   1.372  0.1009 -0.0181  0.1725
 1235TIP3    H1 3669   1.762   3.754   1.403 -0.5579  0.2824  0.6352
 1235TIP3    H2 3670   1.744   3.845   1.284 -0.2468 -0.0591  0.3206
 1236TIP3   OH2 3671   1.334   4.509   2.967 -0.3883  0.1773 -0.0766
 1236TIP3    H1 3672   1.284   4.582   2.932  1.8967  2.1567  0.5402
 1236TIP3    H2 3673   1.377   4.471   2.890 -0.8168  0.0774 -0.2709
 1237TIP3   OH2 3674   4.491   4.713   1.226 -0.8280 -0.2163  0.1235
 1237TIP3    H1 3675   4.459   4.689   1.139  0.3482 -1.4971  0.0079
 1237TIP3    H2 3676   4.586   4.721   1.215 -0.6651 -0.3839  1.2692
 1238TIP3   OH2 3677   5.199   3.769   5.297  0.2679 -0.1643 -0.4140
 1238TIP3    H1 3678   5.142   3.788   5.223  0.6241 -0.8017 -0.8623
 1238TIP3    H2 3679   5.256   3.699   5.266  1.1834  0.3370  0.0840
 1239TIP3   OH2 3680   6.323   2.664   1.456  0.4035 -0.0016  0.0164
 1239TIP3    H1 3681   6.249   2.720   1.482 -0.6762 -0.4403 -1.9155
 1239TIP3    H2 3682   6.309   2.582   1.503  0.5054  0.4238  0.8051
 1240TIP3   OH2 3683   3.751   5.225   0.952  0.9597 -0.0769  0.5028
 1240TIP3    H1 3684   3.696   5.215   1.029  2.1899 -0.8131  1.3194
 1240TIP3    H2 3685   3.735   5.314   0.921  0.4343  0.2106  1.5965
 1241TIP3   OH2 3686   0.959   0.847   3.040 -0.1214 -0.1675  0.8774
 1241TIP3    H1 3687   0.924   0.823   3.126 -0.1619 -1.0247  0.6392
 1241TIP3    H2 3688   1.054   0.851   3.054 -0.1227 -0.3642  0.9576
 1242TIP3   OH2 3689   4.639   3.648   2.224 -0.3436 -0.2139  0.3937
 1242TIP3    H1 3690   4.660   3.736   2.256 -1.9243  0.6600 -0.7885
 1242TIP3    H2 3691   4.722   3.614   2.190  0.5385  0.3290  1.8999
 1243TIP3   OH2 3692   2.222   3.093   5.664 -0.5199 -0.2699  0.4241
 1243TIP3    H1 3693   2.294   3.121   5.607  1.0659 -1.3793  1.7864
 1243TIP3    H2 3694   2.146   3.092   5.606  0.4697  1.2299 -1.0097
 1244TIP3   OH2 3695   4.119   5.366   1.140 -0.3914 -0.0045  0.0165
 1244TIP3    H1 3696   4.127   5.322   1.055  0.8604 -0.5924  0.4223
 1244TIP3    H2 3697   4.067   5.306   1.193 -2.7433  1.1399 -0.8002
 1245TIP3   OH2 3698   6.704   5.283   2.572  0.3291 -0.6452  0.0968
 1245TIP3    H1 3699   6.640   5.275   2.500 -0.2763  1.3581  0.3504
 1245TIP3    H2 3700   6.789   5.277   2.528  0.1155  3.9068 -1.5253
 1246TIP3   OH2 3701   3.125   4.911   2.809  0.2365  0.3657  0.1603
 1246TIP3    H1 3702   3.116   4.845   2.878  0.2780  1.7278  1.5233
 1246TIP3    H2 3703   3.215   4.900   2.778  0.1307 -0.4518  0.1150
 1247TIP3   OH2 3704   2.623   5.589   4.890 -0.4790  0.1095 -0.8620
 1247TIP3    H1 3705   2.698   5.588   4.830  0.3098  0.8209  0.0722
 1247TIP3    H2 3706   2.616   5.499   4.921  0.4798  0.1775 -0.3920
 1248TIP3   OH2 3707   2.722   0.388   5.813  0.1197 -0.1387 -0.0563
 1248TIP3    H1 3708   2.795   0.435   5.772  0.5717 -0.2252  0.6299
 1248TIP3    H2 3709   2.691   0.447   5.882 -0.2823 -0.2181 -0.1669
 1249TIP3   OH2 3710   2.979   6.657   2.711  0.6968  0.3827  0.0501
 1249TIP3    H1 3711   2.941   6.647   2.798  1.6523  1.0666  0.5713
 1249TIP3    H2 3712   3.032   6.578   2.699 -3.6914 -2.6084 -2.2956
 1250TIP3   OH2 3713   7.087   5.259   2.444  0.2439  0.3516  0.1188
 1250TIP3    H1 3714   7.142   5.227   2.372 -2.2460 -3.2935 -0.4670
 1250TIP3    H2 3715   7.133   5.232   2.523  1.1504  0.9647 -0.1731
 1251TIP3   OH2 3716   6.620   2.206   2.286 -0.4835 -0.1322 -0.1621
 1251TIP3    H1 3717   6.558   2.242   2.223 -1.8476  0.6041  1.5302
 1251TIP3    H2 3718   6.706   2.227   2.249 -1.2116  0.1653 -1.8118
 1252TIP3   OH2 3719   5.004   3.618   0.205  0.6954 -0.6395  0.2481
 1252TIP3    H1 3720   4.913   3.590   0.203  0.4087  0.2899 -0.1965
 1252TIP3    H2 3721   5.000   3.714   0.207  1.6537 -0.5996  0.8333
 1253TIP3   OH2 3722   0.919   3.700   5.721  0.1585 -0.2321  0.1061
 1253TIP3    H1 3723   0.991   3.743   5.768 -1.0190  2.2466 -0.2080
 1253TIP3    H2 3724   0.856   3.677   5.789 -0.2834  0.8065  0.0746
 1254TIP3   OH2 3725   1.225   1.926   4.534 -0.5189 -0.1839  0.1064
 1254TIP3    H1 3726   1.279   1.975   4.597  1.9377 -0.2359 -1.7819
 1254TIP3    H2 3727   1.286   1.866   4.492 -1.8657  0.1934 -2.6508
 1255TIP3   OH2 3728   2.518   5.012   2.663  0.5594 -0.2014 -0.0217
 1255TIP3    H1 3729   2.461   4.962   2.722  1.1587 -0.6708  0.1626
 1255TIP3    H2 3730   2.465   5.023   2.584  0.8802 -2.3480 -0.6223
 1256TIP3   OH2 3731   3.401   2.193   1.882 -0.1991 -0.2139  0.1727
 1256TIP3    H1 3732   3.460   2.259   1.920  0.4895 -0.2105 -0.8801
 1256TIP3    H2 3733   3.320   2.241   1.866 -0.3229 -0.0848  1.1252
 1257TIP3   OH2 3734   1.822   3.619   5.073  1.0412 -0.2976 -0.6831
 1257TIP3    H1 3735   1.807   3.564   5.150  1.6962 -1.7880 -1.5834
 1257TIP3    H2 3736   1.766   3.695   5.087 -0.7575 -1.6890  0.0927
 1258TIP3   OH2 3737   0.691   2.868   2.764 -0.2333 -0.3599 -0.0669
 1258TIP3    H1 3738   0.673   2.844   2.855  1.3189  0.1134  0.4005
 1258TIP3    H2 3739   0.782   2.841   2.749 -0.7382 -1.2712 -1.7887
 1259TIP3   OH2 3740   4.108   4.926   4.008 -0.3373  0.0629  0.4543
 1259TIP3    H1 3741   4.096   4.996   3.945 -1.3487  0.0175  0.5768
 1259TIP3    H2 3742   4.068   4.849   3.967 -1.6538  0.2023  1.4264
 1260TIP3   OH2 3743   3.893   1.087   5.603 -0.6330 -0.1359 -0.1060
 1260TIP3    H1 3744   3.952   1.122   5.670 -0.4600  0.3401 -0.5009
 1260TIP3    H2 3745   3.828   1.037   5.652 -0.7363  0.5272  0.4555
 1261TIP3   OH2 3746   3.228   4.053   1.472 -0.2167 -0.2459 -0.1502
 1261TIP3    H1 3747   3.227   3.960   1.493  1.4803 -0.2237  0.1778
 1261TIP3    H2 3748   3.141   4.084   1.497 -0.5609 -1.5979  0.4234
 1262TIP3   OH2 3749   3.641   5.310   2.570  0.3597 -0.0893 -0.1605
 1262TIP3    H1 3750   3.669   5.314   2.662  2.8993 -0.0386 -0.8482
 1262TIP3    H2 3751   3.658   5.219   2.544  2.2161  0.4911 -1.2174
 1263TIP3   OH2 3752   4.319   5.558   3.495 -0.0987 -0.8585  0.0757
 1263TIP3    H1 3753   4.312   5.627   3.429  1.1549  0.2891  1.0588
 1263TIP3    H2 3754   4.238   5.508   3.487 -0.8245  0.4201 -1.0289
 1264TIP3   OH2 3755   2.756   2.155   1.704 -0.0059 -0.1658 -0.2234
 1264TIP3    H1 3756   2.838   2.108   1.705  0.3446  0.4100  1.4154
 1264TIP3    H2 3757   2.689   2.089   1.723  0.1435 -0.5076 -0.8743
 1265TIP3   OH2 3758   4.650   0.698   2.083 -0.1380 -0.0944 -0.3120
 1265TIP3    H1 3759   4.679   0.735   2.166  0.2965  1.2566 -1.0418
 1265TIP3    H2 3760   4.582   0.759   2.052 -1.1043 -1.1876 -0.4299
 1266TIP3   OH2 3761   0.729   5.697   3.452 -0.1310  0.1061  0.4135
 1266TIP3    H1 3762   0.754   5.789   3.465 -0.2076  0.0175  1.2716
 1266TIP3    H2 3763   0.684   5.673   3.533 -1.3503 -0.2866 -0.3497
 1267TIP3   OH2 3764   4.864   3.383   1.795  0.5303  0.4625 -0.8017
 1267TIP3    H1 3765   4.879   3.294   1.828 -0.2254 -0.1205 -1.9737
 1267TIP3    H2 3766   4.948   3.409   1.757  1.4715  1.2137  1.6257
 1268TIP3   OH2 3767   4.100   6.051   4.249  0.3868  0.1157  0.2623
 1268TIP3    H1 3768   4.132   6.140   4.262  1.3443  0.1037 -1.7072
 1268TIP3    H2 3769   4.136   6.001   4.323  2.4756  0.7400 -0.2847
 1269TIP3   OH2 3770   6.018   6.014   0.163  0.2857  0.2038 -0.1415
 1269TIP3    H1 3771   5.996   6.021   0.256  0.0254  1.3486 -0.2817
 1269TIP3    H2 3772   6.114   6.009   0.162  0.4053  1.8653  0.1241
 1270TIP3   OH2 3773   6.328   1.899   1.435  0.2807  0.1183  0.3147
 1270TIP3    H1 3774   6.302   1.915   1.525  0.8715  2.8837  0.1065
 1270TIP3    H2 3775   6.424   1.899   1.437  0.3247  1.4285 -0.4246
 1271TIP3   OH2 3776   2.262   0.286   5.784  0.3280 -0.0623  0.3774
 1271TIP3    H1 3777   2.337   0.305   5.728 -0.9573 -0.7234 -1.6890
 1271TIP3    H2 3778   2.229   0.202   5.753 -1.0845  0.0556  1.4394
 1272TIP3   OH2 3779   5.082   5.217   4.930  0.1618 -0.6107  0.1041
 1272TIP3    H1 3780   5.039   5.290   4.885 -1.0159  0.1398  2.2856
 1272TIP3    H2 3781   5.024   5.142   4.915  0.2737 -0.5916 -0.4118
 1273TIP3   OH2 3782   0.775   2.627   0.221  0.1563 -0.6243 -0.2026
 1273TIP3    H1 3783   0.715   2.701   0.227  1.0256  0.0808  0.0171
 1273TIP3    H2 3784   0.729   2.555   0.264 -0.5826 -0.1332 -0.1568
 1274TIP3   OH2 3785   4.833   2.146   3.038 -0.3816  0.0273 -0.5605
 1274TIP3    H1 3786   4.877   2.229   3.018  0.0289 -0.0515 -0.0308
 1274TIP3    H2 3787   4.864   2.124   3.126 -2.0258  0.3216  0.1400
 1275TIP3   OH2 3788   6.883   6.532   4.394  0.3351 -0.7343 -0.0030
 1275TIP3    H1 3789   6.851   6.460   4.339 -2.6084  0.3870  0.0915
 1275TIP3    H2 3790   6.827   6.530   4.472  2.4380 -0.3932  1.6092
 1276TIP3   OH2 3791   1.707   2.713   0.543  0.0575 -0.3896  0.0711
 1276TIP3    H1 3792   1.715   2.628   0.585 -0.3921 -0.5895 -0.2308
 1276TIP3    H2 3793   1.736   2.776   0.609 -1.2529 -0.6417  0.9292
 1277TIP3   OH2 3794   3.241   0.244   1.896 -0.1571  0.0102  0.1931
 1277TIP3    H1 3795   3.185   0.215   1.968 -0.0948 -0.6956 -0.0316
 1277TIP3    H2 3796   3.296   0.312   1.933 -1.3344  0.8939  0.3554
 1278TIP3   OH2 3797   5.100   5.781   2.796 -0.7686 -0.2174  0.1200
 1278TIP3    H1 3798   5.042   5.769   2.871 -0.6547 -0.5050  0.1665
 1278TIP3    H2 3799   5.175   5.725   2.815  0.0421  0.9984  0.5900
 1279TIP3   OH2 3800  -0.007   2.703   4.354  0.2071  0.4688 -0.4391
 1279TIP3    H1 3801   0.045   2.636   4.309  1.2032  1.7243 -1.2154
 1279TIP3    H2 3802   0.054   2.774   4.371 -1.0227  1.5733 -0.4409
 1280TIP3   OH2 3803   4.250   2.006   0.578 -0.2583 -0.0421  0.6188
 1280TIP3    H1 3804   4.226   2.082   0.631 -0.5037  1.0557 -0.9911
 1280TIP3    H2 3805   4.213   1.931   0.626  1.9814  0.4899  3.4949
 1281TIP3   OH2 3806   2.401   1.672   4.013  0.3144  0.7432 -0.2852
 1281TIP3    H1 3807   2.430   1.761   4.033  0.9196  0.5508 -0.2792
 1281TIP3    H2 3808   2.438   1.654   3.926 -0.0152  0.5855 -0.3949
 1282TIP3   OH2 3809   6.596   3.666   4.411  0.1731  0.3359  0.0798
 1282TIP3    H1 3810   6.639   3.650   4.495 -0.9213 -0.5249  0.5007
 1282TIP3    H2 3811   6.663   3.650   4.345  0.8286  0.2369  0.7636
 1283TIP3   OH2 3812   5.704   3.079   4.457 -0.2760  0.9569  0.6963
 1283TIP3    H1 3813   5.645   3.031   4.514  0.2636 -1.2357 -0.5104
 1283TIP3    H2 3814   5.670   3.169   4.459 -1.6008  0.4915  2.6419
 1284TIP3   OH2 3815   2.890   4.000   3.836  0.3456  0.1000  0.6512
 1284TIP3    H1 3816   2.856   4.054   3.907 -1.0767 -0.9886  0.8317
 1284TIP3    H2 3817   2.889   4.058   3.760  0.0949  0.7275  1.1238
 1285TIP3   OH2 3818   6.526   6.062   4.946  0.0505 -0.3301  0.0550
 1285TIP3    H1 3819   6.553   6.149   4.915  2.6324 -1.4845 -1.2708
 1285TIP3    H2 3820   6.540   6.066   5.041  0.6573  0.5577 -0.0514
 1286TIP3   OH2 3821   2.987   6.804   3.093 -0.1133  0.7858 -0.1116
 1286TIP3    H1 3822   2.970   6.741   3.163  0.6407 -0.7280 -1.2167
 1286TIP3    H2 3823   3.082   6.816   3.093  0.0537 -0.1995 -1.5987
 1287TIP3   OH2 3824   6.228   2.707   0.477 -0.3765 -0.2489  0.2313
 1287TIP3    H1 3825   6.154   2.767   0.475  0.3158  0.6215 -2.1997
 1287TIP3    H2 3826   6.215   2.650   0.401  1.5534  0.0885 -0.4029
 1288TIP3   OH2 3827   2.316   5.945   5.424 -0.3658  0.5330 -0.0994
 1288TIP3    H1 3828   2.299   6.005   5.352 -0.3972 -0.0915 -0.6287
 1288TIP3    H2 3829   2.316   5.858   5.383 -1.9221  0.0092  0.8770
 1289TIP3   OH2 3830   2.579   0.090   3.088  0.0804 -0.1038  0.0644
 1289TIP3    H1 3831   2.653   0.150   3.097 -0.4139  0.3367  1.6476
 1289TIP3    H2 3832   2.587   0.032   3.164 -0.9098 -0.3698 -0.0201
 1290TIP3   OH2 3833   4.224   6.209   5.680 -0.0810 -0.6689  0.0135
 1290TIP3    H1 3834   4.149   6.264   5.657  1.0162  0.7507 -0.2486
 1290TIP3    H2 3835   4.190   6.120   5.674 -2.1094 -0.0523  1.1448
 1291TIP3   OH2 3836   0.088   4.859   4.308  0.6118 -0.2403 -0.4009
 1291TIP3    H1 3837   0.133   4.826   4.230 -0.9155 -0.6631 -1.1512
 1291TIP3    H2 3838   0.063   4.948   4.284  0.8290 -0.0890 -0.0750
 1292TIP3   OH2 3839   6.400   2.956   4.755  0.3427  0.1560 -0.2439
 1292TIP3    H1 3840   6.310   2.939   4.781 -0.3918  2.7648 -0.7688
 1292TIP3    H2 3841   6.450   2.958   4.837 -0.0577 -1.2634  0.0485
 1293TIP3   OH2 3842   5.166   4.917   5.044  0.2322  0.3133  0.1691
 1293TIP3    H1 3843   5.218   4.987   5.083  2.0617 -0.8607 -0.0590
 1293TIP3    H2 3844   5.164   4.849   5.111  2.2382 -1.1652 -1.1401
 1294TIP3   OH2 3845   4.823   1.914   3.675  0.3326 -0.2126 -0.5028
 1294TIP3    H1 3846   4.854   1.823   3.671  0.2297 -0.2939  0.3452
 1294TIP3    H2 3847   4.814   1.932   3.768  0.5339  0.7407 -0.6598
 1295TIP3   OH2 3848   2.600   5.043   4.366 -0.6340  0.1238 -0.2384
 1295TIP3    H1 3849   2.661   5.104   4.323 -1.6587  2.2125  1.1135
 1295TIP3    H2 3850   2.516   5.088   4.362 -1.6137 -1.6269  0.0941
 1296TIP3   OH2 3851   3.498   5.145   2.898 -0.1904 -0.6578 -0.4574
 1296TIP3    H1 3852   3.431   5.080   2.879 -0.2878 -1.6505  2.7712
 1296TIP3    H2 3853   3.450   5.224   2.921 -0.2281 -0.9306  0.4181
 1297TIP3   OH2 3854   0.694   0.274   2.791  0.1846  0.8060 -0.4099
 1297TIP3    H1 3855   0.633   0.321   2.848  2.2755  1.5283  1.3657
 1297TIP3    H2 3856   0.647   0.266   2.707 -2.9572 -0.1372  1.2719
 1298TIP3   OH2 3857   0.207   2.445   3.549 -0.3028  0.3733 -0.1125
 1298TIP3    H1 3858   0.162   2.476   3.470 -0.6530  0.6319  0.1879
 1298TIP3    H2 3859   0.215   2.522   3.605 -0.0286  0.1974  0.0948
 1299TIP3   OH2 3860   5.774   2.829   1.771 -0.2482  0.6480  0.4368
 1299TIP3    H1 3861   5.852   2.775   1.776 -0.8160 -0.2474 -0.1333
 1299TIP3    H2 3862   5.796   2.908   1.821  1.2242  0.6751 -0.1823
 1300TIP3   OH2 3863   5.990   1.332   2.657 -0.3630 -0.8380  0.3342
 1300TIP3    H1 3864   5.909   1.379   2.676 -0.4080 -0.1349 -1.3792
 1300TIP3    H2 3865   5.996   1.333   2.561  1.2903 -1.5211  0.3977
 1301TIP3   OH2 3866   5.260   2.921   4.855 -0.2223 -0.2742  0.2481
 1301TIP3    H1 3867   5.201   2.891   4.785 -0.9966  1.6336  0.0270
 1301TIP3    H2 3868   5.217   2.894   4.936  0.2489 -1.7459  0.0277
 1302TIP3   OH2 3869   3.296   3.047   4.029  0.3686 -0.4767  1.1187
 1302TIP3    H1 3870   3.207   3.014   4.024  0.1111  0.3025  0.2618
 1302TIP3    H2 3871   3.314   3.056   4.123 -0.6589 -0.0910  1.2877
 1303TIP3   OH2 3872   0.611   2.753   4.242  0.1766 -0.1359  0.3720
 1303TIP3    H1 3873   0.600   2.706   4.325  1.9124 -0.0751  0.6602
 1303TIP3    H2 3874   0.703   2.776   4.240  0.1029  0.0797 -1.4785
 1304TIP3   OH2 3875   2.393   4.743   4.878  0.0270  1.1045 -0.0109
 1304TIP3    H1 3876   2.450   4.809   4.918 -0.3089  1.6482 -0.4149
 1304TIP3    H2 3877   2.450   4.697   4.816  0.8736 -0.5517  1.8972
 1305TIP3   OH2 3878   4.840   6.459   2.884 -0.0527 -0.0844  0.4323
 1305TIP3    H1 3879   4.874   6.470   2.972  0.8200  0.4275  0.0461
 1305TIP3    H2 3880   4.795   6.375   2.885  0.6938 -0.4770  1.1318
 1306TIP3   OH2 3881   2.304   5.846   4.239  0.0384  0.0730  0.0867
 1306TIP3    H1 3882   2.328   5.844   4.332 -3.4067  0.3355  1.0956
 1306TIP3    H2 3883   2.240   5.776   4.229 -0.9964  1.2102 -1.6870
 1307TIP3   OH2 3884   3.314   2.701   3.964 -0.0400 -0.3202 -0.7100
 1307TIP3    H1 3885   3.316   2.633   3.897  0.2866 -2.1271  1.0191
 1307TIP3    H2 3886   3.390   2.756   3.945  1.2891 -2.0444 -0.6775
 1308TIP3   OH2 3887   6.735   6.788   2.854 -0.1744 -0.7128 -0.0433
 1308TIP3    H1 3888   6.713   6.699   2.825 -0.9380 -0.2506 -0.9418
 1308TIP3    H2 3889   6.800   6.775   2.923  1.5100 -1.9067 -1.7255
 1309TIP3   OH2 3890   4.058   5.471   5.562 -0.4140 -0.0154 -0.0773
 1309TIP3    H1 3891   4.125   5.535   5.537 -1.4123  1.2300  0.3421
 1309TIP3    H2 3892   4.006   5.459   5.483 -0.9091  0.5735  0.1496
 1310TIP3   OH2 3893   6.180   5.703   3.373  0.4192  0.0793 -0.1439
 1310TIP3    H1 3894   6.268   5.666   3.361  0.1939 -0.6978  0.5089
 1310TIP3    H2 3895   6.179   5.780   3.317  1.6094  0.2369  0.0266
 1311TIP3   OH2 3896   6.642   4.915   4.010 -0.5765 -0.7349  0.6274
 1311TIP3    H1 3897   6.686   4.990   3.970 -1.1287 -1.2142 -0.9680
 1311TIP3    H2 3898   6.700   4.889   4.081  0.5206  0.1088  0.0902
 1312TIP3   OH2 3899   1.171   6.213   0.042  0.1980  0.4960 -0.6251
 1312TIP3    H1 3900   1.192   6.147  -0.025 -3.0605  0.5411 -1.8530
 1312TIP3    H2 3901   1.166   6.163   0.123 -0.8463 -0.5524 -1.3061
 1313TIP3   OH2 3902   4.307   1.314   3.479 -0.4093 -0.0430  0.6908
 1313TIP3    H1 3903   4.262   1.386   3.436  2.1069  1.7484  0.8801
 1313TIP3    H2 3904   4.344   1.352   3.559  0.1902 -1.7722  1.2849
 1314TIP3   OH2 3905   1.444   5.452   3.952 -0.2219  0.0045  0.1522
 1314TIP3    H1 3906   1.538   5.467   3.963 -0.0565 -0.7639 -0.1808
 1314TIP3    H2 3907   1.405   5.485   4.033  0.6608 -2.7427  1.8390
 1315TIP3   OH2 3908   4.710   5.571   5.055 -0.5887  0.1839  0.3264
 1315TIP3    H1 3909   4.803   5.552   5.065 -0.6170 -0.1690 -0.0413
 1315TIP3    H2 3910   4.703   5.615   4.970 -0.4831  2.2008  1.3078
 1316TIP3   OH2 3911   4.805   5.803   1.999  0.2290  0.2617  0.2617
 1316TIP3    H1 3912   4.729   5.774   1.948  1.1082 -0.9896 -0.3874
 1316TIP3    H2 3913   4.797   5.756   2.082 -1.2243  2.3298  1.3571
 1317TIP3   OH2 3914   0.016   0.936   0.524 -0.4165 -0.4373 -0.5316
 1317TIP3    H1 3915   0.091   0.923   0.582 -1.6972 -0.6345  1.1700
 1317TIP3    H2 3916   0.036   0.882   0.447  2.0994  1.1531 -1.0972
 1318TIP3   OH2 3917   1.384   2.800   4.264  0.5456  0.2781 -0.5661
 1318TIP3    H1 3918   1.442   2.749   4.208  0.4035 -2.3982  1.5329
 1318TIP3    H2 3919   1.441   2.836   4.332 -0.0255 -1.5831  0.9711
 1319TIP3   OH2 3920   1.135   2.066   4.058 -0.4146 -0.3276 -0.0419
 1319TIP3    H1 3921   1.103   2.087   4.146  0.4013 -0.5605  0.3153
 1319TIP3    H2 3922   1.058   2.077   4.002 -0.6420  1.1361  0.4979
 1320TIP3   OH2 3923   6.507   6.139   0.291 -0.0314  0.6273 -0.3986
 1320TIP3    H1 3924   6.561   6.121   0.214  0.7835 -2.0522  0.6772
 1320TIP3    H2 3925   6.494   6.234   0.290  0.5988  0.7742 -3.3693
 1321TIP3   OH2 3926   6.316   2.696   3.982  0.3316  0.5614  0.6281
 1321TIP3    H1 3927   6.268   2.778   3.990 -0.3909  0.2676 -0.4703
 1321TIP3    H2 3928   6.251   2.628   4.000 -0.7835 -0.0472 -4.2500
 1322TIP3   OH2 3929   1.319   3.368   3.962  0.5965  0.0096 -0.2295
 1322TIP3    H1 3930   1.395   3.403   3.915  0.5455 -1.1626 -1.2281
 1322TIP3    H2 3931   1.243   3.403   3.914  0.5079  0.5310  0.2817
 1323TIP3   OH2 3932   1.637   1.809   3.884  0.1771  0.1752 -0.1611
 1323TIP3    H1 3933   1.595   1.787   3.801  1.5993 -2.4137 -0.2817
 1323TIP3    H2 3934   1.679   1.728   3.913  1.0766  1.4048  2.3130
 1324TIP3   OH2 3935   5.806   2.537   5.600  0.5583 -0.0451 -0.6405
 1324TIP3    H1 3936   5.775   2.452   5.632  0.9934  0.2026  0.4833
 1324TIP3    H2 3937   5.726   2.583   5.574  0.0877 -0.0247  0.7226
 1325TIP3   OH2 3938   2.133   5.716   3.680  0.5100 -0.2210  0.5089
 1325TIP3    H1 3939   2.071   5.755   3.741  1.3980  1.7637  0.2412
 1325TIP3    H2 3940   2.086   5.712   3.597  0.1701 -0.4285  0.7095
 1326TIP3   OH2 3941   5.948   1.380   0.817 -0.2370 -0.4737 -0.4813
 1326TIP3    H1 3942   6.032   1.399   0.860  0.0672 -1.3040 -0.6716
 1326TIP3    H2 3943   5.965   1.299   0.768 -0.4849  0.5948 -2.4257
 1327TIP3   OH2 3944   4.442   1.983   3.808 -0.1935 -0.2927 -0.1694
 1327TIP3    H1 3945   4.496   1.976   3.730 -0.5950 -1.8346 -0.3546
 1327TIP3    H2 3946   4.504   2.001   3.879  0.0818  2.0344 -0.9191
 1328TIP3   OH2 3947   7.148   4.069   2.776  0.1714 -0.2018 -0.1028
 1328TIP3    H1 3948   7.072   4.127   2.780  0.4675  0.1397  1.1941
 1328TIP3    H2 3949   7.122   3.998   2.717 -1.0994 -0.0184  0.2096
 1329TIP3   OH2 3950   0.622   3.640   4.707  0.1885  0.7408  0.4862
 1329TIP3    H1 3951   0.551   3.584   4.738 -0.8711  1.8497  0.1115
 1329TIP3    H2 3952   0.579   3.719   4.675  1.5583  1.2689 -0.1419
 1330TIP3   OH2 3953   6.845   3.382   3.838  0.2950  0.0134  0.4607
 1330TIP3    H1 3954   6.798   3.437   3.776  0.0622 -0.6947 -0.0138
 1330TIP3    H2 3955   6.920   3.349   3.789 -0.4258 -1.3496  0.2005
 1331TIP3   OH2 3956   6.153   5.098   4.553  0.1224  0.3804  0.1826
 1331TIP3    H1 3957   6.191   5.183   4.575 -1.7172  0.9448  1.3537
 1331TIP3    H2 3958   6.098   5.075   4.628 -0.3218 -1.3169 -0.5967
 1332TIP3   OH2 3959   4.146   1.925   2.405 -0.4961  0.3463  0.1855
 1332TIP3    H1 3960   4.130   1.949   2.496 -1.1389 -0.6000  0.3330
 1332TIP3    H2 3961   4.105   1.839   2.395 -1.9877  1.1684 -1.4529
 1333TIP3   OH2 3962   2.212   5.462   5.019  0.2862  0.5068  0.5934
 1333TIP3    H1 3963   2.232   5.398   4.951  1.1415  1.8769 -0.4982
 1333TIP3    H2 3964   2.295   5.477   5.063  0.5384  2.1422 -0.3428
 1334TIP3   OH2 3965   0.239   0.230   5.487 -0.0399  0.0093  0.5528
 1334TIP3    H1 3966   0.204   0.291   5.552 -1.4206  0.3398 -0.4473
 1334TIP3    H2 3967   0.202   0.145   5.510 -0.4146  0.1006  0.3080
 1335TIP3   OH2 3968   5.209   3.770   1.730 -0.1538 -0.4051  0.6039
 1335TIP3    H1 3969   5.187   3.738   1.818  0.4055  2.5443  1.9395
 1335TIP3    H2 3970   5.152   3.846   1.717  0.1995 -0.4204 -1.3764
 1336TIP3   OH2 3971   3.539   4.156   1.450 -0.1398 -0.1091  0.2200
 1336TIP3    H1 3972   3.545   4.070   1.490  1.6083 -0.0895  0.0997
 1336TIP3    H2 3973   3.448   4.183   1.463 -0.1170 -0.8900  2.5301
 1337TIP3   OH2 3974   3.885   2.188   4.203  0.2382  0.3395  0.2102
 1337TIP3    H1 3975   3.923   2.272   4.228  1.2633 -0.3552  1.0972
 1337TIP3    H2 3976   3.906   2.178   4.110  0.5848  0.8185  0.2349
 1338TIP3   OH2 3977   4.332   6.569   0.433  0.2725 -0.1278  0.2642
 1338TIP3    H1 3978   4.274   6.617   0.492 -2.0107 -1.1389 -1.0107
 1338TIP3    H2 3979   4.297   6.480   0.433  1.2814 -0.5556 -1.2808
 1339TIP3   OH2 3980   6.201   3.936   5.034  0.1030  0.3113  0.2015
 1339TIP3    H1 3981   6.250   3.994   4.976  0.3618 -0.4745 -0.3876
 1339TIP3    H2 3982   6.110   3.948   5.010 -0.0252  1.8478  1.3613
 1340TIP3   OH2 3983   5.850   5.573   0.836 -0.6716 -0.4580 -0.0520
 1340TIP3    H1 3984   5.777   5.530   0.791 -1.0015 -0.6917  0.6882
 1340TIP3    H2 3985   5.808   5.621   0.908 -0.1954  0.2263 -0.2178
 1341TIP3   OH2 3986   0.621   3.712   0.828  0.1562 -0.4758 -0.4094
 1341TIP3    H1 3987   0.665   3.685   0.908 -0.7921  0.8307  0.6181
 1341TIP3    H2 3988   0.530   3.727   0.855 -0.2138 -0.1271 -1.7615
 1342TIP3   OH2 3989   2.309   4.572   0.230 -0.2576  0.0405 -0.4519
 1342TIP3    H1 3990   2.385   4.578   0.288 -0.5855 -0.5361  0.0448
 1342TIP3    H2 3991   2.238   4.542   0.286 -0.2871 -1.8072 -1.3936
 1343TIP3   OH2 3992   2.046   5.279   1.224  0.0967 -0.1641 -0.0768
 1343TIP3    H1 3993   2.028   5.267   1.317  2.1496  1.7440  0.6677
 1343TIP3    H2 3994   1.961   5.300   1.185 -0.6004  0.2685  1.5947
 1344TIP3   OH2 3995   1.948   2.612   0.870 -0.4203  0.3407 -0.1530
 1344TIP3    H1 3996   1.888   2.686   0.854  0.2705  0.7750 -0.7689
 1344TIP3    H2 3997   2.034   2.645   0.844  0.2988  0.1106  1.7696
 1345TIP3   OH2 3998   5.558   4.593   1.249 -0.3209  0.5504 -0.1569
 1345TIP3    H1 3999   5.466   4.615   1.265 -1.8457 -3.1701 -2.6653
 1345TIP3    H2 4000   5.576   4.521   1.309 -0.6836 -1.8276 -2.6752
 1346TIP3   OH2 4001   4.114   0.517   0.851 -0.1967  0.2764  0.2575
 1346TIP3    H1 4002   4.166   0.456   0.903  0.9351  1.3036  0.3609
 1346TIP3    H2 4003   4.024   0.503   0.881  0.2841  0.0090  1.6492
 1347TIP3   OH2 4004   2.564   4.966   4.972  0.5813  0.1841 -0.1793
 1347TIP3    H1 4005   2.628   4.999   5.035  0.4002  2.5638 -1.1286
 1347TIP3    H2 4006   2.617   4.930   4.901  0.8213  0.0534  0.0645
 1348TIP3   OH2 4007   2.773   0.011   2.275  0.0306  0.0160 -0.1150
 1348TIP3    H1 4008   2.737   0.071   2.211  0.3384  1.4093  0.9660
 1348TIP3    H2 4009   2.755   0.052   2.360  0.5526 -1.2453  0.6418
 1349TIP3   OH2 4010   4.919   0.598   1.407  0.4145  0.2526  0.6516
 1349TIP3    H1 4011   4.996   0.631   1.452  1.3850 -0.3056 -0.5383
 1349TIP3    H2 4012   4.954   0.545   1.335 -1.0667 -1.1896  0.9240
 1350TIP3   OH2 4013   4.640   4.966   2.252 -0.3220 -0.1874  0.3351
 1350TIP3    H1 4014   4.557   4.936   2.288 -0.2782  0.2270  0.8026
 1350TIP3    H2 4015   4.690   4.995   2.329 -0.0590  0.3074 -0.0187
 1351TIP3   OH2 4016   1.757   1.850   3.264 -0.2138  0.0753  0.8144
 1351TIP3    H1 4017   1.695   1.923   3.255 -0.6425 -0.4156 -0.4671
 1351TIP3    H2 4018   1.823   1.882   3.325  1.0134  2.5304 -1.6002
 1352TIP3   OH2 4019   4.886   6.297   0.373 -0.4654 -0.3880  0.6356
 1352TIP3    H1 4020   4.931   6.283   0.456 -0.8599  0.3918  0.9814
 1352TIP3    H2 4021   4.808   6.242   0.378 -0.9121  0.2751  1.1240
 1353TIP3   OH2 4022   3.252   5.089   1.525  0.2581  0.5798  0.6837
 1353TIP3    H1 4023   3.227   5.128   1.609 -1.3944  0.4566  0.2825
 1353TIP3    H2 4024   3.198   5.010   1.519  1.9200 -0.6160  0.4576
 1354TIP3   OH2 4025   4.265   3.514   4.958  0.1955  0.3512 -0.1000
 1354TIP3    H1 4026   4.183   3.563   4.970  0.7193  1.0400  0.8619
 1354TIP3    H2 4027   4.311   3.524   5.042  0.2244 -2.0480  0.2376
 1355TIP3   OH2 4028   0.087   3.472   5.571 -0.1120 -0.5450  0.4421
 1355TIP3    H1 4029   0.072   3.566   5.562 -0.0326 -0.3468  2.0391
 1355TIP3    H2 4030   0.008   3.439   5.614  0.0322 -1.1406  0.2662
 1356TIP3   OH2 4031   3.952   5.844   4.550  0.3973 -0.2924  0.5667
 1356TIP3    H1 4032   3.877   5.834   4.492  1.0019 -1.1205 -0.0962
 1356TIP3    H2 4033   3.946   5.934   4.582 -1.0194 -0.4278  0.7357
 1357TIP3   OH2 4034   5.030   5.409   2.259 -0.1888  0.2157 -0.0414
 1357TIP3    H1 4035   5.069   5.439   2.340 -2.1307  1.6018  0.4490
 1357TIP3    H2 4036   4.958   5.352   2.287 -0.5414  0.2814 -0.7893
 1358TIP3   OH2 4037   0.027   3.838   1.801  0.1675  0.1903 -0.0393
 1358TIP3    H1 4038  -0.003   3.926   1.781 -0.7526 -0.1781 -0.3751
 1358TIP3    H2 4039   0.028   3.793   1.717  1.2101  0.0358  0.0408
 1359TIP3   OH2 4040   4.749   4.459   1.594  0.7263  0.3824 -0.1612
 1359TIP3    H1 4041   4.753   4.459   1.690  1.3781  0.7993 -0.1838
 1359TIP3    H2 4042   4.836   4.431   1.567  0.7931  1.0445 -0.6393
 1360TIP3   OH2 4043   1.714   3.156   2.866 -0.3222  0.4129  0.5515
 1360TIP3    H1 4044   1.628   3.187   2.894 -0.7114  0.4163 -0.5971
 1360TIP3    H2 4045   1.742   3.218   2.799  0.4763  0.2779  0.7450
 1361TIP3   OH2 4046   3.232   0.995   5.027  0.0625 -0.3022  0.2024
 1361TIP3    H1 4047   3.284   0.984   4.947  1.9519 -1.5801  1.5082
 1361TIP3    H2 4048   3.194   0.908   5.042 -0.3840 -0.0345  0.6316
 1362TIP3   OH2 4049   3.034   4.437   3.512 -0.5269 -0.2459  0.2722
 1362TIP3    H1 4050   3.086   4.502   3.463  0.8728 -0.3538  1.5660
 1362TIP3    H2 4051   3.005   4.375   3.445 -0.2682  0.6514 -0.7046
 1363TIP3   OH2 4052   0.117   1.167   4.810 -0.1719 -0.0700 -0.3078
 1363TIP3    H1 4053   0.033   1.181   4.853 -0.3745 -1.5243 -0.1795
 1363TIP3    H2 4054   0.125   1.239   4.747  0.1572  2.1666  2.1375
 1364TIP3   OH2 4055   2.216   5.134   2.210 -0.3040  0.0019  0.2111
 1364TIP3    H1 4056   2.203   5.229   2.215  1.5869  0.3072  0.0538
 1364TIP3    H2 4057   2.159   5.106   2.138  0.9820  1.4283 -1.4284
 1365TIP3   OH2 4058   5.834   4.228   1.566  0.0105  0.4099 -0.2383
 1365TIP3    H1 4059   5.899   4.159   1.557 -2.4179 -2.4400  1.7521
 1365TIP3    H2 4060   5.884   4.309   1.576  3.1781 -1.5011  0.4869
 1366TIP3   OH2 4061   1.935   4.432   4.952 -0.1855 -0.3230 -0.1094
 1366TIP3    H1 4062   2.002   4.392   4.896  0.6455  0.6456  0.1641
 1366TIP3    H2 4063   1.983   4.463   5.028 -0.7791  1.2900 -0.3687
 1367TIP3   OH2 4064   1.657   4.383   2.367 -0.2852 -0.4960  0.1952
 1367TIP3    H1 4065   1.684   4.373   2.458 -0.1878  2.3763  0.5756
 1367TIP3    H2 4066   1.739   4.378   2.317  0.0603  0.8345  0.5957
 1368TIP3   OH2 4067   0.735   2.371   4.376 -0.3480 -0.7929  0.4938
 1368TIP3    H1 4068   0.826   2.396   4.360 -0.6114  0.3618  0.6543
 1368TIP3    H2 4069   0.688   2.400   4.298 -1.0788  1.6751  1.7333
 1369TIP3   OH2 4070   2.748   0.807   3.481 -0.0329 -0.3097 -0.5009
 1369TIP3    H1 4071   2.829   0.757   3.467 -0.6426 -1.3648 -0.3731
 1369TIP3    H2 4072   2.723   0.787   3.571 -2.8021 -3.6925 -1.7806
 1370TIP3   OH2 4073   3.702   0.609   4.674  0.1088 -0.1090  0.0974
 1370TIP3    H1 4074   3.699   0.631   4.767 -2.8906  0.9852 -0.1598
 1370TIP3    H2 4075   3.651   0.678   4.631  0.8788 -0.9217 -2.3067
 1371TIP3   OH2 4076   6.389   4.650   5.503  0.2222  0.3783 -0.8340
 1371TIP3    H1 4077   6.457   4.666   5.568  0.9430 -0.4603 -1.3562
 1371TIP3    H2 4078   6.365   4.558   5.517  1.7280 -0.4121 -2.9404
 1372TIP3   OH2 4079   2.240   4.357   5.513 -0.0144 -0.4899 -0.2199
 1372TIP3    H1 4080   2.267   4.445   5.538 -0.3056 -0.1966 -0.9018
 1372TIP3    H2 4081   2.208   4.366   5.424 -2.3438 -0.8158  0.5193
 1373TIP3   OH2 4082   3.326   6.113   0.716 -0.0904  0.7831 -0.2778
 1373TIP3    H1 4083   3.361   6.201   0.731 -1.5552  1.1900  1.0231
 1373TIP3    H2 4084   3.320   6.075   0.804  1.0869 -0.8771 -0.8655
 1374TIP3   OH2 4085   0.886   2.624   4.727 -0.4295  0.1294 -0.0923
 1374TIP3    H1 4086   0.844   2.635   4.642 -0.3862  0.4976 -0.0682
 1374TIP3    H2 4087   0.875   2.532   4.747  1.3258 -0.4271 -1.4307
 1375TIP3   OH2 4088   1.460   6.112   2.092  0.4024  0.7514  0.1093
 1375TIP3    H1 4089   1.370   6.133   2.066  0.8783  0.3871 -2.0266
 1375TIP3    H2 4090   1.451   6.036   2.150 -0.6796  0.8778  0.1234
 1376TIP3   OH2 4091   0.561   0.683   0.215  0.3541  0.5450 -0.9194
 1376TIP3    H1 4092   0.517   0.601   0.239  0.6149  0.1102 -1.8959
 1376TIP3    H2 4093   0.496   0.729   0.161  0.6516  0.4341 -1.3750
 1377TIP3   OH2 4094   1.997   2.858   1.347 -0.2376 -0.0954 -0.0186
 1377TIP3    H1 4095   1.976   2.870   1.439  1.3413  1.1874  0.2295
 1377TIP3    H2 4096   1.930   2.907   1.300  0.1003  0.9591  0.5651
 1378TIP3   OH2 4097   6.729   1.361   0.078  0.7736 -0.2864 -0.8777
 1378TIP3    H1 4098   6.816   1.385   0.045  1.4697 -1.4757 -0.0021
 1378TIP3    H2 4099   6.739   1.365   0.174 -0.0730 -0.6356 -0.7704
 1379TIP3   OH2 4100   4.233   0.992   2.407  0.1528 -0.1809 -0.4935
 1379TIP3    H1 4101   4.158   1.045   2.382 -1.2817 -1.5730  0.5953
 1379TIP3    H2 4102   4.195   0.906   2.428  1.9037 -0.6427  1.0411
 1380TIP3   OH2 4103   1.721   4.969   1.994 -0.1359 -0.3735 -0.0167
 1380TIP3    H1 4104   1.749   4.884   1.960 -0.4651  0.0569 -1.4619
 1380TIP3    H2 4105   1.635   4.983   1.954 -0.3634  0.3490  0.7157
 1381TIP3   OH2 4106   3.806   1.203   1.090 -0.1192  0.2689 -0.1844
 1381TIP3    H1 4107   3.850   1.162   1.016  0.3556  0.0290  0.2238
 1381TIP3    H2 4108   3.854   1.285   1.104  0.9416 -0.5048  0.9582
 1382TIP3   OH2 4109   4.633   4.800   3.718 -0.1992  0.1575 -0.8041
 1382TIP3    H1 4110   4.627   4.816   3.624 -1.0229  0.4794 -0.7069
 1382TIP3    H2 4111   4.547   4.825   3.752 -0.4576 -1.4298 -0.1813
 1383TIP3   OH2 4112   5.293   3.621   4.612  0.0744  0.0013  0.1275
 1383TIP3    H1 4113   5.356   3.692   4.626 -0.2217  1.1464 -3.2278
 1383TIP3    H2 4114   5.208   3.664   4.620 -0.2235 -0.7443  1.1520
 1384TIP3   OH2 4115   7.013   4.415   2.589  0.1331  0.4506 -0.2990
 1384TIP3    H1 4116   6.951   4.429   2.517 -1.1989  0.5400  0.8091
 1384TIP3    H2 4117   7.089   4.467   2.565 -0.3613  0.6479 -1.5378
 1385TIP3   OH2 4118   2.346   2.164   1.638 -0.5215 -0.6713 -0.3411
 1385TIP3    H1 4119   2.264   2.151   1.685 -1.4835  1.2000 -1.3857
 1385TIP3    H2 4120   2.370   2.076   1.607 -0.3652 -1.7872  2.6552
 1386TIP3   OH2 4121   3.580   3.259   3.657 -0.4136 -0.1704 -0.7098
 1386TIP3    H1 4122   3.584   3.343   3.611 -1.3475 -0.2164 -0.9082
 1386TIP3    H2 4123   3.518   3.274   3.728 -0.6789 -0.7176 -0.8199
 1387TIP3   OH2 4124   7.083   1.200   3.229 -0.2514 -0.1641  0.1607
 1387TIP3    H1 4125   7.120   1.235   3.310  2.0347  0.2276 -0.9602
 1387TIP3    H2 4126   7.072   1.277   3.172  0.7088 -0.7186 -0.8107
 1388TIP3   OH2 4127   4.435   3.029   3.794 -0.0806  0.5400 -0.3012
 1388TIP3    H1 4128   4.526   2.999   3.801 -0.4925 -0.5418  0.8034
 1388TIP3    H2 4129   4.391   2.960   3.745 -0.3533  1.0031 -0.7248
 1389TIP3   OH2 4130   6.127   5.966   1.418  0.5404 -0.1394  0.2440
 1389TIP3    H1 4131   6.211   5.924   1.432  1.2977  1.4312  0.6901
 1389TIP3    H2 4132   6.103   6.002   1.504  0.0909  0.5860 -0.1693
 1390TIP3   OH2 4133   7.084   1.698   2.818 -0.2904 -0.9951 -0.8721
 1390TIP3    H1 4134   7.089   1.618   2.764  0.0332 -1.5603 -0.0178
 1390TIP3    H2 4135   7.131   1.676   2.898  0.1878  0.2087 -0.8005
 1391TIP3   OH2 4136   5.519   1.714   3.434  0.2652  0.1857 -0.1845
 1391TIP3    H1 4137   5.456   1.771   3.479 -0.4877 -0.6872 -0.1044
 1391TIP3    H2 4138   5.597   1.717   3.489  0.2307  1.1227 -0.1745
 1392TIP3   OH2 4139   6.539   5.214   1.342 -0.6703 -0.4437  0.6604
 1392TIP3    H1 4140   6.458   5.264   1.350 -0.5637 -0.3159  0.9463
 1392TIP3    H2 4141   6.587   5.258   1.273 -0.4487  0.0254  1.1123
 1393TIP3   OH2 4142   2.723   6.712   1.925  0.3103 -0.4999  0.7308
 1393TIP3    H1 4143   2.685   6.644   1.869  1.3081 -0.4511 -0.0515
 1393TIP3    H2 4144   2.652   6.772   1.943  0.5777  1.2767 -3.1937
 1394TIP3   OH2 4145   4.378   3.429   4.219  0.2913 -0.2457  0.2887
 1394TIP3    H1 4146   4.320   3.446   4.144 -1.7364 -2.0040  1.3696
 1394TIP3    H2 4147   4.360   3.501   4.279  1.1563  0.5931 -0.4108
 1395TIP3   OH2 4148   0.225   4.135   2.550 -0.0109  0.0196 -0.2195
 1395TIP3    H1 4149   0.138   4.164   2.521  0.8053  1.1113 -1.7578
 1395TIP3    H2 4150   0.258   4.208   2.602 -0.1160 -0.5205  0.6232
 1396TIP3   OH2 4151   6.942   6.273   1.601 -0.0521  0.4366  0.8973
 1396TIP3    H1 4152   6.904   6.199   1.650 -0.8660  0.4417  0.3067
 1396TIP3    H2 4153   7.036   6.267   1.617 -0.0842 -0.8456  0.7107
 1397TIP3   OH2 4154   2.733   4.342   1.295  0.0820 -0.0727  0.1217
 1397TIP3    H1 4155   2.680   4.275   1.252 -0.2153  0.3238 -0.1444
 1397TIP3    H2 4156   2.671   4.394   1.346  0.4918 -0.8048  1.4113
 1398TIP3   OH2 4157   4.831   4.715   4.544 -0.6399  0.2311  0.2186
 1398TIP3    H1 4158   4.776   4.774   4.596  2.0052  1.1070  2.2365
 1398TIP3    H2 4159   4.776   4.638   4.528 -3.5610  2.3660 -0.8648
 1399TIP3   OH2 4160   4.298   5.938   4.051  0.4003 -0.7250 -1.0713
 1399TIP3    H1 4161   4.279   5.914   3.960 -0.9822 -0.8046 -0.7717
 1399TIP3    H2 4162   4.237   6.009   4.070  0.7430 -0.6504 -0.2171
 1400TIP3   OH2 4163   2.800   4.588   5.387 -0.0378  0.1820  0.0151
 1400TIP3    H1 4164   2.847   4.637   5.320  0.3633  2.9120  2.1244
 1400TIP3    H2 4165   2.866   4.571   5.455 -0.4041 -2.5736 -0.1819
 1401TIP3   OH2 4166   6.654   1.531   5.122  0.0261  0.1995  0.5240
 1401TIP3    H1 4167   6.746   1.507   5.107 -0.6619 -1.4750 -1.4103
 1401TIP3    H2 4168   6.604   1.458   5.086 -2.1385  2.2902 -1.0208
 1402TIP3   OH2 4169   0.411   0.290   0.965  0.5906 -0.4721 -0.2071
 1402TIP3    H1 4170   0.428   0.376   1.004  0.6988 -0.0510 -1.1429
 1402TIP3    H2 4171   0.404   0.231   1.039  3.0286 -0.1312  0.3825
 1403TIP3   OH2 4172   4.138   4.623   1.718  0.2669 -0.0830 -0.6043
 1403TIP3    H1 4173   4.054   4.632   1.672  0.3869  0.5542 -0.7053
 1403TIP3    H2 4174   4.115   4.623   1.811  0.2909  2.0287 -0.5438
 1404TIP3   OH2 4175   5.597   5.824   0.176 -0.2502 -0.2980 -0.3876
 1404TIP3    H1 4176   5.548   5.743   0.190  0.2560 -0.8052 -1.4338
 1404TIP3    H2 4177   5.562   5.859   0.094 -0.4323  0.5244  0.0329
 1405TIP3   OH2 4178   2.276   3.988   0.378  0.0046  0.4100  0.6677
 1405TIP3    H1 4179   2.255   3.921   0.313 -0.3943 -1.1681  2.3486
 1405TIP3    H2 4180   2.208   4.054   0.368  0.7400  0.9389 -1.4204
 1406TIP3   OH2 4181   5.238   5.974   4.525 -0.8391 -0.0470 -0.0367
 1406TIP3    H1 4182   5.334   5.972   4.529 -0.8379  0.9690  1.0841
 1406TIP3    H2 4183   5.213   6.046   4.583 -2.3134 -0.7195  0.2166
 1407TIP3   OH2 4184   0.736   1.355   2.855 -0.2082  0.1585 -0.1428
 1407TIP3    H1 4185   0.704   1.328   2.769  2.2423  1.6774 -1.6466
 1407TIP3    H2 4186   0.748   1.273   2.903 -0.4087 -0.8133 -1.6944
 1408TIP3   OH2 4187   3.089   5.173   4.096  0.5548  0.0849  0.0486
 1408TIP3    H1 4188   3.113   5.163   4.188  2.7277 -0.8122 -0.5515
 1408TIP3    H2 4189   3.150   5.116   4.049 -1.2222 -0.3493 -1.8830
 1409TIP3   OH2 4190   6.519   1.596   5.766 -0.1262  0.0785  0.1048
 1409TIP3    H1 4191   6.458   1.635   5.703  0.6291  0.1450 -0.5940
 1409TIP3    H2 4192   6.588   1.558   5.712 -0.1322 -1.0124  0.8336
 1410TIP3   OH2 4193   0.225   1.235   5.562 -0.6456 -0.6034  0.7422
 1410TIP3    H1 4194   0.211   1.165   5.627  0.0829 -0.6853  0.8318
 1410TIP3    H2 4195   0.246   1.312   5.615  0.4295 -0.7857  0.6120
 1411TIP3   OH2 4196   5.232   5.728   4.338  0.2324  0.2035 -0.0724
 1411TIP3    H1 4197   5.266   5.804   4.385  1.4958 -0.6160  0.4032
 1411TIP3    H2 4198   5.258   5.741   4.247  3.4620 -1.1591  0.5056
 1412TIP3   OH2 4199   0.263   3.099   2.773  0.4402 -0.5125 -0.1678
 1412TIP3    H1 4200   0.286   3.182   2.815 -2.5438 -0.0398  0.7304
 1412TIP3    H2 4201   0.184   3.119   2.722  0.5264 -2.4724 -1.1605
 1413TIP3   OH2 4202   1.274   6.077   0.626 -0.1838  0.1080  0.0622
 1413TIP3    H1 4203   1.199   6.106   0.574  0.0583  0.5019 -0.0771
 1413TIP3    H2 4204   1.338   6.149   0.617  0.9213 -0.9654 -1.2873
 1414TIP3   OH2 4205   6.289   5.045   4.901 -0.0608 -0.3235  0.1528
 1414TIP3    H1 4206   6.228   4.974   4.919  0.0799 -0.3722  0.4559
 1414TIP3    H2 4207   6.371   5.017   4.942 -0.1294  0.2168  0.6781
 1415TIP3   OH2 4208   4.287   2.631   4.896 -0.0863 -0.3383  0.5863
 1415TIP3    H1 4209   4.294   2.570   4.822 -0.7281  1.2874 -0.8901
 1415TIP3    H2 4210   4.197   2.622   4.926 -0.3336  0.1972  0.0392
 1416TIP3   OH2 4211   6.691   1.082   2.799 -0.1737 -0.2301  0.0918
 1416TIP3    H1 4212   6.612   1.044   2.837  0.0267  0.7604  1.5686
 1416TIP3    H2 4213   6.759   1.016   2.814 -0.0047  0.2943  1.9184
 1417TIP3   OH2 4214   6.471   4.217   4.281 -0.2964 -0.3402 -0.1017
 1417TIP3    H1 4215   6.494   4.249   4.194  0.0548 -0.2048  0.0411
 1417TIP3    H2 4216   6.548   4.168   4.311 -0.3676 -0.2804  0.1835
 1418TIP3   OH2 4217   0.897   3.187   1.549  0.4013 -0.3036 -0.0444
 1418TIP3    H1 4218   0.919   3.128   1.621 -0.2415 -0.6750 -0.1479
 1418TIP3    H2 4219   0.850   3.132   1.486 -0.7332  0.4519  0.1320
 1419TIP3   OH2 4220   1.037   4.271   5.222  0.3303  1.2737 -0.0200
 1419TIP3    H1 4221   1.033   4.327   5.299 -3.2884 -1.0700  1.7680
 1419TIP3    H2 4222   1.107   4.208   5.242 -0.6328  0.6266  1.4982
 1420TIP3   OH2 4223   0.854   2.073   5.226 -0.3534 -0.4325 -0.3334
 1420TIP3    H1 4224   0.932   2.069   5.169  0.6952  0.2230  1.0024
 1420TIP3    H2 4225   0.881   2.029   5.306 -1.6882 -1.0040 -0.1791
 1421TIP3   OH2 4226   6.191   6.174   0.580  0.2385  0.2668  0.4143
 1421TIP3    H1 4227   6.235   6.232   0.519 -0.3624  0.5502  0.2401
 1421TIP3    H2 4228   6.235   6.189   0.664  1.7005 -0.8178 -0.1208
 1422TIP3   OH2 4229   0.188   3.341   2.320 -0.4195 -0.4679 -0.0470
 1422TIP3    H1 4230   0.210   3.341   2.413  1.0008  0.0651 -0.3493
 1422TIP3    H2 4231   0.265   3.304   2.277  0.3625  2.2966 -1.2630
 1423TIP3   OH2 4232   1.758   1.107   0.911 -0.2939  0.4746 -0.6007
 1423TIP3    H1 4233   1.843   1.149   0.894 -0.4367  0.2612 -2.0242
 1423TIP3    H2 4234   1.698   1.180   0.925  0.0110  0.6497 -0.1979
 1424TIP3   OH2 4235   5.477   3.298   5.601 -0.7098  0.0930 -1.0022
 1424TIP3    H1 4236   5.549   3.236   5.592 -0.1327  0.2744  1.5397
 1424TIP3    H2 4237   5.504   3.373   5.549  1.1204  0.2667  0.0982
 1425TIP3   OH2 4238   6.583   1.860   2.660  0.1625 -0.1849 -0.4411
 1425TIP3    H1 4239   6.651   1.831   2.721  1.4004  1.2421 -1.0604
 1425TIP3    H2 4240   6.518   1.790   2.661  1.3882 -1.3705  0.5761
 1426TIP3   OH2 4241   6.037   2.796   1.302 -0.7264  0.0288  0.3976
 1426TIP3    H1 4242   6.070   2.716   1.260 -1.1284  0.5789 -0.9987
 1426TIP3    H2 4243   6.057   2.783   1.395  2.0544 -0.3429 -0.1510
 1427TIP3   OH2 4244   2.757   4.831   0.923 -0.2355 -0.3460  0.4092
 1427TIP3    H1 4245   2.767   4.802   0.833  0.3122  1.3642 -0.1095
 1427TIP3    H2 4246   2.678   4.886   0.923  0.9573  1.4316  0.4697
 1428TIP3   OH2 4247   4.893   3.664   2.733  0.6526  0.5358 -0.4797
 1428TIP3    H1 4248   4.802   3.692   2.739  0.6696  0.3924  0.6537
 1428TIP3    H2 4249   4.923   3.662   2.824  2.0719  1.4915 -0.9035
 1429TIP3   OH2 4250   6.279   5.446   0.382  0.3339  0.2757 -0.7800
 1429TIP3    H1 4251   6.246   5.420   0.468 -0.5730  2.3425 -0.4622
 1429TIP3    H2 4252   6.236   5.387   0.320 -0.5138  0.0563  0.0112
 1430TIP3   OH2 4253   3.242   3.257   5.103 -0.2484  0.5496 -0.3845
 1430TIP3    H1 4254   3.163   3.239   5.153  0.2436  0.9409  0.5572
 1430TIP3    H2 4255   3.302   3.298   5.166  0.9238 -0.2735 -0.9198
 1431TIP3   OH2 4256   0.156   0.380   4.088 -0.6695 -0.4827 -0.3554
 1431TIP3    H1 4257   0.087   0.416   4.033 -0.2003 -0.3517 -0.8634
 1431TIP3    H2 4258   0.143   0.421   4.174 -1.9325 -1.3452 -0.1140
 1432TIP3   OH2 4259   0.027   0.307   1.997  0.2934 -0.2369 -0.5335
 1432TIP3    H1 4260   0.036   0.217   2.030  0.1803 -0.5620 -1.3546
 1432TIP3    H2 4261  -0.060   0.309   1.956  0.4239  0.1524 -0.8005
 1433TIP3   OH2 4262   0.346   4.554   2.230  0.1893 -0.0461  0.6448
 1433TIP3    H1 4263   0.406   4.583   2.299  0.7978  1.0679 -0.3038
 1433TIP3    H2 4264   0.326   4.634   2.181 -0.3231 -0.7880 -0.3900
 1434TIP3   OH2 4265   0.358   4.708   5.804  0.3449  0.2800 -0.3893
 1434TIP3    H1 4266   0.307   4.688   5.883  1.1863 -1.5849 -0.2430
 1434TIP3    H2 4267   0.298   4.757   5.748 -0.6428  0.6561  0.9325
 1435TIP3   OH2 4268   4.916   3.103   3.467 -0.6355  0.1598 -0.4345
 1435TIP3    H1 4269   4.932   3.155   3.389 -1.2796 -0.9509 -1.3322
 1435TIP3    H2 4270   4.826   3.074   3.458 -0.0682 -1.7259 -0.3407
 1436TIP3   OH2 4271   4.265   4.935   4.346 -0.2006  0.1963  0.3370
 1436TIP3    H1 4272   4.312   4.994   4.285  0.2246  0.4353  0.8867
 1436TIP3    H2 4273   4.181   4.978   4.359 -0.4135 -0.0069 -0.3123
 1437TIP3   OH2 4274   4.627   1.214   1.436 -0.6643  0.2554 -0.0238
 1437TIP3    H1 4275   4.598   1.163   1.360  1.3730 -0.2904 -0.5090
 1437TIP3    H2 4276   4.682   1.283   1.398 -0.7124  0.8003  0.8760
 1438TIP3   OH2 4277   6.876   2.389   4.843 -0.3821  0.0343 -0.0499
 1438TIP3    H1 4278   6.833   2.454   4.787 -1.4477  0.0698  0.7759
 1438TIP3    H2 4279   6.957   2.431   4.871 -1.5234  1.4685  1.2972
 1439TIP3   OH2 4280   1.061   1.399   5.484  0.6222  0.0607  0.2414
 1439TIP3    H1 4281   1.099   1.352   5.410 -0.4188 -1.1971  0.4703
 1439TIP3    H2 4282   1.112   1.370   5.560  2.4251  2.1831 -0.0376
 1440TIP3   OH2 4283   1.649   4.145   1.972 -0.3425  0.3983 -0.4264
 1440TIP3    H1 4284   1.611   4.057   1.974  1.6235 -0.4786  1.6979
 1440TIP3    H2 4285   1.585   4.199   2.019 -2.1049  0.4359 -2.6969
 1441TIP3   OH2 4286   6.965   5.170   3.191 -0.0579  0.4329 -0.1804
 1441TIP3    H1 4287   6.994   5.170   3.100  1.0026  0.1336  0.1357
 1441TIP3    H2 4288   6.989   5.083   3.224  0.5030  0.8900  0.6555
 1442TIP3   OH2 4289   4.797   2.170   4.688  0.4109 -0.1057 -0.0614
 1442TIP3    H1 4290   4.808   2.225   4.765 -0.7681 -0.9072  0.7203
 1442TIP3    H2 4291   4.820   2.226   4.614  1.5051  0.6952  0.8536
 1443TIP3   OH2 4292   6.436   2.813   1.134  0.2169  0.1052 -0.5292
 1443TIP3    H1 4293   6.495   2.764   1.191 -1.3467 -2.2635 -0.8277
 1443TIP3    H2 4294   6.382   2.865   1.195  1.0702  0.5632 -0.1357
 1444TIP3   OH2 4295   4.794   0.377   3.832  0.1483  0.1062 -0.4286
 1444TIP3    H1 4296   4.756   0.335   3.755 -1.1520  1.9654 -0.8540
 1444TIP3    H2 4297   4.888   0.377   3.816  0.0295 -1.0346 -1.2151
 1445TIP3   OH2 4298   1.414   3.211   0.148  0.0620  0.0616  0.1292
 1445TIP3    H1 4299   1.424   3.285   0.206 -1.1995  0.4279 -0.0837
 1445TIP3    H2 4300   1.456   3.138   0.193  0.2806  0.6456  0.8708
 1446TIP3   OH2 4301   3.798   6.400   4.688 -0.0929 -0.5052  0.6726
 1446TIP3    H1 4302   3.737   6.446   4.630 -0.7713  0.6412  2.2289
 1446TIP3    H2 4303   3.749   6.390   4.770  0.9500 -1.8114  1.1564
 1447TIP3   OH2 4304   6.734   2.250   0.148 -0.0333  0.2945 -0.3612
 1447TIP3    H1 4305   6.658   2.298   0.113  0.8152  1.5856 -0.5031
 1447TIP3    H2 4306   6.753   2.293   0.231 -0.0207 -0.6366  0.1244
 1448TIP3   OH2 4307   2.630   4.225   2.074 -0.3684  0.4581 -0.4361
 1448TIP3    H1 4308   2.725   4.230   2.062 -0.0579 -0.7102  1.2242
 1448TIP3    H2 4309   2.604   4.316   2.091  0.9759  0.4321  2.3283
 1449TIP3   OH2 4310   6.861   6.728   0.785  0.3014  0.4358  0.1310
 1449TIP3    H1 4311   6.917   6.804   0.801  1.4266 -0.2925 -0.2036
 1449TIP3    H2 4312   6.900   6.658   0.837  0.3545 -0.3571 -0.9349
 1450TIP3   OH2 4313   6.619   3.809   3.488 -0.1279  0.5733  0.3507
 1450TIP3    H1 4314   6.694   3.845   3.534 -1.1702  2.7569  0.4570
 1450TIP3    H2 4315   6.650   3.795   3.398  0.5652  0.8458  0.5449
 1451TIP3   OH2 4316   0.749   1.235   0.005 -0.3815  0.1556 -0.0414
 1451TIP3    H1 4317   0.841   1.259   0.003 -0.6074  1.0486  0.0189
 1451TIP3    H2 4318   0.719   1.260   0.092 -0.3026 -1.6745  0.5722
 1452TIP3   OH2 4319   6.996   5.984   5.549 -0.4412  0.0395  0.1941
 1452TIP3    H1 4320   7.023   5.978   5.457 -0.3028  1.6234  0.1028
 1452TIP3    H2 4321   7.077   5.974   5.598 -0.1975  1.2044  0.0529
 1453TIP3   OH2 4322   5.226   4.635   5.145 -0.1959 -0.4831 -1.2051
 1453TIP3    H1 4323   5.244   4.677   5.060 -0.8380  0.7681 -0.7408
 1453TIP3    H2 4324   5.312   4.606   5.175  0.0380 -1.0087 -2.3045
 1454TIP3   OH2 4325   0.886   3.786   4.045 -0.1124  0.2936  0.2404
 1454TIP3    H1 4326   0.926   3.746   3.968 -0.1740  0.1633  0.2751
 1454TIP3    H2 4327   0.829   3.718   4.080  0.2933  0.1735  0.6829
 1455TIP3   OH2 4328   6.045   6.450   2.677  0.0982  0.4558 -0.2377
 1455TIP3    H1 4329   6.111   6.446   2.608 -0.2948  0.0781 -0.5986
 1455TIP3    H2 4330   6.048   6.541   2.707  2.2770 -0.0491  1.2622
 1456TIP3   OH2 4331   5.054   1.634   2.706  0.1252  0.1176 -0.1838
 1456TIP3    H1 4332   5.110   1.706   2.736  0.9915 -0.6093  0.0085
 1456TIP3    H2 4333   5.048   1.646   2.611 -1.4592  1.6182  0.0648
 1457TIP3   OH2 4334   0.133   3.066   5.160 -0.1555 -0.1241 -0.2619
 1457TIP3    H1 4335   0.061   3.058   5.098 -0.3678  2.3980 -0.4334
 1457TIP3    H2 4336   0.119   3.151   5.203  2.8514  0.6172 -0.5324
 1458TIP3   OH2 4337   0.659   1.572   5.365  0.9733 -0.2110 -0.4772
 1458TIP3    H1 4338   0.711   1.576   5.284  2.3070 -0.6190  0.3131
 1458TIP3    H2 4339   0.690   1.646   5.417  0.4623 -0.2232 -0.1509
 1459TIP3   OH2 4340   2.736   5.453   0.285 -0.3025 -0.5257  0.6639
 1459TIP3    H1 4341   2.829   5.478   0.282 -0.8011  1.4870  0.9224
 1459TIP3    H2 4342   2.720   5.412   0.201  0.4630  0.5293 -0.0201
 1460TIP3   OH2 4343   1.532   2.782   0.936  0.3210 -0.5679 -0.2984
 1460TIP3    H1 4344   1.605   2.804   0.878  0.0816  1.0762 -0.0335
 1460TIP3    H2 4345   1.478   2.722   0.885  0.0613  0.9226 -1.8516
 1461TIP3   OH2 4346   1.244   6.674   4.557 -0.0437 -0.1308  0.4274
 1461TIP3    H1 4347   1.201   6.689   4.473 -1.2743  1.8001  1.3386
 1461TIP3    H2 4348   1.270   6.761   4.587  2.2579 -0.9774  1.1168
 1462TIP3   OH2 4349   2.232   0.274   5.101 -0.5594  0.0902  0.3447
 1462TIP3    H1 4350   2.278   0.333   5.161  0.9878  1.1679 -1.7794
 1462TIP3    H2 4351   2.201   0.330   5.030 -0.2116 -1.4266 -1.0825
 1463TIP3   OH2 4352   3.973   5.342   5.793  0.0494  0.5347 -0.9339
 1463TIP3    H1 4353   4.028   5.374   5.722  0.8147 -0.1229 -0.6657
 1463TIP3    H2 4354   3.899   5.299   5.750 -0.1037  1.1697 -1.3075
 1464TIP3   OH2 4355   2.490   4.512   5.054  0.0567  0.1141 -0.5562
 1464TIP3    H1 4356   2.559   4.473   5.000  0.6727 -0.0588  0.3482
 1464TIP3    H2 4357   2.426   4.544   4.990 -1.0650 -3.3422 -1.3796
 1465TIP3   OH2 4358   2.510   3.016   5.764 -0.2016 -0.0965  0.3131
 1465TIP3    H1 4359   2.491   3.110   5.762 -1.5734 -0.3715 -0.1328
 1465TIP3    H2 4360   2.425   2.974   5.775  0.0932 -1.3994 -1.9180
 1466TIP3   OH2 4361   2.093   4.594   1.739 -0.3725  0.3796 -0.0151
 1466TIP3    H1 4362   2.117   4.504   1.718 -1.2180 -0.0426  0.7678
 1466TIP3    H2 4363   1.999   4.600   1.719 -0.4679  0.8899  0.5315
 1467TIP3   OH2 4364   3.649   1.695   3.930 -0.2770  0.3874  0.1969
 1467TIP3    H1 4365   3.683   1.611   3.898 -0.8692  0.6688 -1.2724
 1467TIP3    H2 4366   3.633   1.681   4.023 -1.0505 -1.3634 -0.1695
 1468TIP3   OH2 4367   2.217   3.120   0.366  0.0706 -0.3684 -0.3025
 1468TIP3    H1 4368   2.148   3.055   0.379  0.0122 -0.5323 -1.3246
 1468TIP3    H2 4369   2.265   3.122   0.449 -1.9146  0.6804  0.8872
 1469TIP3   OH2 4370   3.654   5.886   3.576 -0.1810 -0.2469 -0.4596
 1469TIP3    H1 4371   3.720   5.901   3.509  0.9923 -1.6213  0.3135
 1469TIP3    H2 4372   3.675   5.949   3.645  1.2448 -1.5614  0.3756
 1470TIP3   OH2 4373   2.952   5.198   0.378 -0.2568 -0.2791 -0.2556
 1470TIP3    H1 4374   2.971   5.289   0.357  0.9462 -0.4671 -0.0192
 1470TIP3    H2 4375   2.865   5.201   0.419 -0.8400  0.5721 -1.5001
 1471TIP3   OH2 4376   6.656   6.383   2.285  0.6415 -1.0464 -0.4935
 1471TIP3    H1 4377   6.718   6.317   2.252  1.5360 -0.4356 -0.0670
 1471TIP3    H2 4378   6.709   6.462   2.296 -0.5053 -0.1338 -1.3632
 1472TIP3   OH2 4379   5.212   4.306   1.034  0.1530 -0.0518 -0.2827
 1472TIP3    H1 4380   5.219   4.334   1.126  1.6090 -0.3611 -0.2847
 1472TIP3    H2 4381   5.138   4.245   1.034  0.0360  0.0646  0.6501
 1473TIP3   OH2 4382   4.191   3.131   3.129  0.6870 -0.4374  0.0208
 1473TIP3    H1 4383   4.107   3.088   3.112  0.2795  0.6352 -0.7926
 1473TIP3    H2 4384   4.225   3.152   3.041 -1.1269  4.6694  0.2378
 1474TIP3   OH2 4385   1.873   3.437   1.749 -0.3254 -0.2699  0.1165
 1474TIP3    H1 4386   1.903   3.364   1.696  3.2013 -1.1184  2.9208
 1474TIP3    H2 4387   1.939   3.505   1.735 -1.5599  1.0285  0.3706
 1475TIP3   OH2 4388   0.528   0.417   4.425 -0.1211  0.3188 -0.2931
 1475TIP3    H1 4389   0.571   0.416   4.339  0.0827 -0.6125 -0.1861
 1475TIP3    H2 4390   0.499   0.508   4.436  2.8867  1.3396  0.1698
 1476TIP3   OH2 4391   5.321   5.522   2.615 -0.6125 -0.3508  0.4160
 1476TIP3    H1 4392   5.404   5.475   2.614 -0.3207  0.1387  1.0325
 1476TIP3    H2 4393   5.317   5.561   2.702 -1.5970 -0.5596  0.4771
 1477TIP3   OH2 4394   2.056   5.189   5.216  0.0750  0.4609 -0.4053
 1477TIP3    H1 4395   2.113   5.124   5.257 -1.7698 -1.8587 -1.2342
 1477TIP3    H2 4396   2.082   5.189   5.124  0.8581  1.8738 -0.2133
 1478TIP3   OH2 4397   0.907   3.969   3.345  0.4630 -0.3110 -0.4778
 1478TIP3    H1 4398   0.964   4.045   3.359 -0.6375  1.0257 -2.6294
 1478TIP3    H2 4399   0.819   4.005   3.348 -0.0564 -1.3240 -2.2886
 1479TIP3   OH2 4400   3.288   2.521   0.600 -1.2258 -0.4777  0.2472
 1479TIP3    H1 4401   3.313   2.612   0.615 -0.3308 -0.9067  1.5981
 1479TIP3    H2 4402   3.230   2.524   0.524 -0.4064  1.0897 -0.3643
 1480TIP3   OH2 4403   2.235   4.749   3.932 -0.8305  0.6103 -0.0039
 1480TIP3    H1 4404   2.167   4.682   3.938 -0.7485  0.6206  1.8209
 1480TIP3    H2 4405   2.257   4.768   4.024  1.8339  0.3996 -0.5254
 1481TIP3   OH2 4406   2.442   4.883   0.442 -0.2278 -0.7697  0.1860
 1481TIP3    H1 4407   2.461   4.938   0.518 -1.2260 -1.4870  0.9908
 1481TIP3    H2 4408   2.502   4.913   0.375 -0.6138  1.1872  0.6498
 1482TIP3   OH2 4409   2.452   4.996   3.615  0.2674  0.4131  0.0929
 1482TIP3    H1 4410   2.440   5.035   3.702 -3.1810  0.1482 -0.1259
 1482TIP3    H2 4411   2.391   4.922   3.614  2.4989 -1.5493 -1.5199
 1483TIP3   OH2 4412   3.804   5.213   1.506  0.1984 -0.5469  0.2949
 1483TIP3    H1 4413   3.778   5.274   1.576  0.8588 -0.5272  0.5260
 1483TIP3    H2 4414   3.796   5.127   1.546 -2.0782 -0.7594 -0.4373
 1484TIP3   OH2 4415   5.036   5.808   2.318 -0.0201 -0.4279 -0.1432
 1484TIP3    H1 4416   5.016   5.739   2.254 -0.7334  0.4324 -0.8707
 1484TIP3    H2 4417   5.127   5.791   2.343  0.4306 -0.5230 -1.7433
 1485TIP3   OH2 4418   0.835   0.047   1.310 -0.1963 -0.4025 -0.3568
 1485TIP3    H1 4419   0.835   0.021   1.218  1.0824 -1.0023 -0.2033
 1485TIP3    H2 4420   0.753   0.011   1.346  0.2337 -1.8537 -0.7990
 1486TIP3   OH2 4421   1.294   0.171   1.491  0.3619  0.0787 -0.5139
 1486TIP3    H1 4422   1.203   0.146   1.475  0.3714 -0.2150 -0.1338
 1486TIP3    H2 4423   1.333   0.095   1.534  0.8472  0.1214 -0.8688
 1487TIP3   OH2 4424   3.445   1.851   4.921 -0.6956  0.7230  0.0909
 1487TIP3    H1 4425   3.354   1.879   4.913 -0.4279  1.2812 -1.1787
 1487TIP3    H2 4426   3.493   1.906   4.859  0.3900 -0.0822  0.1879
 1488TIP3   OH2 4427   4.262   4.740   0.498  0.0678  0.1652 -0.1641
 1488TIP3    H1 4428   4.355   4.737   0.477  0.0938 -2.7927 -0.0231
 1488TIP3    H2 4429   4.259   4.746   0.594  0.0633  1.1806 -0.2140
 1489TIP3   OH2 4430   5.848   6.574   2.465 -0.2734  0.0134  0.0697
 1489TIP3    H1 4431   5.910   6.522   2.516 -2.1870 -1.7835  0.7415
 1489TIP3    H2 4432   5.800   6.624   2.531 -1.1862 -0.5376 -0.1573
 1490TIP3   OH2 4433   1.995   2.304   1.624 -0.0550  0.3274 -0.2267
 1490TIP3    H1 4434   2.047   2.335   1.550 -1.8584 -0.3389 -1.8503
 1490TIP3    H2 4435   1.944   2.231   1.588 -2.2079  1.0393  1.2305
 1491TIP3   OH2 4436   5.110   1.990   5.096  0.1091  0.2626  0.1985
 1491TIP3    H1 4437   5.070   2.020   5.177 -1.2283 -0.3296 -0.2194
 1491TIP3    H2 4438   5.064   2.038   5.027  0.4503 -0.0788 -0.2757
 1492TIP3   OH2 4439   6.369   5.943   0.916  0.2860 -0.0703 -0.7242
 1492TIP3    H1 4440   6.440   5.905   0.864  0.2048  3.5311 -3.9020
 1492TIP3    H2 4441   6.292   5.934   0.860 -1.3276 -1.5990  1.5829
 1493TIP3   OH2 4442   3.824   6.221   0.770 -0.3891  0.3591 -0.5687
 1493TIP3    H1 4443   3.876   6.179   0.701  0.8458  1.2991 -0.2238
 1493TIP3    H2 4444   3.828   6.314   0.751 -0.0847  0.6328  0.7362
 1494TIP3   OH2 4445   3.834   0.028   1.869 -0.4457  0.6370  0.6510
 1494TIP3    H1 4446   3.776  -0.030   1.917  0.2229 -1.7494 -1.2002
 1494TIP3    H2 4447   3.796   0.034   1.781  1.2476  0.2341 -0.1643
 1495TIP3   OH2 4448   3.888   4.892   4.170  1.0493  0.4871 -0.1266
 1495TIP3    H1 4449   3.905   4.881   4.264  0.1851  0.0307 -0.0153
 1495TIP3    H2 4450   3.974   4.885   4.129  1.5769  1.6641  0.7133
 1496TIP3   OH2 4451   2.392   0.895   5.207  0.0157  0.0008  0.0083
 1496TIP3    H1 4452   2.421   0.845   5.283 -2.4443 -0.5751  0.6855
 1496TIP3    H2 4453   2.466   0.895   5.147  0.8876 -2.4676  0.9808
 1497TIP3   OH2 4454   6.659   3.854   3.870  0.3460  0.3392 -0.0395
 1497TIP3    H1 4455   6.641   3.925   3.809 -1.1611  0.1724  0.1563
 1497TIP3    H2 4456   6.676   3.898   3.954 -0.5169  0.4960  0.0662
 1498TIP3   OH2 4457   3.040   4.371   1.510  0.1604  0.0155  0.4656
 1498TIP3    H1 4458   2.954   4.410   1.498  0.8329  0.9361 -2.3722
 1498TIP3    H2 4459   3.101   4.440   1.482  1.7632 -0.9802  1.3526
 1499TIP3   OH2 4460   3.653   2.996   3.632 -0.2701 -0.2044 -0.0587
 1499TIP3    H1 4461   3.633   3.090   3.631 -0.9278 -0.3241 -2.1025
 1499TIP3    H2 4462   3.607   2.963   3.710 -2.1603  0.7826 -0.6786
 1500TIP3   OH2 4463   2.430   3.403   4.855 -0.0864 -0.0676 -0.7457
 1500TIP3    H1 4464   2.500   3.454   4.894 -0.6277  0.2201 -0.1418
 1500TIP3    H2 4465   2.442   3.414   4.761  0.3003  0.4840 -0.6334
 1501TIP3   OH2 4466   2.000   2.893   2.036 -0.0178 -0.1899  0.0842
 1501TIP3    H1 4467   1.916   2.897   2.081 -0.1346 -0.8449 -0.0707
 1501TIP3    H2 4468   2.058   2.950   2.087 -0.4760  0.0458  0.3466
 1502TIP3   OH2 4469   7.155   1.819   2.420 -0.0074 -0.3056 -0.3790
 1502TIP3    H1 4470   7.232   1.874   2.407  0.3902 -0.6207  0.6347
 1502TIP3    H2 4471   7.083   1.871   2.384  0.1345  1.5135  1.7406
 1503TIP3   OH2 4472   5.229   2.924   1.210  0.1665  0.0242 -0.0986
 1503TIP3    H1 4473   5.175   2.929   1.131  1.9647  0.7241 -1.3397
 1503TIP3    H2 4474   5.311   2.884   1.180  0.6854 -0.1810  1.5321
 1504TIP3   OH2 4475   6.837   1.205   2.530  0.0064  0.2887 -0.3487
 1504TIP3    H1 4476   6.920   1.159   2.515 -0.3282 -0.1184 -0.9671
 1504TIP3    H2 4477   6.802   1.166   2.610  0.2051  0.1653 -0.3205
 1505TIP3   OH2 4478   5.162   0.645   4.569  0.0631  0.0068 -0.3931
 1505TIP3    H1 4479   5.129   0.706   4.635 -0.2734  0.0669 -0.6136
 1505TIP3    H2 4480   5.239   0.688   4.534  0.5911 -0.2903  0.3709
 1506TIP3   OH2 4481   1.166   2.612   1.305  0.0339  0.1891 -0.1422
 1506TIP3    H1 4482   1.149   2.587   1.215  0.2660  2.8559 -1.0238
 1506TIP3    H2 4483   1.260   2.626   1.309 -0.2665  2.9209 -0.4182
 1507TIP3   OH2 4484   4.340   5.163   1.587  0.6011  0.2434 -0.5517
 1507TIP3    H1 4485   4.308   5.082   1.546 -0.6286  0.9079 -0.9788
 1507TIP3    H2 4486   4.315   5.232   1.526 -0.8515  1.2233  1.0434
 1508TIP3   OH2 4487   2.173   5.126   3.622  0.2154 -0.3292  0.2595
 1508TIP3    H1 4488   2.137   5.052   3.671 -1.5364  0.2393 -0.0931
 1508TIP3    H2 4489   2.138   5.203   3.668  0.9980  0.2567 -0.1180
 1509TIP3   OH2 4490   5.822   6.504   3.036 -0.4218 -0.0955 -0.0406
 1509TIP3    H1 4491   5.857   6.441   3.099  1.6596 -0.9754 -1.9479
 1509TIP3    H2 4492   5.809   6.453   2.956 -1.5578  1.2999 -0.7971
 1510TIP3   OH2 4493   3.450   0.356   0.766 -0.1618  0.3196 -0.3746
 1510TIP3    H1 4494   3.378   0.305   0.804 -0.0099  0.8885  0.7261
 1510TIP3    H2 4495   3.428   0.363   0.673 -1.9154  1.0619  0.0504
 1511TIP3   OH2 4496   5.397   4.283   3.085  0.0315 -0.6045 -0.0899
 1511TIP3    H1 4497   5.396   4.189   3.065  1.1111 -1.1601  2.1073
 1511TIP3    H2 4498   5.484   4.313   3.057  0.7674 -0.9340  1.7339
 1512TIP3   OH2 4499   2.359   4.745   4.427 -0.3043  0.1256 -0.1154
 1512TIP3    H1 4500   2.413   4.677   4.467  0.0691  0.4522 -0.0613
 1512TIP3    H2 4501   2.309   4.782   4.501  0.6478  0.9715  0.1256
 1513TIP3   OH2 4502   0.276   3.753   3.281  0.2481  0.4877  0.6800
 1513TIP3    H1 4503   0.260   3.744   3.187  0.5812 -0.8634  0.7308
 1513TIP3    H2 4504   0.194   3.785   3.317 -0.5359 -0.9406  0.2013
 1514TIP3   OH2 4505   1.022   2.012   0.195  0.3930  0.0579 -0.6369
 1514TIP3    H1 4506   1.050   2.101   0.217  0.8765  0.1698 -1.6619
 1514TIP3    H2 4507   1.099   1.971   0.157 -0.3460 -0.1872 -1.9171
 1515TIP3   OH2 4508   3.462   3.847   3.076 -0.9158  0.0138  0.4207
 1515TIP3    H1 4509   3.429   3.933   3.103  0.4391  1.1416 -1.2727
 1515TIP3    H2 4510   3.389   3.787   3.090 -2.1164  1.5674  1.0424
 1516TIP3   OH2 4511   0.242   5.724   3.088 -0.2946  0.2555  0.4956
 1516TIP3    H1 4512   0.183   5.736   3.013 -0.9888  0.7129  1.1003
 1516TIP3    H2 4513   0.193   5.760   3.162  0.1308 -0.7548  1.2813
 1517TIP3   OH2 4514   5.147   4.207   0.554 -0.0458  0.1212 -0.1642
 1517TIP3    H1 4515   5.238   4.233   0.563  0.1382 -0.3996 -0.4708
 1517TIP3    H2 4516   5.133   4.144   0.625  0.5854 -1.7745 -1.6172
 1518TIP3   OH2 4517   4.937   0.148   4.016 -0.0159 -0.6616  0.0791
 1518TIP3    H1 4518   5.005   0.115   3.958  0.8212  1.9372 -0.5427
 1518TIP3    H2 4519   4.884   0.206   3.961 -1.9509 -1.5970  0.8770
 1519TIP3   OH2 4520   0.351   2.990   5.365 -0.1089  0.4870 -0.0008
 1519TIP3    H1 4521   0.372   2.936   5.442 -0.6229 -0.5630 -0.5837
 1519TIP3    H2 4522   0.394   3.074   5.384 -0.7363  0.4709  1.7111
 1520TIP3   OH2 4523   3.297   1.859   1.901 -0.0486  0.5081  0.6018
 1520TIP3    H1 4524   3.276   1.895   1.815  0.7508 -2.0502 -0.7582
 1520TIP3    H2 4525   3.289   1.933   1.960  1.4900  2.8928 -1.9544
 1521TIP3   OH2 4526   4.529   5.975   1.340 -0.1824  0.0606  0.7900
 1521TIP3    H1 4527   4.527   6.022   1.256 -1.1824  0.0052  0.7720
 1521TIP3    H2 4528   4.551   6.043   1.404 -0.1433  0.2505  0.5783
 1522TIP3   OH2 4529   0.057   3.554   0.192  0.0170 -0.1851  0.2020
 1522TIP3    H1 4530  -0.011   3.606   0.149  0.8462  1.2763  0.5763
 1522TIP3    H2 4531   0.136   3.569   0.140  0.7454  0.6205  1.4918
 1523TIP3   OH2 4532   0.475   4.130   5.105 -0.2436  0.7106  0.1379
 1523TIP3    H1 4533   0.412   4.058   5.106  0.6750 -0.1387  1.9093
 1523TIP3    H2 4534   0.435   4.198   5.160 -0.0095  0.5092  0.5657
 1524TIP3   OH2 4535   4.346   0.506   4.779  0.2473 -0.2675  0.2201
 1524TIP3    H1 4536   4.398   0.449   4.835 -0.5532  0.0930  1.3711
 1524TIP3    H2 4537   4.301   0.565   4.840  0.0837  0.7641 -0.8652
 1525TIP3   OH2 4538   5.605   1.239   4.160 -0.6380  0.1130  0.1004
 1525TIP3    H1 4539   5.672   1.288   4.209  0.0064 -0.0961 -0.5412
 1525TIP3    H2 4540   5.596   1.156   4.207  1.1595 -0.7644 -0.9886
 1526TIP3   OH2 4541   5.728   0.336   3.101  0.1342  0.2201  0.1057
 1526TIP3    H1 4542   5.822   0.353   3.110  0.2740 -1.5536  2.9141
 1526TIP3    H2 4543   5.686   0.412   3.142  0.3398  0.5190 -0.2281
 1527TIP3   OH2 4544   6.201   0.089   5.218 -0.3982 -0.2776  1.0025
 1527TIP3    H1 4545   6.270   0.022   5.212  0.8502  1.0564 -0.4922
 1527TIP3    H2 4546   6.132   0.058   5.160  0.6140  0.1798 -0.4899
 1528TIP3   OH2 4547   7.154   2.439   0.558 -0.5830  0.6814 -0.4625
 1528TIP3    H1 4548   7.189   2.480   0.478 -0.7850  0.7191 -0.5338
 1528TIP3    H2 4549   7.118   2.355   0.528  1.0099 -0.1612 -0.0953
 1529TIP3   OH2 4550   3.863   5.296   4.275  0.4222 -0.6500  0.2745
 1529TIP3    H1 4551   3.774   5.275   4.304 -0.5499  0.3625 -1.7203
 1529TIP3    H2 4552   3.883   5.380   4.318 -0.9535  0.7781 -1.6859
 1530TIP3   OH2 4553   0.748   1.958   0.593  0.0385  0.2196  0.7038
 1530TIP3    H1 4554   0.834   1.996   0.612 -0.2058  1.5018 -0.5521
 1530TIP3    H2 4555   0.763   1.903   0.516 -0.3168  0.7530  0.2427
 1531TIP3   OH2 4556   5.167   4.625   0.593 -0.1595  0.0963  0.1039
 1531TIP3    H1 4557   5.212   4.693   0.643 -0.4476  0.9169 -0.7297
 1531TIP3    H2 4558   5.224   4.548   0.600 -0.3739  0.0681  1.9829
 1532TIP3   OH2 4559   3.343   0.179   4.651  0.2375 -0.0971  0.6208
 1532TIP3    H1 4560   3.430   0.149   4.626  0.5954 -2.1666  3.7667
 1532TIP3    H2 4561   3.359   0.253   4.710 -0.1926  0.0248  0.5935
 1533TIP3   OH2 4562   3.791   5.479   1.156  0.1808 -0.5283  0.3315
 1533TIP3    H1 4563   3.834   5.480   1.242 -0.9594 -0.0240  0.9211
 1533TIP3    H2 4564   3.731   5.554   1.159 -0.3383 -0.8902 -0.6579
 1534TIP3   OH2 4565   4.910   5.979   2.951 -0.1063  0.1547 -0.6373
 1534TIP3    H1 4566   4.828   5.947   2.987 -0.1553 -1.5841 -2.1580
 1534TIP3    H2 4567   4.976   5.958   3.017 -0.8893  2.1337  0.8859
 1535TIP3   OH2 4568   0.136   5.828   1.009  0.4128  0.7610 -0.0250
 1535TIP3    H1 4569   0.185   5.797   1.085 -0.2383  0.2974  0.2129
 1535TIP3    H2 4570   0.138   5.924   1.015 -0.3891  0.7186  1.0627
 1536TIP3   OH2 4571   5.935   4.623   1.313  0.2627  0.2725  0.2624
 1536TIP3    H1 4572   5.936   4.707   1.268  0.6025  0.6614  0.9823
 1536TIP3    H2 4573   5.893   4.563   1.251  1.2404  0.6616 -0.8137
 1537TIP3   OH2 4574   2.939   3.156   0.508 -0.5007  0.4362  0.3267
 1537TIP3    H1 4575   3.019   3.181   0.461 -0.3512  0.1892  0.4513
 1537TIP3    H2 4576   2.928   3.226   0.573 -0.9298  0.9937 -0.3351
 1538TIP3   OH2 4577   6.107   2.526   0.687 -0.2006 -0.0572 -0.4645
 1538TIP3    H1 4578   6.058   2.586   0.744 -0.1842 -1.4055  1.0251
 1538TIP3    H2 4579   6.168   2.583   0.640  0.0180  1.0896  1.1022
 1539TIP3   OH2 4580   0.091   4.544   2.631  0.5580 -0.1570  0.2051
 1539TIP3    H1 4581   0.138   4.526   2.712 -1.1563  0.0090  1.2824
 1539TIP3    H2 4582   0.025   4.609   2.655 -0.5182 -0.7078 -1.1339
 1540TIP3   OH2 4583   5.771   3.655   1.194  0.1358 -0.3388 -0.0575
 1540TIP3    H1 4584   5.809   3.603   1.124  0.0472  0.6578 -0.8715
 1540TIP3    H2 4585   5.732   3.591   1.253  0.6909 -1.2251 -0.6298
 1541TIP3   OH2 4586   1.873   1.625   2.190  0.4910  0.0814  0.4019
 1541TIP3    H1 4587   1.897   1.655   2.102 -1.1419  1.1234  0.2781
 1541TIP3    H2 4588   1.947   1.651   2.245  1.2209  0.0440 -0.5271
 1542TIP3   OH2 4589   0.145   2.807   1.305  0.0444 -0.2050 -0.1947
 1542TIP3    H1 4590   0.060   2.768   1.328 -0.1687  0.1408 -0.3838
 1542TIP3    H2 4591   0.159   2.781   1.214  0.6268 -1.1117  0.1435
 1543TIP3   OH2 4592   0.878   0.765   1.612 -0.0939  0.4969 -0.2328
 1543TIP3    H1 4593   0.901   0.698   1.548  2.0363  1.3697 -0.4699
 1543TIP3    H2 4594   0.858   0.843   1.559 -1.5526  0.3804  0.0821
 1544TIP3   OH2 4595   0.787   0.668   3.983 -0.3022 -0.1782 -0.1326
 1544TIP3    H1 4596   0.728   0.742   3.974  0.1640  0.1333 -0.6750
 1544TIP3    H2 4597   0.789   0.627   3.897  0.2299 -0.2155 -0.1105
 1545TIP3   OH2 4598   2.343   5.239   4.037  0.2880 -0.0599 -0.1046
 1545TIP3    H1 4599   2.363   5.292   4.115 -0.7627  1.7000 -0.9750
 1545TIP3    H2 4600   2.407   5.167   4.040 -1.8174 -2.1967  4.3004
 1546TIP3   OH2 4601   0.226   1.836   2.011  0.3787 -0.5765 -0.0152
 1546TIP3    H1 4602   0.225   1.810   1.919 -0.6069  0.6941 -0.3978
 1546TIP3    H2 4603   0.214   1.931   2.009  0.1698 -0.5494  1.4331
 1547TIP3   OH2 4604   2.889   2.913   2.160  0.5888 -0.2060 -0.5866
 1547TIP3    H1 4605   2.843   2.933   2.079 -1.2230  0.5140  0.5549
 1547TIP3    H2 4606   2.931   2.828   2.144  0.0655 -0.1888 -2.1767
 1548TIP3   OH2 4607   3.129   6.009   2.234 -0.0419  0.2938  0.3664
 1548TIP3    H1 4608   3.178   6.078   2.279 -0.8713  0.9536  0.2792
 1548TIP3    H2 4609   3.098   6.050   2.153 -0.2275 -0.2972  0.1285
 1549TIP3   OH2 4610   4.799   5.991   3.250  0.0370  0.0713 -0.0083
 1549TIP3    H1 4611   4.791   5.911   3.302 -1.0659 -0.2359 -0.6289
 1549TIP3    H2 4612   4.879   6.033   3.283 -1.4666  0.7445  3.1190
 1550TIP3   OH2 4613   1.541   5.020   2.783 -0.0898  0.0203  0.4015
 1550TIP3    H1 4614   1.541   4.997   2.876 -2.6661 -0.3430  0.3963
 1550TIP3    H2 4615   1.491   5.101   2.779 -2.0062 -1.1386 -0.8230
 1551TIP3   OH2 4616   6.013   5.417   2.729  0.1395  0.4182 -0.6879
 1551TIP3    H1 4617   6.085   5.415   2.792  0.6650  0.3349 -1.2679
 1551TIP3    H2 4618   6.049   5.371   2.652 -0.3621  0.8178 -1.1648
 1552TIP3   OH2 4619   5.136   5.516   1.559 -0.0992  0.2073 -0.4677
 1552TIP3    H1 4620   5.149   5.506   1.465  3.5799 -1.2641  0.0366
 1552TIP3    H2 4621   5.172   5.602   1.579 -3.1629  1.6621 -0.5848
 1553TIP3   OH2 4622   6.940   3.816   1.136 -0.1478 -0.4371 -0.7364
 1553TIP3    H1 4623   6.986   3.759   1.074 -1.1468 -1.3667 -0.6649
 1553TIP3    H2 4624   7.008   3.874   1.170  0.5899 -0.4779 -2.0467
 1554TIP3   OH2 4625   6.270   3.073   3.673 -0.0480  0.5545 -0.4342
 1554TIP3    H1 4626   6.290   2.991   3.717  0.1070  1.1128  0.5817
 1554TIP3    H2 4627   6.354   3.106   3.642  0.0804  0.9708  0.3373
 1555TIP3   OH2 4628   0.811   4.722   1.929 -0.1091  0.2109 -0.4182
 1555TIP3    H1 4629   0.841   4.798   1.979 -0.6683  1.2956 -1.6663
 1555TIP3    H2 4630   0.717   4.716   1.947  0.1825 -1.1318  0.8461
 1556TIP3   OH2 4631   6.849   5.376   3.554  0.1541  0.7787  0.3140
 1556TIP3    H1 4632   6.836   5.347   3.464 -1.0242  4.7147 -0.9710
 1556TIP3    H2 4633   6.780   5.332   3.603 -0.6677  0.3570 -1.1503
 1557TIP3   OH2 4634   0.713   0.990   3.641  0.4148  0.4962  0.1929
 1557TIP3    H1 4635   0.729   0.903   3.603 -1.1683  0.0930  0.4039
 1557TIP3    H2 4636   0.788   1.004   3.700  0.9751 -0.4744 -0.2618
 1558TIP3   OH2 4637   0.215   5.191   2.007  0.3413  0.5205 -0.6007
 1558TIP3    H1 4638   0.139   5.201   1.950  0.4116  0.4416 -0.7073
 1558TIP3    H2 4639   0.228   5.096   2.014  0.3497  0.5300 -0.4772
 1559TIP3   OH2 4640   1.192   5.816   1.381  0.2298 -0.5241  0.1836
 1559TIP3    H1 4641   1.137   5.740   1.360  0.3359 -0.3021 -0.9269
 1559TIP3    H2 4642   1.140   5.892   1.355 -1.2401  0.0754  4.1095
 1560TIP3   OH2 4643   4.915   1.018   5.838  0.0371  0.2418 -0.0454
 1560TIP3    H1 4644   4.858   0.993   5.766  0.8474 -3.6292  0.4284
 1560TIP3    H2 4645   4.856   1.051   5.905 -1.3929 -1.2359 -0.5141
 1561TIP3   OH2 4646   5.958   6.375   0.165 -0.3201  0.2978 -0.4185
 1561TIP3    H1 4647   6.053   6.361   0.156 -0.1942 -1.0039  2.1139
 1561TIP3    H2 4648   5.919   6.297   0.126 -0.2098 -0.3240  0.6702
 1562TIP3   OH2 4649   1.251   6.022   4.499  0.9707  0.3503 -0.1901
 1562TIP3    H1 4650   1.336   5.997   4.464  0.6848 -3.1508  1.1829
 1562TIP3    H2 4651   1.270   6.058   4.586  1.1167 -2.8119  1.2492
 1563TIP3   OH2 4652   5.624   2.796   3.524 -0.4848 -0.1479 -0.5677
 1563TIP3    H1 4653   5.638   2.702   3.515  0.7396 -0.2453  1.5608
 1563TIP3    H2 4654   5.537   2.803   3.565 -0.2485 -0.4058 -0.0126
 1564TIP3   OH2 4655   4.289   1.606   4.661 -0.0769 -0.2000 -0.5372
 1564TIP3    H1 4656   4.384   1.594   4.662 -0.1630 -0.8958  0.1076
 1564TIP3    H2 4657   4.254   1.517   4.654 -0.6862  0.0581 -0.8536
 1565TIP3   OH2 4658   6.832   5.781   0.222 -0.1351  0.2720 -0.3403
 1565TIP3    H1 4659   6.775   5.716   0.261 -0.2935  0.1447 -0.7768
 1565TIP3    H2 4660   6.885   5.732   0.159  1.2333  0.1805  0.8208
 1566TIP3   OH2 4661   6.881   6.122   3.591  0.1421  0.1966  0.1530
 1566TIP3    H1 4662   6.906   6.079   3.673 -0.5599 -0.4527  0.0363
 1566TIP3    H2 4663   6.945   6.192   3.581 -0.3480  0.9107  1.7515
 1567TIP3   OH2 4664   6.770   3.591   5.503 -0.0957  0.4519 -0.1239
 1567TIP3    H1 4665   6.692   3.575   5.449 -1.2969  1.4138  1.2710
 1567TIP3    H2 4666   6.806   3.503   5.519 -0.0615  0.0965 -1.9210
 1568TIP3   OH2 4667   6.714   3.007   4.032  0.0311 -0.1601  0.1067
 1568TIP3    H1 4668   6.656   2.933   4.051  0.7394 -1.2574 -1.7632
 1568TIP3    H2 4669   6.795   2.967   4.001  0.9421  1.4006  0.3733
 1569TIP3   OH2 4670   6.655   4.800   2.097 -0.5271  0.1698  0.6453
 1569TIP3    H1 4671   6.728   4.812   2.157 -0.5143  0.1580  0.6324
 1569TIP3    H2 4672   6.584   4.768   2.151  0.0184 -1.6095  0.3816
 1570TIP3   OH2 4673   2.334   6.760   4.578  0.1627  0.0983 -0.2232
 1570TIP3    H1 4674   2.366   6.713   4.656  1.2350 -0.7585 -1.1355
 1570TIP3    H2 4675   2.380   6.718   4.505 -1.1287  0.6129 -1.3642
 1571TIP3   OH2 4676   3.222   4.166   1.008 -0.5354 -0.1413 -0.0846
 1571TIP3    H1 4677   3.305   4.119   1.015 -0.2943  0.4510  1.4358
 1571TIP3    H2 4678   3.235   4.246   1.060 -1.0778  1.4467 -2.2362
 1572TIP3   OH2 4679   7.180   6.138   4.693 -0.0140  0.0064 -0.2595
 1572TIP3    H1 4680   7.225   6.065   4.737  0.0920  0.6636  0.7699
 1572TIP3    H2 4681   7.179   6.208   4.759 -0.2632  0.8774 -1.1696
 1573TIP3   OH2 4682   1.948   4.041   4.785 -0.1780 -0.0359 -0.0902
 1573TIP3    H1 4683   1.999   4.071   4.710 -0.0442  0.9866  0.3892
 1573TIP3    H2 4684   1.857   4.044   4.756 -0.0702 -0.4077 -0.4646
 1574TIP3   OH2 4685   1.249   0.632   1.290  0.6284 -0.0282  0.2900
 1574TIP3    H1 4686   1.333   0.596   1.317  0.8980 -0.0608 -0.5381
 1574TIP3    H2 4687   1.271   0.696   1.222  0.1117  1.2554  1.2788
 1575TIP3   OH2 4688  -0.005   3.588   3.480 -0.2190 -0.1225 -0.3825
 1575TIP3    H1 4689  -0.018   3.504   3.436 -0.2631 -0.1181 -0.3781
 1575TIP3    H2 4690   0.066   3.571   3.542 -0.1830 -0.1388 -0.4281
 1576TIP3   OH2 4691   4.498   4.673   0.312 -0.7892 -0.4793  0.4569
 1576TIP3    H1 4692   4.555   4.597   0.304 -0.0649  0.0154  0.8039
 1576TIP3    H2 4693   4.528   4.732   0.243 -1.0041 -0.2933  0.5227
 1577TIP3   OH2 4694   6.371   2.528   2.473  0.4898  0.5699 -0.3053
 1577TIP3    H1 4695   6.326   2.481   2.403  0.4311 -2.0967  1.3751
 1577TIP3    H2 4696   6.463   2.508   2.460  0.5478  0.6527 -0.0241
 1578TIP3   OH2 4697   1.004   5.074   3.341  0.3702  0.2998  0.2905
 1578TIP3    H1 4698   1.031   5.144   3.401 -0.3009  1.9241 -1.1913
 1578TIP3    H2 4699   1.018   5.111   3.254  1.6574 -2.1090 -0.6146
 1579TIP3   OH2 4700   6.412   3.658   4.644  0.2879 -0.0760 -0.6769
 1579TIP3    H1 4701   6.450   3.727   4.699 -0.4530 -1.2704  1.4797
 1579TIP3    H2 4702   6.470   3.583   4.656 -1.2406 -1.1254  0.5777
 1580TIP3   OH2 4703   3.919   0.274   2.873  0.0935  0.6646  0.2981
 1580TIP3    H1 4704   3.827   0.256   2.852 -0.1011  1.7187  0.1730
 1580TIP3    H2 4705   3.920   0.367   2.896  0.9662  0.4209  1.2768
 1581TIP3   OH2 4706   3.321   2.298   3.968  0.0075 -0.5176  0.5683
 1581TIP3    H1 4707   3.382   2.298   4.042  1.1885 -0.1050 -0.3693
 1581TIP3    H2 4708   3.288   2.208   3.964 -0.1002 -0.5343  1.6081
 1582TIP3   OH2 4709   1.586   2.950   4.396 -0.3166  0.7330  0.0312
 1582TIP3    H1 4710   1.659   2.888   4.403 -1.6415 -1.2084 -2.0322
 1582TIP3    H2 4711   1.598   3.009   4.470  3.1866  0.3659 -0.0782
 1583TIP3   OH2 4712   4.368   3.896   2.866 -0.1375  0.1774  0.0566
 1583TIP3    H1 4713   4.306   3.838   2.822  0.5913 -0.1871 -0.5234
 1583TIP3    H2 4714   4.317   3.940   2.933 -1.5164  1.4166 -1.7225
 1584TIP3   OH2 4715   1.544   6.625   2.798  0.2842  0.4080 -0.6212
 1584TIP3    H1 4716   1.484   6.651   2.728 -0.7336  2.0187  0.7529
 1584TIP3    H2 4717   1.495   6.642   2.879  1.1357 -2.0657  0.5204
 1585TIP3   OH2 4718   7.026   1.583   1.497  0.7376 -0.1419  0.5394
 1585TIP3    H1 4719   7.025   1.645   1.570 -1.0378  0.6066 -0.0736
 1585TIP3    H2 4720   6.939   1.589   1.459  1.0203 -1.9124 -0.4956
 1586TIP3   OH2 4721   5.659   6.421   2.334 -0.2586  0.1351  0.2157
 1586TIP3    H1 4722   5.712   6.487   2.378 -1.5696  0.1163  1.9068
 1586TIP3    H2 4723   5.583   6.409   2.391  0.6859 -4.0882  0.8637
 1587TIP3   OH2 4724   4.165   5.848   0.041 -0.2597  0.0489  0.3219
 1587TIP3    H1 4725   4.153   5.786  -0.031  1.1557  2.0710 -1.8072
 1587TIP3    H2 4726   4.260   5.861   0.046 -0.3097 -0.0642  2.6566
 1588TIP3   OH2 4727   5.701   3.336   4.527  0.3278  0.2590  0.0624
 1588TIP3    H1 4728   5.731   3.306   4.612  2.4473  1.6186 -0.1198
 1588TIP3    H2 4729   5.714   3.431   4.529 -0.6521  0.4647 -1.3905
 1589TIP3   OH2 4730   6.035   0.656   0.809 -0.1104  0.1292  0.1797
 1589TIP3    H1 4731   5.973   0.693   0.872  0.2002  0.6474  0.1905
 1589TIP3    H2 4732   5.985   0.589   0.763 -0.8719  0.9740 -0.2523
 1590TIP3   OH2 4733   3.199   0.067   1.553 -0.1137  0.0602  0.0481
 1590TIP3    H1 4734   3.119   0.022   1.528  1.3037 -1.8349 -1.4477
 1590TIP3    H2 4735   3.203   0.143   1.496 -1.0369  0.3953  0.4236
 1591TIP3   OH2 4736   3.164   5.426   3.731  0.4118 -0.3492 -0.3079
 1591TIP3    H1 4737   3.126   5.514   3.736 -0.5440 -0.7944  1.1663
 1591TIP3    H2 4738   3.106   5.378   3.672 -0.9764 -0.8105  1.3344
 1592TIP3   OH2 4739   4.080   4.393   0.697  0.0474 -0.2571  0.0104
 1592TIP3    H1 4740   4.016   4.323   0.683 -2.5707  2.1042 -0.6089
 1592TIP3    H2 4741   4.097   4.393   0.791  0.3265 -1.8339 -0.0081
 1593TIP3   OH2 4742   5.700   4.350   2.733  0.2472 -0.0841  0.3679
 1593TIP3    H1 4743   5.642   4.298   2.678  0.6078 -0.5719  0.4392
 1593TIP3    H2 4744   5.787   4.313   2.719  0.4962  0.4297  0.5070
 1594TIP3   OH2 4745   4.143   5.651   2.066 -0.5942  0.0541 -0.2643
 1594TIP3    H1 4746   4.157   5.710   1.992 -1.5236  0.2646 -0.2881
 1594TIP3    H2 4747   4.094   5.704   2.129  0.0225 -0.1831  0.4259
 1595TIP3   OH2 4748   6.537   5.376   0.456 -0.6584 -0.2518  0.7966
 1595TIP3    H1 4749   6.464   5.437   0.454 -0.5306 -0.0888  1.0503
 1595TIP3    H2 4750   6.499   5.291   0.433 -0.5167  0.2422 -1.4415
 1596TIP3   OH2 4751   2.541   2.838   3.026 -0.9287 -0.1198 -0.2072
 1596TIP3    H1 4752   2.533   2.933   3.029 -1.5517 -0.1785  0.4796
 1596TIP3    H2 4753   2.479   2.811   2.958 -0.4771 -0.0098 -0.6620
 1597TIP3   OH2 4754   4.344   5.111   2.793  0.2207 -0.0195  0.0949
 1597TIP3    H1 4755   4.253   5.087   2.778 -0.1049  0.9629  0.4119
 1597TIP3    H2 4756   4.372   5.149   2.710  0.4349 -0.5710 -0.0913
 1598TIP3   OH2 4757   0.572   5.789   1.261  0.4989 -0.2118 -0.1747
 1598TIP3    H1 4758   0.654   5.810   1.305  0.8911 -1.2984 -0.3710
 1598TIP3    H2 4759   0.505   5.831   1.315  1.1080 -0.0480  0.4733
 1599TIP3   OH2 4760   2.549   4.174   5.285 -0.7878  0.6844 -0.1139
 1599TIP3    H1 4761   2.598   4.092   5.295  0.1511  1.1032 -0.9869
 1599TIP3    H2 4762   2.458   4.146   5.273 -0.5280 -0.2131 -0.1138
 1600TIP3   OH2 4763   0.311   4.849   2.296  0.2503 -0.2187 -0.6000
 1600TIP3    H1 4764   0.276   4.831   2.384  0.4930 -1.3055 -0.7108
 1600TIP3    H2 4765   0.331   4.943   2.297  1.4642 -0.4399  0.9599
 1601TIP3   OH2 4766   3.996   4.672   0.681 -0.8183  0.0178  0.7737
 1601TIP3    H1 4767   3.962   4.703   0.597  0.0662 -0.1868  0.3348
 1601TIP3    H2 4768   4.000   4.576   0.671  1.1517  0.1226  0.3219
 1602TIP3   OH2 4769   6.190   3.725   3.680  0.2607 -0.7657 -0.1256
 1602TIP3    H1 4770   6.138   3.682   3.748 -0.6930 -2.3949 -1.8222
 1602TIP3    H2 4771   6.224   3.804   3.723 -2.1561 -0.5483  1.5801
 1603TIP3   OH2 4772   3.462   2.790   0.099 -0.0514 -0.6293  0.4266
 1603TIP3    H1 4773   3.446   2.884   0.086  0.9315 -0.2036  1.9717
 1603TIP3    H2 4774   3.548   2.775   0.060  1.3676 -0.0747  3.0978
 1604TIP3   OH2 4775   6.905   3.492   5.239 -0.4092  0.2586 -0.2548
 1604TIP3    H1 4776   6.936   3.414   5.284  1.2999  0.9519 -0.1847
 1604TIP3    H2 4777   6.979   3.521   5.186 -1.2114  1.4911 -0.7457
 1605TIP3   OH2 4778   6.146   4.177   0.605  0.1897 -0.1668 -0.1809
 1605TIP3    H1 4779   6.174   4.203   0.517  1.8157  0.3752  0.4584
 1605TIP3    H2 4780   6.050   4.174   0.600  0.1951  1.0029 -1.6524
 1606TIP3   OH2 4781   2.730   2.179   4.171  0.3685 -0.1708  0.4520
 1606TIP3    H1 4782   2.675   2.102   4.181  0.5597 -0.3692  0.0074
 1606TIP3    H2 4783   2.818   2.144   4.155  0.2979  0.1259 -0.6303
 1607TIP3   OH2 4784   1.109   1.149   5.213  0.3363  0.3698  0.1380
 1607TIP3    H1 4785   1.180   1.213   5.212  0.6906  0.0008 -1.3891
 1607TIP3    H2 4786   1.147   1.072   5.255  0.4765  0.5534  0.3516
 1608TIP3   OH2 4787   6.569   6.715   0.825 -0.3973  0.0340  0.3387
 1608TIP3    H1 4788   6.574   6.770   0.903  2.7965 -1.9124  1.7305
 1608TIP3    H2 4789   6.656   6.721   0.785 -0.9129 -1.5754 -1.1718
 1609TIP3   OH2 4790   6.333   3.411   3.371  0.6920  0.1042  0.0384
 1609TIP3    H1 4791   6.339   3.439   3.280  1.2451 -0.7120 -0.1825
 1609TIP3    H2 4792   6.285   3.328   3.368 -0.2533  0.6011  0.6117
 1610TIP3   OH2 4793   6.553   5.947   0.504  0.2604 -0.0904  0.4440
 1610TIP3    H1 4794   6.562   6.017   0.568  0.1327 -0.3820  0.7850
 1610TIP3    H2 4795   6.550   5.992   0.420  2.0502  0.2137  0.4938
 1611TIP3   OH2 4796   4.348   1.539   5.190 -0.5508 -0.1196  0.2715
 1611TIP3    H1 4797   4.281   1.573   5.130 -0.0142 -0.1582 -0.3670
 1611TIP3    H2 4798   4.402   1.615   5.212 -0.1329 -0.2984 -0.1175
 1612TIP3   OH2 4799   1.421   2.744   4.967  0.0907 -0.1191  0.1358
 1612TIP3    H1 4800   1.408   2.795   4.887  0.5509 -0.4230 -0.1358
 1612TIP3    H2 4801   1.488   2.680   4.944 -0.4153 -0.7920  0.5031
 1613TIP3   OH2 4802   1.973   5.681   0.771  0.0137 -0.4067  0.2837
 1613TIP3    H1 4803   1.981   5.735   0.693  0.0882  3.3037  2.5956
 1613TIP3    H2 4804   2.035   5.609   0.757  2.2502  1.7347 -1.9066
 1614TIP3   OH2 4805   5.284   3.963   4.443 -0.4222  0.0932 -0.3960
 1614TIP3    H1 4806   5.234   4.044   4.457  1.9585  1.8997 -1.6287
 1614TIP3    H2 4807   5.324   3.945   4.528 -0.2148  0.7786 -0.3427
 1615TIP3   OH2 4808   1.270   1.558   4.649  0.1200 -0.3256 -0.4020
 1615TIP3    H1 4809   1.257   1.541   4.556 -2.1728 -3.1094  0.3013
 1615TIP3    H2 4810   1.347   1.507   4.673  1.8256  1.8109 -1.0176
 1616TIP3   OH2 4811   1.955   2.625   2.558  0.5554 -0.6537 -0.1819
 1616TIP3    H1 4812   1.950   2.640   2.653  0.9878  0.1025 -0.2773
 1616TIP3    H2 4813   2.016   2.552   2.548  0.2460 -0.9605  0.1408
 1617TIP3   OH2 4814   3.957   0.103   3.838  0.1743 -0.8310 -0.1603
 1617TIP3    H1 4815   4.024   0.172   3.838 -1.3158  0.7042 -0.8594
 1617TIP3    H2 4816   3.918   0.108   3.751 -0.5776 -1.9696  0.0914
 1618TIP3   OH2 4817   1.457   2.105   4.764  0.0635 -0.4062 -0.0306
 1618TIP3    H1 4818   1.386   2.146   4.813  3.3184  1.1397  3.9181
 1618TIP3    H2 4819   1.483   2.171   4.699 -0.2622  0.1774  0.4256
 1619TIP3   OH2 4820   5.214   0.556   0.479  0.6249 -0.4493  0.1426
 1619TIP3    H1 4821   5.135   0.610   0.470  1.2823  0.3190 -1.4462
 1619TIP3    H2 4822   5.222   0.511   0.395  1.1445 -1.5743  0.7758
 1620TIP3   OH2 4823   2.339   2.347   0.872 -0.2718 -0.1144  0.1012
 1620TIP3    H1 4824   2.330   2.402   0.950  0.7649  0.6351 -0.2770
 1620TIP3    H2 4825   2.323   2.258   0.903  1.7825 -0.0507  1.5640
 1621TIP3   OH2 4826   2.062   5.558   1.694  0.2198 -0.0629 -0.6146
 1621TIP3    H1 4827   2.034   5.645   1.724 -0.3138  0.1687 -1.7571
 1621TIP3    H2 4828   2.126   5.575   1.625  0.8603 -0.5937 -0.1702
 1622TIP3   OH2 4829   0.338   2.465   1.062 -0.1757  0.1869 -0.0962
 1622TIP3    H1 4830   0.351   2.418   0.980  0.1750  1.1245 -0.5958
 1622TIP3    H2 4831   0.427   2.485   1.092 -0.3124  0.3527  0.2059
 1623TIP3   OH2 4832   0.461   1.350   2.305  0.1175 -0.0115  0.3342
 1623TIP3    H1 4833   0.491   1.266   2.340  1.3485  1.4338  3.0705
 1623TIP3    H2 4834   0.373   1.361   2.340 -0.2712 -0.3788 -0.4993
 1624TIP3   OH2 4835   1.159   5.978   1.047 -0.2685  0.1387 -0.3102
 1624TIP3    H1 4836   1.202   5.982   0.962 -1.1648 -2.1360 -0.9445
 1624TIP3    H2 4837   1.194   5.899   1.088  0.7104  1.5593  1.8247
 1625TIP3   OH2 4838   3.174   1.770   3.249  0.4122 -0.2687 -0.4266
 1625TIP3    H1 4839   3.241   1.703   3.261  0.4928  0.2297  3.0938
 1625TIP3    H2 4840   3.222   1.852   3.244  0.1867 -0.1448 -0.5789
 1626TIP3   OH2 4841   4.099   3.682   3.583  0.0375 -0.1224 -0.5808
 1626TIP3    H1 4842   4.070   3.604   3.535  0.2528  0.4542 -1.6693
 1626TIP3    H2 4843   4.047   3.753   3.547  1.0095  0.5100 -0.7755
 1627TIP3   OH2 4844   4.215   2.532   3.047  0.0538  0.2491  0.6365
 1627TIP3    H1 4845   4.288   2.525   2.985  0.3771 -1.3007  1.1521
 1627TIP3    H2 4846   4.257   2.544   3.132 -0.2509 -1.1630  1.0062
 1628TIP3   OH2 4847   2.039   0.299   4.142  0.0826  0.4392 -0.1159
 1628TIP3    H1 4848   2.067   0.382   4.180 -0.8845  1.4610 -1.5321
 1628TIP3    H2 4849   1.946   0.293   4.165  0.1924 -0.3678  0.1468
 1629TIP3   OH2 4850   2.920   6.388   3.240 -0.3738  0.4431 -0.0394
 1629TIP3    H1 4851   2.835   6.366   3.278 -0.2316  0.6233  0.3972
 1629TIP3    H2 4852   2.900   6.430   3.157 -0.7202  0.6527  0.1513
 1630TIP3   OH2 4853   5.802   4.043   3.608 -0.4411 -0.4430 -0.5348
 1630TIP3    H1 4854   5.708   4.031   3.621 -1.0714  0.7332 -3.3033
 1630TIP3    H2 4855   5.823   4.124   3.655 -0.9116 -0.4291 -0.3446
 1631TIP3   OH2 4856   2.908   2.762   3.515  0.5098 -0.0845  0.2587
 1631TIP3    H1 4857   2.841   2.714   3.465  0.6808 -1.3142  1.1881
 1631TIP3    H2 4858   2.987   2.710   3.505  1.0219  0.6779  0.2585
 1632TIP3   OH2 4859   5.279   5.505   4.502  0.1111 -0.3728 -0.4523
 1632TIP3    H1 4860   5.358   5.551   4.529  0.9685  0.0358 -3.2673
 1632TIP3    H2 4861   5.241   5.559   4.433 -1.9834 -1.1766 -0.0353
 1633TIP3   OH2 4862   3.690   2.550   2.493  0.2116 -0.8301 -0.2383
 1633TIP3    H1 4863   3.714   2.480   2.433 -0.4008 -0.0925 -1.3783
 1633TIP3    H2 4864   3.764   2.612   2.490 -0.2221 -0.3353 -0.9679
 1634TIP3   OH2 4865   3.416   3.349   2.527 -0.1152 -0.3561  0.2609
 1634TIP3    H1 4866   3.439   3.258   2.509 -0.2898 -0.4963  0.7303
 1634TIP3    H2 4867   3.440   3.396   2.447  0.3527 -0.7476  0.1636
 1635TIP3   OH2 4868   6.873   2.046   5.212 -0.6487 -0.2905 -0.0859
 1635TIP3    H1 4869   6.876   2.055   5.117 -0.0666  0.5112 -0.0059
 1635TIP3    H2 4870   6.787   2.082   5.237 -0.9016 -0.7257 -0.3238
 1636TIP3   OH2 4871   2.484   6.146   5.109  0.0509 -0.0078  0.2129
 1636TIP3    H1 4872   2.421   6.177   5.173 -0.3371  1.7353 -0.9451
 1636TIP3    H2 4873   2.430   6.116   5.035  0.5383  0.2981 -0.2754
 1637TIP3   OH2 4874   6.991   4.286   2.834  0.3867 -0.1129  0.0571
 1637TIP3    H1 4875   7.012   4.334   2.754 -1.1777 -0.3150 -0.5108
 1637TIP3    H2 4876   7.009   4.349   2.904 -0.3252  0.8567 -0.5920
 1638TIP3   OH2 4877   6.708   2.109   4.292 -0.2995 -0.4019  0.0706
 1638TIP3    H1 4878   6.772   2.087   4.225  0.1873  0.2988  0.2837
 1638TIP3    H2 4879   6.642   2.162   4.247  1.1218  1.9032  0.4930
 1639TIP3   OH2 4880   2.471   1.651   5.670 -0.1750 -0.0123  0.2346
 1639TIP3    H1 4881   2.550   1.703   5.685 -1.2746  1.5205  0.9211
 1639TIP3    H2 4882   2.402   1.715   5.652 -1.4767 -1.2557  0.5507
 1640TIP3   OH2 4883   1.460   6.680   5.409  0.1299 -0.2296 -0.2869
 1640TIP3    H1 4884   1.554   6.694   5.398  0.0658  1.2207  0.6240
 1640TIP3    H2 4885   1.425   6.681   5.320  0.9983 -1.0725 -0.6523
 1641TIP3   OH2 4886   6.011   0.373   4.323  0.0937 -0.2993 -0.8159
 1641TIP3    H1 4887   5.994   0.290   4.369 -0.1968 -0.0926 -0.5456
 1641TIP3    H2 4888   6.059   0.426   4.386 -1.9524  0.7132 -0.0061
 1642TIP3   OH2 4889   6.431   2.875   5.689 -0.1704 -0.2239 -0.4873
 1642TIP3    H1 4890   6.490   2.821   5.742 -1.2140 -1.8094 -0.8981
 1642TIP3    H2 4891   6.394   2.938   5.752 -1.3562 -2.0430  0.7118
 1643TIP3   OH2 4892   1.752   6.465   2.855 -0.4634 -0.0629  0.3000
 1643TIP3    H1 4893   1.674   6.520   2.848 -0.3265 -0.0051 -0.9428
 1643TIP3    H2 4894   1.741   6.398   2.789  0.8368  0.3404 -0.3592
 1644TIP3   OH2 4895   6.938   5.906   0.997  0.2750  0.0672 -0.5059
 1644TIP3    H1 4896   7.002   5.871   1.059 -0.2376 -0.3008 -0.1715
 1644TIP3    H2 4897   6.984   5.910   0.914  0.4868 -0.9956 -0.4586
 1645TIP3   OH2 4898   4.695   4.689   1.982  0.2847  0.1331 -0.7805
 1645TIP3    H1 4899   4.633   4.617   1.992  0.4015  0.0699 -0.5045
 1645TIP3    H2 4900   4.674   4.727   1.896  1.4142 -1.3762 -1.7757
 1646TIP3   OH2 4901   2.449   3.274   4.200  0.5882  0.0353 -0.0783
 1646TIP3    H1 4902   2.473   3.361   4.167 -0.8470  0.2672 -0.5662
 1646TIP3    H2 4903   2.486   3.213   4.135 -1.5660  0.4575 -1.8212
 1647TIP3   OH2 4904   5.493   2.381   0.648 -0.2161  0.3511  0.1049
 1647TIP3    H1 4905   5.514   2.319   0.578 -1.0569 -0.2164  0.3419
 1647TIP3    H2 4906   5.574   2.389   0.698 -0.4596 -1.6252  0.8898
 1648TIP3   OH2 4907   1.300   1.419   3.969 -0.1429  0.1403 -0.2697
 1648TIP3    H1 4908   1.210   1.431   3.940  0.2172 -1.8661 -2.4734
 1648TIP3    H2 4909   1.297   1.342   4.026  0.1993 -0.0353 -0.4848
 1649TIP3   OH2 4910   6.557   2.667   1.348 -0.2761  0.2148 -0.1443
 1649TIP3    H1 4911   6.596   2.581   1.363 -0.1183  0.4569  0.8966
 1649TIP3    H2 4912   6.464   2.655   1.370 -0.6288 -0.1063 -1.6590
 1650TIP3   OH2 4913   2.675   3.888   0.679  0.0555 -0.2714 -0.1319
 1650TIP3    H1 4914   2.768   3.889   0.658  0.9024  1.8956  3.0127
 1650TIP3    H2 4915   2.645   3.976   0.656 -1.0265 -0.6715 -0.2885
 1651TIP3   OH2 4916   3.328   1.133   0.148  0.1829  0.2908  0.1375
 1651TIP3    H1 4917   3.296   1.219   0.174  0.7513  0.3579  0.6253
 1651TIP3    H2 4918   3.357   1.092   0.230 -0.6455 -0.6029 -0.0049
 1652TIP3   OH2 4919   2.753   4.379   5.708 -0.1785 -0.0211 -0.5359
 1652TIP3    H1 4920   2.690   4.366   5.637 -0.5438 -0.3457 -0.1642
 1652TIP3    H2 4921   2.702   4.423   5.776 -0.0279 -0.3606 -0.2002
 1653TIP3   OH2 4922   3.950   5.676   4.772 -0.0622 -0.3204  0.1114
 1653TIP3    H1 4923   3.963   5.725   4.691  1.3970 -2.1112 -0.8105
 1653TIP3    H2 4924   3.871   5.624   4.757  0.0421 -0.4318 -0.0537
 1654TIP3   OH2 4925   4.909   0.592   2.540  0.1339  0.1280  0.4765
 1654TIP3    H1 4926   4.973   0.556   2.478 -0.5261  0.0475 -0.1781
 1654TIP3    H2 4927   4.921   0.539   2.619 -0.9946 -1.7833 -0.5455
 1655TIP3   OH2 4928   6.584   4.571   1.433  0.7246 -0.0861  0.1552
 1655TIP3    H1 4929   6.643   4.528   1.496  1.1745 -0.9328 -0.8119
 1655TIP3    H2 4930   6.642   4.626   1.380  0.3979  0.3816  0.2821
 1656TIP3   OH2 4931   3.716   2.500   5.219 -0.0657  0.4322 -0.0029
 1656TIP3    H1 4932   3.648   2.506   5.151 -0.4512  1.4658  0.4407
 1656TIP3    H2 4933   3.797   2.482   5.171 -0.6640 -1.0266 -0.5305
 1657TIP3   OH2 4934   6.180   6.742   5.789 -0.1011  0.0339 -0.2674
 1657TIP3    H1 4935   6.126   6.767   5.864  0.9123  1.7641 -0.0452
 1657TIP3    H2 4936   6.179   6.647   5.789  0.5296 -0.0579  2.4846
 1658TIP3   OH2 4937   0.485   5.915   2.820 -0.6436  0.1513 -0.7493
 1658TIP3    H1 4938   0.578   5.931   2.804 -0.9180  1.3228 -1.2608
 1658TIP3    H2 4939   0.465   5.968   2.897 -0.4066 -1.8243  0.7430
 1659TIP3   OH2 4940   1.470   1.371   3.202  0.4491  0.3276 -0.1184
 1659TIP3    H1 4941   1.481   1.396   3.110  0.1384 -0.0929 -0.2745
 1659TIP3    H2 4942   1.546   1.408   3.246  1.1858 -0.4023 -0.7427
 1660TIP3   OH2 4943   1.138   6.062   3.039  0.7893  0.7668 -0.3112
 1660TIP3    H1 4944   1.110   6.146   3.002 -0.3167  0.2097 -0.7772
 1660TIP3    H2 4945   1.119   5.998   2.971 -1.0277 -0.2589  1.0651
 1661TIP3   OH2 4946   0.997   2.579   2.985  0.2310  0.1385 -0.4702
 1661TIP3    H1 4947   1.000   2.601   2.892  0.5461  0.7103 -0.3278
 1661TIP3    H2 4948   0.975   2.661   3.029  1.1817  0.1354  0.0418
 1662TIP3   OH2 4949   0.876   2.151   2.183 -0.5418 -0.2181 -0.6085
 1662TIP3    H1 4950   0.955   2.105   2.213 -0.2614  0.3751 -0.4150
 1662TIP3    H2 4951   0.822   2.083   2.143 -0.1471 -0.7183 -0.3048
 1663TIP3   OH2 4952   4.387   5.736   1.249  0.3309  0.3120 -0.3199
 1663TIP3    H1 4953   4.424   5.680   1.317  0.3215 -0.0419 -0.6054
 1663TIP3    H2 4954   4.401   5.825   1.281  1.2989  0.1841 -0.3565
 1664TIP3   OH2 4955   5.222   6.750   2.937  0.4077  0.2718  0.1264
 1664TIP3    H1 4956   5.186   6.700   2.863  2.8580 -1.9026  0.2663
 1664TIP3    H2 4957   5.160   6.734   3.008 -0.9227  0.7349 -0.8839
 1665TIP3   OH2 4958   1.460   0.787   3.879 -0.5982  0.1196 -0.1887
 1665TIP3    H1 4959   1.373   0.748   3.877 -1.0942  1.1884 -0.6494
 1665TIP3    H2 4960   1.505   0.750   3.803 -0.1261 -1.5402  0.8708
 1666TIP3   OH2 4961   6.786   1.425   2.373 -0.1823  0.1859  0.5893
 1666TIP3    H1 4962   6.874   1.411   2.337 -0.5707 -1.4407  0.1441
 1666TIP3    H2 4963   6.768   1.345   2.424 -2.3162 -0.7269 -1.3733
 1667TIP3   OH2 4964   1.561   3.700   2.633 -0.1686  0.2538 -0.0706
 1667TIP3    H1 4965   1.568   3.687   2.538  1.3396 -0.8851  0.1593
 1667TIP3    H2 4966   1.576   3.793   2.646  0.0101  0.3512 -0.9205
 1668TIP3   OH2 4967   5.116   4.720   3.191 -0.3706  0.1623 -0.5563
 1668TIP3    H1 4968   5.124   4.802   3.240 -2.9427 -0.0846  0.4399
 1668TIP3    H2 4969   5.131   4.651   3.256 -3.2716 -0.1613 -0.1018
 1669TIP3   OH2 4970   0.221   2.152   1.906  0.1987 -0.3746  0.3477
 1669TIP3    H1 4971   0.241   2.100   1.828  1.1282 -0.0993  0.4004
 1669TIP3    H2 4972   0.306   2.178   1.941 -0.2379  0.5002  0.7920
 1670TIP3   OH2 4973   3.054   6.554   5.015 -0.1752  0.0444 -0.1155
 1670TIP3    H1 4974   3.025   6.502   5.090  1.7098 -0.3135  0.4076
 1670TIP3    H2 4975   3.040   6.497   4.939  0.8526 -0.8335  0.3320
 1671TIP3   OH2 4976   6.982   4.634   4.344  0.3101 -0.3912  0.2076
 1671TIP3    H1 4977   7.076   4.616   4.338  0.5846  0.6926  0.9940
 1671TIP3    H2 4978   6.941   4.548   4.345  1.3040 -0.8831  0.0708
 1672TIP3   OH2 4979   3.102   2.006   0.485  0.1233  0.1419 -0.5309
 1672TIP3    H1 4980   3.098   2.094   0.448  2.0184  1.0057  1.1214
 1672TIP3    H2 4981   3.194   1.995   0.510 -0.1471 -2.1878 -0.3814
 1673TIP3   OH2 4982   3.140   1.766   0.332 -0.6574  0.0931 -0.6350
 1673TIP3    H1 4983   3.152   1.791   0.241 -0.9523  1.5371 -0.3092
 1673TIP3    H2 4984   3.129   1.850   0.378 -1.0474 -0.6380  0.6391
 1674TIP3   OH2 4985   3.007   3.385   0.678 -0.0171  0.3538 -0.1084
 1674TIP3    H1 4986   3.044   3.425   0.599  2.8849 -2.8032 -0.5428
 1674TIP3    H2 4987   3.039   3.438   0.750  1.1315  0.6310 -0.8099
 1675TIP3   OH2 4988   0.278   0.899   4.886  0.2650 -0.2571  0.2298
 1675TIP3    H1 4989   0.226   0.973   4.856 -0.9713 -0.9765  0.5144
 1675TIP3    H2 4990   0.222   0.823   4.871  1.1952 -1.0459  0.6679
 1676TIP3   OH2 4991   1.771   5.933   4.851 -0.0151  0.3388  0.7869
 1676TIP3    H1 4992   1.857   5.897   4.828  0.1801  0.7136  0.9049
 1676TIP3    H2 4993   1.780   6.027   4.835 -0.3807  0.3889  0.8750
 1677TIP3   OH2 4994   6.319   4.544   1.439  0.2743 -0.4134  0.1862
 1677TIP3    H1 4995   6.413   4.557   1.441  0.1398  0.5819  0.6721
 1677TIP3    H2 4996   6.288   4.577   1.523 -0.3921 -1.7778  0.5238
 1678TIP3   OH2 4997   5.684   1.186   2.215  0.4774  0.2367 -0.2451
 1678TIP3    H1 4998   5.719   1.104   2.180  1.7668  1.2614 -1.5071
 1678TIP3    H2 4999   5.622   1.215   2.148 -0.7993 -0.2179  0.7104
 1679TIP3   OH2 5000   3.152   3.572   1.718 -0.2218 -0.5021 -0.3522
 1679TIP3    H1 5001   3.101   3.492   1.703  0.3467 -0.8260 -0.5803
 1679TIP3    H2 5002   3.209   3.579   1.642  0.8081 -0.7126  0.3806
 1680TIP3   OH2 5003   6.774   6.264   1.910 -0.1478 -0.0590  0.2400
 1680TIP3    H1 5004   6.858   6.235   1.874 -0.1917 -0.3743  0.3953
 1680TIP3    H2 5005   6.790   6.274   2.003 -0.1195  0.4647  0.1822
 1681TIP3   OH2 5006   5.595   0.671   4.475 -0.1595  0.2173 -0.0436
 1681TIP3    H1 5007   5.597   0.607   4.546 -0.3743 -1.0452 -1.1366
 1681TIP3    H2 5008   5.663   0.643   4.414 -0.2622  1.0245 -0.5616
 1682TIP3   OH2 5009   1.725   2.363   4.378 -0.0009 -0.1051 -0.0718
 1682TIP3    H1 5010   1.812   2.348   4.341  0.2991 -0.4975  0.7778
 1682TIP3    H2 5011   1.672   2.291   4.345 -0.0644  0.2371 -0.7436
 1683TIP3   OH2 5012   0.408   4.333   5.267  0.6472 -0.0672  0.5032
 1683TIP3    H1 5013   0.321   4.370   5.282  0.4641 -0.0933 -0.4246
 1683TIP3    H2 5014   0.452   4.339   5.352  0.7783  2.6233  0.3122
 1684TIP3   OH2 5015   0.627   3.205   0.361  0.6356  0.3484 -0.1365
 1684TIP3    H1 5016   0.681   3.181   0.435 -0.1879  0.9527  0.6826
 1684TIP3    H2 5017   0.540   3.172   0.383  0.6023 -0.4900 -1.3679
 1685TIP3   OH2 5018   1.257   5.690   1.776 -0.1111 -0.3346 -0.3530
 1685TIP3    H1 5019   1.188   5.654   1.831 -0.4814  1.3227  0.3163
 1685TIP3    H2 5020   1.285   5.616   1.722 -0.7118 -1.6521  1.0585
 1686TIP3   OH2 5021   0.918   6.471   0.494 -0.3158  0.5018 -0.1390
 1686TIP3    H1 5022   0.976   6.468   0.418  0.9530  1.6927  0.7193
 1686TIP3    H2 5023   0.830   6.466   0.458  0.2707  0.1711 -1.6099
 1687TIP3   OH2 5024   1.051   4.242   1.871  0.8408  0.0841 -0.4083
 1687TIP3    H1 5025   1.013   4.157   1.847  1.4675  0.4926 -3.2827
 1687TIP3    H2 5026   1.044   4.246   1.966 -2.2356 -1.7327 -0.4229
 1688TIP3   OH2 5027   3.014   5.034   0.849 -0.0939  0.6283 -0.5721
 1688TIP3    H1 5028   2.977   4.966   0.792 -0.3187 -0.7123  1.1011
 1688TIP3    H2 5029   3.092   4.994   0.887  0.1119  1.5345 -0.0102
 1689TIP3   OH2 5030   3.510   2.046   2.658 -0.1183 -0.4740  0.1357
 1689TIP3    H1 5031   3.573   2.118   2.649 -1.8484  1.4996  2.3457
 1689TIP3    H2 5032   3.455   2.052   2.579  0.0791  0.3426  0.0485
 1690TIP3   OH2 5033   2.391   1.552   4.614 -0.0198 -0.4219 -0.0736
 1690TIP3    H1 5034   2.379   1.457   4.612  0.5121 -0.4841 -0.8219
 1690TIP3    H2 5035   2.348   1.583   4.534  0.8339 -0.1630 -0.4405
 1691TIP3   OH2 5036   5.923  -0.001   0.387 -0.2508  0.0416  0.0582
 1691TIP3    H1 5037   5.910   0.037   0.300  1.2738 -2.9813 -1.6460
 1691TIP3    H2 5038   6.006   0.036   0.417  0.0708 -0.1771 -0.5515
 1692TIP3   OH2 5039   4.399   3.096   3.356  0.2172  0.5578 -0.0833
 1692TIP3    H1 5040   4.312   3.058   3.367  0.9292 -1.6516 -1.4328
 1692TIP3    H2 5041   4.385   3.171   3.299 -0.9147  0.8057  0.4966
 1693TIP3   OH2 5042   4.799   1.946   2.023  0.2072  0.2428  0.1124
 1693TIP3    H1 5043   4.831   1.897   1.947  1.1142 -0.8156  1.1474
 1693TIP3    H2 5044   4.750   2.019   1.985  0.9188 -0.0724 -1.4948
 1694TIP3   OH2 5045   7.089   5.976   1.356 -0.0926  0.8733  0.2984
 1694TIP3    H1 5046   6.995   5.990   1.367  0.0464  1.0242  1.3944
 1694TIP3    H2 5047   7.128   6.063   1.367  0.2039  0.7664  0.1230
 1695TIP3   OH2 5048   7.030   6.593   5.036  0.4713 -0.1633 -0.0628
 1695TIP3    H1 5049   6.940   6.573   5.062  0.3349  0.4233 -0.0728
 1695TIP3    H2 5050   7.021   6.668   4.978  1.1341  1.1475  1.4853
 1696TIP3   OH2 5051   6.270   4.024   0.856  0.1260 -0.0622 -0.2458
 1696TIP3    H1 5052   6.311   4.106   0.829  0.1683  0.5381  1.5030
 1696TIP3    H2 5053   6.176   4.041   0.850  0.1049 -0.5092 -1.5740
 1697TIP3   OH2 5054   2.117   3.820   1.978 -0.7559 -0.1420 -0.4510
 1697TIP3    H1 5055   2.028   3.798   2.007  0.0754 -0.2470  2.3711
 1697TIP3    H2 5056   2.141   3.898   2.029  0.2907  0.7697 -2.2281
 1698TIP3   OH2 5057   3.874   2.012   2.425 -0.0764 -0.1981 -0.0051
 1698TIP3    H1 5058   3.827   1.929   2.414  0.6945 -0.5059 -1.0670
 1698TIP3    H2 5059   3.966   1.987   2.429  0.1877  0.6361 -0.6961
 1699TIP3   OH2 5060   1.193   5.556   0.590  0.2018 -0.4750  0.1929
 1699TIP3    H1 5061   1.192   5.640   0.544  0.1329 -0.3652  0.3928
 1699TIP3    H2 5062   1.133   5.569   0.664  0.3480 -0.6353  0.3388
 1700TIP3   OH2 5063   5.682   5.017   2.873  0.1373 -0.3710  0.2899
 1700TIP3    H1 5064   5.718   5.043   2.957 -0.5005  0.0000  0.4588
 1700TIP3    H2 5065   5.592   4.989   2.892 -0.2127  0.2779 -0.3420
 1701TIP3   OH2 5066   2.596   2.464   5.737  0.1186  0.4170  0.8008
 1701TIP3    H1 5067   2.557   2.380   5.711  0.1046  0.4630  0.6751
 1701TIP3    H2 5068   2.643   2.444   5.818  3.0223 -0.5049 -0.9843
 1702TIP3   OH2 5069   4.014   1.692   2.476  0.4409  0.0105 -0.2091
 1702TIP3    H1 5070   3.968   1.686   2.392  1.8401 -1.4803 -0.9155
 1702TIP3    H2 5071   4.016   1.602   2.509 -0.3561  0.6100  1.6135
 1703TIP3   OH2 5072   6.056   0.516   3.346 -0.0334  0.0564 -0.4564
 1703TIP3    H1 5073   5.983   0.576   3.367 -0.7390 -1.0308  0.3020
 1703TIP3    H2 5074   6.134   0.562   3.378 -0.8440 -0.6044  2.8736
 1704TIP3   OH2 5075   4.608   4.535   4.424 -0.2670  0.7907  0.2502
 1704TIP3    H1 5076   4.530   4.551   4.370 -0.5218 -0.6683  0.1337
 1704TIP3    H2 5077   4.573   4.497   4.505  0.2625  0.9809  0.5724
 1705TIP3   OH2 5078   2.923   2.934   0.833  0.0398 -0.4916 -0.1014
 1705TIP3    H1 5079   2.930   2.855   0.886  0.4482  0.3991  1.2132
 1705TIP3    H2 5080   2.990   2.923   0.765  0.3926 -1.0736  0.3325
 1706TIP3   OH2 5081   1.913   6.783   5.831  0.0062 -0.0019  0.1419
 1706TIP3    H1 5082   1.974   6.711   5.846  0.6019  0.4005 -0.2809
 1706TIP3    H2 5083   1.839   6.765   5.888  0.0340 -1.0842 -0.1441
 1707TIP3   OH2 5084   0.365   5.001   2.978 -0.4496  0.0420  0.0546
 1707TIP3    H1 5085   0.403   5.060   3.043 -0.3411 -0.8583  0.8316
 1707TIP3    H2 5086   0.296   4.955   3.026 -0.9815  0.0115 -0.7210
 1708TIP3   OH2 5087   0.686   1.648   0.266 -0.2157 -0.2667  0.6562
 1708TIP3    H1 5088   0.712   1.736   0.293  2.1309 -1.4338  2.5551
 1708TIP3    H2 5089   0.631   1.615   0.337 -3.3912  0.4833 -1.2448
 1709TIP3   OH2 5090   5.171   0.154   4.430 -0.0347 -0.5743 -0.3365
 1709TIP3    H1 5091   5.107   0.123   4.366 -0.2139  0.5486 -0.7378
 1709TIP3    H2 5092   5.146   0.245   4.446  0.8798 -0.4091  0.2387
 1710TIP3   OH2 5093   0.812   5.795   0.202  0.3755  0.2261 -0.4163
 1710TIP3    H1 5094   0.857   5.795   0.287 -0.0847  0.3555 -0.1634
 1710TIP3    H2 5095   0.776   5.707   0.194 -0.7443  0.6017  0.1738
 1711TIP3   OH2 5096   2.712   6.012   1.336  0.0736 -0.0700 -0.2091
 1711TIP3    H1 5097   2.668   5.997   1.420  0.1269 -0.0115 -0.1701
 1711TIP3    H2 5098   2.800   5.978   1.349  0.1708  0.2000 -0.1463
 1712TIP3   OH2 5099   1.167   4.491   1.804 -0.4609 -0.1575  0.2068
 1712TIP3    H1 5100   1.203   4.402   1.805 -2.6443 -1.1236 -0.5090
 1712TIP3    H2 5101   1.124   4.501   1.889  1.3849  0.9748  1.0507
 1713TIP3   OH2 5102   3.984   2.521   0.864 -0.8456  0.4869 -0.2218
 1713TIP3    H1 5103   3.961   2.612   0.884 -0.1666  0.9773 -1.5337
 1713TIP3    H2 5104   3.954   2.508   0.774  1.4337  0.2931 -1.0141
 1714TIP3   OH2 5105   4.196   4.230   4.343 -0.0088  0.5390  0.6936
 1714TIP3    H1 5106   4.249   4.240   4.422  1.3726  2.2161 -0.3867
 1714TIP3    H2 5107   4.171   4.319   4.320 -3.2914 -0.1470  1.0594
 1715TIP3   OH2 5108   2.764   4.714   0.674 -0.1116  0.1527  0.1170
 1715TIP3    H1 5109   2.857   4.704   0.655 -0.3763 -0.0769 -1.1251
 1715TIP3    H2 5110   2.725   4.630   0.651 -0.5334 -0.0341  1.3866
 1716TIP3   OH2 5111   4.746   3.838   3.028  0.3814  0.4329  0.4289
 1716TIP3    H1 5112   4.751   3.745   3.047  2.2766  0.2633 -0.6896
 1716TIP3    H2 5113   4.749   3.880   3.114 -0.0987 -0.5047  0.9183
 1717TIP3   OH2 5114   4.700   5.743   2.618 -0.0867  0.0050  0.0794
 1717TIP3    H1 5115   4.792   5.718   2.630 -0.1440 -0.2645 -0.0281
 1717TIP3    H2 5116   4.671   5.770   2.705  1.0010  3.2858 -0.4418
 1718TIP3   OH2 5117   3.358   4.337   2.156 -0.1810  0.3787  0.1446
 1718TIP3    H1 5118   3.323   4.364   2.241 -0.5991 -1.0533  0.4549
 1718TIP3    H2 5119   3.325   4.403   2.095 -1.1255  0.6088  0.8654
 1719TIP3   OH2 5120   3.167   5.383   1.413  0.5176 -0.2367  0.1269
 1719TIP3    H1 5121   3.200   5.445   1.478  0.8918 -2.3285  2.0744
 1719TIP3    H2 5122   3.072   5.398   1.411  0.5470  0.0876  0.9150
 1720TIP3   OH2 5123   5.022   5.857   5.004 -0.2892 -0.5529  0.4644
 1720TIP3    H1 5124   5.050   5.938   4.961 -0.6468  0.7220  2.5157
 1720TIP3    H2 5125   5.103   5.807   5.016 -0.0944 -0.6289 -0.9976
 1721TIP3   OH2 5126   1.217   0.533   3.157  0.0500  0.1754  0.0046
 1721TIP3    H1 5127   1.277   0.495   3.221 -2.4186 -0.3474  2.1692
 1721TIP3    H2 5128   1.207   0.624   3.185 -0.7551  0.0511  0.1321
 1722TIP3   OH2 5129   6.804   1.705   3.356  0.0186 -0.1071 -0.0063
 1722TIP3    H1 5130   6.759   1.670   3.280  0.8219 -1.7998  0.2532
 1722TIP3    H2 5131   6.809   1.632   3.418  1.7493  0.4328  0.5687
 1723TIP3   OH2 5132   6.393   1.132   1.830  0.5982 -0.3353 -0.5261
 1723TIP3    H1 5133   6.325   1.124   1.762  0.0096 -1.9764  0.2091
 1723TIP3    H2 5134   6.447   1.054   1.819  0.0989 -0.9721  1.2934
 1724TIP3   OH2 5135   5.772   1.361   4.366 -0.3604 -0.0912 -0.3455
 1724TIP3    H1 5136   5.796   1.443   4.323 -2.3222  0.4384 -0.5075
 1724TIP3    H2 5137   5.777   1.381   4.460 -2.7049  0.8899 -0.3506
 1725TIP3   OH2 5138   3.363   1.486   0.846  0.1765  0.1851  0.2315
 1725TIP3    H1 5139   3.333   1.429   0.917  0.7013  0.1649  0.4356
 1725TIP3    H2 5140   3.457   1.495   0.860  0.3167  0.0220 -0.5730
 1726TIP3   OH2 5141   2.285   6.120   5.801  0.8243  0.5698 -1.0158
 1726TIP3    H1 5142   2.297   6.122   5.895  0.0299  0.8477 -0.9141
 1726TIP3    H2 5143   2.297   6.028   5.777 -0.3766  0.2521 -0.4432
 1727TIP3   OH2 5144   4.156   1.710   2.154  0.1119 -0.2587 -0.2800
 1727TIP3    H1 5145   4.118   1.786   2.111 -1.4104 -0.8892 -0.1052
 1727TIP3    H2 5146   4.245   1.737   2.178 -0.7980  1.8986  0.8789
 1728TIP3   OH2 5147   2.772   2.507   2.451  0.4196  0.3159 -0.5919
 1728TIP3    H1 5148   2.722   2.577   2.407 -1.7325  0.2816  1.5932
 1728TIP3    H2 5149   2.755   2.429   2.399 -0.1537  0.7042 -1.0000
 1729TIP3   OH2 5150   3.589   1.696   4.453 -0.4948  0.2963 -0.2369
 1729TIP3    H1 5151   3.560   1.665   4.540 -0.2840  0.8858  0.0472
 1729TIP3    H2 5152   3.648   1.769   4.472 -0.2884  0.3021 -0.8776
 1730TIP3   OH2 5153   1.135   4.524   0.860  0.0399 -0.0109 -0.5070
 1730TIP3    H1 5154   1.102   4.436   0.839  0.6139 -0.1330 -0.9309
 1730TIP3    H2 5155   1.130   4.529   0.955 -0.6873 -0.2264 -0.5283
 1731TIP3   OH2 5156   3.168   6.360   0.879 -0.1661  0.0131 -0.3239
 1731TIP3    H1 5157   3.195   6.352   0.788  1.1399  0.9195 -0.0523
 1731TIP3    H2 5158   3.159   6.269   0.909  0.1776 -0.3043 -1.1411
 1732TIP3   OH2 5159   2.120   6.253   1.486  0.0939  0.2416 -0.3060
 1732TIP3    H1 5160   2.041   6.234   1.435 -0.4251  2.6322 -0.4796
 1732TIP3    H2 5161   2.190   6.211   1.436 -0.9666 -1.6363 -0.3380
 1733TIP3   OH2 5162   0.994   1.306   2.693  0.0892 -0.5393 -0.1276
 1733TIP3    H1 5163   1.004   1.350   2.778  3.1098  0.1159 -0.6872
 1733TIP3    H2 5164   0.900   1.299   2.680 -0.5050 -0.7099  3.2764
 1734TIP3   OH2 5165   2.744   5.171   2.530 -0.2118 -0.4486  0.3197
 1734TIP3    H1 5166   2.755   5.130   2.444  0.9936 -1.2025  0.8105
 1734TIP3    H2 5167   2.677   5.117   2.574 -0.1153 -0.6579  0.2130
 1735TIP3   OH2 5168   6.994   1.448   5.873 -0.6531  0.0187  0.0200
 1735TIP3    H1 5169   7.025   1.524   5.824 -0.5690 -0.0128  0.0242
 1735TIP3    H2 5170   6.914   1.421   5.827 -0.5798 -0.0046 -0.0940
 1736TIP3   OH2 5171   1.575   1.649   4.860 -0.2484 -0.2136  0.5823
 1736TIP3    H1 5172   1.652   1.639   4.916 -0.0668 -1.5721  0.1147
 1736TIP3    H2 5173   1.589   1.732   4.815  0.4958 -0.0041  1.1753
 1737TIP3   OH2 5174   3.874   3.494   4.543 -0.4226  0.8138 -0.7743
 1737TIP3    H1 5175   3.941   3.554   4.575 -1.7954  2.7417 -1.3283
 1737TIP3    H2 5176   3.921   3.433   4.486  0.7495  2.6680 -1.8824
 1738TIP3   OH2 5177   4.698   1.759   2.291  0.2494  0.0476  0.0930
 1738TIP3    H1 5178   4.664   1.669   2.296  1.3224 -0.4264 -0.6805
 1738TIP3    H2 5179   4.775   1.752   2.235 -0.3440  1.6758 -0.9845
 1739TIP3   OH2 5180   6.169   5.880   0.416  0.0094 -0.4408  0.1093
 1739TIP3    H1 5181   6.223   5.958   0.404  0.2242 -0.8445 -2.0417
 1739TIP3    H2 5182   6.226   5.807   0.392 -1.1228 -0.9686 -1.1206
 1740TIP3   OH2 5183   7.209   3.809   1.487  0.0005  0.2401 -0.1100
 1740TIP3    H1 5184   7.127   3.857   1.480 -0.5382 -0.6851 -0.3693
 1740TIP3    H2 5185   7.216   3.760   1.405 -0.4570 -1.6222  0.8893
 1741TIP3   OH2 5186   0.389   4.451   5.723 -0.4439  0.0328  0.0116
 1741TIP3    H1 5187   0.401   4.542   5.751  1.3193 -0.6035  1.5588
 1741TIP3    H2 5188   0.299   4.430   5.747 -0.3228  0.8686  1.3121
 1742TIP3   OH2 5189   1.312   6.350   1.448  0.3177 -0.4221  0.3615
 1742TIP3    H1 5190   1.252   6.296   1.500 -1.0489  0.6236 -0.0449
 1742TIP3    H2 5191   1.306   6.437   1.487  0.4463  0.0246 -0.5721
 1743TIP3   OH2 5192   3.392   4.266   3.449 -0.4290 -0.8523  0.0162
 1743TIP3    H1 5193   3.312   4.235   3.491 -0.4364 -0.8976 -0.0311
 1743TIP3    H2 5194   3.388   4.362   3.456 -0.5179 -0.8515 -0.0427
 1744TIP3   OH2 5195   3.838   1.650   1.638  0.8482  0.0425  0.4400
 1744TIP3    H1 5196   3.756   1.701   1.641 -1.4308 -3.2702 -0.4986
 1744TIP3    H2 5197   3.852   1.623   1.729  0.0705 -0.5545  0.3894
 1745TIP3   OH2 5198   1.625   5.301   4.646 -0.1005  0.7187 -0.5804
 1745TIP3    H1 5199   1.700   5.270   4.697 -1.2058  0.1127  0.7320
 1745TIP3    H2 5200   1.549   5.259   4.687 -1.1697  1.3414 -1.8562
 1746TIP3   OH2 5201   7.013   2.392   1.767  0.3740  0.1115 -0.1860
 1746TIP3    H1 5202   7.079   2.429   1.708  0.6620 -0.7005 -0.3831
 1746TIP3    H2 5203   7.063   2.339   1.829  0.1041  1.2121  1.0104
 1747TIP3   OH2 5204   1.337   0.846   2.193  0.3720  0.4139 -0.1218
 1747TIP3    H1 5205   1.300   0.854   2.281  0.6443  1.2418 -0.0810
 1747TIP3    H2 5206   1.308   0.759   2.164 -0.3804  0.4514  0.4724
 1748TIP3   OH2 5207   1.388   5.464   0.028 -0.2792  0.2686 -0.6760
 1748TIP3    H1 5208   1.340   5.545   0.045  1.3981  1.5286 -1.6301
 1748TIP3    H2 5209   1.399   5.424   0.115 -2.3617  0.2830 -0.3580
 1749TIP3   OH2 5210   1.174   2.094   3.389 -0.2525  0.4359 -0.1070
 1749TIP3    H1 5211   1.181   2.082   3.483 -1.8479 -0.7417 -0.1100
 1749TIP3    H2 5212   1.179   2.006   3.352 -0.3738  0.8129 -1.0716
 1750TIP3   OH2 5213   0.644   1.442   5.077 -0.0327  0.1537  0.2046
 1750TIP3    H1 5214   0.594   1.523   5.083  0.0694  0.5301 -2.5895
 1750TIP3    H2 5215   0.626   1.409   4.989  1.2473 -1.9885  0.6685
 1751TIP3   OH2 5216   3.996   1.966   1.026  0.0890 -0.2888 -0.3191
 1751TIP3    H1 5217   3.954   2.007   1.101 -0.0948 -1.7006  0.3859
 1751TIP3    H2 5218   3.937   1.894   1.002  0.1262  0.1445 -1.8443
 1752TIP3   OH2 5219   3.723   5.957   5.331  0.2170 -0.4115  0.0271
 1752TIP3    H1 5220   3.633   5.978   5.304 -0.0166 -4.0379 -2.7474
 1752TIP3    H2 5221   3.713   5.887   5.395  1.1176 -0.0352  0.5994
 1753TIP3   OH2 5222   1.265   3.940   2.049  0.4567  0.0627 -0.0946
 1753TIP3    H1 5223   1.216   3.945   1.967 -0.1129 -0.2067  0.2248
 1753TIP3    H2 5224   1.317   4.021   2.050  0.3511  0.1425 -0.6457
 1754TIP3   OH2 5225   0.824   5.844   1.052 -0.7020 -0.4445  0.3628
 1754TIP3    H1 5226   0.868   5.763   1.078 -0.0949  0.3618  2.0482
 1754TIP3    H2 5227   0.878   5.914   1.090 -1.2582  0.7642 -0.9616
 1755TIP3   OH2 5228   2.364   0.133   4.734 -0.0998 -0.4750  0.2543
 1755TIP3    H1 5229   2.393   0.054   4.689 -0.8030 -0.4830 -0.2060
 1755TIP3    H2 5230   2.320   0.102   4.813  0.1116 -0.5134  0.3579
 1756TIP3   OH2 5231   4.268   6.101   0.308  0.0804  0.1273  0.8257
 1756TIP3    H1 5232   4.358   6.132   0.314  0.2500 -0.1040 -0.3024
 1756TIP3    H2 5233   4.218   6.178   0.279  0.0098  0.1059  0.8911
 1757TIP3   OH2 5234   3.509   1.028   3.056  0.1742  0.0313  0.3746
 1757TIP3    H1 5235   3.507   0.933   3.070 -1.0468  0.0161  0.2001
 1757TIP3    H2 5236   3.600   1.047   3.033  0.0463 -1.3536 -1.4276
 1758TIP3   OH2 5237   2.158   5.155   0.097 -0.3856  0.5061 -0.0152
 1758TIP3    H1 5238   2.177   5.137   0.005  1.0677  0.4855  0.2638
 1758TIP3    H2 5239   2.150   5.250   0.101  2.2332  0.8125  0.2295
 1759TIP3   OH2 5240   4.590   3.412   0.396  0.9181  0.3438  0.6221
 1759TIP3    H1 5241   4.499   3.414   0.366  1.6527 -0.5754 -1.9325
 1759TIP3    H2 5242   4.590   3.350   0.469 -0.4093  0.0242  0.3798
 1760TIP3   OH2 5243   6.858   2.263   2.137  0.6174  0.0518  0.6826
 1760TIP3    H1 5244   6.904   2.181   2.118  0.6679  0.2915 -0.3101
 1760TIP3    H2 5245   6.927   2.326   2.152  0.5918 -0.4473  3.3135
 1761TIP3   OH2 5246   2.275   2.079   0.927  0.2029  1.2344  0.1140
 1761TIP3    H1 5247   2.222   2.040   0.857  1.5340  0.7855 -0.6695
 1761TIP3    H2 5248   2.274   2.013   0.997  0.5721  0.7733 -0.3070
 1762TIP3   OH2 5249   0.830   4.775   4.623 -0.3009 -0.4280  0.2113
 1762TIP3    H1 5250   0.816   4.710   4.555 -0.3434  1.2287 -1.4537
 1762TIP3    H2 5251   0.746   4.783   4.668 -0.1682 -1.8003  0.7602
 1763TIP3   OH2 5252   3.683   4.192   2.847  0.0916 -0.2477 -0.2157
 1763TIP3    H1 5253   3.687   4.246   2.768  0.1447 -1.6102 -1.1905
 1763TIP3    H2 5254   3.749   4.124   2.832  0.5503 -0.1735  1.2980
 1764TIP3   OH2 5255   0.938   4.319   2.506  0.4233  0.5104  0.2874
 1764TIP3    H1 5256   0.881   4.245   2.521  1.9615 -0.6996  0.4014
 1764TIP3    H2 5257   0.895   4.369   2.436 -0.2762 -0.8835 -0.3119
 1765TIP3   OH2 5258   4.352   1.031   2.882  0.1350 -0.3901  0.4943
 1765TIP3    H1 5259   4.269   0.986   2.867 -0.3262  0.7581 -0.5036
 1765TIP3    H2 5260   4.416   0.979   2.833 -0.5302  0.4333 -1.3268
 1766TIP3   OH2 5261   1.297   6.694   2.906  0.5046 -0.3214  0.1728
 1766TIP3    H1 5262   1.255   6.719   2.988 -2.5970 -1.3972 -0.9410
 1766TIP3    H2 5263   1.298   6.598   2.908  1.0620 -0.3479 -0.7382
 1767TIP3   OH2 5264   3.511   4.907   0.701 -0.3643 -0.2898 -0.3765
 1767TIP3    H1 5265   3.447   4.971   0.671 -0.1651  0.1836  0.1886
 1767TIP3    H2 5266   3.593   4.956   0.706 -0.0084 -0.8266 -0.8454
 1768TIP3   OH2 5267   4.793   0.695   5.637  0.0096  0.2499  0.1465
 1768TIP3    H1 5268   4.872   0.665   5.591 -0.4996 -1.4964  0.3484
 1768TIP3    H2 5269   4.781   0.631   5.707 -0.1293  1.9622  1.7785
 1769TIP3   OH2 5270   2.020   6.456   1.213 -0.5060 -0.4718 -0.5909
 1769TIP3    H1 5271   2.004   6.381   1.270 -2.1240 -0.2845 -0.7541
 1769TIP3    H2 5272   2.025   6.531   1.272  0.5821 -0.6088 -0.4784
 1770TIP3   OH2 5273   1.601   0.105   3.681 -0.2172 -0.4613 -0.4073
 1770TIP3    H1 5274   1.561   0.044   3.619  3.3616 -1.4369 -1.9619
 1770TIP3    H2 5275   1.648   0.050   3.743  2.3955  0.5987 -1.3402
 1771TIP3   OH2 5276   4.334   6.741   2.101  0.6086  0.2865  0.1627
 1771TIP3    H1 5277   4.259   6.781   2.145  1.5086  2.0027  0.2147
 1771TIP3    H2 5278   4.296   6.693   2.028 -0.6442 -0.0479  0.9987
 1772TIP3   OH2 5279   3.281   1.838   1.607  0.1764 -0.2371  0.1603
 1772TIP3    H1 5280   3.271   1.751   1.568 -0.2002  0.5592 -1.6050
 1772TIP3    H2 5281   3.206   1.887   1.575 -0.0440  0.5329  1.7899
 1773TIP3   OH2 5282   2.770   5.917   1.967  0.8399  0.3424  0.3874
 1773TIP3    H1 5283   2.791   5.976   2.038  1.7833 -0.3511  0.6975
 1773TIP3    H2 5284   2.788   5.967   1.887 -1.7255  1.6892  0.5464
 1774TIP3   OH2 5285   6.409   6.553   4.381  0.0884  0.3382 -0.1406
 1774TIP3    H1 5286   6.473   6.526   4.316 -0.0701  0.5723 -0.3948
 1774TIP3    H2 5287   6.375   6.636   4.349 -1.0089 -0.2240 -0.4814
 1775TIP3   OH2 5288   3.906   5.384   4.568  0.2803 -0.7286 -0.1459
 1775TIP3    H1 5289   3.849   5.460   4.562 -1.3193 -1.8437  0.4166
 1775TIP3    H2 5290   3.851   5.310   4.543  1.1263 -1.9803  1.4611
 1776TIP3   OH2 5291   7.084   4.234   0.948  0.4281 -0.7193  0.5119
 1776TIP3    H1 5292   7.156   4.279   0.990  0.4136 -0.9296  0.7658
 1776TIP3    H2 5293   7.123   4.156   0.908  0.5362 -0.2498 -0.3332
 1777TIP3   OH2 5294   0.793   3.953   0.684  0.3541 -0.3047 -0.5463
 1777TIP3    H1 5295   0.753   3.896   0.750 -1.8613  1.5288 -0.1626
 1777TIP3    H2 5296   0.862   4.000   0.731 -1.2086  0.9956  0.5540
 1778TIP3   OH2 5297   7.054   1.449   2.689  0.2555 -0.3131 -0.0583
 1778TIP3    H1 5298   6.960   1.430   2.691  0.0428  0.7214  0.6291
 1778TIP3    H2 5299   7.095   1.367   2.660 -0.7523 -1.1813  0.9005
 1779TIP3   OH2 5300   5.088   2.683   5.779 -0.2473  0.6187  0.5511
 1779TIP3    H1 5301   5.170   2.733   5.787  0.5624 -0.4979 -0.5355
 1779TIP3    H2 5302   5.113   2.592   5.793 -1.6155  0.4076  1.9181
 1780TIP3   OH2 5303   0.864   0.126   2.238 -0.0791 -0.7083 -0.1849
 1780TIP3    H1 5304   0.838   0.036   2.216 -1.3304 -0.3509 -0.2640
 1780TIP3    H2 5305   0.884   0.123   2.331  0.6480 -1.2240 -0.3444
 1781TIP3   OH2 5306   1.950   3.994   2.734  0.5740  0.0531 -0.4299
 1781TIP3    H1 5307   1.955   4.089   2.744 -0.5060  0.0540  0.3054
 1781TIP3    H2 5308   2.024   3.971   2.679  2.5586  0.9942  1.6817
 1782TIP3   OH2 5309   5.884   0.397   1.699  0.1053  0.1574 -0.0325
 1782TIP3    H1 5310   5.876   0.354   1.784  0.3413  0.6082  0.2228
 1782TIP3    H2 5311   5.837   0.340   1.639 -1.9039  0.8924  0.7628
 1783TIP3   OH2 5312   4.984   3.150   4.332  0.6927  0.5714 -0.2029
 1783TIP3    H1 5313   5.043   3.121   4.401 -0.4956 -0.9929  0.2125
 1783TIP3    H2 5314   4.911   3.191   4.379  0.9870  1.6490 -0.6639
 1784TIP3   OH2 5315   4.535   1.463   5.010  0.0589 -0.1116  0.1453
 1784TIP3    H1 5316   4.605   1.436   5.069 -0.4058 -0.7984  0.4005
 1784TIP3    H2 5317   4.457   1.467   5.066 -0.2485 -0.0738 -0.2776
 1785TIP3   OH2 5318   4.123   3.401   4.449  0.2201 -0.2533  0.0487
 1785TIP3    H1 5319   4.182   3.327   4.437 -1.6486 -1.7694 -0.2062
 1785TIP3    H2 5320   4.179   3.471   4.483  1.9371 -1.9420  0.8686
 1786TIP3   OH2 5321   2.446   4.166   4.756  0.4280  0.1912  0.0783
 1786TIP3    H1 5322   2.378   4.120   4.805 -0.8068 -0.0755 -1.7920
 1786TIP3    H2 5323   2.471   4.104   4.687  1.5070  0.8745 -0.1562
 1787TIP3   OH2 5324   2.964   6.565   2.253 -0.0295  0.2394 -0.0460
 1787TIP3    H1 5325   2.935   6.513   2.179 -3.0172 -1.5368  2.1783
 1787TIP3    H2 5326   3.006   6.502   2.312  1.6760  1.4944  0.1792
 1788TIP3   OH2 5327   4.309   6.000   4.459 -0.3365  0.1537 -0.1186
 1788TIP3    H1 5328   4.277   5.918   4.499  1.3956  0.8258  2.9930
 1788TIP3    H2 5329   4.385   5.974   4.407 -2.3665 -0.6857 -2.8860
 1789TIP3   OH2 5330   5.126   5.389   3.116  0.3459  0.2259 -0.5436
 1789TIP3    H1 5331   5.204   5.372   3.168 -1.4958 -0.3100  2.2838
 1789TIP3    H2 5332   5.090   5.302   3.097  0.7153  0.4284 -2.4382
 1790TIP3   OH2 5333   3.805   4.634   4.453 -0.3671  0.2970  0.3092
 1790TIP3    H1 5334   3.828   4.577   4.527 -2.4290  0.0942  0.8437
 1790TIP3    H2 5335   3.760   4.576   4.391 -0.2966  0.8454 -0.2618
 1791TIP3   OH2 5336   3.995   1.590   3.610 -0.3819  0.8903 -0.0867
 1791TIP3    H1 5337   4.056   1.663   3.604 -2.7973  3.0202 -0.0328
 1791TIP3    H2 5338   3.992   1.570   3.704  0.6909  0.2978 -0.1588
 1792TIP3   OH2 5339   0.552   1.732   4.184  0.2312 -0.2589 -0.7688
 1792TIP3    H1 5340   0.603   1.696   4.111 -1.0526  3.0852 -3.5575
 1792TIP3    H2 5341   0.464   1.696   4.172  0.3645 -0.9980  0.2457
 1793TIP3   OH2 5342   4.479   0.724   4.624  0.0565 -0.1682  0.1474
 1793TIP3    H1 5343   4.458   0.634   4.647 -2.1570  0.6269  1.5642
 1793TIP3    H2 5344   4.493   0.768   4.708  0.1671  1.0077 -0.4635
 1794TIP3   OH2 5345   6.995   3.149   2.025 -0.3847  0.3285 -0.2720
 1794TIP3    H1 5346   6.940   3.145   1.947 -0.8226  0.1988  0.0402
 1794TIP3    H2 5347   7.047   3.068   2.022 -1.0785 -0.1377  0.0638
 1795TIP3   OH2 5348   4.304   3.616   4.422  0.3911  0.3536 -0.1762
 1795TIP3    H1 5349   4.366   3.565   4.474  0.6906 -0.2179 -1.0529
 1795TIP3    H2 5350   4.325   3.707   4.442  0.6971  0.1502  0.4640
 1796TIP3   OH2 5351   3.467   6.422   1.374 -0.3160 -0.1238  0.1335
 1796TIP3    H1 5352   3.485   6.488   1.440 -0.0861 -0.1257  0.0747
 1796TIP3    H2 5353   3.520   6.448   1.298 -0.9891  0.1723 -0.2382
 1797TIP3   OH2 5354   5.760   6.154   0.240 -0.2488  0.7863  0.1758
 1797TIP3    H1 5355   5.683   6.211   0.240 -0.8904 -0.0472  1.1446
 1797TIP3    H2 5356   5.821   6.197   0.300 -0.8943  0.2891  1.2341
 1798TIP3   OH2 5357   0.579   4.948   0.920 -0.3061  0.0171 -0.2694
 1798TIP3    H1 5358   0.621   5.027   0.885 -1.2851  0.2227 -1.0002
 1798TIP3    H2 5359   0.596   4.881   0.854  0.0161 -0.2462  0.0742
 1799TIP3   OH2 5360   5.731   6.816   5.623  0.0529 -0.1487 -0.5121
 1799TIP3    H1 5361   5.672   6.776   5.687 -1.2478  2.5269  0.1247
 1799TIP3    H2 5362   5.696   6.789   5.538 -1.2476  0.2191 -0.1191
 1800TIP3   OH2 5363   5.686   0.089   1.022  0.1306  0.3125  0.1256
 1800TIP3    H1 5364   5.769   0.135   1.012  0.7957 -0.3785  2.1611
 1800TIP3    H2 5365   5.689   0.019   0.957 -0.1236  1.9563 -1.7639
 1801TIP3   OH2 5366   2.928   6.269   0.651  0.5305  0.0685 -0.2995
 1801TIP3    H1 5367   2.846   6.237   0.614  0.7962 -0.1374 -0.7054
 1801TIP3    H2 5368   2.995   6.209   0.619  1.2449  1.7920 -2.2072
 1802TIP3   OH2 5369   3.694   5.422   1.723 -0.1357 -0.0340 -0.2866
 1802TIP3    H1 5370   3.762   5.473   1.768 -1.6751  1.2476  0.7161
 1802TIP3    H2 5371   3.627   5.408   1.790 -0.9029 -1.1789 -1.2650
 1803TIP3   OH2 5372   3.510   0.837   0.188 -0.1389  0.0895 -0.1438
 1803TIP3    H1 5373   3.594   0.882   0.199  0.4218 -0.6204 -1.3209
 1803TIP3    H2 5374   3.477   0.869   0.104 -1.0205  0.2949  0.2708
 1804TIP3   OH2 5375   3.315   3.307   4.179 -0.1982 -1.0953  0.4967
 1804TIP3    H1 5376   3.399   3.302   4.133 -0.7301 -2.0736 -0.4052
 1804TIP3    H2 5377   3.339   3.314   4.272  0.8812  0.1730  0.1460
 1805TIP3   OH2 5378   5.711   4.677   1.532  0.1915 -0.5401  0.0409
 1805TIP3    H1 5379   5.648   4.749   1.535  1.0461  0.2292 -0.0221
 1805TIP3    H2 5380   5.754   4.687   1.447 -0.5079 -1.8585 -0.4946
 1806TIP3   OH2 5381   2.727   4.175   4.515  0.1491 -0.2216 -0.4575
 1806TIP3    H1 5382   2.705   4.244   4.578  1.6047 -0.3388  0.2287
 1806TIP3    H2 5383   2.676   4.099   4.544  0.4124 -0.1259  0.2954
 1807TIP3   OH2 5384   5.801   0.415   2.361  0.4036 -0.0742  0.1215
 1807TIP3    H1 5385   5.727   0.438   2.305  0.0556  0.4089  0.7658
 1807TIP3    H2 5386   5.819   0.495   2.410  1.0024 -0.3564  0.3658
 1808TIP3   OH2 5387   6.570   2.626   1.888  0.2934 -0.0834 -0.1872
 1808TIP3    H1 5388   6.521   2.599   1.966  0.0172  0.9026 -0.0072
 1808TIP3    H2 5389   6.643   2.565   1.883  0.0175 -0.4868  0.5384
 1809TIP3   OH2 5390   6.161   1.555   1.332  0.0874  0.1848 -0.2131
 1809TIP3    H1 5391   6.120   1.620   1.389 -0.5526  0.1696 -0.6452
 1809TIP3    H2 5392   6.244   1.535   1.375 -0.0533  0.7154  0.3279
 1810TIP3   OH2 5393   3.390   4.865   2.721 -0.3135 -0.4715  0.7214
 1810TIP3    H1 5394   3.472   4.817   2.709 -0.1019  0.2728 -1.0990
 1810TIP3    H2 5395   3.369   4.899   2.634 -2.5240 -0.5725  1.1575
 1811TIP3   OH2 5396   0.980   4.785   1.368 -0.6624 -0.0004  0.4054
 1811TIP3    H1 5397   1.056   4.831   1.331 -1.2580 -0.3803 -1.3454
 1811TIP3    H2 5398   1.017   4.731   1.438  0.7140 -0.2716 -0.4908
 1812TIP3   OH2 5399   0.859   2.568   2.348 -0.3761 -0.5421 -0.6829
 1812TIP3    H1 5400   0.826   2.652   2.379  1.1841 -0.6541  1.5214
 1812TIP3    H2 5401   0.782   2.510   2.352 -0.9740  0.2687 -0.1106
 1813TIP3   OH2 5402   0.688   0.084   4.999  0.1286  0.1573  0.3103
 1813TIP3    H1 5403   0.758   0.061   4.938  0.6623 -0.8888  1.2722
 1813TIP3    H2 5404   0.643   0.157   4.958 -0.3359 -1.2960 -1.9526
 1814TIP3   OH2 5405   2.087   1.667   3.232  0.1436 -0.0867 -0.2087
 1814TIP3    H1 5406   2.123   1.648   3.145 -1.2712 -1.1440 -0.6138
 1814TIP3    H2 5407   2.137   1.742   3.263  0.9813  0.0403 -1.7540
 1815TIP3   OH2 5408   6.809   2.046   1.936 -0.7009 -0.3352 -0.0247
 1815TIP3    H1 5409   6.889   1.994   1.932 -1.4362 -1.6600  1.2641
 1815TIP3    H2 5410   6.759   2.007   2.008 -2.2723  0.7837 -0.4572
 1816TIP3   OH2 5411   6.794   2.978   4.871 -0.2345 -0.4684 -0.1759
 1816TIP3    H1 5412   6.868   3.021   4.914  0.4936  0.1398 -1.9529
 1816TIP3    H2 5413   6.716   3.019   4.910  0.4031  0.6136 -0.0124
 1817TIP3   OH2 5414   5.793   1.898   4.842 -0.1840 -0.1535 -0.7508
 1817TIP3    H1 5415   5.874   1.874   4.797 -0.3221  0.3827 -1.2963
 1817TIP3    H2 5416   5.768   1.982   4.803  0.7491  1.3724  1.6661
 1818TIP3   OH2 5417   1.389   2.708   5.313  0.0005 -0.3916 -0.1328
 1818TIP3    H1 5418   1.425   2.762   5.383 -0.9636 -1.1234  0.9497
 1818TIP3    H2 5419   1.311   2.667   5.350  0.0095 -1.5787 -1.3090
 1819TIP3   OH2 5420  -0.011   3.383   2.647  0.0161  0.0721  0.0407
 1819TIP3    H1 5421  -0.028   3.314   2.583  0.1316 -1.3591  1.4886
 1819TIP3    H2 5422   0.080   3.408   2.632  0.0561 -0.2729 -0.3143
 1820TIP3   OH2 5423   3.590   5.089   3.526 -0.0060  0.0186 -0.3551
 1820TIP3    H1 5424   3.631   5.172   3.502  1.6316 -0.4533  0.6680
 1820TIP3    H2 5425   3.573   5.096   3.620 -0.2727 -0.6448 -0.3451
 1821TIP3   OH2 5426   2.478   0.795   3.444 -0.4929 -0.5060  0.0153
 1821TIP3    H1 5427   2.457   0.783   3.536  0.0373  1.3779  0.4220
 1821TIP3    H2 5428   2.574   0.785   3.440 -0.5940 -1.4055 -0.4965
 1822TIP3   OH2 5429   6.845   5.007   4.863 -0.2501 -0.1654  0.2165
 1822TIP3    H1 5430   6.880   4.998   4.774  0.4312  0.9993  0.3451
 1822TIP3    H2 5431   6.851   4.919   4.900  1.4961 -0.2253 -0.1548
 1823TIP3   OH2 5432   0.567   0.684   5.228 -0.0451  0.6824 -0.1907
 1823TIP3    H1 5433   0.654   0.711   5.199  0.5697  0.7922  1.6329
 1823TIP3    H2 5434   0.579   0.596   5.263 -0.3853  1.1465  1.1679
 1824TIP3   OH2 5435   5.440   0.262   5.240 -0.3502  0.0407 -0.3185
 1824TIP3    H1 5436   5.444   0.223   5.328  2.2849  0.1677 -0.2937
 1824TIP3    H2 5437   5.378   0.334   5.248  0.0489  0.2227  1.5199
 1825TIP3   OH2 5438   6.446   0.155   4.925 -0.1187  0.3369 -0.2016
 1825TIP3    H1 5439   6.404   0.075   4.892  1.1242 -0.4932  0.1924
 1825TIP3    H2 5440   6.372   0.211   4.950 -1.0240 -0.4740 -0.9482
 1826TIP3   OH2 5441   5.819   0.502   0.653  0.0824  0.1184 -0.0768
 1826TIP3    H1 5442   5.860   0.539   0.574  0.2808  0.2877  0.1058
 1826TIP3    H2 5443   5.773   0.576   0.692 -1.6788 -0.3843 -1.0886
 1827TIP3   OH2 5444   4.488   0.854   1.936 -0.1610 -0.0175 -0.2515
 1827TIP3    H1 5445   4.456   0.876   2.024  0.9807 -0.2418  0.2443
 1827TIP3    H2 5446   4.543   0.928   1.911 -0.3299 -0.0432 -0.7031
 1828TIP3   OH2 5447   1.371   4.813   0.943 -0.2224 -0.8031  0.2440
 1828TIP3    H1 5448   1.308   4.782   0.877 -1.8778  2.9467 -0.1754
 1828TIP3    H2 5449   1.334   4.785   1.026 -2.6612  1.3704  0.0164
 1829TIP3   OH2 5450   7.018   6.776   4.455 -0.0384 -0.1023 -0.2364
 1829TIP3    H1 5451   6.940   6.831   4.441 -0.0451 -0.0023  0.1707
 1829TIP3    H2 5452   6.983   6.687   4.462  0.0528 -0.2685 -1.7003
 1830TIP3   OH2 5453   3.740   4.329   4.962  0.5641  0.0901  0.3396
 1830TIP3    H1 5454   3.835   4.335   4.948  0.7187 -1.5020  0.5291
 1830TIP3    H2 5455   3.709   4.276   4.888 -0.1403  0.4127  0.4054
 1831TIP3   OH2 5456   0.717   2.497   3.869  0.6348  0.3105  0.2500
 1831TIP3    H1 5457   0.727   2.591   3.883  0.9070  0.4627 -0.8845
 1831TIP3    H2 5458   0.800   2.460   3.897  0.5446  0.4044  0.6560
 1832TIP3   OH2 5459   2.002   5.711   2.745  0.3856  0.1013  0.3909
 1832TIP3    H1 5460   1.992   5.771   2.819  0.9083  1.6424 -0.7573
 1832TIP3    H2 5461   2.095   5.689   2.744  0.8711  1.9429 -1.1441
 1833TIP3   OH2 5462   1.505   2.568   2.197  0.3304 -0.2487  0.1099
 1833TIP3    H1 5463   1.551   2.634   2.144  0.9107 -1.6920 -1.2970
 1833TIP3    H2 5464   1.429   2.613   2.232 -0.4470  0.6801 -2.5241
 1834TIP3   OH2 5465   0.378   1.973   3.779 -0.2498  0.2455 -0.4051
 1834TIP3    H1 5466   0.343   2.051   3.736  0.5369  0.4862 -0.6124
 1834TIP3    H2 5467   0.357   1.902   3.718 -0.9296  0.2929 -0.2357
 1835TIP3   OH2 5468   2.906   5.140   1.851  0.7831  0.0031  0.1782
 1835TIP3    H1 5469   2.851   5.211   1.883 -0.4975 -0.3270 -1.2029
 1835TIP3    H2 5470   2.897   5.071   1.918 -0.1821  0.0997  0.1548
 1836TIP3   OH2 5471   0.186   0.883   0.219  0.1393 -0.1339  0.6219
 1836TIP3    H1 5472   0.274   0.865   0.186 -0.4061 -0.3419 -0.8199
 1836TIP3    H2 5473   0.164   0.806   0.271  0.4651 -0.5068  0.2241
 1837TIP3   OH2 5474   1.526   3.275   5.183 -0.6700  0.1085  0.8256
 1837TIP3    H1 5475   1.547   3.368   5.185  0.8190 -0.1772 -0.2791
 1837TIP3    H2 5476   1.479   3.263   5.101  1.3409 -0.5123 -0.2854
 1838TIP3   OH2 5477   4.232   3.583   5.652 -0.3560  0.1262  0.1584
 1838TIP3    H1 5478   4.182   3.577   5.570  1.9146  1.1246 -1.4298
 1838TIP3    H2 5479   4.221   3.497   5.693 -0.2792 -1.0148 -2.0448
 1839TIP3   OH2 5480   1.963   6.457   0.735  0.2467  0.0339 -0.2321
 1839TIP3    H1 5481   1.978   6.535   0.681 -4.2324 -0.1264 -2.1189
 1839TIP3    H2 5482   1.901   6.486   0.802  0.1391 -1.4476  0.3365
 1840TIP3   OH2 5483   0.106   0.632   1.316  0.3365  0.4317  0.6079
 1840TIP3    H1 5484   0.179   0.620   1.256  1.4792  0.1420  2.0039
 1840TIP3    H2 5485   0.118   0.563   1.382  0.0973  1.7651  2.1032
 1841TIP3   OH2 5486   0.664   6.716   3.828 -0.3697 -0.7519 -0.1830
 1841TIP3    H1 5487   0.719   6.687   3.901 -2.5503  0.8770  2.2488
 1841TIP3    H2 5488   0.606   6.641   3.811  0.7144 -1.4622 -0.9391
 1842TIP3   OH2 5489   2.019   2.550   5.298  0.5089 -0.0080  0.0920
 1842TIP3    H1 5490   2.102   2.596   5.288  0.8273 -0.7753 -0.9333
 1842TIP3    H2 5491   2.019   2.485   5.228 -0.2967 -1.0140  0.9975
 1843TIP3   OH2 5492   1.241   0.631   0.932 -0.3944 -0.4374  0.2484
 1843TIP3    H1 5493   1.330   0.647   0.900 -1.1133  1.4021 -1.0110
 1843TIP3    H2 5494   1.234   0.536   0.939  1.5905 -0.6171  0.1814
 1844TIP3   OH2 5495   3.976   1.224   2.123  0.3019  0.0023  0.1428
 1844TIP3    H1 5496   3.903   1.262   2.075  1.2366  2.1178  0.2834
 1844TIP3    H2 5497   4.053   1.275   2.095  1.4566 -1.0830  1.1932
 1845TIP3   OH2 5498   0.434   4.482   5.027 -0.0679 -0.3002 -0.2842
 1845TIP3    H1 5499   0.513   4.531   5.050 -0.5699  0.4653 -0.1791
 1845TIP3    H2 5500   0.410   4.436   5.107  0.5982 -1.0036 -0.4770
 1846TIP3   OH2 5501   4.358   3.138   2.480  0.0706  0.2696  0.3596
 1846TIP3    H1 5502   4.358   3.069   2.414 -1.9353 -0.2294  0.8214
 1846TIP3    H2 5503   4.299   3.106   2.549 -0.7677  2.3343  0.6852
 1847TIP3   OH2 5504   1.945   0.154   1.197 -0.3624  0.6243  0.3715
 1847TIP3    H1 5505   1.983   0.070   1.224 -1.3178 -0.1996 -0.7393
 1847TIP3    H2 5506   1.896   0.134   1.117 -1.7555  1.9660  0.8373
 1848TIP3   OH2 5507   0.053   4.246   3.090  0.1405  0.0898 -0.2383
 1848TIP3    H1 5508  -0.028   4.205   3.059  0.4813 -0.0820 -0.9323
 1848TIP3    H2 5509   0.090   4.182   3.150  0.1318 -0.1554 -0.4908
 1849TIP3   OH2 5510   6.624   1.697   5.381 -0.0056 -0.1263 -0.2785
 1849TIP3    H1 5511   6.660   1.775   5.423 -2.7253  0.7300  0.6781
 1849TIP3    H2 5512   6.635   1.628   5.446  0.5742 -0.0487 -0.2928
 1850TIP3   OH2 5513   0.563   3.195   1.900  0.0646  0.3986  0.0006
 1850TIP3    H1 5514   0.557   3.204   1.805  2.5803 -2.9658 -0.6484
 1850TIP3    H2 5515   0.476   3.164   1.927 -0.7644  1.6600 -1.0826
 1851TIP3   OH2 5516   1.110   2.565   2.488 -0.4377 -0.1127  0.1970
 1851TIP3    H1 5517   1.023   2.565   2.448 -1.3429  0.9837  2.0325
 1851TIP3    H2 5518   1.167   2.606   2.423 -1.9609  2.1802  0.1913
 1852TIP3   OH2 5519   6.605   6.591   4.817  0.0265  0.3488  0.4952
 1852TIP3    H1 5520   6.567   6.648   4.884 -0.3685 -0.1553  0.7073
 1852TIP3    H2 5521   6.537   6.585   4.750  0.2926  0.5861  0.2028
 1853TIP3   OH2 5522   1.326   2.744   5.687  0.4450 -0.3900 -0.2787
 1853TIP3    H1 5523   1.272   2.696   5.750 -1.3695  0.8610 -0.7944
 1853TIP3    H2 5524   1.414   2.740   5.723  0.0745 -2.6343  0.5419
 1854TIP3   OH2 5525   2.284   0.991   2.669 -1.0922  0.1585 -0.1277
 1854TIP3    H1 5526   2.283   1.022   2.759  0.5673  1.1066 -0.3929
 1854TIP3    H2 5527   2.292   0.895   2.677 -1.9360  0.1428  0.7078
 1855TIP3   OH2 5528   0.763   3.935   4.876  0.1809  1.4200 -0.0954
 1855TIP3    H1 5529   0.821   3.871   4.835  0.8661  0.9182  1.6139
 1855TIP3    H2 5530   0.819   4.010   4.894 -0.2134  1.8019 -0.4276
 1856TIP3   OH2 5531   4.612   3.924   5.806  0.1488 -0.0738 -0.0330
 1856TIP3    H1 5532   4.596   4.006   5.853  0.0001 -0.7682  1.1614
 1856TIP3    H2 5533   4.531   3.906   5.759  0.0753  0.3040 -0.0527
 1857TIP3   OH2 5534   5.575   4.680   5.856  0.6090 -0.5498  0.0447
 1857TIP3    H1 5535   5.487   4.703   5.887  0.5516 -0.5619 -0.1079
 1857TIP3    H2 5536   5.560   4.611   5.792  0.8475 -1.6677  1.1609
 1858TIP3   OH2 5537   3.185   3.456   2.654 -0.0325  0.0487 -0.0421
 1858TIP3    H1 5538   3.234   3.398   2.596 -1.4748 -0.1088 -1.1674
 1858TIP3    H2 5539   3.217   3.544   2.631 -1.2559  0.0761 -1.8186
 1859TIP3   OH2 5540   2.157   5.850   0.335  0.2662  0.0312 -0.0122
 1859TIP3    H1 5541   2.225   5.829   0.400  0.1091  1.0915  0.5236
 1859TIP3    H2 5542   2.076   5.856   0.386  0.1861  1.1502 -0.2442
 1860TIP3   OH2 5543   0.480   3.281   1.349  0.6190 -0.0198  0.0504
 1860TIP3    H1 5544   0.496   3.214   1.283  0.1003  0.5418 -0.6549
 1860TIP3    H2 5545   0.535   3.355   1.323  0.6497  0.0942  0.4265
 1861TIP3   OH2 5546   1.174   3.397   5.189 -0.0144 -0.0832  0.1241
 1861TIP3    H1 5547   1.183   3.316   5.239  3.1552 -0.0352 -0.1849
 1861TIP3    H2 5548   1.165   3.368   5.098 -0.2319 -0.0717  0.1394
 1862TIP3   OH2 5549   2.526   0.225   5.367 -0.5205 -0.3387 -0.5226
 1862TIP3    H1 5550   2.618   0.242   5.387 -0.1147 -2.2639 -0.6095
 1862TIP3    H2 5551   2.515   0.131   5.379 -2.4363 -0.1849 -0.7273
 1863TIP3   OH2 5552   5.181   6.595   2.681  0.4702  0.0589 -0.5990
 1863TIP3    H1 5553   5.138   6.509   2.683  0.5556 -0.1082  3.6553
 1863TIP3    H2 5554   5.116   6.653   2.642 -0.7683 -1.4341 -0.8787
 1864TIP3   OH2 5555   4.372   0.081   4.927  0.0808 -0.7132  0.4764
 1864TIP3    H1 5556   4.392  -0.012   4.920  1.5687 -0.5953  2.2962
 1864TIP3    H2 5557   4.453   0.125   4.901 -0.6277  0.1017 -0.4357
 1865TIP3   OH2 5558   2.652   0.599   0.034  0.1578  0.0656 -0.1233
 1865TIP3    H1 5559   2.588   0.631  -0.030 -1.1404 -1.0862  0.5461
 1865TIP3    H2 5560   2.607   0.528   0.079  1.3615  0.2640  1.4705
 1866TIP3   OH2 5561   1.635   6.179   3.654 -0.6452  0.3218  0.2844
 1866TIP3    H1 5562   1.620   6.225   3.571  1.4091 -0.0155 -0.3425
 1866TIP3    H2 5563   1.661   6.248   3.715  1.1280  0.2367 -0.3020
 1867TIP3   OH2 5564   5.580   1.345   5.553  0.8076 -0.2858 -0.0179
 1867TIP3    H1 5565   5.612   1.302   5.632  1.1629 -0.1418 -0.0815
 1867TIP3    H2 5566   5.612   1.435   5.560  0.2504 -0.0909  0.0111
 1868TIP3   OH2 5567   3.179   4.890   0.054 -0.0554  0.3194 -0.1157
 1868TIP3    H1 5568   3.120   4.852  -0.011 -1.9116  2.4803  0.1947
 1868TIP3    H2 5569   3.126   4.955   0.100  1.1770 -1.0902  3.6255
 1869TIP3   OH2 5570   0.641   1.990   1.193  0.0687 -0.0092 -0.0103
 1869TIP3    H1 5571   0.724   1.953   1.161 -0.4649 -0.3937 -1.0285
 1869TIP3    H2 5572   0.602   1.919   1.244 -1.3107 -1.2541 -2.5962
 1870TIP3   OH2 5573   1.771   1.229   5.432  0.2082  0.1009 -0.3269
 1870TIP3    H1 5574   1.681   1.253   5.454  0.6554  1.8178 -0.2645
 1870TIP3    H2 5575   1.819   1.238   5.514  0.5404 -0.3167 -0.4724
 1871TIP3   OH2 5576   3.834   2.343   0.299 -0.3254  0.2331  0.1831
 1871TIP3    H1 5577   3.829   2.296   0.216 -1.3225  0.7800 -0.0781
 1871TIP3    H2 5578   3.799   2.282   0.364  3.6004 -1.5835  0.8942
 1872TIP3   OH2 5579   6.571   4.261   4.026  0.1610 -0.1567  0.3257
 1872TIP3    H1 5580   6.585   4.184   3.972  0.2304  0.9436 -1.2725
 1872TIP3    H2 5581   6.511   4.316   3.976  2.6554  2.3333 -0.1576
 1873TIP3   OH2 5582   5.832   3.281   4.755  0.2860  0.3312 -0.5935
 1873TIP3    H1 5583   5.797   3.213   4.812  1.6450  0.0699 -0.0419
 1873TIP3    H2 5584   5.917   3.248   4.726  0.0381  0.8829 -2.0061
 1874TIP3   OH2 5585   2.383   6.182   4.414  0.0527 -0.2089 -0.1588
 1874TIP3    H1 5586   2.458   6.217   4.463  0.5181  0.6442 -1.4043
 1874TIP3    H2 5587   2.347   6.113   4.470 -0.1734  1.4657  1.8861
 1875TIP3   OH2 5588   6.488   0.161   2.560 -0.1355 -0.1294  0.2717
 1875TIP3    H1 5589   6.541   0.194   2.487 -2.4610  0.6038 -1.1827
 1875TIP3    H2 5590   6.501   0.225   2.630  0.2145  0.5182 -0.3701
 1876TIP3   OH2 5591   4.319   4.026   2.235  0.6260 -0.2361 -0.3798
 1876TIP3    H1 5592   4.321   3.931   2.251  1.7136 -0.1972 -0.2025
 1876TIP3    H2 5593   4.250   4.038   2.169 -2.1152 -0.7169  2.1565
 1877TIP3   OH2 5594   4.308   1.137   5.271 -0.3062  0.2831  0.2852
 1877TIP3    H1 5595   4.355   1.169   5.194  0.0477  3.1082  1.5354
 1877TIP3    H2 5596   4.221   1.115   5.238  0.1682  0.3524 -1.1014
 1878TIP3   OH2 5597   6.770   0.621   3.937  0.4919  0.3713 -0.5575
 1878TIP3    H1 5598   6.724   0.537   3.926 -0.0139  0.1758  2.2549
 1878TIP3    H2 5599   6.738   0.675   3.865 -0.0346 -1.4785 -1.7891
 1879TIP3   OH2 5600   6.098   2.212   1.254  0.2480  0.4194 -0.1879
 1879TIP3    H1 5601   6.176   2.157   1.257  0.4714  0.6182 -1.7737
 1879TIP3    H2 5602   6.129   2.297   1.286  0.6005  0.4124 -0.5032
 1880TIP3   OH2 5603   3.702   0.658   4.952  0.1306 -0.3449  0.4697
 1880TIP3    H1 5604   3.781   0.615   4.984  1.8222  0.2840 -2.5055
 1880TIP3    H2 5605   3.732   0.743   4.921 -1.7102 -0.0683 -0.7179
 1881TIP3   OH2 5606   5.755   0.886   1.828  0.2909  0.0834  0.2530
 1881TIP3    H1 5607   5.698   0.940   1.883 -0.0997  0.9024 -0.8986
 1881TIP3    H2 5608   5.843   0.904   1.859  0.1712  1.4387 -0.1227
 1882TIP3   OH2 5609   2.362   6.170   3.678 -0.1386 -0.2377 -0.7292
 1882TIP3    H1 5610   2.288   6.212   3.723  0.2747  0.7539 -0.9385
 1882TIP3    H2 5611   2.385   6.231   3.608  1.3443 -0.1642 -0.2114
 1883TIP3   OH2 5612   2.389   0.946   2.394 -0.4407  0.5400 -0.5058
 1883TIP3    H1 5613   2.422   0.969   2.481 -0.5352 -0.2275 -0.2556
 1883TIP3    H2 5614   2.436   0.866   2.371 -2.5946 -1.0006  0.1769
 1884TIP3   OH2 5615   0.794   0.364   0.202  0.1213  0.6905  0.3349
 1884TIP3    H1 5616   0.856   0.329   0.138  2.0579  0.5566  2.1772
 1884TIP3    H2 5617   0.818   0.456   0.212  0.8574  0.3544  1.9409
 1885TIP3   OH2 5618   5.586   3.442   4.182 -0.3650  0.2452  0.0316
 1885TIP3    H1 5619   5.672   3.442   4.223 -0.0726 -1.5714 -0.4946
 1885TIP3    H2 5620   5.550   3.528   4.203  1.5700  1.0637  0.2507
 1886TIP3   OH2 5621   5.435   4.199   2.599  0.0627  1.0469  0.1749
 1886TIP3    H1 5622   5.473   4.189   2.512 -1.4237  0.7646 -0.4754
 1886TIP3    H2 5623   5.463   4.120   2.646  0.4108  0.9306 -0.2175
 1887TIP3   OH2 5624   5.786   3.072   4.199 -0.2869 -0.0006 -0.1490
 1887TIP3    H1 5625   5.748   3.071   4.287  0.0193 -1.0192 -0.0079
 1887TIP3    H2 5626   5.724   3.024   4.145  0.7955 -1.8347  0.1212
 1888TIP3   OH2 5627   5.121   0.749   3.721  0.8206  0.2885 -0.3784
 1888TIP3    H1 5628   5.069   0.786   3.792 -0.2026 -1.1203 -0.3502
 1888TIP3    H2 5629   5.200   0.716   3.764  0.5197  0.0592  0.0011
 1889TIP3   OH2 5630   3.877   3.870   2.163  0.1698 -0.3254  0.1999
 1889TIP3    H1 5631   3.923   3.954   2.163 -1.4908  0.6233 -0.2994
 1889TIP3    H2 5632   3.802   3.884   2.220  0.1262 -1.6423  0.4932
 1890TIP3   OH2 5633   1.167   2.803   0.033  0.0611 -0.4001  0.1520
 1890TIP3    H1 5634   1.098   2.795  -0.032  0.3250  0.2703 -0.2255
 1890TIP3    H2 5635   1.126   2.850   0.106 -0.0462 -0.5294  0.1733
 1891TIP3   OH2 5636   4.043   6.316   0.405  0.1590  0.1338  0.5673
 1891TIP3    H1 5637   3.970   6.348   0.458  0.0245  1.1089 -0.1758
 1891TIP3    H2 5638   4.010   6.319   0.315  1.1591  0.7543  0.2104
 1892TIP3   OH2 5639   3.306   4.446   1.467  0.0393 -0.5401  0.1621
 1892TIP3    H1 5640   3.320   4.377   1.532  0.0093 -0.1640  0.5701
 1892TIP3    H2 5641   3.383   4.502   1.474  0.2899 -0.7889 -0.4993
 1893TIP3   OH2 5642   2.774   0.726   0.270 -0.5629  0.3241  0.3315
 1893TIP3    H1 5643   2.768   0.675   0.189  0.7169  1.1225 -0.2995
 1893TIP3    H2 5644   2.685   0.729   0.304 -0.9197 -1.0170 -0.4273
 1894TIP3   OH2 5645   6.108   0.670   5.347 -0.1300 -0.6003  0.1947
 1894TIP3    H1 5646   6.138   0.733   5.281  0.2852 -0.5615  0.4207
 1894TIP3    H2 5647   6.027   0.635   5.310  1.1736 -2.1709 -1.3881
 1895TIP3   OH2 5648   0.381   6.621   4.895 -0.5526 -0.0979  0.4164
 1895TIP3    H1 5649   0.308   6.601   4.953  1.0386 -0.6570  2.3264
 1895TIP3    H2 5650   0.457   6.628   4.953  0.6781  2.0637 -1.2856
 1896TIP3   OH2 5651   4.757   3.990   3.242 -0.4397 -0.1464  0.0009
 1896TIP3    H1 5652   4.822   3.931   3.279 -0.7188  0.2669  1.2013
 1896TIP3    H2 5653   4.676   3.968   3.288 -1.0058 -0.1791 -0.9729
 1897TIP3   OH2 5654   1.098   0.770   3.869  0.1799 -0.2744  0.0558
 1897TIP3    H1 5655   1.175   0.714   3.861  0.0607 -0.4399  0.0440
 1897TIP3    H2 5656   1.037   0.718   3.922 -1.0187 -1.3599 -2.2426
 1898TIP3   OH2 5657   7.211   1.852   4.333 -0.0030  0.6360 -0.3454
 1898TIP3    H1 5658   7.186   1.890   4.249  1.3264  0.3133 -0.9221
 1898TIP3    H2 5659   7.170   1.765   4.333  1.8307 -0.3101 -1.7361
 1899TIP3   OH2 5660   3.028   0.559   0.906 -0.0610  0.2774  0.2850
 1899TIP3    H1 5661   3.030   0.546   0.811  0.6038  3.0649 -0.1575
 1899TIP3    H2 5662   3.108   0.608   0.925 -1.1864  1.5736  1.9463
 1900TIP3   OH2 5663   2.205   3.533   4.949 -0.3379 -0.2917 -0.4122
 1900TIP3    H1 5664   2.268   3.463   4.932 -0.5812 -0.3915 -0.9411
 1900TIP3    H2 5665   2.144   3.497   5.012 -0.4445 -0.5508 -0.6615
 1901TIP3   OH2 5666   1.983   3.318   0.557 -0.3073  0.3506 -0.2674
 1901TIP3    H1 5667   2.000   3.299   0.465  1.8533  0.2559  0.1040
 1901TIP3    H2 5668   2.024   3.245   0.605 -0.2055  1.0891  0.8150
 1902TIP3   OH2 5669  -0.001   3.553   4.319 -0.1749  0.5196  0.7073
 1902TIP3    H1 5670  -0.014   3.495   4.244 -0.1208  1.3282  0.0550
 1902TIP3    H2 5671   0.087   3.589   4.307 -0.9346  2.2530 -0.0046
 1903TIP3   OH2 5672   2.682   4.639   3.556 -0.1774  0.6480  0.4324
 1903TIP3    H1 5673   2.661   4.709   3.495  0.1172  0.8951  0.6097
 1903TIP3    H2 5674   2.696   4.562   3.501 -2.3939  0.2405  0.3492
 1904TIP3   OH2 5675   3.492   0.554   2.306  0.2045 -0.3589  0.6930
 1904TIP3    H1 5676   3.503   0.633   2.359 -0.3728  0.0687  0.1726
 1904TIP3    H2 5677   3.557   0.563   2.236  0.2988 -0.4609  0.7666
 1905TIP3   OH2 5678   1.009   2.285   2.985  0.3117  0.5876 -0.2431
 1905TIP3    H1 5679   0.977   2.374   2.969  0.0949  0.5377 -0.0988
 1905TIP3    H2 5680   0.956   2.254   3.059  1.2248  0.7868  0.5072
 1906TIP3   OH2 5681   1.906   0.574   2.249  0.2641  0.0257  0.3561
 1906TIP3    H1 5682   1.889   0.666   2.226  1.1617  0.8021  2.5364
 1906TIP3    H2 5683   1.995   0.573   2.284  0.6257 -1.8822 -0.4813
 1907TIP3   OH2 5684   3.573   5.022   1.777 -0.0265 -0.3798 -0.0033
 1907TIP3    H1 5685   3.565   5.050   1.686 -0.0462 -2.7652 -0.7911
 1907TIP3    H2 5686   3.640   5.079   1.814 -1.2020  1.7523 -0.9964
 1908TIP3   OH2 5687   1.745   1.067   1.410  0.0093 -0.2297 -0.1536
 1908TIP3    H1 5688   1.744   1.115   1.328  0.1465 -2.6448 -1.6730
 1908TIP3    H2 5689   1.771   0.978   1.385  1.6711 -0.6812  2.7175
 1909TIP3   OH2 5690   0.213   6.683   1.959  0.5097  0.1800 -0.2122
 1909TIP3    H1 5691   0.290   6.732   1.988  0.0390  1.6149 -1.2716
 1909TIP3    H2 5692   0.212   6.694   1.864 -1.6744  1.2768 -0.1214
 1910TIP3   OH2 5693   5.855   4.758   3.818  0.7408  0.6539  0.0167
 1910TIP3    H1 5694   5.780   4.705   3.846  0.2618 -0.0529 -2.3919
 1910TIP3    H2 5695   5.829   4.848   3.834  0.2956  0.3239  1.2674
 1911TIP3   OH2 5696   5.670   1.204   1.351  0.1020  0.6869 -0.4825
 1911TIP3    H1 5697   5.701   1.269   1.414 -0.4471  0.4837  0.0043
 1911TIP3    H2 5698   5.601   1.157   1.397  2.4952 -2.3671  0.3336
 1912TIP3   OH2 5699   5.239   2.830   0.196 -0.1206 -0.1339  0.0078
 1912TIP3    H1 5700   5.158   2.832   0.246 -0.7481 -2.7683 -0.7751
 1912TIP3    H2 5701   5.245   2.917   0.157 -1.9883  0.4707  0.9578
 1913TIP3   OH2 5702   4.310   1.502   0.197  0.7405 -0.6461  0.0547
 1913TIP3    H1 5703   4.297   1.590   0.163  1.2120 -0.8671 -0.7452
 1913TIP3    H2 5704   4.368   1.514   0.273  1.1042 -0.2961 -0.2701
 1914TIP3   OH2 5705   1.672   3.922   0.292  0.0354  0.1933 -0.3245
 1914TIP3    H1 5706   1.710   3.835   0.298 -0.6597 -0.2008 -1.5236
 1914TIP3    H2 5707   1.581   3.911   0.322  0.5236  0.9452  1.6041
 1915TIP3   OH2 5708   0.874   5.627   4.389  0.2343  0.0434 -0.1783
 1915TIP3    H1 5709   0.929   5.551   4.371  1.7152  1.3271 -1.4191
 1915TIP3    H2 5710   0.802   5.593   4.441  1.6533 -1.9238  0.6261
 1916TIP3   OH2 5711   7.066   0.117   4.730  0.5638 -0.1729  0.5896
 1916TIP3    H1 5712   7.047   0.030   4.765 -0.5173 -0.0199  0.4148
 1916TIP3    H2 5713   7.153   0.108   4.691 -0.5352 -1.9444 -1.7426
 1917TIP3   OH2 5714   4.486   1.910   4.570 -0.1890 -0.3894  0.2165
 1917TIP3    H1 5715   4.413   1.964   4.540  1.4706  1.2393 -1.2075
 1917TIP3    H2 5716   4.503   1.940   4.659 -0.4962  0.1017  0.1171
 1918TIP3   OH2 5717   2.403   5.877   5.665  0.6607 -0.1502  0.3067
 1918TIP3    H1 5718   2.385   5.898   5.573  1.6400  0.2098  0.1879
 1918TIP3    H2 5719   2.493   5.846   5.665  0.4348 -0.8182  1.0493
 1919TIP3   OH2 5720   4.951   2.488   3.167 -0.1401 -0.4073 -0.8332
 1919TIP3    H1 5721   5.004   2.417   3.129  0.4089 -0.8686  0.7054
 1919TIP3    H2 5722   4.976   2.489   3.260 -0.3291  1.6375 -0.7578
 1920TIP3   OH2 5723   5.991   3.681   4.904 -0.0272  0.6019  0.3016
 1920TIP3    H1 5724   6.027   3.677   4.815  0.1102 -1.0466  0.3827
 1920TIP3    H2 5725   6.061   3.646   4.959 -0.4967  0.6136  0.9118
 1921TIP3   OH2 5726   3.866   6.191   2.927 -0.0882  0.1146 -0.6378
 1921TIP3    H1 5727   3.869   6.228   3.015 -1.1465  1.3020 -1.0671
 1921TIP3    H2 5728   3.895   6.100   2.938  1.8544  0.8205  0.5791
 1922TIP3   OH2 5729   7.094   1.545   0.937  0.3397 -0.4199  0.8183
 1922TIP3    H1 5730   7.014   1.544   0.885  0.4607  0.5308  0.5913
 1922TIP3    H2 5731   7.064   1.562   1.026  0.3605  1.1113  0.5528
 1923TIP3   OH2 5732   3.264   5.218   2.281  0.0615  0.4137  0.2341
 1923TIP3    H1 5733   3.285   5.298   2.330  0.1744 -0.9589  2.5419
 1923TIP3    H2 5734   3.169   5.222   2.269  0.2667  1.7409 -1.3304
 1924TIP3   OH2 5735   2.752   0.203   0.144  0.2753  0.3415  0.3467
 1924TIP3    H1 5736   2.718   0.220   0.056 -1.2940  1.5251  1.1476
 1924TIP3    H2 5737   2.842   0.233   0.141  0.6984 -0.9277 -1.2334
 1925TIP3   OH2 5738   1.717   1.838   0.103  0.0896  0.3271 -0.3627
 1925TIP3    H1 5739   1.646   1.842   0.167 -0.5863  0.4592 -1.1041
 1925TIP3    H2 5740   1.691   1.899   0.034  0.9611  0.4257 -0.6164
 1926TIP3   OH2 5741   5.178   1.018   4.892  0.6985  0.3068  0.2331
 1926TIP3    H1 5742   5.170   1.113   4.887 -0.0481  0.2478  0.2934
 1926TIP3    H2 5743   5.124   0.985   4.820 -1.9067 -0.1830  2.2576
 1927TIP3   OH2 5744   1.244   5.243   5.679 -0.1908  0.3815 -0.0596
 1927TIP3    H1 5745   1.172   5.302   5.701 -0.1175  0.0530  1.0793
 1927TIP3    H2 5746   1.231   5.224   5.586 -1.0251  1.0721 -0.0965
 1928TIP3   OH2 5747   5.776   1.725   1.089 -0.6241  0.2902  0.8843
 1928TIP3    H1 5748   5.849   1.666   1.106  0.8602  1.0765 -2.0249
 1928TIP3    H2 5749   5.706   1.696   1.148  1.1723 -2.1362  1.9550
 1929TIP3   OH2 5750   2.438   3.306   3.179 -0.6870 -0.2326  0.1322
 1929TIP3    H1 5751   2.488   3.274   3.254  0.5683 -2.9375 -1.6575
 1929TIP3    H2 5752   2.347   3.281   3.197 -0.4245 -0.6963  0.8237
 1930TIP3   OH2 5753   1.316   1.514   5.236 -0.2451  0.0559 -0.5354
 1930TIP3    H1 5754   1.387   1.573   5.213  0.6446 -0.8084 -0.1055
 1930TIP3    H2 5755   1.292   1.471   5.154 -0.4645  0.5566 -0.7321
 1931TIP3   OH2 5756   1.662   5.116   1.628 -0.3219 -0.1473  0.0629
 1931TIP3    H1 5757   1.730   5.179   1.651  0.3104  0.4012 -2.9504
 1931TIP3    H2 5758   1.707   5.050   1.574 -1.6763 -1.2120  0.1730
 1932TIP3   OH2 5759   2.120   4.564   5.108 -0.7386  0.5422 -0.5423
 1932TIP3    H1 5760   2.178   4.639   5.122  0.1509 -0.2769  0.2956
 1932TIP3    H2 5761   2.035   4.592   5.144 -0.1598  0.8065  0.6580
 1933TIP3   OH2 5762   1.274   3.074   4.591 -0.2915 -0.0681  0.2808
 1933TIP3    H1 5763   1.237   3.158   4.619 -0.7631  0.0360 -0.6203
 1933TIP3    H2 5764   1.226   3.051   4.511  0.4248 -0.7736  0.0296
 1934TIP3   OH2 5765   3.289   5.417   2.824 -0.2418 -0.0372  1.0515
 1934TIP3    H1 5766   3.246   5.331   2.826 -0.0628 -0.1195  1.4013
 1934TIP3    H2 5767   3.222   5.477   2.793  0.0133 -0.5322 -0.6234
 1935TIP3   OH2 5768   1.040   6.127   3.862 -0.1765 -0.0317 -0.5362
 1935TIP3    H1 5769   1.051   6.072   3.785  0.2059  1.7565 -1.8355
 1935TIP3    H2 5770   1.004   6.069   3.929  0.6721 -1.9322 -1.6590
 1936TIP3   OH2 5771   4.002   0.863   0.856 -0.3078 -0.5603 -0.1390
 1936TIP3    H1 5772   4.044   0.878   0.941 -0.3733  0.4122 -0.2621
 1936TIP3    H2 5773   4.070   0.825   0.802  0.0719 -0.1354  0.0283
 1937TIP3   OH2 5774   5.376   1.890   1.267  0.1600  0.0448 -0.0446
 1937TIP3    H1 5775   5.456   1.942   1.259 -0.6348  1.2796 -0.2453
 1937TIP3    H2 5776   5.332   1.899   1.182 -0.0554 -0.8884 -0.0534
 1938TIP3   OH2 5777   5.576   5.272  -0.013  0.0093 -0.0347 -0.1260
 1938TIP3    H1 5778   5.604   5.352   0.031 -1.7963  0.0833  0.9103
 1938TIP3    H2 5779   5.529   5.222   0.055 -0.8383 -0.9249 -1.3253
 1939TIP3   OH2 5780   2.970   1.136   4.831  0.2350 -0.3140  0.2208
 1939TIP3    H1 5781   2.877   1.128   4.853 -0.5997 -3.7982 -3.3959
 1939TIP3    H2 5782   3.003   1.046   4.834  3.0450  0.6046 -0.4024
 1940TIP3   OH2 5783   0.824   2.273   5.647 -0.1572 -0.0442 -0.4113
 1940TIP3    H1 5784   0.876   2.206   5.603  1.3604  1.7463 -1.5180
 1940TIP3    H2 5785   0.802   2.235   5.732  2.0839 -1.3254 -0.3265
 1941TIP3   OH2 5786   6.332   1.684   4.862 -0.8979  0.5458  0.2541
 1941TIP3    H1 5787   6.307   1.604   4.816  0.5548  1.2357 -1.9164
 1941TIP3    H2 5788   6.260   1.745   4.845 -1.0884  0.3169  0.2373
 1942TIP3   OH2 5789   4.024   1.846   3.970  0.2092  0.3843  0.1976
 1942TIP3    H1 5790   4.031   1.774   3.907 -0.8404  0.8686 -0.4926
 1942TIP3    H2 5791   4.114   1.874   3.985  0.4826  0.2002 -1.0254
 1943TIP3   OH2 5792   4.962   3.550   0.949  0.1894 -0.4609  0.1067
 1943TIP3    H1 5793   5.050   3.541   0.913  0.3788 -1.0574  0.7007
 1943TIP3    H2 5794   4.975   3.598   1.031 -0.0969 -0.1374 -0.0357
 1944TIP3   OH2 5795   1.764   4.862   3.129  0.1304  0.2605 -0.3700
 1944TIP3    H1 5796   1.802   4.883   3.044  2.6700  0.5316  0.7553
 1944TIP3    H2 5797   1.824   4.900   3.193 -0.6067 -1.6465  1.5877
 1945TIP3   OH2 5798   3.211   0.862   4.157 -0.0727  0.3332 -0.4481
 1945TIP3    H1 5799   3.240   0.771   4.153  0.6756  0.5485 -0.0872
 1945TIP3    H2 5800   3.136   0.866   4.098 -0.0910 -0.5091 -0.4909
 1946TIP3   OH2 5801   0.233   0.685   3.587  0.4120  0.5318  0.5259
 1946TIP3    H1 5802   0.229   0.770   3.630  3.6679 -0.6304  3.5849
 1946TIP3    H2 5803   0.202   0.623   3.653  2.3921 -1.0381  0.0789
 1947TIP3   OH2 5804   1.744   0.484   5.379 -0.1251 -0.0286 -0.2276
 1947TIP3    H1 5805   1.795   0.533   5.444 -1.9334  1.7959 -0.0766
 1947TIP3    H2 5806   1.687   0.428   5.432 -0.7192  0.5366 -0.2565
 1948TIP3   OH2 5807   7.161   3.224   1.214 -0.6476  0.3460 -0.0141
 1948TIP3    H1 5808   7.215   3.223   1.292 -1.8331  0.0593  0.8392
 1948TIP3    H2 5809   7.074   3.250   1.246 -0.7594  2.0515 -1.5163
 1949TIP3   OH2 5810   5.156   3.422   4.038  0.2904 -0.9546  0.0419
 1949TIP3    H1 5811   5.236   3.464   4.068 -0.4406  1.4338 -1.1693
 1949TIP3    H2 5812   5.096   3.429   4.112  0.3119 -0.2148 -0.0068
 1950TIP3   OH2 5813   3.113   1.587   3.990  0.0272  0.4219  0.6694
 1950TIP3    H1 5814   3.170   1.633   4.052 -0.0111  0.3110  0.7862
 1950TIP3    H2 5815   3.169   1.571   3.913 -0.2557  1.6346  0.1857
 1951TIP3   OH2 5816  -0.009   2.376   0.082  0.0551  0.0543  0.3093
 1951TIP3    H1 5817   0.066   2.433   0.067  0.9634 -1.1450  0.1852
 1951TIP3    H2 5818   0.003   2.343   0.171  0.2181 -0.9094 -0.0594
 1952TIP3   OH2 5819   3.528   1.283   0.713  0.0320  0.6178 -0.2799
 1952TIP3    H1 5820   3.526   1.337   0.635  0.7782 -0.8441 -1.3693
 1952TIP3    H2 5821   3.476   1.331   0.778 -2.7345  0.7091 -2.4064
 1953TIP3   OH2 5822   6.956   3.879   4.710 -0.0672  0.0405  0.3182
 1953TIP3    H1 5823   6.884   3.924   4.667  0.3746  1.4087  0.9717
 1953TIP3    H2 5824   7.007   3.841   4.638  1.0512  2.8583 -0.5020
 1954TIP3   OH2 5825   3.500   1.765   2.254  0.3739  0.5500 -0.0223
 1954TIP3    H1 5826   3.412   1.729   2.257  0.1074  0.9802 -1.8548
 1954TIP3    H2 5827   3.493   1.848   2.302 -0.3407  0.8094 -0.5595
 1955TIP3   OH2 5828   7.152   6.515   1.317  0.1518  0.5537  0.4433
 1955TIP3    H1 5829   7.192   6.546   1.236 -0.7651 -0.3877 -0.4050
 1955TIP3    H2 5830   7.140   6.593   1.370  1.0967  1.1351 -0.1737
 1956TIP3   OH2 5831   5.611   4.259   2.373 -0.2792  0.3232  0.4164
 1956TIP3    H1 5832   5.566   4.270   2.289  0.2519  0.2521  0.1182
 1956TIP3    H2 5833   5.608   4.346   2.413  1.4014  0.9297 -0.6669
 1957TIP3   OH2 5834   5.780   6.127   3.288  0.0274 -0.2768 -0.2073
 1957TIP3    H1 5835   5.709   6.067   3.310  1.0688 -0.9295  1.5546
 1957TIP3    H2 5836   5.801   6.108   3.196 -1.4880 -0.6525 -0.4958
 1958TIP3   OH2 5837   4.653   2.249   0.591 -0.3636  0.2036  0.3415
 1958TIP3    H1 5838   4.659   2.159   0.621 -1.5569  0.0653  0.2060
 1958TIP3    H2 5839   4.744   2.279   0.587 -0.0083 -0.7090  1.2087
 1959TIP3   OH2 5840   1.343   6.071   2.516  0.3332  0.3554  0.4994
 1959TIP3    H1 5841   1.270   6.112   2.564  0.0807 -0.6163  0.9789
 1959TIP3    H2 5842   1.301   6.006   2.460  0.7733  0.3246  0.2025
 1960TIP3   OH2 5843   5.514   2.663   5.211  0.8074 -0.2474 -0.2551
 1960TIP3    H1 5844   5.536   2.683   5.121  1.0590 -0.4681 -0.2441
 1960TIP3    H2 5845   5.565   2.584   5.232  0.1921 -0.6294 -0.1584
 1961TIP3   OH2 5846   0.125   0.346   1.106  0.0746 -0.8365 -0.0523
 1961TIP3    H1 5847   0.057   0.362   1.172  1.6060  0.9342  1.2063
 1961TIP3    H2 5848   0.207   0.345   1.156  1.1400 -1.3857 -1.7166
 1962TIP3   OH2 5849   2.884   0.600   1.140  0.0571  0.2428 -1.1789
 1962TIP3    H1 5850   2.922   0.525   1.187 -1.7308 -0.1635 -0.3135
 1962TIP3    H2 5851   2.887   0.573   1.048 -1.6703 -1.4721 -0.7955
 1963TIP3   OH2 5852   3.147   5.897   5.834 -0.0577 -0.2095  0.8552
 1963TIP3    H1 5853   3.123   5.982   5.871 -2.0498 -1.4102  2.5326
 1963TIP3    H2 5854   3.084   5.883   5.763  2.4118  1.1197 -1.8316
 1964TIP3   OH2 5855   4.802   0.508   0.499 -0.5840 -0.4031  0.2995
 1964TIP3    H1 5856   4.718   0.479   0.536 -0.6211  0.2471  0.7448
 1964TIP3    H2 5857   4.867   0.455   0.545 -0.7066 -0.3930  0.4884
 1965TIP3   OH2 5858   5.290   1.061   5.470  0.7541 -0.0165 -0.2366
 1965TIP3    H1 5859   5.286   1.156   5.479 -2.4132  0.1149 -1.5726
 1965TIP3    H2 5860   5.292   1.046   5.376  0.4406 -1.2646 -0.0616
 1966TIP3   OH2 5861   0.156   1.202   2.927 -0.4236  0.4547  0.1537
 1966TIP3    H1 5862   0.239   1.235   2.962 -1.0495  0.3745  1.7937
 1966TIP3    H2 5863   0.158   1.108   2.945 -0.4912  0.2920 -0.6402
 1967TIP3   OH2 5864   0.988   3.188   4.375  0.0312 -0.5618 -0.2538
 1967TIP3    H1 5865   0.993   3.093   4.379 -0.1988 -0.5543  0.4596
 1967TIP3    H2 5866   1.021   3.211   4.289  2.1576 -1.1461  0.3591
 1968TIP3   OH2 5867   3.080   4.063   2.774  0.4542 -0.6591 -0.4309
 1968TIP3    H1 5868   3.141   4.137   2.776 -2.0913  1.5679  0.8500
 1968TIP3    H2 5869   3.123   3.995   2.828  1.6213  0.9636  0.7811
 1969TIP3   OH2 5870   1.952   5.290   3.402 -0.5114 -0.0898 -0.9532
 1969TIP3    H1 5871   1.910   5.263   3.484 -0.1144  1.6257 -0.1532
 1969TIP3    H2 5872   1.923   5.225   3.338  0.8958 -2.7933  0.9610
 1970TIP3   OH2 5873   0.065   4.040   4.080  0.2332  0.2836  0.3157
 1970TIP3    H1 5874  -0.012   4.020   4.027  0.9515  1.2316 -1.1471
 1970TIP3    H2 5875   0.037   4.025   4.170 -0.6941 -2.4752 -0.3494
 1971TIP3   OH2 5876   5.844   4.253   3.355 -0.1399 -0.4160 -0.3153
 1971TIP3    H1 5877   5.837   4.158   3.362  1.9273 -0.5233  1.3798
 1971TIP3    H2 5878   5.900   4.278   3.429 -1.6063  2.2597  0.0029
 1972TIP3   OH2 5879   2.994   6.059   3.358 -0.2290  0.3228 -0.5404
 1972TIP3    H1 5880   3.065   6.113   3.323 -0.2071  1.5996  1.3606
 1972TIP3    H2 5881   2.972   5.999   3.286  1.5849  1.0441 -1.7670
 1973TIP3   OH2 5882   1.179   0.880   1.092 -0.6781 -0.6673  0.3413
 1973TIP3    H1 5883   1.182   0.814   1.022  0.8409 -0.5250  0.2439
 1973TIP3    H2 5884   1.107   0.938   1.067 -0.1721 -0.6338 -1.1094
 1974TIP3   OH2 5885   3.046   0.192   3.119 -0.8579 -0.2027 -0.3447
 1974TIP3    H1 5886   3.026   0.223   3.207  1.8358 -0.2327  0.3600
 1974TIP3    H2 5887   2.987   0.118   3.106 -1.4050 -0.1155  1.3636
 1975TIP3   OH2 5888   5.921   0.816   1.003  0.2004 -0.3728  0.0309
 1975TIP3    H1 5889   5.856   0.795   1.071  1.4347 -0.5983  1.1892
 1975TIP3    H2 5890   5.889   0.897   0.963  1.0062  1.6068  3.0619
 1976TIP3   OH2 5891   3.153   6.234   3.217 -0.3560 -0.2535  0.0034
 1976TIP3    H1 5892   3.078   6.293   3.208  0.0212  0.3070  0.4036
 1976TIP3    H2 5893   3.151   6.179   3.139 -2.3147 -1.5809  0.9189
 1977TIP3   OH2 5894   2.219   5.961   2.830 -0.6541 -0.1498 -0.0248
 1977TIP3    H1 5895   2.243   6.044   2.789  0.6507 -0.1880  0.6166
 1977TIP3    H2 5896   2.132   5.977   2.867  0.2786  1.5253  1.5987
 1978TIP3   OH2 5897   1.670   1.715   4.184 -0.7826  0.2424  0.0404
 1978TIP3    H1 5898   1.598   1.656   4.162 -0.8777  0.3001  0.1963
 1978TIP3    H2 5899   1.744   1.656   4.200  0.0225  0.2694 -2.9467
 1979TIP3   OH2 5900   1.225   5.180   4.140 -0.7502 -0.7124  0.2482
 1979TIP3    H1 5901   1.237   5.151   4.230  0.7054  1.8775  1.0251
 1979TIP3    H2 5902   1.295   5.137   4.091  0.2761  0.0337  1.0039
 1980TIP3   OH2 5903   5.568   2.495   3.967  0.2203 -0.0752 -0.3535
 1980TIP3    H1 5904   5.526   2.441   4.035  1.1972  1.5821  1.7043
 1980TIP3    H2 5905   5.529   2.465   3.885 -2.9687 -0.4418  1.1382
 1981TIP3   OH2 5906   3.910   5.803   3.289 -0.0386 -0.0796 -0.0863
 1981TIP3    H1 5907   3.970   5.869   3.324  1.5185  0.5242 -3.4611
 1981TIP3    H2 5908   3.828   5.850   3.274  0.1042  0.2909  0.2733
 1982TIP3   OH2 5909   6.710   5.408   1.989 -0.4199 -0.6201 -0.2798
 1982TIP3    H1 5910   6.676   5.497   1.995 -1.2752 -0.9860  0.9005
 1982TIP3    H2 5911   6.652   5.364   1.927  0.2972 -0.2506 -1.2358
 1983TIP3   OH2 5912   6.909   4.508   5.350 -0.3908  0.8245  0.4104
 1983TIP3    H1 5913   6.826   4.461   5.347  0.4893 -0.8016  0.2336
 1983TIP3    H2 5914   6.910   4.549   5.436 -2.0420  2.2211 -0.1746
 1984TIP3   OH2 5915   1.651   2.615   4.909 -0.1510  0.3320 -0.0374
 1984TIP3    H1 5916   1.721   2.570   4.861 -0.7736 -0.6175 -0.0826
 1984TIP3    H2 5917   1.689   2.633   4.995 -0.5251 -2.1611  0.7219
 1985TIP3   OH2 5918   2.201   0.486   4.403  0.3633  0.3338  0.2290
 1985TIP3    H1 5919   2.244   0.449   4.326 -1.3013 -0.1842 -0.4988
 1985TIP3    H2 5920   2.189   0.412   4.462 -1.4535 -0.0096 -0.5132
 1986TIP3   OH2 5921   1.152   4.679   2.392  0.4581  0.2383  0.2220
 1986TIP3    H1 5922   1.166   4.606   2.451 -0.5767 -1.1889 -1.2140
 1986TIP3    H2 5923   1.231   4.733   2.402  0.8580 -0.5776  1.9508
 1987TIP3   OH2 5924   5.423   1.002   3.805  0.1164 -0.2761  0.4873
 1987TIP3    H1 5925   5.339   1.025   3.764  0.0031  0.1355  0.9458
 1987TIP3    H2 5926   5.399   0.964   3.890  0.3936 -0.2070  0.5979
 1988TIP3   OH2 5927   0.261   3.371   2.586 -0.2969  0.2492  0.3083
 1988TIP3    H1 5928   0.268   3.459   2.549  0.6651 -0.9611 -2.7147
 1988TIP3    H2 5929   0.317   3.372   2.663  2.0311  1.5625 -1.3033
 1989TIP3   OH2 5930   0.259   3.601   1.323  0.1849  0.3880  0.0833
 1989TIP3    H1 5931   0.193   3.668   1.308 -0.7088 -0.4565  0.1649
 1989TIP3    H2 5932   0.265   3.594   1.419  1.5227  1.5173  0.1343
 1990TIP3   OH2 5933   6.194   4.897   3.352 -0.1922  0.3430  0.4219
 1990TIP3    H1 5934   6.111   4.906   3.398 -1.3927  0.3060 -1.5800
 1990TIP3    H2 5935   6.237   4.982   3.363 -0.6282  0.4597  1.2624
 1991TIP3   OH2 5936   5.455   5.793   2.126  0.1091 -0.0488 -0.3600
 1991TIP3    H1 5937   5.545   5.763   2.141  0.3132  0.6788 -0.0967
 1991TIP3    H2 5938   5.405   5.712   2.116  0.8007 -0.4612 -0.5665
 1992TIP3   OH2 5939   7.055   1.717   3.632 -0.4420  0.0393 -0.4883
 1992TIP3    H1 5940   6.984   1.724   3.697 -0.5004  0.1494 -0.5634
 1992TIP3    H2 5941   7.052   1.626   3.604  0.6391 -0.4421  0.8549
 1993TIP3   OH2 5942   6.540   0.353   0.052  0.3808 -0.1203  0.3818
 1993TIP3    H1 5943   6.543   0.264   0.087  0.6732 -0.3350 -0.1841
 1993TIP3    H2 5944   6.449   0.381   0.066  0.2332 -0.5848  0.3731
 1994TIP3   OH2 5945   4.641   6.712   3.259  0.2743 -0.2373 -0.6876
 1994TIP3    H1 5946   4.659   6.660   3.181 -0.7103 -0.7803 -0.5630
 1994TIP3    H2 5947   4.553   6.685   3.287 -0.3024  1.5431 -0.6598
 1995TIP3   OH2 5948   5.411   1.491   4.300  0.4261  0.2422  0.0973
 1995TIP3    H1 5949   5.406   1.402   4.336 -0.3864 -0.0413 -0.6825
 1995TIP3    H2 5950   5.321   1.522   4.301  0.5803  0.7276 -0.4639
 1996TIP3   OH2 5951   2.790   0.776   2.249  0.0249 -0.6269 -0.2247
 1996TIP3    H1 5952   2.874   0.811   2.218 -1.0079  2.0040 -0.3295
 1996TIP3    H2 5953   2.807   0.683   2.264  2.4026 -0.6007 -2.1270
 1997TIP3   OH2 5954   6.417   5.115   2.268  0.3781 -0.1107 -0.1359
 1997TIP3    H1 5955   6.329   5.121   2.306  0.2611 -0.5279 -0.3369
 1997TIP3    H2 5956   6.449   5.205   2.268 -1.5879  0.7800 -3.7200
 1998TIP3   OH2 5957   1.171   3.171   0.512  0.4882 -0.0894 -0.2665
 1998TIP3    H1 5958   1.181   3.132   0.426  0.3927 -0.5111 -0.0887
 1998TIP3    H2 5959   1.242   3.234   0.518  1.9607 -1.7094  0.2428
 1999TIP3   OH2 5960   1.217   5.416   4.809 -0.7420  0.1653  0.0178
 1999TIP3    H1 5961   1.202   5.510   4.806 -0.0900  0.2988  0.6856
 1999TIP3    H2 5962   1.161   5.381   4.739 -0.6988  1.0780 -0.4991
 2000TIP3   OH2 5963   7.063   0.812   4.914  0.7749  0.0606  0.7939
 2000TIP3    H1 5964   7.067   0.818   4.818  0.0683  0.6500  0.7911
 2000TIP3    H2 5965   7.116   0.735   4.935  1.4245  0.2679 -0.0240
 2001TIP3   OH2 5966   0.066   0.534   1.757 -0.3017  0.4093  0.6285
 2001TIP3    H1 5967   0.078   0.463   1.820  0.6537  0.8584  0.9641
 2001TIP3    H2 5968   0.138   0.594   1.773  0.2747  0.2911 -1.2421
 2002TIP3   OH2 5969   6.999   4.010   0.266  0.6563  0.4524  0.0210
 2002TIP3    H1 5970   6.951   3.999   0.184  0.1099  1.7868  0.1496
 2002TIP3    H2 5971   7.070   4.070   0.244  1.2652 -0.1792  0.2368
 2003TIP3   OH2 5972   3.750   3.959   5.423 -0.6020  0.0588 -0.7822
 2003TIP3    H1 5973   3.751   3.957   5.518  1.0641 -1.4959 -0.7667
 2003TIP3    H2 5974   3.679   3.899   5.398  0.3842 -1.2908 -0.4646
 2004TIP3   OH2 5975   2.540   0.969   4.935 -0.0610  0.1640  0.1683
 2004TIP3    H1 5976   2.492   0.899   4.890  1.7641  0.6610 -2.7888
 2004TIP3    H2 5977   2.507   1.050   4.896  1.5788  0.6108 -0.3906
 2005TIP3   OH2 5978   4.217   6.475   0.782 -0.2581 -0.1632  0.2195
 2005TIP3    H1 5979   4.288   6.518   0.830  1.3015 -1.5195 -0.7550
 2005TIP3    H2 5980   4.156   6.445   0.850  0.1027  1.0062  1.0826
 2006TIP3   OH2 5981   0.253   4.815   3.186 -0.0719  0.4590  0.2964
 2006TIP3    H1 5982   0.321   4.752   3.160 -0.8886 -0.5902  0.6650
 2006TIP3    H2 5983   0.286   4.854   3.266  0.3010  0.2688  0.2380
 2007TIP3   OH2 5984   2.701   5.043   1.613 -0.0910 -0.2173 -0.1279
 2007TIP3    H1 5985   2.790   5.047   1.647  0.3198 -0.7628 -1.1187
 2007TIP3    H2 5986   2.653   4.995   1.680  0.0177  1.2417  1.0675
 2008TIP3   OH2 5987   3.496   3.077   2.405 -0.3608 -0.1237  0.4313
 2008TIP3    H1 5988   3.513   3.105   2.315  1.8395 -0.9572  0.5226
 2008TIP3    H2 5989   3.460   2.989   2.397  1.0417 -0.7137  0.3632
 2009TIP3   OH2 5990   1.563   6.529   4.553  0.1815 -0.2403  0.2114
 2009TIP3    H1 5991   1.629   6.466   4.582  0.5369 -0.1959 -0.4768
 2009TIP3    H2 5992   1.576   6.605   4.610  0.0875 -0.5866  0.7069
 2010TIP3   OH2 5993   0.205   6.512   2.222 -0.6019 -0.4008  0.1511
 2010TIP3    H1 5994   0.225   6.605   2.206  0.4535 -0.4617  1.0110
 2010TIP3    H2 5995   0.250   6.466   2.151 -1.0467 -0.2675 -0.2214
 2011TIP3   OH2 5996   1.819   3.114   3.599 -0.4698  0.1233  0.1072
 2011TIP3    H1 5997   1.849   3.077   3.681 -1.1819  1.6877  1.1196
 2011TIP3    H2 5998   1.862   3.199   3.593 -0.3206 -0.0172 -1.2095
 2012TIP3   OH2 5999   6.094   1.564   5.125  0.1208 -0.0922 -0.5725
 2012TIP3    H1 6000   6.158   1.620   5.167  1.0374 -0.6645 -1.1771
 2012TIP3    H2 6001   6.014   1.617   5.122  1.2578  1.6460 -2.1826
 2013TIP3   OH2 6002   0.843   1.568   4.137 -0.0853 -0.7566 -0.1731
 2013TIP3    H1 6003   0.821   1.485   4.096  1.2468 -1.5524  0.6638
 2013TIP3    H2 6004   0.879   1.545   4.222 -0.5911  0.7392  0.4915
 2014TIP3   OH2 6005   0.956   0.393   2.869 -0.5556  0.9757 -0.2278
 2014TIP3    H1 6006   0.879   0.374   2.815  0.9469  2.5040 -3.0919
 2014TIP3    H2 6007   0.969   0.488   2.861  2.0896  0.6669 -0.5338
 2015TIP3   OH2 6008   4.746   5.671   3.893 -0.2391 -0.7310  0.2887
 2015TIP3    H1 6009   4.790   5.729   3.830 -3.4027  0.9929 -0.5290
 2015TIP3    H2 6010   4.724   5.593   3.842 -1.4420  0.0182 -0.3747
 2016TIP3   OH2 6011   1.422   5.490   1.306  0.2009 -0.0127  0.0757
 2016TIP3    H1 6012   1.504   5.441   1.316  0.3439  0.3439  0.6563
 2016TIP3    H2 6013   1.371   5.468   1.384 -1.0337 -1.6764 -1.1328
 2017TIP3   OH2 6014   0.942   0.160   5.168  0.3497 -0.2722  0.3360
 2017TIP3    H1 6015   0.959   0.107   5.089 -2.6095  1.7478 -1.9137
 2017TIP3    H2 6016   0.956   0.250   5.140 -1.2169  0.5440  1.9565
 2018TIP3   OH2 6017   1.555   6.442   1.057  0.3852  0.0652 -0.1609
 2018TIP3    H1 6018   1.488   6.499   1.020 -0.9157 -0.6146  1.0458
 2018TIP3    H2 6019   1.532   6.354   1.026 -0.5858 -0.4813  1.9330
 2019TIP3   OH2 6020   7.159   4.742   5.310 -0.0212  0.3574  0.2019
 2019TIP3    H1 6021   7.198   4.826   5.286  0.1815 -0.1226 -1.2470
 2019TIP3    H2 6022   7.162   4.740   5.406 -0.3498  2.1350  0.2689
 2020TIP3   OH2 6023   5.792   2.388   2.632  0.4799 -0.4371 -0.3085
 2020TIP3    H1 6024   5.697   2.382   2.645  0.2131 -1.1634 -2.2186
 2020TIP3    H2 6025   5.801   2.437   2.550  1.8012  0.1633  0.1651
 2021TIP3   OH2 6026   2.088   3.770   4.707 -0.1032 -0.3791  0.0140
 2021TIP3    H1 6027   2.078   3.721   4.788  0.7044 -1.0731 -0.2792
 2021TIP3    H2 6028   1.999   3.790   4.679 -0.5498 -2.5078 -0.3270
 2022TIP3   OH2 6029   4.657   4.192   5.238  0.1544  0.3523 -0.0662
 2022TIP3    H1 6030   4.718   4.139   5.187 -0.3379  0.0315 -0.3339
 2022TIP3    H2 6031   4.710   4.232   5.306  0.6141 -0.1192 -0.1435
 2023TIP3   OH2 6032   3.666   1.215   4.006  0.1589  0.4271 -0.6527
 2023TIP3    H1 6033   3.649   1.121   4.020  2.1542  0.3859  2.2590
 2023TIP3    H2 6034   3.673   1.251   4.094 -0.6567  3.4020 -1.7053
 2024TIP3   OH2 6035   2.096   2.524   4.554  0.0562 -0.1366 -0.0183
 2024TIP3    H1 6036   2.081   2.502   4.646  3.0980 -1.7257  0.2225
 2024TIP3    H2 6037   2.075   2.443   4.506  1.1825 -0.2459 -0.3578
 2025TIP3   OH2 6038   1.763   4.081   3.468  0.3153  0.5804 -0.8192
 2025TIP3    H1 6039   1.687   4.130   3.499 -2.1478 -3.2836 -0.0640
 2025TIP3    H2 6040   1.733   4.040   3.387  1.3586 -1.4656 -0.2182
 2026TIP3   OH2 6041   4.133   0.740   2.485  0.1573  0.0322 -0.5246
 2026TIP3    H1 6042   4.137   0.655   2.528  1.5317  0.0943 -0.4879
 2026TIP3    H2 6043   4.051   0.739   2.437  0.1217 -1.2800 -0.4699
 2027TIP3   OH2 6044   6.772   0.348   5.912 -0.5980 -0.2543  0.2681
 2027TIP3    H1 6045   6.681   0.319   5.902 -0.3870 -0.4011 -1.4932
 2027TIP3    H2 6046   6.811   0.334   5.826  0.8461  0.7139  0.7358
 2028TIP3   OH2 6047   6.189   4.938   3.800 -0.6850 -0.1770 -0.3098
 2028TIP3    H1 6048   6.151   4.865   3.750  0.0861 -2.0966  1.7627
 2028TIP3    H2 6049   6.148   4.932   3.886 -0.1929  1.5625  0.0856
 2029TIP3   OH2 6050   2.980   2.326   4.469 -0.2936  0.4657  0.0059
 2029TIP3    H1 6051   3.017   2.250   4.513  0.1457  1.2993  1.1306
 2029TIP3    H2 6052   3.040   2.398   4.492 -0.0356  0.9491 -1.9619
 2030TIP3   OH2 6053   3.630   0.669   0.871  0.0535 -0.0636  0.2431
 2030TIP3    H1 6054   3.545   0.647   0.834  0.4660 -0.5780 -0.4152
 2030TIP3    H2 6055   3.669   0.730   0.809  0.4850 -0.4307  0.1506
 2031TIP3   OH2 6056   5.875   0.238   1.949  0.5263  0.0776 -0.3219
 2031TIP3    H1 6057   5.915   0.253   2.035 -0.1327 -0.4895  0.0970
 2031TIP3    H2 6058   5.828   0.155   1.959 -0.5368  0.5982 -0.8670
 2032TIP3   OH2 6059   2.039   0.355   1.404 -0.3135  0.0640  0.7771
 2032TIP3    H1 6060   1.970   0.362   1.469 -2.1428 -1.0882 -0.9326
 2032TIP3    H2 6061   2.006   0.291   1.340  1.2152  1.3650 -1.4605
 2033TIP3   OH2 6062   3.788   4.821   0.848  0.4454 -0.1118 -0.3317
 2033TIP3    H1 6063   3.879   4.801   0.870  0.7797  0.9233 -0.7075
 2033TIP3    H2 6064   3.755   4.742   0.806  2.5123  0.8310 -4.2139
 2034TIP3   OH2 6065   6.945   3.443   2.705  0.2556  0.5262 -0.0999
 2034TIP3    H1 6066   7.030   3.411   2.676 -0.4636 -0.9139 -0.7262
 2034TIP3    H2 6067   6.897   3.364   2.730 -1.2124  1.2249 -0.6095
 2035TIP3   OH2 6068   5.766   6.115   2.074  0.3090 -1.1522  0.4350
 2035TIP3    H1 6069   5.791   6.033   2.031  1.2676 -0.9022  0.4917
 2035TIP3    H2 6070   5.766   6.180   2.004  0.5492 -1.0057  0.5712
 2036TIP3   OH2 6071   6.409   2.467   4.332 -0.1120  0.3942 -0.0158
 2036TIP3    H1 6072   6.459   2.548   4.340  1.0363 -0.2582 -0.3209
 2036TIP3    H2 6073   6.387   2.444   4.422 -1.1863  1.4746  0.0175
 2037TIP3   OH2 6074   2.852   3.787   2.810 -0.3312 -0.0088  0.4315
 2037TIP3    H1 6075   2.917   3.851   2.839 -0.9532  0.1267  1.6072
 2037TIP3    H2 6076   2.880   3.763   2.722  1.1417  0.2592  0.7926
 2038TIP3   OH2 6077   6.533   5.490   4.707 -0.6470  0.1202  0.5416
 2038TIP3    H1 6078   6.452   5.517   4.665  0.5848  1.3051 -1.2090
 2038TIP3    H2 6079   6.507   5.464   4.795 -2.8666  0.7255  0.1198
 2039TIP3   OH2 6080   3.966   2.544   3.888 -0.6806 -0.1241  0.2919
 2039TIP3    H1 6081   3.921   2.628   3.885 -2.6403 -1.1589 -1.2089
 2039TIP3    H2 6082   3.946   2.502   3.804 -0.7905 -2.5719  1.4382
 2040TIP3   OH2 6083   2.461   2.249   5.640  0.0826  0.2113  0.1314
 2040TIP3    H1 6084   2.416   2.177   5.684  1.8760  0.4874  2.6018
 2040TIP3    H2 6085   2.402   2.274   5.569 -2.5452 -0.8939  1.7892
 2041TIP3   OH2 6086   5.072   1.796   4.756  0.2502 -0.0002 -0.1129
 2041TIP3    H1 6087   5.159   1.836   4.767 -0.4645  1.6824 -0.2688
 2041TIP3    H2 6088   5.083   1.707   4.790  2.3871 -0.3039 -1.3861
 2042TIP3   OH2 6089  -0.001   0.393   3.677 -0.5582  0.2301 -0.5619
 2042TIP3    H1 6090   0.092   0.403   3.698 -0.9900 -0.1181  1.7208
 2042TIP3    H2 6091  -0.008   0.421   3.586  1.1768  4.1165  0.2959
 2043TIP3   OH2 6092   6.192   2.935   4.039  0.1083 -0.1915 -0.0008
 2043TIP3    H1 6093   6.117   2.970   3.990 -1.7119 -0.9588  2.0737
 2043TIP3    H2 6094   6.209   2.999   4.107 -0.8447 -1.4841  1.5344
 2044TIP3   OH2 6095   6.567   6.756   1.473 -0.2847  0.3629  0.5725
 2044TIP3    H1 6096   6.523   6.828   1.428 -1.3805 -0.6613 -0.0418
 2044TIP3    H2 6097   6.602   6.701   1.403  2.3236  1.2900  1.0328
 2045TIP3   OH2 6098   2.284   1.167   4.840  0.0033 -0.2709  0.0101
 2045TIP3    H1 6099   2.231   1.087   4.832 -0.3705  0.1087 -1.8485
 2045TIP3    H2 6100   2.219   1.236   4.852  0.0863  0.0720 -1.2914
 2046TIP3   OH2 6101   3.364   1.594   3.227  0.0099 -0.1305  0.1923
 2046TIP3    H1 6102   3.398   1.539   3.298 -0.1399  0.3974  0.6892
 2046TIP3    H2 6103   3.434   1.596   3.162  1.7359  2.3437  1.9490
 2047TIP3   OH2 6104   3.986   3.576   0.237  0.6951 -0.1127  0.1560
 2047TIP3    H1 6105   4.025   3.662   0.224 -0.7994  0.3954 -1.4280
 2047TIP3    H2 6106   4.009   3.527   0.158 -1.1326 -0.0333 -0.4906
 2048TIP3   OH2 6107   2.090   0.851   4.453  0.0695  0.1023 -0.0029
 2048TIP3    H1 6108   2.178   0.827   4.424 -0.4063  0.3617 -1.8128
 2048TIP3    H2 6109   2.065   0.783   4.515  1.6674  0.2408  0.8622
 2049TIP3   OH2 6110   3.578   4.898   4.526  0.1672  0.2675 -0.3538
 2049TIP3    H1 6111   3.615   4.905   4.614 -1.7299  0.0622  0.5088
 2049TIP3    H2 6112   3.558   4.805   4.516 -0.8829  0.4900 -0.4277
 2050TIP3   OH2 6113   5.699   2.657   4.149 -0.0325 -0.0741 -0.2260
 2050TIP3    H1 6114   5.656   2.598   4.087  1.6443 -1.8041  0.1766
 2050TIP3    H2 6115   5.761   2.602   4.196  0.3225  1.6582  1.4690
 2051TIP3   OH2 6116   1.343   4.492   4.562 -0.4475  0.2665 -0.3164
 2051TIP3    H1 6117   1.312   4.581   4.577 -0.3733  0.3948 -0.8940
 2051TIP3    H2 6118   1.291   4.438   4.621 -0.8077  0.6393 -0.2891
 2052TIP3   OH2 6119   1.425   6.266   5.580  0.2750  0.4736 -0.0098
 2052TIP3    H1 6120   1.466   6.321   5.646  1.2482  0.7943 -0.8559
 2052TIP3    H2 6121   1.432   6.177   5.615  1.9037  0.4951 -0.2248
 2053TIP3   OH2 6122   6.678   5.440   0.067  0.1063 -0.0720 -0.5012
 2053TIP3    H1 6123   6.618   5.372   0.035 -0.5167  0.1780  0.1050
 2053TIP3    H2 6124   6.694   5.416   0.159  0.3105  0.3076 -0.4375
 2054TIP3   OH2 6125   0.502   0.443   0.361  0.1009 -0.2978 -0.2428
 2054TIP3    H1 6126   0.480   0.361   0.317 -0.2839 -1.1686  1.4597
 2054TIP3    H2 6127   0.592   0.430   0.392  0.1277  0.0157 -0.1889
 2055TIP3   OH2 6128   6.036   5.844   2.173 -0.4234 -0.1672 -0.2432
 2055TIP3    H1 6129   6.108   5.875   2.119  1.4491 -1.5360  1.3335
 2055TIP3    H2 6130   6.031   5.907   2.245 -1.4127  0.3907 -0.7731
 2056TIP3   OH2 6131   0.212   1.387   2.027  0.2754  0.0403  0.0824
 2056TIP3    H1 6132   0.240   1.470   2.065 -1.4622 -0.1093  1.8700
 2056TIP3    H2 6133   0.141   1.412   1.967 -1.8283 -0.2146  2.2996
 2057TIP3   OH2 6134   2.951   6.037   5.095  0.4162  0.2569 -0.3855
 2057TIP3    H1 6135   2.884   5.969   5.089 -0.9832  1.5522 -0.0310
 2057TIP3    H2 6136   2.980   6.050   5.005 -0.2053  0.0399 -0.6252
 2058TIP3   OH2 6137   5.815   5.016   3.837 -0.1907  0.0085  0.2283
 2058TIP3    H1 6138   5.747   5.079   3.858  2.5668  2.9848  1.0963
 2058TIP3    H2 6139   5.858   5.053   3.760  1.5211 -0.7648  0.7707
 2059TIP3   OH2 6140   4.278   3.608   1.703 -0.2435 -0.3637 -0.5560
 2059TIP3    H1 6141   4.242   3.696   1.719  0.4919 -0.3256  1.0584
 2059TIP3    H2 6142   4.267   3.595   1.609 -1.3720  1.0125 -0.6522
 2060TIP3   OH2 6143   4.343   4.471   2.105 -0.3979 -0.4297  0.6533
 2060TIP3    H1 6144   4.268   4.447   2.049  0.6460  0.9602 -1.4785
 2060TIP3    H2 6145   4.334   4.415   2.182 -3.0720 -0.9992  0.0370
 2061TIP3   OH2 6146   2.584   5.992   2.778  0.2985 -0.3701 -0.0578
 2061TIP3    H1 6147   2.581   5.911   2.828 -2.6568 -0.5841 -0.3986
 2061TIP3    H2 6148   2.492   6.011   2.758  1.0185  2.2494 -1.3059
 2062TIP3   OH2 6149   1.412   0.218   1.102  0.3534 -0.1715  0.3923
 2062TIP3    H1 6150   1.483   0.281   1.088 -0.1896  0.5114  0.6399
 2062TIP3    H2 6151   1.342   0.249   1.045  1.1286 -2.3514 -1.9302
 2063TIP3   OH2 6152   1.240   6.398   0.557 -0.3529 -0.0359  0.4674
 2063TIP3    H1 6153   1.285   6.364   0.634  0.0203 -1.8352 -0.5051
 2063TIP3    H2 6154   1.179   6.329   0.532 -2.6726  1.7255  0.8524
 2064TIP3   OH2 6155   4.294   0.539   1.143 -0.8881  0.1496 -0.1992
 2064TIP3    H1 6156   4.210   0.569   1.177 -1.0672 -0.8230  0.2535
 2064TIP3    H2 6157   4.326   0.478   1.209 -0.1486 -0.0058 -0.6948
 2065TIP3   OH2 6158   3.213   6.090   4.371 -0.3408  0.0053 -0.1093
 2065TIP3    H1 6159   3.164   6.168   4.399  0.3525  0.5340 -0.3385
 2065TIP3    H2 6160   3.225   6.040   4.451  2.3930  1.9255  0.8266
 2066TIP3   OH2 6161   2.344   4.901   2.873 -0.2302 -0.0567 -0.4059
 2066TIP3    H1 6162   2.336   4.963   2.946 -2.6807 -1.5005  0.6777
 2066TIP3    H2 6163   2.388   4.825   2.911  3.4529  1.0918 -1.9105
 2067TIP3   OH2 6164   2.124   4.034   2.175  0.0388  0.1620  0.1237
 2067TIP3    H1 6165   2.030   4.023   2.189  0.3065 -0.4214  1.6744
 2067TIP3    H2 6166   2.140   4.127   2.187 -0.3124  0.2289  0.0726
 2068TIP3   OH2 6167   2.655   3.733   3.008  0.6181  0.3964  0.0168
 2068TIP3    H1 6168   2.611   3.783   3.078  1.2533 -0.1104  0.7965
 2068TIP3    H2 6169   2.739   3.777   2.997  0.7771  0.0942  0.0205
 2069TIP3   OH2 6170   5.145   5.257   0.765  0.2544 -0.3966  0.0425
 2069TIP3    H1 6171   5.237   5.231   0.776  0.7621  0.3493 -1.9969
 2069TIP3    H2 6172   5.133   5.331   0.824  0.6990 -1.0427  0.9603
 2070TIP3   OH2 6173   3.666   4.304   1.066  0.1083  0.0653  0.1485
 2070TIP3    H1 6174   3.663   4.352   1.148 -0.2108 -1.9399  1.3819
 2070TIP3    H2 6175   3.588   4.332   1.018  0.4425  1.4475  0.3889
 2071TIP3   OH2 6176   6.134   1.993   3.574  0.0905  0.3375 -0.4810
 2071TIP3    H1 6177   6.223   2.024   3.593  0.4353 -0.1357 -1.2984
 2071TIP3    H2 6178   6.093   2.066   3.527 -0.2613  0.9014  0.6430
 2072TIP3   OH2 6179   2.516   3.255   0.715 -0.3391 -0.2639  0.1184
 2072TIP3    H1 6180   2.597   3.217   0.750 -0.5098  0.0339  0.8466
 2072TIP3    H2 6181   2.543   3.341   0.681 -0.3173 -0.2327  0.2144
 2073TIP3   OH2 6182   5.634   2.694   1.305 -0.2552 -0.4294  0.5782
 2073TIP3    H1 6183   5.565   2.656   1.251 -1.6345  3.1797 -0.5382
 2073TIP3    H2 6184   5.706   2.710   1.245 -0.2452 -0.0142  0.6974
 2074TIP3   OH2 6185   3.043   2.537   5.821  0.7326  0.0965  0.2520
 2074TIP3    H1 6186   2.949   2.526   5.837  0.6236  0.9163  0.2291
 2074TIP3    H2 6187   3.062   2.479   5.747  0.3902 -0.5834  0.6819
 2075TIP3   OH2 6188   4.262   1.795   5.676  0.3509 -0.2843  0.1231
 2075TIP3    H1 6189   4.309   1.713   5.660 -0.7683 -0.7714 -0.8147
 2075TIP3    H2 6190   4.229   1.787   5.766  0.2765 -0.8369  0.0460
 2076TIP3   OH2 6191   4.059   4.584   5.001  0.0102 -0.1654  0.2874
 2076TIP3    H1 6192   4.123   4.627   4.944  0.7543 -1.1528  0.3459
 2076TIP3    H2 6193   4.048   4.497   4.962 -1.2982 -0.0255  0.2900
 2077TIP3   OH2 6194   3.143   2.949   0.616  0.1167  0.2887  0.1115
 2077TIP3    H1 6195   3.231   2.930   0.583  0.7226  2.6358  0.1840
 2077TIP3    H2 6196   3.150   3.037   0.653 -1.8870 -0.1109  1.6037
 2078TIP3   OH2 6197   5.401   0.597   4.215  0.0813  0.5832  0.0099
 2078TIP3    H1 6198   5.396   0.506   4.244  0.1130  1.0537  1.6082
 2078TIP3    H2 6199   5.450   0.594   4.133 -0.6649 -0.9125 -0.4127
 2079TIP3   OH2 6200   1.869   4.050   2.436  1.1065  0.3739 -0.3035
 2079TIP3    H1 6201   1.808   3.978   2.421 -0.2230  1.0371  1.6246
 2079TIP3    H2 6202   1.955   4.007   2.442  0.9602 -0.5500 -3.1890
 2080TIP3   OH2 6203   4.384   4.529   0.717  0.1237  0.7322 -0.6545
 2080TIP3    H1 6204   4.451   4.524   0.649  1.2753  0.9889  0.4245
 2080TIP3    H2 6205   4.363   4.437   0.736  1.3837  0.5787  0.1288
 2081TIP3   OH2 6206   1.521   4.839   1.257  0.6835  0.5259  0.1460
 2081TIP3    H1 6207   1.558   4.903   1.317 -1.4212  3.4109 -1.4259
 2081TIP3    H2 6208   1.560   4.861   1.172 -0.0189 -0.3243 -0.4160
 2082TIP3   OH2 6209   4.063   0.527   4.316 -0.3886 -0.2102  0.8576
 2082TIP3    H1 6210   4.119   0.492   4.247  0.0022 -0.3060  1.2235
 2082TIP3    H2 6211   4.105   0.500   4.398  0.0926  1.3184  1.1625
 2083TIP3   OH2 6212   7.047   0.635   0.084  0.6180  0.8353  0.2521
 2083TIP3    H1 6213   6.971   0.581   0.108  2.9022 -2.6781  0.2612
 2083TIP3    H2 6214   7.020   0.680   0.004 -2.0402  1.1896  1.2320
 2084TIP3   OH2 6215   2.711   2.857   0.439 -0.7161  0.1949 -0.0846
 2084TIP3    H1 6216   2.663   2.810   0.506  0.1887  1.6928  1.6868
 2084TIP3    H2 6217   2.697   2.950   0.459 -0.0822  0.6851 -1.7241
 2085TIP3   OH2 6218   6.549   2.804   4.104 -0.3515  0.1885  0.3890
 2085TIP3    H1 6219   6.602   2.726   4.125  0.9438  1.1711  0.9389
 2085TIP3    H2 6220   6.480   2.771   4.047  0.6595 -1.2326 -0.0868
 2086TIP3   OH2 6221   0.827   0.731   2.594 -0.1443  0.0263 -0.7837
 2086TIP3    H1 6222   0.887   0.711   2.666  0.6572  2.6039 -0.6476
 2086TIP3    H2 6223   0.752   0.672   2.609  0.4524 -0.2633  1.5311
 2087TIP3   OH2 6224   5.031   0.924   5.376  0.0544  0.6574 -0.3659
 2087TIP3    H1 6225   4.973   0.987   5.332  0.5129  1.7464  0.5356
 2087TIP3    H2 6226   5.117   0.966   5.374  0.2113  0.4305  0.9569
 2088TIP3   OH2 6227   4.835   4.376   5.371 -0.0457  0.5395  0.1097
 2088TIP3    H1 6228   4.826   4.370   5.466 -1.8913 -0.1792 -0.0762
 2088TIP3    H2 6229   4.888   4.455   5.356  2.1389 -0.5092  1.7774
 2089TIP3   OH2 6230   7.168   0.853   1.186 -0.1703 -0.2851  0.1236
 2089TIP3    H1 6231   7.166   0.914   1.260 -0.3151 -0.3836  0.1991
 2089TIP3    H2 6232   7.204   0.772   1.222  2.7333  0.5569 -0.5516
 2090TIP3   OH2 6233   0.896   5.923   3.470 -0.0250 -0.2263 -0.2100
 2090TIP3    H1 6234   0.983   5.926   3.430 -0.3521  1.3181 -0.8686
 2090TIP3    H2 6235   0.845   5.989   3.423 -1.2286 -0.2859  0.9343
 2091TIP3   OH2 6236   3.244   2.814   2.931 -0.1400 -0.5442 -0.0130
 2091TIP3    H1 6237   3.338   2.817   2.911 -0.3947 -0.3694 -1.2834
 2091TIP3    H2 6238   3.232   2.730   2.976  0.4192 -1.2317 -1.0846
 2092TIP3   OH2 6239   0.034   3.731   4.529 -0.4793  0.4613  0.3755
 2092TIP3    H1 6240   0.022   3.654   4.474  0.3500  0.8387 -0.3523
 2092TIP3    H2 6241   0.064   3.697   4.613 -0.6050 -0.0401  0.2173
 2093TIP3   OH2 6242   6.510   5.563   1.029 -0.2032  0.4250  0.7385
 2093TIP3    H1 6243   6.554   5.648   1.022 -1.7907  1.1866 -0.7411
 2093TIP3    H2 6244   6.529   5.520   0.945 -2.6509  1.0259 -0.2102
 2094TIP3   OH2 6245   3.440   5.994   3.424  0.2332  0.0037 -0.4082
 2094TIP3    H1 6246   3.501   5.970   3.494 -0.1831 -1.3501 -0.4812
 2094TIP3    H2 6247   3.401   6.076   3.453 -1.6917 -1.6691  2.1489
 2095TIP3   OH2 6248   5.054   5.655   2.051 -0.6587  0.6293  0.1285
 2095TIP3    H1 6249   4.976   5.711   2.048 -1.6079 -0.6486  0.3379
 2095TIP3    H2 6250   5.023   5.573   2.089  0.8276  0.1384  0.3320
 2096TIP3   OH2 6251   0.377   0.437   0.696 -0.0637 -0.3987 -0.0762
 2096TIP3    H1 6252   0.439   0.420   0.767  0.0487 -0.4206 -0.1802
 2096TIP3    H2 6253   0.291   0.424   0.736 -0.0018 -0.3722  0.0671
 2097TIP3   OH2 6254   6.958   0.152   5.091 -0.1814 -0.0483 -0.0381
 2097TIP3    H1 6255   7.020   0.117   5.156  1.0020  2.0969  0.0728
 2097TIP3    H2 6256   6.942   0.241   5.120 -0.6798  0.5247 -1.9810
 2098TIP3   OH2 6257   4.876   3.640   3.841  0.2895  0.3056  0.0120
 2098TIP3    H1 6258   4.847   3.556   3.805  0.3688 -1.1839  3.1504
 2098TIP3    H2 6259   4.808   3.702   3.813 -0.5724 -1.0922 -1.1344
 2099TIP3   OH2 6260   2.846   5.092   3.020 -0.1126  0.1058 -0.2522
 2099TIP3    H1 6261   2.912   5.125   3.081  0.2234 -1.6569  0.3993
 2099TIP3    H2 6262   2.797   5.027   3.070 -2.8577  1.7972 -0.4857
 2100TIP3   OH2 6263   5.732   3.743   1.587  0.6655  0.7709 -0.7005
 2100TIP3    H1 6264   5.827   3.739   1.600  0.5757  0.3404 -0.1343
 2100TIP3    H2 6265   5.713   3.837   1.576  0.9796  1.0030  0.6163
 2101TIP3   OH2 6266   3.021   5.395   5.685 -0.0612 -0.2647  0.0225
 2101TIP3    H1 6267   3.033   5.349   5.767  0.5935 -3.0197 -1.4866
 2101TIP3    H2 6268   2.927   5.388   5.667 -0.1533  0.0575  0.3810
 2102TIP3   OH2 6269   4.216   0.444   4.110  0.2456 -0.4785  0.2312
 2102TIP3    H1 6270   4.309   0.441   4.133  0.3292  0.9228  0.1610
 2102TIP3    H2 6271   4.207   0.521   4.054 -0.8114 -1.1076 -0.5126
 2103TIP3   OH2 6272   1.388   5.443   1.956 -0.2147  0.7875  0.3766
 2103TIP3    H1 6273   1.428   5.357   1.969 -3.2659 -0.5750  2.0665
 2103TIP3    H2 6274   1.409   5.466   1.866  1.3214 -1.3772  0.0948
 2104TIP3   OH2 6275   6.891   0.840   4.072 -0.5418 -0.5816  0.3889
 2104TIP3    H1 6276   6.820   0.861   4.133 -1.9115 -1.0388 -0.9761
 2104TIP3    H2 6277   6.856   0.769   4.018  1.0302 -0.9195 -0.2488
 2105TIP3   OH2 6278   6.230   4.734   5.779  0.1234  0.1619  0.1428
 2105TIP3    H1 6279   6.287   4.669   5.820  1.8013  0.7327 -1.1411
 2105TIP3    H2 6280   6.288   4.784   5.722 -1.1311  2.6774  0.9035
 2106TIP3   OH2 6281   4.530   5.894   0.807 -0.0980  0.4892  0.8269
 2106TIP3    H1 6282   4.550   5.807   0.773 -0.1923  1.1581 -1.0709
 2106TIP3    H2 6283   4.435   5.892   0.823 -0.0994  0.2302  0.7841
 2107TIP3   OH2 6284   3.775   2.761   5.367 -0.2851 -0.1186  0.2057
 2107TIP3    H1 6285   3.780   2.838   5.309  0.0171  0.5381  1.0898
 2107TIP3    H2 6286   3.783   2.686   5.307  1.9786  0.5565 -0.4364
 2108TIP3   OH2 6287   2.306   1.232   0.504  0.4452 -0.3400  0.3025
 2108TIP3    H1 6288   2.381   1.292   0.500 -0.0907  0.3477  0.3319
 2108TIP3    H2 6289   2.250   1.260   0.431 -1.0802  0.9472  1.8825
 2109TIP3   OH2 6290   0.786   5.852   0.776 -0.2175  0.1416  0.4216
 2109TIP3    H1 6291   0.793   5.852   0.872 -0.4248 -1.1664  0.4552
 2109TIP3    H2 6292   0.691   5.852   0.760 -0.2466 -1.7706  0.2842
 2110TIP3   OH2 6293   4.282   1.892   2.988 -0.0419 -0.8018  0.4856
 2110TIP3    H1 6294   4.204   1.851   3.025 -0.9302  0.5576  0.1550
 2110TIP3    H2 6295   4.268   1.890   2.894  1.0562 -1.9425  0.3109
 2111TIP3   OH2 6296   0.042   3.977   0.915  0.5070  0.6896 -0.4382
 2111TIP3    H1 6297   0.005   3.889   0.921  0.6372  0.5389 -1.6424
 2111TIP3    H2 6298   0.134   3.966   0.937  0.2030  0.8051  0.9878
 2112TIP3   OH2 6299   5.017   1.207   0.550  0.0457  0.2401 -0.0853
 2112TIP3    H1 6300   4.950   1.220   0.483 -2.3193 -0.6213  1.9174
 2112TIP3    H2 6301   5.031   1.294   0.587  0.2239  0.4692 -0.6816
 2113TIP3   OH2 6302   3.181   6.357   4.563  0.6272 -0.0471  0.4044
 2113TIP3    H1 6303   3.269   6.370   4.599  1.2624 -1.9516 -0.3672
 2113TIP3    H2 6304   3.151   6.446   4.542  2.1867  0.6727  1.0486
 2114TIP3   OH2 6305   4.217   2.383   0.942  0.7052 -0.0161 -0.2028
 2114TIP3    H1 6306   4.306   2.417   0.955  0.3423  0.9411 -0.1482
 2114TIP3    H2 6307   4.169   2.455   0.901 -0.4383  0.0053  1.1001
 2115TIP3   OH2 6308   4.760   0.436  -0.011 -0.5463 -0.6945  0.4114
 2115TIP3    H1 6309   4.797   0.474   0.069 -1.4372 -1.7365  1.3505
 2115TIP3    H2 6310   4.827   0.373  -0.041  0.0883  0.1856 -0.0757
 2116TIP3   OH2 6311   1.930   5.018   4.297  0.6739 -0.2735  0.5697
 2116TIP3    H1 6312   1.958   4.987   4.383 -0.2454 -2.0531  0.2776
 2116TIP3    H2 6313   1.869   5.089   4.316  1.6226  0.3635  1.3256
 2117TIP3   OH2 6314   6.698   2.902   4.626 -0.2090 -0.1899  0.0607
 2117TIP3    H1 6315   6.723   2.931   4.714 -1.2069  0.6269  0.0913
 2117TIP3    H2 6316   6.769   2.934   4.570 -0.6264  1.1742  0.2815
 2118TIP3   OH2 6317   1.642   1.883   4.737  0.1557 -0.5694 -0.5622
 2118TIP3    H1 6318   1.633   1.831   4.657  0.6886 -1.9403  0.2259
 2118TIP3    H2 6319   1.571   1.947   4.732  1.3999  0.7634 -3.0868
 2119TIP3   OH2 6320   4.271   4.871   1.707 -0.1949 -0.4110  0.3444
 2119TIP3    H1 6321   4.361   4.858   1.680 -0.5130 -0.3913 -0.7631
 2119TIP3    H2 6322   4.235   4.782   1.715  0.0037 -0.4319  1.1201
 2120TIP3   OH2 6323   1.341   2.913   3.164  0.0493  0.6699 -0.2595
 2120TIP3    H1 6324   1.416   2.871   3.122 -0.4671 -0.0519 -0.4704
 2120TIP3    H2 6325   1.380   2.973   3.228  0.8066  0.1531 -0.2241
 2121TIP3   OH2 6326   3.780   5.417   0.693 -0.1655 -0.1228 -0.1535
 2121TIP3    H1 6327   3.817   5.467   0.766 -0.5271  1.3220 -0.9262
 2121TIP3    H2 6328   3.853   5.365   0.661  0.3100  0.1437  0.4720
 2122TIP3   OH2 6329   4.959   0.730   3.473  0.1980  0.4096 -0.4447
 2122TIP3    H1 6330   4.986   0.643   3.444 -1.2879 -0.8474  1.6593
 2122TIP3    H2 6331   5.012   0.748   3.551 -1.5534  0.0054  0.8997
 2123TIP3   OH2 6332   0.188   4.222   2.860  0.4135  0.3491 -0.0963
 2123TIP3    H1 6333   0.143   4.258   2.937  0.5026  1.0438 -0.3570
 2123TIP3    H2 6334   0.127   4.159   2.823 -0.3036  1.1798 -0.3680
 2124TIP3   OH2 6335   6.761   1.337   4.814  0.5900 -0.4258  0.3845
 2124TIP3    H1 6336   6.713   1.255   4.818  2.4454 -1.5924 -0.0166
 2124TIP3    H2 6337   6.747   1.369   4.725  0.7640 -0.9163  0.1741
 2125TIP3   OH2 6338   2.132   3.641   4.471  0.0740 -0.1915 -0.3949
 2125TIP3    H1 6339   2.207   3.594   4.508 -1.1181 -1.9785 -0.1107
 2125TIP3    H2 6340   2.089   3.681   4.547 -0.6037 -1.2176 -0.2212
 2126TIP3   OH2 6341   0.901   0.298   5.800 -0.4643 -0.4650 -0.3932
 2126TIP3    H1 6342   0.841   0.227   5.826 -0.0842 -0.8084 -0.4434
 2126TIP3    H2 6343   0.844   0.374   5.789 -0.8799 -0.7610 -0.3345
 2127TIP3   OH2 6344   5.176   1.999   4.523  0.3276 -0.0383  0.3506
 2127TIP3    H1 6345   5.252   1.941   4.518  0.3041 -0.1254  1.0147
 2127TIP3    H2 6346   5.116   1.956   4.584  0.7467  1.1615  1.6579
 2128TIP3   OH2 6347   7.135   4.357   5.333  0.6164 -0.1967 -0.3548
 2128TIP3    H1 6348   7.106   4.284   5.388  0.4555  0.1075 -0.0396
 2128TIP3    H2 6349   7.064   4.421   5.338  1.9325  1.2288  1.6190
 2129TIP3   OH2 6350   0.610   6.365   3.006  0.1805 -0.1285  0.0053
 2129TIP3    H1 6351   0.601   6.439   2.946  1.8878 -0.2833 -0.5105
 2129TIP3    H2 6352   0.521   6.339   3.026 -0.4659  2.0352  0.1743
 2130TIP3   OH2 6353   1.014   4.403   4.987 -0.6410 -0.2416 -0.0539
 2130TIP3    H1 6354   0.934   4.444   5.019  0.2445  1.0247  0.5891
 2130TIP3    H2 6355   1.042   4.345   5.058 -0.2403  0.3744  0.2951
 2131TIP3   OH2 6356   0.327   2.722   2.459  1.0998 -0.3188 -0.6500
 2131TIP3    H1 6357   0.409   2.706   2.506  0.4003 -1.2280  0.3323
 2131TIP3    H2 6358   0.332   2.666   2.381  1.4007 -0.4100 -0.5652
 2132TIP3   OH2 6359   6.750   1.814   4.215  0.6608 -0.3538 -0.2953
 2132TIP3    H1 6360   6.807   1.880   4.176  1.3230 -0.9772 -0.3920
 2132TIP3    H2 6361   6.674   1.864   4.245  0.9652  0.3954 -0.7282
 2133TIP3   OH2 6362   4.768   1.699   5.575  0.4648 -0.0177  0.2543
 2133TIP3    H1 6363   4.855   1.660   5.576  0.3213 -0.3526  0.1655
 2133TIP3    H2 6364   4.777   1.780   5.525  0.7963  0.1291  0.5527
 2134TIP3   OH2 6365   2.552   2.607   0.948 -0.3719 -0.1788 -0.1502
 2134TIP3    H1 6366   2.476   2.564   0.988  1.6694 -0.6648  3.6352
 2134TIP3    H2 6367   2.625   2.549   0.965  1.5326  2.0717 -0.1378
 2135TIP3   OH2 6368   2.008   3.888   3.902  0.0299 -0.6271  0.2971
 2135TIP3    H1 6369   2.011   3.946   3.826  1.0516 -0.2467  0.6227
 2135TIP3    H2 6370   1.946   3.819   3.877  0.1866 -0.3821 -0.7842
 2136TIP3   OH2 6371   4.576   0.902   5.196 -0.0310  0.1147  0.1630
 2136TIP3    H1 6372   4.534   0.921   5.280  0.5434 -0.7071  0.6383
 2136TIP3    H2 6373   4.645   0.840   5.216  0.9697  0.8920 -0.7287
 2137TIP3   OH2 6374   1.046   0.193   4.072 -0.2497 -0.3774  0.0711
 2137TIP3    H1 6375   1.076   0.284   4.074  0.2834 -0.5581  0.5083
 2137TIP3    H2 6376   1.098   0.153   4.001 -1.0317 -0.1642 -0.6436
 2138TIP3   OH2 6377   4.634   6.237   1.503  0.2422  0.0288 -0.0389
 2138TIP3    H1 6378   4.635   6.311   1.564  0.8403 -1.5702  2.0174
 2138TIP3    H2 6379   4.717   6.244   1.455  0.3965  0.5517  0.2988
 2139TIP3   OH2 6380   4.821   6.275   0.902 -0.6976 -0.0795  0.3290
 2139TIP3    H1 6381   4.842   6.332   0.976  0.6929  1.0429 -0.8823
 2139TIP3    H2 6382   4.878   6.198   0.914  1.7614  1.3944 -1.0520
 2140TIP3   OH2 6383   5.562   4.851   0.741 -0.4051 -0.6882  0.2023
 2140TIP3    H1 6384   5.573   4.896   0.658  1.0056 -2.0397 -0.3901
 2140TIP3    H2 6385   5.600   4.911   0.806  2.5090 -1.3933 -0.7100
 2141TIP3   OH2 6386   3.976   3.489   1.222 -0.4044 -0.1581 -0.0697
 2141TIP3    H1 6387   3.884   3.507   1.243 -0.6072 -0.1995 -0.8845
 2141TIP3    H2 6388   3.984   3.511   1.129  0.5423  0.3298  0.1155
 2142TIP3   OH2 6389   6.825   3.907   0.718 -0.1249  0.1324 -0.0490
 2142TIP3    H1 6390   6.736   3.934   0.738 -0.8576 -0.3462 -2.3396
 2142TIP3    H2 6391   6.833   3.819   0.753 -0.0700  0.6712  1.3443
 2143TIP3   OH2 6392   3.679   4.171   4.758 -0.1455 -0.0537 -0.3791
 2143TIP3    H1 6393   3.608   4.109   4.774 -1.0978  1.0213 -0.2439
 2143TIP3    H2 6394   3.693   4.167   4.663 -1.0420  0.3575 -0.5524
 2144TIP3   OH2 6395   3.006   4.623   5.574 -0.1018  0.6309 -0.3078
 2144TIP3    H1 6396   3.096   4.645   5.600  0.3197  1.3643 -2.2207
 2144TIP3    H2 6397   2.960   4.707   5.577 -0.1954  0.6253 -1.2276
 2145TIP3   OH2 6398   5.267   1.547   0.076 -0.1491  0.3479 -0.0423
 2145TIP3    H1 6399   5.173   1.544   0.055  0.2783 -1.7002 -2.0948
 2145TIP3    H2 6400   5.300   1.623   0.028 -0.6647  0.7821  0.2796
 2146TIP3   OH2 6401   0.257   5.749   0.265  0.2375  0.4442  0.8037
 2146TIP3    H1 6402   0.289   5.666   0.300  2.0881  1.3699  1.4400
 2146TIP3    H2 6403   0.173   5.763   0.309 -1.2881 -2.1695 -1.0567
 2147TIP3   OH2 6404   6.659   5.211   5.689  0.4920 -0.2182  0.0008
 2147TIP3    H1 6405   6.607   5.276   5.735 -2.4168 -3.2607  1.3977
 2147TIP3    H2 6406   6.637   5.222   5.597 -1.4791 -0.3793  0.4153
 2148TIP3   OH2 6407   3.765   2.175   2.636 -0.4459 -0.1180 -0.3445
 2148TIP3    H1 6408   3.814   2.140   2.710 -1.7505 -0.0406  0.6035
 2148TIP3    H2 6409   3.782   2.114   2.565 -0.9799 -1.5171  0.6808
 2149TIP3   OH2 6410   4.247   6.650   5.399  0.1194  0.0795 -0.3104
 2149TIP3    H1 6411   4.307   6.671   5.471  0.5662  0.0140 -0.6582
 2149TIP3    H2 6412   4.160   6.656   5.438  0.2121  2.3072 -0.2759
 2150TIP3   OH2 6413   2.704   6.129   3.467  0.1332 -0.1609  0.6481
 2150TIP3    H1 6414   2.786   6.129   3.417  1.5364 -0.2799  2.8400
 2150TIP3    H2 6415   2.678   6.037   3.472  0.6484 -0.2799  1.1607
 2151TIP3   OH2 6416   4.709   0.965   1.743 -0.6292  0.3705  0.2194
 2151TIP3    H1 6417   4.690   0.951   1.651 -0.2984 -2.2258  0.4914
 2151TIP3    H2 6418   4.727   0.878   1.778  0.3366  1.4086  2.5106
 2152TIP3   OH2 6419   4.705   2.651   0.824  0.5921 -0.3944  0.4273
 2152TIP3    H1 6420   4.714   2.745   0.836  0.3163  0.1266 -2.5973
 2152TIP3    H2 6421   4.775   2.628   0.763 -1.8210 -1.2523 -2.2786
 2153TIP3   OH2 6422   6.235   4.916   0.627  0.7653  0.1337  0.0125
 2153TIP3    H1 6423   6.274   4.840   0.669  0.1734 -0.7758 -1.0241
 2153TIP3    H2 6424   6.191   4.881   0.549  1.3173  1.6617 -1.0449
 2154TIP3   OH2 6425   1.135   3.278   2.868 -0.6473 -0.2461  0.1028
 2154TIP3    H1 6426   1.195   3.247   2.801 -0.0246  1.3192 -0.0917
 2154TIP3    H2 6427   1.134   3.373   2.858  1.0506  0.2737  3.5973
 2155TIP3   OH2 6428   6.874   4.542   3.613 -0.2171  0.0464  0.0337
 2155TIP3    H1 6429   6.921   4.593   3.547  0.2070 -1.0516 -0.5413
 2155TIP3    H2 6430   6.816   4.605   3.655 -0.6713  0.7286 -1.5540
 2156TIP3   OH2 6431   5.298   2.262   2.572  0.5772 -0.2631 -0.3557
 2156TIP3    H1 6432   5.281   2.316   2.495 -2.9531  1.9800  1.6920
 2156TIP3    H2 6433   5.212   2.249   2.612  2.1304 -1.7677  2.9213
 2157TIP3   OH2 6434   2.922   1.162   1.003  0.1100  0.1151 -0.0387
 2157TIP3    H1 6435   3.002   1.158   0.951  1.1806 -0.6774  1.5459
 2157TIP3    H2 6436   2.857   1.114   0.952  0.8995  0.0267 -0.9810
 2158TIP3   OH2 6437   0.516   6.749   3.206  0.3168  0.2040 -0.9109
 2158TIP3    H1 6438   0.445   6.686   3.196  0.5311 -0.1032 -0.5359
 2158TIP3    H2 6439   0.588   6.698   3.243  0.3833  0.7355 -0.2849
 2159TIP3   OH2 6440   4.299   1.620   3.833  0.1537 -0.4353 -0.2047
 2159TIP3    H1 6441   4.379   1.624   3.781  0.5743  2.6693  0.5143
 2159TIP3    H2 6442   4.246   1.693   3.801 -1.7540 -1.5001  0.3869
 2160TIP3   OH2 6443   0.513   3.963   4.231  0.5130  0.4371 -0.1121
 2160TIP3    H1 6444   0.536   3.945   4.140 -2.9411 -0.2137 -1.0102
 2160TIP3    H2 6445   0.560   4.044   4.252  2.3189 -0.0240 -2.0384
 2161TIP3   OH2 6446   2.582   4.062   3.053 -0.7337  0.7263 -0.6532
 2161TIP3    H1 6447   2.666   4.085   3.015 -0.5930  2.0705  0.3759
 2161TIP3    H2 6448   2.518   4.096   2.991 -0.5581 -0.9839 -1.8228
 2162TIP3   OH2 6449   2.883   6.218   4.302 -0.1335 -0.0943  0.7804
 2162TIP3    H1 6450   2.879   6.240   4.209  1.4482 -2.2140  0.1166
 2162TIP3    H2 6451   2.844   6.293   4.347  1.1353  2.0238 -1.4473
 2163TIP3   OH2 6452   0.822   6.356   2.195 -0.6800  0.0097  0.1323
 2163TIP3    H1 6453   0.792   6.266   2.193 -1.6215  0.3232 -0.6013
 2163TIP3    H2 6454   0.914   6.352   2.170 -0.9196 -0.6728 -0.6746
 2164TIP3   OH2 6455   5.509   1.028   2.817  0.7133  0.9807  0.7030
 2164TIP3    H1 6456   5.460   1.110   2.812 -1.1336 -0.1283 -1.6952
 2164TIP3    H2 6457   5.576   1.036   2.749  0.3381  0.4269  0.2567
 2165TIP3   OH2 6458   5.535   1.973   3.267 -0.2151  0.0251  0.3355
 2165TIP3    H1 6459   5.487   1.891   3.275 -2.2670  0.9888 -1.1407
 2165TIP3    H2 6460   5.583   1.965   3.184  0.5780 -0.1247  0.7941
 2166TIP3   OH2 6461   3.003   2.705   1.431  0.4227 -0.1858  0.3856
 2166TIP3    H1 6462   3.023   2.760   1.506 -0.3879  0.6804 -0.0108
 2166TIP3    H2 6463   2.970   2.623   1.469  1.4396 -0.3373  0.9746
 2167TIP3   OH2 6464   3.111   2.180   2.606  0.2632  0.1868  0.1996
 2167TIP3    H1 6465   3.149   2.101   2.567  1.2369  0.3476  0.7817
 2167TIP3    H2 6466   3.023   2.154   2.634 -0.4474  0.0337 -1.9623
 2168TIP3   OH2 6467   0.072   5.128   2.272 -0.1765 -0.1119  0.2342
 2168TIP3    H1 6468   0.147   5.127   2.331 -0.8010 -1.0597  1.0345
 2168TIP3    H2 6469   0.109   5.154   2.188  0.7035  1.4652  1.0471
 2169TIP3   OH2 6470   2.269   1.644   1.223  0.2485 -0.4619  0.0229
 2169TIP3    H1 6471   2.352   1.630   1.178 -0.0633  0.5765 -0.9306
 2169TIP3    H2 6472   2.288   1.630   1.315  0.8704 -2.8768 -0.3892
 2170TIP3   OH2 6473   3.549   5.571   5.465  0.0761  0.4304  0.3360
 2170TIP3    H1 6474   3.544   5.484   5.502 -4.3727 -0.1440 -1.0310
 2170TIP3    H2 6475   3.582   5.558   5.375 -0.0002  0.2621  0.3335
 2171TIP3   OH2 6476   4.987   0.454   5.291  0.0612 -0.1986 -0.3422
 2171TIP3    H1 6477   5.083   0.454   5.288  0.0634  1.0074 -0.5307
 2171TIP3    H2 6478   4.962   0.546   5.290 -1.1171 -0.4987 -0.6287
 2172TIP3   OH2 6479   1.366   6.034   5.729  0.3457  0.4842  0.3327
 2172TIP3    H1 6480   1.296   6.088   5.767 -0.6768 -0.9470  0.5977
 2172TIP3    H2 6481   1.437   6.038   5.793 -0.2694  0.3866  1.0388
 2173TIP3   OH2 6482   1.213   5.148   1.814 -0.5782 -0.2399 -0.3486
 2173TIP3    H1 6483   1.307   5.138   1.828 -0.5720  0.5136  0.2237
 2173TIP3    H2 6484   1.178   5.168   1.901 -1.0937  0.6553 -0.7457
 2174TIP3   OH2 6485   2.171   5.303   1.761  0.0531  0.1520  0.0425
 2174TIP3    H1 6486   2.167   5.394   1.730 -0.6538  0.0406 -0.2131
 2174TIP3    H2 6487   2.141   5.308   1.852  1.8300  0.4339  0.6710
 2175TIP3   OH2 6488   4.749   3.647   0.828 -0.3664  0.4524  0.1960
 2175TIP3    H1 6489   4.772   3.665   0.737  1.5805 -1.4117  0.2517
 2175TIP3    H2 6490   4.832   3.628   0.871 -1.4604 -1.0650  1.7850
 2176TIP3   OH2 6491   2.026   5.635   2.282  0.0919  0.0035  0.2571
 2176TIP3    H1 6492   1.978   5.664   2.359  0.3214  1.3248 -0.0825
 2176TIP3    H2 6493   2.107   5.686   2.282  0.7444 -0.9943 -0.0934
 2177TIP3   OH2 6494   6.287   3.422   0.971  0.1416 -0.4915  0.2412
 2177TIP3    H1 6495   6.276   3.331   0.944 -1.6072  0.0512 -0.9937
 2177TIP3    H2 6496   6.228   3.432   1.046  2.2328 -0.9838  2.0960
 2178TIP3   OH2 6497   1.048   5.060   1.059  0.0316  0.1670  0.0024
 2178TIP3    H1 6498   1.028   5.151   1.080 -0.2108  0.2503 -0.5751
 2178TIP3    H2 6499   1.128   5.064   1.007  0.6249 -0.0376  0.8841
 2179TIP3   OH2 6500   5.623   0.484   3.401  0.3293 -0.3993 -0.2041
 2179TIP3    H1 6501   5.694   0.541   3.429  0.6702 -0.5715 -0.6965
 2179TIP3    H2 6502   5.590   0.524   3.320 -2.1495  1.3675  1.5365
 2180TIP3   OH2 6503   4.000   1.153   0.001 -0.3321 -0.5850  0.7911
 2180TIP3    H1 6504   4.080   1.178  -0.046 -0.4343 -3.0320 -0.8922
 2180TIP3    H2 6505   4.006   1.199   0.084  2.9000 -0.7581  0.7997
 2181TIP3   OH2 6506   5.619   3.699   4.270 -0.0010  0.0802 -0.0953
 2181TIP3    H1 6507   5.688   3.754   4.232 -0.4810 -0.0935 -1.2675
 2181TIP3    H2 6508   5.539   3.751   4.260  0.0257  0.5948  1.9155
 2182TIP3   OH2 6509   1.420   1.361   2.911 -0.2901 -0.5838 -0.2585
 2182TIP3    H1 6510   1.360   1.354   2.837 -0.5876  1.1315 -0.2287
 2182TIP3    H2 6511   1.461   1.447   2.901  1.2339 -1.1913  0.4297
 2183TIP3   OH2 6512   0.192   6.128   1.546  0.6011 -0.2184  0.0206
 2183TIP3    H1 6513   0.283   6.149   1.569  0.2926 -0.1222  1.1942
 2183TIP3    H2 6514   0.173   6.048   1.595  0.0719 -0.2801 -0.2827
 2184TIP3   OH2 6515   6.975   1.591   1.859  0.3818  0.2352  0.5928
 2184TIP3    H1 6516   6.973   1.651   1.785  1.7773 -0.6850 -0.2450
 2184TIP3    H2 6517   6.924   1.635   1.928  0.5054  1.8797 -0.3195
 2185TIP3   OH2 6518   1.822   3.826   2.870 -0.4385 -0.0690  0.3047
 2185TIP3    H1 6519   1.853   3.837   2.959  1.0022  0.5744 -0.2578
 2185TIP3    H2 6520   1.873   3.888   2.818 -1.2240 -0.4508 -0.9766
 2186TIP3   OH2 6521   1.323   2.363   4.939  0.1511 -0.4434 -0.3026
 2186TIP3    H1 6522   1.351   2.440   4.891  0.6495 -0.2612  0.2526
 2186TIP3    H2 6523   1.361   2.375   5.027 -0.6398 -0.8122  0.0973
 2187TIP3   OH2 6524   4.657   6.156   2.505  0.4340  0.1010 -0.4200
 2187TIP3    H1 6525   4.704   6.139   2.587 -1.7259  0.5523  0.9888
 2187TIP3    H2 6526   4.575   6.107   2.514  0.3015 -0.1214 -2.4891
 2188TIP3   OH2 6527   1.458   2.619   1.329  0.6115  0.0334  0.1829
 2188TIP3    H1 6528   1.516   2.592   1.258  2.2392 -0.3767  1.6135
 2188TIP3    H2 6529   1.496   2.700   1.361 -1.4598  1.5148 -0.8723
 2189TIP3   OH2 6530   4.146   2.861   0.512  0.6094 -0.1984  0.1501
 2189TIP3    H1 6531   4.169   2.783   0.561 -0.8399 -0.4183  0.5415
 2189TIP3    H2 6532   4.066   2.893   0.555 -1.1465 -0.8071 -2.4247
 2190TIP3   OH2 6533   0.298   3.309   3.495 -0.0430 -0.0620  0.0379
 2190TIP3    H1 6534   0.343   3.227   3.515  0.9228  0.1056 -1.2967
 2190TIP3    H2 6535   0.312   3.365   3.571 -0.5306 -1.0434  0.8662
 2191TIP3   OH2 6536   1.344   6.608   5.130 -0.1240  0.4973 -0.2153
 2191TIP3    H1 6537   1.257   6.579   5.103  0.9487 -0.6591 -2.7170
 2191TIP3    H2 6538   1.397   6.528   5.131  1.4497  1.4741 -1.0240
 2192TIP3   OH2 6539   5.266   4.966   3.266 -0.4145 -0.0778  0.1811
 2192TIP3    H1 6540   5.241   5.058   3.275  1.5965  0.9353 -3.0820
 2192TIP3    H2 6541   5.357   4.963   3.299 -0.3339 -0.8148 -0.0948
 2193TIP3   OH2 6542   4.591   2.690   2.443  0.0970  0.0225  0.0792
 2193TIP3    H1 6543   4.499   2.671   2.425  0.0359  0.1736  0.2274
 2193TIP3    H2 6544   4.591   2.721   2.533  0.1587  0.9537 -0.2340
 2194TIP3   OH2 6545   0.187   6.684   3.490  0.1123 -0.3005 -0.2168
 2194TIP3    H1 6546   0.112   6.703   3.546  0.1862 -2.3821  0.6773
 2194TIP3    H2 6547   0.208   6.593   3.508  0.5629 -0.8747 -3.1658
 2195TIP3   OH2 6548   3.606   3.541   5.483  0.1155  0.1161  0.6314
 2195TIP3    H1 6549   3.566   3.592   5.413  2.9173 -2.1384 -3.0057
 2195TIP3    H2 6550   3.533   3.493   5.522 -1.4500 -0.4816 -2.6267
 2196TIP3   OH2 6551   5.325   3.667   0.221 -0.5144 -0.0835 -0.1317
 2196TIP3    H1 6552   5.300   3.576   0.234 -0.5903 -0.0796 -0.2496
 2196TIP3    H2 6553   5.355   3.672   0.131  1.6230 -0.4714  0.5035
 2197TIP3   OH2 6554   4.221   6.541   0.099  0.1662 -0.1376 -0.5139
 2197TIP3    H1 6555   4.180   6.603   0.038 -0.8378  0.3679  0.6472
 2197TIP3    H2 6556   4.261   6.597   0.166 -1.4127 -0.7306  0.9670
 2198TIP3   OH2 6557   0.415   4.182   0.140  0.7943  0.5739  0.4469
 2198TIP3    H1 6558   0.320   4.193   0.132  0.5193 -0.2124  2.1323
 2198TIP3    H2 6559   0.442   4.249   0.202  1.1600  0.1475  0.7575
 2199TIP3   OH2 6560   3.879   3.522   5.495  0.2818 -0.7388 -0.4535
 2199TIP3    H1 6561   3.787   3.546   5.488  0.4550 -0.2255 -1.1281
 2199TIP3    H2 6562   3.889   3.446   5.437  0.6242  0.2726 -1.7799
 2200TIP3   OH2 6563   1.414   3.743   1.303  0.1859 -0.4201  0.2095
 2200TIP3    H1 6564   1.381   3.823   1.261  1.8103 -0.2795 -0.9262
 2200TIP3    H2 6565   1.466   3.701   1.234  2.1462 -0.7113  1.7976
 2201TIP3   OH2 6566   1.367   1.751   5.020  0.0030  0.0257 -0.1179
 2201TIP3    H1 6567   1.411   1.753   5.105 -0.9894  0.6458  0.4008
 2201TIP3    H2 6568   1.432   1.712   4.961  0.0740 -2.1544  1.2762
 2202TIP3   OH2 6569   5.874   3.094   1.810  0.3017 -0.2402 -0.2824
 2202TIP3    H1 6570   5.843   3.173   1.854  0.0118 -0.4595 -0.0893
 2202TIP3    H2 6571   5.932   3.053   1.873 -0.0178 -0.4906 -0.1459
 2203TIP3   OH2 6572   7.125  -0.005   2.983  0.1735 -0.1779  0.4349
 2203TIP3    H1 6573   7.203   0.042   3.013 -0.6383  1.8589 -0.4530
 2203TIP3    H2 6574   7.052   0.036   3.029 -0.5149 -1.0054  0.1069
 2204TIP3   OH2 6575   5.453   5.588   1.725  0.5742 -0.2850  0.0522
 2204TIP3    H1 6576   5.415   5.500   1.717 -0.5768  0.1732  0.3074
 2204TIP3    H2 6577   5.468   5.617   1.635 -0.4662 -0.1536 -0.0905
 2205TIP3   OH2 6578   1.631   0.253   5.514  0.1199  0.0235 -0.0871
 2205TIP3    H1 6579   1.537   0.245   5.527 -0.3779  1.7472 -2.1691
 2205TIP3    H2 6580   1.651   0.193   5.442  0.5780 -0.1106  0.1447
 2206TIP3   OH2 6581   5.017   2.707   5.505  0.0951 -0.3900  0.2380
 2206TIP3    H1 6582   5.023   2.693   5.600 -0.5267 -1.3507  0.1522
 2206TIP3    H2 6583   4.979   2.794   5.496  1.0396  0.1047  0.8538
 2207TIP3   OH2 6584   3.413   5.867   3.145  0.5192  0.0487  0.4047
 2207TIP3    H1 6585   3.455   5.784   3.171  1.5501  0.8612  1.4535
 2207TIP3    H2 6586   3.425   5.924   3.221 -0.0832  1.2045 -0.3463
 2208TIP3   OH2 6587   7.089   4.510   1.893 -0.5221  0.3093 -0.2859
 2208TIP3    H1 6588   7.124   4.532   1.807  0.5416 -0.2627 -0.0121
 2208TIP3    H2 6589   7.026   4.439   1.876 -1.0937  0.9029 -0.6989
 2209TIP3   OH2 6590   6.142   5.029   2.977 -0.3817  0.0044  0.0410
 2209TIP3    H1 6591   6.127   5.029   2.882  0.4429 -0.2809 -0.0972
 2209TIP3    H2 6592   6.214   5.090   2.989  0.1440 -0.6788  0.3807
 2210TIP3   OH2 6593   1.378   0.563   5.281 -0.5734 -0.0284 -0.5425
 2210TIP3    H1 6594   1.373   0.589   5.373  0.2971 -1.9442  0.1051
 2210TIP3    H2 6595   1.455   0.608   5.247  0.9161 -1.6055  0.5580
 2211TIP3   OH2 6596   6.430   3.697   5.092  0.2175  0.1161 -0.2343
 2211TIP3    H1 6597   6.371   3.759   5.135 -0.9238 -1.5636  0.7481
 2211TIP3    H2 6598   6.467   3.646   5.164  0.0442 -1.2413 -1.0762
 2212TIP3   OH2 6599   0.034   1.659   5.035  0.1720 -0.6995  0.3906
 2212TIP3    H1 6600  -0.004   1.706   4.960 -1.2826 -1.0797  0.8544
 2212TIP3    H2 6601   0.074   1.728   5.088 -0.1892 -0.2311  0.0686
 2213TIP3   OH2 6602   1.725   0.839   1.710  0.0261  0.2580  0.0350
 2213TIP3    H1 6603   1.726   0.748   1.740 -1.2266  0.5593  1.0574
 2213TIP3    H2 6604   1.760   0.835   1.621  1.0479 -1.0642  0.4601
 2214TIP3   OH2 6605   6.565   4.523   0.477  0.4756 -0.3288  0.3890
 2214TIP3    H1 6606   6.619   4.492   0.550 -0.4916 -0.2307  1.1582
 2214TIP3    H2 6607   6.475   4.515   0.508  0.0430 -0.3028 -0.8078
 2215TIP3   OH2 6608   0.272   3.109   3.989  0.2230 -0.5029  0.1658
 2215TIP3    H1 6609   0.266   3.205   3.980 -0.8262 -0.6320 -0.6416
 2215TIP3    H2 6610   0.233   3.090   4.074 -1.5773 -0.3870 -0.6001
 2216TIP3   OH2 6611   0.828   6.316   5.359 -0.8815  0.0048  0.1371
 2216TIP3    H1 6612   0.898   6.258   5.390 -2.1624 -1.2199  0.8364
 2216TIP3    H2 6613   0.874   6.390   5.320  0.8042 -1.0421  0.0490
 2217TIP3   OH2 6614   4.776   6.499   3.481  0.5653 -0.7119 -0.4524
 2217TIP3    H1 6615   4.853   6.467   3.435 -0.1279 -1.8648 -0.8461
 2217TIP3    H2 6616   4.794   6.480   3.573  0.5169 -1.5047 -0.6002
 2218TIP3   OH2 6617   7.146   6.495   3.692  0.1059  0.2584 -0.0328
 2218TIP3    H1 6618   7.148   6.591   3.683  0.8012  0.2044 -0.4374
 2218TIP3    H2 6619   7.117   6.481   3.783  0.2167  0.8486  0.1004
 2219TIP3   OH2 6620   3.375   3.593   3.517  0.2296 -0.0485 -0.1686
 2219TIP3    H1 6621   3.357   3.649   3.592  3.4239  1.1202 -0.0974
 2219TIP3    H2 6622   3.340   3.508   3.541  0.1769  0.5788  2.1896
 2220TIP3   OH2 6623   0.414   1.401   3.642  0.2426 -0.4043 -0.5055
 2220TIP3    H1 6624   0.348   1.430   3.580 -0.2220 -0.5105 -0.0717
 2220TIP3    H2 6625   0.454   1.482   3.674  1.2902 -0.3843 -1.7786
 2221TIP3   OH2 6626   5.178   4.464   1.270 -0.2207  0.3415 -0.3552
 2221TIP3    H1 6627   5.266   4.472   1.306 -0.7876 -0.4682  1.3381
 2221TIP3    H2 6628   5.130   4.539   1.305 -0.5763 -0.0232 -0.0461
 2222TIP3   OH2 6629   1.924   4.784   2.069  0.4168  0.2406 -0.7602
 2222TIP3    H1 6630   1.930   4.828   2.154 -1.2189  0.5138 -0.7677
 2222TIP3    H2 6631   1.897   4.695   2.090 -0.2787  0.3893 -1.0070
 2223TIP3   OH2 6632   5.800   5.086   3.112 -0.1008  0.3453  0.2045
 2223TIP3    H1 6633   5.806   5.179   3.136  1.1335  0.4234 -0.3241
 2223TIP3    H2 6634   5.808   5.040   3.195 -0.7785  0.6965  0.4799
 2224TIP3   OH2 6635   6.733   3.306   4.419  0.0019 -0.1883  0.5118
 2224TIP3    H1 6636   6.779   3.240   4.367 -0.1687  0.1269 -0.0536
 2224TIP3    H2 6637   6.789   3.322   4.494  1.2720  0.8405 -0.6094
 2225TIP3   OH2 6638   7.100   3.563   1.664  0.1094 -0.2649  0.8256
 2225TIP3    H1 6639   7.025   3.542   1.719 -1.0735 -0.5296 -0.8175
 2225TIP3    H2 6640   7.072   3.637   1.611  1.6824  0.8277  1.4469
 2226TIP3   OH2 6641   4.161   5.134   2.541  0.3333  0.1038  0.2314
 2226TIP3    H1 6642   4.181   5.116   2.449 -2.1715  1.0000 -0.5802
 2226TIP3    H2 6643   4.114   5.057   2.571  0.9907 -0.1105  0.7434
 2227TIP3   OH2 6644   6.511   0.519   5.077  0.2367 -0.6265  0.1463
 2227TIP3    H1 6645   6.478   0.597   5.032  1.0911  0.2011  0.9007
 2227TIP3    H2 6646   6.436   0.484   5.125 -0.3972 -0.8591 -0.9928
 2228TIP3   OH2 6647   3.317   1.200   2.098  0.4228 -0.5191  0.0034
 2228TIP3    H1 6648   3.300   1.163   2.184 -0.5315 -0.0179  0.0454
 2228TIP3    H2 6649   3.238   1.182   2.048  0.9429 -0.7534 -0.7587
 2229TIP3   OH2 6650   3.674   4.881   3.667  0.5755  0.7622 -0.5680
 2229TIP3    H1 6651   3.652   4.938   3.593 -0.6343  1.9351  0.6386
 2229TIP3    H2 6652   3.768   4.890   3.678  0.7870  0.5024 -1.9903
 2230TIP3   OH2 6653   3.835   1.665   5.283 -0.4234 -0.4624  0.3513
 2230TIP3    H1 6654   3.772   1.660   5.212  0.5829 -0.6368 -0.5460
 2230TIP3    H2 6655   3.782   1.662   5.363 -1.7006  1.3019 -0.3665
 2231TIP3   OH2 6656   2.706   2.520   2.129  0.2040  0.1549 -0.4628
 2231TIP3    H1 6657   2.650   2.583   2.174 -0.3192  0.3861 -1.3976
 2231TIP3    H2 6658   2.647   2.449   2.103  0.9834 -1.3560  1.6103
 2232TIP3   OH2 6659   6.362   2.938   3.265  0.2281  0.2757  0.0143
 2232TIP3    H1 6660   6.277   2.924   3.224  0.4897 -0.6468 -0.2291
 2232TIP3    H2 6661   6.361   2.882   3.343  0.3918  0.7027  0.3277
 2233TIP3   OH2 6662   4.163   2.812   3.163  0.3041 -0.2507 -0.0573
 2233TIP3    H1 6663   4.107   2.890   3.164 -1.4211 -1.4336  0.2201
 2233TIP3    H2 6664   4.212   2.816   3.245 -1.6222 -0.6955  1.1717
 2234TIP3   OH2 6665   6.285   6.748   4.731  0.1455  0.3245 -0.6393
 2234TIP3    H1 6666   6.206   6.732   4.679  0.6368 -2.0214 -0.7478
 2234TIP3    H2 6667   6.355   6.757   4.665  0.4277 -0.5304 -0.4635
 2235TIP3   OH2 6668   6.786   2.345   5.330  0.5327  0.6314 -0.2282
 2235TIP3    H1 6669   6.824   2.403   5.397  0.1840 -1.6596  2.0927
 2235TIP3    H2 6670   6.861   2.301   5.291  0.5922  0.1471  0.4315
 2236TIP3   OH2 6671   6.711   0.674   5.584 -0.3444 -0.2877  0.3439
 2236TIP3    H1 6672   6.690   0.610   5.516  0.7912  0.7387 -1.0480
 2236TIP3    H2 6673   6.675   0.756   5.551 -1.2476 -0.0580  1.8100
 2237TIP3   OH2 6674   0.331   6.124   5.640  0.1231 -0.0533  0.2004
 2237TIP3    H1 6675   0.419   6.160   5.650 -0.1938  0.6883  0.3729
 2237TIP3    H2 6676   0.314   6.081   5.724 -0.0944  0.7400  0.5698
 2238TIP3   OH2 6677   0.657   6.683   1.862  0.7896 -0.2531  0.0336
 2238TIP3    H1 6678   0.687   6.637   1.784  0.9099  0.8458 -0.5834
 2238TIP3    H2 6679   0.674   6.621   1.934  2.7376 -0.4237 -0.5221
 2239TIP3   OH2 6680   5.204   4.858   1.795  0.1187 -0.1425  0.0407
 2239TIP3    H1 6681   5.230   4.870   1.704  1.6416 -0.6971  0.3685
 2239TIP3    H2 6682   5.123   4.807   1.790  0.2924 -0.3501 -1.0079
 2240TIP3   OH2 6683   2.391   1.863   0.487 -0.3430  0.1052 -0.0187
 2240TIP3    H1 6684   2.336   1.889   0.413  0.6570 -0.9460 -1.1731
 2240TIP3    H2 6685   2.329   1.838   0.556 -1.3629 -1.2014 -1.3386
 2241TIP3   OH2 6686   1.524   4.578   2.477  0.2555 -0.4586  0.0968
 2241TIP3    H1 6687   1.433   4.557   2.498 -0.1085 -0.6260 -1.4944
 2241TIP3    H2 6688   1.549   4.513   2.411  1.3143 -0.0208  0.0524
 2242TIP3   OH2 6689   6.652   0.858   5.191  0.2088  0.1551  0.2656
 2242TIP3    H1 6690   6.566   0.825   5.216 -0.5751  2.5679  0.9882
 2242TIP3    H2 6691   6.639   0.899   5.105  0.6390  0.4702  0.3434
 2243TIP3   OH2 6692   3.864   3.043   1.760 -0.3613 -0.1297  0.0951
 2243TIP3    H1 6693   3.831   2.967   1.808  1.4863 -1.3684 -0.4604
 2243TIP3    H2 6694   3.833   3.030   1.670  0.3696 -0.5478 -0.1131
 2244TIP3   OH2 6695   2.055   4.951   3.816 -0.0047  0.4197  0.4061
 2244TIP3    H1 6696   2.100   5.008   3.878  0.7125  0.1502  0.1360
 2244TIP3    H2 6697   2.086   4.863   3.837  1.1086  0.4330 -1.0523
 2245TIP3   OH2 6698   5.708   1.394   4.932  0.4979 -0.3237  0.3523
 2245TIP3    H1 6699   5.714   1.414   5.025  1.6632 -0.8209  0.3993
 2245TIP3    H2 6700   5.615   1.400   4.912  0.2961  0.3720  1.4145
 2246TIP3   OH2 6701   5.177   6.426   0.355 -0.2750 -0.3432 -0.4332
 2246TIP3    H1 6702   5.092   6.387   0.379  0.1627 -0.2491  1.3758
 2246TIP3    H2 6703   5.242   6.363   0.386  0.3523  0.2311 -0.5667
 2247TIP3   OH2 6704   3.734   5.747   0.133  0.2232 -0.0401  0.1828
 2247TIP3    H1 6705   3.777   5.833   0.136 -0.7129  0.5615 -1.9267
 2247TIP3    H2 6706   3.771   5.700   0.207 -0.0320  2.5418  2.0818
 2248TIP3   OH2 6707   5.357   2.890   2.908 -0.0697 -0.6503  0.3400
 2248TIP3    H1 6708   5.287   2.877   2.844  0.2276  0.0727 -0.1520
 2248TIP3    H2 6709   5.314   2.935   2.981 -0.7578 -2.8645  1.3792
 2249TIP3   OH2 6710   4.945   0.388   2.050 -0.2203 -0.1018 -1.0467
 2249TIP3    H1 6711   4.891   0.450   2.001  0.1369  0.7714 -0.3568
 2249TIP3    H2 6712   4.961   0.316   1.989 -3.2021 -1.0117 -0.9199
 2250TIP3   OH2 6713   3.559   0.480   2.912  0.2291  0.2905 -0.4107
 2250TIP3    H1 6714   3.470   0.452   2.894  0.9154 -1.7078 -0.9961
 2250TIP3    H2 6715   3.599   0.491   2.826  1.2811 -1.4809 -0.1883
 2251TIP3   OH2 6716   6.097   3.485   1.151 -0.3738 -0.7209 -0.8270
 2251TIP3    H1 6717   6.040   3.438   1.212  1.7636 -1.8928  0.3597
 2251TIP3    H2 6718   6.037   3.521   1.085 -2.5282 -1.2822  0.7339
 2252TIP3   OH2 6719   6.910   3.485   4.859 -0.4428 -0.0732  0.1552
 2252TIP3    H1 6720   6.820   3.514   4.872 -0.7838 -0.5381 -1.0243
 2252TIP3    H2 6721   6.964   3.555   4.897 -1.2956  0.3828  0.5431
 2253TIP3   OH2 6722   3.686   6.006   2.822 -0.4273  0.1753 -0.0579
 2253TIP3    H1 6723   3.694   5.981   2.730  1.0864 -0.2713  0.1669
 2253TIP3    H2 6724   3.747   6.079   2.832 -1.1945  0.7727  0.4261
 2254TIP3   OH2 6725   6.641   1.983   3.174  0.2960 -0.2202 -0.0881
 2254TIP3    H1 6726   6.680   2.019   3.094 -0.3178  1.5540  0.3770
 2254TIP3    H2 6727   6.652   2.052   3.240  0.2975 -1.4264  1.2337
 2255TIP3   OH2 6728   5.941   5.583   2.241  0.4486 -0.5873 -0.0202
 2255TIP3    H1 6729   5.980   5.573   2.328  1.0379  0.9552 -0.0720
 2255TIP3    H2 6730   5.983   5.661   2.205  0.7691 -1.6008 -1.9967
 2256TIP3   OH2 6731   0.380   3.460   4.447 -0.4658  0.1933  0.5924
 2256TIP3    H1 6732   0.389   3.538   4.501 -1.4668 -0.1121  1.2290
 2256TIP3    H2 6733   0.287   3.436   4.454 -0.7881  0.5061 -1.7555
 2257TIP3   OH2 6734   3.990   1.232   2.804  0.0030  0.6214 -0.2390
 2257TIP3    H1 6735   3.962   1.141   2.821 -1.8860  1.2566  0.2879
 2257TIP3    H2 6736   4.064   1.223   2.744  0.3224 -1.2961  0.3529
 2258TIP3   OH2 6737   3.729   0.469   0.285  0.4076 -0.1825 -0.2633
 2258TIP3    H1 6738   3.793   0.400   0.270  2.2985  1.5041 -0.4181
 2258TIP3    H2 6739   3.747   0.534   0.217 -0.4671  1.0121  0.5982
 2259TIP3   OH2 6740   6.913   0.154   3.575 -0.1472 -0.2994 -0.1540
 2259TIP3    H1 6741   6.853   0.155   3.500 -1.3173  2.1187  0.7120
 2259TIP3    H2 6742   6.917   0.245   3.604  0.5363 -1.0890  2.4983
 2260TIP3   OH2 6743   6.311   2.341   1.746  0.1210  0.2909  0.4616
 2260TIP3    H1 6744   6.381   2.276   1.761  0.1909 -0.0247 -1.0635
 2260TIP3    H2 6745   6.232   2.289   1.733 -0.1876  0.6005  1.0859
 2261TIP3   OH2 6746   5.672   6.443   0.279  0.0071 -0.1616 -0.1604
 2261TIP3    H1 6747   5.762   6.474   0.268  0.2429 -0.6787  0.2702
 2261TIP3    H2 6748   5.622   6.491   0.213  0.0764  2.3074  1.4435
 2262TIP3   OH2 6749   5.569   2.639   5.527  0.1655  0.0129 -0.0387
 2262TIP3    H1 6750   5.581   2.711   5.464 -1.9660  0.7347  0.3116
 2262TIP3    H2 6751   5.474   2.632   5.537  0.3713 -2.2034  0.7219
 2263TIP3   OH2 6752   2.702   1.862   0.727  0.2110 -0.1817 -0.1301
 2263TIP3    H1 6753   2.714   1.947   0.683 -1.8171  1.0869  1.5809
 2263TIP3    H2 6754   2.639   1.880   0.797 -0.1798 -3.1021  0.3808
 2264TIP3   OH2 6755   1.118   2.023   2.195 -0.0166  0.0918 -0.2351
 2264TIP3    H1 6756   1.157   2.099   2.151 -1.3871  0.3797 -1.0116
 2264TIP3    H2 6757   1.120   1.954   2.130 -1.1816  0.2426 -0.4535
 2265TIP3   OH2 6758   3.796   3.935   0.271  0.1017 -0.1284  0.0762
 2265TIP3    H1 6759   3.745   3.921   0.191 -2.2520 -0.6150  1.5619
 2265TIP3    H2 6760   3.886   3.948   0.240 -0.6717 -0.5285 -2.6092
 2266TIP3   OH2 6761   1.744   3.312   2.632 -0.0266 -0.2160 -0.6688
 2266TIP3    H1 6762   1.704   3.382   2.684 -0.0201 -0.7876  0.1220
 2266TIP3    H2 6763   1.811   3.355   2.580  1.1347  0.1204  1.0504
 2267TIP3   OH2 6764   3.399   5.726   1.548  0.4829 -0.2246 -0.2418
 2267TIP3    H1 6765   3.337   5.663   1.586  1.1304 -0.1545  0.9779
 2267TIP3    H2 6766   3.360   5.811   1.567  1.2056 -0.1514  1.0859
 2268TIP3   OH2 6767   4.025   2.447   5.441 -0.1054  0.1182  0.0192
 2268TIP3    H1 6768   3.930   2.441   5.447 -0.0947  0.1727  0.2434
 2268TIP3    H2 6769   4.050   2.514   5.504  0.0812  0.1080 -0.0411
 2269TIP3   OH2 6770   3.851   3.109   2.430 -0.0397 -0.1991 -0.4248
 2269TIP3    H1 6771   3.828   3.041   2.367 -1.0104  0.5726 -0.9289
 2269TIP3    H2 6772   3.933   3.146   2.395  1.5541 -2.2907  0.8477
 2270TIP3   OH2 6773   5.336   6.158   3.003 -0.8842  0.3258 -0.5855
 2270TIP3    H1 6774   5.355   6.213   2.927 -0.2285  1.7453  0.5629
 2270TIP3    H2 6775   5.261   6.105   2.975 -0.9228  1.0902 -2.0769
 2271TIP3   OH2 6776   1.930   4.302   2.293  0.3131  0.1066  0.3132
 2271TIP3    H1 6777   2.021   4.316   2.320  0.7575 -0.8765 -0.5992
 2271TIP3    H2 6778   1.902   4.225   2.342  0.0246  0.2990  0.4526
 2272TIP3   OH2 6779   6.326   5.771   1.128  0.0062  0.1788  0.2506
 2272TIP3    H1 6780   6.398   5.709   1.131  0.6298  0.7367 -1.8103
 2272TIP3    H2 6781   6.353   5.837   1.065 -0.4097  2.8736  2.6674
 2273TIP3   OH2 6782   1.179   6.519   3.863 -0.0423  0.0667  0.2135
 2273TIP3    H1 6783   1.225   6.444   3.901  0.2834  1.2533  2.3173
 2273TIP3    H2 6784   1.115   6.544   3.929  0.6359  2.3105  0.0937
 2274TIP3   OH2 6785   0.538   6.673   0.167 -0.0198 -0.2732  0.2228
 2274TIP3    H1 6786   0.539   6.739   0.097 -4.2380 -0.2958 -0.1175
 2274TIP3    H2 6787   0.565   6.593   0.124 -0.2836  0.1832 -0.8361
 2275TIP3   OH2 6788   5.295   6.663   2.399  0.1475  0.3242  0.0264
 2275TIP3    H1 6789   5.254   6.578   2.387 -1.3929  0.9244  0.8815
 2275TIP3    H2 6790   5.239   6.724   2.350  0.1932  1.1092  0.9255
 2276TIP3   OH2 6791   5.059   3.735   1.968 -0.6239  0.5561 -0.0622
 2276TIP3    H1 6792   4.969   3.757   1.947 -0.7630 -0.6513 -0.8093
 2276TIP3    H2 6793   5.073   3.772   2.056 -1.1600  2.5449 -0.7729
 2277TIP3   OH2 6794   2.527   2.283   4.861 -0.2164  0.2886 -0.0413
 2277TIP3    H1 6795   2.577   2.211   4.822 -0.5243 -0.2902  0.6167
 2277TIP3    H2 6796   2.461   2.240   4.914 -1.1101  1.0505 -0.5088
 2278TIP3   OH2 6797   1.164   5.685   5.568 -0.1615 -0.8549  0.3095
 2278TIP3    H1 6798   1.135   5.637   5.490 -1.4962  0.5940 -0.1299
 2278TIP3    H2 6799   1.226   5.749   5.535 -2.5535  1.4322 -0.0396
 2279TIP3   OH2 6800   3.011   3.738   3.530  0.0735  0.2257  0.1764
 2279TIP3    H1 6801   3.077   3.668   3.531  1.3522  1.3299 -0.8696
 2279TIP3    H2 6802   3.063   3.819   3.523 -1.3857  1.1899  0.0516
 2280TIP3   OH2 6803   2.712   1.269   0.724 -0.2205 -0.1050  0.2009
 2280TIP3    H1 6804   2.682   1.307   0.807  1.0121  0.5319  0.3814
 2280TIP3    H2 6805   2.807   1.283   0.725  0.0865 -1.9377 -0.3940
 2281TIP3   OH2 6806   4.935   6.252   4.662  0.0648 -0.0424 -0.2144
 2281TIP3    H1 6807   5.025   6.258   4.693 -0.0619  1.2468 -0.0474
 2281TIP3    H2 6808   4.935   6.302   4.580 -0.4385 -0.2695 -0.3560
 2282TIP3   OH2 6809   0.349   0.693   3.842 -0.3586  0.2348 -0.1209
 2282TIP3    H1 6810   0.307   0.775   3.816 -0.9410  0.0287  0.1535
 2282TIP3    H2 6811   0.307   0.670   3.925 -0.7248 -0.7272 -0.5652
 2283TIP3   OH2 6812   3.659   5.076   0.164  0.0430 -0.3073 -0.6469
 2283TIP3    H1 6813   3.655   4.986   0.196 -1.1549  0.1594  0.6117
 2283TIP3    H2 6814   3.694   5.126   0.237 -1.5740  0.6035 -0.4638
 2284TIP3   OH2 6815   5.694   5.175   1.752 -0.5710 -0.6935  0.3018
 2284TIP3    H1 6816   5.717   5.158   1.661  0.7437  2.5482 -0.0913
 2284TIP3    H2 6817   5.736   5.104   1.801  0.9590 -1.0300 -1.3811
 2285TIP3   OH2 6818   2.109   4.136   3.388  0.5953 -0.2043 -0.6698
 2285TIP3    H1 6819   2.088   4.224   3.421  1.4386  0.1838 -1.1578
 2285TIP3    H2 6820   2.031   4.084   3.409  0.3362  0.5033  0.1870
 2286TIP3   OH2 6821   6.568   1.273   0.787  0.0038 -0.0185 -0.4792
 2286TIP3    H1 6822   6.642   1.213   0.797 -0.4686 -0.7635 -1.3484
 2286TIP3    H2 6823   6.601   1.344   0.734  0.3351  0.0818 -0.1417
 2287TIP3   OH2 6824   5.622   1.921   0.339 -0.3160  0.5550  0.1628
 2287TIP3    H1 6825   5.667   1.838   0.324 -0.2140  0.5489  0.4975
 2287TIP3    H2 6826   5.538   1.911   0.294 -0.0974  0.4634 -0.2287
 2288TIP3   OH2 6827   6.106   0.041   1.148  0.1691 -0.2527  0.5782
 2288TIP3    H1 6828   6.028   0.095   1.163  1.0246  1.1393  0.2442
 2288TIP3    H2 6829   6.144   0.030   1.235  0.0683 -0.1972  0.6304
 2289TIP3   OH2 6830   3.285   2.876   5.536  0.1227  0.0334  0.0351
 2289TIP3    H1 6831   3.320   2.868   5.625 -0.8009 -1.7606  0.2862
 2289TIP3    H2 6832   3.328   2.806   5.487 -1.7306 -1.0749 -0.0868
 2290TIP3   OH2 6833   6.554   0.400   2.748 -0.6687  0.0293 -0.1012
 2290TIP3    H1 6834   6.597   0.470   2.797 -0.9797 -0.1040  0.3642
 2290TIP3    H2 6835   6.466   0.394   2.785 -1.3930  0.8533 -1.5876
 2291TIP3   OH2 6836   6.473   3.595   0.856  0.0306  0.1461  0.3752
 2291TIP3    H1 6837   6.488   3.554   0.771  2.0175  1.8764 -0.1948
 2291TIP3    H2 6838   6.413   3.536   0.901 -2.2045 -0.1697 -2.6946
 2292TIP3   OH2 6839   0.079   3.602   4.764  0.6508  0.7872  0.1575
 2292TIP3    H1 6840   0.087   3.675   4.825 -1.3000 -0.3006  1.8700
 2292TIP3    H2 6841   0.063   3.526   4.820  2.5434 -1.0187 -1.5389
 2293TIP3   OH2 6842   5.934   5.208   5.296  0.1551 -0.0115  0.8250
 2293TIP3    H1 6843   5.967   5.124   5.326 -2.6048 -1.4982  0.0660
 2293TIP3    H2 6844   5.893   5.247   5.374 -1.3443 -0.8979  0.5210
 2294TIP3   OH2 6845   4.502   3.146   3.096  0.3950  0.3961 -0.0866
 2294TIP3    H1 6846   4.496   3.107   3.009 -1.7412  0.4513 -0.0196
 2294TIP3    H2 6847   4.487   3.240   3.082 -2.2591  0.1349  0.5011
 2295TIP3   OH2 6848   3.381   1.170   5.196 -0.1006  0.2091 -0.3452
 2295TIP3    H1 6849   3.326   1.138   5.268  0.8181  0.5859  0.5466
 2295TIP3    H2 6850   3.374   1.102   5.129 -0.2040 -0.6287  0.4973
 2296TIP3   OH2 6851   5.666   2.156   4.254  0.0344 -0.2872  0.0741
 2296TIP3    H1 6852   5.697   2.066   4.249  1.2307  0.1471 -0.8190
 2296TIP3    H2 6853   5.735   2.207   4.213 -0.4407  1.0925  0.9318
 2297TIP3   OH2 6854   4.132   1.696   1.555  0.1186  0.2263  0.7283
 2297TIP3    H1 6855   4.041   1.720   1.569 -0.1490  0.2566 -0.8506
 2297TIP3    H2 6856   4.141   1.609   1.594 -0.6590  0.1100  0.6625
 2298TIP3   OH2 6857   1.816   1.357   2.743  0.2320  0.2437  0.5008
 2298TIP3    H1 6858   1.763   1.285   2.779  1.6812 -0.9828  0.2697
 2298TIP3    H2 6859   1.906   1.329   2.755  0.8197  1.5652 -0.5599
 2299TIP3   OH2 6860   0.756   2.623   2.086 -0.4043 -0.0746  0.2316
 2299TIP3    H1 6861   0.816   2.561   2.127 -0.7519 -0.6475 -0.1072
 2299TIP3    H2 6862   0.730   2.682   2.156 -0.4179 -0.5891  0.6640
 2300TIP3   OH2 6863   2.049   4.284   1.234 -0.3078  0.3012  0.5058
 2300TIP3    H1 6864   2.138   4.281   1.198 -0.4906  0.2602  0.0473
 2300TIP3    H2 6865   2.029   4.193   1.255 -1.3487 -0.1690 -2.1811
 2301TIP3   OH2 6866   5.929   2.721   3.240  0.3894 -0.5346 -0.1025
 2301TIP3    H1 6867   5.924   2.681   3.154 -0.3060 -0.3055 -0.1749
 2301TIP3    H2 6868   5.842   2.709   3.278  0.5830 -0.3249  0.4257
 2302TIP3   OH2 6869   1.969   6.126   3.492 -0.3869  0.6285  0.3987
 2302TIP3    H1 6870   1.951   6.124   3.398 -0.0530 -0.2765  0.3453
 2302TIP3    H2 6871   2.041   6.189   3.501 -0.2829  0.5695  0.0180
 2303TIP3   OH2 6872   4.561   1.360   0.380  0.0358  0.1926 -0.1453
 2303TIP3    H1 6873   4.491   1.378   0.443 -0.4665  1.4922 -1.0161
 2303TIP3    H2 6874   4.525   1.293   0.322 -0.6830  1.1261 -0.8219
 2304TIP3   OH2 6875   2.719   5.775   1.568  0.7439  0.5401  0.3096
 2304TIP3    H1 6876   2.810   5.748   1.572  0.7177  0.3594 -0.2575
 2304TIP3    H2 6877   2.718   5.863   1.605  1.1938  0.6491  0.0665
 2305TIP3   OH2 6878   5.658   6.731   5.328  0.2267  0.2215 -0.1895
 2305TIP3    H1 6879   5.651   6.816   5.284 -1.5458  0.1148 -0.1819
 2305TIP3    H2 6880   5.717   6.680   5.273  0.6679  1.1847 -0.6383
 2306TIP3   OH2 6881   5.796   2.705   4.757  0.0556  0.6337 -0.2911
 2306TIP3    H1 6882   5.783   2.686   4.664 -0.4462 -0.7176  0.0274
 2306TIP3    H2 6883   5.887   2.683   4.773 -0.2456 -0.6144 -0.1616
 2307TIP3   OH2 6884   5.959   5.207   4.054  0.1714  0.3811 -0.2929
 2307TIP3    H1 6885   5.998   5.223   4.140 -1.3869  1.6123  0.2217
 2307TIP3    H2 6886   5.920   5.120   4.062  0.7878  0.1180 -0.0572
 2308TIP3   OH2 6887   1.051   6.700   1.918  0.0337 -0.3992 -0.2506
 2308TIP3    H1 6888   1.069   6.752   1.996  1.1487  0.8700 -1.3219
 2308TIP3    H2 6889   1.007   6.760   1.858  0.0259 -1.1029 -0.9701
 2309TIP3   OH2 6890   4.070   6.143   3.166 -0.2812  0.4636 -0.1900
 2309TIP3    H1 6891   4.088   6.083   3.238 -0.8382 -0.6261 -0.9383
 2309TIP3    H2 6892   3.995   6.194   3.197 -0.0044  0.5754  0.3215
 2310TIP3   OH2 6893   7.116   4.826   3.608  0.1062  0.1418 -0.1006
 2310TIP3    H1 6894   7.071   4.748   3.575  1.0034 -0.1104 -0.7502
 2310TIP3    H2 6895   7.153   4.867   3.529 -0.1646  1.1029  0.2589
 2311TIP3   OH2 6896   4.461   2.648   4.412 -0.1822 -0.5951  0.0275
 2311TIP3    H1 6897   4.484   2.693   4.330 -1.1516 -0.0206  0.0644
 2311TIP3    H2 6898   4.370   2.671   4.428  0.0033 -0.6823  1.2980
 2312TIP3   OH2 6899   4.631   5.434   3.810  0.8920  0.7321 -0.5254
 2312TIP3    H1 6900   4.598   5.364   3.867  1.1176  1.1521  0.1334
 2312TIP3    H2 6901   4.557   5.493   3.797  0.7726  0.5098 -0.8740
 2313TIP3   OH2 6902   5.965   0.459   3.094  0.1048 -0.7228  0.5491
 2313TIP3    H1 6903   6.017   0.521   3.145 -0.4866  1.2348 -1.0732
 2313TIP3    H2 6904   5.976   0.488   3.003 -3.2273 -0.6183  0.0601
 2314TIP3   OH2 6905   6.597   3.766   1.500 -0.5807 -0.3593 -0.3963
 2314TIP3    H1 6906   6.630   3.739   1.586  0.4441  1.2174 -0.2399
 2314TIP3    H2 6907   6.538   3.839   1.520  0.0170  0.3197 -1.0289
 2315TIP3   OH2 6908   3.303   4.097   5.279  0.2687 -0.4193 -0.2861
 2315TIP3    H1 6909   3.256   4.096   5.362  1.0654 -1.5155  0.1693
 2315TIP3    H2 6910   3.344   4.184   5.276  2.8597 -1.4194  2.0210
 2316TIP3   OH2 6911   3.505   2.780   2.363  0.1870  0.0931  0.7102
 2316TIP3    H1 6912   3.474   2.741   2.445  0.0749 -1.2371  0.0577
 2316TIP3    H2 6913   3.526   2.705   2.307 -0.6074  0.9455 -0.8075
 2317TIP3   OH2 6914   5.625   1.655   4.377  0.2343  0.5947 -0.3559
 2317TIP3    H1 6915   5.544   1.686   4.417 -0.6482  0.0298 -1.6230
 2317TIP3    H2 6916   5.598   1.579   4.325  1.9112 -0.7782  0.6998
 2318TIP3   OH2 6917   5.328   0.646   3.475 -0.0548 -0.7728 -0.9510
 2318TIP3    H1 6918   5.307   0.555   3.454  0.6631 -0.8490 -1.3722
 2318TIP3    H2 6919   5.257   0.674   3.532 -1.2797 -1.0146 -2.2970
 2319TIP3   OH2 6920   0.400   2.033   4.681 -0.0407  0.0730 -0.0855
 2319TIP3    H1 6921   0.458   2.068   4.749 -0.3977 -1.2111  0.9008
 2319TIP3    H2 6922   0.406   1.938   4.691 -1.6568 -0.0928 -0.5451
 2320TIP3   OH2 6923   4.137   0.228   0.127  0.4023  0.3567  0.2504
 2320TIP3    H1 6924   4.123   0.169   0.201 -2.7837 -0.1920 -0.6318
 2320TIP3    H2 6925   4.220   0.200   0.089  0.7014 -1.2263  1.9372
 2321TIP3   OH2 6926   0.739   3.026   1.377  0.3144  0.2854  0.4367
 2321TIP3    H1 6927   0.711   3.005   1.288 -0.6742 -0.3389  0.8880
 2321TIP3    H2 6928   0.755   2.941   1.418 -0.5737  0.5225  1.2801
 2322TIP3   OH2 6929   6.296   5.612   4.826  0.2553 -0.3096  0.1651
 2322TIP3    H1 6930   6.365   5.639   4.886  0.5411 -0.1062 -0.2563
 2322TIP3    H2 6931   6.276   5.690   4.775  0.8820 -0.7992 -0.8566
 2323TIP3   OH2 6932   0.054   1.257   2.650 -0.0380 -0.3378 -0.3176
 2323TIP3    H1 6933   0.104   1.223   2.576 -1.0396 -0.6126 -0.8845
 2323TIP3    H2 6934   0.109   1.239   2.726  1.4634  0.8603 -1.0725
 2324TIP3   OH2 6935   0.761   3.406   5.458  0.3262 -0.7473  0.0012
 2324TIP3    H1 6936   0.842   3.420   5.506  0.5918 -1.0742 -0.3464
 2324TIP3    H2 6937   0.789   3.389   5.368 -0.1858  0.4579 -0.4132
 2325TIP3   OH2 6938   5.948   6.379   5.013  0.1344 -0.0817 -0.1296
 2325TIP3    H1 6939   6.022   6.438   4.999 -0.5695  1.3829  1.7624
 2325TIP3    H2 6940   5.929   6.343   4.926  0.2287  3.0141 -1.6039
 2326TIP3   OH2 6941   0.035   4.450   4.637  0.2255  0.2974 -0.8469
 2326TIP3    H1 6942   0.050   4.451   4.543 -1.2641  0.5178 -1.0955
 2326TIP3    H2 6943  -0.019   4.374   4.653 -1.5999  1.6020 -0.5353
 2327TIP3   OH2 6944   0.651   5.346   3.781  0.6233  0.0732  0.0682
 2327TIP3    H1 6945   0.656   5.293   3.860 -0.6984 -0.5249 -0.2202
 2327TIP3    H2 6946   0.710   5.302   3.719 -0.1802 -0.9026 -0.0490
 2328TIP3   OH2 6947   2.828   2.836   2.693 -0.5309  0.1609  0.0238
 2328TIP3    H1 6948   2.836   2.758   2.748 -2.8836  0.3962  0.7759
 2328TIP3    H2 6949   2.834   2.910   2.754  0.8781  0.6007 -0.5893
 2329TIP3   OH2 6950   2.257   0.819   1.854 -0.1405  0.2677  0.1417
 2329TIP3    H1 6951   2.329   0.881   1.838 -0.7739  0.7126 -1.1226
 2329TIP3    H2 6952   2.192   0.840   1.787 -2.3173  1.1507  2.3389
 2330TIP3   OH2 6953   5.963   0.740   2.338  0.0555 -0.1837  0.3718
 2330TIP3    H1 6954   5.880   0.714   2.379 -1.3274  0.1906 -2.0334
 2330TIP3    H2 6955   5.986   0.822   2.382 -1.7508  0.5846 -0.0298
 2331TIP3   OH2 6956   3.657   3.304   2.054  0.1827  0.2607  0.0161
 2331TIP3    H1 6957   3.588   3.241   2.077 -0.1977  1.6015  3.1530
 2331TIP3    H2 6958   3.739   3.258   2.073  0.0093 -0.1817 -0.3117
 2332TIP3   OH2 6959   3.151   2.600   3.619  0.6864  0.5388  0.0399
 2332TIP3    H1 6960   3.222   2.567   3.675  2.3082 -0.0535 -2.2175
 2332TIP3    H2 6961   3.071   2.581   3.668  1.8311 -2.5398  0.9876
 2333TIP3   OH2 6962   1.530   1.748   3.640  0.2859  0.0093 -0.3283
 2333TIP3    H1 6963   1.480   1.796   3.574  0.4366  1.6608  0.6870
 2333TIP3    H2 6964   1.620   1.748   3.607  0.3361  0.7014 -0.2044
 2334TIP3   OH2 6965   6.579   2.006   4.825  0.2535  0.3484  0.1620
 2334TIP3    H1 6966   6.596   2.094   4.857 -0.1416  0.1769  0.8674
 2334TIP3    H2 6967   6.588   2.013   4.730  3.1643  0.4927  0.3681
 2335TIP3   OH2 6968   3.371   1.470   5.267 -0.2271 -0.1060  0.7586
 2335TIP3    H1 6969   3.347   1.388   5.310 -2.0427  1.0437  2.0685
 2335TIP3    H2 6970   3.293   1.494   5.217  0.7648  0.1774 -0.7203
 2336TIP3   OH2 6971   1.811   6.700   0.622 -0.1805 -0.0955 -0.1478
 2336TIP3    H1 6972   1.766   6.783   0.607 -0.3529 -0.2143 -0.3144
 2336TIP3    H2 6973   1.842   6.704   0.712  0.1557  0.3091 -0.2822
 2337TIP3   OH2 6974   1.315   5.753   1.139  0.1257 -0.3899 -0.0678
 2337TIP3    H1 6975   1.407   5.728   1.130  0.6720  1.4331  0.0484
 2337TIP3    H2 6976   1.304   5.771   1.233 -0.0577  0.4340 -0.2453
 2338TIP3   OH2 6977   3.757   5.975   2.157 -0.8887  0.2064  0.3070
 2338TIP3    H1 6978   3.814   5.947   2.229 -0.8672  0.7482  0.5056
 2338TIP3    H2 6979   3.680   5.919   2.165 -1.5614  1.2774  1.7022
 2339TIP3   OH2 6980   2.977   1.764   1.989 -0.1643 -0.0453 -0.7229
 2339TIP3    H1 6981   3.035   1.689   1.979  1.3707  1.1818 -1.4372
 2339TIP3    H2 6982   2.974   1.779   2.084  0.9673  0.0497 -0.6867
 2340TIP3   OH2 6983   2.032   3.098   1.831  0.0930 -0.3569 -0.4790
 2340TIP3    H1 6984   2.102   3.163   1.836 -0.8020  0.6263 -0.0675
 2340TIP3    H2 6985   2.076   3.014   1.827  1.3025  0.0898  1.9050
 2341TIP3   OH2 6986   6.684   0.611   2.875 -0.0301 -0.4241 -0.0302
 2341TIP3    H1 6987   6.764   0.605   2.823 -0.8704 -2.0151 -1.2588
 2341TIP3    H2 6988   6.622   0.655   2.817 -0.8366 -1.7690 -0.2308
 2342TIP3   OH2 6989   6.468   3.683   2.655  0.2256  0.3967 -1.1221
 2342TIP3    H1 6990   6.514   3.763   2.630  0.1060  0.5755 -0.7794
 2342TIP3    H2 6991   6.537   3.625   2.687  0.1718  0.8312 -0.1781
 2343TIP3   OH2 6992   1.719   5.479   1.838  0.1815 -0.5632 -0.0776
 2343TIP3    H1 6993   1.706   5.568   1.804  2.2594 -0.4749 -0.8266
 2343TIP3    H2 6994   1.768   5.491   1.919 -2.3067 -0.9327  1.5863
 2344TIP3   OH2 6995   0.144   4.071   3.279  0.2421 -0.3520 -0.0270
 2344TIP3    H1 6996   0.131   4.005   3.347  2.7477 -1.1887 -0.2536
 2344TIP3    H2 6997   0.210   4.130   3.316  0.6016 -0.0142 -1.1831
 2345TIP3   OH2 6998   6.442   5.424   3.375  0.1664 -0.7847 -0.0562
 2345TIP3    H1 6999   6.422   5.341   3.418  1.4234  0.0242  2.2651
 2345TIP3    H2 7000   6.432   5.490   3.444 -2.2745  1.2633 -2.1748
 2346TIP3   OH2 7001   0.732   0.900   1.328 -0.0140 -0.0611 -0.1217
 2346TIP3    H1 7002   0.656   0.955   1.348 -0.5097 -0.4963 -0.7659
 2346TIP3    H2 7003   0.700   0.838   1.263  0.6143 -0.9438  0.3987
 2347TIP3   OH2 7004   3.487   2.718   5.405  0.0476  0.5449 -0.6067
 2347TIP3    H1 7005   3.484   2.651   5.337  3.0311 -2.4931  1.9075
 2347TIP3    H2 7006   3.576   2.751   5.403 -0.3310  1.7687  0.6097
 2348TIP3   OH2 7007   6.965   0.985   1.908 -0.4643 -0.0806  0.3255
 2348TIP3    H1 7008   6.952   1.052   1.975 -2.6885 -1.2693  1.1871
 2348TIP3    H2 7009   6.898   1.004   1.842 -0.6225 -0.9960  0.2118
 2349TIP3   OH2 7010   5.008   3.089   2.544  0.6065 -0.3117  0.3396
 2349TIP3    H1 7011   5.049   3.147   2.609 -0.1376 -2.0720  2.5102
 2349TIP3    H2 7012   4.922   3.068   2.581  0.9356 -2.9715 -0.1957
 2350TIP3   OH2 7013   1.431   2.872   4.717 -0.1425  0.0515 -0.5123
 2350TIP3    H1 7014   1.520   2.907   4.723  0.4358 -1.0704 -2.0137
 2350TIP3    H2 7015   1.378   2.945   4.686  0.3312  0.6002 -0.0455
 2351TIP3   OH2 7016   2.633   6.459   3.324  0.0679 -0.6774 -0.2457
 2351TIP3    H1 7017   2.615   6.368   3.300  1.7329 -0.5328 -2.4690
 2351TIP3    H2 7018   2.608   6.510   3.246 -1.9210  0.9544  1.3698
 2352TIP3   OH2 7019   1.268   4.620   4.890 -0.6350  0.6003  0.2270
 2352TIP3    H1 7020   1.278   4.639   4.984  2.7404 -0.4847  0.2156
 2352TIP3    H2 7021   1.196   4.558   4.886  0.8506 -1.4709  2.5127
 2353TIP3   OH2 7022   4.613   5.008   0.710  0.2399 -0.1250  0.2108
 2353TIP3    H1 7023   4.536   4.951   0.709  0.1648 -0.0096 -0.8985
 2353TIP3    H2 7024   4.687   4.949   0.693  0.3689 -0.1673  0.8668
 2354TIP3   OH2 7025   5.236   6.265   1.449  0.4725  0.2034  0.3114
 2354TIP3    H1 7026   5.198   6.308   1.373 -0.5519  0.2344  0.8209
 2354TIP3    H2 7027   5.317   6.314   1.466 -0.6363  1.9500  0.8464
 2355TIP3   OH2 7028   3.794   2.295   4.957  0.2061 -0.4874  0.0002
 2355TIP3    H1 7029   3.790   2.213   5.007  1.2566  0.6132  1.9830
 2355TIP3    H2 7030   3.702   2.316   4.939 -0.2381 -0.7352  1.8176
 2356TIP3   OH2 7031   1.693   4.589   1.047  0.5525  0.8080 -0.1514
 2356TIP3    H1 7032   1.686   4.661   0.983  0.8463  0.0518 -1.0480
 2356TIP3    H2 7033   1.777   4.603   1.089  0.5340  1.0852 -0.1987
 2357TIP3   OH2 7034   5.589   3.337   2.966 -0.0650 -0.2988  0.2092
 2357TIP3    H1 7035   5.560   3.411   2.913 -1.5316  1.1375  2.8558
 2357TIP3    H2 7036   5.681   3.357   2.987  0.1153 -0.2137 -0.6144
 2358TIP3   OH2 7037   4.710   5.982   3.635 -0.2646  0.2653 -1.0439
 2358TIP3    H1 7038   4.770   6.056   3.630  1.6504 -1.1201  0.0423
 2358TIP3    H2 7039   4.694   5.957   3.544  1.1923  0.3715 -1.3417
 2359TIP3   OH2 7040   0.525   3.780   2.231 -0.6271 -0.0839  0.5904
 2359TIP3    H1 7041   0.479   3.846   2.283  1.1058  1.2475  0.5358
 2359TIP3    H2 7042   0.576   3.729   2.295  0.7976  0.9716  0.3570
 2360TIP3   OH2 7043   5.963   6.145   2.655 -0.4410  0.1393  1.1403
 2360TIP3    H1 7044   5.868   6.137   2.657 -0.5902  1.3910  3.6099
 2360TIP3    H2 7045   5.979   6.239   2.663  1.0608  0.2382 -1.7744
 2361TIP3   OH2 7046   1.041   3.474   0.884 -0.1342 -0.3252 -0.2889
 2361TIP3    H1 7047   1.038   3.379   0.883  0.1283 -0.3326 -0.3370
 2361TIP3    H2 7048   1.044   3.499   0.791 -0.6431 -0.2567 -0.2874
 2362TIP3   OH2 7049   5.419   1.108   1.083 -0.3632 -0.2819  0.0456
 2362TIP3    H1 7050   5.438   1.201   1.095  0.3545 -0.4635  0.3185
 2362TIP3    H2 7051   5.423   1.095   0.988  0.6888 -0.2721  0.0831
 2363TIP3   OH2 7052   6.508   4.497   4.774  0.2716  0.4871 -0.6963
 2363TIP3    H1 7053   6.456   4.540   4.706 -2.1086 -0.1596  0.5699
 2363TIP3    H2 7054   6.471   4.530   4.856 -0.0492 -2.1195  0.3006
 2364TIP3   OH2 7055   4.340   4.687   4.835 -0.3811 -0.2321 -0.4275
 2364TIP3    H1 7056   4.344   4.761   4.775 -2.3161  0.2116 -0.0646
 2364TIP3    H2 7057   4.300   4.722   4.915 -2.3403 -1.8417 -0.6195
 2365TIP3   OH2 7058   1.192   0.381   0.207 -0.2450  0.0860  0.5244
 2365TIP3    H1 7059   1.135   0.405   0.133  0.5636 -1.2895 -0.5891
 2365TIP3    H2 7060   1.221   0.465   0.243  1.2609  0.8907 -2.2525
 2366TIP3   OH2 7061   3.628   0.140   1.366 -0.2907 -0.4545 -0.6357
 2366TIP3    H1 7062   3.549   0.191   1.380  0.4393  0.8344 -1.0629
 2366TIP3    H2 7063   3.640   0.140   1.271  0.1845 -0.6903 -0.5764
 2367TIP3   OH2 7064   3.742   5.962   5.013 -0.0203 -0.0339 -0.2250
 2367TIP3    H1 7065   3.654   5.963   4.975  0.8868 -0.0904 -2.4416
 2367TIP3    H2 7066   3.737   5.897   5.083 -1.0075 -2.2595 -2.2471
 2368TIP3   OH2 7067   5.524   2.357   0.195  0.9244 -0.2206 -0.1530
 2368TIP3    H1 7068   5.482   2.442   0.178  1.6978 -0.1466 -1.9073
 2368TIP3    H2 7069   5.452   2.294   0.189  0.3761  0.2620  0.9871
 2369TIP3   OH2 7070   1.277   6.769   4.245  0.2696  0.1092 -0.5154
 2369TIP3    H1 7071   1.330   6.692   4.267  2.0052  1.5249  0.5569
 2369TIP3    H2 7072   1.326   6.814   4.177 -0.1352  0.8459 -0.3319
 2370TIP3   OH2 7073   4.564   2.469   4.823  0.0060 -0.1527 -0.4217
 2370TIP3    H1 7074   4.635   2.514   4.870 -1.5763  2.0436  0.0547
 2370TIP3    H2 7075   4.551   2.521   4.744  0.9846 -2.3926 -2.1572
 2371TIP3   OH2 7076   2.036   0.663   1.965  0.2490 -0.6716  0.4607
 2371TIP3    H1 7077   2.026   0.691   2.056  0.7417 -0.1289  0.3559
 2371TIP3    H2 7078   2.091   0.731   1.925  1.1812 -1.6052  0.1091
 2372TIP3   OH2 7079   4.094   1.952   5.525 -0.0006 -0.3270 -0.7184
 2372TIP3    H1 7080   4.164   1.887   5.532  1.5169  1.1306 -1.5822
 2372TIP3    H2 7081   4.135   2.034   5.551 -1.3026  0.6362 -1.5643
 2373TIP3   OH2 7082   0.617   4.389   3.413  0.4963  0.1028 -0.7679
 2373TIP3    H1 7083   0.579   4.476   3.402  0.0888  0.1981  0.9964
 2373TIP3    H2 7084   0.636   4.383   3.507 -0.1209 -1.9493 -0.7112
 2374TIP3   OH2 7085   0.285   3.385   3.960  0.1502 -0.3116 -0.0511
 2374TIP3    H1 7086   0.332   3.401   3.878  1.7053  0.2169  0.9079
 2374TIP3    H2 7087   0.268   3.473   3.995  0.9327 -0.5446  0.9622
 2375TIP3   OH2 7088   6.652   1.927   2.118  0.1786  0.0760  0.4397
 2375TIP3    H1 7089   6.558   1.930   2.102  0.2601 -0.3272 -0.1582
 2375TIP3    H2 7090   6.668   1.992   2.186 -0.7838 -1.0646  1.8175
 2376TIP3   OH2 7091   4.602   1.086   0.116  0.4104  0.1794 -0.3399
 2376TIP3    H1 7092   4.578   1.031   0.042 -0.9854  0.9603 -0.4859
 2376TIP3    H2 7093   4.519   1.117   0.153  1.1018  0.6810  0.8906
 2377TIP3   OH2 7094   2.942   6.667   1.363  0.2823 -0.0933 -0.1087
 2377TIP3    H1 7095   2.993   6.623   1.431  3.4315  1.4385 -1.2721
 2377TIP3    H2 7096   2.900   6.741   1.408  2.6309  1.1279  0.2048
 2378TIP3   OH2 7097   3.423   5.962   5.248 -0.1857  0.4699  0.1417
 2378TIP3    H1 7098   3.426   5.910   5.167  0.7411 -0.8942  1.0058
 2378TIP3    H2 7099   3.349   6.021   5.236 -0.2055  0.1453 -1.6102
 2379TIP3   OH2 7100   0.728   5.785   5.040  0.2252  0.2217  0.1026
 2379TIP3    H1 7101   0.696   5.769   4.951 -0.9224 -1.1442  0.7270
 2379TIP3    H2 7102   0.651   5.778   5.095  1.2358 -1.0304  1.4306
 2380TIP3   OH2 7103   5.821   3.431   3.892  0.1584 -0.0045  0.6539
 2380TIP3    H1 7104   5.871   3.351   3.903 -0.0623 -0.3331 -0.6244
 2380TIP3    H2 7105   5.739   3.404   3.851 -0.0139  0.8435  0.4073
 2381TIP3   OH2 7106   7.098   0.115   1.574  0.2297  0.2429  0.3521
 2381TIP3    H1 7107   7.071   0.041   1.627 -0.3637 -0.6366 -1.1077
 2381TIP3    H2 7108   7.022   0.132   1.517  1.3590  0.1349 -1.2552
 2382TIP3   OH2 7109   4.963   4.245   3.594 -0.0532  0.1814 -0.4617
 2382TIP3    H1 7110   4.963   4.159   3.553  2.0226  0.3399 -0.8868
 2382TIP3    H2 7111   5.054   4.274   3.589 -0.5683  2.0739  0.3657
 2383TIP3   OH2 7112   1.278   1.117   1.217  0.5454 -0.1188  0.1784
 2383TIP3    H1 7113   1.233   1.131   1.300  0.0694  0.3550 -0.1534
 2383TIP3    H2 7114   1.248   1.032   1.187  1.4525 -0.7320  0.9446
 2384TIP3   OH2 7115   5.603   1.673   1.349  0.1863 -0.2830  0.1479
 2384TIP3    H1 7116   5.544   1.673   1.424 -1.2673 -0.5029 -0.9337
 2384TIP3    H2 7117   5.545   1.676   1.273  1.5619 -1.0524 -0.9940
 2385TIP3   OH2 7118   2.210   3.693   2.709 -0.5371 -0.0323  0.0692
 2385TIP3    H1 7119   2.206   3.640   2.789  0.5804  0.0556  0.2041
 2385TIP3    H2 7120   2.198   3.783   2.740  0.8829  0.1063  0.3012
 2386TIP3   OH2 7121   5.421   0.414   1.319 -0.5704 -0.4214  0.2002
 2386TIP3    H1 7122   5.425   0.334   1.266  0.6398 -0.9408  1.0512
 2386TIP3    H2 7123   5.474   0.477   1.271  2.8700 -1.6818  1.9989
 2387TIP3   OH2 7124   0.483   1.396   4.864 -0.3362 -0.3942 -0.4938
 2387TIP3    H1 7125   0.396   1.423   4.893 -0.2536 -0.5071 -0.1348
 2387TIP3    H2 7126   0.469   1.314   4.818 -0.3892 -0.5521 -0.2022
 2388TIP3   OH2 7127   4.238   3.494   0.390  0.0364 -0.1708  0.1602
 2388TIP3    H1 7128   4.221   3.409   0.348 -0.0852  0.8068 -1.8735
 2388TIP3    H2 7129   4.182   3.556   0.343 -0.2011  0.9977  1.8902
 2389TIP3   OH2 7130   1.345   4.937   1.561 -0.0015 -0.3241  0.5175
 2389TIP3    H1 7131   1.409   4.871   1.537  0.3942  0.1914  0.1183
 2389TIP3    H2 7132   1.266   4.915   1.510  0.6386  0.4180 -0.8727
 2390TIP3   OH2 7133   1.601   6.688   3.448 -0.3897 -0.4902 -0.2882
 2390TIP3    H1 7134   1.595   6.709   3.541 -1.2091 -0.8283 -0.2547
 2390TIP3    H2 7135   1.533   6.621   3.434  0.0076 -0.7469 -1.0400
 2391TIP3   OH2 7136   2.277   5.999   3.378  0.2419  0.4978 -0.1296
 2391TIP3    H1 7137   2.264   6.094   3.385  2.3199  0.8272 -0.2558
 2391TIP3    H2 7138   2.339   5.978   3.448  0.8549 -0.5315 -0.9647
 2392TIP3   OH2 7139   5.141   3.907   2.975 -0.0652 -0.0012 -0.1380
 2392TIP3    H1 7140   5.082   3.839   3.007 -0.1484  0.3787  0.5343
 2392TIP3    H2 7141   5.158   3.962   3.052 -0.6785  1.2383 -0.8650
 2393TIP3   OH2 7142   1.866   4.520   0.502  0.1271 -0.0497  0.1950
 2393TIP3    H1 7143   1.794   4.458   0.490  0.6204 -0.4813 -0.5893
 2393TIP3    H2 7144   1.832   4.604   0.470  0.1207 -0.3531 -0.6070
 2394TIP3   OH2 7145   3.745   1.948   3.926 -0.1739  0.2421 -0.3448
 2394TIP3    H1 7146   3.834   1.913   3.932 -0.5806 -0.5956  1.2887
 2394TIP3    H2 7147   3.689   1.870   3.924 -0.9437  0.7647  0.2975
 2395TIP3   OH2 7148   6.180   3.451   5.584  0.0620  0.7554 -0.0768
 2395TIP3    H1 7149   6.148   3.425   5.498 -0.5773  0.4995  0.2312
 2395TIP3    H2 7150   6.271   3.477   5.569  0.2913 -0.3028 -0.6456
 2396TIP3   OH2 7151   6.409   5.785   4.569  0.3368 -0.5081 -0.3036
 2396TIP3    H1 7152   6.470   5.740   4.510  1.1836  1.1417 -0.7619
 2396TIP3    H2 7153   6.413   5.877   4.542 -0.3431  0.0734  1.4033
 2397TIP3   OH2 7154   4.064   6.159   4.763  0.0072 -0.3365 -0.0484
 2397TIP3    H1 7155   3.999   6.135   4.697 -0.2494  0.2580 -0.0151
 2397TIP3    H2 7156   4.013   6.165   4.844  0.3862 -1.4459  0.2837
 2398TIP3   OH2 7157   0.410   2.266   3.382  0.0076 -0.1879 -0.3605
 2398TIP3    H1 7158   0.370   2.192   3.337  0.1571  0.1889 -1.1356
 2398TIP3    H2 7159   0.358   2.342   3.354 -0.7827 -0.1059  1.2075
 2399TIP3   OH2 7160   6.043   4.481   0.606 -0.2350  0.4724  0.3857
 2399TIP3    H1 7161   5.962   4.432   0.597 -0.2051  0.5244 -0.2069
 2399TIP3    H2 7162   6.015   4.570   0.630 -0.4537  0.8875 -1.2900
 2400TIP3   OH2 7163   3.788   3.709   5.750  0.9439  0.0237 -0.2814
 2400TIP3    H1 7164   3.785   3.670   5.663  2.1799 -1.6300  0.3655
 2400TIP3    H2 7165   3.872   3.680   5.786  0.1948  0.1798  1.6839
 2401TIP3   OH2 7166   0.680   3.953   3.983  0.5886 -0.0733  0.1828
 2401TIP3    H1 7167   0.770   3.921   3.989  0.9087  0.5529 -0.8179
 2401TIP3    H2 7168   0.644   3.909   3.906  0.5719  0.8320 -0.3512
 2402TIP3   OH2 7169   3.819   6.751   3.796 -0.5390 -0.0030  0.1104
 2402TIP3    H1 7170   3.791   6.688   3.863  1.0271 -2.0535 -1.0632
 2402TIP3    H2 7171   3.896   6.712   3.756 -0.0006  2.2844 -1.3168
 2403TIP3   OH2 7172   3.097   2.332   4.232  0.3779 -0.5212  0.0620
 2403TIP3    H1 7173   3.130   2.253   4.188 -1.2471 -1.2954  0.1497
 2403TIP3    H2 7174   3.043   2.297   4.304  0.4537  0.6973  0.7281
 2404TIP3   OH2 7175   1.872   0.303   2.197  0.2033  0.3508 -0.4658
 2404TIP3    H1 7176   1.962   0.290   2.228 -0.3346 -0.8833  0.6876
 2404TIP3    H2 7177   1.851   0.393   2.222  0.4207 -0.0250  1.2105
 2405TIP3   OH2 7178   1.820   1.955   4.255  0.2490 -0.2724 -0.3510
 2405TIP3    H1 7179   1.748   1.896   4.233 -0.3510 -0.9205  2.8483
 2405TIP3    H2 7180   1.868   1.910   4.325  1.7995  1.5899 -0.1268
 2406TIP3   OH2 7181   5.454   3.500   2.338 -0.3108  0.0786  0.0493
 2406TIP3    H1 7182   5.528   3.441   2.327  0.3928  0.5488  1.8163
 2406TIP3    H2 7183   5.402   3.460   2.408 -0.9129  0.5191 -0.1382
 2407TIP3   OH2 7184   2.389   2.251   2.752 -0.6874  0.3702 -0.0789
 2407TIP3    H1 7185   2.395   2.340   2.717 -1.5479  0.2503 -0.5804
 2407TIP3    H2 7186   2.340   2.203   2.685  2.7850 -1.4248 -1.5627
 2408TIP3   OH2 7187   3.049   5.031   5.244  0.0482 -0.3766  0.3811
 2408TIP3    H1 7188   3.091   4.975   5.309  0.5124  0.0761  0.4738
 2408TIP3    H2 7189   3.102   5.111   5.243  1.0015 -0.9459 -1.6411
 2409TIP3   OH2 7190   3.437   3.315   0.511  0.9844 -0.1289 -0.1509
 2409TIP3    H1 7191   3.451   3.248   0.444 -2.1630  0.4477 -1.5977
 2409TIP3    H2 7192   3.419   3.395   0.461 -0.2041  0.6283  1.3899
 2410TIP3   OH2 7193   6.802   5.229   4.210 -0.3345 -0.4345 -0.2198
 2410TIP3    H1 7194   6.735   5.214   4.277  1.0074 -2.5251  0.7392
 2410TIP3    H2 7195   6.885   5.212   4.255  0.9149  2.0365 -1.3829
 2411TIP3   OH2 7196   6.649   3.730   1.225 -0.1513  0.0584  0.1274
 2411TIP3    H1 7197   6.631   3.636   1.229  1.8685 -0.5174 -2.1976
 2411TIP3    H2 7198   6.629   3.762   1.313  0.8624 -2.8655  1.5360
 2412TIP3   OH2 7199   5.664  -0.009   0.448 -0.1264  0.1653  0.1075
 2412TIP3    H1 7200   5.759  -0.004   0.432 -0.2108 -1.5963 -1.1405
 2412TIP3    H2 7201   5.628   0.060   0.392  0.2773 -0.6010 -1.1565
 2413TIP3   OH2 7202   6.584   3.051   0.067  0.5844  0.0935 -0.8119
 2413TIP3    H1 7203   6.562   3.143   0.081  2.1767  0.4494 -0.4486
 2413TIP3    H2 7204   6.680   3.048   0.076  0.6165 -1.4843 -1.4572
 2414TIP3   OH2 7205   0.890   3.503   5.202 -0.6314  0.2701  0.3133
 2414TIP3    H1 7206   0.871   3.596   5.216  0.1055  1.1663 -3.5668
 2414TIP3    H2 7207   0.984   3.494   5.219 -0.6084  0.3481  0.2258
 2415TIP3   OH2 7208   1.631   6.314   2.216 -0.1775 -0.3283  0.0542
 2415TIP3    H1 7209   1.713   6.325   2.168  0.1249  2.1928  0.9924
 2415TIP3    H2 7210   1.584   6.245   2.168  2.1119 -1.2907 -0.9638
 2416TIP3   OH2 7211   5.967   5.348   0.048 -0.2201  0.4360 -0.8393
 2416TIP3    H1 7212   5.904   5.276   0.047 -1.7579  1.5840  1.8482
 2416TIP3    H2 7213   5.933   5.410  -0.016 -2.4517  1.4126  1.1486
 2417TIP3   OH2 7214   1.727   0.474   3.243  0.2668 -0.0855  0.5280
 2417TIP3    H1 7215   1.754   0.385   3.224 -1.1295 -0.5759  0.7158
 2417TIP3    H2 7216   1.801   0.512   3.290  1.1352 -0.9211 -0.1273
 2418TIP3   OH2 7217   3.275   2.175   0.912 -0.1426 -0.4928 -0.4818
 2418TIP3    H1 7218   3.348   2.114   0.923 -0.4874 -0.8097  0.0759
 2418TIP3    H2 7219   3.197   2.120   0.909 -0.5573 -0.0562  1.0843
 2419TIP3   OH2 7220   1.859   5.761   5.385  0.1421  0.1762 -0.3763
 2419TIP3    H1 7221   1.765   5.775   5.382 -0.1481 -1.4479  0.4453
 2419TIP3    H2 7222   1.876   5.700   5.313  0.7268  1.1099 -1.0688
 2420TIP3   OH2 7223   5.169   3.401   4.721 -0.7488 -0.1639 -0.5034
 2420TIP3    H1 7224   5.094   3.453   4.750 -1.7393 -1.0291 -1.4296
 2420TIP3    H2 7225   5.216   3.458   4.659 -0.2825  0.5934  0.5202
 2421TIP3   OH2 7226   4.198   2.098   2.193  0.0639  0.1323 -0.3167
 2421TIP3    H1 7227   4.142   2.074   2.119  0.4833 -0.5834 -0.4178
 2421TIP3    H2 7228   4.157   2.056   2.269 -0.5635  1.1585 -0.0666
 2422TIP3   OH2 7229   5.280   2.565   1.296  0.0441 -0.5108  0.4606
 2422TIP3    H1 7230   5.222   2.552   1.371  1.0868  2.9115  2.0327
 2422TIP3    H2 7231   5.221   2.585   1.223 -0.8690 -0.9538  1.0558
 2423TIP3   OH2 7232   3.563   2.505   1.343  0.2942  0.2765 -0.2950
 2423TIP3    H1 7233   3.493   2.546   1.392  1.4608  1.6067  0.3466
 2423TIP3    H2 7234   3.551   2.536   1.253  0.2057  0.6842 -0.1414
 2424TIP3   OH2 7235   6.923   6.644   3.372  0.3313 -0.3269 -0.6947
 2424TIP3    H1 7236   6.920   6.565   3.320 -1.2531 -0.6817 -0.1137
 2424TIP3    H2 7237   6.845   6.693   3.347  0.4988  0.3383  0.0268
 2425TIP3   OH2 7238   6.137   3.505   5.856 -0.1337  0.0812 -0.2602
 2425TIP3    H1 7239   6.134   3.478   5.765 -0.4497  0.8298 -0.4807
 2425TIP3    H2 7240   6.205   3.451   5.895  1.3867  1.0933 -1.3999
 2426TIP3   OH2 7241   2.445   4.347   1.802 -0.2784  0.6317 -0.4615
 2426TIP3    H1 7242   2.410   4.264   1.836 -1.8568  1.1216 -0.8067
 2426TIP3    H2 7243   2.522   4.321   1.753 -2.2181 -1.0485 -2.8867
 2427TIP3   OH2 7244   0.830   1.767   0.833 -0.7035  0.4763  0.4542
 2427TIP3    H1 7245   0.897   1.830   0.809  0.3227 -0.7105  0.1227
 2427TIP3    H2 7246   0.752   1.794   0.784  0.6922 -0.5237 -2.5493
 2428TIP3   OH2 7247   4.054   1.980   2.719  0.2513 -0.0070  0.0050
 2428TIP3    H1 7248   3.983   1.977   2.783 -0.7332 -0.4192 -1.0726
 2428TIP3    H2 7249   4.111   1.907   2.743 -1.1323 -1.3815 -0.6988
 2429TIP3   OH2 7250   6.536   4.168   5.091 -0.1417  0.1910  0.1509
 2429TIP3    H1 7251   6.623   4.136   5.116 -1.1911 -2.9131  0.3170
 2429TIP3    H2 7252   6.491   4.184   5.174 -0.1030  0.7388  0.0722
 2430TIP3   OH2 7253   2.668   3.120   1.532 -0.2701 -0.0015  0.5035
 2430TIP3    H1 7254   2.738   3.078   1.483 -0.4561  0.1144  0.1356
 2430TIP3    H2 7255   2.620   3.171   1.467 -2.7785 -2.7308  0.0084
 2431TIP3   OH2 7256   5.214   5.582   0.667  0.0373  0.4898 -0.1368
 2431TIP3    H1 7257   5.175   5.534   0.740 -0.9907  0.1136 -0.9016
 2431TIP3    H2 7258   5.140   5.602   0.610  0.7866  1.0006 -0.9499
 2432TIP3   OH2 7259   1.320   5.204   0.684  0.8415 -0.4833  0.0731
 2432TIP3    H1 7260   1.318   5.269   0.755  1.7049 -0.1611 -0.1787
 2432TIP3    H2 7261   1.347   5.254   0.607  0.4665 -0.9437 -0.3612
 2433TIP3   OH2 7262   6.198   4.197   0.319  0.4495  0.8075  0.0935
 2433TIP3    H1 7263   6.260   4.125   0.309  1.2649  1.6617 -1.4684
 2433TIP3    H2 7264   6.115   4.162   0.287  0.7109  0.3908 -0.1335
 2434TIP3   OH2 7265   3.189   1.594   0.658 -0.0899  0.3089  0.5117
 2434TIP3    H1 7266   3.113   1.651   0.659  0.5887  1.3369 -1.4852
 2434TIP3    H2 7267   3.178   1.538   0.735 -1.2301  2.5082  2.0428
 2435TIP3   OH2 7268   3.202   0.978   3.265  0.7203 -0.1380 -0.2527
 2435TIP3    H1 7269   3.237   0.925   3.337  0.7995  0.3378  0.0603
 2435TIP3    H2 7270   3.261   1.054   3.260  0.7800 -0.2176 -0.8879
 2436TIP3   OH2 7271   3.907   4.204   4.428  0.2698 -0.0740 -0.3865
 2436TIP3    H1 7272   3.946   4.170   4.509 -1.8475 -0.1276  0.6908
 2436TIP3    H2 7273   3.981   4.216   4.369  1.6746 -1.8846  0.8828
 2437TIP3   OH2 7274   4.479   6.685   2.768  0.5022  0.0942 -0.0550
 2437TIP3    H1 7275   4.408   6.634   2.729 -0.3389  0.5940  0.7744
 2437TIP3    H2 7276   4.483   6.765   2.715  1.2216 -0.4242 -0.8024
 2438TIP3   OH2 7277   4.031   2.223   3.440  0.5263  0.2400  0.0393
 2438TIP3    H1 7278   3.950   2.271   3.454 -0.9582 -1.7871 -1.0698
 2438TIP3    H2 7279   4.036   2.160   3.512  1.8707  1.2104  0.8556
 2439TIP3   OH2 7280   6.865   0.083   3.016  0.2761 -0.0113  0.0151
 2439TIP3    H1 7281   6.849  -0.009   2.993  1.0944  0.0312 -0.7929
 2439TIP3    H2 7282   6.779   0.118   3.039 -0.2930 -0.5707 -1.1910
 2440TIP3   OH2 7283   5.317   2.961   2.182 -0.4406  0.1387  0.2121
 2440TIP3    H1 7284   5.387   3.019   2.212 -0.6373  1.5780 -1.9468
 2440TIP3    H2 7285   5.351   2.921   2.102 -0.9592 -1.4812  0.7678
 2441TIP3   OH2 7286   0.752  -0.022   2.815  0.4932  0.2145  0.3491
 2441TIP3    H1 7287   0.841  -0.018   2.778 -0.3347 -0.5172 -1.9194
 2441TIP3    H2 7288   0.719   0.068   2.807  0.8733  0.3961  0.7937
 2442TIP3   OH2 7289   3.621   2.507   3.694 -0.0495  0.5862 -0.8280
 2442TIP3    H1 7290   3.648   2.489   3.604  0.5782 -0.4062 -0.4575
 2442TIP3    H2 7291   3.605   2.420   3.732  0.6170  0.9394  0.3009
 2443TIP3   OH2 7292   4.698   4.296   3.559 -0.0408  0.2199  0.2246
 2443TIP3    H1 7293   4.792   4.289   3.575  0.0473  0.9970  0.0978
 2443TIP3    H2 7294   4.661   4.325   3.643 -0.0500  0.7814  0.0275
 2444TIP3   OH2 7295   1.981   4.108   4.071  0.1211  0.2654 -0.0932
 2444TIP3    H1 7296   2.010   4.042   4.009  2.0598  1.0649 -0.0930
 2444TIP3    H2 7297   1.986   4.065   4.157 -0.4200 -0.1394 -0.2586
 2445TIP3   OH2 7298   5.219   1.906   4.206  0.1005  0.0041 -0.2046
 2445TIP3    H1 7299   5.289   1.967   4.182  0.2886  0.1503  0.6704
 2445TIP3    H2 7300   5.144   1.962   4.226 -0.0470 -0.1126 -0.4250
 2446TIP3   OH2 7301   0.596   2.960   1.136 -0.1299  0.3461  0.6723
 2446TIP3    H1 7302   0.528   2.948   1.202  0.0636  1.7780  1.1688
 2446TIP3    H2 7303   0.557   3.019   1.071  0.6244  1.2114  0.9838
 2447TIP3   OH2 7304   7.169   6.713   2.796 -0.5258  0.2915  0.1314
 2447TIP3    H1 7305   7.233   6.724   2.726  0.7453 -0.8853  1.0531
 2447TIP3    H2 7306   7.140   6.801   2.817  1.7168  0.9953  0.5054
 2448TIP3   OH2 7307   4.562   1.893   3.108  0.6224 -0.4151 -0.0437
 2448TIP3    H1 7308   4.612   1.812   3.103 -0.1030 -0.9351  0.8558
 2448TIP3    H2 7309   4.472   1.867   3.087  0.1449 -0.0942  1.4706
 2449TIP3   OH2 7310   6.689   1.922   5.522 -0.2126  0.1011 -0.2548
 2449TIP3    H1 7311   6.670   1.994   5.462 -1.3093 -0.2558 -0.3752
 2449TIP3    H2 7312   6.666   1.956   5.608 -2.0722 -0.4999 -0.4568
 2450TIP3   OH2 7313   0.434   0.018   5.192 -0.2507  0.4823 -0.8040
 2450TIP3    H1 7314   0.521   0.059   5.192  0.1524 -0.3596 -0.8919
 2450TIP3    H2 7315   0.439  -0.048   5.123 -0.2480 -1.0510  0.6098
 2451TIP3   OH2 7316   0.147   5.135   5.507  0.1892 -0.0118  0.6134
 2451TIP3    H1 7317   0.131   5.207   5.446 -1.0855 -1.4405 -0.8145
 2451TIP3    H2 7318   0.107   5.164   5.589  0.0272  1.0573  0.1687
 2452TIP3   OH2 7319   1.603   5.651   4.983 -0.1674  0.0612  0.0263
 2452TIP3    H1 7320   1.511   5.666   5.004 -0.0193  1.8976 -0.5025
 2452TIP3    H2 7321   1.609   5.667   4.889  0.7761  0.4116  0.1374
 2453TIP3   OH2 7322   2.622   5.615   0.467  0.2874  0.0783 -0.5904
 2453TIP3    H1 7323   2.667   5.563   0.400  0.0538 -1.0885  0.1402
 2453TIP3    H2 7324   2.674   5.601   0.547 -0.4907 -0.0451 -0.0984
 2454TIP3   OH2 7325   2.234   2.059   5.298  0.2564  0.1572  0.2841
 2454TIP3    H1 7326   2.147   2.039   5.334  0.3938  0.0759  0.5754
 2454TIP3    H2 7327   2.275   1.973   5.285  0.0452  0.1629 -0.4883
 2455TIP3   OH2 7328   6.676   6.498   3.507 -0.3726  0.2927  0.2857
 2455TIP3    H1 7329   6.731   6.471   3.433 -0.2402  0.1439  0.4374
 2455TIP3    H2 7330   6.737   6.535   3.571 -0.1065 -1.9274  1.4358
 2456TIP3   OH2 7331   3.576   0.280   3.694  0.4343 -1.1324  0.6322
 2456TIP3    H1 7332   3.560   0.193   3.730 -0.3065 -1.2122  0.1272
 2456TIP3    H2 7333   3.655   0.270   3.641  0.1280 -1.5919  0.2590
 2457TIP3   OH2 7334   1.556   5.753   0.795 -0.1659  0.3940 -0.3787
 2457TIP3    H1 7335   1.544   5.697   0.718 -1.2060  0.1793 -0.0785
 2457TIP3    H2 7336   1.619   5.820   0.767  2.3224 -1.7486 -0.2847
 2458TIP3   OH2 7337   0.193   3.689   3.017 -0.0326  0.2988  0.2761
 2458TIP3    H1 7338   0.125   3.756   3.020 -0.2841  0.0690 -0.1403
 2458TIP3    H2 7339   0.148   3.611   2.986  0.6901  0.5073 -1.4285
 2459TIP3   OH2 7340   6.448   6.438   4.630 -0.0749 -0.0227 -0.0759
 2459TIP3    H1 7341   6.530   6.400   4.597  0.9857  2.0710 -0.0247
 2459TIP3    H2 7342   6.404   6.472   4.552 -0.7851 -0.8720 -0.0648
 2460TIP3   OH2 7343   2.942   2.469   4.929  0.5502  0.4999 -0.7090
 2460TIP3    H1 7344   2.890   2.526   4.872 -0.1964  0.7533  0.2033
 2460TIP3    H2 7345   2.956   2.390   4.877 -2.8022 -0.5867 -0.1925
 2461TIP3   OH2 7346   1.071   3.719   4.281  0.2347  0.3699  0.2519
 2461TIP3    H1 7347   1.025   3.716   4.197  1.2705  0.0341 -0.3083
 2461TIP3    H2 7348   1.034   3.796   4.325 -0.8278  0.1393 -0.1946
 2462TIP3   OH2 7349   3.982   0.908   3.898 -0.5379  0.4033 -0.3489
 2462TIP3    H1 7350   4.028   0.887   3.817 -1.3513  0.1510 -0.7607
 2462TIP3    H2 7351   3.919   0.837   3.908 -1.6763  1.3704 -0.4573
 2463TIP3   OH2 7352   0.931   4.965   5.492  0.0627  0.5907  0.4181
 2463TIP3    H1 7353   0.868   4.903   5.457 -1.4571  1.7236  1.0367
 2463TIP3    H2 7354   0.938   4.943   5.584  0.2230  0.7609  0.4478
 2464TIP3   OH2 7355   3.020   4.126   0.839  0.1146 -0.0009 -0.1823
 2464TIP3    H1 7356   2.945   4.186   0.847 -1.5610 -1.8958 -0.7411
 2464TIP3    H2 7357   3.089   4.166   0.892 -1.0204  2.2417 -0.3106
 2465TIP3   OH2 7358   0.437   5.508   3.122  0.3560  0.3194  0.1140
 2465TIP3    H1 7359   0.373   5.579   3.133 -1.1139 -0.9956  0.2907
 2465TIP3    H2 7360   0.476   5.525   3.036 -0.5858  0.8701 -0.2270
 2466TIP3   OH2 7361   6.204   6.258   0.092 -0.0797  0.6462 -0.6778
 2466TIP3    H1 7362   6.234   6.212   0.014 -0.1723  0.4511 -0.5976
 2466TIP3    H2 7363   6.281   6.262   0.149  0.0358  0.9420 -0.8495
 2467TIP3   OH2 7364   6.279   4.531   0.907  0.4886  0.1562  0.2796
 2467TIP3    H1 7365   6.256   4.447   0.867  1.5498  0.3185 -0.7175
 2467TIP3    H2 7366   6.230   4.533   0.989 -1.1471 -0.5408 -0.6224
 2468TIP3   OH2 7367   6.617   6.679   5.736  0.5678 -0.0070 -0.3283
 2468TIP3    H1 7368   6.689   6.675   5.673  0.6465 -1.3248 -0.1793
 2468TIP3    H2 7369   6.643   6.618   5.805  0.1174  0.8318  0.6087
 2469TIP3   OH2 7370   1.002   5.266   0.183  0.2770 -1.1385  0.3799
 2469TIP3    H1 7371   1.046   5.311   0.111  0.5790 -1.7449  0.1798
 2469TIP3    H2 7372   0.916   5.309   0.188  1.3379  1.0120  1.6937
 2470TIP3   OH2 7373   2.782   3.329   4.691  0.0222 -0.3556 -0.0906
 2470TIP3    H1 7374   2.793   3.306   4.783  0.1434  0.6245  0.1481
 2470TIP3    H2 7375   2.830   3.411   4.681 -0.6351 -0.0548 -0.8524
 2471TIP3   OH2 7376   5.241   6.436   2.262  0.0667 -0.0078 -0.5361
 2471TIP3    H1 7377   5.303   6.374   2.300 -1.0473 -0.9269 -0.1749
 2471TIP3    H2 7378   5.266   6.441   2.170  0.2426 -0.9079 -0.5482
 2472TIP3   OH2 7379   2.640   6.718   2.265  0.0298 -0.3112 -0.1997
 2472TIP3    H1 7380   2.691   6.725   2.345  0.4165  0.5996 -0.5123
 2472TIP3    H2 7381   2.608   6.628   2.264 -1.4227  0.1368  1.8461
 2473TIP3   OH2 7382   5.841   3.162   3.697  0.0744  0.0467  1.0167
 2473TIP3    H1 7383   5.926   3.206   3.697  0.5364 -0.5708 -2.2457
 2473TIP3    H2 7384   5.781   3.227   3.659 -0.7234  0.0970  2.3058
 2474TIP3   OH2 7385   1.078   3.886   0.274  0.5952  0.9290 -0.6318
 2474TIP3    H1 7386   1.093   3.814   0.335  1.1306  0.7398 -0.9749
 2474TIP3    H2 7387   1.000   3.931   0.307  0.6883  0.6298 -0.0060
 2475TIP3   OH2 7388   5.280   4.987   1.531 -0.4752  0.4663 -0.3471
 2475TIP3    H1 7389   5.221   4.986   1.455 -0.8432 -0.7026 -0.0629
 2475TIP3    H2 7390   5.285   5.079   1.555  4.0420  1.9684 -5.1083
 2476TIP3   OH2 7391   4.594   1.349   3.643 -0.2025 -0.4887  0.0573
 2476TIP3    H1 7392   4.553   1.436   3.647 -2.0005 -1.2064 -1.3560
 2476TIP3    H2 7393   4.686   1.365   3.667 -0.7038  1.6217  0.8112
 2477TIP3   OH2 7394   5.658   6.425   1.579  0.3011 -0.5815  0.3556
 2477TIP3    H1 7395   5.593   6.471   1.524 -0.5434 -2.0651  0.0380
 2477TIP3    H2 7396   5.651   6.334   1.551  0.5640 -1.2249  2.2526
 2478TIP3   OH2 7397   1.014   1.033   4.960 -0.0482 -0.4372 -0.1174
 2478TIP3    H1 7398   0.920   1.026   4.947 -0.3023  2.0366 -0.1318
 2478TIP3    H2 7399   1.024   1.063   5.050  0.5928  0.7746 -0.5612
 2479TIP3   OH2 7400   7.152   2.787   5.804  0.1389  0.2824  0.2895
 2479TIP3    H1 7401   7.242   2.776   5.836 -0.4052 -1.5032  1.4234
 2479TIP3    H2 7402   7.149   2.736   5.723  0.5275  1.6265 -0.5877
 2480TIP3   OH2 7403   6.708   3.677   4.660  0.0481 -0.3148  0.1695
 2480TIP3    H1 7404   6.701   3.681   4.755  0.3824 -1.6605  0.2690
 2480TIP3    H2 7405   6.798   3.702   4.641 -0.4390  1.5038  0.0609
 2481TIP3   OH2 7406   4.898   1.411   4.513  0.2307 -0.4376  0.2668
 2481TIP3    H1 7407   4.942   1.392   4.430  0.2823  0.6272  0.0329
 2481TIP3    H2 7408   4.807   1.424   4.489  0.1126 -0.8468  0.4878
 2482TIP3   OH2 7409   4.796   5.153   2.503  0.0720 -0.1898  0.0178
 2482TIP3    H1 7410   4.842   5.072   2.483 -1.4042 -1.0213 -0.1341
 2482TIP3    H2 7411   4.757   5.139   2.589  0.3690  0.6337  0.3031
 2483TIP3   OH2 7412   2.374   3.849   1.540 -0.6365  0.1557  0.0826
 2483TIP3    H1 7413   2.332   3.763   1.546 -2.8361  1.2315  0.9953
 2483TIP3    H2 7414   2.413   3.863   1.626  2.2603 -1.0518 -0.9009
 2484TIP3   OH2 7415   2.132   5.087   1.596 -0.0307  0.1052 -0.2044
 2484TIP3    H1 7416   2.172   5.161   1.641 -1.9755  1.5953 -0.8177
 2484TIP3    H2 7417   2.195   5.015   1.609  1.1365  1.3848  1.8095
 2485TIP3   OH2 7418   5.055   6.364   2.702 -0.4694  0.2357 -0.2414
 2485TIP3    H1 7419   5.050   6.273   2.673  2.2905 -0.6509  1.5951
 2485TIP3    H2 7420   4.968   6.383   2.737 -1.3247 -1.4049 -1.3515
 2486TIP3   OH2 7421   3.037   2.327   3.892 -0.2708  0.0907 -0.1873
 2486TIP3    H1 7422   3.059   2.340   3.984  2.0349 -0.2027 -0.6403
 2486TIP3    H2 7423   3.056   2.235   3.876  0.9971  0.5154 -1.3195
 2487TIP3   OH2 7424   5.566   4.909   1.608 -0.2777 -0.2709 -0.4949
 2487TIP3    H1 7425   5.556   4.894   1.702  0.2465 -0.3277 -0.4437
 2487TIP3    H2 7426   5.476   4.912   1.574 -0.4650 -0.4205 -0.0208
 2488TIP3   OH2 7427   5.264   2.083   3.017  0.5958 -0.3075 -0.4065
 2488TIP3    H1 7428   5.288   2.107   2.927  1.1838  0.2243 -0.1149
 2488TIP3    H2 7429   5.276   1.988   3.021 -2.7146 -0.9419 -1.8708
 2489TIP3   OH2 7430   5.347   0.262   4.229 -0.2054  0.2664  0.1415
 2489TIP3    H1 7431   5.365   0.198   4.160 -1.4022  1.1021 -0.9936
 2489TIP3    H2 7432   5.287   0.217   4.288 -1.7918  0.5953 -1.1530
 2490TIP3   OH2 7433   0.616   4.662   2.460  0.1313  0.4170 -0.3381
 2490TIP3    H1 7434   0.711   4.652   2.472  0.1111 -1.7729 -1.4276
 2490TIP3    H2 7435   0.608   4.723   2.386  0.7768 -0.5699 -1.2604
 2491TIP3   OH2 7436   0.884   0.432   0.860  0.0291 -0.1160 -0.3233
 2491TIP3    H1 7437   0.824   0.359   0.877  0.3195 -0.0263  1.2135
 2491TIP3    H2 7438   0.971   0.395   0.875  0.1092  1.1157  3.2663
 2492TIP3   OH2 7439   0.746   4.614   4.436  0.1646  0.0264  0.0774
 2492TIP3    H1 7440   0.813   4.546   4.435 -1.0709 -1.2294  0.2241
 2492TIP3    H2 7441   0.666   4.569   4.462 -0.6059  1.6263  0.6185
 2493TIP3   OH2 7442   2.476   3.334   2.047  0.1380 -0.4489  0.0579
 2493TIP3    H1 7443   2.442   3.360   2.133  1.9750  0.5250  0.5597
 2493TIP3    H2 7444   2.470   3.239   2.046 -1.9037 -0.3542  0.3577
 2494TIP3   OH2 7445   3.604   2.360   2.855  0.1368  0.5822 -0.7226
 2494TIP3    H1 7446   3.660   2.296   2.811 -0.2944 -0.2752 -0.0681
 2494TIP3    H2 7447   3.522   2.359   2.806  0.5920  1.6876 -1.5571
 2495TIP3   OH2 7448   2.365   6.427   2.766 -0.7525  0.3443 -0.1447
 2495TIP3    H1 7449   2.346   6.506   2.818 -0.2024  1.0194 -0.9341
 2495TIP3    H2 7450   2.436   6.454   2.707 -0.6518 -0.7096 -0.5258
 2496TIP3   OH2 7451   5.002   4.714   1.383 -0.3881 -0.3099  0.6118
 2496TIP3    H1 7452   4.932   4.745   1.442 -0.3579  0.7013  0.1390
 2496TIP3    H2 7453   5.048   4.794   1.358  0.4035 -0.8822  0.2308
 2497TIP3   OH2 7454   4.771   0.267   3.585  0.1753 -0.4607  0.3664
 2497TIP3    H1 7455   4.794   0.305   3.500  2.0620 -2.8407 -0.3193
 2497TIP3    H2 7456   4.694   0.213   3.568  0.2699 -0.5684  0.2811
 2498TIP3   OH2 7457   0.004   3.666   1.223  0.5206  0.0697  0.1622
 2498TIP3    H1 7458  -0.018   3.587   1.172 -1.2577 -0.3851  1.5408
 2498TIP3    H2 7459   0.016   3.734   1.156 -0.1346 -0.8648 -0.9582
 2499TIP3   OH2 7460   3.350   1.738   3.859  0.2915 -0.5126 -0.0207
 2499TIP3    H1 7461   3.419   1.740   3.925  0.5685 -1.0696 -0.2863
 2499TIP3    H2 7462   3.355   1.824   3.816  0.0080 -0.0869  0.7706
 2500TIP3   OH2 7463   6.193   5.681   4.239  0.0953  0.1884  0.6877
 2500TIP3    H1 7464   6.192   5.655   4.147  0.3912  1.3972  0.3230
 2500TIP3    H2 7465   6.239   5.766   4.239  2.2780 -0.9145  2.2653
 2501TIP3   OH2 7466   1.194   1.455   3.167  0.4813  0.4053 -0.1486
 2501TIP3    H1 7467   1.276   1.406   3.163 -1.2032 -2.5148 -2.6756
 2501TIP3    H2 7468   1.166   1.448   3.258  0.4317 -3.3617 -0.3058
 2502TIP3   OH2 7469   6.470   6.547   2.852 -0.3487  0.0605  0.3311
 2502TIP3    H1 7470   6.469   6.452   2.840  1.5791 -0.0431  0.5462
 2502TIP3    H2 7471   6.514   6.559   2.936 -2.3908  1.1186  1.3155
 2503TIP3   OH2 7472   3.591   3.423   1.614 -0.3661  0.0731 -0.2917
 2503TIP3    H1 7473   3.672   3.388   1.578 -0.0456 -0.0835  0.5681
 2503TIP3    H2 7474   3.608   3.433   1.708 -0.9071  1.2276 -0.2890
 2504TIP3   OH2 7475   2.077   1.142   0.236  0.0696 -0.1254  0.1050
 2504TIP3    H1 7476   2.071   1.224   0.187 -2.2235  0.3367  1.0197
 2504TIP3    H2 7477   2.049   1.075   0.175  0.1152  0.0457 -0.1035
 2505TIP3   OH2 7478   0.959   2.983   1.751  0.3652  0.0861 -0.5890
 2505TIP3    H1 7479   0.998   3.038   1.818  0.0774 -0.2329 -0.1567
 2505TIP3    H2 7480   1.026   2.917   1.732  0.4315  0.1541 -0.5904
 2506TIP3   OH2 7481   5.736   5.754   2.124 -0.1131 -0.0612 -0.7299
 2506TIP3    H1 7482   5.745   5.817   2.052  1.3563  1.1278  0.4180
 2506TIP3    H2 7483   5.822   5.714   2.132 -0.3587 -0.4393  0.1371
 2507TIP3   OH2 7484   1.724   4.308   5.395 -0.3355  0.1938  0.0641
 2507TIP3    H1 7485   1.792   4.374   5.380  0.7613 -0.8935  0.0413
 2507TIP3    H2 7486   1.643   4.349   5.364  0.6123  0.8541 -1.6639
 2508TIP3   OH2 7487   2.038   3.664   1.713 -0.2610 -0.0496  0.0886
 2508TIP3    H1 7488   2.008   3.746   1.674  0.7814 -0.0890 -0.8344
 2508TIP3    H2 7489   2.094   3.691   1.785  0.1457  0.0621 -0.2641
 2509TIP3   OH2 7490   4.942   5.323   5.309 -0.2864  0.6840 -0.0949
 2509TIP3    H1 7491   4.951   5.362   5.395  0.6544  1.5363 -0.5650
 2509TIP3    H2 7492   4.997   5.244   5.313  3.1601  2.8277 -1.1205
 2510TIP3   OH2 7493   6.181   4.074   2.623 -0.5957  0.4978 -0.4420
 2510TIP3    H1 7494   6.108   4.126   2.589 -2.3809 -0.9601  0.9128
 2510TIP3    H2 7495   6.194   4.006   2.557 -1.6385 -0.2163  0.0505
 2511TIP3   OH2 7496   4.524   5.351   4.997  0.1426 -0.9430 -0.3236
 2511TIP3    H1 7497   4.593   5.359   4.931  0.1245 -0.6614 -0.3099
 2511TIP3    H2 7498   4.568   5.317   5.075  0.0352 -1.9857 -0.6909
 2512TIP3   OH2 7499   1.321   5.108   0.974 -0.3245 -0.3350  0.1044
 2512TIP3    H1 7500   1.389   5.041   0.971  2.2591  2.0491  0.6367
 2512TIP3    H2 7501   1.366   5.186   1.007 -2.8190  2.0470 -1.6772
 2513TIP3   OH2 7502   2.697   5.599   3.458 -0.3331  0.0200 -0.0125
 2513TIP3    H1 7503   2.736   5.545   3.388  2.8895  0.5011  1.2402
 2513TIP3    H2 7504   2.644   5.537   3.508 -0.8939 -0.8207 -1.5548
 2514TIP3   OH2 7505   5.039   4.010   2.176  0.2513  0.1107 -0.6320
 2514TIP3    H1 7506   5.003   4.061   2.249  0.9268 -0.2401 -0.0327
 2514TIP3    H2 7507   4.967   3.954   2.148 -0.1040  0.4575 -0.4273
 2515TIP3   OH2 7508   4.474   2.285   4.462  0.0350 -0.4626 -0.5168
 2515TIP3    H1 7509   4.422   2.219   4.508  0.2572 -0.9569 -0.9530
 2515TIP3    H2 7510   4.410   2.338   4.415 -0.1927  0.0591  0.3664
 2516TIP3   OH2 7511   3.663   5.999   0.463 -0.5124  0.5593  0.5878
 2516TIP3    H1 7512   3.698   5.990   0.375 -0.0034 -0.9001  0.9085
 2516TIP3    H2 7513   3.739   6.018   0.518 -0.5692 -0.1829  0.9388
 2517TIP3   OH2 7514   6.280   1.818   2.335  0.3155 -0.5909 -0.0073
 2517TIP3    H1 7515   6.340   1.744   2.345 -2.0410 -2.4276  1.4220
 2517TIP3    H2 7516   6.310   1.882   2.399  0.6343 -1.5585  0.8335
 2518TIP3   OH2 7517   6.939   6.211   4.911  0.2993  0.4490  0.4926
 2518TIP3    H1 7518   6.846   6.236   4.917  0.6123  1.3503  2.3658
 2518TIP3    H2 7519   6.955   6.202   4.817 -1.4207  1.3490  0.0640
 2519TIP3   OH2 7520   4.609   5.062   4.601 -0.4381 -0.7278 -0.3606
 2519TIP3    H1 7521   4.556   5.122   4.652 -1.1999  0.2481 -2.1981
 2519TIP3    H2 7522   4.619   5.105   4.516  1.5099 -1.8653 -0.7749
 2520TIP3   OH2 7523   4.679   5.738   1.292  0.4963  0.3143 -0.3130
 2520TIP3    H1 7524   4.753   5.726   1.352  0.3142 -1.5999 -0.4049
 2520TIP3    H2 7525   4.649   5.828   1.308  2.3000  0.8472  0.3197
 2521TIP3   OH2 7526   1.733   2.375   1.994 -0.2222  0.2428  0.7495
 2521TIP3    H1 7527   1.807   2.416   2.039 -0.4799 -0.1993  1.6051
 2521TIP3    H2 7528   1.737   2.410   1.905  0.6873  0.6463  0.9311
 2522TIP3   OH2 7529   3.284   5.787   1.859 -0.1604  0.1095  0.5565
 2522TIP3    H1 7530   3.314   5.835   1.936  1.4162 -0.0257  0.0665
 2522TIP3    H2 7531   3.329   5.828   1.786 -1.8331  0.4073 -0.3618
 2523TIP3   OH2 7532   6.687   0.627   4.666  0.3791  0.6685  0.3288
 2523TIP3    H1 7533   6.763   0.574   4.638  0.8145  1.1767  0.5412
 2523TIP3    H2 7534   6.687   0.701   4.605 -0.2095  0.4486  0.0578
 2524TIP3   OH2 7535   1.067   4.987   1.642  0.3243 -0.7409 -0.1343
 2524TIP3    H1 7536   1.095   4.897   1.657  0.3098 -0.5378  1.2055
 2524TIP3    H2 7537   1.127   5.040   1.694 -1.5329 -0.2004  1.5578
 2525TIP3   OH2 7538   6.775   5.682   3.000  0.2910 -0.0109  0.3634
 2525TIP3    H1 7539   6.693   5.655   3.040  0.8726 -1.8934  0.3675
 2525TIP3    H2 7540   6.790   5.619   2.930  2.6500 -0.9223  1.5714
 2526TIP3   OH2 7541   1.531   6.030   1.745  0.1364 -0.3016  0.1339
 2526TIP3    H1 7542   1.559   5.968   1.812 -1.9106 -0.3949  0.9641
 2526TIP3    H2 7543   1.553   6.116   1.782  2.5160 -0.4114 -0.8070
 2527TIP3   OH2 7544   4.446   6.210   4.167  0.2774 -0.2712 -0.3692
 2527TIP3    H1 7545   4.449   6.115   4.155 -0.0080 -0.0943 -1.9917
 2527TIP3    H2 7546   4.526   6.230   4.215  0.7309 -1.2382 -0.6922
 2528TIP3   OH2 7547   0.188   5.920   1.718  0.1004  0.0386  0.0316
 2528TIP3    H1 7548   0.165   5.985   1.785 -1.4607 -1.3034  0.8532
 2528TIP3    H2 7549   0.224   5.846   1.767  1.6721  0.1412 -0.8846
 2529TIP3   OH2 7550   0.723   6.237   3.952  0.2176  0.1549 -0.1237
 2529TIP3    H1 7551   0.631   6.219   3.936  0.2988  0.8603 -1.4952
 2529TIP3    H2 7552   0.770   6.183   3.887  0.6740  1.1969 -0.6757
 2530TIP3   OH2 7553   5.917   6.395   4.172  0.1760  0.0338 -0.0002
 2530TIP3    H1 7554   5.951   6.479   4.202 -2.8998  0.8055  1.7094
 2530TIP3    H2 7555   5.894   6.409   4.081 -0.2568  1.0693  0.2540
 2531TIP3   OH2 7556   2.811   1.402   1.082 -0.4329 -0.5751  0.1805
 2531TIP3    H1 7557   2.849   1.315   1.075 -0.3952 -0.5639  0.2525
 2531TIP3    H2 7558   2.885   1.461   1.088 -0.4360 -0.4678 -0.6296
 2532TIP3   OH2 7559   4.920   5.569   3.115 -0.6518  0.2128  0.3459
 2532TIP3    H1 7560   4.853   5.528   3.170  0.4130  0.4686  1.8923
 2532TIP3    H2 7561   4.998   5.516   3.129  0.1656  1.4681  0.6696
 2533TIP3   OH2 7562   0.061   4.161   0.702 -0.4114  0.0112  0.5234
 2533TIP3    H1 7563   0.076   4.091   0.766 -3.5224  1.2457  2.8507
 2533TIP3    H2 7564  -0.019   4.136   0.656  0.8806 -0.0278 -1.8860
 2534TIP3   OH2 7565   2.678   2.455   3.034  0.3168  0.3462  0.7001
 2534TIP3    H1 7566   2.733   2.401   3.090  0.1453  0.8995  1.4074
 2534TIP3    H2 7567   2.739   2.517   2.993  0.2531  0.8375  1.3397
 2535TIP3   OH2 7568   3.819   0.776   4.467 -0.4057  0.3363 -0.5636
 2535TIP3    H1 7569   3.807   0.871   4.470  1.0294  0.5433 -0.0757
 2535TIP3    H2 7570   3.904   0.762   4.510  0.9974 -0.8613 -3.4423
 2536TIP3   OH2 7571   1.495   0.915   5.045  0.4138 -0.4984 -0.0963
 2536TIP3    H1 7572   1.576   0.870   5.021  1.3975  1.2287 -0.1518
 2536TIP3    H2 7573   1.440   0.847   5.083  0.8880 -2.2509 -2.3138
 2537TIP3   OH2 7574   3.087   5.733   2.490 -0.3594 -0.3860 -0.0199
 2537TIP3    H1 7575   3.010   5.683   2.516 -0.6530  1.1000  2.2608
 2537TIP3    H2 7576   3.123   5.766   2.573  1.6595  0.4745 -1.1757
 2538TIP3   OH2 7577   0.262   5.432   1.405 -0.2707 -0.1784 -0.4998
 2538TIP3    H1 7578   0.249   5.526   1.402  0.8728 -0.0331 -1.4939
 2538TIP3    H2 7579   0.240   5.407   1.495 -0.7218  1.0015 -0.2680
 2539TIP3   OH2 7580   3.402   3.845   0.566  0.0497 -0.1061  0.3125
 2539TIP3    H1 7581   3.358   3.778   0.619 -4.2134  1.4675 -0.8103
 2539TIP3    H2 7582   3.440   3.904   0.631 -0.9983 -0.6809  1.5102
 2540TIP3   OH2 7583   0.556   5.175   5.446 -0.2908  0.2029 -0.5953
 2540TIP3    H1 7584   0.633   5.117   5.447 -1.3727 -1.3975 -2.7767
 2540TIP3    H2 7585   0.520   5.166   5.358 -1.6802  2.7376 -0.3890
 2541TIP3   OH2 7586   0.402   5.689   4.929 -0.7645 -0.0764  0.1786
 2541TIP3    H1 7587   0.467   5.645   4.983 -2.8906 -1.7706  1.5486
 2541TIP3    H2 7588   0.427   5.782   4.931  0.2819 -0.3340  2.6186
 2542TIP3   OH2 7589   2.442   2.380   4.226  0.1437  0.1209 -0.0990
 2542TIP3    H1 7590   2.507   2.381   4.156  1.1300  0.3424  0.7941
 2542TIP3    H2 7591   2.375   2.318   4.196 -0.3378  1.4637 -1.9894
 2543TIP3   OH2 7592   3.393   3.340   3.103 -0.0413 -0.3095  0.3269
 2543TIP3    H1 7593   3.361   3.268   3.157  0.2850 -0.2287  0.6320
 2543TIP3    H2 7594   3.458   3.384   3.158  0.7249 -0.5781 -0.3350
 2544TIP3   OH2 7595   5.663   2.318   1.303 -0.2317  0.0203 -0.0444
 2544TIP3    H1 7596   5.693   2.313   1.394  0.9414  0.7222 -0.3728
 2544TIP3    H2 7597   5.656   2.227   1.274  1.7179 -0.1947  0.0308
 2545TIP3   OH2 7598   1.879   5.306   4.785 -0.5940  0.3954  0.4166
 2545TIP3    H1 7599   1.915   5.375   4.729 -1.6022  0.3284 -0.3495
 2545TIP3    H2 7600   1.868   5.348   4.871  1.1854  0.4337  0.6523
 2546TIP3   OH2 7601   3.223   2.597   3.102 -0.1162  0.3212 -0.0094
 2546TIP3    H1 7602   3.152   2.568   3.159  0.5964  0.1260  0.8132
 2546TIP3    H2 7603   3.281   2.521   3.097 -0.2828  0.2606 -1.2018
 2547TIP3   OH2 7604   6.037   0.619   4.196 -0.0201 -0.4445  0.6176
 2547TIP3    H1 7605   6.051   0.525   4.207  0.0955 -0.3263  1.5589
 2547TIP3    H2 7606   5.975   0.642   4.265 -0.5216  0.0664  0.0091
 2548TIP3   OH2 7607   1.361   4.639   1.353  0.7502 -0.1178 -0.1532
 2548TIP3    H1 7608   1.420   4.703   1.311  0.8384  0.6568  1.1006
 2548TIP3    H2 7609   1.405   4.555   1.343  1.3070  0.2244 -0.6180
 2549TIP3   OH2 7610   3.448   5.870   1.290 -0.3670 -0.2278 -0.2690
 2549TIP3    H1 7611   3.524   5.877   1.347  0.6882  0.4625 -1.6895
 2549TIP3    H2 7612   3.433   5.776   1.281 -0.1145 -0.3550  0.5670
 2550TIP3   OH2 7613   4.877   1.399   3.637  0.4556  0.5459  0.7250
 2550TIP3    H1 7614   4.963   1.361   3.617 -0.9110 -1.8306 -1.1209
 2550TIP3    H2 7615   4.854   1.364   3.722  0.6526 -0.0729  0.5277
 2551TIP3   OH2 7616   0.206   3.303   1.342  0.1175  0.1756  0.8650
 2551TIP3    H1 7617   0.173   3.390   1.319  0.5027 -0.4071 -2.3616
 2551TIP3    H2 7618   0.301   3.311   1.335  0.1081 -0.7854 -0.9200
 2552TIP3   OH2 7619   5.960   5.100   4.746  0.3836 -0.1007 -0.1492
 2552TIP3    H1 7620   5.880   5.049   4.755  0.0017  0.6578  0.9359
 2552TIP3    H2 7621   5.996   5.105   4.835  1.0524  0.4748 -0.4415
 2553TIP3   OH2 7622   5.679   2.925   2.975 -0.5094  0.0846  0.4628
 2553TIP3    H1 7623   5.626   2.855   2.938  0.1589  0.6887 -1.8090
 2553TIP3    H2 7624   5.769   2.902   2.953 -0.2522  1.4627 -0.0219
 2554TIP3   OH2 7625   6.231   6.737   1.343 -0.0473 -0.3473  0.0227
 2554TIP3    H1 7626   6.271   6.656   1.311 -2.2522 -1.4673 -0.0067
 2554TIP3    H2 7627   6.138   6.727   1.327 -0.6269  1.3600  1.8721
 2555TIP3   OH2 7628   4.616   5.689   5.277 -0.0359 -0.7659  0.0839
 2555TIP3    H1 7629   4.654   5.774   5.299  1.1285 -1.3856  0.5555
 2555TIP3    H2 7630   4.645   5.672   5.188  0.1137 -0.8759  0.1538
 2556TIP3   OH2 7631   4.006   1.020   5.116 -0.2602 -0.5962  0.5515
 2556TIP3    H1 7632   3.944   1.065   5.172  0.1549 -0.5160  0.9518
 2556TIP3    H2 7633   3.988   0.927   5.130  0.6044 -0.6085  1.7066
 2557TIP3   OH2 7634   4.291   1.306   3.839 -0.1497  0.1564  0.0991
 2557TIP3    H1 7635   4.310   1.389   3.795 -1.9739 -0.1481 -1.4230
 2557TIP3    H2 7636   4.225   1.264   3.784 -0.0431 -1.8581  1.3749
 2558TIP3   OH2 7637   3.916   2.803   2.719 -0.4115  0.0095  0.4521
 2558TIP3    H1 7638   3.915   2.731   2.782  0.1282  0.3268  0.8289
 2558TIP3    H2 7639   3.882   2.764   2.638  2.6198 -1.4997 -0.2344
 2559TIP3   OH2 7640   4.901   3.170   1.000  0.0742  0.1376  0.3045
 2559TIP3    H1 7641   4.846   3.236   0.959 -0.5047 -0.6664 -0.2580
 2559TIP3    H2 7642   4.854   3.145   1.079 -0.7022 -0.9619 -0.4682
 2560TIP3   OH2 7643   3.871   0.815   1.490 -0.0041 -0.0935  0.2318
 2560TIP3    H1 7644   3.896   0.723   1.491  1.3696  0.2465  1.2434
 2560TIP3    H2 7645   3.874   0.840   1.398  2.5535 -0.3643  0.1672
 2561TIP3   OH2 7646   3.850   4.278   3.217  0.1531  0.1944  0.2251
 2561TIP3    H1 7647   3.835   4.225   3.138 -1.3277  0.3955  0.3350
 2561TIP3    H2 7648   3.783   4.347   3.213  0.4457  0.5682  1.3459
 2562TIP3   OH2 7649   2.999   4.251   5.576 -0.0447 -0.4825  0.4753
 2562TIP3    H1 7650   2.936   4.308   5.621 -0.1969  0.7906 -1.2560
 2562TIP3    H2 7651   3.080   4.302   5.572 -0.9310  0.9616 -3.5315
 2563TIP3   OH2 7652   2.234   3.645   1.181 -0.2796 -0.0463  0.0822
 2563TIP3    H1 7653   2.193   3.565   1.146 -0.9322  0.6967 -0.9041
 2563TIP3    H2 7654   2.319   3.649   1.137  0.5232 -1.1133  1.4604
 2564TIP3   OH2 7655   4.324   4.906   0.223 -0.4854 -0.0113  0.0119
 2564TIP3    H1 7656   4.335   4.820   0.264  1.4676  0.3026  0.2351
 2564TIP3    H2 7657   4.325   4.968   0.295  0.7628  0.3803 -0.3238
 2565TIP3   OH2 7658   5.060   3.504   1.615 -0.0803 -0.2608 -0.5919
 2565TIP3    H1 7659   5.087   3.593   1.634 -1.4390 -0.2244  1.3492
 2565TIP3    H2 7660   5.055   3.501   1.519  0.9717  1.4077 -0.7424
 2566TIP3   OH2 7661   4.341   6.377   2.050 -0.5494 -0.1621  0.9596
 2566TIP3    H1 7662   4.256   6.333   2.051 -0.4191 -0.9343 -3.3311
 2566TIP3    H2 7663   4.405   6.306   2.059 -0.3107  0.0722  1.1538
 2567TIP3   OH2 7664   6.891   2.035   4.118  0.3549  0.9941  0.0853
 2567TIP3    H1 7665   6.983   2.007   4.124 -0.4358 -1.7576  0.5701
 2567TIP3    H2 7666   6.889   2.092   4.040  2.4294  1.0308 -0.0112
 2568TIP3   OH2 7667   6.337   3.746   2.210 -0.4921 -0.2786 -0.2804
 2568TIP3    H1 7668   6.376   3.665   2.244  1.1166  0.5507 -0.0015
 2568TIP3    H2 7669   6.389   3.766   2.132  1.0244  1.8670  1.1504
 2569TIP3   OH2 7670   4.767   2.636   4.970 -0.1028 -0.7406  0.2713
 2569TIP3    H1 7671   4.770   2.641   5.065  1.4900 -0.7359  0.2472
 2569TIP3    H2 7672   4.807   2.717   4.940 -0.8798 -0.5937 -0.4299
 2570TIP3   OH2 7673   3.452   3.667   2.144  0.5183  0.3356 -1.0479
 2570TIP3    H1 7674   3.429   3.757   2.123  0.2514  0.4718 -0.2048
 2570TIP3    H2 7675   3.395   3.614   2.087 -1.6640  0.6785  0.6829
 2571TIP3   OH2 7676   2.189   1.639   2.996  0.0587 -0.0345 -0.0380
 2571TIP3    H1 7677   2.277   1.603   2.983  0.1171  0.3585 -0.8322
 2571TIP3    H2 7678   2.140   1.610   2.919 -0.6085 -0.5484  0.5793
 2572TIP3   OH2 7679   5.271   5.019   2.377  0.1877  0.2071 -0.3366
 2572TIP3    H1 7680   5.219   5.094   2.350 -1.0173 -0.2476  0.6544
 2572TIP3    H2 7681   5.331   5.054   2.443 -0.6379  0.2409  0.4115
 2573TIP3   OH2 7682   4.757   5.933   5.311 -0.0122 -0.1496  0.1348
 2573TIP3    H1 7683   4.746   5.919   5.217  0.9044  1.2083 -0.2054
 2573TIP3    H2 7684   4.843   5.894   5.330  0.2225  0.3979  0.2102
 2574TIP3   OH2 7685   6.334   4.494   0.608 -0.3929 -0.2287  0.3295
 2574TIP3    H1 7686   6.341   4.582   0.643  0.4074 -0.5604  1.0499
 2574TIP3    H2 7687   6.240   4.473   0.613 -0.7398  0.9640 -0.8613
 2575TIP3   OH2 7688   7.018   5.125   5.477  0.7688  0.0120 -0.3365
 2575TIP3    H1 7689   6.957   5.189   5.440 -0.0992 -0.7816 -0.3125
 2575TIP3    H2 7690   7.056   5.082   5.400  0.0189 -0.6633 -0.3379
 2576TIP3   OH2 7691   4.838   5.334   1.317 -0.2451 -0.2968 -0.0110
 2576TIP3    H1 7692   4.782   5.399   1.276  0.4527 -0.5959 -1.5054
 2576TIP3    H2 7693   4.925   5.375   1.320  0.2849 -1.2467 -1.3184
 2577TIP3   OH2 7694   0.550   4.795   4.746 -0.4014 -0.0978 -0.4669
 2577TIP3    H1 7695   0.494   4.843   4.685  0.6316 -0.2210 -1.5610
 2577TIP3    H2 7696   0.547   4.845   4.827 -1.3807  0.3831 -0.7899
 2578TIP3   OH2 7697   2.609   2.363   3.989  0.4338  0.3550  0.2674
 2578TIP3    H1 7698   2.681   2.337   4.047  1.8972  0.3632 -1.4423
 2578TIP3    H2 7699   2.594   2.285   3.935 -0.7697  0.4092  0.5059
 2579TIP3   OH2 7700   5.628   0.611   0.423 -0.0644 -0.3370  0.4087
 2579TIP3    H1 7701   5.682   0.663   0.483  2.8779 -0.2364 -2.0961
 2579TIP3    H2 7702   5.668   0.524   0.424 -1.4068 -0.9830  0.2575
 2580TIP3   OH2 7703   7.045   0.596   5.444  0.0502 -0.0328 -0.7400
 2580TIP3    H1 7704   6.988   0.629   5.374 -0.5824  0.3163 -0.0816
 2580TIP3    H2 7705   7.097   0.527   5.403  0.7453  1.1562 -1.9282
 2581TIP3   OH2 7706   4.809   2.279   3.313  0.3508 -0.6113  0.3946
 2581TIP3    H1 7707   4.871   2.247   3.379 -0.6481  1.3023  2.3539
 2581TIP3    H2 7708   4.860   2.339   3.259  0.6734 -0.6305  0.6790
 2582TIP3   OH2 7709   0.679   4.583   0.870 -0.1648 -0.1518 -0.1479
 2582TIP3    H1 7710   0.660   4.520   0.801  1.5411 -0.3397 -0.4784
 2582TIP3    H2 7711   0.740   4.646   0.830 -1.8418  1.7829  0.1481
 2583TIP3   OH2 7712   2.874   0.375   5.106  0.2875 -0.1148 -0.3648
 2583TIP3    H1 7713   2.814   0.417   5.168  0.6729 -1.2518  0.8225
 2583TIP3    H2 7714   2.835   0.290   5.088  1.6903 -1.0499  0.7490
 2584TIP3   OH2 7715   5.421   0.690   5.873 -0.5053  0.4224 -0.3639
 2584TIP3    H1 7716   5.349   0.724   5.926 -0.8388 -0.4096 -0.2848
 2584TIP3    H2 7717   5.382   0.624   5.816  0.2058 -0.1208 -0.2384
 2585TIP3   OH2 7718   5.276   3.200   1.255 -0.2127 -0.2182  0.3332
 2585TIP3    H1 7719   5.215   3.254   1.205 -1.4791 -1.2523  0.7230
 2585TIP3    H2 7720   5.248   3.110   1.239  2.0132 -0.8324 -0.5082
 2586TIP3   OH2 7721   3.558   1.989   1.972  0.6246 -0.2987  0.1875
 2586TIP3    H1 7722   3.513   1.906   1.954  0.9713 -0.2005 -1.2704
 2586TIP3    H2 7723   3.491   2.055   1.957  0.9605 -0.2065 -1.0081
 2587TIP3   OH2 7724   0.649   0.519   0.752  0.4970 -0.1287 -0.2856
 2587TIP3    H1 7725   0.653   0.468   0.672  0.1797 -0.4788 -0.0802
 2587TIP3    H2 7726   0.738   0.515   0.787 -0.1293 -3.0563  1.2669
 2588TIP3   OH2 7727   4.068   3.288   2.366  0.0330  0.1583  0.0618
 2588TIP3    H1 7728   4.110   3.337   2.437  2.2635 -1.9949  0.3465
 2588TIP3    H2 7729   4.117   3.313   2.287 -2.4979  2.6232 -0.8889
 2589TIP3   OH2 7730   1.187   4.760   5.137 -0.4124  0.2661 -0.7253
 2589TIP3    H1 7731   1.232   4.845   5.138 -3.1406  1.8447  0.5969
 2589TIP3    H2 7732   1.111   4.775   5.080  1.0001 -2.5757 -3.7052
 2590TIP3   OH2 7733   3.880   4.596   2.069 -0.8735  0.0136  0.4593
 2590TIP3    H1 7734   3.867   4.557   1.982 -1.8851  1.6770 -0.1936
 2590TIP3    H2 7735   3.974   4.611   2.074 -0.6169 -1.4206  0.2674
 2591TIP3   OH2 7736   0.324   0.680   1.811 -0.0694 -0.2658  0.7853
 2591TIP3    H1 7737   0.345   0.740   1.739 -0.4600 -0.5233  0.4466
 2591TIP3    H2 7738   0.314   0.737   1.888 -1.2790  0.2187  0.3033
 2592TIP3   OH2 7739   5.824   2.347   3.918 -0.0775  0.0732  0.4215
 2592TIP3    H1 7740   5.752   2.403   3.947 -0.9204 -1.3048  1.1409
 2592TIP3    H2 7741   5.801   2.323   3.828 -0.5928 -0.4333  0.6775
 2593TIP3   OH2 7742   5.787   3.885   0.346 -0.0277 -0.0875  0.2286
 2593TIP3    H1 7743   5.765   3.793   0.357 -0.7623  0.1228  0.6439
 2593TIP3    H2 7744   5.718   3.932   0.395  0.4232  0.6689  0.1594
 2594TIP3   OH2 7745   0.123   4.801   4.757  0.0318 -0.0204 -0.3357
 2594TIP3    H1 7746   0.185   4.749   4.706 -0.2904  1.1263 -1.9490
 2594TIP3    H2 7747   0.037   4.776   4.723 -0.1737  0.9382 -0.5285
 2595TIP3   OH2 7748   4.212   2.821   4.028  0.0463 -0.1313  0.2432
 2595TIP3    H1 7749   4.270   2.892   4.056  0.1978  0.0964 -0.6209
 2595TIP3    H2 7750   4.128   2.841   4.070  0.8645 -1.1263  2.4982
 2596TIP3   OH2 7751   5.282   3.897   3.656  0.2716  0.6470 -0.0643
 2596TIP3    H1 7752   5.298   3.932   3.744  1.3945 -1.5522  0.6993
 2596TIP3    H2 7753   5.254   3.807   3.671  1.5775 -0.1461 -1.9776
 2597TIP3   OH2 7754   3.391   6.752   1.949  0.4831  0.3144  0.3681
 2597TIP3    H1 7755   3.375   6.664   1.916  3.0575  0.0600 -0.4082
 2597TIP3    H2 7756   3.346   6.755   2.033 -1.6141 -0.9060 -0.6264
 2598TIP3   OH2 7757   2.983   5.724   5.111  0.4377  0.4100 -0.3801
 2598TIP3    H1 7758   2.995   5.629   5.118 -0.7866  0.3000  0.6157
 2598TIP3    H2 7759   3.050   5.752   5.048  1.9736 -0.8560  0.6054
 2599TIP3   OH2 7760   0.393   5.406   5.460  0.3505  0.7674  0.4443
 2599TIP3    H1 7761   0.317   5.374   5.414 -0.8815  2.1248  1.4150
 2599TIP3    H2 7762   0.461   5.340   5.446 -0.8259 -0.1944 -0.8976
 2600TIP3   OH2 7763   1.694   5.986   0.482 -0.5830  0.4746  0.3333
 2600TIP3    H1 7764   1.639   5.921   0.437  1.5251 -0.5044 -0.9711
 2600TIP3    H2 7765   1.718   6.048   0.413  1.5556 -0.2744  0.3217
 2601TIP3   OH2 7766   4.939   0.147   2.531 -0.1483  0.7184 -0.1837
 2601TIP3    H1 7767   4.873   0.188   2.586 -0.0381  1.5846 -0.6816
 2601TIP3    H2 7768   5.023   0.169   2.572 -0.1445 -2.2457  1.7567
 2602TIP3   OH2 7769   0.256   6.205   0.423  0.2246  0.0610 -0.7021
 2602TIP3    H1 7770   0.220   6.127   0.465 -0.7547  0.7570 -0.1858
 2602TIP3    H2 7771   0.222   6.202   0.333 -1.5147  0.9012 -0.1168
 2603TIP3   OH2 7772   2.797   1.804   1.019 -0.2953  0.3133 -0.1664
 2603TIP3    H1 7773   2.816   1.775   0.930 -2.7613 -1.2141 -0.2792
 2603TIP3    H2 7774   2.717   1.856   1.011 -0.3424  0.4643  1.1011
 2604TIP3   OH2 7775   3.099   6.459   3.615  0.0008  0.1275 -0.5300
 2604TIP3    H1 7776   3.119   6.532   3.556  1.1245  2.7607  2.7552
 2604TIP3    H2 7777   3.004   6.446   3.606  0.0283  0.8942 -2.3293
 2605TIP3   OH2 7778   0.503   5.925   5.293 -0.0308 -0.2684  0.8864
 2605TIP3    H1 7779   0.410   5.942   5.285  0.0063 -0.4196  0.0792
 2605TIP3    H2 7780   0.509   5.835   5.325 -0.1662  0.0489  1.8450
 2606TIP3   OH2 7781   1.444   6.306   4.350 -0.8717  0.2598  0.1754
 2606TIP3    H1 7782   1.519   6.270   4.398 -1.3107  0.0380  0.7062
 2606TIP3    H2 7783   1.449   6.265   4.264  1.4034  2.5895 -0.9122
 2607TIP3   OH2 7784   2.110   6.420   4.309 -0.4257  0.2332 -0.2952
 2607TIP3    H1 7785   2.193   6.464   4.326 -0.7931  0.5070  0.8849
 2607TIP3    H2 7786   2.131   6.355   4.241  1.1137 -0.7559  1.0402
 2608TIP3   OH2 7787   3.557   6.485   5.265 -0.0749 -0.4530 -0.3559
 2608TIP3    H1 7788   3.516   6.439   5.339  2.1018 -2.6944 -0.3880
 2608TIP3    H2 7789   3.591   6.566   5.303  0.0471 -1.0484  0.8719
 2609TIP3   OH2 7790   4.749   0.342   3.341 -0.0073  0.0378  0.4313
 2609TIP3    H1 7791   4.783   0.396   3.269 -0.6647  1.3465  1.0685
 2609TIP3    H2 7792   4.661   0.376   3.357  0.2393 -0.0053  2.0671
 2610TIP3   OH2 7793   1.344   2.809   3.652 -0.3100 -0.3549 -0.3569
 2610TIP3    H1 7794   1.411   2.754   3.613  0.9984  1.1746 -0.3595
 2610TIP3    H2 7795   1.364   2.810   3.745 -0.2894  0.1524 -0.3637
 2611TIP3   OH2 7796   0.129   6.058   0.187  0.1856 -0.5090 -0.3932
 2611TIP3    H1 7797   0.213   6.049   0.141  0.1686  2.1004 -1.0615
 2611TIP3    H2 7798   0.065   6.069   0.117 -0.2552  0.6245  0.1779
 2612TIP3   OH2 7799   7.048   0.886   0.729 -0.0916  0.5169 -0.0778
 2612TIP3    H1 7800   7.070   0.914   0.818  0.0540 -1.0776  0.4212
 2612TIP3    H2 7801   7.122   0.914   0.676  0.1438  0.8711  0.4341
 2613TIP3   OH2 7802   5.772   6.370   3.920  0.4813 -1.0110  0.7523
 2613TIP3    H1 7803   5.811   6.284   3.903  2.6806 -0.4474  2.5113
 2613TIP3    H2 7804   5.807   6.426   3.850 -0.8322 -1.4683 -0.3054
 2614TIP3   OH2 7805   5.791   2.384   0.278 -0.0385 -0.1803 -0.3228
 2614TIP3    H1 7806   5.712   2.366   0.228  0.3719  0.1577 -1.1149
 2614TIP3    H2 7807   5.814   2.300   0.318 -0.4000 -0.4483 -0.6670
 2615TIP3   OH2 7808   2.128   4.262   0.678  0.3489 -0.2862  0.3638
 2615TIP3    H1 7809   2.188   4.196   0.714 -1.4471 -1.6561  0.9781
 2615TIP3    H2 7810   2.096   4.223   0.596  1.5028  1.1605 -0.8421
 2616TIP3   OH2 7811   1.797   2.509   2.336 -0.2598 -0.2843  0.1918
 2616TIP3    H1 7812   1.706   2.507   2.307 -0.6648  1.4458  1.2087
 2616TIP3    H2 7813   1.801   2.582   2.398  2.2276  0.9238 -1.2201
 2617TIP3   OH2 7814   1.752   4.682   2.349  0.1690 -0.3340  0.3141
 2617TIP3    H1 7815   1.702   4.625   2.407 -1.4944 -0.7193 -1.3963
 2617TIP3    H2 7816   1.778   4.624   2.277 -1.6541  1.0137 -1.5247
 2618TIP3   OH2 7817   0.056   5.039   3.772 -0.0686 -0.5065 -0.1060
 2618TIP3    H1 7818   0.048   5.085   3.688 -0.7842 -0.9618 -0.2934
 2618TIP3    H2 7819  -0.004   4.965   3.765 -2.9239  1.3746  2.1260
 2619TIP3   OH2 7820   3.301   0.278   0.294  0.2775 -0.1637  0.1976
 2619TIP3    H1 7821   3.380   0.291   0.241 -0.0380 -1.8235 -0.7372
 2619TIP3    H2 7822   3.323   0.205   0.352  0.4418  1.3128  2.0668
 2620TIP3   OH2 7823   0.292   2.647   3.117  0.1028 -0.2573  0.1712
 2620TIP3    H1 7824   0.262   2.714   3.179 -1.5186 -0.6037 -0.1794
 2620TIP3    H2 7825   0.321   2.696   3.040 -1.0143  0.0818 -0.0609
 2621TIP3   OH2 7826   2.019   2.264   4.451 -0.3752  0.0002 -0.1184
 2621TIP3    H1 7827   2.068   2.183   4.438 -0.8984 -0.1535 -1.3825
 2621TIP3    H2 7828   2.033   2.312   4.369 -0.5015  0.9491  0.4139
 2622TIP3   OH2 7829   5.953   6.498   0.413 -0.8527  0.0775  0.3202
 2622TIP3    H1 7830   5.951   6.458   0.326  1.2591 -0.7476  0.5816
 2622TIP3    H2 7831   5.927   6.428   0.472 -0.1806 -0.0126  0.5184
 2623TIP3   OH2 7832   0.321   1.284   4.343 -0.0093 -0.3575 -0.1899
 2623TIP3    H1 7833   0.326   1.206   4.398  0.6078 -0.2040 -0.0147
 2623TIP3    H2 7834   0.388   1.270   4.275  0.2058  0.0749 -0.0729
 2624TIP3   OH2 7835   1.353   0.621   1.921  0.2274 -0.6527 -0.1215
 2624TIP3    H1 7836   1.428   0.569   1.950  0.2185 -1.0087 -0.7296
 2624TIP3    H2 7837   1.287   0.608   1.988  1.3894  1.2961  1.5531
 2625TIP3   OH2 7838   1.729   3.776   1.081 -0.3699 -0.0118 -0.2096
 2625TIP3    H1 7839   1.685   3.717   1.020  0.3965 -1.0328  0.1951
 2625TIP3    H2 7840   1.822   3.769   1.059 -0.2313  0.7480  0.1005
 2626TIP3   OH2 7841   2.015   1.451   2.412 -0.3760 -0.2224  0.0115
 2626TIP3    H1 7842   2.058   1.394   2.348 -0.2806 -0.9971  0.7451
 2626TIP3    H2 7843   1.929   1.411   2.426 -1.6635  1.6436 -1.8994
 2627TIP3   OH2 7844   4.605   1.509   2.301  0.4177  0.3063  0.1243
 2627TIP3    H1 7845   4.547   1.476   2.232  0.1811 -0.2805  0.5914
 2627TIP3    H2 7846   4.673   1.441   2.309 -0.3474 -0.3521  1.4433
 2628TIP3   OH2 7847   7.109   0.730   3.786 -0.1206 -0.2835  0.0831
 2628TIP3    H1 7848   7.146   0.765   3.705  0.7373 -0.1783  0.5120
 2628TIP3    H2 7849   7.092   0.808   3.840 -0.1790 -0.3919  0.2212
 2629TIP3   OH2 7850   2.160   0.631   1.161 -0.2859 -0.2482  0.0209
 2629TIP3    H1 7851   2.231   0.672   1.211  1.4486  1.2380 -3.3543
 2629TIP3    H2 7852   2.194   0.545   1.138 -0.6704 -0.5305  0.4772
 2630TIP3   OH2 7853   5.090   2.568   1.096  0.0671  0.2910  0.5015
 2630TIP3    H1 7854   5.057   2.515   1.023  0.2480 -0.3110  0.8529
 2630TIP3    H2 7855   5.014   2.621   1.122 -0.8977 -1.6209  1.7959
 2631TIP3   OH2 7856   3.679   0.992   3.372 -0.5004  0.2397 -0.1501
 2631TIP3    H1 7857   3.591   1.028   3.386 -0.6014  0.1395 -0.4963
 2631TIP3    H2 7858   3.686   0.919   3.434 -0.5160  0.4873  0.1443
 2632TIP3   OH2 7859   3.284   3.529   4.543  0.1081 -0.1829  0.3863
 2632TIP3    H1 7860   3.351   3.504   4.480 -0.3602  2.8270 -1.5106
 2632TIP3    H2 7861   3.297   3.471   4.617  3.9482 -0.5943 -0.4496
 2633TIP3   OH2 7862   3.022   4.692   1.372 -0.5075  0.4233  0.4702
 2633TIP3    H1 7863   3.022   4.671   1.279 -0.2648 -0.2202  0.6127
 2633TIP3    H2 7864   2.937   4.734   1.387 -1.6545 -1.7380  0.4584
 2634TIP3   OH2 7865   6.422   0.397   3.291 -0.2225  0.1637  0.5003
 2634TIP3    H1 7866   6.463   0.449   3.222 -0.3992  1.7697  1.5558
 2634TIP3    H2 7867   6.331   0.386   3.262  0.4847 -2.2126 -1.1674
 2635TIP3   OH2 7868   2.361   1.317   1.214  0.1608 -0.0301 -0.3081
 2635TIP3    H1 7869   2.384   1.251   1.149 -1.1752 -0.0464 -0.8114
 2635TIP3    H2 7870   2.444   1.356   1.240  0.7318  0.0487 -2.1295
 2636TIP3   OH2 7871   1.864   1.618   0.923  0.1503  0.1637  0.3391
 2636TIP3    H1 7872   1.939   1.634   0.867 -0.6113 -2.3311 -1.5860
 2636TIP3    H2 7873   1.876   1.528   0.954 -0.8618  0.5371  1.9512
 2637TIP3   OH2 7874   0.202   3.100   4.449  0.1186 -0.3848  0.1161
 2637TIP3    H1 7875   0.150   3.181   4.448 -0.2778 -0.6260 -0.9370
 2637TIP3    H2 7876   0.181   3.059   4.533 -0.0899  0.3408  0.4277
 2638TIP3   OH2 7877   4.217   1.866   5.087 -0.0924  0.0641  0.0314
 2638TIP3    H1 7878   4.224   1.932   5.018 -0.5648  0.8998  0.7566
 2638TIP3    H2 7879   4.200   1.784   5.040  0.2830  0.4907 -0.8772
 2639TIP3   OH2 7880   0.185   3.928   2.060 -0.4512 -0.3064  0.2616
 2639TIP3    H1 7881   0.134   3.925   2.141 -1.3578  0.3868 -0.2481
 2639TIP3    H2 7882   0.168   3.844   2.018  0.2712 -0.7897  0.9297
 2640TIP3   OH2 7883   5.362   5.538   2.017  0.0828 -0.1658  0.1951
 2640TIP3    H1 7884   5.388   5.501   1.932  2.0907 -0.3849  0.8469
 2640TIP3    H2 7885   5.329   5.463   2.066  0.8737 -0.4492  0.3098
 2641TIP3   OH2 7886   1.753   0.788   2.497  0.2587  0.0403 -0.2352
 2641TIP3    H1 7887   1.743   0.771   2.403  1.3278 -1.6048 -0.0978
 2641TIP3    H2 7888   1.827   0.849   2.502  0.7326 -0.5160 -0.4230
 2642TIP3   OH2 7889   3.063   5.050   4.357  0.0743 -0.2226  0.8834
 2642TIP3    H1 7890   2.988   4.994   4.381  0.2065 -0.1637  1.4641
 2642TIP3    H2 7891   3.134   5.020   4.415  0.6008 -0.4985  0.1076
 2643TIP3   OH2 7892   3.692   1.434   3.827  0.0504 -0.3415  0.1193
 2643TIP3    H1 7893   3.653   1.370   3.886  0.8354 -1.3315 -0.4238
 2643TIP3    H2 7894   3.749   1.384   3.769  1.0531  0.8983 -0.0198
 2644TIP3   OH2 7895   5.088   5.091   3.461 -0.2906 -0.3850 -0.4801
 2644TIP3    H1 7896   5.031   5.022   3.427  0.0557 -0.5876 -0.6654
 2644TIP3    H2 7897   5.170   5.045   3.482  0.3171  0.1374 -1.6147
 2645TIP3   OH2 7898   1.280   2.795   3.955  0.0218  0.0466 -0.1687
 2645TIP3    H1 7899   1.232   2.879   3.957  0.6285  0.4259 -0.9779
 2645TIP3    H2 7900   1.372   2.820   3.964  0.1893 -0.5448 -0.2350
 2646TIP3   OH2 7901   3.594   3.386   4.879  0.0966 -0.3053  0.0837
 2646TIP3    H1 7902   3.655   3.458   4.867 -0.8956  0.6470  0.6257
 2646TIP3    H2 7903   3.623   3.343   4.959  0.8767 -0.7238 -0.4068
 2647TIP3   OH2 7904   7.032   4.771   4.073 -1.1293  0.2635 -0.2830
 2647TIP3    H1 7905   7.124   4.786   4.097 -1.2228  0.2355  0.0894
 2647TIP3    H2 7906   6.991   4.738   4.153 -1.6496  1.0353 -0.2242
 2648TIP3   OH2 7907   0.546   3.225   1.623  0.5575  0.5125 -0.1032
 2648TIP3    H1 7908   0.503   3.237   1.538  0.3028  1.2374  0.1219
 2648TIP3    H2 7909   0.597   3.145   1.613 -1.0931 -0.5777 -0.2816
 2649TIP3   OH2 7910   1.062   5.250   3.664  0.5522  0.1264 -0.5076
 2649TIP3    H1 7911   1.062   5.232   3.758 -0.6409  0.3263 -0.4569
 2649TIP3    H2 7912   1.074   5.344   3.658 -1.7821  0.4849 -0.4307
 2650TIP3   OH2 7913   3.516   2.950   3.354  0.2027  0.0858 -0.7157
 2650TIP3    H1 7914   3.475   3.015   3.412 -0.1698 -0.1437 -0.7200
 2650TIP3    H2 7915   3.504   2.867   3.400  0.9738  0.0562 -0.5510
 2651TIP3   OH2 7916   2.745   1.131   5.171 -0.3490  0.1278  0.4185
 2651TIP3    H1 7917   2.720   1.220   5.196  0.6277  1.2069 -2.1198
 2651TIP3    H2 7918   2.757   1.135   5.076  0.4376 -2.5478  0.3260
 2652TIP3   OH2 7919   2.020   6.271   4.775  0.4363  0.8569  0.1765
 2652TIP3    H1 7920   2.093   6.333   4.778  0.3144  0.9950  0.3175
 2652TIP3    H2 7921   2.042   6.211   4.704  2.5320 -1.3831  2.5164
 2653TIP3   OH2 7922   7.117   3.721   0.932  0.0965 -0.3838 -0.2383
 2653TIP3    H1 7923   7.098   3.724   0.838  0.2024  1.3874 -0.2417
 2653TIP3    H2 7924   7.136   3.629   0.950 -0.3639 -0.8261 -1.8599
 2654TIP3   OH2 7925   0.233   2.087   0.297  0.1398  0.2428 -0.3247
 2654TIP3    H1 7926   0.252   2.036   0.375 -0.4469  1.1445  0.4257
 2654TIP3    H2 7927   0.263   2.032   0.224 -1.3021 -1.5709  0.3897
 2655TIP3   OH2 7928   1.607   4.388   4.533  0.4885  0.0927 -0.4928
 2655TIP3    H1 7929   1.649   4.374   4.618 -0.1214  1.9512  0.1517
 2655TIP3    H2 7930   1.521   4.423   4.554  0.1497  0.1348 -1.8808
 2656TIP3   OH2 7931   4.057   0.689   4.593  0.7174 -0.2342  0.4012
 2656TIP3    H1 7932   4.000   0.638   4.651 -2.2457  0.4035 -1.7393
 2656TIP3    H2 7933   4.091   0.624   4.531 -0.4311 -0.1566 -0.3392
 2657TIP3   OH2 7934   7.104   5.514   3.630 -0.1818 -0.3686 -0.5909
 2657TIP3    H1 7935   7.022   5.470   3.606  0.9953 -1.8861 -1.9890
 2657TIP3    H2 7936   7.078   5.606   3.640 -2.2794 -0.9734  0.2133
 2658TIP3   OH2 7937   3.511   6.604   1.064  0.6553 -0.5374 -0.2243
 2658TIP3    H1 7938   3.591   6.628   1.110  0.5675 -0.0606 -0.3127
 2658TIP3    H2 7939   3.517   6.509   1.052  0.4036 -0.7791  1.3093
 2659TIP3   OH2 7940   3.993   6.303   5.538 -0.5048  0.3761 -0.1061
 2659TIP3    H1 7941   3.905   6.270   5.518 -0.8639  2.4005 -2.3235
 2659TIP3    H2 7942   4.042   6.292   5.457  1.1495 -0.1890  0.9283
 2660TIP3   OH2 7943   3.586   4.080   3.507 -0.3975  0.1992 -0.1858
 2660TIP3    H1 7944   3.509   4.132   3.486 -0.2965  0.6132  0.4228
 2660TIP3    H2 7945   3.552   4.004   3.554 -0.3778  0.9485  1.1166
 2661TIP3   OH2 7946   4.524   4.301   5.553 -0.3800 -0.9233  0.4917
 2661TIP3    H1 7947   4.513   4.394   5.569  0.3596 -0.6942 -0.2589
 2661TIP3    H2 7948   4.615   4.292   5.524 -0.7679 -1.7070 -0.5510
 2662TIP3   OH2 7949   5.005   4.440   2.773  0.0129  0.2338 -1.1173
 2662TIP3    H1 7950   5.062   4.471   2.703 -0.8705  5.0603 -0.0317
 2662TIP3    H2 7951   5.060   4.439   2.851  0.1652 -1.8251 -1.2024
 2663TIP3   OH2 7952   2.999   3.832   5.641  0.2385 -0.5555 -0.1480
 2663TIP3    H1 7953   3.041   3.898   5.695 -1.8266 -0.1532  1.0966
 2663TIP3    H2 7954   2.992   3.755   5.698 -1.5526 -0.2764  0.0797
 2664TIP3   OH2 7955   4.743   5.894   5.020 -0.2393 -0.0460 -0.4205
 2664TIP3    H1 7956   4.838   5.897   5.010 -0.2894 -0.1846 -1.0131
 2664TIP3    H2 7957   4.711   5.863   4.935 -0.8333  0.3214 -0.3400
 2665TIP3   OH2 7958   2.964   1.972   1.755  0.0078  0.3168 -0.1972
 2665TIP3    H1 7959   2.928   1.894   1.713 -0.0866  0.6249 -0.7037
 2665TIP3    H2 7960   2.999   1.941   1.838 -1.8400  0.0917  0.5390
 2666TIP3   OH2 7961   0.157   6.636   5.437 -0.2292  0.2164  0.3869
 2666TIP3    H1 7962   0.071   6.617   5.400 -0.3551  0.1470  0.7173
 2666TIP3    H2 7963   0.219   6.597   5.375 -0.3878  1.3348 -0.5077
 2667TIP3   OH2 7964   2.652   3.696   1.486  0.3010 -0.3176 -0.5709
 2667TIP3    H1 7965   2.665   3.718   1.578  2.5799 -0.7916 -0.7202
 2667TIP3    H2 7966   2.726   3.737   1.441 -1.1480  0.5390 -2.3438
 2668TIP3   OH2 7967   7.079   6.042   0.808  0.0014 -0.3240 -0.0930
 2668TIP3    H1 7968   7.173   6.036   0.790 -0.0644  1.7167 -1.4036
 2668TIP3    H2 7969   7.072   6.112   0.872 -0.7177  0.7616 -1.3117
 2669TIP3   OH2 7970   1.988   4.074   3.709 -0.3766  0.0212  0.6924
 2669TIP3    H1 7971   1.911   4.065   3.652 -1.1728  0.8754  1.5763
 2669TIP3    H2 7972   1.973   4.157   3.755  1.6256  0.7647  0.1018
 2670TIP3   OH2 7973   6.811   6.793   2.001  0.6439  0.2367 -0.5810
 2670TIP3    H1 7974   6.808   6.708   1.957 -1.4951  0.0157 -0.1266
 2670TIP3    H2 7975   6.800   6.773   2.094  1.2513  0.9571 -0.3365
 2671TIP3   OH2 7976   0.577   2.364   3.190 -0.1156  0.3702  0.2177
 2671TIP3    H1 7977   0.537   2.314   3.262  0.1968  1.6020  1.3022
 2671TIP3    H2 7978   0.641   2.421   3.234  0.1182  1.1144 -1.0530
 2672TIP3   OH2 7979   1.604   6.368   1.328 -0.4321 -0.3065 -0.3970
 2672TIP3    H1 7980   1.516   6.339   1.350 -0.6291 -1.4514 -2.3974
 2672TIP3    H2 7981   1.593   6.418   1.247  0.2989  2.9937  1.3685
 2673TIP3   OH2 7982   5.591   3.738   3.782 -0.2617 -0.2639 -0.0359
 2673TIP3    H1 7983   5.581   3.643   3.785 -0.2985 -0.2549  0.1282
 2673TIP3    H2 7984   5.543   3.770   3.858 -1.1880 -0.0265 -0.7018
 2674TIP3   OH2 7985   4.743   2.482   0.235 -0.2415 -0.0750 -0.0573
 2674TIP3    H1 7986   4.654   2.501   0.266  0.1794  2.0636 -0.0177
 2674TIP3    H2 7987   4.780   2.567   0.214  1.5459 -0.9883 -0.8594
 2675TIP3   OH2 7988   5.219   5.029   4.256 -0.5636  0.3814 -0.1411
 2675TIP3    H1 7989   5.208   4.941   4.291  0.4510  0.2846 -0.0444
 2675TIP3    H2 7990   5.230   5.085   4.333  1.1829  0.2353 -0.2468
 2676TIP3   OH2 7991   1.753   1.581   5.315 -0.3035  0.3508 -0.3400
 2676TIP3    H1 7992   1.725   1.541   5.398  0.7001 -0.6535 -0.4733
 2676TIP3    H2 7993   1.791   1.509   5.265  1.8624  1.4954 -0.4505
 2677TIP3   OH2 7994   6.878   4.941   3.691 -0.1139 -0.4999 -0.6622
 2677TIP3    H1 7995   6.965   4.901   3.678  0.5232  0.2750  1.0321
 2677TIP3    H2 7996   6.839   4.890   3.762  0.1231  0.9073  0.5233
 2678TIP3   OH2 7997   2.727   1.784   1.904 -0.6425  0.0137  0.3530
 2678TIP3    H1 7998   2.702   1.814   1.992  0.2908  0.4651  0.4742
 2678TIP3    H2 7999   2.822   1.772   1.908 -0.8405 -1.9304 -0.0218
 2679TIP3   OH2 8000   5.502   4.993   2.238  0.1143  0.4399 -0.9606
 2679TIP3    H1 8001   5.546   5.077   2.256  2.1233 -1.1876  2.8375
 2679TIP3    H2 8002   5.422   4.997   2.289  1.2772 -0.6779  1.0499
 2680TIP3   OH2 8003   1.550   4.433   5.191 -0.1652  0.0084 -0.0095
 2680TIP3    H1 8004   1.568   4.502   5.127 -2.1129 -0.0459 -0.6780
 2680TIP3    H2 8005   1.455   4.428   5.195 -0.0927 -2.3192  0.3733
 2681TIP3   OH2 8006   6.759   2.366   4.042 -0.2316  0.2630  0.1746
 2681TIP3    H1 8007   6.735   2.327   3.959 -0.4899  2.7940 -1.0312
 2681TIP3    H2 8008   6.847   2.332   4.060 -0.1957 -0.3658 -1.1038
 2682TIP3   OH2 8009   6.054   3.001   5.487 -0.0600  0.1376  0.1780
 2682TIP3    H1 8010   6.037   2.981   5.395  1.3274 -1.8745  0.2858
 2682TIP3    H2 8011   5.975   3.047   5.517 -1.1079 -0.3572 -1.6579
 2683TIP3   OH2 8012   3.772   6.747   2.736  0.5216 -0.1011 -0.1085
 2683TIP3    H1 8013   3.738   6.791   2.658  3.0597  1.3200 -0.5132
 2683TIP3    H2 8014   3.694   6.729   2.789 -0.8728  3.4396 -0.6878
 2684TIP3   OH2 8015   5.128   1.720   5.129 -0.0124  0.5847  0.5864
 2684TIP3    H1 8016   5.117   1.814   5.112 -0.0839  0.5289  0.3146
 2684TIP3    H2 8017   5.201   1.694   5.073 -0.4430  0.3351  0.1329
 2685TIP3   OH2 8018   5.763   2.713   3.825 -0.1173 -0.3611 -0.8327
 2685TIP3    H1 8019   5.719   2.794   3.800  0.5208  0.3609  0.2635
 2685TIP3    H2 8020   5.695   2.657   3.861 -0.7568 -0.7759 -2.5782
 2686TIP3   OH2 8021   4.531   5.237   1.079 -0.3556  0.4951 -0.0161
 2686TIP3    H1 8022   4.466   5.278   1.023  1.3641 -0.1176 -2.6412
 2686TIP3    H2 8023   4.605   5.218   1.021  1.0279 -1.4799  2.1814
 2687TIP3   OH2 8024   7.148   3.014   4.374  0.5086  0.0699  0.2937
 2687TIP3    H1 8025   7.172   2.989   4.464  0.0377  0.2479  0.4712
 2687TIP3    H2 8026   7.077   2.954   4.351  2.3562 -1.7652 -0.9441
 2688TIP3   OH2 8027   0.985   2.144   3.666  0.7989  0.0050 -0.1230
 2688TIP3    H1 8028   0.892   2.160   3.683  0.7412 -1.8798  1.7340
 2688TIP3    H2 8029   1.024   2.231   3.663 -0.9362  0.8152 -0.3781
 2689TIP3   OH2 8030   0.374   0.633   5.714 -0.0852 -0.1379  0.2007
 2689TIP3    H1 8031   0.382   0.557   5.656  0.8326 -0.6945  1.0426
 2689TIP3    H2 8032   0.328   0.600   5.791 -0.6253  0.4226  0.1273
 2690TIP3   OH2 8033   6.217   3.869   2.424 -0.2990 -0.2937 -0.6462
 2690TIP3    H1 8034   6.130   3.871   2.383 -0.4575 -0.4221 -0.3254
 2690TIP3    H2 8035   6.269   3.812   2.368 -0.9889 -1.8702  0.2400
 2691TIP3   OH2 8036   5.767   3.016   5.893 -0.0914  0.0328 -0.3691
 2691TIP3    H1 8037   5.820   2.938   5.907  0.0990  0.1874 -0.2257
 2691TIP3    H2 8038   5.715   2.996   5.815 -1.9373 -1.2540  1.0961
 2692TIP3   OH2 8039   3.457   3.899   0.307 -0.0093  0.8185  0.4191
 2692TIP3    H1 8040   3.432   3.816   0.266  3.4565 -0.4485  0.5658
 2692TIP3    H2 8041   3.449   3.882   0.401 -0.1367  0.9656  0.4355
 2693TIP3   OH2 8042   0.940   4.142   4.909  0.0320 -0.3264 -0.2094
 2693TIP3    H1 8043   0.924   4.196   4.831 -0.9056 -0.3546 -0.0524
 2693TIP3    H2 8044   0.938   4.205   4.982  0.2098 -0.3975 -0.1436
 2694TIP3   OH2 8045   0.332   3.946   0.966 -0.8105  0.3132 -0.4402
 2694TIP3    H1 8046   0.350   3.853   0.981 -2.3678 -0.0949 -0.8630
 2694TIP3    H2 8047   0.354   3.988   1.049 -2.1520 -0.7768  0.5171
 2695TIP3   OH2 8048   5.826   3.269   1.254 -0.3442  0.3985 -0.5661
 2695TIP3    H1 8049   5.800   3.346   1.306 -0.5127  0.3239 -0.5408
 2695TIP3    H2 8050   5.845   3.202   1.320 -0.6411  0.2773 -0.6029
 2696TIP3   OH2 8051   5.309   2.418   1.747  0.3213  0.8098 -0.2122
 2696TIP3    H1 8052   5.278   2.488   1.691 -0.2168  1.0393  0.3539
 2696TIP3    H2 8053   5.403   2.434   1.756 -0.1013  2.8038  1.6828
 2697TIP3   OH2 8054   0.328   4.858   5.239  0.4018  0.3952  0.0966
 2697TIP3    H1 8055   0.300   4.798   5.170 -2.0595  0.8264  0.6427
 2697TIP3    H2 8056   0.413   4.824   5.267  0.3134 -1.2276 -1.4485
 2698TIP3   OH2 8057   0.086   2.115   1.334 -0.0433  0.6069 -0.6685
 2698TIP3    H1 8058   0.175   2.109   1.301  0.3146  2.7867 -0.2204
 2698TIP3    H2 8059   0.052   2.197   1.298 -0.4600  1.8589  2.3143
 2699TIP3   OH2 8060   6.104   3.633   4.171  0.1956  0.1759  0.3520
 2699TIP3    H1 8061   6.154   3.636   4.253 -0.8755  0.7763  1.0061
 2699TIP3    H2 8062   6.053   3.714   4.171 -0.7875 -0.4210 -0.2879
 2700TIP3   OH2 8063   3.936   0.052   3.077  0.1473 -0.3235  0.3372
 2700TIP3    H1 8064   4.029   0.064   3.097  0.4135 -1.0128 -0.4205
 2700TIP3    H2 8065   3.916   0.121   3.014  0.2346 -0.3753  0.2516
 2701TIP3   OH2 8066   4.378   2.746   2.062  0.4945 -0.2556 -0.1806
 2701TIP3    H1 8067   4.396   2.833   2.026  0.2304 -0.2296 -0.2562
 2701TIP3    H2 8068   4.307   2.761   2.125  0.1815 -0.4737 -0.4752
 2702TIP3   OH2 8069   3.161   0.565   4.371  0.0824 -0.4636 -0.1566
 2702TIP3    H1 8070   3.199   0.578   4.284  0.1912  4.0818  0.3533
 2702TIP3    H2 8071   3.235   0.533   4.424  0.7304 -0.6531 -1.1491
 2703TIP3   OH2 8072   6.577   4.350   3.109  0.0370 -0.2527  0.0841
 2703TIP3    H1 8073   6.639   4.281   3.134 -1.6182 -1.5308  0.9042
 2703TIP3    H2 8074   6.552   4.391   3.191 -0.8966 -0.4073 -0.1088
 2704TIP3   OH2 8075   1.443   3.564   3.064  0.0291  0.0046  0.3965
 2704TIP3    H1 8076   1.405   3.651   3.071 -0.2011 -0.2109  2.5706
 2704TIP3    H2 8077   1.537   3.577   3.081  0.1838 -0.0521 -0.3656
 2705TIP3   OH2 8078   1.760   0.678   4.020 -0.5014 -0.2696 -0.7342
 2705TIP3    H1 8079   1.829   0.729   4.061  0.4115 -2.0158 -0.0299
 2705TIP3    H2 8080   1.679   0.724   4.044  0.2221  0.3768  0.5682
 2706TIP3   OH2 8081   1.202   1.674   0.572  0.2881 -0.2168 -0.2692
 2706TIP3    H1 8082   1.191   1.616   0.648 -0.0173 -1.6875 -1.3900
 2706TIP3    H2 8083   1.294   1.662   0.547  0.3128  0.0528 -0.3115
 2707TIP3   OH2 8084   1.196   3.118   5.204  0.3284  0.0693 -0.7164
 2707TIP3    H1 8085   1.260   3.125   5.134  1.5942 -0.9792  0.3014
 2707TIP3    H2 8086   1.156   3.032   5.192  0.9377 -0.3468  0.1419
 2708TIP3   OH2 8087   3.167   4.377   5.800 -0.0073  0.1924 -0.1347
 2708TIP3    H1 8088   3.166   4.472   5.811  2.9192  0.1222  1.7575
 2708TIP3    H2 8089   3.227   4.362   5.726  0.7438 -0.2001  0.5409
 2709TIP3   OH2 8090   3.306   4.925   3.458  0.1213  0.3214 -0.1355
 2709TIP3    H1 8091   3.334   4.865   3.526 -0.3220  0.6364  0.3298
 2709TIP3    H2 8092   3.366   4.999   3.465  0.0452  0.3759 -0.0480
 2710TIP3   OH2 8093   3.442   5.718   3.665 -0.0126 -0.2715  0.6789
 2710TIP3    H1 8094   3.519   5.758   3.624 -0.3782 -0.3883 -0.1226
 2710TIP3    H2 8095   3.436   5.762   3.750  0.5345  0.2287  0.4689
 2711TIP3   OH2 8096   0.821   2.360   4.786 -0.5495  0.2345  0.4453
 2711TIP3    H1 8097   0.748   2.319   4.740 -0.0573  1.3492 -1.4878
 2711TIP3    H2 8098   0.850   2.296   4.850 -0.0375 -2.3400 -2.1514
 2712TIP3   OH2 8099   5.608   4.140   5.024 -0.2648 -0.3109 -0.3100
 2712TIP3    H1 8100   5.588   4.124   5.116  0.5520  1.9095  0.3390
 2712TIP3    H2 8101   5.633   4.233   5.021  3.5633 -1.1918 -2.0591
 2713TIP3   OH2 8102   0.214   6.360   2.629  0.1849 -0.7654 -0.1190
 2713TIP3    H1 8103   0.269   6.283   2.617 -0.6822 -1.7091  1.6466
 2713TIP3    H2 8104   0.162   6.341   2.707 -0.5994  1.2925 -0.0777
 2714TIP3   OH2 8105   0.960   0.992   0.362 -0.0274 -0.1131 -0.3718
 2714TIP3    H1 8106   0.970   1.081   0.329 -0.7977  0.5196  1.0101
 2714TIP3    H2 8107   0.942   0.939   0.284  1.7933  0.6816 -1.3825
 2715TIP3   OH2 8108   0.828   3.909   1.049  0.1813  0.0950 -0.5680
 2715TIP3    H1 8109   0.800   3.896   1.139 -4.3335 -1.0282 -1.8697
 2715TIP3    H2 8110   0.814   4.003   1.033  0.1940  0.1320 -0.3682
 2716TIP3   OH2 8111   4.683   2.897   5.086  0.4525 -0.3028  0.4074
 2716TIP3    H1 8112   4.764   2.889   5.037  0.1798  0.3129 -0.1564
 2716TIP3    H2 8113   4.665   2.808   5.119 -0.3481 -1.1848 -2.1764
 2717TIP3   OH2 8114   1.066   5.778   2.156  0.2112  0.3370 -0.6960
 2717TIP3    H1 8115   1.101   5.713   2.095 -0.9618 -0.3662 -0.6620
 2717TIP3    H2 8116   0.972   5.780   2.137 -0.3980 -0.6966  1.7709
 2718TIP3   OH2 8117   7.085   3.344   3.647  0.2405 -0.1600 -0.7129
 2718TIP3    H1 8118   7.150   3.374   3.584  0.1659  0.7848 -0.3493
 2718TIP3    H2 8119   7.013   3.312   3.593  0.5813 -0.2792 -1.1052
 2719TIP3   OH2 8120   5.142   6.041   1.583 -0.6347  0.5732  0.3797
 2719TIP3    H1 8121   5.053   6.072   1.600 -0.4037  0.7099  1.4047
 2719TIP3    H2 8122   5.186   6.115   1.542 -1.1704  0.2843 -0.7441
 2720TIP3   OH2 8123   5.475   5.251   3.511 -0.5037 -0.4610  0.2746
 2720TIP3    H1 8124   5.520   5.207   3.440 -0.4334  1.5572 -0.9945
 2720TIP3    H2 8125   5.545   5.288   3.565 -0.5697 -1.5342  1.1243
 2721TIP3   OH2 8126   7.047   3.001   5.623  0.0348  0.2088  0.8047
 2721TIP3    H1 8127   7.061   2.934   5.690  0.0708  0.7065  1.3024
 2721TIP3    H2 8128   7.135   3.026   5.595  0.0170 -0.0936  0.4734
 2722TIP3   OH2 8129   4.729   2.237   0.889  0.2930  0.0566 -0.0717
 2722TIP3    H1 8130   4.686   2.318   0.916 -1.0171  0.0305 -1.8723
 2722TIP3    H2 8131   4.673   2.167   0.922 -0.1850 -0.0217 -1.0249
 2723TIP3   OH2 8132   2.601   3.859   2.057 -0.6650 -0.1781  0.3293
 2723TIP3    H1 8133   2.612   3.764   2.064  0.6021 -0.0616  0.1600
 2723TIP3    H2 8134   2.683   3.895   2.091 -0.9107  0.8413 -0.1139
 2724TIP3   OH2 8135   4.196   2.151   5.705 -0.3145 -0.3249  0.6622
 2724TIP3    H1 8136   4.122   2.195   5.748 -0.6420 -0.9748  0.7778
 2724TIP3    H2 8137   4.242   2.106   5.776  0.4894  0.4706  0.6661
 2725TIP3   OH2 8138   2.840   0.139   0.885  0.1876 -0.4187 -0.2223
 2725TIP3    H1 8139   2.840   0.235   0.888  0.0001 -0.4171 -0.2662
 2725TIP3    H2 8140   2.880   0.117   0.801 -1.1282 -0.3543 -0.8993
 2726TIP3   OH2 8141   3.496   3.935   2.151  0.2788 -0.0974 -0.5915
 2726TIP3    H1 8142   3.559   3.912   2.082  1.8909  1.6679  0.2018
 2726TIP3    H2 8143   3.527   3.886   2.228 -1.9948 -2.7194 -1.2005
 2727TIP3   OH2 8144   5.698   3.467   1.399  0.4684 -0.0563 -0.0303
 2727TIP3    H1 8145   5.616   3.419   1.411 -0.5005  1.7496  1.0725
 2727TIP3    H2 8146   5.739   3.466   1.485  1.5384 -0.7776 -0.5298
 2728TIP3   OH2 8147   3.012   6.822   4.937 -0.1906  0.2426  0.7130
 2728TIP3    H1 8148   3.004   6.732   4.968 -0.4384 -0.5365 -1.4512
 2728TIP3    H2 8149   3.083   6.820   4.873 -2.0870  0.8938 -1.5360
 2729TIP3   OH2 8150   6.981   4.687   3.425  0.0012  0.4367 -0.0286
 2729TIP3    H1 8151   7.034   4.644   3.358  2.0159  1.7766  0.6226
 2729TIP3    H2 8152   6.913   4.732   3.375 -0.6434 -1.3557 -0.8798
 2730TIP3   OH2 8153   4.878   4.880   3.388 -0.2487 -0.0272 -0.0849
 2730TIP3    H1 8154   4.795   4.919   3.414  0.2945  0.7815  0.4800
 2730TIP3    H2 8155   4.870   4.868   3.293 -1.9971 -2.4188  0.2921
 2731TIP3   OH2 8156   0.859   3.617   3.602 -0.3094 -0.1166 -0.2648
 2731TIP3    H1 8157   0.773   3.653   3.623 -0.0401  0.1119  0.4843
 2731TIP3    H2 8158   0.873   3.640   3.510 -0.5519  0.8578 -0.0667
 2732TIP3   OH2 8159   6.041   2.637   3.840  0.4577 -0.7597  0.0603
 2732TIP3    H1 8160   6.047   2.732   3.834  0.6945 -0.7670  0.1439
 2732TIP3    H2 8161   5.949   2.617   3.825  0.8217 -0.7242 -2.7387
 2733TIP3   OH2 8162   5.511   4.543   5.138  0.0864  0.3281 -0.1299
 2733TIP3    H1 8163   5.554   4.616   5.093  2.6607 -0.3128  1.0755
 2733TIP3    H2 8164   5.528   4.467   5.083 -0.1023  0.1787  0.0165
 2734TIP3   OH2 8165   0.313   3.920   5.360 -0.0016 -0.0127 -0.8850
 2734TIP3    H1 8166   0.327   3.825   5.360  1.7130  0.2033 -0.8096
 2734TIP3    H2 8167   0.219   3.930   5.353 -0.4171 -1.7533  0.9927
 2735TIP3   OH2 8168   6.934   1.268   3.673 -0.2223 -0.0079  0.2412
 2735TIP3    H1 8169   6.997   1.301   3.736 -0.2681  0.6005 -0.0254
 2735TIP3    H2 8170   6.944   1.324   3.597 -0.2755 -0.6431 -0.2366
 2736TIP3   OH2 8171   2.992   4.240   4.516 -0.2176 -0.1029  0.3900
 2736TIP3    H1 8172   3.031   4.174   4.573 -0.2390 -0.2566  0.2288
 2736TIP3    H2 8173   2.904   4.207   4.498 -0.0757 -0.2562 -0.0498
 2737TIP3   OH2 8174   2.401   1.894   1.588 -0.2692  0.1473 -0.0939
 2737TIP3    H1 8175   2.481   1.900   1.641  0.0060 -2.5616 -0.0228
 2737TIP3    H2 8176   2.432   1.882   1.498 -0.6836  1.6871 -0.4644
 2738TIP3   OH2 8177   1.634   5.731   4.329  0.7985 -0.3511 -0.3161
 2738TIP3    H1 8178   1.577   5.680   4.387  0.0504 -1.2762 -1.8193
 2738TIP3    H2 8179   1.593   5.725   4.243  1.9575  0.8779 -0.9903
 2739TIP3   OH2 8180   5.695   0.415   1.100  0.2560  0.2426  0.2226
 2739TIP3    H1 8181   5.775   0.365   1.084  0.7214  1.2897 -0.8954
 2739TIP3    H2 8182   5.632   0.379   1.037  0.0888 -0.0271  0.5404
 2740TIP3   OH2 8183   0.447   1.735   5.057  0.7500 -0.0610  0.6563
 2740TIP3    H1 8184   0.514   1.782   5.107 -0.4778  0.5494  1.8035
 2740TIP3    H2 8185   0.409   1.673   5.120  0.4071 -0.5672 -0.0347
 2741TIP3   OH2 8186   1.625   1.938   5.040 -0.0610 -0.3160 -0.0059
 2741TIP3    H1 8187   1.546   1.989   5.023  0.8589  1.9637  1.9401
 2741TIP3    H2 8188   1.673   1.940   4.958  0.1475  2.4774  0.1109
 2742TIP3   OH2 8189   6.218   1.888   1.703 -0.4411 -1.0842 -0.1241
 2742TIP3    H1 8190   6.177   1.963   1.747 -1.7727 -1.3803 -0.8008
 2742TIP3    H2 8191   6.217   1.819   1.769  0.0074 -0.7710  0.2218
 2743TIP3   OH2 8192   0.346   3.887   0.267 -0.6234  0.3934 -0.2526
 2743TIP3    H1 8193   0.351   3.968   0.317  3.1860  0.0926  0.1525
 2743TIP3    H2 8194   0.334   3.915   0.176  1.5566  1.6102 -0.2557
 2744TIP3   OH2 8195   1.628   5.752   4.708 -0.1767 -0.9667 -0.2313
 2744TIP3    H1 8196   1.675   5.830   4.738  0.4705 -1.0235 -1.0620
 2744TIP3    H2 8197   1.554   5.787   4.658  1.4929 -0.7838 -2.8074
 2745TIP3   OH2 8198   3.495   0.943   1.599 -0.2916 -0.3826  0.3420
 2745TIP3    H1 8199   3.564   0.877   1.596 -1.0043 -1.1681  0.6293
 2745TIP3    H2 8200   3.419   0.896   1.634 -0.7900  0.6202  0.6543
 2746TIP3   OH2 8201   3.706   5.626   3.461 -0.0083 -0.1228 -0.3544
 2746TIP3    H1 8202   3.718   5.691   3.531  2.3131 -0.8969  0.0416
 2746TIP3    H2 8203   3.762   5.657   3.390 -1.9711  0.3901 -1.7647
 2747TIP3   OH2 8204   1.125   1.112   2.460  0.7303 -0.3534 -0.6218
 2747TIP3    H1 8205   1.045   1.060   2.471 -0.2897  1.5872  2.8206
 2747TIP3    H2 8206   1.104   1.174   2.391 -0.3265 -0.6321 -0.5650
 2748TIP3   OH2 8207   3.937   3.509   3.833 -0.2952 -0.0812 -0.1007
 2748TIP3    H1 8208   3.915   3.416   3.830  0.6410 -0.2873 -2.3981
 2748TIP3    H2 8209   4.033   3.511   3.829 -0.2737  0.9994  0.5470
 2749TIP3   OH2 8210   0.767   4.476   5.505  0.0072 -0.3731 -0.0873
 2749TIP3    H1 8211   0.690   4.420   5.499 -1.3334  1.5124 -2.0376
 2749TIP3    H2 8212   0.763   4.514   5.593 -1.0360 -0.6522 -0.0036
 2750TIP3   OH2 8213   0.349   4.331   1.151 -0.1677  0.2577 -0.1548
 2750TIP3    H1 8214   0.378   4.242   1.172 -1.7037  0.1041  1.5567
 2750TIP3    H2 8215   0.429   4.378   1.128  0.8338 -1.2193  0.2130
 2751TIP3   OH2 8216   5.128   2.508   2.070 -0.0023  0.0325 -0.0577
 2751TIP3    H1 8217   5.043   2.492   2.029 -0.8348  3.0899  0.2082
 2751TIP3    H2 8218   5.108   2.528   2.161  1.1507 -0.5395  0.3327
 2752TIP3   OH2 8219   3.660   5.601   0.510 -0.0722  0.7321 -0.0957
 2752TIP3    H1 8220   3.605   5.670   0.546  0.9976  1.1664  0.7441
 2752TIP3    H2 8221   3.698   5.558   0.587 -0.1911 -0.3539 -0.6257
 2753TIP3   OH2 8222   3.600   2.392   4.552 -0.1347 -0.4231 -0.3826
 2753TIP3    H1 8223   3.689   2.358   4.557 -0.6778 -1.9084 -0.3430
 2753TIP3    H2 8224   3.590   2.424   4.462  0.2950 -0.6403 -0.5050
 2754TIP3   OH2 8225   2.974   0.046   2.788 -0.1959 -0.3712 -0.3780
 2754TIP3    H1 8226   2.939   0.078   2.705  2.4988  0.8528 -1.1416
 2754TIP3    H2 8227   2.994   0.125   2.838  0.1536 -1.0518  0.6013
 2755TIP3   OH2 8228   4.019   3.495   3.406 -0.2110  0.3741  0.3713
 2755TIP3    H1 8229   4.010   3.402   3.429 -1.1430  0.3597  0.0031
 2755TIP3    H2 8230   3.951   3.510   3.340 -0.5199  1.4825  0.9161
 2756TIP3   OH2 8231   2.881   1.467   2.279 -1.0308  0.4040  0.1789
 2756TIP3    H1 8232   2.817   1.418   2.228 -1.7920  0.6180  0.9028
 2756TIP3    H2 8233   2.963   1.418   2.269 -1.3523  0.0138 -0.5946
 2757TIP3   OH2 8234   6.759   6.515   5.077 -0.3048 -0.6032 -0.2433
 2757TIP3    H1 8235   6.713   6.598   5.064  0.1693 -0.5502 -1.8344
 2757TIP3    H2 8236   6.711   6.472   5.148 -1.4180  0.4218 -0.3382
 2758TIP3   OH2 8237   5.468   3.091   2.428 -0.2899  0.7710  0.4903
 2758TIP3    H1 8238   5.470   2.996   2.416 -2.5891  0.7816 -0.4631
 2758TIP3    H2 8239   5.515   3.125   2.352  0.5592  0.4072  0.8437
 2759TIP3   OH2 8240   0.468   5.034   3.777 -0.0428 -0.4907 -0.3884
 2759TIP3    H1 8241   0.484   5.089   3.701  0.8051 -1.5097 -0.9773
 2759TIP3    H2 8242   0.484   4.945   3.746 -1.3503 -1.0830  0.5434
 2760TIP3   OH2 8243   2.121   1.036   1.222 -0.2376 -0.0215  0.1725
 2760TIP3    H1 8244   2.042   0.983   1.222 -2.2684  2.7396 -0.3403
 2760TIP3    H2 8245   2.126   1.073   1.134  1.1477  0.5120  0.4423
 2761TIP3   OH2 8246   3.109   2.141   4.612  0.0669 -0.2384  0.2604
 2761TIP3    H1 8247   3.132   2.080   4.682  0.5049 -0.2134  0.1416
 2761TIP3    H2 8248   3.183   2.201   4.607 -0.1801  0.0583  0.1039
 2762TIP3   OH2 8249   5.512   0.532   2.551  0.0776  0.0227  0.4600
 2762TIP3    H1 8250   5.560   0.578   2.619 -0.8630  0.6359  0.7244
 2762TIP3    H2 8251   5.420   0.548   2.571 -0.2316  1.5060 -1.8034
 2763TIP3   OH2 8252   1.263   0.646   2.893 -0.1371  0.1653 -0.4731
 2763TIP3    H1 8253   1.358   0.637   2.883  0.1357  1.9590  0.2040
 2763TIP3    H2 8254   1.246   0.621   2.983 -0.4171 -0.7756 -0.7763
 2764TIP3   OH2 8255   7.107   1.407   5.554  0.1564  0.2533  0.4100
 2764TIP3    H1 8256   7.123   1.338   5.489 -1.1004  0.0798  0.2501
 2764TIP3    H2 8257   7.141   1.486   5.514  0.1856 -0.0077 -0.0943
 2765TIP3   OH2 8258   5.136   1.408   3.340  0.3749 -0.3970 -0.2180
 2765TIP3    H1 8259   5.064   1.470   3.349 -1.2276 -1.7716 -2.5613
 2765TIP3    H2 8260   5.127   1.350   3.416  0.1857  0.4998  0.4762
 2766TIP3   OH2 8261   2.471   1.851   1.292 -0.4165 -0.7163 -0.1114
 2766TIP3    H1 8262   2.456   1.806   1.209 -2.9749  1.1889 -0.8105
 2766TIP3    H2 8263   2.534   1.920   1.271 -1.6320  0.2519 -0.7473
 2767TIP3   OH2 8264   3.011   0.122   4.732 -0.1965 -0.1155 -0.5738
 2767TIP3    H1 8265   3.093   0.142   4.687  0.2399  0.0372  0.2673
 2767TIP3    H2 8266   3.038   0.079   4.813 -1.0019 -1.1726 -0.8463
 2768TIP3   OH2 8267   7.051   1.915   2.653 -0.6377  0.1473  0.1237
 2768TIP3    H1 8268   7.071   1.838   2.705  0.0612  0.0040 -0.3481
 2768TIP3    H2 8269   7.065   1.888   2.562  0.6088  1.0935  0.0020
 2769TIP3   OH2 8270   4.212   3.994   3.089 -0.2843  0.0337  0.0693
 2769TIP3    H1 8271   4.194   4.043   3.169  0.0509  1.5035 -0.7182
 2769TIP3    H2 8272   4.129   3.952   3.068  0.0335 -1.7571  2.0430
 2770TIP3   OH2 8273   3.942   6.046   2.394 -0.5407  0.0088 -0.1157
 2770TIP3    H1 8274   4.025   6.091   2.380  1.2164 -2.2924  1.9845
 2770TIP3    H2 8275   3.895   6.100   2.457 -0.3232  0.9388 -0.7343
 2771TIP3   OH2 8276   4.310   6.702   4.726 -0.1039  0.2238  0.9168
 2771TIP3    H1 8277   4.347   6.761   4.791 -0.6228  1.7233 -0.1009
 2771TIP3    H2 8278   4.244   6.754   4.680  0.9385 -0.4337 -1.5007
 2772TIP3   OH2 8279   5.472   5.749   0.599 -0.1791 -0.0329 -0.6449
 2772TIP3    H1 8280   5.397   5.690   0.583 -1.4410  0.9877  1.1513
 2772TIP3    H2 8281   5.548   5.699   0.569 -1.1684 -2.6540  0.8468
 2773TIP3   OH2 8282   1.661   6.082   5.640  0.4212 -0.0987  0.1301
 2773TIP3    H1 8283   1.643   6.047   5.553 -2.2546  0.2462  0.4331
 2773TIP3    H2 8284   1.712   6.162   5.625  0.1557 -0.1523 -1.1245
 2774TIP3   OH2 8285   0.883   5.919   3.122 -0.1684 -0.0106  0.3778
 2774TIP3    H1 8286   0.895   5.862   3.046  0.3800  1.0078 -0.3340
 2774TIP3    H2 8287   0.963   5.972   3.125 -1.2487  1.7180  0.1182
 2775TIP3   OH2 8288   2.702   0.213   0.621  0.2221 -0.0737 -0.2750
 2775TIP3    H1 8289   2.720   0.278   0.553  0.2344  1.1024  0.8171
 2775TIP3    H2 8290   2.754   0.137   0.595  1.5742  0.9446 -0.7008
 2776TIP3   OH2 8291   3.918   1.522   2.234 -0.1050 -0.3871 -0.6571
 2776TIP3    H1 8292   3.994   1.540   2.179 -0.1261 -1.0719 -0.9221
 2776TIP3    H2 8293   3.866   1.458   2.184 -1.5537  1.0698 -1.0971
 2777TIP3   OH2 8294   0.918   1.211   3.023  0.2233 -0.0326 -0.1500
 2777TIP3    H1 8295   1.011   1.188   3.031  0.5020  0.9511 -0.4146
 2777TIP3    H2 8296   0.916   1.306   3.038 -0.6067  0.1099 -1.0909
 2778TIP3   OH2 8297   0.318   2.295   1.471  0.3996  0.5041  1.0723
 2778TIP3    H1 8298   0.362   2.288   1.386 -0.4816 -1.2337  0.7264
 2778TIP3    H2 8299   0.373   2.355   1.521  1.3146  1.0203 -0.4816
 2779TIP3   OH2 8300   3.892   4.953   1.591  0.2736 -0.1740 -0.3196
 2779TIP3    H1 8301   3.983   4.957   1.561  0.1892  0.3601 -0.5151
 2779TIP3    H2 8302   3.898   4.928   1.683  0.7111  1.4742  0.1296
 2780TIP3   OH2 8303   2.959   0.256   2.223 -0.2392 -0.0192 -0.4575
 2780TIP3    H1 8304   2.986   0.183   2.168 -0.3133 -1.8521  1.8027
 2780TIP3    H2 8305   2.879   0.226   2.267  0.4895  0.8094  1.5775
 2781TIP3   OH2 8306   1.893   6.173   3.225 -0.1217  0.0194  0.1354
 2781TIP3    H1 8307   1.855   6.135   3.146  0.4127 -0.1777 -0.0280
 2781TIP3    H2 8308   1.860   6.263   3.226  1.6252  0.7566 -1.5227
 2782TIP3   OH2 8309   1.996   3.458   0.002 -0.0756 -0.3959  0.0856
 2782TIP3    H1 8310   1.905   3.487   0.006  0.5620  2.2406 -1.7818
 2782TIP3    H2 8311   2.046   3.530   0.043  1.2717 -1.1899 -0.0960
 2783TIP3   OH2 8312   6.831   6.510   3.754  0.6019  0.1713 -0.2605
 2783TIP3    H1 8313   6.819   6.415   3.750  1.0852  0.1233 -0.8127
 2783TIP3    H2 8314   6.899   6.523   3.821 -0.1990  0.2090  0.5541
 2784TIP3   OH2 8315   2.187   6.477   4.619 -0.2645  0.2902  0.2031
 2784TIP3    H1 8316   2.129   6.476   4.543  0.3556  0.0784 -0.2799
 2784TIP3    H2 8317   2.238   6.558   4.609  0.3092 -0.0883  0.0041
 2785TIP3   OH2 8318   3.328   2.689   2.559  0.2603 -0.6735  0.1128
 2785TIP3    H1 8319   3.234   2.671   2.551  0.5967 -2.6511  0.1230
 2785TIP3    H2 8320   3.348   2.674   2.651  0.3257  1.3679  0.4781
 2786TIP3   OH2 8321   1.615   3.473   1.746 -0.6088  0.3188 -0.1516
 2786TIP3    H1 8322   1.710   3.465   1.758 -0.2205 -1.7269 -3.3748
 2786TIP3    H2 8323   1.578   3.414   1.811  0.4761 -0.6357 -0.3620
 2787TIP3   OH2 8324   2.248   6.477   1.815  0.1834 -0.4131  0.2357
 2787TIP3    H1 8325   2.241   6.477   1.911  1.6958 -0.8100  0.3747
 2787TIP3    H2 8326   2.234   6.385   1.791 -0.3627 -0.2842  0.0571
 2788TIP3   OH2 8327   6.258   3.418   4.528  0.3162 -0.2327 -0.6511
 2788TIP3    H1 8328   6.351   3.434   4.514  0.5007 -0.3198  0.3802
 2788TIP3    H2 8329   6.214   3.477   4.467  1.0403 -1.0872 -2.0583
 2789TIP3   OH2 8330   3.381   3.648   5.913 -0.0743 -0.3109  0.5003
 2789TIP3    H1 8331   3.404   3.693   5.832 -4.2114 -0.8876 -1.2191
 2789TIP3    H2 8332   3.407   3.557   5.897 -0.7013 -0.3861 -0.1805
 2790TIP3   OH2 8333   6.336   5.391   1.376 -0.6935 -0.1896  0.0674
 2790TIP3    H1 8334   6.338   5.429   1.288  0.3887  0.8866  0.5139
 2790TIP3    H2 8335   6.305   5.462   1.432 -0.8489 -0.6920  0.6322
 2791TIP3   OH2 8336   3.288   6.033   4.833  0.0365 -0.3591 -0.2175
 2791TIP3    H1 8337   3.330   6.094   4.893 -0.4877  0.4922 -0.6901
 2791TIP3    H2 8338   3.198   6.065   4.825 -0.0860 -0.8535 -0.9249
 2792TIP3   OH2 8339   3.880   5.259   3.768 -0.6267  0.4066  0.1908
 2792TIP3    H1 8340   3.901   5.242   3.860 -1.7983  1.2174  0.6250
 2792TIP3    H2 8341   3.786   5.276   3.767 -1.2565 -2.4817 -1.6032
 2793TIP3   OH2 8342   5.297   5.918   3.350 -0.1833 -0.5339 -0.2845
 2793TIP3    H1 8343   5.284   5.879   3.437 -1.0205 -0.3462 -0.3096
 2793TIP3    H2 8344   5.279   5.847   3.289 -0.0923 -0.5355 -0.3090
 2794TIP3   OH2 8345   6.076   3.315   0.459  0.3679  0.0833  0.3187
 2794TIP3    H1 8346   6.167   3.303   0.488  0.2782 -0.8637  0.2487
 2794TIP3    H2 8347   6.069   3.263   0.379  0.0878  1.1396 -0.3672
 2795TIP3   OH2 8348   3.227   4.575   3.374 -0.2131  0.2697 -0.1774
 2795TIP3    H1 8349   3.162   4.627   3.328 -2.3022 -2.1709 -0.2282
 2795TIP3    H2 8350   3.265   4.518   3.306  0.4490  0.2064  0.2352
 2796TIP3   OH2 8351   3.834   3.266   5.353 -0.5064  0.5942 -0.1004
 2796TIP3    H1 8352   3.883   3.189   5.325  0.3671  1.6908 -1.7571
 2796TIP3    H2 8353   3.780   3.235   5.425  1.5125 -1.0279  0.8203
 2797TIP3   OH2 8354   2.871   0.147   1.164 -0.8192 -1.1514  0.2313
 2797TIP3    H1 8355   2.844   0.125   1.074 -0.0983 -1.0607 -0.0083
 2797TIP3    H2 8356   2.928   0.075   1.190  1.9273  0.5563 -0.7232
 2798TIP3   OH2 8357   1.195   0.720   0.152 -0.2517 -0.0792 -1.0533
 2798TIP3    H1 8358   1.274   0.728   0.098  0.2191  0.2275 -0.3370
 2798TIP3    H2 8359   1.206   0.786   0.221  0.1977 -1.8775  0.6897
 2799TIP3   OH2 8360   5.858   1.472   1.777  0.2213  0.0346 -0.4712
 2799TIP3    H1 8361   5.851   1.487   1.871 -1.2741 -1.2436 -0.3406
 2799TIP3    H2 8362   5.803   1.539   1.737 -0.1375 -0.1881 -0.3542
 2800TIP3   OH2 8363   2.230   4.034   4.288 -0.0653 -0.0903 -0.3025
 2800TIP3    H1 8364   2.250   3.942   4.302 -0.3393  0.0411  1.1976
 2800TIP3    H2 8365   2.145   4.047   4.332  0.6837  1.1779  0.8596
 2801TIP3   OH2 8366   4.760   2.696   5.878 -0.1041 -0.4307  0.1613
 2801TIP3    H1 8367   4.738   2.788   5.864  1.2141 -0.0338  0.5710
 2801TIP3    H2 8368   4.676   2.653   5.892 -0.8656  0.4235 -1.6039
 2802TIP3   OH2 8369   4.536   2.635   1.103  0.2110  0.8661  0.1642
 2802TIP3    H1 8370   4.512   2.706   1.043  0.2615  0.0267 -0.8818
 2802TIP3    H2 8371   4.453   2.591   1.123  0.2652  0.8090  0.2633
 2803TIP3   OH2 8372   4.745   0.480   1.028  0.2551  0.0133  0.1856
 2803TIP3    H1 8373   4.796   0.409   0.990 -0.1355 -0.4988  0.6138
 2803TIP3    H2 8374   4.800   0.558   1.016  1.2674 -0.5740  0.8753
 2804TIP3   OH2 8375   3.175   5.619   4.935  0.1032  0.3308 -0.1953
 2804TIP3    H1 8376   3.203   5.577   5.016  1.0297  1.5371  0.1330
 2804TIP3    H2 8377   3.177   5.549   4.870 -0.1375 -0.5325  0.6950
 2805TIP3   OH2 8378   3.785   0.385   4.555  0.3361  0.2274  0.2445
 2805TIP3    H1 8379   3.774   0.447   4.483  1.0551  0.5253  0.3782
 2805TIP3    H2 8380   3.785   0.440   4.634  0.4191 -0.0013  0.4038
 2806TIP3   OH2 8381   4.795   3.917   4.088 -0.0660  0.0982 -0.2310
 2806TIP3    H1 8382   4.700   3.914   4.090 -0.0645 -0.2744 -0.5862
 2806TIP3    H2 8383   4.816   3.990   4.029 -0.1277  0.5921  0.3549
 2807TIP3   OH2 8384   2.794   3.524   1.857 -0.0258 -0.3848  0.5321
 2807TIP3    H1 8385   2.808   3.521   1.952  0.6218 -1.4431  0.4099
 2807TIP3    H2 8386   2.699   3.513   1.847  0.0635 -1.7004  1.0038
 2808TIP3   OH2 8387   5.395   2.114   2.334  0.0986 -0.1349 -0.1597
 2808TIP3    H1 8388   5.482   2.136   2.302  1.0513 -3.0789  0.0944
 2808TIP3    H2 8389   5.374   2.183   2.397  0.6594  2.5867 -2.7227
 2809TIP3   OH2 8390   3.368   3.702   1.854 -0.1826 -0.0483  0.1851
 2809TIP3    H1 8391   3.317   3.762   1.909 -0.1119  1.3516 -1.2002
 2809TIP3    H2 8392   3.306   3.634   1.829 -0.1939 -0.7765  2.0294
 2810TIP3   OH2 8393   3.245   4.257   4.781  0.1757  0.3209  0.1588
 2810TIP3    H1 8394   3.293   4.218   4.854 -0.2204  1.6153  1.1465
 2810TIP3    H2 8395   3.156   4.268   4.813 -0.4026 -0.5130 -1.0783
 2811TIP3   OH2 8396   6.681   3.019   0.644  0.0520  0.6193  0.0886
 2811TIP3    H1 8397   6.760   2.967   0.630 -0.8289 -0.7061 -0.2146
 2811TIP3    H2 8398   6.712   3.109   0.652  1.5677  0.1481 -0.1450
 2812TIP3   OH2 8399   5.885   4.875   0.151 -0.3072 -0.0849  0.0837
 2812TIP3    H1 8400   5.880   4.966   0.181  0.9534  0.4177 -1.0865
 2812TIP3    H2 8401   5.815   4.868   0.086  1.0489  0.8153 -1.5614
 2813TIP3   OH2 8402   6.949   0.943   2.794  0.2937 -0.0696 -0.5596
 2813TIP3    H1 8403   7.035   0.973   2.823 -0.9609  0.7907  2.7661
 2813TIP3    H2 8404   6.957   0.848   2.790  1.0827 -0.1297  1.2028
 2814TIP3   OH2 8405   2.280   2.212   0.101 -0.0745  0.1681 -0.0081
 2814TIP3    H1 8406   2.226   2.241   0.028 -0.9477  0.6921  0.8304
 2814TIP3    H2 8407   2.369   2.238   0.076 -0.5458  1.6297 -0.2588
 2815TIP3   OH2 8408   3.220   2.457   2.006 -0.5238  0.1581 -0.1361
 2815TIP3    H1 8409   3.289   2.522   2.018  0.6158 -0.9592 -0.4324
 2815TIP3    H2 8410   3.191   2.468   1.916 -0.4127  0.3240 -0.1512
 2816TIP3   OH2 8411   1.420   3.794   3.912 -0.1667  0.3189 -0.4694
 2816TIP3    H1 8412   1.399   3.872   3.962 -2.4715 -0.4428 -0.1348
 2816TIP3    H2 8413   1.342   3.777   3.860 -0.4354 -2.7196  0.7523
 2817TIP3   OH2 8414   5.881   2.357   1.515 -0.8398  0.1406  0.1614
 2817TIP3    H1 8415   5.960   2.407   1.493 -1.2675  0.8087  0.0996
 2817TIP3    H2 8416   5.907   2.304   1.591  0.0623 -0.6922 -0.6993
 2818TIP3   OH2 8417   2.807   2.709   5.290 -0.1277  0.1985 -0.0612
 2818TIP3    H1 8418   2.872   2.767   5.329 -1.7930  1.0342  1.6593
 2818TIP3    H2 8419   2.782   2.649   5.361 -1.9738  0.6264 -0.2766
 2819TIP3   OH2 8420   5.442   0.181   1.162  0.4162 -0.3235 -0.1560
 2819TIP3    H1 8421   5.508   0.135   1.213  2.0078  0.1610 -1.6991
 2819TIP3    H2 8422   5.479   0.187   1.074 -0.0742  3.1590 -0.2625
 2820TIP3   OH2 8423   1.689   5.997   3.964 -0.2328 -0.2203  0.3165
 2820TIP3    H1 8424   1.750   5.977   4.035 -0.0755  0.3319  0.3384
 2820TIP3    H2 8425   1.738   6.053   3.904 -0.9935  1.0653  0.8352
 2821TIP3   OH2 8426   6.587   2.691   0.095  0.0204 -0.0415  0.0422
 2821TIP3    H1 8427   6.677   2.694   0.129  0.4306 -0.0470 -1.0283
 2821TIP3    H2 8428   6.578   2.603   0.059 -0.4334 -0.0498  0.1682
 2822TIP3   OH2 8429   4.306   4.292   3.991  0.0708  0.0029 -0.5229
 2822TIP3    H1 8430   4.217   4.260   4.007 -0.0582  1.2665  1.6344
 2822TIP3    H2 8431   4.351   4.217   3.952 -1.9760 -0.5808 -1.9713
 2823TIP3   OH2 8432   1.849   4.131   0.233  0.1280 -0.2051 -0.0366
 2823TIP3    H1 8433   1.794   4.208   0.214  0.2595 -0.6228 -2.3750
 2823TIP3    H2 8434   1.787   4.066   0.266 -0.4512  0.0065 -0.6717
 2824TIP3   OH2 8435   5.962   3.184   3.991  0.3292  0.1985  0.5613
 2824TIP3    H1 8436   5.965   3.142   4.077 -0.8537 -1.0827  0.0300
 2824TIP3    H2 8437   6.028   3.253   3.995  0.6651 -0.1772  2.3073
 2825TIP3   OH2 8438   4.979   2.446   0.877  0.0995 -0.2699  0.1120
 2825TIP3    H1 8439   4.903   2.387   0.880 -0.4911  0.5129  1.4085
 2825TIP3    H2 8440   4.961   2.504   0.803 -0.3183 -0.4297  0.0827
 2826TIP3   OH2 8441   5.286   3.744   2.523  0.5348  0.5645 -0.4043
 2826TIP3    H1 8442   5.260   3.807   2.591 -0.3676  1.5226 -1.5929
 2826TIP3    H2 8443   5.258   3.785   2.441 -1.3818 -1.9965 -1.1542
 2827TIP3   OH2 8444   3.421   1.511   3.664 -0.0441  0.0454  0.0827
 2827TIP3    H1 8445   3.385   1.575   3.726 -1.6070 -1.7199  1.0909
 2827TIP3    H2 8446   3.473   1.452   3.718 -1.3145 -1.4395 -0.2198
 2828TIP3   OH2 8447   6.593   3.358   4.942 -0.2508 -0.5960  0.0014
 2828TIP3    H1 8448   6.620   3.438   4.897 -2.4205 -0.8695 -2.0028
 2828TIP3    H2 8449   6.595   3.380   5.035 -0.9224  1.8648 -0.4871
 2829TIP3   OH2 8450   0.602   5.630   4.152  0.2496 -0.2503  0.2827
 2829TIP3    H1 8451   0.554   5.656   4.073 -1.2991 -2.8835  0.2443
 2829TIP3    H2 8452   0.555   5.671   4.224  1.3557  1.7318 -0.0590
 2830TIP3   OH2 8453   2.919   3.983   3.290 -0.0219  0.0068 -0.1314
 2830TIP3    H1 8454   2.998   3.939   3.322 -0.3395  0.7767  1.8711
 2830TIP3    H2 8455   2.849   3.919   3.303  0.1077 -0.3171 -0.9800
 2831TIP3   OH2 8456   3.738   4.697   2.313  0.3522  0.1009  1.0781
 2831TIP3    H1 8457   3.781   4.654   2.387  1.0044  0.6604  1.0303
 2831TIP3    H2 8458   3.775   4.655   2.236  0.4096  0.2052  1.0488
 2832TIP3   OH2 8459   4.730   3.029   3.211  0.4397  0.2235 -0.6647
 2832TIP3    H1 8460   4.684   3.000   3.289  0.5627 -1.0180 -1.0282
 2832TIP3    H2 8461   4.666   3.084   3.165  0.2287  0.6282  0.0986
 2833TIP3   OH2 8462   5.857   2.092   1.253 -0.2000 -0.3367  0.6531
 2833TIP3    H1 8463   5.922   2.157   1.280  0.4975 -0.3863 -0.8170
 2833TIP3    H2 8464   5.905   2.009   1.254 -0.3502 -0.4320 -0.0419
 2834TIP3   OH2 8465   0.243   2.189   3.633 -0.6245 -0.1776 -0.2398
 2834TIP3    H1 8466   0.254   2.278   3.598  0.6898 -0.5013 -0.7274
 2834TIP3    H2 8467   0.251   2.132   3.556 -0.2295 -0.7759  0.2308
 2835TIP3   OH2 8468   6.179   0.469   4.597 -0.2263  0.6322  0.7353
 2835TIP3    H1 8469   6.265   0.498   4.627 -0.6453  2.2086  0.5360
 2835TIP3    H2 8470   6.120   0.491   4.670 -0.3175 -1.5026  1.3532
 2836TIP3   OH2 8471   5.205   1.091   4.189 -0.6527 -0.3546  0.4201
 2836TIP3    H1 8472   5.113   1.068   4.197 -0.3366 -1.2023  1.8365
 2836TIP3    H2 8473   5.238   1.093   4.279  1.3744 -2.8378 -0.1708
 2837TIP3   OH2 8474   1.997   3.559   5.656  0.1251  0.2282  0.2205
 2837TIP3    H1 8475   1.978   3.470   5.627 -2.6468  0.7515  0.1153
 2837TIP3    H2 8476   2.068   3.549   5.720  1.1604 -1.7960 -1.1257
 2838TIP3   OH2 8477   0.555  -0.012   1.380  0.0437  0.3547 -0.0789
 2838TIP3    H1 8478   0.527  -0.014   1.288 -0.6385 -2.6793  0.0588
 2838TIP3    H2 8479   0.512   0.065   1.417 -2.8543 -0.4224 -1.4781
 2839TIP3   OH2 8480   5.811   4.341   4.753  0.1474  0.0785 -0.6847
 2839TIP3    H1 8481   5.815   4.248   4.728 -0.3057  0.1013 -0.8466
 2839TIP3    H2 8482   5.889   4.354   4.808 -0.0274 -0.5027 -0.2931
 2840TIP3   OH2 8483   6.932   6.248   0.991 -0.2155  0.1019 -0.4568
 2840TIP3    H1 8484   6.918   6.213   1.079 -1.6755 -0.3061 -0.8409
 2840TIP3    H2 8485   7.017   6.292   0.997  0.7179 -1.7191  0.5824
 2841TIP3   OH2 8486   2.086   1.924   5.842 -0.0766 -0.2118  0.1286
 2841TIP3    H1 8487   2.054   1.908   5.753 -1.1661  1.0416  0.2708
 2841TIP3    H2 8488   2.032   1.867   5.897 -0.7776  0.5030  0.1827
 2842TIP3   OH2 8489   2.763   4.238   0.909 -0.2182 -0.8946  0.2042
 2842TIP3    H1 8490   2.681   4.258   0.953  0.2022 -1.4105  1.2458
 2842TIP3    H2 8491   2.831   4.271   0.968  0.3753 -2.1735  0.2838
 2843TIP3   OH2 8492   6.703   2.680   5.747 -0.1242 -0.2108 -0.4465
 2843TIP3    H1 8493   6.774   2.633   5.703 -0.2547 -2.5822  1.7040
 2843TIP3    H2 8494   6.653   2.613   5.793 -0.8281  1.9252  2.1755
 2844TIP3   OH2 8495   6.097   2.212   5.541  0.4777  0.4690  0.7895
 2844TIP3    H1 8496   6.167   2.153   5.567  0.7621  0.4841  0.0776
 2844TIP3    H2 8497   6.038   2.158   5.489 -0.7829  0.1106  2.5259
 2845TIP3   OH2 8498   0.037   4.471   4.026 -0.1064  0.1214 -0.2165
 2845TIP3    H1 8499   0.025   4.488   4.120 -1.3433 -0.8996 -0.1682
 2845TIP3    H2 8500  -0.001   4.548   3.983 -0.5156  0.0954  0.0943
 2846TIP3   OH2 8501   1.924   5.775   2.483  0.0456 -0.1234 -0.1988
 2846TIP3    H1 8502   1.955   5.723   2.557  0.6146  0.1099 -0.2707
 2846TIP3    H2 8503   1.917   5.864   2.517 -1.9923 -0.3928  0.2402
 2847TIP3   OH2 8504   5.185   6.109   5.396 -0.2176  0.0646  0.4787
 2847TIP3    H1 8505   5.135   6.031   5.375  0.2003 -0.2889  0.7757
 2847TIP3    H2 8506   5.119   6.177   5.409 -0.5470 -0.0212 -0.6360
 2848TIP3   OH2 8507   2.206   2.168   0.563  0.0313  0.3314 -0.3490
 2848TIP3    H1 8508   2.167   2.255   0.571 -1.0890 -0.2171  0.5493
 2848TIP3    H2 8509   2.248   2.153   0.647  2.2778  0.9078 -1.3090
 2849TIP3   OH2 8510   2.162   3.558   5.848 -0.1810  0.1971 -0.1897
 2849TIP3    H1 8511   2.206   3.643   5.857  0.6244 -0.0083 -1.7324
 2849TIP3    H2 8512   2.112   3.548   5.928 -1.4376  2.7806 -0.5394
 2850TIP3   OH2 8513   4.118   3.654   5.414  0.6139 -0.5960 -0.0592
 2850TIP3    H1 8514   4.036   3.614   5.443  1.5039 -1.6491  1.1028
 2850TIP3    H2 8515   4.100   3.748   5.415 -0.5921 -0.8100  0.1207
 2851TIP3   OH2 8516   1.941   1.326   0.933  0.6151  0.6568  0.6056
 2851TIP3    H1 8517   2.024   1.349   0.976  1.9989 -2.7707  0.0392
 2851TIP3    H2 8518   1.962   1.327   0.840 -0.9785  2.9458  0.1856
 2852TIP3   OH2 8519   1.994   1.068   3.563  0.4010  0.1257  0.1493
 2852TIP3    H1 8520   1.984   1.133   3.494  0.4717  0.4146  0.4106
 2852TIP3    H2 8521   2.029   0.990   3.518  0.8921  0.4622 -0.0605
 2853TIP3   OH2 8522   5.308   3.962   0.631  0.3445 -0.3029 -0.2230
 2853TIP3    H1 8523   5.308   3.946   0.726  1.1726  0.3790 -0.0935
 2853TIP3    H2 8524   5.259   3.889   0.594 -1.2445  0.1597  0.8513
 2854TIP3   OH2 8525   1.892   3.903   1.683 -0.2035  0.4457 -0.0091
 2854TIP3    H1 8526   1.805   3.865   1.694 -1.3687  2.8143 -0.3644
 2854TIP3    H2 8527   1.886   3.954   1.602  1.1162  1.6766  0.6166
 2855TIP3   OH2 8528   0.428   5.723   3.957 -0.0732  0.5645  0.8248
 2855TIP3    H1 8529   0.355   5.702   3.899  0.0482  2.3500 -0.0254
 2855TIP3    H2 8530   0.392   5.783   4.021  0.4873  0.9845  0.7587
 2856TIP3   OH2 8531   6.511   4.606   3.548  0.0535  0.3875  0.0598
 2856TIP3    H1 8532   6.417   4.613   3.531  0.0433 -0.0348 -0.0875
 2856TIP3    H2 8533   6.521   4.628   3.641 -0.5000 -1.7822  0.6893
 2857TIP3   OH2 8534   0.943   5.604   1.117 -0.2693  0.1824  0.3593
 2857TIP3    H1 8535   1.031   5.571   1.138  0.4117  1.5393 -0.2283
 2857TIP3    H2 8536   0.899   5.529   1.077  0.7038 -0.4714  0.4656
 2858TIP3   OH2 8537   7.226   1.301   0.928 -0.4692 -0.2362 -0.6826
 2858TIP3    H1 8538   7.189   1.389   0.928  2.2053  0.9735 -1.0798
 2858TIP3    H2 8539   7.195   1.263   0.846 -1.3791  0.4280 -0.6696
 2859TIP3   OH2 8540   3.076   3.472   5.537  0.5260  0.4182 -0.1219
 2859TIP3    H1 8541   2.982   3.466   5.553  0.5249 -1.3318 -0.5105
 2859TIP3    H2 8542   3.115   3.416   5.605  1.2093  0.3742 -0.5426
 2860TIP3   OH2 8543   5.832   6.596   3.761  0.9219  0.0230  0.0922
 2860TIP3    H1 8544   5.770   6.667   3.778  1.4932  0.3465  0.8399
 2860TIP3    H2 8545   5.826   6.582   3.666 -1.3024 -0.8997  0.3067
 2861TIP3   OH2 8546   5.179   0.526   1.221  0.2934 -0.0052 -0.5440
 2861TIP3    H1 8547   5.229   0.589   1.170  1.6411  0.7462  1.5826
 2861TIP3    H2 8548   5.244   0.480   1.274 -0.8891 -1.6792 -0.4526
 2862TIP3   OH2 8549   6.219   6.764   1.642  0.6161  0.6207  0.3964
 2862TIP3    H1 8550   6.296   6.748   1.697  1.3767 -1.4431 -1.1475
 2862TIP3    H2 8551   6.240   6.722   1.558 -1.5205  1.4757 -0.6344
 2863TIP3   OH2 8552   1.146   6.781   3.749 -0.4199  0.2228 -0.0907
 2863TIP3    H1 8553   1.159   6.689   3.771  2.4323  0.8744  1.4736
 2863TIP3    H2 8554   1.121   6.781   3.657  1.7804 -2.0439 -0.8068
 2864TIP3   OH2 8555   2.360   4.826   1.194  0.1164  0.1706  0.1612
 2864TIP3    H1 8556   2.427   4.807   1.128  0.4812  0.6260  0.3968
 2864TIP3    H2 8557   2.292   4.873   1.146  0.9993  1.7082  0.3687
 2865TIP3   OH2 8558   4.366   0.101   4.202  0.5490  0.1625  0.2388
 2865TIP3    H1 8559   4.418   0.169   4.161 -0.7002  0.6939 -0.5250
 2865TIP3    H2 8560   4.276   0.134   4.199  0.2920 -0.1091  2.7591
 2866TIP3   OH2 8561   0.468   1.863   5.430 -0.2599  0.3644  0.8426
 2866TIP3    H1 8562   0.531   1.818   5.486 -0.8725  0.2959  1.4985
 2866TIP3    H2 8563   0.510   1.947   5.409  0.2642  0.1022  0.8367
 2867TIP3   OH2 8564   5.403   2.561   3.293  0.4396  0.0849 -0.2906
 2867TIP3    H1 8565   5.337   2.631   3.296  1.7423  1.3444  0.9400
 2867TIP3    H2 8566   5.460   2.585   3.221  0.5240 -0.0764 -0.2774
 2868TIP3   OH2 8567   1.176   3.533   2.790  0.3639  0.0237 -0.6489
 2868TIP3    H1 8568   1.211   3.613   2.830  0.6501  0.3951 -1.6203
 2868TIP3    H2 8569   1.184   3.548   2.696 -1.7207 -0.1907 -0.9112
 2869TIP3   OH2 8570   4.867   6.580   2.424  0.8185  0.2899 -0.2175
 2869TIP3    H1 8571   4.811   6.508   2.397  0.4806 -0.6167  2.5832
 2869TIP3    H2 8572   4.945   6.573   2.369 -0.2647 -0.6493 -1.6759
 2870TIP3   OH2 8573   3.660   3.160   4.351  0.1455  0.6999  0.2199
 2870TIP3    H1 8574   3.728   3.218   4.318  0.3468  0.1703 -0.3041
 2870TIP3    H2 8575   3.605   3.216   4.406  0.6593  1.2578  0.1682
 2871TIP3   OH2 8576   3.701   0.474   3.953 -0.1411  0.5469 -0.1964
 2871TIP3    H1 8577   3.656   0.460   4.036 -1.2467  2.2642 -0.4461
 2871TIP3    H2 8578   3.631   0.482   3.888  0.6941 -0.5776 -1.2962
 2872TIP3   OH2 8579   0.533   4.102   1.692  0.0322  0.1453  0.7369
 2872TIP3    H1 8580   0.452   4.066   1.728 -0.5540  2.0931  1.4828
 2872TIP3    H2 8581   0.544   4.186   1.736  2.4538 -0.0344  0.6116
 2873TIP3   OH2 8582   4.079   0.768   1.995 -0.2236 -0.7428 -0.6299
 2873TIP3    H1 8583   4.032   0.757   2.077 -0.9875 -0.8612 -1.0792
 2873TIP3    H2 8584   4.015   0.807   1.935  0.4390 -0.2717 -1.0543
 2874TIP3   OH2 8585   5.502   3.158   1.893  0.0909  0.2584  0.0059
 2874TIP3    H1 8586   5.428   3.112   1.854  1.3425 -3.4422  1.5648
 2874TIP3    H2 8587   5.562   3.174   1.820 -0.3144 -0.8180 -0.5783
 2875TIP3   OH2 8588   0.880   0.720   5.804  0.4259 -0.8206 -0.0415
 2875TIP3    H1 8589   0.813   0.655   5.782  0.3747 -0.7621 -0.0593
 2875TIP3    H2 8590   0.863   0.794   5.745 -0.8046  0.0572  1.3380
 2876TIP3   OH2 8591   6.954   6.669   4.170  0.0979 -0.2889 -0.7655
 2876TIP3    H1 8592   6.923   6.600   4.229 -1.2834 -0.0435 -1.1575
 2876TIP3    H2 8593   7.000   6.731   4.227 -0.6701 -0.3651 -0.0451
 2877TIP3   OH2 8594   5.907   6.681   2.213  0.9021  0.2737  0.1630
 2877TIP3    H1 8595   5.870   6.657   2.298 -1.1545 -0.3638 -0.8193
 2877TIP3    H2 8596   5.890   6.604   2.158 -2.1328  2.2696 -2.0085
 2878TIP3   OH2 8597   6.898   1.415   5.171  0.3254  0.0498  0.5648
 2878TIP3    H1 8598   6.994   1.414   5.169  0.3204 -0.9614 -1.3360
 2878TIP3    H2 8599   6.873   1.323   5.180 -0.4687  0.2659  0.6227
 2879TIP3   OH2 8600   3.747   5.766   5.547  0.0411  0.1437 -0.0260
 2879TIP3    H1 8601   3.819   5.772   5.610  1.5361 -1.5873 -1.4348
 2879TIP3    H2 8602   3.691   5.696   5.582  0.0049  0.2829  0.1944
 2880TIP3   OH2 8603   1.256   1.300   2.593  0.6337 -0.2245  0.3082
 2880TIP3    H1 8604   1.228   1.237   2.527  0.9684 -2.3496  2.0488
 2880TIP3    H2 8605   1.177   1.320   2.643  0.9045 -0.9189  1.0349
 2881TIP3   OH2 8606   3.723   0.419   1.345  0.1457 -0.6240 -0.2159
 2881TIP3    H1 8607   3.637   0.457   1.360 -0.5939 -1.0819 -2.7559
 2881TIP3    H2 8608   3.757   0.400   1.432 -0.9437  2.4521  1.0168
 2882TIP3   OH2 8609   0.838   1.328   5.235  0.5823 -0.0754  0.8558
 2882TIP3    H1 8610   0.768   1.371   5.186  1.3117  1.8608  1.4136
 2882TIP3    H2 8611   0.917   1.345   5.185  0.8975 -0.8669  1.0594
 2883TIP3   OH2 8612   1.896   4.580   4.520 -0.1182 -0.3269 -0.1412
 2883TIP3    H1 8613   1.946   4.502   4.495  0.4615  0.5021 -1.6885
 2883TIP3    H2 8614   1.906   4.585   4.615 -0.2926 -2.2000  0.0229
 2884TIP3   OH2 8615   1.123   4.313   2.729 -0.3702 -0.3873  0.1041
 2884TIP3    H1 8616   1.087   4.245   2.786 -0.5090 -0.7594 -0.4200
 2884TIP3    H2 8617   1.052   4.334   2.668  0.2199 -1.0196 -0.8411
 2885TIP3   OH2 8618   6.274   6.301   1.481  0.2503 -0.5154 -0.0441
 2885TIP3    H1 8619   6.254   6.228   1.539  0.9465  0.0800  0.9843
 2885TIP3    H2 8620   6.250   6.379   1.531  0.9156  0.0213 -0.5261
 2886TIP3   OH2 8621   2.500   6.135   3.928  0.1182  0.1948 -0.2449
 2886TIP3    H1 8622   2.470   6.186   4.003  0.0993  0.6107 -0.5360
 2886TIP3    H2 8623   2.420   6.104   3.886  0.1332 -0.6360  0.3067
 2887TIP3   OH2 8624   0.981   3.580   1.312 -0.0512 -0.4497 -0.4463
 2887TIP3    H1 8625   0.994   3.488   1.291 -3.2474 -0.6948 -1.8328
 2887TIP3    H2 8626   0.916   3.611   1.249  0.2708  2.5437  0.5219
 2888TIP3   OH2 8627   2.377   5.900   3.626  0.5450 -0.2797 -0.0098
 2888TIP3    H1 8628   2.297   5.865   3.666  1.3118 -1.2860  0.6732
 2888TIP3    H2 8629   2.382   5.991   3.658 -0.1858 -0.2849  0.1370
 2889TIP3   OH2 8630   4.011   6.667   2.860  0.8802 -0.9601 -0.3633
 2889TIP3    H1 8631   4.014   6.665   2.955  2.0547  1.2473 -0.2921
 2889TIP3    H2 8632   3.927   6.707   2.839  1.5637  0.6433 -0.1511
 2890TIP3   OH2 8633   6.581   1.478   3.274 -0.2998 -0.1285 -0.1452
 2890TIP3    H1 8634   6.522   1.552   3.290 -0.5155  0.1522 -1.9967
 2890TIP3    H2 8635   6.528   1.415   3.226  0.3176 -0.8160  0.0570
 2891TIP3   OH2 8636   2.238   4.840   2.622  0.5827 -0.1069  0.0716
 2891TIP3    H1 8637   2.149   4.864   2.647  0.2427 -1.7111  0.4728
 2891TIP3    H2 8638   2.283   4.824   2.705  0.6888 -1.1569 -0.1757
 2892TIP3   OH2 8639   0.094   1.671   3.412  0.2430 -0.1527 -0.3485
 2892TIP3    H1 8640   0.025   1.684   3.476 -0.5271  0.5594 -1.2912
 2892TIP3    H2 8641   0.113   1.578   3.415 -1.7705 -0.6296 -1.0666
 2893TIP3   OH2 8642   3.289   6.611   0.912  0.6611  0.2357 -0.3627
 2893TIP3    H1 8643   3.366   6.613   0.969 -0.4309  0.2669  1.1802
 2893TIP3    H2 8644   3.276   6.518   0.893  0.2152  0.0693  0.6603
 2894TIP3   OH2 8645   4.826   5.550   2.864 -0.5309  0.0981 -0.2635
 2894TIP3    H1 8646   4.863   5.562   2.952  1.7183 -1.3782 -0.9157
 2894TIP3    H2 8647   4.736   5.581   2.872  0.3312  2.4727  1.8833
 2895TIP3   OH2 8648   0.090   5.606   4.693 -0.2813 -0.1774 -0.0756
 2895TIP3    H1 8649   0.120   5.526   4.736 -0.7193 -0.5643 -0.4857
 2895TIP3    H2 8650   0.045   5.576   4.614 -0.6012  0.4628 -0.1452
 2896TIP3   OH2 8651   5.267   6.319   0.767 -0.5656 -0.0143  0.4589
 2896TIP3    H1 8652   5.359   6.344   0.775 -0.4182 -0.4614  0.1761
 2896TIP3    H2 8653   5.263   6.262   0.690 -0.9735 -0.4813  0.8154
 2897TIP3   OH2 8654   6.364   1.985   3.980 -0.6936  0.2123  0.3363
 2897TIP3    H1 8655   6.340   2.003   3.889 -0.4094  2.3164  0.6368
 2897TIP3    H2 8656   6.459   1.981   3.979 -0.7159 -0.6733  0.4223
 2898TIP3   OH2 8657   3.213   4.467   4.548  0.6882 -0.1267 -0.0756
 2898TIP3    H1 8658   3.134   4.426   4.583  0.1752  1.5103  0.8192
 2898TIP3    H2 8659   3.274   4.394   4.534  0.2084 -1.1091  2.3909
 2899TIP3   OH2 8660   1.804   3.561   2.795 -0.0253  0.6333 -0.5783
 2899TIP3    H1 8661   1.868   3.509   2.844  0.9222  1.3617 -1.0173
 2899TIP3    H2 8662   1.804   3.646   2.837  0.4056  1.1028 -1.4886
 2900TIP3   OH2 8663   5.361   0.845   4.776  0.1694 -0.2681  0.1216
 2900TIP3    H1 8664   5.373   0.779   4.844 -0.6340  0.3980  0.9195
 2900TIP3    H2 8665   5.315   0.916   4.819 -0.1947  0.2433 -1.0835
 2901TIP3   OH2 8666   3.255   2.889   2.369  0.4864  0.2010 -0.1430
 2901TIP3    H1 8667   3.332   2.835   2.352  0.4202 -0.1924  0.7393
 2901TIP3    H2 8668   3.180   2.832   2.350  0.4156 -0.0627  0.8567
 2902TIP3   OH2 8669   3.334   5.219   1.990 -0.5992  0.1436 -0.0320
 2902TIP3    H1 8670   3.282   5.232   2.070  0.3622  0.2955  0.5916
 2902TIP3    H2 8671   3.398   5.151   2.014 -0.5238 -0.0601 -0.7891
 2903TIP3   OH2 8672   4.725   1.639   3.172  0.0447 -0.4525  0.2475
 2903TIP3    H1 8673   4.774   1.570   3.129  0.3937  0.2444 -0.5164
 2903TIP3    H2 8674   4.760   1.643   3.261  1.3752  0.0185 -0.2727
 2904TIP3   OH2 8675   3.681   3.511   3.530  0.2722 -0.4325 -0.7691
 2904TIP3    H1 8676   3.708   3.464   3.451 -0.6053 -0.5207 -1.0330
 2904TIP3    H2 8677   3.646   3.594   3.498 -3.5664 -1.8841 -0.9346
 2905TIP3   OH2 8678   0.088   3.196   5.855  0.0084 -0.1545 -0.3279
 2905TIP3    H1 8679   0.138   3.277   5.843  1.1273 -0.7989 -0.1884
 2905TIP3    H2 8680   0.111   3.142   5.779 -0.2587 -0.5722 -0.1146
 2906TIP3   OH2 8681   4.919   0.058   3.329 -0.0178  0.1573 -0.5294
 2906TIP3    H1 8682   5.009   0.081   3.306 -0.2650  0.9265 -0.7514
 2906TIP3    H2 8683   4.889   0.131   3.383  0.0670 -0.9241  1.0672
 2907TIP3   OH2 8684   0.761   3.509   0.531  0.1690 -0.7407  0.2060
 2907TIP3    H1 8685   0.746   3.461   0.450 -1.8990 -0.3891  0.3242
 2907TIP3    H2 8686   0.714   3.592   0.519  0.4610 -0.3722  1.4692
 2908TIP3   OH2 8687   5.939   5.228   5.000 -0.5770 -0.0572 -0.1466
 2908TIP3    H1 8688   5.857   5.277   4.990  0.0853  1.2702  0.6295
 2908TIP3    H2 8689   5.943   5.207   5.093 -0.4773 -0.9463 -0.3449
 2909TIP3   OH2 8690   2.729   1.422   2.947  0.0459 -0.1033 -0.0609
 2909TIP3    H1 8691   2.817   1.396   2.972  0.3732  0.3988 -0.6437
 2909TIP3    H2 8692   2.731   1.518   2.952 -0.3754 -0.0788 -0.3664
 2910TIP3   OH2 8693   0.342   3.319   0.053  0.7555 -0.3135  0.4605
 2910TIP3    H1 8694   0.296   3.276   0.125  0.9171  0.9518  1.3447
 2910TIP3    H2 8695   0.274   3.366   0.006  0.8746  0.0819  0.6833
 2911TIP3   OH2 8696   2.457   6.250   3.395  0.0244 -0.0322  0.4127
 2911TIP3    H1 8697   2.461   6.337   3.435 -0.8436 -0.4485  1.4773
 2911TIP3    H2 8698   2.537   6.206   3.425 -0.1215  0.0084  0.8815
 2912TIP3   OH2 8699   6.277   0.421   2.816  0.1407  0.4521 -0.1082
 2912TIP3    H1 8700   6.251   0.491   2.875  1.8660 -1.5294  3.3471
 2912TIP3    H2 8701   6.205   0.358   2.818 -0.0805  0.6859 -0.6650
 2913TIP3   OH2 8702   4.137   5.978   1.359 -0.0717 -0.0536 -0.1752
 2913TIP3    H1 8703   4.159   5.998   1.450 -1.3071 -0.5498  0.2614
 2913TIP3    H2 8704   4.084   5.898   1.365  0.8155 -0.7623 -1.4410
 2914TIP3   OH2 8705   4.846   4.594   2.519  0.2656  0.1982 -0.2134
 2914TIP3    H1 8706   4.922   4.537   2.527 -0.6559 -1.0730 -0.1730
 2914TIP3    H2 8707   4.824   4.593   2.426 -0.8335 -1.0151  0.0302
 2915TIP3   OH2 8708   6.449   6.688   1.776 -0.0478 -0.1857  0.0653
 2915TIP3    H1 8709   6.491   6.624   1.833 -2.3434 -1.3614  0.5379
 2915TIP3    H2 8710   6.512   6.701   1.705  1.4620 -1.1767  1.1574
 2916TIP3   OH2 8711   2.409   1.202   5.779 -0.0808 -0.0672  0.0718
 2916TIP3    H1 8712   2.367   1.288   5.774  0.6603  0.3137  0.1192
 2916TIP3    H2 8713   2.438   1.195   5.870  1.6671  0.5522 -0.3792
 2917TIP3   OH2 8714   1.818   4.969   0.240 -0.0873  0.3574  0.2554
 2917TIP3    H1 8715   1.851   5.039   0.296  0.1823  0.6128 -0.2139
 2917TIP3    H2 8716   1.828   5.003   0.151  1.1611 -0.7348 -0.0541
 2918TIP3   OH2 8717   3.282   3.786   1.479  0.5142 -0.2547 -0.1145
 2918TIP3    H1 8718   3.308   3.696   1.500 -0.0782 -0.2250  0.7731
 2918TIP3    H2 8719   3.344   3.841   1.527 -1.1946 -0.1804  2.1784
 2919TIP3   OH2 8720   0.772   5.107   0.753 -0.9792 -0.1991 -0.8227
 2919TIP3    H1 8721   0.860   5.127   0.785 -1.8809  0.5437  1.3286
 2919TIP3    H2 8722   0.740   5.189   0.717 -1.1088 -0.2687 -0.8663
 2920TIP3   OH2 8723   0.110   2.568   4.042  0.1831  0.0490 -0.3189
 2920TIP3    H1 8724   0.120   2.477   4.072  0.1916 -0.8658 -2.8825
 2920TIP3    H2 8725   0.134   2.565   3.950 -2.5716  2.1145 -1.2230
 2921TIP3   OH2 8726   4.250   0.727   0.727 -0.0544  0.3357  0.4169
 2921TIP3    H1 8727   4.213   0.653   0.775  0.7225  0.8638  1.8951
 2921TIP3    H2 8728   4.298   0.777   0.793  0.9329  1.1935 -0.8951
 2922TIP3   OH2 8729   2.645   2.062   1.171 -0.1382  0.4353 -0.3962
 2922TIP3    H1 8730   2.740   2.057   1.179 -0.2419  0.3466  0.9434
 2922TIP3    H2 8731   2.625   2.156   1.180 -0.1548  0.4948 -1.0242
 2923TIP3   OH2 8732   3.832   1.636   5.695 -0.1925  0.2448 -0.1290
 2923TIP3    H1 8733   3.746   1.596   5.681  0.5512 -0.9715 -1.5477
 2923TIP3    H2 8734   3.818   1.729   5.676 -1.1913  0.0626 -0.3664
 2924TIP3   OH2 8735   5.989   5.978   2.423  0.3990  0.2134 -0.0553
 2924TIP3    H1 8736   5.997   6.067   2.389  0.0903 -0.2054 -1.2602
 2924TIP3    H2 8737   6.013   5.986   2.516  0.2733  1.5604 -0.1170
 2925TIP3   OH2 8738   6.727   6.520   2.979 -0.1069 -0.2326 -0.4169
 2925TIP3    H1 8739   6.740   6.441   3.031 -1.7327  1.6479  3.2006
 2925TIP3    H2 8740   6.789   6.583   3.015 -1.3040  1.1699 -0.7462
 2926TIP3   OH2 8741   2.879   3.039   3.561 -0.3521 -0.0538  0.3287
 2926TIP3    H1 8742   2.874   2.948   3.531 -1.1478 -0.2202  0.9512
 2926TIP3    H2 8743   2.855   3.091   3.485  0.2858 -0.3487 -0.0836
 2927TIP3   OH2 8744   1.904   4.297   1.614 -0.2509  0.2294  0.2616
 2927TIP3    H1 8745   1.969   4.307   1.544  2.5619 -2.7749  2.1447
 2927TIP3    H2 8746   1.838   4.239   1.576 -0.4826  1.1697 -0.8377
 2928TIP3   OH2 8747   6.535   2.508   1.071  0.3951 -0.4549 -0.1817
 2928TIP3    H1 8748   6.461   2.568   1.062  0.3206 -0.7212 -1.8263
 2928TIP3    H2 8749   6.503   2.425   1.035  1.5046 -0.5467 -1.0153
 2929TIP3   OH2 8750   0.210   2.135   5.259  0.2075  0.4153 -0.9013
 2929TIP3    H1 8751   0.209   2.134   5.354  0.3033  1.2890 -0.8794
 2929TIP3    H2 8752   0.297   2.166   5.236  0.5058 -0.6918 -1.2984
 2930TIP3   OH2 8753   4.768   3.283   5.380 -0.5903 -0.4044  0.6431
 2930TIP3    H1 8754   4.732   3.195   5.391 -1.8340 -0.0153 -0.2023
 2930TIP3    H2 8755   4.737   3.332   5.457  0.0415 -0.6657  1.0758
 2931TIP3   OH2 8756   1.032   0.993   2.154 -0.1109 -0.1191  0.3857
 2931TIP3    H1 8757   0.938   0.975   2.157 -0.2737  0.6640  2.7547
 2931TIP3    H2 8758   1.069   0.933   2.219  0.8904  0.2418  0.1603
 2932TIP3   OH2 8759   1.245   1.448   0.349 -0.2968  0.1941 -0.2529
 2932TIP3    H1 8760   1.339   1.453   0.330 -0.4597 -0.0367 -1.1588
 2932TIP3    H2 8761   1.208   1.526   0.307 -0.3477  0.9901  1.2134
 2933TIP3   OH2 8762   6.730   3.148   5.772 -0.0759 -0.6292 -0.3479
 2933TIP3    H1 8763   6.684   3.067   5.751  2.3773 -2.3719  0.6759
 2933TIP3    H2 8764   6.681   3.185   5.846 -1.4312 -0.9268 -1.0679
 2934TIP3   OH2 8765   6.916   6.008   0.394 -0.3889  0.5142  0.0764
 2934TIP3    H1 8766   7.007   6.008   0.365 -0.1117 -0.1722  0.9151
 2934TIP3    H2 8767   6.878   5.930   0.352 -0.6121  0.8295 -0.3164
 2935TIP3   OH2 8768   4.507   2.838   2.673 -0.0760 -0.1475 -0.1653
 2935TIP3    H1 8769   4.537   2.831   2.764  1.0915 -1.5273 -0.6135
 2935TIP3    H2 8770   4.411   2.843   2.680  0.0251  0.4670  1.1495
 2936TIP3   OH2 8771   5.436   1.660   0.250  0.3366 -0.3180  0.3570
 2936TIP3    H1 8772   5.376   1.599   0.208 -0.8103  0.8985  0.1759
 2936TIP3    H2 8773   5.409   1.661   0.342  0.1152  0.1979  0.2857
 2937TIP3   OH2 8774   2.937   2.957   0.330 -0.4242  0.0174  0.2860
 2937TIP3    H1 8775   2.933   3.021   0.401 -1.4986  1.3060 -0.8763
 2937TIP3    H2 8776   2.862   2.900   0.345 -0.2347 -0.1593  0.5754
 2938TIP3   OH2 8777   4.838   6.479   1.085  0.4395  0.0009 -0.0186
 2938TIP3    H1 8778   4.907   6.545   1.083  0.8100 -0.3558  0.5654
 2938TIP3    H2 8779   4.827   6.459   1.178 -0.2277 -0.1786 -0.1318
 2939TIP3   OH2 8780   3.531   4.605   1.489 -0.0607  0.2953  0.0533
 2939TIP3    H1 8781   3.552   4.576   1.578  1.3732 -0.3519 -0.4808
 2939TIP3    H2 8782   3.584   4.683   1.475  0.5662 -0.2373 -0.6185
 2940TIP3   OH2 8783   6.852   6.143   0.619  0.6450 -0.0922  0.5393
 2940TIP3    H1 8784   6.933   6.127   0.667  0.3950 -1.8102  0.4475
 2940TIP3    H2 8785   6.869   6.107   0.532 -0.0789 -0.0587  0.3820
 2941TIP3   OH2 8786   3.071   1.988   1.452  0.1174 -0.1353  0.3756
 2941TIP3    H1 8787   3.108   1.928   1.387  1.4691 -0.3369  1.3028
 2941TIP3    H2 8788   3.089   2.075   1.417  1.5707 -0.2263  0.8360
 2942TIP3   OH2 8789   4.349   3.693   3.110  0.2549  0.0022  0.7842
 2942TIP3    H1 8790   4.268   3.669   3.156 -0.4977  1.1118  0.0846
 2942TIP3    H2 8791   4.347   3.788   3.107  0.3911 -0.0239 -1.3302
 2943TIP3   OH2 8792   3.644   3.484   4.199 -0.3671 -0.3493  0.0399
 2943TIP3    H1 8793   3.723   3.431   4.207 -1.0690 -1.3542  0.5567
 2943TIP3    H2 8794   3.673   3.573   4.221  0.1237 -1.1240  2.9567
 2944TIP3   OH2 8795   5.175   5.728   0.267 -0.2065 -0.7410 -0.3103
 2944TIP3    H1 8796   5.183   5.771   0.352 -0.2893 -1.1109 -0.1120
 2944TIP3    H2 8797   5.087   5.749   0.237  0.5815  1.2927 -1.3668
 2945TIP3   OH2 8798   4.762   6.347   2.329  0.4135  0.3069  0.5108
 2945TIP3    H1 8799   4.732   6.269   2.375 -0.6292 -0.3128 -1.1340
 2945TIP3    H2 8800   4.857   6.343   2.335  0.3363 -0.4244  1.4881
 2946TIP3   OH2 8801   1.518   0.673   0.856  0.2965 -0.1247 -0.5640
 2946TIP3    H1 8802   1.540   0.591   0.899 -0.2685  0.5065  1.0083
 2946TIP3    H2 8803   1.574   0.739   0.898 -3.0576  1.2143  2.3289
 2947TIP3   OH2 8804   0.735   0.812   0.803 -0.8019  0.1365 -0.1319
 2947TIP3    H1 8805   0.827   0.786   0.804 -0.6522  0.5394 -1.5122
 2947TIP3    H2 8806   0.689   0.735   0.771 -0.7729  0.3898 -0.7937
 2948TIP3   OH2 8807   0.983   2.545   5.624 -0.0584  0.5331  0.0165
 2948TIP3    H1 8808   0.911   2.594   5.663  0.1791 -0.9663  2.6195
 2948TIP3    H2 8809   0.954   2.454   5.626  0.8086  0.1824 -1.5713
 2949TIP3   OH2 8810   6.664   0.801   1.515  0.0712 -0.5027 -0.2248
 2949TIP3    H1 8811   6.664   0.893   1.487  0.1711 -0.7332 -1.0020
 2949TIP3    H2 8812   6.754   0.772   1.502 -0.2127 -1.0377 -1.1335
 2950TIP3   OH2 8813   6.844   5.404   5.550  0.3418  0.4005 -0.5378
 2950TIP3    H1 8814   6.787   5.408   5.473 -2.5142  2.3664  1.4395
 2950TIP3    H2 8815   6.786   5.375   5.621  2.3688  0.4505  1.2316
 2951TIP3   OH2 8816   5.040   4.459   1.644 -0.0207  0.5396  0.2247
 2951TIP3    H1 8817   5.129   4.477   1.613 -0.6636  0.9061 -1.5467
 2951TIP3    H2 8818   5.043   4.367   1.672  0.4420 -0.1152 -1.8052
 2952TIP3   OH2 8819   5.856   4.182   1.255 -0.2858 -1.1567 -0.2014
 2952TIP3    H1 8820   5.917   4.225   1.194 -0.0161  1.7307  1.8963
 2952TIP3    H2 8821   5.770   4.196   1.216 -0.0579 -0.0246 -0.3232
 2953TIP3   OH2 8822   0.101   5.478   0.803 -0.2638  0.0612  0.2179
 2953TIP3    H1 8823   0.057   5.448   0.883 -0.5631 -0.3436 -0.0961
 2953TIP3    H2 8824   0.030   5.501   0.743 -0.0409  0.3062  0.0480
 2954TIP3   OH2 8825   5.995   1.909   4.663  0.5714 -0.5661 -0.4764
 2954TIP3    H1 8826   5.974   1.958   4.583 -1.0423 -0.0113  0.2635
 2954TIP3    H2 8827   5.982   1.817   4.638 -1.2033 -0.3344 -0.5302
 2955TIP3   OH2 8828   5.450   5.290   0.836  0.0019 -0.0093  0.7250
 2955TIP3    H1 8829   5.525   5.320   0.785 -0.2373  0.5782  0.7073
 2955TIP3    H2 8830   5.434   5.361   0.899 -0.3834 -0.2404  0.8941
 2956TIP3   OH2 8831   3.289   0.022   1.164  0.2703 -0.0363 -0.1453
 2956TIP3    H1 8832   3.319   0.091   1.224 -0.3693  0.0646  0.0632
 2956TIP3    H2 8833   3.328  -0.058   1.199  0.2255  0.0813  0.1796
 2957TIP3   OH2 8834   3.951   0.443   3.484 -0.0158  0.2357  0.1313
 2957TIP3    H1 8835   3.932   0.445   3.577  1.5302  1.8906  0.4761
 2957TIP3    H2 8836   4.032   0.494   3.475  0.6670 -1.0674 -1.9334
 2958TIP3   OH2 8837   5.072   4.224   1.307 -0.1349  0.3747 -0.9355
 2958TIP3    H1 8838   5.098   4.314   1.288 -4.3382  2.5772  2.1231
 2958TIP3    H2 8839   5.119   4.203   1.388 -0.8570  0.7696 -0.4029
 2959TIP3   OH2 8840   1.481   4.317   0.735  0.8415 -0.3260 -0.4323
 2959TIP3    H1 8841   1.526   4.247   0.688 -0.9669 -0.8628 -1.4835
 2959TIP3    H2 8842   1.541   4.391   0.730  2.1985 -1.3807 -0.5202
 2960TIP3   OH2 8843   3.781   6.309   1.718 -0.3123  0.5143  0.2131
 2960TIP3    H1 8844   3.818   6.379   1.773 -1.6360  2.4968 -1.2652
 2960TIP3    H2 8845   3.722   6.262   1.776 -1.7030  2.5828  0.5961
 2961TIP3   OH2 8846   4.045   1.004   4.155  0.4356 -0.4046  0.0199
 2961TIP3    H1 8847   4.030   0.990   4.062 -0.6008 -1.5364  0.3335
 2961TIP3    H2 8848   4.119   0.947   4.177  0.1005 -0.8259  0.0647
 2962TIP3   OH2 8849   3.249   6.020   1.419 -0.2603 -0.1680 -0.5328
 2962TIP3    H1 8850   3.324   5.971   1.386 -0.2909 -1.3936  1.0617
 2962TIP3    H2 8851   3.210   6.061   1.342  0.9481 -1.0371 -1.6389
 2963TIP3   OH2 8852   4.146   4.064   0.799 -0.0393 -0.1265  0.7654
 2963TIP3    H1 8853   4.057   4.095   0.818 -0.8020 -0.0922 -2.2512
 2963TIP3    H2 8854   4.178   4.029   0.882 -3.0707 -0.6074  1.8668
 2964TIP3   OH2 8855   6.016   3.906   0.944  0.0302 -0.0135  0.4780
 2964TIP3    H1 8856   5.949   3.844   0.973 -0.9107  0.7246 -0.0413
 2964TIP3    H2 8857   6.073   3.918   1.020  0.9150 -2.3433  0.2620
 2965TIP3   OH2 8858   1.646   2.307   4.928 -0.1990 -0.3943  0.5330
 2965TIP3    H1 8859   1.673   2.322   4.838  2.1361 -0.4291  1.1823
 2965TIP3    H2 8860   1.551   2.294   4.922 -0.2330  0.4368 -1.7911
 2966TIP3   OH2 8861   2.333   3.774   5.861  0.1613  0.0293 -0.1374
 2966TIP3    H1 8862   2.378   3.783   5.945  2.0203 -1.1829 -0.9470
 2966TIP3    H2 8863   2.396   3.804   5.796 -0.7149 -0.3701 -1.2038
 2967TIP3   OH2 8864   2.986   2.965   5.183  0.3619 -0.0102  0.1588
 2967TIP3    H1 8865   3.033   2.986   5.264  1.8911  0.1689 -0.7322
 2967TIP3    H2 8866   2.955   3.050   5.150 -0.7557 -0.1434  0.8176
 2968TIP3   OH2 8867   0.628   1.912   4.350  0.1459  0.1501 -0.3860
 2968TIP3    H1 8868   0.536   1.900   4.374  0.7639 -1.6891  1.4172
 2968TIP3    H2 8869   0.643   1.848   4.281  0.0096  0.6394 -0.8697
 2969TIP3   OH2 8870   2.886   5.808   3.172 -0.6070  0.1033 -0.0017
 2969TIP3    H1 8871   2.978   5.787   3.185 -0.2975  1.9028  1.0954
 2969TIP3    H2 8872   2.843   5.723   3.164  1.0853 -0.7807 -0.2159
 2970TIP3   OH2 8873   5.257   5.228   3.767  0.1840 -0.3254 -0.1055
 2970TIP3    H1 8874   5.321   5.267   3.826 -1.3312  0.4775  1.0644
 2970TIP3    H2 8875   5.296   5.144   3.742  2.3858  0.7796 -0.7035
 2971TIP3   OH2 8876   1.963   5.422   5.351  0.6536 -0.0761  0.0094
 2971TIP3    H1 8877   1.981   5.477   5.274  1.7382  2.2663  1.8122
 2971TIP3    H2 8878   2.000   5.337   5.329  1.5650  0.7318 -1.7852
 2972TIP3   OH2 8879   5.611   2.788   0.087  0.2474 -0.2431 -0.0392
 2972TIP3    H1 8880   5.658   2.715   0.048 -0.7564 -1.1738  0.4277
 2972TIP3    H2 8881   5.546   2.747   0.145 -1.3074  0.9541 -0.8505
 2973TIP3   OH2 8882   1.693   2.276   1.369 -0.0219  0.3991  0.1414
 2973TIP3    H1 8883   1.659   2.332   1.439  3.5185 -0.6732  3.0334
 2973TIP3    H2 8884   1.756   2.331   1.322 -0.8442  0.4822 -0.9115
 2974TIP3   OH2 8885   5.913   4.899   3.453 -0.1027 -0.3986 -0.2927
 2974TIP3    H1 8886   5.867   4.836   3.398 -0.3115 -1.3331  0.9149
 2974TIP3    H2 8887   5.940   4.849   3.530 -0.2210  0.9694  0.6841
 2975TIP3   OH2 8888   4.241   2.720   0.965  0.0860 -0.8088 -0.4726
 2975TIP3    H1 8889   4.303   2.714   0.892  0.0120 -1.7895 -0.4716
 2975TIP3    H2 8890   4.165   2.765   0.929 -0.1832 -1.8069 -1.1711
 2976TIP3   OH2 8891   1.951   6.165   0.714 -0.6140  0.0664 -0.0499
 2976TIP3    H1 8892   2.003   6.146   0.636 -1.0736 -0.6954 -0.1862
 2976TIP3    H2 8893   1.981   6.251   0.743 -0.5144  0.4066 -1.1325
 2977TIP3   OH2 8894   4.709   4.424   1.059 -0.3900 -0.2041  0.0043
 2977TIP3    H1 8895   4.620   4.396   1.037 -0.9051  0.6104  0.9503
 2977TIP3    H2 8896   4.730   4.374   1.139 -0.3027  0.1719  0.2163
 2978TIP3   OH2 8897   3.307   6.118   3.787  0.3559  0.3167 -0.1078
 2978TIP3    H1 8898   3.234   6.180   3.787 -0.0605 -0.0976 -2.4303
 2978TIP3    H2 8899   3.384   6.172   3.808 -0.1984  1.3443 -0.6473
 2979TIP3   OH2 8900   5.614   4.501   4.656 -0.2758 -0.3333 -0.7721
 2979TIP3    H1 8901   5.682   4.442   4.687 -1.0271 -1.3075 -0.9077
 2979TIP3    H2 8902   5.560   4.446   4.598 -0.2768  0.8178 -1.9015
 2980TIP3   OH2 8903   2.649   1.730   5.311 -0.4940  0.0229  0.4023
 2980TIP3    H1 8904   2.606   1.665   5.366  0.6744  0.0518  1.3668
 2980TIP3    H2 8905   2.609   1.717   5.224 -1.0814 -1.2117  0.8315
 2981TIP3   OH2 8906   4.845   3.048   2.274  0.0679  0.1325  0.0213
 2981TIP3    H1 8907   4.867   3.089   2.358  0.2312 -0.6428  0.3620
 2981TIP3    H2 8908   4.917   3.073   2.216  1.4546 -1.6369  0.8859
 2982TIP3   OH2 8909   6.680   5.018   1.759  0.0471  0.7180 -0.0631
 2982TIP3    H1 8910   6.701   5.073   1.834  0.9759 -1.0204  1.0117
 2982TIP3    H2 8911   6.760   4.968   1.741 -0.4084  0.4950 -1.6978
 2983TIP3   OH2 8912   3.419   2.782   4.528 -0.2286 -0.6046  0.3642
 2983TIP3    H1 8913   3.344   2.790   4.469 -1.0874 -0.5689  1.4242
 2983TIP3    H2 8914   3.488   2.834   4.487 -1.3438  0.8133  0.2363
 2984TIP3   OH2 8915   4.078   4.809   5.350  0.5887  0.1494  0.4413
 2984TIP3    H1 8916   4.145   4.743   5.368 -1.1477 -1.4123  1.5685
 2984TIP3    H2 8917   4.088   4.874   5.419  0.7628 -0.2249  0.7726
 2985TIP3   OH2 8918   1.329   0.503   5.873  0.0859  0.0726 -0.4387
 2985TIP3    H1 8919   1.266   0.574   5.861 -0.1975  0.5841  3.0088
 2985TIP3    H2 8920   1.284   0.425   5.842 -1.3727  0.7752 -0.1507
 2986TIP3   OH2 8921   4.152   3.087   3.722  0.3273  0.2351 -0.0294
 2986TIP3    H1 8922   4.205   3.049   3.791 -0.0521 -1.4866 -0.6138
 2986TIP3    H2 8923   4.067   3.043   3.731 -0.2297  1.1767 -0.5819
 2987TIP3   OH2 8924   3.558   0.231   0.147 -0.3740 -0.7170 -0.1951
 2987TIP3    H1 8925   3.607   0.305   0.182  0.4161 -0.4801 -1.7061
 2987TIP3    H2 8926   3.620   0.185   0.091 -1.1786 -1.8737 -0.1817
 2988TIP3   OH2 8927   2.146   0.912   4.833 -0.0442 -0.0765  0.0674
 2988TIP3    H1 8928   2.114   0.906   4.923  1.4969 -4.5469  0.5693
 2988TIP3    H2 8929   2.236   0.879   4.838  1.5018  3.1251 -2.6575
 2989TIP3   OH2 8930   4.964   3.701   1.189 -0.2713  0.1206 -0.0054
 2989TIP3    H1 8931   4.957   3.786   1.146 -1.3521  1.0942  1.9789
 2989TIP3    H2 8932   5.039   3.709   1.248  0.5179 -0.8181 -0.8412
 2990TIP3   OH2 8933   4.525   5.648   3.150 -0.3258 -0.5731 -0.1407
 2990TIP3    H1 8934   4.612   5.622   3.183 -0.1164 -0.8645 -0.8852
 2990TIP3    H2 8935   4.464   5.591   3.197 -0.0921 -0.5225  0.2272
 2991TIP3   OH2 8936   1.211   5.182   1.326  0.0440  0.3157  0.2241
 2991TIP3    H1 8937   1.120   5.154   1.339  0.1339  0.2858  0.8284
 2991TIP3    H2 8938   1.234   5.225   1.409  0.8510 -0.4116  0.3825
 2992TIP3   OH2 8939   6.073   0.701   1.200  0.3124  0.3840  0.3727
 2992TIP3    H1 8940   6.046   0.742   1.118 -1.3328 -3.6006 -1.3109
 2992TIP3    H2 8941   6.009   0.732   1.265 -1.0987  0.2020 -0.8829
 2993TIP3   OH2 8942   5.773   1.686   0.338 -0.4659  0.5543 -0.5306
 2993TIP3    H1 8943   5.779   1.630   0.261  0.0162 -0.9470  0.5575
 2993TIP3    H2 8944   5.864   1.707   0.360 -0.4234 -1.0125  0.9915
 2994TIP3   OH2 8945   5.399   3.643   5.569  0.1234  0.3527 -0.3149
 2994TIP3    H1 8946   5.412   3.577   5.501 -2.7729 -0.1253 -0.5365
 2994TIP3    H2 8947   5.304   3.648   5.580  0.4135  1.3518  2.8097
 2995TIP3   OH2 8948   5.437   6.462   1.400  0.5707  0.2825  0.6544
 2995TIP3    H1 8949   5.452   6.409   1.322 -0.4095 -2.0381  1.9640
 2995TIP3    H2 8950   5.406   6.546   1.365  0.6821 -0.4889 -1.4630
 2996TIP3   OH2 8951   2.279   2.181   4.139  0.0687 -0.2859  0.0996
 2996TIP3    H1 8952   2.314   2.094   4.123  0.8609 -0.2042  1.2183
 2996TIP3    H2 8953   2.240   2.208   4.056 -1.0418 -2.0719 -0.0052
 2997TIP3   OH2 8954   0.234   0.014   1.236  0.4404  0.1387  0.0410
 2997TIP3    H1 8955   0.283   0.094   1.257  0.7011  0.4788 -1.6890
 2997TIP3    H2 8956   0.142   0.043   1.235  0.3769  0.0152  1.0461
 2998TIP3   OH2 8957   3.870   5.672   0.354 -0.0716  0.2655 -0.4242
 2998TIP3    H1 8958   3.798   5.646   0.412  0.3927  1.1895  0.6101
 2998TIP3    H2 8959   3.940   5.697   0.415  0.8041  0.2556 -1.4103
 2999TIP3   OH2 8960   6.013   2.478   5.448 -0.0778 -0.0197 -0.1476
 2999TIP3    H1 8961   5.954   2.519   5.512  0.5238  1.2902 -0.4035
 2999TIP3    H2 8962   6.003   2.384   5.463 -1.7269  0.1932  0.2652
 3000TIP3   OH2 8963   6.138   4.285   4.694 -0.5861  0.2822  0.1716
 3000TIP3    H1 8964   6.137   4.194   4.724 -1.8525 -1.1113 -3.4824
 3000TIP3    H2 8965   6.213   4.290   4.635 -1.2821  1.1954 -0.6683
 3001TIP3   OH2 8966   0.375   4.105   0.732 -0.5266 -0.1806  0.3243
 3001TIP3    H1 8967   0.351   4.048   0.805 -2.2033 -1.0538 -0.8405
 3001TIP3    H2 8968   0.300   4.163   0.722 -0.3587 -0.1341 -0.7442
 3002TIP3   OH2 8969   6.659   5.755   1.152 -0.2484 -0.3063 -0.2350
 3002TIP3    H1 8970   6.670   5.847   1.127  0.9412 -0.6517 -1.0546
 3002TIP3    H2 8971   6.744   5.730   1.189 -0.4176 -1.2074 -0.4412
 3003TIP3   OH2 8972   1.557   2.672   3.520 -0.0842  0.0807 -0.8926
 3003TIP3    H1 8973   1.638   2.689   3.570 -1.1911  0.5827  0.8086
 3003TIP3    H2 8974   1.563   2.579   3.498  0.9547  0.1073 -0.7980
 3004TIP3   OH2 8975   0.416   3.022   4.292 -0.2423 -0.0791 -0.4587
 3004TIP3    H1 8976   0.440   2.942   4.338  0.8769 -0.8494 -2.2438
 3004TIP3    H2 8977   0.345   3.059   4.343  1.4799 -0.3807  2.3208
 3005TIP3   OH2 8978   0.446   3.160   1.023 -0.4198  0.2791 -0.2375
 3005TIP3    H1 8979   0.351   3.151   1.022 -0.3320 -0.7518 -0.4260
 3005TIP3    H2 8980   0.473   3.135   0.935  0.3454 -3.8502  0.9702
 3006TIP3   OH2 8981   2.803   0.066   3.435  0.6413  0.0749 -1.1630
 3006TIP3    H1 8982   2.737  -0.003   3.425  0.5490  0.0883 -0.6568
 3006TIP3    H2 8983   2.874   0.039   3.376  0.4379 -0.2521 -1.2632
 3007TIP3   OH2 8984   7.081   2.519   1.123  0.4873  0.0006 -0.6849
 3007TIP3    H1 8985   7.133   2.438   1.122  1.5030  0.5802  0.9939
 3007TIP3    H2 8986   7.114   2.570   1.050  0.7813 -0.5414 -0.9339
 3008TIP3   OH2 8987   6.321   1.183   0.489  0.3079 -0.2312  0.6643
 3008TIP3    H1 8988   6.231   1.216   0.492  0.9428  1.7662 -0.4477
 3008TIP3    H2 8989   6.367   1.244   0.431  2.7144 -0.3279  2.3174
 3009TIP3   OH2 8990   4.881   2.728   2.187  0.5546  0.2581 -0.2259
 3009TIP3    H1 8991   4.789   2.710   2.164 -0.2274  1.3517  1.8104
 3009TIP3    H2 8992   4.900   2.811   2.144 -0.0105  0.9176  0.7603
 3010TIP3   OH2 8993   0.046   2.206   5.053 -1.2366  0.1119 -0.0331
 3010TIP3    H1 8994   0.128   2.215   5.004 -0.8409 -0.4114  0.5232
 3010TIP3    H2 8995   0.074   2.193   5.144 -1.9319 -0.5548  0.0877
 3011TIP3   OH2 8996   3.854   5.597   5.354  0.4435 -0.2983  0.4616
 3011TIP3    H1 8997   3.800   5.655   5.408 -0.4520  0.3700 -1.0893
 3011TIP3    H2 8998   3.898   5.656   5.293  1.6161 -1.0104  0.5960
 3012TIP3   OH2 8999   2.987   3.415   2.183  0.1650 -0.5622  0.1403
 3012TIP3    H1 9000   2.924   3.364   2.131  0.6533  0.0388 -1.0652
 3012TIP3    H2 9001   3.014   3.485   2.125 -0.6903  1.2823  1.8672
 3013TIP3   OH2 9002   0.368   6.419   5.746 -0.0914 -0.0729  0.5779
 3013TIP3    H1 9003   0.380   6.505   5.707  0.1134 -0.1702  0.4266
 3013TIP3    H2 9004   0.441   6.367   5.713  0.3853 -0.0102  1.4944
 3014TIP3   OH2 9005   3.203   3.612   4.002  0.0603  0.5184 -0.3517
 3014TIP3    H1 9006   3.171   3.625   4.091  1.5450  1.3101  0.1021
 3014TIP3    H2 9007   3.277   3.552   4.011 -0.6120 -0.4893 -1.2480
 3015TIP3   OH2 9008   6.925   1.944   1.143 -0.0269  0.3655  0.2112
 3015TIP3    H1 9009   6.951   2.018   1.088 -1.7943  2.4600  2.0265
 3015TIP3    H2 9010   6.849   1.907   1.099 -0.5297  1.0979  0.4453
 3016TIP3   OH2 9011   2.460   4.064   2.176  0.2967 -0.1876 -0.1180
 3016TIP3    H1 9012   2.506   3.984   2.149  1.2139  0.1223  0.4985
 3016TIP3    H2 9013   2.495   4.132   2.119 -0.6150 -0.2308 -0.7632
 3017TIP3   OH2 9014   1.820   0.550   1.791 -0.6234 -0.5893 -0.4765
 3017TIP3    H1 9015   1.874   0.604   1.848 -0.8590  0.4945 -1.2666
 3017TIP3    H2 9016   1.877   0.476   1.767  0.2200  0.0951 -0.6203
 3018TIP3   OH2 9017  -0.006   3.975   4.330 -0.2179 -0.4156 -0.0191
 3018TIP3    H1 9018   0.045   4.040   4.377 -1.5908  0.3304  0.4893
 3018TIP3    H2 9019  -0.005   3.898   4.387 -0.5850 -0.0303  0.5146
 3019TIP3   OH2 9020   1.986   5.242   2.977 -0.5865 -0.4656 -0.0452
 3019TIP3    H1 9021   1.921   5.246   2.906  0.2675 -0.1570 -0.8220
 3019TIP3    H2 9022   2.046   5.173   2.950  1.4105  1.5641 -1.1083
 3020TIP3   OH2 9023   2.026   3.694   2.335  0.3276  0.1278  0.3040
 3020TIP3    H1 9024   2.075   3.731   2.262  1.3100 -2.1246 -0.2556
 3020TIP3    H2 9025   2.026   3.763   2.402 -0.9825  2.4449 -1.9016
 3021TIP3   OH2 9026   4.615   2.583   3.464  0.3433 -0.5075 -0.3104
 3021TIP3    H1 9027   4.527   2.620   3.457 -0.1306 -1.0588  1.8842
 3021TIP3    H2 9028   4.620   2.520   3.392 -1.3019 -0.9093 -0.1207
 3022TIP3   OH2 9029   6.733   0.435   2.053 -1.0380  0.1312  0.7293
 3022TIP3    H1 9030   6.819   0.475   2.057 -0.2384 -1.2093 -1.4338
 3022TIP3    H2 9031   6.693   0.470   1.973 -1.9926 -0.2179  1.0277
 3023TIP3   OH2 9032   3.787   5.513   3.941  0.2005 -0.5445 -0.2294
 3023TIP3    H1 9033   3.762   5.533   3.851 -0.7763 -0.8948 -0.0455
 3023TIP3    H2 9034   3.704   5.511   3.989  0.8319  1.5958  1.0842
 3024TIP3   OH2 9035   1.915   1.318   1.896  0.0813  0.5060  0.0006
 3024TIP3    H1 9036   1.876   1.239   1.935  0.5716  0.6168  0.7275
 3024TIP3    H2 9037   1.916   1.299   1.802  2.6655 -1.5383  0.3063
 3025TIP3   OH2 9038   4.681   1.860   0.907 -0.5704 -0.6728 -0.0028
 3025TIP3    H1 9039   4.595   1.835   0.939 -0.1398 -0.1272  1.7105
 3025TIP3    H2 9040   4.737   1.857   0.985  0.3561  1.6677 -0.5127
 3026TIP3   OH2 9041   0.844   1.948   2.450  0.0297  0.0490 -0.4251
 3026TIP3    H1 9042   0.822   2.017   2.513 -0.8026 -2.4071  2.1652
 3026TIP3    H2 9043   0.761   1.930   2.405 -0.4327 -0.9650  0.7675
 3027TIP3   OH2 9044   4.792   4.490   3.958 -0.2446 -0.5255 -0.1737
 3027TIP3    H1 9045   4.858   4.429   3.927 -0.1061  0.0949 -1.1346
 3027TIP3    H2 9046   4.825   4.576   3.933 -1.3330 -0.1894 -0.5244
 3028TIP3   OH2 9047   6.074   6.106   3.666  0.7035  0.2050  0.1211
 3028TIP3    H1 9048   6.040   6.016   3.663 -0.8096  0.6530  1.9175
 3028TIP3    H2 9049   6.081   6.132   3.574  0.5748 -1.5168 -0.4168
 3029TIP3   OH2 9050   1.535   6.113   0.055  0.1864  0.5497 -0.2126
 3029TIP3    H1 9051   1.499   6.084  -0.029  2.6378 -1.6945 -0.6308
 3029TIP3    H2 9052   1.461   6.105   0.117 -0.8130 -0.9907 -1.5268
 3030TIP3   OH2 9053   5.291   5.741   2.410 -0.7953 -0.9499 -0.9876
 3030TIP3    H1 9054   5.319   5.679   2.477 -0.7580 -1.0741 -1.1168
 3030TIP3    H2 9055   5.367   5.751   2.353 -0.9596 -1.1690 -1.2512
 3031TIP3   OH2 9056   2.426   5.556   2.278 -0.3385 -0.0486 -0.1313
 3031TIP3    H1 9057   2.411   5.648   2.256 -2.0463 -0.6843 -1.8525
 3031TIP3    H2 9058   2.510   5.534   2.236  1.5668  1.3526  2.6034
 3032TIP3   OH2 9059   0.182   3.170   0.789  0.2121  0.0130  0.2052
 3032TIP3    H1 9060   0.268   3.206   0.770  0.4458 -0.9919 -0.7543
 3032TIP3    H2 9061   0.166   3.192   0.881  1.1757  0.8214  0.1839
 3033TIP3   OH2 9062   6.312   1.653   2.983  0.7174  0.2567 -0.7518
 3033TIP3    H1 9063   6.236   1.601   2.957  1.8222 -1.6903 -0.2716
 3033TIP3    H2 9064   6.367   1.654   2.904  0.7335  0.6670 -0.7368
 3034TIP3   OH2 9065   7.064   3.719   0.663  0.4765  0.5037 -0.6138
 3034TIP3    H1 9066   7.032   3.762   0.584 -0.3953 -0.3078 -0.7262
 3034TIP3    H2 9067   7.146   3.677   0.636  1.9757  2.9876 -0.2080
 3035TIP3   OH2 9068   4.472   2.413   3.256  0.3917 -1.3772 -0.6047
 3035TIP3    H1 9069   4.545   2.352   3.260 -0.1538 -1.9655  0.8246
 3035TIP3    H2 9070   4.403   2.372   3.307  0.8719  1.5603  2.7790
 3036TIP3   OH2 9071   4.747   0.101   1.515  0.1185 -0.3765  0.4430
 3036TIP3    H1 9072   4.776   0.168   1.577 -0.2124  0.9480 -0.7690
 3036TIP3    H2 9073   4.717   0.029   1.570 -0.3966  0.8432  1.8342
 3037TIP3   OH2 9074   5.323   1.604   0.501  0.2263  0.7755  0.2006
 3037TIP3    H1 9075   5.396   1.581   0.557 -1.0965  0.4650  1.8667
 3037TIP3    H2 9076   5.259   1.534   0.514 -1.1784  2.0317  0.3204
 3038TIP3   OH2 9077   4.458   3.398   1.594  0.1202 -0.3353 -0.2618
 3038TIP3    H1 9078   4.515   3.363   1.662 -1.3067 -0.4890  0.9054
 3038TIP3    H2 9079   4.397   3.456   1.640  0.1801  0.9143 -1.6570
 3039TIP3   OH2 9080   0.400   6.413   0.862  0.2298  0.0285  0.3321
 3039TIP3    H1 9081   0.379   6.471   0.935  0.4734 -0.7112  1.0010
 3039TIP3    H2 9082   0.344   6.337   0.875 -0.2624  0.2048 -0.6723
 3040TIP3   OH2 9083   1.334   3.726   5.714  0.2514 -0.2052 -0.2454
 3040TIP3    H1 9084   1.399   3.794   5.726  0.1939  0.0992 -1.5121
 3040TIP3    H2 9085   1.262   3.769   5.667  0.1899 -1.1072 -1.0197
 3041TIP3   OH2 9086   5.467   4.101   5.279  0.4201 -0.4553 -0.2187
 3041TIP3    H1 9087   5.422   4.180   5.309  0.2944 -0.0342 -1.4539
 3041TIP3    H2 9088   5.407   4.029   5.301  0.1482 -0.1244  0.1388
 3042TIP3   OH2 9089   2.910  -0.025   5.153  0.3053  0.4797  0.5243
 3042TIP3    H1 9090   2.840   0.032   5.120  1.7698  0.7077 -2.4636
 3042TIP3    H2 9091   2.986   0.032   5.160  1.5016 -0.7626 -1.4042
 3043TIP3   OH2 9092   0.463   0.892   4.365 -0.0814  0.7095  0.3427
 3043TIP3    H1 9093   0.480   0.800   4.385 -2.1831 -0.0922 -1.2444
 3043TIP3    H2 9094   0.538   0.919   4.311 -0.1623 -0.5302 -0.4280
 3044TIP3   OH2 9095   1.741   3.659   0.318  0.4036  0.3334  0.9231
 3044TIP3    H1 9096   1.785   3.643   0.235 -0.2717 -0.7236  0.7340
 3044TIP3    H2 9097   1.769   3.587   0.375  1.1498  1.2486  1.7528
 3045TIP3   OH2 9098   1.125   0.459   3.691  0.1969  0.5200  0.7393
 3045TIP3    H1 9099   1.198   0.465   3.752  2.0759 -0.5221 -1.2644
 3045TIP3    H2 9100   1.164   0.430   3.609 -1.8616  3.5802 -1.5631
 3046TIP3   OH2 9101   2.144   2.402   2.917 -0.4763  0.3274 -0.0285
 3046TIP3    H1 9102   2.233   2.420   2.947  0.0219  0.3044 -1.4512
 3046TIP3    H2 9103   2.117   2.481   2.871 -0.1516 -0.6077 -1.9358
 3047TIP3   OH2 9104   1.148   1.746   4.868 -0.6396 -0.3643 -0.0563
 3047TIP3    H1 9105   1.226   1.776   4.914 -0.8772 -1.4892  1.1286
 3047TIP3    H2 9106   1.182   1.696   4.793 -0.1907 -1.5490  0.9147
 3048TIP3   OH2 9107   5.681   0.884  -0.026  0.4857  0.2314  0.3378
 3048TIP3    H1 9108   5.663   0.972   0.008  1.1656  0.4408  0.1741
 3048TIP3    H2 9109   5.681   0.828   0.052  0.6295  0.4744  0.5138
 3049TIP3   OH2 9110   4.978   6.442   3.141 -0.4719  0.4746 -0.0228
 3049TIP3    H1 9111   5.029   6.375   3.096 -0.1854  1.0472 -0.5691
 3049TIP3    H2 9112   4.966   6.407   3.229 -0.1683 -0.2092 -0.2408
 3050TIP3   OH2 9113   1.433   1.207   2.261 -0.0791 -0.3805 -0.1664
 3050TIP3    H1 9114   1.519   1.230   2.226  1.0728  1.3108  3.2680
 3050TIP3    H2 9115   1.372   1.261   2.211  1.0239 -0.3006 -1.5026
 3051TIP3   OH2 9116   6.326   4.996   0.277 -0.3007  0.7989  0.3745
 3051TIP3    H1 9117   6.279   4.943   0.212 -0.4106  1.3657 -0.0186
 3051TIP3    H2 9118   6.355   4.933   0.343 -1.1666  0.3632  0.3577
 3052TIP3   OH2 9119   6.435   0.981   1.292  0.7413  0.5556 -0.7947
 3052TIP3    H1 9120   6.354   0.962   1.245  1.2613  1.8742 -2.3195
 3052TIP3    H2 9121   6.504   0.941   1.240  1.1044 -0.6588  0.5585
 3053TIP3   OH2 9122   1.520   3.114   0.506  0.0341  0.3806  0.0176
 3053TIP3    H1 9123   1.615   3.127   0.507 -0.0817  1.2870  0.0868
 3053TIP3    H2 9124   1.503   3.070   0.422  0.3454  1.7804 -0.8187
 3054TIP3   OH2 9125   2.764   4.161   5.916  0.4336 -0.5456 -0.1672
 3054TIP3    H1 9126   2.738   4.223   5.848 -1.5033 -0.5715  0.4882
 3054TIP3    H2 9127   2.772   4.078   5.870  0.1083 -0.3807 -0.5325
 3055TIP3   OH2 9128   4.266   5.867   0.922  0.5426 -0.5355 -0.1335
 3055TIP3    H1 9129   4.221   5.795   0.966  2.3295 -1.5684  0.1062
 3055TIP3    H2 9130   4.265   5.939   0.986  0.6267 -1.0783  0.4921
 3056TIP3   OH2 9131   2.705   6.460   5.631 -0.2050 -0.1322 -1.2893
 3056TIP3    H1 9132   2.758   6.499   5.562  0.5334  2.2886  0.4743
 3056TIP3    H2 9133   2.736   6.503   5.711 -1.2064 -2.5600  0.5301
 3057TIP3   OH2 9134   1.716   3.863   5.126  0.2932  0.1646  0.0373
 3057TIP3    H1 9135   1.637   3.916   5.132  0.0096 -0.0166 -1.5442
 3057TIP3    H2 9136   1.784   3.926   5.101  1.0740  0.6287  2.9628
 3058TIP3   OH2 9137   5.287   5.238   5.474 -0.1679  0.2422 -0.6097
 3058TIP3    H1 9138   5.300   5.310   5.412 -0.2687  0.3088 -0.5535
 3058TIP3    H2 9139   5.356   5.175   5.452 -0.8354 -0.2066 -1.4674
 3059TIP3   OH2 9140   1.415   3.518   4.467  0.0469  0.4897 -0.4320
 3059TIP3    H1 9141   1.371   3.501   4.384 -0.2473  2.0874 -0.6422
 3059TIP3    H2 9142   1.508   3.500   4.450  0.0916  1.4950 -1.3427
 3060TIP3   OH2 9143   3.704   0.825   5.324  0.1941  0.2241  0.6837
 3060TIP3    H1 9144   3.708   0.919   5.308 -0.8582  0.1798  0.0884
 3060TIP3    H2 9145   3.610   0.803   5.320  0.4183 -0.8489  0.8114
 3061TIP3   OH2 9146   5.726   6.693   4.179 -0.6849  0.2713 -0.0593
 3061TIP3    H1 9147   5.652   6.672   4.235 -1.7780  0.4687 -1.3774
 3061TIP3    H2 9148   5.745   6.785   4.198 -0.0888 -0.0542  1.0182
 3062TIP3   OH2 9149   5.232   5.188   5.162  0.0923  0.1727 -0.1513
 3062TIP3    H1 9150   5.257   5.280   5.172  3.3687 -0.2766 -2.5143
 3062TIP3    H2 9151   5.169   5.188   5.090 -0.8453  0.6426  0.6538
 3063TIP3   OH2 9152   6.185   6.412   4.385  0.5971 -0.1519 -0.2150
 3063TIP3    H1 9153   6.260   6.468   4.403  0.4910  0.2068 -0.8423
 3063TIP3    H2 9154   6.121   6.471   4.343  0.8386 -0.9217 -1.7256
 3064TIP3   OH2 9155   6.633   2.236   3.842  0.3718  0.0807 -0.2400
 3064TIP3    H1 9156   6.587   2.156   3.866  1.8264 -0.6298  0.2844
 3064TIP3    H2 9157   6.677   2.215   3.759  0.1342  0.5965 -0.5012
 3065TIP3   OH2 9158   6.906   5.610   1.211 -0.0614 -0.1295  0.2655
 3065TIP3    H1 9159   6.897   5.597   1.117 -0.1064 -0.1566  0.2738
 3065TIP3    H2 9160   6.976   5.675   1.220  1.6560 -1.8577  0.2818
 3066TIP3   OH2 9161   4.049   4.626   2.510  0.0201  0.1902 -0.1300
 3066TIP3    H1 9162   4.045   4.533   2.491  1.0133  0.2540 -0.7464
 3066TIP3    H2 9163   4.107   4.662   2.443  1.8996  0.8101  1.7088
 3067TIP3   OH2 9164   6.629   1.394   1.953  0.0953  0.1591  0.1209
 3067TIP3    H1 9165   6.675   1.459   2.006 -0.1658  0.7878 -0.4116
 3067TIP3    H2 9166   6.669   1.310   1.978  1.5726  0.6813 -0.3604
 3068TIP3   OH2 9167   0.584   1.690   1.384 -0.6145 -0.2144  0.5270
 3068TIP3    H1 9168   0.598   1.597   1.401 -1.6343 -0.6116 -0.6628
 3068TIP3    H2 9169   0.552   1.693   1.294 -0.6118  1.2969  0.5564
 3069TIP3   OH2 9170   2.401   5.458   5.455  0.0778  0.3286 -0.4490
 3069TIP3    H1 9171   2.371   5.549   5.450 -0.6004  0.0535 -2.2508
 3069TIP3    H2 9172   2.332   5.413   5.505 -2.5635 -0.1858 -4.0975
 3070TIP3   OH2 9173   3.087   5.749   4.719 -0.8716  0.1663  0.0799
 3070TIP3    H1 9174   3.169   5.728   4.674 -2.5864 -1.5075 -2.5345
 3070TIP3    H2 9175   3.081   5.685   4.790 -0.5520 -0.5954 -0.5690
 3071TIP3   OH2 9176   4.545   3.728   3.746 -0.1354  0.2231 -0.0430
 3071TIP3    H1 9177   4.486   3.801   3.724 -0.2082  0.4533  0.8772
 3071TIP3    H2 9178   4.554   3.679   3.664 -0.6930  0.8359 -0.4825
 3072TIP3   OH2 9179   0.433   3.486   0.717  0.1160 -0.0567 -0.1116
 3072TIP3    H1 9180   0.499   3.538   0.671  0.2644 -2.4180 -2.8803
 3072TIP3    H2 9181   0.461   3.487   0.809  2.3029  1.3941 -0.7161
 3073TIP3   OH2 9182   6.527   2.401   5.409  0.7401 -0.2343  0.5134
 3073TIP3    H1 9183   6.615   2.387   5.373  1.2315 -2.1212  2.2541
 3073TIP3    H2 9184   6.468   2.365   5.344  1.4695 -1.6171  0.5803
 3074TIP3   OH2 9185   3.223   4.749   0.386 -0.1022 -0.3994  0.4140
 3074TIP3    H1 9186   3.164   4.701   0.329  0.4583  0.5451 -1.0205
 3074TIP3    H2 9187   3.174   4.827   0.412  0.6868  0.7620 -1.3743
 3075TIP3   OH2 9188   5.135   2.703   1.868 -0.3872  0.0692  0.4624
 3075TIP3    H1 9189   5.123   2.646   1.945  2.7495  0.6474  1.5013
 3075TIP3    H2 9190   5.056   2.757   1.866 -0.8813 -0.4493  2.8794
 3076TIP3   OH2 9191   7.036   4.315   3.360  0.0880  0.0694  0.4222
 3076TIP3    H1 9192   7.078   4.398   3.380 -0.5649  0.3534  0.6403
 3076TIP3    H2 9193   7.062   4.257   3.431  0.9861 -0.0848 -0.0130
 3077TIP3   OH2 9194   2.377   5.337   0.152 -0.2893 -0.2653  0.6307
 3077TIP3    H1 9195   2.348   5.268   0.211 -1.5064 -1.6521 -1.4839
 3077TIP3    H2 9196   2.298   5.390   0.136 -0.8356 -1.7300 -2.0683
 3078TIP3   OH2 9197   5.558   2.087   3.608 -0.1120  0.2099  0.2888
 3078TIP3    H1 9198   5.529   2.060   3.521 -1.5553  0.1906  0.7442
 3078TIP3    H2 9199   5.552   2.008   3.662 -0.8609  0.5912  0.7844
 3079TIP3   OH2 9200   4.767   5.267   2.798  0.3072  0.2182  0.6891
 3079TIP3    H1 9201   4.681   5.272   2.839  0.4396 -0.4404  1.0655
 3079TIP3    H2 9202   4.764   5.331   2.727 -1.2586 -1.3216 -0.7279
 3080TIP3   OH2 9203   5.664   5.610   2.377  0.3576 -0.7830 -0.1645
 3080TIP3    H1 9204   5.694   5.591   2.288  0.2440 -0.0407 -0.3702
 3080TIP3    H2 9205   5.675   5.705   2.386 -1.4568 -0.5308 -0.0855
 3081TIP3   OH2 9206   0.821   5.893   4.283 -0.1795 -0.0991  0.5178
 3081TIP3    H1 9207   0.828   5.814   4.336  0.3098  1.4574  2.9219
 3081TIP3    H2 9208   0.908   5.933   4.288 -0.1365  0.1672 -1.4458
 3082TIP3   OH2 9209   2.751   5.015   5.173 -0.2402 -0.6783 -0.3560
 3082TIP3    H1 9210   2.843   4.992   5.161  0.1700  0.4668  0.3694
 3082TIP3    H2 9211   2.736   5.006   5.267 -1.0133 -1.3141 -0.5321
 3083TIP3   OH2 9212   6.177   2.104   4.760  0.3542 -0.3407 -0.1500
 3083TIP3    H1 9213   6.235   2.117   4.686  1.4372 -2.7430  0.1750
 3083TIP3    H2 9214   6.104   2.053   4.726 -0.8028  1.2522 -0.1898
 3084TIP3   OH2 9215   2.556   3.584   5.825 -0.3657  0.6859  0.5386
 3084TIP3    H1 9216   2.636   3.602   5.875  0.5639 -0.2965 -0.5130
 3084TIP3    H2 9217   2.576   3.614   5.736 -2.0077  2.4558  0.7141
 3085TIP3   OH2 9218   2.717   6.626   0.134 -0.5569  0.4419  0.6362
 3085TIP3    H1 9219   2.773   6.575   0.076 -0.3197 -0.7988  1.9231
 3085TIP3    H2 9220   2.639   6.645   0.081 -1.1724 -2.2487  0.4720
 3086TIP3   OH2 9221   4.944   3.100   1.798  0.3567  0.4395  0.3815
 3086TIP3    H1 9222   5.034   3.069   1.788 -0.3010 -1.3663 -0.2159
 3086TIP3    H2 9223   4.914   3.114   1.708  0.4245  2.2883  0.6139
 3087TIP3   OH2 9224   5.362   3.203   4.624 -0.1310 -0.1731  0.0417
 3087TIP3    H1 9225   5.378   3.236   4.535  4.4419  0.7039  0.9453
 3087TIP3    H2 9226   5.299   3.265   4.661  1.2596  2.2017 -1.2686
 3088TIP3   OH2 9227   5.055   0.207   3.566 -0.4236 -0.2700 -0.0075
 3088TIP3    H1 9228   5.107   0.190   3.644  1.2178 -0.0749 -1.0082
 3088TIP3    H2 9229   4.966   0.219   3.598  0.4155  1.0506  1.9736
 3089TIP3   OH2 9230   3.910   0.470   5.345 -0.0058 -0.4027 -0.0962
 3089TIP3    H1 9231   3.843   0.522   5.390  1.5295  1.5144  0.1427
 3089TIP3    H2 9232   3.985   0.471   5.405  0.6035 -1.5850 -0.8043
 3090TIP3   OH2 9233   5.803   0.150   5.684  0.1075 -0.1046  0.6774
 3090TIP3    H1 9234   5.838   0.199   5.759  0.0977 -0.3745  0.8596
 3090TIP3    H2 9235   5.789   0.217   5.617  1.4567 -0.0590  0.4072
 3091TIP3   OH2 9236   4.836   0.543   0.228  0.7056  0.0172 -0.4192
 3091TIP3    H1 9237   4.799   0.554   0.316 -0.7583 -0.4519 -0.9389
 3091TIP3    H2 9238   4.900   0.473   0.237 -0.5557 -1.1224 -0.0045
 3092TIP3   OH2 9239   0.818   1.212   5.548 -0.8400  0.2436 -0.1472
 3092TIP3    H1 9240   0.729   1.228   5.516 -0.9132 -0.0455 -0.0901
 3092TIP3    H2 9241   0.872   1.272   5.496 -1.0987  0.6237  0.0144
 3093TIP3   OH2 9242   2.874   6.436   2.028 -0.0820 -0.6556  0.9114
 3093TIP3    H1 9243   2.875   6.445   1.932 -0.9501  3.5158  1.1074
 3093TIP3    H2 9244   2.814   6.364   2.045 -1.0319 -0.5740 -1.6699
 3094TIP3   OH2 9245   2.045   2.391   3.416 -1.1894  0.1791 -0.0662
 3094TIP3    H1 9246   2.012   2.377   3.328  0.1869 -1.7467 -0.3429
 3094TIP3    H2 9247   2.105   2.466   3.408 -0.3108 -0.6033 -1.0017
 3095TIP3   OH2 9248   6.904   1.066   3.396 -0.1012  0.7051  0.1565
 3095TIP3    H1 9249   6.933   1.065   3.487  2.0675  0.7736 -0.4941
 3095TIP3    H2 9250   6.929   1.152   3.363  0.9905 -0.0331 -1.0458
 3096TIP3   OH2 9251   1.215   6.233   5.839 -0.3171  0.5491  0.3475
 3096TIP3    H1 9252   1.195   6.294   5.769  0.7342 -0.2688 -0.6994
 3096TIP3    H2 9253   1.181   6.275   5.918 -1.8024  1.3477 -0.6700
 3097TIP3   OH2 9254   6.193   2.468   2.239 -0.1778  0.7298  0.4440
 3097TIP3    H1 9255   6.139   2.436   2.167 -0.2891 -0.9707  1.2274
 3097TIP3    H2 9256   6.144   2.542   2.275 -1.3171  0.0859  0.2682
 3098TIP3   OH2 9257   5.342   3.388   0.519 -0.0430 -0.1777 -0.3092
 3098TIP3    H1 9258   5.361   3.316   0.460  1.6295  1.2655 -1.6334
 3098TIP3    H2 9259   5.250   3.408   0.505 -0.2744 -1.4209 -0.6074
 3099TIP3   OH2 9260   0.609   6.798   5.506 -0.0076 -0.2851  0.0985
 3099TIP3    H1 9261   0.516   6.816   5.523 -0.3628 -1.9921  0.1939
 3099TIP3    H2 9262   0.634   6.737   5.575  0.9793 -0.4274 -0.3699
 3100TIP3   OH2 9263   5.547   2.508   2.063  0.7203  0.3477  0.6340
 3100TIP3    H1 9264   5.633   2.491   2.102  0.6652  0.6348  0.8877
 3100TIP3    H2 9265   5.565   2.570   1.992  0.6916  0.5996  0.8460
 3101TIP3   OH2 9266   4.686   3.072   4.621 -0.2102  0.2465  0.6163
 3101TIP3    H1 9267   4.592   3.081   4.636 -0.4882  1.2614 -1.4019
 3101TIP3    H2 9268   4.710   3.148   4.568  1.5716 -0.4646  0.3137
 3102TIP3   OH2 9269   6.089   4.886   4.050  0.4215  0.2857 -0.3787
 3102TIP3    H1 9270   6.014   4.923   4.097 -0.6999 -1.3257 -0.8212
 3102TIP3    H2 9271   6.165   4.920   4.097 -0.5765  1.7087  0.2839
 3103TIP3   OH2 9272   0.079   6.755   2.336 -0.3904 -0.2353 -0.1649
 3103TIP3    H1 9273   0.003   6.713   2.377 -0.3784  1.9272  2.4037
 3103TIP3    H2 9274   0.155   6.716   2.381 -0.1381 -0.3953 -0.7227
 3104TIP3   OH2 9275   1.974   4.306   3.102  0.0494 -0.1017 -0.0131
 3104TIP3    H1 9276   2.015   4.220   3.096 -1.7084 -1.0027  0.0941
 3104TIP3    H2 9277   1.974   4.326   3.196 -0.8666 -0.7150  0.1404
 3105TIP3   OH2 9278   2.449   5.449   4.209  0.3323 -0.0691 -0.2045
 3105TIP3    H1 9279   2.453   5.469   4.116  0.9350  0.0005 -0.1657
 3105TIP3    H2 9280   2.530   5.485   4.245  0.2676 -0.4070  0.2876
 3106TIP3   OH2 9281   6.253   5.998   2.098 -0.3457  0.1917 -0.1353
 3106TIP3    H1 9282   6.222   6.082   2.133 -0.7583 -0.1993  0.4621
 3106TIP3    H2 9283   6.345   6.014   2.077 -0.2575  0.6353  0.5265
 3107TIP3   OH2 9284   0.955   1.250   4.406 -0.5209 -0.0750 -0.1159
 3107TIP3    H1 9285   0.926   1.227   4.317 -0.1956 -0.4632 -0.1246
 3107TIP3    H2 9286   0.919   1.337   4.421  0.3346  0.4788 -1.0613
 3108TIP3   OH2 9287   4.265   2.092   5.270 -0.2228 -0.0722 -0.0571
 3108TIP3    H1 9288   4.234   2.175   5.234 -0.3354  0.1848  0.6244
 3108TIP3    H2 9289   4.221   2.025   5.218 -1.7619  0.2876  0.7504
 3109TIP3   OH2 9290   4.189   3.736   1.049  0.0714  0.2623 -0.1082
 3109TIP3    H1 9291   4.142   3.744   1.132 -1.1020  0.6353 -0.7811
 3109TIP3    H2 9292   4.136   3.676   0.997  1.3443 -0.7832 -0.2266
 3110TIP3   OH2 9293   5.897   6.252   2.326 -0.5099 -0.2969 -0.1854
 3110TIP3    H1 9294   5.855   6.166   2.329 -1.3707  0.0886  3.2125
 3110TIP3    H2 9295   5.832   6.311   2.364  1.3635  1.1756  0.8914
 3111TIP3   OH2 9296   5.602   5.039   0.951  0.2895 -0.0741  0.1152
 3111TIP3    H1 9297   5.533   5.097   0.983  1.0838 -0.1474  2.0857
 3111TIP3    H2 9298   5.602   4.965   1.012  1.4132 -0.5986 -0.4770
 3112TIP3   OH2 9299   6.866   6.047   1.783 -0.3401  0.1426  0.0156
 3112TIP3    H1 9300   6.800   6.005   1.728  0.6267 -2.1336  0.4758
 3112TIP3    H2 9301   6.852   6.010   1.870 -0.2138  1.7578  0.7560
 3113TIP3   OH2 9302   0.105   5.560   5.731  0.3539  0.4324 -0.2081
 3113TIP3    H1 9303   0.054   5.543   5.652 -0.8732  0.3676  0.5678
 3113TIP3    H2 9304   0.040   5.586   5.797  1.3468  0.5462  0.7682
 3114TIP3   OH2 9305   0.307   2.222   3.054 -0.1206 -0.2267  0.5449
 3114TIP3    H1 9306   0.296   2.127   3.060 -0.1057 -0.2464  0.2986
 3114TIP3    H2 9307   0.396   2.233   3.021 -0.1918 -0.1341  0.3821
 3115TIP3   OH2 9308   6.890   3.975   0.045  0.0966 -0.6861  0.2694
 3115TIP3    H1 9309   6.842   4.058   0.038 -0.1709 -0.9562 -1.3181
 3115TIP3    H2 9310   6.824   3.913   0.076  0.2881 -0.3500  1.4268
 3116TIP3   OH2 9311   1.745   2.003   1.445  0.0671  0.2173 -0.3696
 3116TIP3    H1 9312   1.763   2.003   1.539 -3.6214  0.7620  0.4894
 3116TIP3    H2 9313   1.763   2.093   1.417  2.9051 -0.3595 -0.7091
 3117TIP3   OH2 9314   4.153   3.161   0.976  0.3849 -0.2931  0.6250
 3117TIP3    H1 9315   4.111   3.090   1.026 -0.5351 -0.4499 -0.3271
 3117TIP3    H2 9316   4.149   3.237   1.035 -0.2421 -0.5881  0.9842
 3118TIP3   OH2 9317   1.487   0.946   2.900  0.4676  0.0958 -0.7763
 3118TIP3    H1 9318   1.501   0.921   2.808  2.3628 -0.3407 -0.3933
 3118TIP3    H2 9319   1.502   0.865   2.949 -2.2437 -0.1333 -0.1271
 3119TIP3   OH2 9320   6.418   0.666   3.863  0.3813  0.1967  0.4816
 3119TIP3    H1 9321   6.439   0.573   3.863 -1.3886 -0.2466  0.5941
 3119TIP3    H2 9322   6.329   0.670   3.897  0.3468  1.9140  0.2672
 3120TIP3   OH2 9323   3.593   1.823   0.491 -0.0719  0.0331  0.0215
 3120TIP3    H1 9324   3.669   1.842   0.546 -0.5919  0.2345  0.6861
 3120TIP3    H2 9325   3.583   1.728   0.495 -0.6189  0.1210  0.9848
 3121TIP3   OH2 9326   0.769   1.063   5.186  0.4432  0.7317 -0.3583
 3121TIP3    H1 9327   0.781   1.155   5.212 -1.0045  1.5076 -2.1506
 3121TIP3    H2 9328   0.709   1.068   5.111 -1.8867 -1.8532  1.1507
 3122TIP3   OH2 9329   2.650   5.958   3.184  0.2371 -0.0135  0.2137
 3122TIP3    H1 9330   2.726   5.909   3.154 -1.0506 -1.1353 -1.3649
 3122TIP3    H2 9331   2.628   5.920   3.269  0.9486 -0.2079  0.3121
 3123TIP3   OH2 9332   3.368   1.177   4.358  0.7090 -0.4990 -0.1598
 3123TIP3    H1 9333   3.310   1.196   4.285  1.2353 -2.5484 -1.1584
 3123TIP3    H2 9334   3.425   1.254   4.363  0.4606 -0.1815 -1.7002
 3124TIP3   OH2 9335   2.997   6.388   1.449  0.1617 -0.0868  0.6621
 3124TIP3    H1 9336   2.911   6.349   1.435  0.8337 -1.1773 -0.5450
 3124TIP3    H2 9337   3.029   6.411   1.362  0.9674  0.5957  1.1151
 3125TIP3   OH2 9338   5.092   3.392   2.383 -0.0734 -0.1292  0.4927
 3125TIP3    H1 9339   5.001   3.374   2.363 -0.0262 -0.4924  0.5996
 3125TIP3    H2 9340   5.113   3.332   2.455  1.3219 -2.8018 -1.9423
 3126TIP3   OH2 9341   5.366   3.951   2.316  0.1575  0.3826 -0.0009
 3126TIP3    H1 9342   5.320   3.935   2.233  0.7628  1.8414 -0.6401
 3126TIP3    H2 9343   5.304   4.001   2.368 -0.0258 -0.0910  0.2467
 3127TIP3   OH2 9344   6.513   1.924   0.245  0.3010  0.1750  0.0051
 3127TIP3    H1 9345   6.423   1.945   0.269 -0.1533 -0.8244 -0.7635
 3127TIP3    H2 9346   6.524   1.963   0.158  1.2641  1.9604  0.8553
 3128TIP3   OH2 9347   6.200   0.095   5.654  0.4531  0.5828 -0.2673
 3128TIP3    H1 9348   6.289   0.087   5.689  0.1798 -1.4454  0.0885
 3128TIP3    H2 9349   6.146   0.046   5.715 -0.6263  0.1663 -1.5162
 3129TIP3   OH2 9350   0.038   0.739   5.764  0.7146  0.0892  0.2435
 3129TIP3    H1 9351   0.112   0.692   5.803 -0.2300 -0.7423  1.1152
 3129TIP3    H2 9352   0.026   0.815   5.821  0.1496 -0.4371  0.8563
 3130TIP3   OH2 9353   6.679   6.336   5.892  0.5823 -0.5113 -0.5995
 3130TIP3    H1 9354   6.774   6.350   5.892  0.7248 -1.2654  0.5249
 3130TIP3    H2 9355   6.655   6.327   5.800  2.0711 -3.0803 -0.8423
 3131TIP3   OH2 9356   1.780   3.829   3.137 -0.1262  0.0164  0.4600
 3131TIP3    H1 9357   1.712   3.871   3.190 -2.1864 -1.3406 -0.9661
 3131TIP3    H2 9358   1.748   3.740   3.123  0.1986  0.3408 -3.1975
 3132TIP3   OH2 9359   0.563   1.952   2.444 -0.6647  0.5107  0.1033
 3132TIP3    H1 9360   0.523   1.959   2.357 -2.4935 -0.3240  0.8100
 3132TIP3    H2 9361   0.525   1.872   2.481  0.9680  0.2072  1.2531
 3133TIP3   OH2 9362   1.639   2.093   3.189  0.0466 -0.2493 -0.0789
 3133TIP3    H1 9363   1.546   2.112   3.200 -0.0987  0.2487 -1.7994
 3133TIP3    H2 9364   1.646   2.064   3.098  1.4450 -1.1411  0.2935
 3134TIP3   OH2 9365   3.444   2.251   0.240 -0.2373 -0.4965  0.0360
 3134TIP3    H1 9366   3.438   2.344   0.263 -1.0857 -0.4230 -0.4241
 3134TIP3    H2 9367   3.536   2.238   0.217 -0.1688  0.3035 -0.1846
 3135TIP3   OH2 9368   5.633   6.110   2.315  0.1682 -0.0894  0.5103
 3135TIP3    H1 9369   5.551   6.158   2.305  0.9381  1.5274  1.5349
 3135TIP3    H2 9370   5.670   6.107   2.227  0.7301  2.4798  0.5696
 3136TIP3   OH2 9371   7.029   2.039   3.039 -0.5700 -0.3628 -0.4947
 3136TIP3    H1 9372   7.079   2.113   3.074 -0.8012  0.0193 -0.9494
 3136TIP3    H2 9373   7.045   1.967   3.100  0.2201 -0.1344 -0.4173
 3137TIP3   OH2 9374   3.002   2.379   0.972 -0.3620 -0.1830 -0.3195
 3137TIP3    H1 9375   3.003   2.405   0.880  0.8137 -0.7808 -0.4978
 3137TIP3    H2 9376   3.093   2.387   1.001 -1.0178  2.0640  1.4200
 3138TIP3   OH2 9377   3.497   5.049   2.343  0.4953  0.0574  0.4283
 3138TIP3    H1 9378   3.493   4.992   2.266  1.4784  0.2051  0.2569
 3138TIP3    H2 9379   3.496   5.138   2.307 -1.0598  0.1823  0.6959
 3139TIP3   OH2 9380   3.243   1.627   1.430  0.5664  0.5649  0.4647
 3139TIP3    H1 9381   3.282   1.639   1.343 -2.6274  2.3442 -0.8975
 3139TIP3    H2 9382   3.157   1.589   1.412 -0.8494  2.5155  2.6607
 3140TIP3   OH2 9383   0.351   3.654   4.643 -0.2244  0.2894 -0.1555
 3140TIP3    H1 9384   0.321   3.743   4.623 -1.4640 -0.5286 -2.1941
 3140TIP3    H2 9385   0.276   3.613   4.688  0.0807  0.0466  0.1356
 3141TIP3   OH2 9386   6.988   3.252   5.364 -0.1992  0.0623  0.7524
 3141TIP3    H1 9387   6.934   3.251   5.443 -2.2680 -2.4660 -0.5541
 3141TIP3    H2 9388   6.989   3.161   5.334  1.4308  0.7558 -1.5620
 3142TIP3   OH2 9389   7.133   4.738   2.733 -0.8443 -0.3171 -0.0612
 3142TIP3    H1 9390   7.060   4.748   2.672 -2.3470 -1.3390  1.4718
 3142TIP3    H2 9391   7.110   4.795   2.807 -1.2425 -2.2795  1.4079
 3143TIP3   OH2 9392   6.121   3.967   1.375 -0.3598 -0.1506  0.0646
 3143TIP3    H1 9393   6.188   3.963   1.307  1.2313 -0.6369  1.5837
 3143TIP3    H2 9394   6.045   3.926   1.336  1.3583 -3.0294 -0.5366
 3144TIP3   OH2 9395   1.039   5.612   0.157  0.1786  0.0052 -0.5340
 3144TIP3    H1 9396   1.050   5.696   0.113  0.1496 -1.1279 -2.8191
 3144TIP3    H2 9397   0.966   5.569   0.112  0.5548 -1.4835  0.1815
 3145TIP3   OH2 9398   2.990   4.997   5.862 -0.2625 -0.1575 -0.1353
 3145TIP3    H1 9399   2.927   4.925   5.854  0.8686 -1.1978 -0.0308
 3145TIP3    H2 9400   3.052   4.967   5.928 -1.0845  1.9516  1.7182
 3146TIP3   OH2 9401   4.853   2.092   3.905  0.0748  0.0790  0.3627
 3146TIP3    H1 9402   4.798   2.038   3.962 -0.2144 -0.4548 -0.4099
 3146TIP3    H2 9403   4.800   2.169   3.885  0.5817  0.8089  1.6728
 3147TIP3   OH2 9404   1.589   4.386   3.891  0.1303  0.3594  0.0417
 3147TIP3    H1 9405   1.541   4.443   3.830 -0.1475  1.3469  1.1407
 3147TIP3    H2 9406   1.627   4.447   3.955 -0.6772 -0.7126  1.6086
 3148TIP3   OH2 9407   5.065   2.910   0.975 -0.3985 -0.3837 -0.9047
 3148TIP3    H1 9408   4.985   2.859   0.973 -0.4167 -0.6899  2.3071
 3148TIP3    H2 9409   5.036   3.001   0.985 -0.3874 -0.5435  0.7498
 3149TIP3   OH2 9410   5.008   2.432   5.428  0.7953 -0.0615  0.7325
 3149TIP3    H1 9411   4.923   2.388   5.416  1.3465 -0.5607 -1.9608
 3149TIP3    H2 9412   4.985   2.516   5.467 -1.1623  0.4056 -1.2125
 3150TIP3   OH2 9413   2.220   1.842   1.048  0.1349  0.2853 -0.5785
 3150TIP3    H1 9414   2.227   1.776   1.117  0.7512  3.3119  2.4738
 3150TIP3    H2 9415   2.126   1.844   1.027 -0.0141 -0.9313 -0.1262
 3151TIP3   OH2 9416   2.028   0.554   0.164  0.3023 -0.4021  0.2339
 3151TIP3    H1 9417   2.059   0.632   0.119 -2.4401  1.1325  0.7526
 3151TIP3    H2 9418   1.987   0.501   0.096 -0.3419 -0.0044  0.3101
 3152TIP3   OH2 9419   2.324   6.486   1.315  0.6037  0.1355 -0.0553
 3152TIP3    H1 9420   2.323   6.499   1.220 -0.0903 -0.4455 -0.1324
 3152TIP3    H2 9421   2.240   6.520   1.345  1.2551  1.3032  0.4988
 3153TIP3   OH2 9422   6.214   3.132   0.872  0.1260 -0.1054 -0.0990
 3153TIP3    H1 9423   6.132   3.115   0.918  0.2879  2.2914  1.2158
 3153TIP3    H2 9424   6.282   3.118   0.939  0.6553 -0.2299 -0.6519
 3154TIP3   OH2 9425   6.862   1.718   3.821 -0.0788 -0.0899 -0.6959
 3154TIP3    H1 9426   6.782   1.685   3.779 -3.4556  0.6983  4.2525
 3154TIP3    H2 9427   6.889   1.646   3.878 -0.4174  1.3999  1.4260
 3155TIP3   OH2 9428   7.005   3.997   3.982  0.1401 -0.5494 -0.2324
 3155TIP3    H1 9429   6.987   3.972   4.073 -1.2510 -0.2404 -0.3992
 3155TIP3    H2 9430   6.955   4.077   3.969  0.8429 -0.2326 -1.0986
 3156TIP3   OH2 9431   6.306   4.328   3.401 -0.3383  0.0703  0.0034
 3156TIP3    H1 9432   6.221   4.304   3.437  0.0412  0.2023  1.0479
 3156TIP3    H2 9433   6.289   4.403   3.345 -0.4805  2.4550  3.0178
 3157TIP3   OH2 9434   3.021   1.263   2.890 -0.5421 -0.3777 -0.4907
 3157TIP3    H1 9435   2.982   1.281   2.975  0.1975  1.6300 -0.5121
 3157TIP3    H2 9436   3.111   1.236   2.910  0.5691  2.7566 -0.5819
 3158TIP3   OH2 9437   2.652   1.433   4.708  0.6058  0.4099  0.2495
 3158TIP3    H1 9438   2.569   1.450   4.664 -0.1542  1.2350  1.9134
 3158TIP3    H2 9439   2.706   1.388   4.642 -0.8949  0.4850 -1.0779
 3159TIP3   OH2 9440   3.058   3.544   0.465  0.3485 -0.0578 -0.2987
 3159TIP3    H1 9441   3.096   3.627   0.493  0.4857 -0.2609  0.1355
 3159TIP3    H2 9442   2.978   3.568   0.418  0.8725  0.3586 -0.9913
 3160TIP3   OH2 9443   3.743   3.656   0.834  0.1288  0.6515 -0.1086
 3160TIP3    H1 9444   3.701   3.626   0.754  3.2445  1.2197 -2.1124
 3160TIP3    H2 9445   3.755   3.750   0.820  2.0230  0.5070  0.3393
 3161TIP3   OH2 9446   0.498   1.656   3.804  0.6539  0.3379  0.2520
 3161TIP3    H1 9447   0.587   1.673   3.836  0.4881  1.7504  0.0471
 3161TIP3    H2 9448   0.477   1.734   3.751 -0.9550  0.3344  0.8462
 3162TIP3   OH2 9449   0.872   0.957   5.631 -0.0063 -0.4605  0.0383
 3162TIP3    H1 9450   0.954   0.974   5.678 -0.2780 -1.5228  0.9163
 3162TIP3    H2 9451   0.853   1.040   5.587  0.5395  0.3970  1.3608
 3163TIP3   OH2 9452   4.844   1.008   4.967 -0.7224 -0.0662 -0.7529
 3163TIP3    H1 9453   4.800   1.083   4.927  0.1886  0.8790 -0.0433
 3163TIP3    H2 9454   4.836   1.023   5.062 -0.5511 -0.8822 -0.6001
 3164TIP3   OH2 9455   5.635   3.001   3.840 -0.2790  1.1636  0.0205
 3164TIP3    H1 9456   5.590   3.081   3.869  3.0154  2.4853  2.0422
 3164TIP3    H2 9457   5.702   3.031   3.779  1.0973  0.0057  0.8972
 3165TIP3   OH2 9458   5.580   4.058   5.792 -0.2099  0.7019  0.2230
 3165TIP3    H1 9459   5.489   4.034   5.779  0.3325 -0.7898 -1.0847
 3165TIP3    H2 9460   5.627   4.015   5.721  1.5045  1.5553  0.7777
 3166TIP3   OH2 9461   0.397   3.620   0.287 -0.9665  0.0420 -0.5761
 3166TIP3    H1 9462   0.321   3.569   0.313 -1.8803 -0.2540 -3.5254
 3166TIP3    H2 9463   0.363   3.708   0.271 -0.5448  0.1009 -1.1875
 3167TIP3   OH2 9464   2.506   2.619   3.924  0.3548  0.5671  0.8826
 3167TIP3    H1 9465   2.525   2.667   4.004  0.1425 -0.3795  1.5285
 3167TIP3    H2 9466   2.534   2.529   3.943 -2.5452 -0.4198  1.0913
 3168TIP3   OH2 9467   3.980   2.431   4.118 -0.9321 -0.2849 -0.0171
 3168TIP3    H1 9468   3.971   2.513   4.165  2.3442 -0.1585  0.5883
 3168TIP3    H2 9469   3.992   2.456   4.026 -2.9172 -0.3328 -0.3490
 3169TIP3   OH2 9470   0.553   3.719   0.070 -0.3561 -0.0763 -0.0503
 3169TIP3    H1 9471   0.503   3.681   0.143 -0.1677 -0.8244 -0.2972
 3169TIP3    H2 9472   0.499   3.792   0.040 -2.2070 -1.8753 -1.3948
 3170TIP3   OH2 9473   0.831   5.117   4.342  0.4424  0.7991 -0.1866
 3170TIP3    H1 9474   0.887   5.092   4.415  0.5816 -0.5701 -0.7325
 3170TIP3    H2 9475   0.756   5.058   4.348  0.2652  0.9347 -0.9117
 3171TIP3   OH2 9476   3.715   5.461   3.684 -0.0123 -0.0418 -0.1448
 3171TIP3    H1 9477   3.715   5.511   3.602  1.4771 -0.0040 -0.1628
 3171TIP3    H2 9478   3.627   5.425   3.691 -1.5899  3.4976  0.4457
 3172TIP3   OH2 9479   3.226   4.976   1.060 -0.2174 -0.2400 -0.1679
 3172TIP3    H1 9480   3.230   5.055   1.113  2.3513  1.9154 -3.2127
 3172TIP3    H2 9481   3.304   4.926   1.084  1.4158  1.1407 -2.2130
 3173TIP3   OH2 9482   7.044   2.068   4.988  0.0972  0.0938 -0.2201
 3173TIP3    H1 9483   7.120   2.119   5.018 -0.1929 -0.1645  1.0456
 3173TIP3    H2 9484   7.078   2.012   4.918  1.2307 -0.4409  0.7151
 3174TIP3   OH2 9485   2.986   1.773   0.679 -0.0370 -0.0194  0.8867
 3174TIP3    H1 9486   3.004   1.829   0.603  0.9735  0.4013  1.4201
 3174TIP3    H2 9487   2.890   1.771   0.684 -0.1132  1.4835  0.6989
 3175TIP3   OH2 9488   4.716   0.362   4.863 -0.1060  0.5425  0.2669
 3175TIP3    H1 9489   4.728   0.457   4.861  2.6469  0.3977  3.2493
 3175TIP3    H2 9490   4.780   0.328   4.801  2.4599  0.5624  2.7309
 3176TIP3   OH2 9491   7.029   4.923   1.025  0.2120 -0.1363 -0.8079
 3176TIP3    H1 9492   6.998   4.943   1.113  2.3239 -0.4203  0.0707
 3176TIP3    H2 9493   6.954   4.939   0.968 -1.2244 -0.0059  1.0414
 3177TIP3   OH2 9494   3.550   2.708   1.714 -0.0999  0.2315  0.0112
 3177TIP3    H1 9495   3.583   2.782   1.663  0.5053 -0.2782 -0.3526
 3177TIP3    H2 9496   3.490   2.663   1.654 -0.8759  0.7164  0.4096
 3178TIP3   OH2 9497   3.845   1.908   5.604  0.1166  0.1518  0.1288
 3178TIP3    H1 9498   3.804   1.925   5.520 -0.4235 -2.0189 -0.1068
 3178TIP3    H2 9499   3.939   1.917   5.588  0.2258 -2.5465 -1.4152
 3179TIP3   OH2 9500   5.834   2.841   1.121 -0.7031 -0.8343  0.0966
 3179TIP3    H1 9501   5.849   2.931   1.093  0.4576 -0.6633  1.1573
 3179TIP3    H2 9502   5.911   2.819   1.173 -1.5982 -1.9641  1.0099
 3180TIP3   OH2 9503   3.107   4.612   1.763  0.6390 -0.0515 -0.1388
 3180TIP3    H1 9504   3.108   4.551   1.689  1.8923  0.3141 -0.4371
 3180TIP3    H2 9505   3.021   4.653   1.757 -0.5571 -2.2780  0.5099
 3181TIP3   OH2 9506   4.303   0.126   2.488  0.6293  0.1211 -0.2230
 3181TIP3    H1 9507   4.242   0.182   2.537  2.4312  0.9616  1.1582
 3181TIP3    H2 9508   4.297   0.041   2.532 -0.1036 -0.0405 -0.6074
 3182TIP3   OH2 9509   4.143   3.923   4.840  0.5228  0.2639  0.3856
 3182TIP3    H1 9510   4.207   3.852   4.848 -1.2204 -1.3746  0.6372
 3182TIP3    H2 9511   4.092   3.919   4.921 -0.6126  0.7666 -0.2710
 3183TIP3   OH2 9512   7.223   6.292   4.946  0.0621 -0.0453 -0.3690
 3183TIP3    H1 9513   7.147   6.340   4.912  0.8274  1.3064 -0.2240
 3183TIP3    H2 9514   7.206   6.282   5.039 -0.0166  0.0829 -0.3707
 3184TIP3   OH2 9515   4.395   0.775   3.395 -0.1973 -0.6127  0.1495
 3184TIP3    H1 9516   4.356   0.825   3.324  0.2352 -0.1060  0.2671
 3184TIP3    H2 9517   4.487   0.803   3.397 -0.5978  0.7937  2.1252
 3185TIP3   OH2 9518   3.102   1.778   0.941  0.3419 -0.4402  0.4176
 3185TIP3    H1 9519   3.082   1.774   0.847  2.2599 -0.8605 -0.0256
 3185TIP3    H2 9520   3.174   1.840   0.947  0.1163 -0.2879  1.6511
 3186TIP3   OH2 9521   4.489   2.124   1.005  0.0924  0.3942 -0.5757
 3186TIP3    H1 9522   4.413   2.069   1.024  0.4624  0.1201  0.1087
 3186TIP3    H2 9523   4.454   2.193   0.948 -0.7526  0.4723  0.0127
 3187TIP3   OH2 9524   4.121   4.252   3.248  0.0256  0.0487 -0.5307
 3187TIP3    H1 9525   4.032   4.245   3.213 -0.6514 -0.1510  1.1570
 3187TIP3    H2 9526   4.109   4.277   3.339  1.6936 -0.3566 -0.1742
 3188TIP3   OH2 9527   6.986   2.692   2.894  0.5162 -0.0584 -0.5928
 3188TIP3    H1 9528   7.035   2.611   2.882  2.0027  0.7328 -0.0732
 3188TIP3    H2 9529   6.909   2.682   2.837  1.1997 -1.3794 -1.3287
 3189TIP3   OH2 9530   2.305   2.895   4.513  0.3919  0.0478  0.0579
 3189TIP3    H1 9531   2.277   2.820   4.459  1.5028  0.3298 -0.9454
 3189TIP3    H2 9532   2.238   2.961   4.498 -1.7383 -1.3560  2.5235
 3190TIP3   OH2 9533   1.489   1.684   0.646 -0.3272  0.3114  0.9594
 3190TIP3    H1 9534   1.478   1.740   0.723  0.4141 -0.0779  1.3669
 3190TIP3    H2 9535   1.547   1.614   0.676 -0.2219  0.0210  0.1060
 3191TIP3   OH2 9536   4.580   6.557   1.233  0.0712 -0.0226  0.3575
 3191TIP3    H1 9537   4.544   6.482   1.280  2.0118 -1.1009  0.2058
 3191TIP3    H2 9538   4.549   6.545   1.143 -0.2821 -0.1906  0.4979
 3192TIP3   OH2 9539   3.854   0.296   1.590  0.3655  0.0408  0.0824
 3192TIP3    H1 9540   3.904   0.216   1.571  0.3906 -0.1697  0.9947
 3192TIP3    H2 9541   3.920   0.357   1.623  0.3502  0.4589 -0.6442
 3193TIP3   OH2 9542   6.244   6.461   3.844  0.2727  0.0656 -0.4465
 3193TIP3    H1 9543   6.230   6.447   3.750 -1.3624 -1.1630 -0.0577
 3193TIP3    H2 9544   6.339   6.454   3.855  0.4054 -0.7763 -1.8632
 3194TIP3   OH2 9545   6.560   6.489   1.927 -0.6064 -0.1578 -0.4402
 3194TIP3    H1 9546   6.531   6.536   2.005  0.1299 -0.4260  0.0096
 3194TIP3    H2 9547   6.531   6.399   1.939 -0.0358 -0.3185 -0.2148
 3195TIP3   OH2 9548   2.628   3.450   3.790 -0.0052  0.8045  0.1194
 3195TIP3    H1 9549   2.587   3.453   3.876  1.1804  0.4267  0.7195
 3195TIP3    H2 9550   2.722   3.457   3.808  0.2696  0.5816 -1.1315
 3196TIP3   OH2 9551   4.308   2.426   5.799  0.0095 -0.9168  0.3948
 3196TIP3    H1 9552   4.239   2.374   5.758 -1.5389  0.9828  0.4641
 3196TIP3    H2 9553   4.312   2.506   5.746  1.9747 -0.8575  0.5787
 3197TIP3   OH2 9554   1.595   3.823   1.661 -0.5085 -0.0320 -0.3056
 3197TIP3    H1 9555   1.550   3.907   1.670 -0.3363 -0.0915  1.2430
 3197TIP3    H2 9556   1.525   3.759   1.646 -0.6165  0.3969 -1.8651
 3198TIP3   OH2 9557   1.024   6.281   1.236 -0.2563  0.5401 -0.0554
 3198TIP3    H1 9558   1.004   6.280   1.329  0.4780 -1.1891  0.1068
 3198TIP3    H2 9559   0.983   6.362   1.204 -1.2067  0.7507  1.5908
 3199TIP3   OH2 9560   5.080   6.214   4.312  0.4054  0.4466  0.0319
 3199TIP3    H1 9561   5.172   6.228   4.291  0.2704  0.4632 -0.5689
 3199TIP3    H2 9562   5.046   6.301   4.331  0.5116  0.4383  0.2706
 3200TIP3   OH2 9563   3.290   4.571   3.834 -0.2086  0.0344  1.0495
 3200TIP3    H1 9564   3.197   4.588   3.816  0.1113  0.9207  0.1568
 3200TIP3    H2 9565   3.292   4.546   3.926 -1.1622  1.5135  1.5089
 3201TIP3   OH2 9566   1.053   1.443   2.945  0.0157 -0.2207  0.0991
 3201TIP3    H1 9567   1.091   1.516   2.895 -1.3391  1.3249  1.2068
 3201TIP3    H2 9568   1.098   1.446   3.029  1.5468 -2.1618 -0.5706
 3202TIP3   OH2 9569   5.697   1.031   0.667  0.0823  0.2152  0.1723
 3202TIP3    H1 9570   5.690   1.098   0.735  0.4678 -1.0263  1.4819
 3202TIP3    H2 9571   5.637   1.060   0.598  3.7228  4.5437 -1.6855
 3203TIP3   OH2 9572   1.148   2.156   4.855 -0.5807  0.4937 -0.4937
 3203TIP3    H1 9573   1.196   2.227   4.898 -1.5745  1.1956 -0.5013
 3203TIP3    H2 9574   1.119   2.099   4.926  1.1160 -0.5049 -0.5678
 3204TIP3   OH2 9575   3.937   3.734   0.513 -0.3614  0.8367  0.4315
 3204TIP3    H1 9576   3.950   3.686   0.431  1.7472  0.5400  0.8982
 3204TIP3    H2 9577   3.873   3.802   0.491 -1.4561 -0.5523 -0.8945
 3205TIP3   OH2 9578   2.751   0.291   3.075 -0.3331  0.1540  0.3184
 3205TIP3    H1 9579   2.810   0.328   3.141 -0.0955  0.0619  0.1596
 3205TIP3    H2 9580   2.691   0.363   3.054 -0.9635 -0.0836  1.2641
 3206TIP3   OH2 9581   2.259   6.277   3.186 -0.3025  0.0034 -0.2444
 3206TIP3    H1 9582   2.239   6.185   3.175  1.0026 -0.1683 -1.3370
 3206TIP3    H2 9583   2.340   6.279   3.238 -1.5182  0.6230  1.7770
 3207TIP3   OH2 9584   0.609   4.858   2.248  0.3751 -0.3926 -0.2739
 3207TIP3    H1 9585   0.522   4.896   2.233 -1.4092 -2.9960  2.2008
 3207TIP3    H2 9586   0.653   4.920   2.306 -0.2961  0.4133 -0.6088
 3208TIP3   OH2 9587   5.687   4.870   0.444  0.0613 -0.4323 -0.6286
 3208TIP3    H1 9588   5.764   4.812   0.447  0.7462  0.3536  3.5313
 3208TIP3    H2 9589   5.722   4.956   0.467 -1.8280  0.3392 -0.5027
 3209TIP3   OH2 9590   3.455   1.445   4.318 -0.3965 -0.7122 -0.2375
 3209TIP3    H1 9591   3.496   1.521   4.278 -0.4853 -0.2445  0.5444
 3209TIP3    H2 9592   3.413   1.478   4.397  1.1578 -1.8733  1.1502
 3210TIP3   OH2 9593   6.263   2.554   0.248  0.1090 -0.6800  0.2831
 3210TIP3    H1 9594   6.176   2.526   0.219  0.0579  1.0374 -1.3952
 3210TIP3    H2 9595   6.306   2.472   0.274 -1.0634 -1.9337 -1.4670
 3211TIP3   OH2 9596   5.261   5.302   2.143  0.3382  0.1126  0.5367
 3211TIP3    H1 9597   5.175   5.333   2.173  1.5743  1.9528  2.4805
 3211TIP3    H2 9598   5.243   5.264   2.057 -2.5017 -0.1148  1.1131
 3212TIP3   OH2 9599   0.962   6.197   0.969  0.0555 -0.0492  0.0831
 3212TIP3    H1 9600   0.935   6.156   0.886  0.8972  0.9763 -0.7283
 3212TIP3    H2 9601   0.943   6.290   0.956  2.5981  0.5237 -0.0017
 3213TIP3   OH2 9602   5.012   1.610   5.570  0.0273  0.7148  0.1281
 3213TIP3    H1 9603   5.064   1.592   5.649  2.4591  1.5037 -1.1635
 3213TIP3    H2 9604   5.061   1.568   5.499 -1.3173  1.2297 -1.1639
 3214TIP3   OH2 9605   2.811   5.510   4.675  0.2726  0.2192  0.4386
 3214TIP3    H1 9606   2.732   5.508   4.621  0.4416  0.0688  0.1936
 3214TIP3    H2 9607   2.869   5.572   4.632  0.5809 -0.2317  0.1994
 3215TIP3   OH2 9608   3.525   5.540   3.017 -0.3244  0.5609 -0.4835
 3215TIP3    H1 9609   3.455   5.491   2.974  0.0836 -0.4543 -0.0264
 3215TIP3    H2 9610   3.501   5.541   3.109  1.4195 -1.9623  0.1066
 3216TIP3   OH2 9611   3.146   6.445   3.013 -0.6713 -0.6222  0.4819
 3216TIP3    H1 9612   3.197   6.390   3.072 -0.6701 -0.6793  0.4278
 3216TIP3    H2 9613   3.207   6.515   2.987 -0.7082 -0.5317  0.6391
 3217TIP3   OH2 9614   2.440   0.458   2.184  0.3953 -0.6368  0.3003
 3217TIP3    H1 9615   2.435   0.531   2.123  3.0458 -0.0954  0.6018
 3217TIP3    H2 9616   2.405   0.383   2.136 -1.1259  0.5309 -0.4821
 3218TIP3   OH2 9617   0.929   1.816   2.788 -0.2313  0.1542 -0.5054
 3218TIP3    H1 9618   0.952   1.741   2.732  2.2435  1.0912 -0.9020
 3218TIP3    H2 9619   0.870   1.780   2.854  1.2064 -2.2715 -0.4278
 3219TIP3   OH2 9620   6.426   6.574   3.154  0.4690  0.2990  0.3646
 3219TIP3    H1 9621   6.415   6.532   3.240 -2.0424  1.7484  0.8458
 3219TIP3    H2 9622   6.337   6.590   3.123  1.2779  2.8362 -0.9743
 3220TIP3   OH2 9623   5.870   5.924   1.928 -0.0853  0.3890 -0.0126
 3220TIP3    H1 9624   5.841   5.919   1.837 -0.1539 -0.6654  0.0598
 3220TIP3    H2 9625   5.962   5.899   1.926 -0.3443 -0.6476  0.3242
 3221TIP3   OH2 9626   0.477   1.623   0.476 -0.3533 -0.5532  0.1418
 3221TIP3    H1 9627   0.484   1.677   0.555 -1.4781  2.0244 -1.3856
 3221TIP3    H2 9628   0.517   1.540   0.501  0.2847  0.4837  3.0820
 3222TIP3   OH2 9629   6.593   5.387   5.374 -0.0910 -0.0949 -0.1734
 3222TIP3    H1 9630   6.541   5.330   5.318 -0.5729  1.0261 -0.9162
 3222TIP3    H2 9631   6.530   5.425   5.435  0.1984 -0.2589  0.2280
 3223TIP3   OH2 9632   3.506   5.425   0.987  0.5900  0.1727 -0.2535
 3223TIP3    H1 9633   3.527   5.491   1.053  0.3916  0.3910 -0.4024
 3223TIP3    H2 9634   3.422   5.388   1.015  0.9521 -0.3795  0.1016
 3224TIP3   OH2 9635   5.852   4.138   4.531  0.6265 -0.6397 -0.2630
 3224TIP3    H1 9636   5.777   4.079   4.521 -0.7722  0.5403  2.3601
 3224TIP3    H2 9637   5.846   4.196   4.455 -0.5560 -1.1390 -0.5860
 3225TIP3   OH2 9638   0.658   1.995   2.906 -0.2795  0.4898 -0.0498
 3225TIP3    H1 9639   0.639   1.902   2.897 -1.3870  0.6856  0.2197
 3225TIP3    H2 9640   0.626   2.034   2.825  1.2220  0.4976 -0.6731
 3226TIP3   OH2 9641   6.363   0.908   0.886  0.0609 -0.5265 -0.0684
 3226TIP3    H1 9642   6.456   0.923   0.870  0.1783 -1.0324  0.1047
 3226TIP3    H2 9643   6.354   0.812   0.885 -0.2651 -0.5184  0.9345
 3227TIP3   OH2 9644   1.976   2.630   2.146  0.1027  0.2539 -0.0870
 3227TIP3    H1 9645   1.949   2.559   2.205  1.0865  0.1856  0.2945
 3227TIP3    H2 9646   1.941   2.710   2.187  0.4454  0.1658  0.3800
 3228TIP3   OH2 9647   6.399   1.419   1.788 -0.7499  0.3064 -0.0495
 3228TIP3    H1 9648   6.382   1.328   1.765 -3.6222  0.4799  0.9322
 3228TIP3    H2 9649   6.471   1.415   1.851 -0.0324 -1.1320 -0.9100
 3229TIP3   OH2 9650   0.918   2.771   3.635 -0.1221  0.5474 -0.5618
 3229TIP3    H1 9651   0.961   2.758   3.719 -2.2764  1.4445  0.7711
 3229TIP3    H2 9652   0.984   2.814   3.580  1.5607 -0.7138  0.3894
 3230TIP3   OH2 9653   6.619   4.549   4.139 -0.0442  0.6801 -0.1119
 3230TIP3    H1 9654   6.689   4.601   4.099  0.8697 -0.1149  0.4127
 3230TIP3    H2 9655   6.596   4.485   4.072  2.2681 -1.3866  0.8913
 3231TIP3   OH2 9656   6.291   0.888   3.647 -0.1179  0.0010 -0.7923
 3231TIP3    H1 9657   6.317   0.848   3.730 -2.3508  1.0367  0.5107
 3231TIP3    H2 9658   6.327   0.977   3.651  0.4372 -0.2009 -1.2947
 3232TIP3   OH2 9659   4.495   1.239   4.628 -0.0017  0.0539 -0.1641
 3232TIP3    H1 9660   4.420   1.278   4.674  0.3570  0.2500  0.2526
 3232TIP3    H2 9661   4.548   1.314   4.601  0.6842 -0.1302  0.6266
 3233TIP3   OH2 9662   3.288   3.144   3.251 -0.8869  0.1997  0.6921
 3233TIP3    H1 9663   3.253   3.058   3.228  1.1973 -0.4428 -0.3116
 3233TIP3    H2 9664   3.297   3.142   3.346 -0.9207 -0.6746  0.6807
 3234TIP3   OH2 9665   2.973   0.572   4.909 -0.3771  0.7160  0.2425
 3234TIP3    H1 9666   2.954   0.537   4.822  1.1099  1.7005 -0.5207
 3234TIP3    H2 9667   2.941   0.505   4.970 -0.3183 -0.5575 -1.0857
 3235TIP3   OH2 9668   2.784   1.621   4.456  0.0422  0.1750  0.6482
 3235TIP3    H1 9669   2.776   1.708   4.417  0.1604  0.2252  0.7353
 3235TIP3    H2 9670   2.765   1.635   4.549  0.5934  0.2006  0.7594
 3236TIP3   OH2 9671   0.045   5.171   5.797  0.6666 -0.4290  0.0481
 3236TIP3    H1 9672  -0.049   5.174   5.777  0.3426  0.8160  1.5763
 3236TIP3    H2 9673   0.066   5.259   5.828  2.2186 -0.8597  0.2998
 3237TIP3   OH2 9674   0.956   1.756   2.258  0.4671 -0.4335 -0.1278
 3237TIP3    H1 9675   0.934   1.836   2.305  0.4214 -0.5038 -0.0302
 3237TIP3    H2 9676   0.996   1.786   2.176 -1.6671 -0.2595 -1.1774
 3238TIP3   OH2 9677   0.509   3.518   1.696  0.2678 -0.5801  0.4691
 3238TIP3    H1 9678   0.554   3.490   1.776 -0.1421 -2.0822  0.2139
 3238TIP3    H2 9679   0.489   3.436   1.650  1.5709  0.2643 -1.7886
 3239TIP3   OH2 9680   0.182   0.328   0.352  0.2887  0.6938  0.3376
 3239TIP3    H1 9681   0.214   0.270   0.420  0.1165  0.5983  0.3359
 3239TIP3    H2 9682   0.088   0.338   0.369 -0.2302 -1.0768 -1.1496
 3240TIP3   OH2 9683   5.055   4.037   3.954  0.5055  0.5360  0.1345
 3240TIP3    H1 9684   5.020   4.048   4.042 -1.6025 -0.2449 -0.5395
 3240TIP3    H2 9685   5.040   4.121   3.911  0.4784  0.5451  0.1626
 3241TIP3   OH2 9686   2.136   6.557   5.402 -0.0341 -0.4751  0.4280
 3241TIP3    H1 9687   2.054   6.587   5.442 -0.4105 -1.2565  0.2767
 3241TIP3    H2 9688   2.128   6.582   5.310  1.0199  1.7071  0.8832
 3242TIP3   OH2 9689   6.391   3.238   0.379 -0.5306 -0.0958 -0.4105
 3242TIP3    H1 9690   6.359   3.243   0.469  1.7025 -0.1787  0.4432
 3242TIP3    H2 9691   6.360   3.153   0.348 -0.0749 -0.7390  0.8264
 3243TIP3   OH2 9692   5.386   4.113   0.163  0.2836  0.1839  0.8178
 3243TIP3    H1 9693   5.334   4.187   0.134 -0.3291  0.5033  2.5839
 3243TIP3    H2 9694   5.328   4.063   0.221  0.8120 -1.4682 -0.0050
 3244TIP3   OH2 9695   3.198   1.922   2.520 -0.2926  0.3622  0.2883
 3244TIP3    H1 9696   3.230   1.837   2.548 -0.8499  0.2121  0.4787
 3244TIP3    H2 9697   3.104   1.910   2.507 -0.7047  1.3676  2.0120
 3245TIP3   OH2 9698   3.612   3.526   1.876  0.2659 -0.3315  0.2378
 3245TIP3    H1 9699   3.627   3.457   1.941  2.2617  0.6398  0.9122
 3245TIP3    H2 9700   3.538   3.576   1.909 -1.8193 -2.5844 -0.7177
 3246TIP3   OH2 9701   1.127   6.727   5.543 -0.0266  0.0386  0.1905
 3246TIP3    H1 9702   1.042   6.683   5.539 -0.1191  0.2346 -0.0131
 3246TIP3    H2 9703   1.191   6.656   5.540 -0.1458 -0.0390 -1.2320
 3247TIP3   OH2 9704   4.520   6.569   3.553  0.0257  0.2937 -0.2555
 3247TIP3    H1 9705   4.462   6.542   3.482  0.1634 -0.1824 -0.1919
 3247TIP3    H2 9706   4.606   6.539   3.526  0.1038  0.2466  0.0439
 3248TIP3   OH2 9707   3.679   4.912   4.771 -0.1032  0.1047 -0.1723
 3248TIP3    H1 9708   3.683   4.879   4.861 -0.0094 -0.2481 -0.3078
 3248TIP3    H2 9709   3.768   4.942   4.753  0.4845 -2.0235 -0.9865
 3249TIP3   OH2 9710   3.723   2.678   3.399  0.0894 -0.2004  0.1127
 3249TIP3    H1 9711   3.786   2.607   3.392 -0.0325 -0.2621 -0.4287
 3249TIP3    H2 9712   3.638   2.637   3.379 -0.0521 -0.0125  0.3185
 3250TIP3   OH2 9713   3.650   3.869   2.397  0.3751  0.2549  0.2465
 3250TIP3    H1 9714   3.590   3.905   2.462  1.6222 -0.9422  2.1537
 3250TIP3    H2 9715   3.723   3.835   2.448  0.9548 -1.6694 -1.7184
 3251TIP3   OH2 9716   4.158   1.104   1.653  0.4231  0.2404 -0.1423
 3251TIP3    H1 9717   4.072   1.132   1.682  0.3727 -0.3731  0.3208
 3251TIP3    H2 9718   4.152   1.009   1.648  0.5260  0.2994 -1.8683
 3252TIP3   OH2 9719   4.372   0.047   2.961 -0.1091 -0.1562 -0.2351
 3252TIP3    H1 9720   4.309   0.115   2.985  1.5340  0.3530  3.4720
 3252TIP3    H2 9721   4.436   0.092   2.905 -1.1984  0.2007 -1.2202
 3253TIP3   OH2 9722   3.628   6.515   4.525 -0.0420 -0.1514  0.3815
 3253TIP3    H1 9723   3.676   6.542   4.447  0.8801  2.6941  1.7603
 3253TIP3    H2 9724   3.549   6.570   4.525 -1.6071 -2.2780 -0.0354
 3254TIP3   OH2 9725   0.538   2.600   1.888 -0.0220  0.2212  0.3633
 3254TIP3    H1 9726   0.606   2.616   1.953 -0.2724 -1.6869  1.1601
 3254TIP3    H2 9727   0.487   2.681   1.886  0.3512  0.5375  2.1199
 3255TIP3   OH2 9728   1.158   0.121   4.733 -0.2513  0.4322 -0.3645
 3255TIP3    H1 9729   1.092   0.181   4.700 -0.2856 -0.4292 -1.9353
 3255TIP3    H2 9730   1.139   0.038   4.691 -0.1567 -0.7088  1.6839
 3256TIP3   OH2 9731   6.977   3.276   0.554  0.0916  0.1221 -0.4357
 3256TIP3    H1 9732   7.004   3.307   0.468 -1.1162  0.4669 -0.7115
 3256TIP3    H2 9733   6.894   3.321   0.571  0.7353  0.7554  1.3091
 3257TIP3   OH2 9734   1.218   2.168   5.290 -0.0931  0.0489  0.0632
 3257TIP3    H1 9735   1.225   2.089   5.344 -0.2240 -1.4050 -1.9638
 3257TIP3    H2 9736   1.205   2.239   5.354 -0.2746 -1.5713  1.9250
 3258TIP3   OH2 9737   1.960   3.153   4.987 -0.5421  0.4192  0.5137
 3258TIP3    H1 9738   1.882   3.144   5.042  0.4344 -0.1439  1.8716
 3258TIP3    H2 9739   2.012   3.221   5.030 -0.5264  1.2216 -0.7127
 3259TIP3   OH2 9740   5.532   2.858   2.687  0.0325  0.3097  0.0241
 3259TIP3    H1 9741   5.494   2.867   2.775  0.7355  1.5351  0.2226
 3259TIP3    H2 9742   5.468   2.805   2.639 -1.6187  1.7237  0.5417
 3260TIP3   OH2 9743   1.644   1.454   0.732 -0.3971  0.1566 -0.7086
 3260TIP3    H1 9744   1.628   1.430   0.823 -0.3371  0.2845 -0.6638
 3260TIP3    H2 9745   1.573   1.412   0.683 -0.4144  0.0657 -0.6068
 3261TIP3   OH2 9746   0.982   2.088   0.559  0.1252 -0.8241  0.4986
 3261TIP3    H1 9747   0.965   2.171   0.514 -0.3707 -0.6910  0.9216
 3261TIP3    H2 9748   1.050   2.046   0.507 -0.4524 -0.6844 -0.3929
 3262TIP3   OH2 9749   1.714   4.724   1.830 -0.5630 -0.3545  0.0602
 3262TIP3    H1 9750   1.746   4.697   1.744  0.6422 -0.7606  0.6136
 3262TIP3    H2 9751   1.647   4.790   1.811  0.4296  0.3425 -1.1643
 3263TIP3   OH2 9752   5.515   0.959   1.986 -0.2958 -1.1149  0.5942
 3263TIP3    H1 9753   5.480   0.955   2.075  0.1160  1.4100  0.9497
 3263TIP3    H2 9754   5.455   0.905   1.934 -2.1555 -0.4466  1.9358
 3264TIP3   OH2 9755   1.677   2.484   0.665  0.5168 -0.1661 -0.3164
 3264TIP3    H1 9756   1.713   2.419   0.726  1.2772  0.8269  0.3267
 3264TIP3    H2 9757   1.585   2.493   0.691  1.1541  1.2836  1.6911
 3265TIP3   OH2 9758   6.208   3.737   2.674 -0.0475  0.7741  0.3599
 3265TIP3    H1 9759   6.188   3.781   2.591  0.6350 -0.2979 -0.3958
 3265TIP3    H2 9760   6.303   3.744   2.683  0.1579 -0.9974 -0.0691
 3266TIP3   OH2 9761   2.055   0.960   5.370 -0.2281  0.2251 -0.4325
 3266TIP3    H1 9762   2.100   0.881   5.398 -2.5583 -2.0579 -2.6111
 3266TIP3    H2 9763   2.038   1.008   5.451 -0.1108 -2.3062  1.1914
 3267TIP3   OH2 9764   2.737   6.259   5.189  0.0391  0.1451  0.0795
 3267TIP3    H1 9765   2.654   6.231   5.150 -0.4736  1.2900  0.2977
 3267TIP3    H2 9766   2.759   6.191   5.252 -0.9952  0.0636  0.3706
 3268TIP3   OH2 9767   0.305   5.477   2.545  0.4289  0.8157  0.0671
 3268TIP3    H1 9768   0.328   5.562   2.582  0.7852  1.2898 -1.2034
 3268TIP3    H2 9769   0.389   5.436   2.525  0.2560  1.0696 -1.2778
 3269TIP3   OH2 9770   0.337   6.736   4.341  0.3589  0.1439  0.5582
 3269TIP3    H1 9771   0.273   6.666   4.330 -0.4844  0.9063  0.4502
 3269TIP3    H2 9772   0.356   6.737   4.435  1.6176 -1.2631  0.3573
 3270TIP3   OH2 9773   0.444   1.514   5.589  0.4074 -0.3098 -0.3224
 3270TIP3    H1 9774   0.399   1.522   5.673  0.2926  0.4141 -0.4453
 3270TIP3    H2 9775   0.536   1.502   5.612  0.5257  0.9503 -0.0978
 3271TIP3   OH2 9776   3.506   1.224   3.622 -0.0746 -0.1028 -0.5228
 3271TIP3    H1 9777   3.527   1.132   3.634 -1.4901 -0.5511 -1.2502
 3271TIP3    H2 9778   3.469   1.252   3.706  1.8561  0.2685  0.2360
 3272TIP3   OH2 9779   0.843   1.338   4.868 -0.3730 -0.2397  0.1521
 3272TIP3    H1 9780   0.887   1.408   4.915 -0.8945  0.5123 -0.4593
 3272TIP3    H2 9781   0.911   1.298   4.815 -0.7188  2.2777 -2.4289
 3273TIP3   OH2 9782   3.900   5.021   2.368 -0.3268 -0.1196  0.1225
 3273TIP3    H1 9783   3.860   5.106   2.350  0.8605  0.1251 -1.5271
 3273TIP3    H2 9784   3.834   4.975   2.421 -1.7546  1.1351 -0.4813
 3274TIP3   OH2 9785   3.511   2.744   5.845 -0.1169 -0.1294 -0.3847
 3274TIP3    H1 9786   3.485   2.677   5.782 -0.4203  1.3445 -1.8945
 3274TIP3    H2 9787   3.537   2.695   5.923 -2.2450 -1.9298 -0.6957
 3275TIP3   OH2 9788   2.442   5.042   5.380  0.1610 -0.2260 -0.3832
 3275TIP3    H1 9789   2.536   5.056   5.379  0.2014 -0.4658  0.0488
 3275TIP3    H2 9790   2.414   5.063   5.290  0.3849  1.3952 -0.1103
 3276TIP3   OH2 9791   2.595   4.690   1.103  0.7626 -0.3043  0.5919
 3276TIP3    H1 9792   2.639   4.624   1.157 -0.6729 -2.0217 -0.2443
 3276TIP3    H2 9793   2.664   4.725   1.047  1.7667 -0.2897  1.7861
 3277TIP3   OH2 9794   0.514   0.430   3.216  0.1690  0.0962  0.3082
 3277TIP3    H1 9795   0.576   0.379   3.269  1.5803  0.5315 -0.8587
 3277TIP3    H2 9796   0.482   0.498   3.275  0.9283 -0.0561  0.9095
 3278TIP3   OH2 9797   5.994   2.117   0.021 -0.3624 -0.7675  0.0995
 3278TIP3    H1 9798   5.972   2.024   0.025 -2.5841 -0.2779  1.1160
 3278TIP3    H2 9799   6.003   2.143   0.113  1.5542 -0.2180 -0.2067
 3279TIP3   OH2 9800   6.700   0.224   1.696  0.3595  0.0750 -0.4521
 3279TIP3    H1 9801   6.671   0.138   1.667 -0.0783 -0.2981  0.9691
 3279TIP3    H2 9802   6.751   0.206   1.776 -1.8870  1.2595  1.3677
 3280TIP3   OH2 9803   4.059   1.686   2.863 -0.0596  0.1910 -0.1724
 3280TIP3    H1 9804   3.964   1.690   2.854 -0.1270 -0.7129  0.0318
 3280TIP3    H2 9805   4.077   1.595   2.887  0.9462  0.0779 -1.2687
 3281TIP3   OH2 9806   6.508   3.296   0.823  0.2468  0.2046  0.3174
 3281TIP3    H1 9807   6.509   3.203   0.847  0.4525  0.1160 -0.0185
 3281TIP3    H2 9808   6.581   3.304   0.761  1.8669  1.0879  2.2040
 3282TIP3   OH2 9809   3.337   4.176   1.929  0.0870 -0.1137 -0.4899
 3282TIP3    H1 9810   3.242   4.173   1.943  0.1807 -0.0646  0.2157
 3282TIP3    H2 9811   3.369   4.237   1.996  0.4506  1.0488 -1.6813
 3283TIP3   OH2 9812   0.740   3.324   2.602 -0.1993  0.2572 -0.1622
 3283TIP3    H1 9813   0.753   3.404   2.652  1.8495 -0.4687  0.5596
 3283TIP3    H2 9814   0.745   3.253   2.666 -0.4173 -0.5491 -1.0013
 3284TIP3   OH2 9815   0.099   2.428   2.971 -0.2450  0.1763 -0.3415
 3284TIP3    H1 9816   0.146   2.507   2.996 -2.2782  0.6894  2.4902
 3284TIP3    H2 9817   0.158   2.356   2.994  1.0970  0.8037 -1.6979
 3285TIP3   OH2 9818   3.290   4.619   2.591 -0.0503  0.1831  0.3651
 3285TIP3    H1 9819   3.223   4.677   2.554  0.9761 -1.7619 -5.8213
 3285TIP3    H2 9820   3.239   4.550   2.634 -1.7754  1.1574  0.0015
 3286TIP3   OH2 9821   5.980   5.798   4.918 -0.2891 -0.3757 -0.2750
 3286TIP3    H1 9822   5.933   5.749   4.850  1.7345 -3.0212  0.0510
 3286TIP3    H2 9823   6.041   5.853   4.870 -0.6770 -0.2680 -0.6437
 3287TIP3   OH2 9824   1.029   4.668   5.851  0.2061 -0.2158 -0.1947
 3287TIP3    H1 9825   0.972   4.732   5.807 -2.0386 -0.6142  1.8699
 3287TIP3    H2 9826   0.987   4.583   5.833  1.5526 -0.8261 -0.5700
 3288TIP3   OH2 9827   5.826   1.709   3.776  0.1016  0.7874  0.1322
 3288TIP3    H1 9828   5.884   1.783   3.793 -0.2446  0.8959  0.8439
 3288TIP3    H2 9829   5.741   1.748   3.758  0.1273  0.6018 -0.4175
 3289TIP3   OH2 9830   3.645   2.891   4.406  0.3228 -0.2197 -0.8290
 3289TIP3    H1 9831   3.640   2.861   4.315 -0.3481  0.7556 -1.1361
 3289TIP3    H2 9832   3.670   2.984   4.399 -1.5636  0.3933 -0.1518
 3290TIP3   OH2 9833   5.083   4.279   2.371 -0.0086  0.7935 -0.5147
 3290TIP3    H1 9834   5.127   4.336   2.434  2.2721 -0.0684 -1.2139
 3290TIP3    H2 9835   5.094   4.191   2.406 -1.6907  0.5659 -0.4726
 3291TIP3   OH2 9836   1.626   0.919   3.241 -0.1455  0.2321 -0.0357
 3291TIP3    H1 9837   1.579   0.840   3.213  0.8986 -0.3565 -0.1757
 3291TIP3    H2 9838   1.648   0.903   3.333  2.6597 -1.0171 -0.8007
 3292TIP3   OH2 9839   1.825   5.219   2.083 -0.3998  0.4121  0.1237
 3292TIP3    H1 9840   1.811   5.125   2.065 -1.3956  0.5293  0.2596
 3292TIP3    H2 9841   1.916   5.234   2.057 -0.3131 -0.5329 -0.1753
 3293TIP3   OH2 9842   0.654   0.095   3.713 -0.6800 -0.1340 -0.2018
 3293TIP3    H1 9843   0.732   0.130   3.668 -0.9019  0.2661 -0.2814
 3293TIP3    H2 9844   0.686   0.069   3.799 -0.3792 -0.3229 -0.3665
 3294TIP3   OH2 9845   4.851   5.683   1.521 -0.1433 -0.3542 -0.4637
 3294TIP3    H1 9846   4.938   5.704   1.487 -0.5749  1.3972 -0.6157
 3294TIP3    H2 9847   4.849   5.723   1.608  0.3503 -3.3306  1.0199
 3295TIP3   OH2 9848   1.347   0.340   4.324 -0.6011 -0.3717 -0.2344
 3295TIP3    H1 9849   1.259   0.373   4.341 -0.6459  0.2112 -1.4618
 3295TIP3    H2 9850   1.368   0.373   4.237  0.5025 -1.2184 -0.3087
 3296TIP3   OH2 9851   6.641   1.950   3.844  0.1959  0.1269 -0.6142
 3296TIP3    H1 9852   6.653   1.924   3.752  1.5316 -0.5137 -0.2804
 3296TIP3    H2 9853   6.692   1.886   3.894 -0.8504  0.2090  0.6231
 3297TIP3   OH2 9854   7.083   6.577   1.722  0.5256 -0.0824 -0.1898
 3297TIP3    H1 9855   7.157   6.517   1.730  0.5299 -0.0066  0.3261
 3297TIP3    H2 9856   7.007   6.519   1.715  0.6991 -0.1796 -1.5507
 3298TIP3   OH2 9857   2.213   5.972   3.871  0.1379  0.0602 -0.3595
 3298TIP3    H1 9858   2.188   6.063   3.889  1.0655  0.5437 -1.3911
 3298TIP3    H2 9859   2.130   5.924   3.872 -0.2235  0.5801  1.8418
 3299TIP3   OH2 9860   5.303   2.019   3.794  0.3788  0.3452 -0.1426
 3299TIP3    H1 9861   5.259   2.081   3.734  0.9843  0.6281 -0.3009
 3299TIP3    H2 9862   5.339   2.074   3.863  0.1638  0.0714  0.1933
 3300TIP3   OH2 9863   1.503   4.851   5.416 -0.0191 -0.1004  0.0095
 3300TIP3    H1 9864   1.501   4.947   5.415 -0.5984 -0.1124 -0.1982
 3300TIP3    H2 9865   1.467   4.826   5.331 -3.4372 -0.5560  1.4709
 3301TIP3   OH2 9866   2.538   2.705   4.653 -0.6647  0.6105 -0.0097
 3301TIP3    H1 9867   2.475   2.777   4.652 -0.7832  0.5083  0.0335
 3301TIP3    H2 9868   2.484   2.626   4.655 -0.5398  0.5120 -0.3934
 3302TIP3   OH2 9869   6.078   3.247   4.608 -0.1702  0.1017 -0.4903
 3302TIP3    H1 9870   6.148   3.296   4.566  0.2963 -0.7876 -0.7703
 3302TIP3    H2 9871   6.075   3.164   4.562 -2.2269  0.5493 -1.2842
 3303TIP3   OH2 9872   1.105   4.826   0.804 -0.5555 -0.1507  0.3032
 3303TIP3    H1 9873   1.087   4.747   0.854  0.0684 -0.9419 -0.6902
 3303TIP3    H2 9874   1.039   4.889   0.833 -1.5354 -1.2709  0.5550
 3304TIP3   OH2 9875   1.197   0.257   4.961  0.0352  0.3535  0.4213
 3304TIP3    H1 9876   1.180   0.192   4.892  0.6696  0.7103 -0.0903
 3304TIP3    H2 9877   1.118   0.311   4.962  0.3394  0.8498 -0.6127
 3305TIP3   OH2 9878   2.451   4.988   0.130 -0.5161 -0.1738  0.1411
 3305TIP3    H1 9879   2.396   4.912   0.110 -0.1994 -0.4546  0.3218
 3305TIP3    H2 9880   2.427   5.053   0.064  0.2505 -0.9470 -0.9428
 3306TIP3   OH2 9881   1.503   2.766   0.355  0.4365 -0.5894 -0.1765
 3306TIP3    H1 9882   1.426   2.714   0.381  0.5499 -0.5192  0.3116
 3306TIP3    H2 9883   1.570   2.743   0.420  0.3676  0.4614  0.2793
 3307TIP3   OH2 9884   5.797   4.725   4.614 -0.0541  0.0551 -0.6185
 3307TIP3    H1 9885   5.725   4.662   4.616  0.6886 -0.7952  0.3673
 3307TIP3    H2 9886   5.872   4.674   4.584  0.4475  0.5993 -0.3034
 3308TIP3   OH2 9887   6.027   5.704   0.658  0.0619 -0.4213 -0.9062
 3308TIP3    H1 9888   6.116   5.675   0.677 -0.0057 -1.4040 -1.9684
 3308TIP3    H2 9889   5.974   5.663   0.726  0.4305  0.4555 -0.0512
 3309TIP3   OH2 9890   2.914   3.805   4.410  0.3153 -0.0474 -0.5061
 3309TIP3    H1 9891   2.948   3.872   4.351  1.1088 -0.6551 -0.7531
 3309TIP3    H2 9892   2.819   3.817   4.408  0.4714  1.4221 -0.1128
 3310TIP3   OH2 9893   0.260   2.632   2.811 -0.0636 -0.1287  0.7894
 3310TIP3    H1 9894   0.271   2.716   2.856  0.2624  1.2777 -1.7591
 3310TIP3    H2 9895   0.175   2.639   2.768  0.1568 -0.9120  0.2114
 3311TIP3   OH2 9896   2.575   1.367   1.791  0.2633  0.0314 -0.1170
 3311TIP3    H1 9897   2.546   1.425   1.862  0.2273 -0.0654 -0.0522
 3311TIP3    H2 9898   2.649   1.413   1.752  1.2093 -0.5667  0.9094
 3312TIP3   OH2 9899   1.246   2.900   0.647  0.2893 -0.1372  0.1603
 3312TIP3    H1 9900   1.291   2.974   0.607  1.1143  0.4591  2.0542
 3312TIP3    H2 9901   1.300   2.824   0.625  2.1919  0.5280  2.1509
 3313TIP3   OH2 9902   3.393   5.194   4.565  0.1519  0.0764 -0.3144
 3313TIP3    H1 9903   3.366   5.286   4.554  1.0878  0.4338  0.2260
 3313TIP3    H2 9904   3.347   5.147   4.495 -3.0065  0.3578  1.3567
 3314TIP3   OH2 9905   4.826   4.422   5.645  0.2523  0.2358 -0.0472
 3314TIP3    H1 9906   4.845   4.513   5.626  0.3855  0.3243  0.4873
 3314TIP3    H2 9907   4.889   4.398   5.713  0.5683 -0.4070 -0.5615
 3315TIP3   OH2 9908   0.991   5.566   0.776 -0.3069  0.5545 -0.1156
 3315TIP3    H1 9909   0.994   5.646   0.828  1.0916  0.0162  0.6698
 3315TIP3    H2 9910   0.898   5.555   0.756 -0.7120  1.5456  1.0664
 3316TIP3   OH2 9911   4.612   1.300   4.212  0.1607  0.4455 -0.0028
 3316TIP3    H1 9912   4.555   1.375   4.228  0.7098  0.8349  0.1264
 3316TIP3    H2 9913   4.580   1.263   4.129 -0.1462  0.7815 -0.0352
 3317TIP3   OH2 9914   1.509   3.131   4.784  0.3570  0.1758 -0.0658
 3317TIP3    H1 9915   1.482   3.222   4.770 -0.1922  0.1305  0.6303
 3317TIP3    H2 9916   1.596   3.126   4.746 -0.1014  0.6711 -1.2324
 3318TIP3   OH2 9917   0.859   0.565   3.727  0.1757  0.1023 -0.1826
 3318TIP3    H1 9918   0.951   0.540   3.716  0.6249  1.5766 -0.0650
 3318TIP3    H2 9919   0.810   0.504   3.672  1.4363  0.7683 -2.1617
 3319TIP3   OH2 9920   1.621   4.773   0.861  0.5300  0.4691 -0.0643
 3319TIP3    H1 9921   1.624   4.835   0.788 -0.3437 -0.1420 -0.6290
 3319TIP3    H2 9922   1.537   4.791   0.904 -0.5435 -1.4329 -1.2497
 3320TIP3   OH2 9923   3.715   2.732   3.816  0.3742 -0.1328  0.1251
 3320TIP3    H1 9924   3.644   2.790   3.846 -0.1428 -0.1074 -1.1007
 3320TIP3    H2 9925   3.672   2.671   3.756  1.2607 -0.6145 -0.0305
 3321TIP3   OH2 9926   0.133   3.362   4.593 -0.8861  0.1272 -0.0499
 3321TIP3    H1 9927   0.182   3.316   4.662 -1.6021  0.1107  0.4539
 3321TIP3    H2 9928   0.051   3.387   4.635 -0.3757  2.2110 -0.1875
 3322TIP3   OH2 9929   5.887   5.132   0.265 -0.1687 -0.0977 -0.4998
 3322TIP3    H1 9930   5.945   5.178   0.326 -0.8152  1.6301 -1.1314
 3322TIP3    H2 9931   5.812   5.105   0.319  1.1388 -2.3626  0.3255
 3323TIP3   OH2 9932   2.230   2.438   5.677  0.5822  0.5645  0.3479
 3323TIP3    H1 9933   2.145   2.399   5.661  0.5048  0.3019  1.3272
 3323TIP3    H2 9934   2.274   2.377   5.737  1.4223  0.7393 -0.0640
 3324TIP3   OH2 9935   1.829   5.370   1.068 -0.2445 -0.1345 -0.6981
 3324TIP3    H1 9936   1.775   5.349   0.991 -0.8043  0.7097 -0.5511
 3324TIP3    H2 9937   1.834   5.466   1.068 -1.7838  0.0045  1.3464
 3325TIP3   OH2 9938   4.544   3.297   2.816 -0.2875 -0.2432 -0.4565
 3325TIP3    H1 9939   4.486   3.365   2.849 -0.5040 -0.9675  0.6982
 3325TIP3    H2 9940   4.603   3.343   2.756 -1.0547  0.7724 -0.4529
 3326TIP3   OH2 9941   2.359   5.383   1.257 -0.4067  0.1229  0.1812
 3326TIP3    H1 9942   2.306   5.381   1.336  0.4094 -0.9724  0.7244
 3326TIP3    H2 9943   2.369   5.291   1.232  0.1517  0.3935 -0.6404
 3327TIP3   OH2 9944   0.653   3.500   1.251  0.4298 -0.1663  0.0680
 3327TIP3    H1 9945   0.708   3.537   1.182 -0.9522  1.0746 -0.4224
 3327TIP3    H2 9946   0.660   3.562   1.323 -1.2446  0.6719 -0.4486
 3328TIP3   OH2 9947   6.976   2.965   5.369  0.0938  0.8325 -0.0438
 3328TIP3    H1 9948   6.919   2.895   5.336 -1.6567  1.5392  1.3105
 3328TIP3    H2 9949   6.961   2.965   5.463  1.3006  1.9963  0.1665
 3329TIP3   OH2 9950   0.996   0.390   3.165 -0.6381 -0.0545  0.5074
 3329TIP3    H1 9951   1.068   0.453   3.166 -0.2214 -0.5181  0.3529
 3329TIP3    H2 9952   0.949   0.408   3.084 -0.3719 -0.1020  0.3406
 3330TIP3   OH2 9953   4.936   4.565   0.119  0.3901  0.3760 -0.3157
 3330TIP3    H1 9954   4.949   4.573   0.213  0.3453 -0.5220 -0.2264
 3330TIP3    H2 9955   5.019   4.594   0.081  0.5775  0.2828  0.0194
 3331TIP3   OH2 9956   1.077   2.706   3.306 -0.2994 -0.1567 -0.1355
 3331TIP3    H1 9957   1.090   2.702   3.401 -0.3651 -1.7146 -0.1778
 3331TIP3    H2 9958   1.129   2.634   3.271  0.6699  1.1064 -1.4137
 3332TIP3   OH2 9959   1.230   1.825   5.786 -0.0267 -0.6922 -0.2167
 3332TIP3    H1 9960   1.321   1.826   5.754  0.4682 -0.9895  1.1212
 3332TIP3    H2 9961   1.234   1.774   5.867 -0.6376  2.5222  2.0403
 3333TIP3   OH2 9962   4.480   2.020   4.827  0.2767 -0.2256 -0.7368
 3333TIP3    H1 9963   4.506   2.110   4.845 -0.2135  0.1180 -1.7134
 3333TIP3    H2 9964   4.526   1.969   4.894 -0.0646  0.8119  0.3299
 3334TIP3   OH2 9965   2.134   6.457   0.367  0.1480 -0.2381 -0.0469
 3334TIP3    H1 9966   2.093   6.527   0.416 -0.6200  0.1478 -1.1939
 3334TIP3    H2 9967   2.200   6.421   0.426 -0.0851  0.8317  0.8885
 3335TIP3   OH2 9968   4.497   4.417   3.783 -0.3732  0.2026 -0.3127
 3335TIP3    H1 9969   4.417   4.374   3.813  0.7970 -1.8939  0.0855
 3335TIP3    H2 9970   4.532   4.460   3.861 -1.0231  1.0287 -0.4619
 3336TIP3   OH2 9971   6.160   3.763   4.679  0.4746  0.3039 -0.5994
 3336TIP3    H1 9972   6.197   3.840   4.635  0.3110  0.0260 -1.2311
 3336TIP3    H2 9973   6.225   3.694   4.668  0.3539  0.1814 -0.5553
 3337TIP3   OH2 9974   4.178   1.972   0.301  0.0925  0.1453 -0.1459
 3337TIP3    H1 9975   4.252   1.985   0.241 -1.2438  1.0895 -1.6958
 3337TIP3    H2 9976   4.210   2.001   0.386  2.0636 -1.2365 -0.3618
 3338TIP3   OH2 9977   3.703   0.079   3.965 -0.2480  0.0274 -0.0274
 3338TIP3    H1 9978   3.675   0.066   3.874 -2.6676  1.0416  0.5120
 3338TIP3    H2 9979   3.799   0.088   3.959 -0.2395 -0.9408 -2.3265
 3339TIP3   OH2 9980   0.990   4.946   0.497  0.1576 -0.0971  0.0161
 3339TIP3    H1 9981   1.039   4.936   0.579  0.1208 -0.0500  0.0439
 3339TIP3    H2 9982   1.053   4.982   0.435  0.5066 -1.2164 -0.3011
 3340TIP3   OH2 9983   3.100   2.223   1.713  0.1015 -0.2881 -0.1211
 3340TIP3    H1 9984   3.072   2.132   1.697  1.3960 -0.9096  0.9060
 3340TIP3    H2 9985   3.025   2.264   1.756 -0.5095 -0.8643 -0.6214
 3341TIP3   OH2 9986   4.398   2.885   4.753  0.1823  0.7028 -0.1731
 3341TIP3    H1 9987   4.373   2.812   4.809 -0.0561  0.4215 -0.6431
 3341TIP3    H2 9988   4.315   2.923   4.724  0.2933  0.0085 -1.4183
 3342TIP3   OH2 9989   4.022   2.231   0.469 -0.4678 -0.1038  0.0683
 3342TIP3    H1 9990   4.056   2.146   0.441  0.0559 -0.2767  1.1873
 3342TIP3    H2 9991   3.990   2.272   0.388  1.1229 -0.5217 -0.8257
 3343TIP3   OH2 9992   5.119   0.561   2.363  0.3033 -0.3467 -0.3820
 3343TIP3    H1 9993   5.146   0.504   2.291  0.4690  0.0363 -0.6278
 3343TIP3    H2 9994   5.195   0.565   2.421 -0.2102 -1.5545  0.4020
 3344TIP3   OH2 9995   2.711   0.147   5.707 -0.1403  0.3731  0.0715
 3344TIP3    H1 9996   2.657   0.101   5.771  0.3075  1.2388  1.0887
 3344TIP3    H2 9997   2.730   0.231   5.747 -0.0027  1.0144 -1.2861
 3345TIP3   OH2 9998   7.146   5.493   5.299 -0.2196  0.3394 -0.0436
 3345TIP3    H1 9999   7.076   5.557   5.296 -2.0266 -1.5365 -0.1813
 3345TIP3    H210000   7.105   5.411   5.271  1.8893 -0.9561  0.4264
 3346TIP3   OH210001   2.153   3.322   5.342 -0.8452 -0.2998 -0.2561
 3346TIP3    H110002   2.080   3.289   5.395  0.1622 -0.4108  1.1260
 3346TIP3    H210003   2.209   3.368   5.405  0.4373 -0.4916 -1.2261
 3347TIP3   OH210004   2.207   3.778   0.206  0.0851 -0.1685  0.8562
 3347TIP3    H110005   2.124   3.770   0.160  0.3293 -0.2587  0.4229
 3347TIP3    H210006   2.264   3.715   0.163  0.1113 -0.7837  1.7641
 3348TIP3   OH210007   6.076   6.161   4.497 -0.2669 -0.0207 -0.6427
 3348TIP3    H110008   6.007   6.125   4.441 -0.0555 -1.2226 -0.1673
 3348TIP3    H210009   6.082   6.253   4.472 -2.2195  0.1703 -0.5161
 3349TIP3   OH210010   5.652   2.223   2.300  0.2802  0.1130  0.6474
 3349TIP3    H110011   5.744   2.235   2.321  0.1731  0.7179  0.7736
 3349TIP3    H210012   5.649   2.219   2.204  0.4965 -0.4487  0.6574
 3350TIP3   OH210013   1.121   5.517   5.045 -0.4370 -0.1517  0.0535
 3350TIP3    H110014   1.195   5.573   5.070 -2.3852  2.1745  1.0491
 3350TIP3    H210015   1.127   5.511   4.949 -0.3062  2.1510 -0.1516
 3351TIP3   OH210016   4.764   0.630   4.209  0.1489  0.2253 -0.0343
 3351TIP3    H110017   4.691   0.668   4.259  0.1984  3.4076 -2.1330
 3351TIP3    H210018   4.843   0.665   4.251  0.4557 -1.4167  0.8459
 3352TIP3   OH210019   6.903   5.539   0.951  0.5371  0.0211 -0.3960
 3352TIP3    H110020   6.980   5.577   0.909 -0.0950 -0.7939 -2.4151
 3352TIP3    H210021   6.886   5.459   0.902 -1.3029 -0.0933  0.3397
 3353TIP3   OH210022   1.606   2.736   3.274  0.4189  0.9935  0.4346
 3353TIP3    H110023   1.573   2.655   3.236  1.5013 -0.1511  1.8455
 3353TIP3    H210024   1.598   2.724   3.369  1.8267  1.9961  0.7134
 3354TIP3   OH210025   1.351   4.915   4.577  0.0849 -0.4819  0.2640
 3354TIP3    H110026   1.383   4.857   4.507  0.6329  0.0254  0.0800
 3354TIP3    H210027   1.284   4.864   4.622  1.4063 -1.7346  0.8905
 3355TIP3   OH210028   2.734   5.855   4.976  0.3458 -0.2226 -0.3736
 3355TIP3    H110029   2.721   5.867   4.882 -0.2723 -0.1730 -0.2837
 3355TIP3    H210030   2.741   5.760   4.988 -1.0979 -0.3394 -0.2864
 3356TIP3   OH210031   5.222   6.433   1.003  0.0175  0.1395 -0.5391
 3356TIP3    H110032   5.236   6.389   0.919 -0.1386 -1.0538  0.0421
 3356TIP3    H210033   5.162   6.504   0.982  0.0065 -0.1175 -1.4482
 3357TIP3   OH210034   2.294   2.052   4.632 -0.1022  0.2928 -0.3196
 3357TIP3    H110035   2.221   2.041   4.571  0.1890  0.6458 -0.7396
 3357TIP3    H210036   2.337   2.133   4.605  0.3389  0.1871  0.0351
 3358TIP3   OH210037   4.534   5.729   0.383 -0.4348  0.1746  0.2575
 3358TIP3    H110038   4.617   5.702   0.343 -1.3333 -0.9294 -0.9497
 3358TIP3    H210039   4.557   5.750   0.474  0.8693 -1.8358  0.4576
 3359TIP3   OH210040   6.565   3.493   1.811 -0.0996  0.1870 -0.1043
 3359TIP3    H110041   6.546   3.400   1.822 -1.1832  0.5116  1.0767
 3359TIP3    H210042   6.483   3.537   1.833  0.9803  1.5116  1.5783
 3360TIP3   OH210043   5.659   1.590   2.908  0.2922 -0.0243 -0.0352
 3360TIP3    H110044   5.614   1.625   2.985 -0.8769  4.7857 -2.5265
 3360TIP3    H210045   5.747   1.628   2.914  0.9567 -1.5228  0.0080
 3361TIP3   OH210046   5.557   1.253   3.898  0.3608  0.1091  0.2568
 3361TIP3    H110047   5.493   1.184   3.884  0.6313 -0.0694 -0.0997
 3361TIP3    H210048   5.580   1.246   3.991 -1.1883  1.0851  0.7546
 3362TIP3   OH210049   2.487   3.034   4.667  0.2144  0.0099 -0.7728
 3362TIP3    H110050   2.547   3.079   4.608 -0.7086  0.2698 -1.5513
 3362TIP3    H210051   2.416   3.004   4.610 -0.7183  0.2826  0.2141
 3363TIP3   OH210052   0.858   2.594   1.262  0.2521  0.1689 -0.1767
 3363TIP3    H110053   0.948   2.625   1.273 -0.0628  0.3987  2.1613
 3363TIP3    H210054   0.867   2.499   1.249  0.9355  0.5146 -2.9630
 3364TIP3   OH210055   4.812   4.107   2.902  0.5166  0.2173 -0.2137
 3364TIP3    H110056   4.799   4.021   2.943  0.3046  0.7368  0.8394
 3364TIP3    H210057   4.727   4.130   2.866  0.1390  0.6788  0.9125
 3365TIP3   OH210058   0.126   0.389   0.827 -0.2840  0.2312 -0.2853
 3365TIP3    H110059   0.059   0.457   0.815 -1.1139 -0.2795  1.1670
 3365TIP3    H210060   0.151   0.396   0.919  1.4223  0.1511 -0.7105
 3366TIP3   OH210061   2.252   1.025   3.907  0.6103  0.7337 -0.2490
 3366TIP3    H110062   2.280   1.019   3.999  0.0302  0.5756 -0.0813
 3366TIP3    H210063   2.318   0.975   3.859  1.0785  1.0516  0.0423
 3367TIP3   OH210064   2.262   6.217   5.291 -0.0018  0.1641 -0.0595
 3367TIP3    H110065   2.306   6.194   5.373 -0.6689 -2.5326 -0.3575
 3367TIP3    H210066   2.169   6.215   5.312 -0.1419  0.8283 -0.5833
 3368TIP3   OH210067   3.858   2.113   2.893 -0.0448 -0.3806  0.0683
 3368TIP3    H110068   3.922   2.164   2.942 -0.6876  0.3574  0.1509
 3368TIP3    H210069   3.791   2.089   2.957 -0.0024 -0.9009 -0.0760
 3369TIP3   OH210070   2.614   2.583   1.627  0.0178  0.0710  0.0575
 3369TIP3    H110071   2.545   2.637   1.587  1.1344 -0.4738 -2.8987
 3369TIP3    H210072   2.568   2.512   1.670 -1.3494 -0.6809 -2.4577
 3370TIP3   OH210073   4.001   5.348   2.763  0.4623  0.1858  0.0804
 3370TIP3    H110074   4.026   5.255   2.771 -2.1756 -1.0416 -3.3581
 3370TIP3    H210075   4.059   5.382   2.695 -0.9258 -0.0508 -1.2642
 3371TIP3   OH210076   5.870   6.255   4.766 -0.0205  1.0163  0.6180
 3371TIP3    H110077   5.775   6.254   4.774 -0.1129 -0.8082 -0.3702
 3371TIP3    H210078   5.896   6.163   4.769  1.4876  1.2953 -1.5160
 3372TIP3   OH210079   1.296   5.329   3.351 -0.2731 -0.1243 -0.6429
 3372TIP3    H110080   1.387   5.359   3.359 -0.3842  0.3669 -1.1412
 3372TIP3    H210081   1.261   5.334   3.440 -0.8986  3.2777 -0.9589
 3373TIP3   OH210082   5.499   3.429   0.235 -0.0191  0.5646  0.0238
 3373TIP3    H110083   5.472   3.515   0.204 -0.2894  0.1224 -0.9819
 3373TIP3    H210084   5.568   3.448   0.299 -0.8282  1.5699  0.6360
 3374TIP3   OH210085   2.173   3.302   2.273  0.4183  0.5105  0.6374
 3374TIP3    H110086   2.236   3.324   2.342  0.8554  0.5059  0.2489
 3374TIP3    H210087   2.159   3.385   2.226  2.1685 -0.0088 -0.9108
 3375TIP3   OH210088   5.956   1.455   5.493 -0.1949  0.2564  0.1801
 3375TIP3    H110089   5.870   1.494   5.506  0.6499  1.5773  2.4127
 3375TIP3    H210090   5.982   1.424   5.580  0.2874 -3.0983 -0.9926
 3376TIP3   OH210091   2.376   5.391   4.595 -0.4479 -0.1662  0.1680
 3376TIP3    H110092   2.461   5.355   4.621 -1.1319 -1.6606  0.4044
 3376TIP3    H210093   2.382   5.400   4.500  0.3102  0.6840  0.2780
 3377TIP3   OH210094   3.813   2.538   1.530  0.4981 -0.3011 -0.4684
 3377TIP3    H110095   3.760   2.477   1.579  1.4213 -0.8175 -0.0886
 3377TIP3    H210096   3.752   2.582   1.471 -0.7742  0.8715  1.6351
 3378TIP3   OH210097   0.579   5.992   4.388  0.3209  0.5612 -0.6783
 3378TIP3    H110098   0.643   6.047   4.433  0.2030 -1.4532  2.2045
 3378TIP3    H210099   0.629   5.950   4.318  2.4303 -1.2443  1.7236
 3379TIP3   OH210100   1.789   2.319   0.049 -0.1085 -0.4847  0.4340
 3379TIP3    H110101   1.813   2.230   0.076  1.4918 -0.0203  0.6505
 3379TIP3    H210102   1.702   2.332   0.087  0.4544 -1.2489  2.1212
 3380TIP3   OH210103   4.275   4.487   3.139  0.9624 -0.2465  0.0856
 3380TIP3    H110104   4.297   4.434   3.062 -2.4433 -0.4910 -0.8956
 3380TIP3    H210105   4.206   4.438   3.183 -0.1085  1.8680  0.9082
 3381TIP3   OH210106   3.396   1.980   4.271 -0.0755 -0.4672 -0.4382
 3381TIP3    H110107   3.460   1.976   4.342 -0.9802  1.5045  0.5773
 3381TIP3    H210108   3.445   2.016   4.197  0.4933 -1.0296 -0.3415
 3382TIP3   OH210109   4.520   3.707   0.942  0.2433  0.4678  0.0818
 3382TIP3    H110110   4.529   3.660   1.025  0.6585  0.9314  0.3003
 3382TIP3    H210111   4.600   3.687   0.894  0.5168  1.1084  0.2594
 3383TIP3   OH210112   6.116   5.103   5.776 -0.1969 -0.0634  0.1832
 3383TIP3    H110113   6.024   5.086   5.754 -0.6729  0.1590  1.8767
 3383TIP3    H210114   6.152   5.143   5.697 -0.9607 -2.1267 -1.2805
 3384TIP3   OH210115   3.460   3.216   1.008 -0.3292 -0.8752 -0.4768
 3384TIP3    H110116   3.475   3.129   1.043  0.9334 -0.6226 -0.3349
 3384TIP3    H210117   3.497   3.213   0.920  2.1899  0.2021  0.4207
 3385TIP3   OH210118   6.166   5.072   2.404  0.2256 -0.2088  0.4603
 3385TIP3    H110119   6.185   4.982   2.431  1.0803  0.0465  0.7595
 3385TIP3    H210120   6.114   5.063   2.325  0.5121 -0.9727  0.3493
 3386TIP3   OH210121   6.659   6.068   1.579 -0.0783  0.5802  0.0504
 3386TIP3    H110122   6.650   6.159   1.609 -0.2156  0.6530 -0.2115
 3386TIP3    H210123   6.579   6.025   1.610 -0.2128  0.6516 -0.1993
 3387TIP3   OH210124   7.006   0.502   2.054 -0.3575  0.4890 -0.3210
 3387TIP3    H110125   7.100   0.505   2.071 -0.4227  0.9800 -0.0364
 3387TIP3    H210126   6.985   0.587   2.015 -0.3938 -0.2388 -1.9807
 3388TIP3   OH210127   2.073   0.561   4.120  0.0046  0.1107  0.0707
 3388TIP3    H110128   2.154   0.611   4.120  0.7862 -1.0833  1.2428
 3388TIP3    H210129   2.028   0.589   4.200 -1.0893  1.2493 -0.9007
 3389TIP3   OH210130   2.548   5.809   3.831  0.4321 -0.2022 -0.2490
 3389TIP3    H110131   2.631   5.856   3.823 -0.0751  1.0005  1.0690
 3389TIP3    H210132   2.490   5.853   3.769 -0.5178  2.1628  2.1105
 3390TIP3   OH210133   3.292   1.028   2.319  0.4988 -0.1347  0.1580
 3390TIP3    H110134   3.333   1.008   2.403  0.4847  0.3966  0.2896
 3390TIP3    H210135   3.297   0.945   2.271  2.7470  0.1703 -0.2631
 3391TIP3   OH210136   4.098   1.479   3.362 -0.4197 -0.0403  0.9909
 3391TIP3    H110137   4.072   1.511   3.449  0.7417  0.4647  1.1815
 3391TIP3    H210138   4.112   1.559   3.311 -0.1190 -0.3064  0.6517
 3392TIP3   OH210139   5.689   2.088   4.640  0.3896 -0.4217 -0.1673
 3392TIP3    H110140   5.596   2.112   4.632  0.6569  1.3187  1.3639
 3392TIP3    H210141   5.723   2.097   4.551 -0.3737  1.5465 -0.3237
 3393TIP3   OH210142   5.366   5.795   3.579 -0.7097  0.3957 -0.7056
 3393TIP3    H110143   5.317   5.766   3.657 -0.0655 -1.5920 -0.9799
 3393TIP3    H210144   5.393   5.714   3.536 -2.5025  1.3680 -3.9918
 3394TIP3   OH210145   1.926   4.645   1.176 -0.0838  0.1433  0.2108
 3394TIP3    H110146   2.003   4.637   1.119 -0.4907 -0.3939 -0.2840
 3394TIP3    H210147   1.897   4.735   1.164 -0.1534  0.0418 -0.4234
 3395TIP3   OH210148   3.271   2.554   0.962 -0.0034 -0.4289 -0.2496
 3395TIP3    H110149   3.209   2.611   1.008  0.4304 -0.1494 -0.0027
 3395TIP3    H210150   3.298   2.604   0.886 -0.7705 -0.9185 -0.8570
 3396TIP3   OH210151   2.235   6.436   4.933 -0.2512  0.2174  0.5509
 3396TIP3    H110152   2.275   6.392   4.858  0.5579  2.1607 -0.2361
 3396TIP3    H210153   2.291   6.412   5.007 -0.0475 -0.3683  0.2188
 3397TIP3   OH210154   1.865   5.273   1.730 -0.5823  0.2959  0.1200
 3397TIP3    H110155   1.815   5.333   1.785 -0.9732 -0.1402  0.2463
 3397TIP3    H210156   1.952   5.313   1.724 -0.9607  1.1132 -0.1859
 3398TIP3   OH210157   4.305   1.739   1.348 -0.5281  0.2554  0.0808
 3398TIP3    H110158   4.251   1.733   1.428  1.6788  2.3690  1.8602
 3398TIP3    H210159   4.301   1.831   1.323 -0.2008 -0.1544 -1.5720
 3399TIP3   OH210160   2.957   5.246   2.182  0.1150 -0.3866  0.1968
 3399TIP3    H110161   2.879   5.263   2.129 -0.6637  0.6504  1.6199
 3399TIP3    H210162   2.997   5.169   2.141 -1.7419 -1.0626 -0.4484
 3400TIP3   OH210163   3.953   4.781   0.087 -0.2105 -0.3513  0.4146
 3400TIP3    H110164   3.950   4.700   0.035  0.7930  0.5350 -1.0924
 3400TIP3    H210165   3.865   4.788   0.125 -0.9801 -1.0596 -1.1278
 3401TIP3   OH210166   2.404   0.583   0.560  0.7627 -0.0709 -0.1343
 3401TIP3    H110167   2.370   0.553   0.476  0.3640  0.5059 -0.1794
 3401TIP3    H210168   2.469   0.650   0.538 -1.7960  2.6578  0.0579
 3402TIP3   OH210169   4.965   0.676   1.022  0.3986 -0.2690 -0.5502
 3402TIP3    H110170   5.029   0.746   1.026  0.5598 -0.4711  1.1248
 3402TIP3    H210171   5.017   0.596   1.017  0.3607 -0.4642  1.2558
 3403TIP3   OH210172  -0.021   6.636   2.093 -0.1081  0.5376  0.5199
 3403TIP3    H110173   0.004   6.662   2.182  0.7181  1.1856  0.1096
 3403TIP3    H210174   0.058   6.650   2.041  0.4324 -2.7253  0.2297
 3404TIP3   OH210175   4.878   5.903   3.855 -0.0001 -0.3826 -0.0877
 3404TIP3    H110176   4.908   5.979   3.904 -0.1756  0.4369 -1.1981
 3404TIP3    H210177   4.794   5.930   3.819  0.1237 -0.9481 -0.8287
 3405TIP3   OH210178   2.715   6.115   5.410  1.0225 -0.2330  0.2580
 3405TIP3    H110179   2.669   6.037   5.379 -0.5105  0.8244 -0.2475
 3405TIP3    H210180   2.677   6.133   5.496  1.9147 -0.4721  0.7092
 3406TIP3   OH210181   4.369   5.809   5.364 -0.3436  0.0545 -1.0493
 3406TIP3    H110182   4.446   5.753   5.361 -0.5599 -0.6127  2.2697
 3406TIP3    H210183   4.399   5.894   5.331  1.4342 -0.5334 -1.0232
 3407TIP3   OH210184   4.704   3.887   0.075 -0.3501  0.1629  0.3095
 3407TIP3    H110185   4.736   3.952   0.013 -0.3746  0.3143  0.4545
 3407TIP3    H210186   4.675   3.813   0.021 -0.9966  0.5651  0.0992
 3408TIP3   OH210187   3.041   2.262   0.397  0.4509  0.4405 -0.2767
 3408TIP3    H110188   3.083   2.347   0.382  2.4102  0.0843  2.4229
 3408TIP3    H210189   2.957   2.284   0.436 -0.1547  1.1057 -1.8440
 3409TIP3   OH210190   0.779   3.104   4.901  0.1589  0.2454 -0.0087
 3409TIP3    H110191   0.810   3.102   4.811 -0.2216  0.0714 -0.1402
 3409TIP3    H210192   0.800   3.192   4.932  2.0282 -0.2918  0.3676
 3410TIP3   OH210193   5.311   0.425   1.576  0.3370  0.2439 -0.2745
 3410TIP3    H110194   5.392   0.429   1.627 -0.0386 -2.4594  0.7171
 3410TIP3    H210195   5.340   0.415   1.485  1.0848  0.8098 -0.1025
 3411TIP3   OH210196   6.789   6.262   3.021  0.2512  0.3244 -0.6470
 3411TIP3    H110197   6.774   6.174   3.056 -0.9452  0.5709 -0.5077
 3411TIP3    H210198   6.817   6.247   2.930 -1.1663 -0.1701 -1.0226
 3412TIP3   OH210199   3.065   0.710   5.566  0.1108  0.3266  0.4583
 3412TIP3    H110200   3.125   0.638   5.548 -0.7911 -1.3522  3.3908
 3412TIP3    H210201   3.047   0.749   5.481  2.6175 -1.2896 -0.9304
 3413TIP3   OH210202   2.044   6.740   4.403  0.2874  0.0135 -0.1700
 3413TIP3    H110203   2.003   6.787   4.331  0.7388  1.3249  0.3899
 3413TIP3    H210204   2.134   6.771   4.403  0.4173 -0.3494  0.6388
 3414TIP3   OH210205   5.874   4.790   0.918 -0.1607  0.1887 -0.0282
 3414TIP3    H110206   5.907   4.849   0.986 -2.6816 -0.1158  1.5824
 3414TIP3    H210207   5.829   4.848   0.856  1.3780  0.3743 -1.0115
 3415TIP3   OH210208   0.506   0.817   0.571 -0.1022  0.8228  0.5059
 3415TIP3    H110209   0.475   0.747   0.514 -0.8705  1.7543 -0.2652
 3415TIP3    H210210   0.442   0.821   0.641 -0.7600  1.5482 -0.1153
 3416TIP3   OH210211   4.558   2.959   5.619  0.2699  0.5247 -0.1371
 3416TIP3    H110212   4.506   2.879   5.613 -0.7677  1.0171  1.5020
 3416TIP3    H210213   4.517   3.018   5.555 -1.5717  1.0351  1.3811
 3417TIP3   OH210214   5.842   1.419   2.205  0.0658  0.1542  0.0247
 3417TIP3    H110215   5.810   1.477   2.136 -1.1602  0.1331  0.5546
 3417TIP3    H210216   5.775   1.351   2.211  0.1526  0.1678  1.2333
 3418TIP3   OH210217   3.367   5.977   2.088 -0.1241  0.5907  0.0382
 3418TIP3    H110218   3.431   5.913   2.118  0.1892  0.5703 -0.6519
 3418TIP3    H210219   3.295   5.971   2.151 -0.0836 -0.4167  0.0014
 3419TIP3   OH210220   3.404   3.884   3.414 -0.4297 -0.1950 -0.1413
 3419TIP3    H110221   3.371   3.796   3.431  1.3417 -0.6898  1.0361
 3419TIP3    H210222   3.490   3.871   3.374 -0.1081  0.9808  0.1133
 3420TIP3   OH210223   3.158   2.522   4.541 -0.2411 -0.3731  0.3663
 3420TIP3    H110224   3.115   2.592   4.492 -0.0864 -0.7907 -0.3824
 3420TIP3    H210225   3.173   2.559   4.628 -0.4793  0.3993  0.0863
 3421TIP3   OH210226   5.711   4.297   5.798 -0.2435  0.1284 -0.0316
 3421TIP3    H110227   5.660   4.216   5.805 -2.9092  1.7204  0.2857
 3421TIP3    H210228   5.671   4.345   5.726  1.3760  1.1430 -0.3063
 3422TIP3   OH210229   4.652   6.244   0.231  0.3058  0.3799  0.1607
 3422TIP3    H110230   4.563   6.280   0.225 -0.1901 -0.3261  2.3986
 3422TIP3    H210231   4.708   6.314   0.198 -0.9284  1.7270  0.7913
 3423TIP3   OH210232   0.254   6.201   3.149  0.2332  0.1719 -0.0410
 3423TIP3    H110233   0.188   6.159   3.205 -0.4420  0.3172 -0.6964
 3423TIP3    H210234   0.316   6.241   3.209 -1.8099  2.4823  0.6871
 3424TIP3   OH210235   2.048   2.704   4.070 -0.0304 -0.0665 -0.8072
 3424TIP3    H110236   1.982   2.753   4.119 -0.3926 -1.0525 -0.2952
 3424TIP3    H210237   2.126   2.760   4.073 -0.2685  0.2270  0.2352
 3425TIP3   OH210238   3.419   2.039   5.257 -0.2538  0.0658  0.0691
 3425TIP3    H110239   3.418   2.127   5.293  1.5735  0.3482 -0.4729
 3425TIP3    H210240   3.507   2.006   5.275 -0.5362 -1.2157 -0.7440
 3426TIP3   OH210241   1.389   3.375   4.736 -0.5785 -0.1273 -0.5351
 3426TIP3    H110242   1.327   3.381   4.663 -2.1823  0.7127  0.8292
 3426TIP3    H210243   1.442   3.454   4.727 -0.6235 -0.1354 -0.9133
 3427TIP3   OH210244   6.588   5.136   0.289  0.1060  0.6315  0.0074
 3427TIP3    H110245   6.493   5.123   0.288  0.3313 -1.8423  1.4267
 3427TIP3    H210246   6.616   5.110   0.201 -0.3737 -0.3385  0.1298
 3428TIP3   OH210247   3.812   2.720   1.223 -0.0876  0.8985  0.3751
 3428TIP3    H110248   3.882   2.656   1.239  1.5556  2.7713  1.1234
 3428TIP3    H210249   3.740   2.668   1.187  0.3326 -1.7392  2.9322
 3429TIP3   OH210250   2.706   4.294   5.113  0.2929 -0.3826 -0.3813
 3429TIP3    H110251   2.647   4.245   5.170 -0.1257  1.2054  0.6423
 3429TIP3    H210252   2.779   4.320   5.170  0.4970  0.1571 -0.8734
 3430TIP3   OH210253   0.277   3.234   4.803  0.6003 -0.3039 -1.1171
 3430TIP3    H110254   0.259   3.143   4.825  1.0469 -0.4754 -1.4422
 3430TIP3    H210255   0.352   3.258   4.857 -1.5311  0.9405  1.5364
 3431TIP3   OH210256   1.008   2.419   1.506  0.6238  0.1907  0.7478
 3431TIP3    H110257   1.019   2.438   1.412 -2.4594  1.1727  0.4674
 3431TIP3    H210258   1.015   2.324   1.512  0.7783  0.0994 -0.5112
 3432TIP3   OH210259   2.604   5.508   1.486 -0.0683  0.5657 -0.5694
 3432TIP3    H110260   2.662   5.448   1.438  0.1239 -0.6219  1.0643
 3432TIP3    H210261   2.644   5.594   1.474 -0.2334  0.3847 -2.8116
 3433TIP3   OH210262   3.232   1.664   2.249  0.0115 -0.2188 -0.3230
 3433TIP3    H110263   3.161   1.728   2.257  0.4914  0.1406  1.8870
 3433TIP3    H210264   3.205   1.592   2.305  0.4707 -1.0098 -1.0996
 3434TIP3   OH210265   6.431   6.387   3.383  0.1107  0.3609  0.2899
 3434TIP3    H110266   6.519   6.420   3.396  0.6370 -0.4544 -0.9516
 3434TIP3    H210267   6.442   6.313   3.323 -1.3151 -0.3361  0.8453
 3435TIP3   OH210268   6.189   5.040   1.902  0.9695  0.3528 -0.3943
 3435TIP3    H110269   6.258   4.977   1.882 -0.1060 -0.7066 -0.9021
 3435TIP3    H210270   6.206   5.114   1.843  1.9388  0.3244 -0.1658
 3436TIP3   OH210271   1.679   6.243   3.036 -0.3663  0.1428 -0.8228
 3436TIP3    H110272   1.739   6.303   2.993 -1.6778  1.4261 -0.9332
 3436TIP3    H210273   1.614   6.222   2.969 -1.9241  1.4546  0.1983
 3437TIP3   OH210274   6.653   3.974   5.304 -0.2969 -0.6289 -0.9493
 3437TIP3    H110275   6.689   3.898   5.259 -1.9531 -0.2294 -3.0846
 3437TIP3    H210276   6.572   3.943   5.344 -0.4052 -0.2592 -0.8749
 3438TIP3   OH210277   5.701   2.403   0.812  0.3984 -0.1002  0.3508
 3438TIP3    H110278   5.733   2.483   0.855 -1.3072  0.0775  1.3931
 3438TIP3    H210279   5.741   2.332   0.863  0.9442  0.0864  0.1918
 3439TIP3   OH210280   4.579   2.679   4.655 -0.3706  0.0766  0.2353
 3439TIP3    H110281   4.513   2.654   4.590  0.3364 -2.0922  0.2875
 3439TIP3    H210282   4.542   2.757   4.698 -2.4623 -0.5337 -0.3518
 3440TIP3   OH210283   6.505   0.048   2.208  0.3389 -0.3296 -0.3949
 3440TIP3    H110284   6.437   0.084   2.150  1.1276  0.4269 -0.8644
 3440TIP3    H210285   6.538   0.124   2.256  1.3422 -0.5833 -0.6811
 3441TIP3   OH210286   3.217   4.317   2.438 -0.9468  0.2084  0.3085
 3441TIP3    H110287   3.169   4.373   2.499 -0.4239 -1.1211  2.0280
 3441TIP3    H210288   3.309   4.333   2.459 -0.7805 -0.8431  0.4315
 3442TIP3   OH210289   4.807   3.166   0.400 -0.1928 -0.0640 -0.2410
 3442TIP3    H110290   4.806   3.261   0.388  0.6637  0.1176  0.9844
 3442TIP3    H210291   4.811   3.131   0.311 -0.9075  1.0240 -0.7268
 3443TIP3   OH210292   2.178   6.127   0.529  0.0552 -0.1188 -0.3416
 3443TIP3    H110293   2.175   6.045   0.578 -1.0788 -1.2046 -2.1320
 3443TIP3    H210294   2.182   6.100   0.437 -0.6768  1.8246 -0.9920
 3444TIP3   OH210295   6.944   5.163   0.110 -0.5534  0.1590 -0.1327
 3444TIP3    H110296   6.924   5.102   0.039  0.8348 -0.6642  0.1606
 3444TIP3    H210297   6.978   5.109   0.180  0.7448  1.2525  0.1233
 3445TIP3   OH210298   0.531   5.660   5.392 -0.2092 -0.8008  0.2941
 3445TIP3    H110299   0.510   5.628   5.304 -1.4150 -0.9638  0.6247
 3445TIP3    H210300   0.481   5.603   5.451 -1.1240  0.6438  0.9719
 3446TIP3   OH210301   2.436   2.512   2.606  0.3961  0.1343 -0.1394
 3446TIP3    H110302   2.374   2.577   2.573 -1.1370 -0.8044  0.7577
 3446TIP3    H210303   2.495   2.561   2.663 -0.9501  0.7334  0.8116
 3447TIP3   OH210304   0.504   2.539   5.306  0.1023 -0.5005 -0.4977
 3447TIP3    H110305   0.502   2.549   5.401 -0.6802 -0.1784 -0.5461
 3447TIP3    H210306   0.533   2.449   5.292 -1.4755 -1.1323  0.0802
 3448TIP3   OH210307   6.161   2.419   2.647 -0.1056  1.3431 -0.1852
 3448TIP3    H110308   6.237   2.418   2.705  0.7333 -2.1516 -1.1055
 3448TIP3    H210309   6.190   2.470   2.571 -0.1166  3.2689  1.0288
 3449TIP3   OH210310   0.142   1.441   5.311 -0.1038  0.0527  0.1513
 3449TIP3    H110311   0.176   1.381   5.378  0.1556  0.3227  0.2632
 3449TIP3    H210312   0.214   1.502   5.294 -0.4274  0.4540  0.1837
 3450TIP3   OH210313   4.599   2.127   2.867 -0.4357  0.2458  0.6179
 3450TIP3    H110314   4.612   2.040   2.828  0.3393  0.1288  1.0967
 3450TIP3    H210315   4.625   2.115   2.959 -1.8942  0.5894  1.1053
 3451TIP3   OH210316   0.307   4.100   0.429  0.5101 -0.0270 -0.0733
 3451TIP3    H110317   0.306   4.191   0.401  1.1553 -0.1518 -0.5066
 3451TIP3    H210318   0.360   4.099   0.508 -0.1310  0.0917  0.3668
 3452TIP3   OH210319   6.475   2.430   0.716  0.1734 -0.1814  0.5290
 3452TIP3    H110320   6.568   2.435   0.740  0.4677  0.0945 -0.5992
 3452TIP3    H210321   6.447   2.522   0.713  0.1388 -0.2127 -0.1391
 3453TIP3   OH210322   3.020   0.304   2.861 -0.2543 -0.3365 -0.0034
 3453TIP3    H110323   3.056   0.296   2.949  1.2738 -0.7770 -0.6333
 3453TIP3    H210324   3.016   0.398   2.845  4.5018 -0.1012 -1.3233
 3454TIP3   OH210325   3.762   2.372   2.316 -0.5878  0.0675  0.9687
 3454TIP3    H110326   3.849   2.333   2.311 -0.3687  0.4269  1.7011
 3454TIP3    H210327   3.705   2.312   2.269  0.2803  0.5247 -0.7508
 3455TIP3   OH210328   0.473   1.282   2.031 -0.0310 -0.3829 -0.4938
 3455TIP3    H110329   0.385   1.305   2.002 -0.0009  0.3332 -0.0405
 3455TIP3    H210330   0.477   1.312   2.122  0.6126 -0.5914 -0.4484
 3456TIP3   OH210331   2.770   5.610   1.156  0.3562 -0.0326 -0.5840
 3456TIP3    H110332   2.677   5.609   1.131 -0.3086 -0.2099  1.6772
 3456TIP3    H210333   2.799   5.699   1.136 -1.0926  0.9078  1.1520
 3457TIP3   OH210334   3.506   4.279   0.476  0.2617 -0.1855  0.2989
 3457TIP3    H110335   3.477   4.360   0.434  1.3188  0.0748  0.0295
 3457TIP3    H210336   3.446   4.212   0.444  0.2472  0.2460 -0.6158
 3458TIP3   OH210337   0.175   2.598   0.053 -0.5118  0.2849  0.5035
 3458TIP3    H110338   0.246   2.575  -0.008 -1.3373 -1.3060  0.0808
 3458TIP3    H210339   0.159   2.691   0.036  0.5855  0.3544 -0.3228
 3459TIP3   OH210340   0.169   2.957   3.577 -0.7727  0.4638  0.1611
 3459TIP3    H110341   0.250   3.002   3.553 -0.8918  1.3889  1.4288
 3459TIP3    H210342   0.189   2.912   3.659 -1.4560  0.4729  0.3409
 3460TIP3   OH210343   3.177   2.764   5.876 -0.1030 -0.1742 -1.0194
 3460TIP3    H110344   3.149   2.676   5.854  0.9661 -0.0570 -3.0205
 3460TIP3    H210345   3.260   2.752   5.922 -1.3729 -0.3081  1.3917
 3461TIP3   OH210346   6.024   4.569   4.500 -0.6250 -0.4363 -0.4571
 3461TIP3    H110347   6.094   4.614   4.453  0.0409  0.2395  1.1164
 3461TIP3    H210348   6.067   4.496   4.544 -1.1787 -0.8634 -0.6054
 3462TIP3   OH210349   0.366   3.894   4.457 -0.3914  0.0300  0.2063
 3462TIP3    H110350   0.424   3.934   4.522 -2.2279  0.0707  1.9095
 3462TIP3    H210351   0.415   3.900   4.375  1.1992  1.7787  1.1985
 3463TIP3   OH210352   2.801   0.577   3.087 -0.1228 -0.5280 -0.0897
 3463TIP3    H110353   2.765   0.655   3.128 -0.9562  0.3345 -2.2863
 3463TIP3    H210354   2.847   0.531   3.157  1.2049  2.3837  1.0653
 3464TIP3   OH210355   0.961   3.459   1.820  0.2966 -0.3729 -0.1275
 3464TIP3    H110356   0.933   3.451   1.729 -0.4499  0.9562 -0.0346
 3464TIP3    H210357   1.036   3.399   1.827 -1.0534 -2.2519 -0.9786
 3465TIP3   OH210358   4.115   6.396   2.456  0.3615 -0.1329  0.5390
 3465TIP3    H110359   4.200   6.437   2.471  1.6350 -1.2685 -2.6152
 3465TIP3    H210360   4.065   6.460   2.405  1.1467 -1.1077 -1.5848
 3466TIP3   OH210361   3.376   4.105   3.178  0.1458  0.6304  0.1669
 3466TIP3    H110362   3.291   4.138   3.149 -0.5654  0.0906  1.5537
 3466TIP3    H210363   3.389   4.144   3.264  0.8394 -0.0886  0.4052
 3467TIP3   OH210364   2.491   3.315   5.821  0.0395 -0.3024  0.5176
 3467TIP3    H110365   2.575   3.315   5.775  0.5429 -1.9619  1.3754
 3467TIP3    H210366   2.481   3.406   5.852  0.8769  0.2271 -0.6929
 3468TIP3   OH210367   6.297   1.820   0.026  0.1040  0.3702 -0.9305
 3468TIP3    H110368   6.274   1.844  -0.063  1.8256  0.8605 -1.2740
 3468TIP3    H210369   6.303   1.903   0.073 -0.4945  0.1334 -0.4046
 3469TIP3   OH210370   4.532   5.024   5.703  0.0068  0.3407  0.5016
 3469TIP3    H110371   4.510   5.094   5.641 -1.3697  1.3190  2.0272
 3469TIP3    H210372   4.573   5.069   5.776  0.2712 -0.6145  0.9546
 3470TIP3   OH210373   1.375   1.359   4.439 -0.0882  0.7199 -0.1017
 3470TIP3    H110374   1.433   1.420   4.486  0.1284  0.6852 -0.3186
 3470TIP3    H210375   1.371   1.282   4.495 -0.1775  0.8458  0.0653
 3471TIP3   OH210376   5.938   1.831   5.544  0.6376 -0.0330  0.0038
 3471TIP3    H110377   5.999   1.811   5.616  0.5490  2.0078  0.7127
 3471TIP3    H210378   5.860   1.780   5.565  0.8169  0.0917  1.0695
 3472TIP3   OH210379   2.013   3.387   2.907  0.5723  0.4521 -0.0252
 3472TIP3    H110380   2.092   3.335   2.890  0.7824  1.3192 -2.0725
 3472TIP3    H210381   2.046   3.472   2.934  0.2309 -0.2680  2.9617
 3473TIP3   OH210382   2.729   1.278   2.126  0.5581 -0.1867  0.3654
 3473TIP3    H110383   2.673   1.231   2.064 -0.0690  1.1502 -0.1391
 3473TIP3    H210384   2.729   1.224   2.204 -0.5161 -0.7886 -0.0245
 3474TIP3   OH210385   4.002   5.131   0.882 -0.0643 -0.1526 -0.2899
 3474TIP3    H110386   3.917   5.167   0.908  1.0354  0.9102  2.1425
 3474TIP3    H210387   4.000   5.040   0.912 -0.7968 -0.5204 -1.4150
 3475TIP3   OH210388   3.892   4.034   1.336 -0.0168 -0.2715  0.7841
 3475TIP3    H110389   3.935   4.109   1.295  1.5127 -0.8795  1.1822
 3475TIP3    H210390   3.799   4.052   1.328  0.2942  2.1302  1.6793
 3476TIP3   OH210391   5.245   4.266   4.113  0.4341  0.3464  0.1607
 3476TIP3    H110392   5.282   4.354   4.108 -0.6577  0.8993  1.2701
 3476TIP3    H210393   5.158   4.279   4.150  0.9698 -1.3787  2.1923
 3477TIP3   OH210394   4.024   4.942   4.697  0.0945 -0.1312 -0.0669
 3477TIP3    H110395   4.085   4.961   4.768  1.7321 -1.9945 -0.8632
 3477TIP3    H210396   4.037   4.849   4.678 -1.3173 -0.0329 -1.8656
 3478TIP3   OH210397   7.154   0.385   1.305  0.2253 -0.3911  0.0913
 3478TIP3    H110398   7.103   0.448   1.255  0.5460 -0.8166 -0.8079
 3478TIP3    H210399   7.169   0.426   1.390 -1.0028  0.0280  0.1183
 3479TIP3   OH210400   3.220   3.857   2.030  0.0545 -0.1253  0.2508
 3479TIP3    H110401   3.152   3.922   2.016  0.1741  0.0655  0.5561
 3479TIP3    H210402   3.290   3.904   2.075 -0.4642 -0.7960  1.7998
 3480TIP3   OH210403   2.780   0.596   0.641  0.0747  0.1794  0.5451
 3480TIP3    H110404   2.774   0.532   0.713  3.3638  0.2608  1.0566
 3480TIP3    H210405   2.777   0.681   0.684  1.4163  0.2380  0.5582
 3481TIP3   OH210406   2.330   0.885   0.188  0.0187 -0.3624 -0.3797
 3481TIP3    H110407   2.322   0.975   0.155  0.3156  0.2389  1.0740
 3481TIP3    H210408   2.325   0.895   0.284 -0.2827 -1.9377 -0.2062
 3482TIP3   OH210409   1.955   0.197   0.635  0.1859  0.2181  0.6199
 3482TIP3    H110410   1.873   0.238   0.662  1.1768  1.8940  1.2749
 3482TIP3    H210411   1.928   0.124   0.579 -1.7229  1.4489 -0.1934
 3483TIP3   OH210412   4.398   4.930   2.354  0.5141 -0.4310 -0.2798
 3483TIP3    H110413   4.398   4.933   2.449  0.4190  0.4175 -0.3011
 3483TIP3    H210414   4.347   5.006   2.327 -0.2973 -1.2144 -1.0022
 3484TIP3   OH210415   3.106   0.568   0.647 -0.1345 -0.3307  0.3752
 3484TIP3    H110416   3.167   0.523   0.589  0.8875  1.0642  0.3095
 3484TIP3    H210417   3.076   0.644   0.597  0.0384  0.3845  1.3145
 3485TIP3   OH210418   2.919   3.354   4.928 -0.2320  0.1889 -0.1466
 3485TIP3    H110419   2.985   3.293   4.896  0.2058  0.6807 -0.1836
 3485TIP3    H210420   2.958   3.440   4.917 -1.2238  0.5541 -1.0321
 3486TIP3   OH210421   2.056   5.329   2.026  0.0687 -0.1730  0.6768
 3486TIP3    H110422   1.988   5.397   2.026  0.4502  0.2189  0.1574
 3486TIP3    H210423   2.124   5.365   2.083  1.6743  1.3626 -1.9778
 3487TIP3   OH210424   7.161   3.754   3.952 -0.8872 -0.0417  0.1596
 3487TIP3    H110425   7.104   3.709   3.890 -0.8479  0.6450 -0.3807
 3487TIP3    H210426   7.114   3.833   3.976 -0.2988  0.3974 -0.0859
 3488TIP3   OH210427   4.175   1.241   1.102 -0.3705 -0.1367  0.1001
 3488TIP3    H110428   4.166   1.208   1.192  0.9319 -0.0484  0.2790
 3488TIP3    H210429   4.151   1.333   1.108  1.2835  0.2845  0.7105
 3489TIP3   OH210430   0.701   1.418   1.471  0.0711  0.7327 -0.1808
 3489TIP3    H110431   0.739   1.448   1.388  1.1612 -2.5943 -1.0239
 3489TIP3    H210432   0.775   1.413   1.531 -0.2581  0.7322  0.2289
 3490TIP3   OH210433   1.482   5.745   4.107 -0.0518  0.1383 -0.0406
 3490TIP3    H110434   1.499   5.802   4.032  1.2849  0.5516  0.5479
 3490TIP3    H210435   1.403   5.782   4.147 -0.1107  0.6112 -0.5715
 3491TIP3   OH210436   1.695   1.104   0.342 -0.2605 -0.8862 -0.3387
 3491TIP3    H110437   1.772   1.127   0.394  0.2396  0.1834 -1.4935
 3491TIP3    H210438   1.677   1.013   0.365  1.0504 -1.0076  0.3153
 3492TIP3   OH210439   6.653   5.521   0.704  0.5213  0.2218  0.1625
 3492TIP3    H110440   6.594   5.471   0.648 -0.4520  1.2344  0.2490
 3492TIP3    H210441   6.740   5.506   0.667  0.1022 -0.5746 -0.5193
 3493TIP3   OH210442   5.126   2.762   4.645 -0.0247 -0.4499  0.0613
 3493TIP3    H110443   5.056   2.712   4.687 -1.3363  1.8990  0.9195
 3493TIP3    H210444   5.183   2.697   4.606 -2.8379 -2.5277 -0.9224
 3494TIP3   OH210445   7.150   3.205   4.695  0.4772 -0.0648 -0.2267
 3494TIP3    H110446   7.127   3.236   4.607  0.7239  0.3088 -0.1637
 3494TIP3    H210447   7.132   3.111   4.693 -2.6760  0.4027  0.3475
 3495TIP3   OH210448   5.855   4.905   1.275  0.0193  0.3942 -0.4364
 3495TIP3    H110449   5.849   4.919   1.369 -2.0848  0.6204 -0.5424
 3495TIP3    H210450   5.886   4.989   1.241 -0.6255  0.7981 -0.0503
 3496TIP3   OH210451   0.846   3.629   0.144 -0.0101 -0.1521 -0.4715
 3496TIP3    H110452   0.849   3.561   0.076 -0.1358 -0.0010 -0.6294
 3496TIP3    H210453   0.800   3.587   0.217 -4.3571  1.0806 -2.1370
 3497TIP3   OH210454   6.494   4.060   0.107 -0.4187  0.0827  0.0037
 3497TIP3    H110455   6.485   4.103   0.022  1.3803  1.2436  0.3363
 3497TIP3    H210456   6.536   4.125   0.163 -0.4696 -1.0620  1.4407
 3498TIP3   OH210457   6.094   3.086   1.212 -0.1877 -0.1430 -0.6014
 3498TIP3    H110458   6.152   3.014   1.238  0.9416  0.2820 -1.8014
 3498TIP3    H210459   6.130   3.162   1.257 -0.0281  0.0535 -1.0543
 3499TIP3   OH210460   0.106   4.357   1.819 -0.2317 -0.4374  0.5135
 3499TIP3    H110461   0.107   4.442   1.774  2.8785 -0.5914  0.0601
 3499TIP3    H210462   0.047   4.370   1.894 -0.2920  1.9467  0.1273
 3500TIP3   OH210463   1.673   3.647   5.468 -0.2162  0.4895 -0.0680
 3500TIP3    H110464   1.687   3.712   5.537 -0.0538  1.0247 -0.5945
 3500TIP3    H210465   1.750   3.589   5.474  0.0741  0.8602 -0.1483
 3501TIP3   OH210466   0.625   5.306   1.239  0.8201  0.5934 -0.0467
 3501TIP3    H110467   0.584   5.332   1.322 -0.6871 -1.7003  0.0356
 3501TIP3    H210468   0.713   5.342   1.243  0.4950  1.3051  2.1713
 3502TIP3   OH210469   4.289   1.930   1.056  0.1629 -0.5604  0.5292
 3502TIP3    H110470   4.262   1.971   1.139 -2.9054 -1.1390 -0.0453
 3502TIP3    H210471   4.216   1.947   0.997  2.2979 -0.0677 -2.1597
 3503TIP3   OH210472   6.033   6.756   0.488 -0.7021  0.3144  0.0830
 3503TIP3    H110473   5.970   6.825   0.469  0.1256  1.0553 -0.0022
 3503TIP3    H210474   5.998   6.679   0.444 -0.9244  1.0078 -0.9828
 3504TIP3   OH210475   1.121   4.416   4.271 -0.0587 -0.1215 -0.4056
 3504TIP3    H110476   1.211   4.400   4.298 -0.5316 -0.3289  1.1648
 3504TIP3    H210477   1.115   4.511   4.260  0.5303 -0.1733 -1.2972
 3505TIP3   OH210478   3.141   1.301   4.690 -0.3388  0.1904  0.5489
 3505TIP3    H110479   3.088   1.350   4.627  0.1808  0.3863  0.2579
 3505TIP3    H210480   3.082   1.233   4.723 -0.7549  0.3695  0.1903
 3506TIP3   OH210481   2.202   3.743   4.230  0.1687 -0.1262 -0.2354
 3506TIP3    H110482   2.130   3.719   4.171 -1.6471  2.7609  0.6250
 3506TIP3    H210483   2.178   3.704   4.314  1.0834 -1.4680 -0.5635
 3507TIP3   OH210484   2.025   2.635   1.852 -0.2509 -0.7076 -0.1490
 3507TIP3    H110485   2.019   2.676   1.938 -0.5753 -1.3170  0.1192
 3507TIP3    H210486   2.016   2.542   1.868 -0.8476 -0.7904 -0.8899
 3508TIP3   OH210487   0.693   1.094   4.580  0.4558 -0.0769 -0.4490
 3508TIP3    H110488   0.712   1.004   4.554 -0.1906  0.2515 -2.1240
 3508TIP3    H210489   0.777   1.127   4.613  1.5197 -0.3599 -2.6748
 3509TIP3   OH210490   7.066   3.197   2.461  0.2800 -0.3852 -0.0488
 3509TIP3    H110491   7.054   3.260   2.390 -1.3194 -1.3741 -0.7046
 3509TIP3    H210492   7.026   3.116   2.429 -0.6687 -0.8189  2.0284
 3510TIP3   OH210493   0.222   1.121   2.441  0.5051  0.2014 -0.0073
 3510TIP3    H110494   0.180   1.146   2.359 -0.7414  0.8537  0.7856
 3510TIP3    H210495   0.206   1.027   2.449 -2.5490  0.6713  1.1090
 3511TIP3   OH210496   5.012   2.094   4.315 -0.3083 -0.1155 -0.1178
 3511TIP3    H110497   5.073   2.065   4.383 -2.1980 -2.0846  0.8760
 3511TIP3    H210498   4.979   2.178   4.347  1.3991  0.7225 -0.4197
 3512TIP3   OH210499   4.392   3.907   5.387  0.2950  0.7248  0.0692
 3512TIP3    H110500   4.411   3.918   5.294 -3.2751  0.9970 -0.7848
 3512TIP3    H210501   4.322   3.841   5.389  0.7352  0.2415  2.6472
 3513TIP3   OH210502   2.867   1.797   1.526  0.2628  0.5703 -0.3710
 3513TIP3    H110503   2.921   1.873   1.505 -2.7256  3.0752  0.3279
 3513TIP3    H210504   2.844   1.760   1.440  0.5467  1.3396 -0.7878
 3514TIP3   OH210505   5.553   5.444   1.178 -0.5508 -0.5778  0.6001
 3514TIP3    H110506   5.641   5.477   1.159 -0.3126 -1.3963  0.2573
 3514TIP3    H210507   5.498   5.482   1.109 -0.2321 -1.0893  0.0573
 3515TIP3   OH210508   5.456   5.121   0.190  0.2072  0.3922  0.1328
 3515TIP3    H110509   5.510   5.135   0.267  1.4014  0.6320 -0.7221
 3515TIP3    H210510   5.375   5.168   0.209  1.3842  2.5020  0.2835
 3516TIP3   OH210511   5.988   5.853   3.680  0.4430 -0.1567  0.3747
 3516TIP3    H110512   5.996   5.790   3.608 -1.8285  0.1366 -0.2125
 3516TIP3    H210513   5.944   5.803   3.750  2.5204 -0.4065  1.5697
 3517TIP3   OH210514   4.748   4.457   2.888  0.2948  0.5110 -0.1345
 3517TIP3    H110515   4.812   4.415   2.831 -0.3192 -0.5017 -0.1095
 3517TIP3    H210516   4.800   4.489   2.962  1.0470  1.5499 -1.0853
 3518TIP3   OH210517   7.176   3.110   4.946  0.2117  0.6194 -0.6924
 3518TIP3    H110518   7.092   3.148   4.972  1.1396  1.3652  1.4257
 3518TIP3    H210519   7.189   3.139   4.855 -0.7440  2.4581 -0.2912
 3519TIP3   OH210520   4.367   5.430   2.795  0.0780 -0.7212  0.3513
 3519TIP3    H110521   4.428   5.393   2.859 -0.3343 -1.2202  0.4611
 3519TIP3    H210522   4.402   5.404   2.710 -0.7637 -2.2992  0.4441
 3520TIP3   OH210523   3.622   6.208   0.091 -0.2608  0.3111  0.6655
 3520TIP3    H110524   3.557   6.274   0.067  0.2374  0.4736 -0.3017
 3520TIP3    H210525   3.584   6.126   0.061  0.0824  0.4383 -0.1510
 3521TIP3   OH210526   0.374   3.885   5.064  0.0247  0.6247 -0.4007
 3521TIP3    H110527   0.296   3.861   5.113 -0.0103 -0.1206 -0.8069
 3521TIP3    H210528   0.341   3.912   4.978  0.2255  0.0659 -0.6581
 3522TIP3   OH210529   1.786   0.657  -0.029 -0.5118  0.2981 -0.1335
 3522TIP3    H110530   1.763   0.582   0.026 -0.1319  0.1772 -0.1399
 3522TIP3    H210531   1.785   0.732   0.031  0.8114  0.0329  0.2430
 3523TIP3   OH210532   5.471   4.748   3.788  0.2571  0.0768  0.0153
 3523TIP3    H110533   5.530   4.707   3.852 -0.1620 -0.2666  0.1859
 3523TIP3    H210534   5.385   4.709   3.806  0.2408 -0.4694 -1.1383
 3524TIP3   OH210535   5.238   0.482   0.211  0.1929  0.2654  0.5459
 3524TIP3    H110536   5.329   0.489   0.184 -0.1569 -1.5663 -1.4744
 3524TIP3    H210537   5.193   0.552   0.163  0.0530 -1.0894 -1.4381
 3525TIP3   OH210538   2.522   5.567   5.766  0.3382  0.6637 -0.2830
 3525TIP3    H110539   2.449   5.505   5.771  0.2461  0.6654 -1.3908
 3525TIP3    H210540   2.491   5.645   5.813  1.5097 -1.0255  3.8002
 3526TIP3   OH210541   1.004   1.236   1.954 -0.2649 -0.4651 -0.1502
 3526TIP3    H110542   0.980   1.174   1.885  0.4302  0.8216 -1.6063
 3526TIP3    H210543   0.967   1.320   1.926  0.4712  0.1977  0.7663
 3527TIP3   OH210544   3.076   2.518   2.401 -0.5362 -0.4651 -0.2948
 3527TIP3    H110545   2.981   2.510   2.416 -0.4131 -1.4116  0.0270
 3527TIP3    H210546   3.098   2.604   2.437 -1.2816 -0.2092 -0.4281
 3528TIP3   OH210547   6.931   4.933   0.755  0.1312 -0.4787 -0.3355
 3528TIP3    H110548   6.882   5.014   0.739 -0.8005 -1.0301 -0.3412
 3528TIP3    H210549   7.021   4.962   0.767 -0.2830  0.6226  0.2489
 3529TIP3   OH210550   5.912   1.247   1.541 -0.4061 -0.0445  0.0664
 3529TIP3    H110551   5.924   1.186   1.468  1.2399 -1.1485  1.1974
 3529TIP3    H210552   5.888   1.330   1.499  1.8773 -0.2523 -1.9013
 3530TIP3   OH210553   5.147   0.758   1.483 -0.0145  0.3074 -0.4066
 3530TIP3    H110554   5.192   0.787   1.404 -0.6491  0.2277 -0.7998
 3530TIP3    H210555   5.213   0.706   1.530  0.1860 -0.1387 -1.1586
 3531TIP3   OH210556   3.661   4.945   2.517  0.1656  0.5022 -0.1174
 3531TIP3    H110557   3.593   4.998   2.475  0.8182  0.4399 -1.2994
 3531TIP3    H210558   3.632   4.855   2.504  0.4528  0.4773 -0.5830
 3532TIP3   OH210559   5.261   5.450   5.232  0.1439  0.2557 -0.2234
 3532TIP3    H110560   5.207   5.488   5.163  0.2450 -0.2830 -0.6016
 3532TIP3    H210561   5.337   5.509   5.238 -0.8207  1.4435  0.8313
 3533TIP3   OH210562   6.729   4.727   0.791 -0.2579 -0.5745  0.2585
 3533TIP3    H110563   6.787   4.795   0.826 -2.0293  0.3296  1.5758
 3533TIP3    H210564   6.770   4.645   0.816  0.6277  0.0371  0.8600
 3534TIP3   OH210565   7.114   1.525   4.786  0.7521 -0.1255  0.0439
 3534TIP3    H110566   7.165   1.603   4.764  2.9293 -1.1293  1.2064
 3534TIP3    H210567   7.033   1.559   4.822  1.3184  1.5915 -0.1757
 3535TIP3   OH210568   6.308   3.481   2.548 -1.0165  0.3645 -0.2311
 3535TIP3    H110569   6.247   3.506   2.479 -0.6497  1.1104 -0.2962
 3535TIP3    H210570   6.344   3.564   2.580 -0.2687 -0.0423  0.0177
 3536TIP3   OH210571   4.139   2.978   3.453  0.5343 -0.5343  0.8912
 3536TIP3    H110572   4.057   2.930   3.462  0.7668 -0.7842  1.7209
 3536TIP3    H210573   4.167   2.996   3.542  0.1351  1.7184  0.6168
 3537TIP3   OH210574   2.709   6.541   0.581  0.3558  0.3238  0.0560
 3537TIP3    H110575   2.617   6.545   0.609  0.8678  1.8015  1.7780
 3537TIP3    H210576   2.758   6.530   0.663  1.7196 -0.4423 -0.8321
 3538TIP3   OH210577   5.291   4.922   3.641 -1.1289 -0.1322  0.2469
 3538TIP3    H110578   5.367   4.903   3.696 -2.0726  0.7041  1.9328
 3538TIP3    H210579   5.314   4.886   3.555  1.2418  0.2866  0.6312
 3539TIP3   OH210580   0.654   5.539   0.510  0.1337  0.8186  0.0827
 3539TIP3    H110581   0.689   5.454   0.483 -0.0582  0.8127 -0.1481
 3539TIP3    H210582   0.705   5.561   0.589  0.4266  0.6579 -0.0584
 3540TIP3   OH210583   0.264   1.586   0.729 -0.1808 -0.2055  0.0185
 3540TIP3    H110584   0.321   1.633   0.668  0.7762  2.3173  2.6649
 3540TIP3    H210585   0.319   1.516   0.764  0.6296  0.8506  0.9189
 3541TIP3   OH210586   3.327   2.769   3.482  0.0177 -0.3271 -0.2024
 3541TIP3    H110587   3.301   2.677   3.490  0.2047 -0.3218  0.4696
 3541TIP3    H210588   3.295   2.810   3.562 -2.0888  0.6998 -1.4623
 3542TIP3   OH210589   0.533   6.462   0.552  0.1590 -0.6608  0.3429
 3542TIP3    H110590   0.439   6.447   0.561  0.4606 -2.0232  1.8374
 3542TIP3    H210591   0.570   6.374   0.542  1.3193 -0.2096  0.5073
 3543TIP3   OH210592   5.371   3.946   1.546 -0.2455  0.1076 -0.7712
 3543TIP3    H110593   5.462   3.973   1.551 -0.6333  1.1865  1.5087
 3543TIP3    H210594   5.367   3.864   1.595 -0.4022 -0.3297 -1.4902
 3544TIP3   OH210595   6.092   3.802   2.081 -0.1194 -0.2342 -0.4218
 3544TIP3    H110596   6.169   3.778   2.132 -0.9903 -2.5026 -0.0501
 3544TIP3    H210597   6.024   3.821   2.145 -0.5002 -0.5409 -0.7237
 3545TIP3   OH210598   6.132   1.496   0.312 -0.1579  0.2964  0.1514
 3545TIP3    H110599   6.078   1.573   0.327 -0.3887  0.6501 -2.1479
 3545TIP3    H210600   6.110   1.468   0.223  1.9304 -0.7822 -0.0875
 3546TIP3   OH210601   1.440   5.123   3.964  0.3159  0.4156  0.1344
 3546TIP3    H110602   1.519   5.169   3.991  0.7109  0.0364 -0.3621
 3546TIP3    H210603   1.431   5.141   3.871 -1.5915  2.5264  0.6538
 3547TIP3   OH210604   3.882   3.787   2.506 -0.3826 -0.3667 -0.2507
 3547TIP3    H110605   3.961   3.812   2.458  0.9330 -0.5071  1.7438
 3547TIP3    H210606   3.871   3.694   2.487  0.8103 -0.7070  0.5705
 3548TIP3   OH210607   6.106   2.314   4.944  0.2655 -0.1592 -0.0308
 3548TIP3    H110608   6.047   2.368   4.891 -0.9319 -0.6198  0.7925
 3548TIP3    H210609   6.144   2.252   4.882 -0.7962 -0.4170 -0.4493
 3549TIP3   OH210610   6.753   2.658   0.917  0.3493 -0.1381  0.0057
 3549TIP3    H110611   6.830   2.642   0.972  1.5681  0.9159 -1.3147
 3549TIP3    H210612   6.689   2.592   0.945  1.6812 -0.9774  1.2126
 3550TIP3   OH210613   1.729   0.942   4.735  0.1753 -0.2700 -0.0635
 3550TIP3    H110614   1.656   0.882   4.723 -0.5595  0.7756 -1.0792
 3550TIP3    H210615   1.764   0.921   4.821 -2.2689  0.1653  1.1297
 3551TIP3   OH210616   5.053   4.185   5.296 -0.4514 -0.1206 -0.2129
 3551TIP3    H110617   4.989   4.234   5.348 -0.7466 -0.2586 -0.4423
 3551TIP3    H210618   5.000   4.135   5.234 -0.1313 -0.4279 -0.2416
 3552TIP3   OH210619   5.066   1.467   0.603 -0.2581 -0.0353  0.4257
 3552TIP3    H110620   5.017   1.548   0.598 -0.2378  0.0995  1.9538
 3552TIP3    H210621   5.113   1.472   0.687  1.6295 -0.5704 -0.5321
 3553TIP3   OH210622   0.980  -0.023   2.654  0.2919 -0.0117  0.5043
 3553TIP3    H110623   0.964   0.063   2.614 -0.9316 -0.4975 -0.1046
 3553TIP3    H210624   1.075  -0.026   2.666  0.2535  1.9815  1.8463
 3554TIP3   OH210625   1.347   4.047   4.041 -0.0142  0.3907 -0.1929
 3554TIP3    H110626   1.351   3.987   4.116 -1.7604  1.2836  0.6689
 3554TIP3    H210627   1.330   4.133   4.080 -0.7669  0.9030 -1.6057
 3555TIP3   OH210628   6.077   2.038   2.708 -0.0112 -0.3596  0.2826
 3555TIP3    H110629   6.122   1.953   2.707 -0.7487 -0.7716  1.0300
 3555TIP3    H210630   5.991   2.019   2.745 -0.5021  0.5681 -0.3641
 3556TIP3   OH210631   4.348   5.737   4.605  0.1164 -0.3153  0.0633
 3556TIP3    H110632   4.425   5.688   4.579 -0.5799 -0.1904 -2.5318
 3556TIP3    H210633   4.275   5.677   4.588 -0.4549 -0.0629  1.4879
 3557TIP3   OH210634   0.460   0.562   0.982  0.1008 -0.4695  0.0942
 3557TIP3    H110635   0.522   0.566   0.909  0.9441  1.9934  0.8413
 3557TIP3    H210636   0.390   0.622   0.957 -0.6002 -1.1122  0.4769
 3558TIP3   OH210637   1.002   6.671   1.517  0.0582  0.1627 -0.1610
 3558TIP3    H110638   0.944   6.746   1.504 -0.9718 -0.1601  2.1037
 3558TIP3    H210639   0.944   6.595   1.522  0.7500 -0.3289  0.8991
 3559TIP3   OH210640   5.485   4.826   1.873 -0.0036  0.5273 -0.2963
 3559TIP3    H110641   5.526   4.815   1.959  0.0082 -2.8826 -0.5853
 3559TIP3    H210642   5.415   4.761   1.872 -1.2669  1.8175 -2.2133
 3560TIP3   OH210643   1.645   1.979   0.947  0.3163 -0.1415 -0.2310
 3560TIP3    H110644   1.655   1.908   1.010  1.5379  0.0019 -0.2430
 3560TIP3    H210645   1.614   2.053   0.998 -1.0778 -0.6802 -0.2349
 3561TIP3   OH210646   2.750   4.802   1.402 -0.0235  0.3630 -0.1986
 3561TIP3    H110647   2.656   4.788   1.414 -0.2512  1.3333 -0.7270
 3561TIP3    H210648   2.767   4.887   1.441  0.9130 -0.3995  1.1080
 3562TIP3   OH210649   1.713   3.435   4.544 -0.0563  0.2622 -0.0643
 3562TIP3    H110650   1.755   3.376   4.607  0.3527 -0.4238 -0.9704
 3562TIP3    H210651   1.763   3.516   4.550  2.2393 -0.9017 -1.9752
 3563TIP3   OH210652   3.580   2.411   0.006 -0.1955  0.1052  0.1040
 3563TIP3    H110653   3.658   2.357  -0.010 -0.2462 -0.3632  1.3525
 3563TIP3    H210654   3.613   2.501   0.010  0.1601 -0.0117 -0.1367
 3564TIP3   OH210655   5.625   4.431   3.589 -0.8364  0.2915  0.6662
 3564TIP3    H110656   5.551   4.376   3.616 -2.4570  1.6880 -0.6693
 3564TIP3    H210657   5.619   4.433   3.494  0.6070  0.9102  0.5681
 3565TIP3   OH210658   6.162   2.412   1.464 -0.3872 -0.7725 -0.1728
 3565TIP3    H110659   6.179   2.480   1.399 -0.6220  0.7341  1.2801
 3565TIP3    H210660   6.241   2.358   1.463 -0.1696 -0.4628 -1.3225
 3566TIP3   OH210661   2.124   2.355   1.856  0.4821 -0.0193 -0.6782
 3566TIP3    H110662   2.166   2.284   1.904 -0.7066 -0.0994  0.2693
 3566TIP3    H210663   2.084   2.313   1.780 -0.6640 -0.4736  0.1541
 3567TIP3   OH210664   1.319   1.373   3.450 -0.2098 -0.4052  0.1860
 3567TIP3    H110665   1.380   1.398   3.381 -2.0870  0.3024 -1.3029
 3567TIP3    H210666   1.361   1.403   3.531  1.2059  0.4464 -0.8203
 3568TIP3   OH210667   0.606   0.821   1.086  0.0712  0.3005 -0.3610
 3568TIP3    H110668   0.665   0.757   1.045  0.1789  1.7684 -2.6764
 3568TIP3    H210669   0.528   0.820   1.030 -0.1175  1.8252 -0.1539
 3569TIP3   OH210670   4.860   4.883   0.777 -0.1890  0.0519  0.0687
 3569TIP3    H110671   4.858   4.788   0.788 -0.2882 -0.1119 -1.2885
 3569TIP3    H210672   4.943   4.910   0.817 -0.2125 -0.5838  0.5639
 3570TIP3   OH210673   5.111   1.400   2.544 -0.9785 -0.4496 -0.0136
 3570TIP3    H110674   5.202   1.415   2.569 -1.1679 -1.4290  1.3837
 3570TIP3    H210675   5.061   1.465   2.594 -1.0740 -0.0221 -0.6507
 3571TIP3   OH210676   6.952   0.515   0.491  0.2076 -0.1463  0.0104
 3571TIP3    H110677   7.018   0.492   0.426  0.7529  1.6664 -0.1283
 3571TIP3    H210678   6.913   0.596   0.459 -0.7676 -0.1647  1.0559
 3572TIP3   OH210679   0.579   3.019   0.575  0.2161 -0.5257  0.3897
 3572TIP3    H110680   0.542   2.936   0.603  0.4226 -1.2487 -1.3283
 3572TIP3    H210681   0.670   2.998   0.552  0.2625  0.1616 -0.0796
 3573TIP3   OH210682   5.139   2.630   2.506 -0.5606 -0.6238 -0.4971
 3573TIP3    H110683   5.169   2.708   2.459  0.8111 -1.2424 -0.6716
 3573TIP3    H210684   5.044   2.628   2.490 -0.6634  1.0782 -0.3742
 3574TIP3   OH210685   6.942   0.703   1.490  0.8447 -0.1199 -0.5295
 3574TIP3    H110686   6.971   0.613   1.473  1.6213  0.0131  0.0513
 3574TIP3    H210687   7.006   0.738   1.552 -1.3243 -0.2687  1.9464
 3575TIP3   OH210688   3.043   3.179   3.733  0.2717 -0.2340 -0.0083
 3575TIP3    H110689   2.971   3.124   3.702  0.3868  0.1303 -0.9494
 3575TIP3    H210690   3.039   3.172   3.829  0.8324 -2.5860 -0.0977
 3576TIP3   OH210691   4.147   1.147   1.367 -0.0807  0.2559  0.0294
 3576TIP3    H110692   4.229   1.098   1.370 -0.7370 -0.8887 -0.1755
 3576TIP3    H210693   4.118   1.151   1.458 -1.2827 -1.9765 -0.1964
 3577TIP3   OH210694   6.407   4.859   4.277 -0.0527  0.0511 -0.1014
 3577TIP3    H110695   6.459   4.931   4.241  3.0114 -0.7545  2.2878
 3577TIP3    H210696   6.436   4.782   4.228 -1.9248  0.0595 -1.3345
 3578TIP3   OH210697   1.415   5.980   2.925 -0.0129  0.3557  0.5666
 3578TIP3    H110698   1.373   5.894   2.936  0.3508  0.3553  2.1196
 3578TIP3    H210699   1.344   6.043   2.935 -0.1692  0.2647  0.0617
 3579TIP3   OH210700   3.018   4.636   4.209 -0.2786 -0.0805 -0.2184
 3579TIP3    H110701   3.052   4.691   4.140  1.4585 -0.2627  0.4437
 3579TIP3    H210702   3.000   4.552   4.167 -1.4344  0.4810 -0.8932
 3580TIP3   OH210703   4.726   3.868   2.367  0.2616 -0.4591 -0.3176
 3580TIP3    H110704   4.809   3.827   2.390 -0.0661 -1.4308 -0.8273
 3580TIP3    H210705   4.742   3.962   2.379  1.0225 -0.7222  0.8637
 3581TIP3   OH210706   5.801   1.883   1.516 -0.2670 -0.4377  0.7356
 3581TIP3    H110707   5.757   1.823   1.457 -1.1716 -0.2806  1.2357
 3581TIP3    H210708   5.880   1.909   1.469 -0.2094 -1.4659  0.2232
 3582TIP3   OH210709   4.910   1.834   1.784  0.3395  0.7721 -0.1765
 3582TIP3    H110710   4.826   1.806   1.748 -0.0985 -1.9137  2.4749
 3582TIP3    H210711   4.973   1.818   1.713 -0.9451 -0.3971 -1.1120
 3583TIP3   OH210712   1.498   6.712   0.122  0.3021 -0.0962 -0.8377
 3583TIP3    H110713   1.593   6.698   0.123  0.2822 -0.5375  1.5339
 3583TIP3    H210714   1.461   6.624   0.127 -0.2520  0.0623 -1.9449
 3584TIP3   OH210715   5.842   3.790   5.249 -0.5167 -0.1296  0.0959
 3584TIP3    H110716   5.779   3.758   5.314  1.1130  0.1369  1.8998
 3584TIP3    H210717   5.911   3.724   5.249 -0.2635  0.1171 -1.0547
 3585TIP3   OH210718   1.063   6.524   4.127 -0.5574 -0.2747  0.1291
 3585TIP3    H110719   1.095   6.457   4.187  0.0056  0.4476  0.6496
 3585TIP3    H210720   1.110   6.604   4.151 -0.2723  0.0243 -1.3057
 3586TIP3   OH210721   6.297   2.122   4.525  0.2998  0.1136  0.0280
 3586TIP3    H110722   6.258   2.148   4.441 -0.2102  0.1525  0.2753
 3586TIP3    H210723   6.348   2.199   4.551  0.0586  0.2891 -0.0062
 3587TIP3   OH210724   6.397   1.188   4.384  0.3678  0.3399  0.7303
 3587TIP3    H110725   6.437   1.268   4.418 -0.4640  0.9835  0.2141
 3587TIP3    H210726   6.308   1.188   4.419  0.9030 -1.3111  2.2378
 3588TIP3   OH210727   3.927   1.194   4.393 -0.0325 -0.6491  0.1178
 3588TIP3    H110728   3.917   1.146   4.311  1.1021  0.9089 -0.9887
 3588TIP3    H210729   4.012   1.165   4.428  0.6406  0.4671 -0.5375
 3589TIP3   OH210730   4.373   3.453   3.482 -0.1957  0.0769  0.4829
 3589TIP3    H110731   4.340   3.412   3.402  0.0434 -0.3062  0.5812
 3589TIP3    H210732   4.467   3.460   3.468 -0.0947 -0.3793  0.9055
 3590TIP3   OH210733   0.619   3.904   4.611  0.3605  0.3303 -0.2920
 3590TIP3    H110734   0.676   3.953   4.552 -0.9805 -0.5326 -2.4417
 3590TIP3    H210735   0.673   3.887   4.688  2.0223  2.0120 -0.9980
 3591TIP3   OH210736   0.026   6.464   4.086  0.3808 -0.7867 -0.4636
 3591TIP3    H110737   0.101   6.444   4.142  0.3542 -0.4532 -0.3079
 3591TIP3    H210738   0.056   6.535   4.029 -0.2549  0.3473  0.5595
 3592TIP3   OH210739   0.201   3.642   3.997 -0.0313 -0.4102  0.0959
 3592TIP3    H110740   0.227   3.683   4.079  0.9527 -1.0711  0.1363
 3592TIP3    H210741   0.120   3.687   3.971  1.1244  1.7407 -0.0168
 3593TIP3   OH210742   2.563   0.102   0.878  0.1405  0.1514  0.0725
 3593TIP3    H110743   2.538   0.010   0.864  0.4047 -0.2236  1.8424
 3593TIP3    H210744   2.645   0.112   0.830 -0.2736 -0.3257 -0.7526
 3594TIP3   OH210745   3.874   5.663   2.952 -0.5515 -0.1447  0.2419
 3594TIP3    H110746   3.888   5.751   2.986 -0.8887 -0.2974  0.8023
 3594TIP3    H210747   3.844   5.613   3.028  0.3263 -0.9208  0.0974
 3595TIP3   OH210748   2.990   1.865   4.506  0.5470  0.7756  0.3602
 3595TIP3    H110749   3.063   1.830   4.557 -0.3280 -0.5695  0.7279
 3595TIP3    H210750   2.914   1.857   4.563 -0.2360  0.3374 -0.7067
 3596TIP3   OH210751   1.890   0.179   3.871 -0.1681 -0.3879  0.1023
 3596TIP3    H110752   1.960   0.244   3.870 -0.3667 -0.1821 -0.3507
 3596TIP3    H210753   1.872   0.161   3.779  0.6750 -1.9268  0.2040
 3597TIP3   OH210754   1.136   5.993   3.399  0.0101  0.4788  0.2266
 3597TIP3    H110755   1.171   6.078   3.424 -0.2997  0.4056  0.9196
 3597TIP3    H210756   1.190   5.930   3.445 -0.9502  0.3615  1.2402
 3598TIP3   OH210757   2.548   2.003   3.723  0.1393  0.0927 -0.2943
 3598TIP3    H110758   2.586   1.929   3.677  0.3128  0.2656 -0.4342
 3598TIP3    H210759   2.454   1.990   3.717  0.1406  0.4700 -1.2969
 3599TIP3   OH210760   4.029   6.402   3.443  0.3294  0.3511  0.4472
 3599TIP3    H110761   4.096   6.347   3.403  0.1864  0.6212 -0.1913
 3599TIP3    H210762   3.948   6.378   3.397  0.0022  0.0711  1.1653
 3600TIP3   OH210763   2.345   1.703   2.298  0.4036  0.5788  0.3917
 3600TIP3    H110764   2.385   1.619   2.317 -0.7555  0.3091  1.8804
 3600TIP3    H210765   2.309   1.694   2.210 -1.0823 -1.0771  1.1210
 3601TIP3   OH210766   6.809   5.318   0.301 -0.5327 -0.4896 -0.5538
 3601TIP3    H110767   6.859   5.271   0.234  0.3726 -0.0385 -0.2093
 3601TIP3    H210768   6.728   5.268   0.310  0.6874 -2.4372  0.3151
 3602TIP3   OH210769   4.154   5.308   4.929  0.0249 -0.1391 -0.2762
 3602TIP3    H110770   4.162   5.213   4.939 -0.5672 -0.3580 -1.7372
 3602TIP3    H210771   4.153   5.323   4.835  2.0487  1.5043 -0.1340
 3603TIP3   OH210772   3.131   4.465   2.761 -0.0870  0.2808  0.1144
 3603TIP3    H110773   3.175   4.515   2.829 -1.0668  0.1381  0.8828
 3603TIP3    H210774   3.038   4.481   2.776 -0.3063  0.8090 -1.6362
 3604TIP3   OH210775   2.065   1.951   5.546 -0.1489 -0.2624 -0.1577
 3604TIP3    H110776   2.067   2.045   5.531  0.1191 -0.2558 -0.0965
 3604TIP3    H210777   1.973   1.927   5.540 -0.2062 -0.0131 -0.2786
 3605TIP3   OH210778   1.061   6.734   4.770  0.1203 -0.2671  0.0054
 3605TIP3    H110779   1.011   6.792   4.713  0.8902 -0.5569 -0.9775
 3605TIP3    H210780   1.137   6.708   4.719  1.4300  0.3406  1.5400
 3606TIP3   OH210781   6.679   6.710   3.242  0.4149  0.0366 -0.1634
 3606TIP3    H110782   6.600   6.742   3.285  1.0072 -1.6125  2.3462
 3606TIP3    H210783   6.646   6.656   3.169 -0.6292  1.9945 -1.2190
 3607TIP3   OH210784   4.513   1.330   3.247  0.1345  0.1909  0.1987
 3607TIP3    H110785   4.437   1.317   3.305 -0.3993 -0.0060 -0.5284
 3607TIP3    H210786   4.491   1.280   3.169  0.9748  0.2320 -0.0643
 3608TIP3   OH210787   5.416   2.180   4.609  0.3277 -0.5649  0.5082
 3608TIP3    H110788   5.341   2.154   4.556  1.4453 -0.1058 -1.3943
 3608TIP3    H210789   5.378   2.229   4.682 -1.4169 -2.9869  1.3440
 3609TIP3   OH210790   1.084   4.183   3.337  0.3009 -0.0182  0.0756
 3609TIP3    H110791   1.130   4.259   3.301  0.5161 -0.8110 -1.3795
 3609TIP3    H210792   1.150   4.137   3.388  0.1812  0.7262  0.9297
 3610TIP3   OH210793   5.401   2.601   2.307 -0.1632  0.4398  0.8664
 3610TIP3    H110794   5.330   2.541   2.329  1.2129 -0.5538  3.0044
 3610TIP3    H210795   5.434   2.569   2.223 -0.9125 -0.3762  0.8699
 3611TIP3   OH210796   5.451   0.782   1.517  0.0783  0.0739 -0.1239
 3611TIP3    H110797   5.525   0.752   1.571 -0.2105 -0.7058 -0.1514
 3611TIP3    H210798   5.474   0.755   1.428  0.9178  2.0324 -0.5651
 3612TIP3   OH210799   7.017   1.437   3.479  0.2029  0.7162  0.1493
 3612TIP3    H110800   7.098   1.392   3.458 -0.8023 -0.5240 -1.2900
 3612TIP3    H210801   6.971   1.444   3.395 -0.5923  2.6077  0.6976
 3613TIP3   OH210802   2.834   3.068   1.326  0.3850 -0.1365  0.8399
 3613TIP3    H110803   2.766   3.113   1.276  1.4290  1.9962  1.2045
 3613TIP3    H210804   2.856   2.992   1.273 -1.4460 -0.2502  0.1550
 3614TIP3   OH210805   2.050   4.513   0.018 -0.0962  0.4284  0.3134
 3614TIP3    H110806   2.051   4.568  -0.060 -0.4103  0.3878  0.2791
 3614TIP3    H210807   2.014   4.569   0.087  0.0349  0.4158  0.3925
 3615TIP3   OH210808   1.535   1.323   0.954  0.7250  0.3503  0.0961
 3615TIP3    H110809   1.458   1.312   0.898  0.3097  2.1128  0.2671
 3615TIP3    H210810   1.502   1.307   1.043 -0.4280  4.3808  0.6212
 3616TIP3   OH210811   0.620   4.918   3.092 -0.0088  0.2942  0.0828
 3616TIP3    H110812   0.591   5.001   3.130 -0.2090 -0.0877  0.7874
 3616TIP3    H210813   0.540   4.873   3.067  0.0582  0.0142  0.3600
 3617TIP3   OH210814   2.756   1.577   3.311 -0.8018  0.2476 -0.5406
 3617TIP3    H110815   2.788   1.651   3.259 -0.5678  0.5911  0.0680
 3617TIP3    H210816   2.802   1.586   3.395 -1.0335 -0.3921 -0.3415
 3618TIP3   OH210817   2.270   1.974   3.744  0.0194  0.0576 -0.8867
 3618TIP3    H110818   2.216   2.052   3.758  0.7191  0.3362  0.4287
 3618TIP3    H210819   2.223   1.904   3.788  1.1452  0.5039  1.2119
 3619TIP3   OH210820   0.906   5.280   2.202 -0.6129 -0.5536  0.3840
 3619TIP3    H110821   0.988   5.262   2.155  0.5054 -1.1504  2.4772
 3619TIP3    H210822   0.875   5.361   2.162  2.0080  0.7611  0.7718
 3620TIP3   OH210823   5.188   1.647   3.528 -0.1374 -0.7482  0.3784
 3620TIP3    H110824   5.254   1.614   3.467  1.4272 -0.4690  1.8483
 3620TIP3    H210825   5.217   1.735   3.550  0.3667 -1.4437  2.8272
 3621TIP3   OH210826   6.040   1.786   0.329 -0.1583  0.4051  0.1374
 3621TIP3    H110827   6.023   1.827   0.245  0.2581 -0.1620 -0.2306
 3621TIP3    H210828   6.129   1.813   0.352  0.2004 -0.4321 -0.2077
 3622TIP3   OH210829   2.797   3.281   2.016  0.6981 -0.0560 -0.3311
 3622TIP3    H110830   2.795   3.250   1.925 -0.2143  0.3382 -0.4555
 3622TIP3    H210831   2.705   3.285   2.042  0.9348  0.1775  0.4982
 3623TIP3   OH210832   6.543   3.097   4.959  0.3915  0.2193 -0.2656
 3623TIP3    H110833   6.564   3.188   4.938  1.4134 -0.2677 -1.5099
 3623TIP3    H210834   6.453   3.100   4.991 -0.4173  1.4088 -2.4139
 3624TIP3   OH210835   0.341   0.664   2.096 -0.2010 -0.1873  0.0028
 3624TIP3    H110836   0.310   0.609   2.168  0.2535  0.4686  0.7220
 3624TIP3    H210837   0.340   0.607   2.020 -0.4425 -0.9773  0.5850
 3625TIP3   OH210838   7.012   4.211   5.569  0.0380  0.0365  0.1758
 3625TIP3    H110839   6.973   4.132   5.606 -0.7070  0.0240 -0.6182
 3625TIP3    H210840   6.999   4.278   5.636 -2.1924  0.2698 -0.4148
 3626TIP3   OH210841   2.161   1.495   3.564 -0.0752 -0.3083 -0.1496
 3626TIP3    H110842   2.208   1.579   3.565 -1.4616  0.5020  0.4149
 3626TIP3    H210843   2.230   1.429   3.567  1.0871  0.7863 -1.3415
 3627TIP3   OH210844   6.512   2.088   0.805 -0.0999  0.2789 -0.3964
 3627TIP3    H110845   6.478   1.999   0.795  0.0986  0.2361 -0.7234
 3627TIP3    H210846   6.472   2.136   0.732 -0.3155  0.4921 -0.1392
 3628TIP3   OH210847   3.545   2.193   5.033 -0.0912  0.5021 -0.5356
 3628TIP3    H110848   3.459   2.185   4.992  0.1553  0.6939 -1.0952
 3628TIP3    H210849   3.544   2.126   5.102 -0.6202  0.3817 -0.6495
 3629TIP3   OH210850   1.036   2.953   0.228 -0.3982 -0.1379 -0.4236
 3629TIP3    H110851   0.961   3.010   0.209 -1.0003 -0.5790  0.5741
 3629TIP3    H210852   0.997   2.869   0.252  0.4744 -0.9417 -1.6968
 3630TIP3   OH210853   2.406   0.016   5.594 -0.0622 -0.1137  0.1670
 3630TIP3    H110854   2.465  -0.048   5.554 -0.6787 -0.2696 -0.4989
 3630TIP3    H210855   2.451   0.042   5.675  1.2199  0.2548 -0.6372
 3631TIP3   OH210856   6.593   5.342   2.306 -0.1480 -0.1849  0.4346
 3631TIP3    H110857   6.546   5.419   2.274  1.2107  0.1812 -0.7748
 3631TIP3    H210858   6.680   5.348   2.266  0.0737 -2.2233  0.4863
 3632TIP3   OH210859   0.961   2.899   2.812  0.8912 -0.1882  0.3593
 3632TIP3    H110860   1.014   2.914   2.734  0.7184 -0.8219  0.1200
 3632TIP3    H210861   1.020   2.856   2.874  1.0180  0.2816  0.5718
 3633TIP3   OH210862   6.192   6.805   2.526  0.2105 -0.2306 -0.4318
 3633TIP3    H110863   6.286   6.817   2.540 -0.0110  1.5066 -0.2279
 3633TIP3    H210864   6.163   6.750   2.599  0.8590  0.2221  0.1771
 3634TIP3   OH210865   3.915   1.240   0.407  0.4122 -0.0804  0.1389
 3634TIP3    H110866   3.972   1.248   0.330 -0.9180 -0.2579 -0.9030
 3634TIP3    H210867   3.962   1.180   0.465  1.4138  0.0041 -0.5643
 3635TIP3   OH210868   2.544   5.602   0.123 -0.1220 -0.6378  0.0821
 3635TIP3    H110869   2.560   5.563   0.209  0.4637 -0.9522 -0.1633
 3635TIP3    H210870   2.628   5.640   0.098 -0.8129  1.4133  0.6062
 3636TIP3   OH210871   1.691   6.088   0.738 -0.2498  0.8804 -0.3599
 3636TIP3    H110872   1.781   6.121   0.741 -0.6860  2.2062 -1.1180
 3636TIP3    H210873   1.684   6.047   0.651  0.0278 -0.5026  0.2444
 3637TIP3   OH210874   1.232   4.229   0.870  0.1060 -0.4088 -0.1767
 3637TIP3    H110875   1.230   4.197   0.961  0.0764 -1.8312 -0.6576
 3637TIP3    H210876   1.312   4.281   0.865 -0.9721  1.5270  1.2354
 3638TIP3   OH210877   2.111   1.597   5.018  0.3962 -0.3540 -0.3136
 3638TIP3    H110878   2.188   1.638   4.978  0.0373  0.0110 -0.6394
 3638TIP3    H210879   2.038   1.653   4.993 -0.2192 -1.5843 -1.4182
 3639TIP3   OH210880   1.145   2.880   2.599 -0.1846 -0.2529 -0.0741
 3639TIP3    H110881   1.079   2.847   2.537  1.0031 -2.1781 -0.3742
 3639TIP3    H210882   1.208   2.926   2.543 -0.6489  0.6357  0.0978
 3640TIP3   OH210883   5.424   4.274   0.612 -0.0630  0.2916  0.3972
 3640TIP3    H110884   5.449   4.309   0.697  0.7531 -0.7448  0.5972
 3640TIP3    H210885   5.481   4.199   0.599 -0.2371  0.3779 -1.0291
 3641TIP3   OH210886   5.182   1.312   1.245 -0.2757  0.4086  0.4456
 3641TIP3    H110887   5.119   1.262   1.193 -0.3341 -0.6531  1.5167
 3641TIP3    H210888   5.132   1.342   1.321  0.4855 -0.4285  1.3018
 3642TIP3   OH210889   0.828   6.484   3.949 -0.4574 -0.4275 -0.1709
 3642TIP3    H110890   0.879   6.481   4.030 -2.5710  0.3369  1.3105
 3642TIP3    H210891   0.787   6.397   3.944  0.7179 -0.9412 -1.1945
 3643TIP3   OH210892   4.812   0.737   5.269 -0.1482  0.0742 -0.3157
 3643TIP3    H110893   4.853   0.751   5.184  1.6811  1.8584  0.7686
 3643TIP3    H210894   4.859   0.796   5.328 -2.8369  0.5651  1.5057
 3644TIP3   OH210895   7.018   5.124   4.374 -0.1226 -0.5441 -0.0549
 3644TIP3    H110896   7.108   5.112   4.344  0.0812  0.8134 -0.0480
 3644TIP3    H210897   7.015   5.214   4.407 -0.9270 -1.2573  1.9622
 3645TIP3   OH210898   2.922   2.544   3.790  0.6306  0.2463 -0.6717
 3645TIP3    H110899   2.844   2.511   3.744  0.5349 -0.8383  0.2261
 3645TIP3    H210900   2.965   2.465   3.823  1.1612  0.9391  0.3484
 3646TIP3   OH210901   6.269   3.836   2.969 -0.4377  0.0593 -0.4765
 3646TIP3    H110902   6.261   3.744   2.945 -0.2575 -0.0652 -0.0625
 3646TIP3    H210903   6.360   3.859   2.948  0.2461 -0.5239  1.6902
 3647TIP3   OH210904   1.904   0.331   5.222  0.1180 -0.3209 -0.1937
 3647TIP3    H110905   1.977   0.382   5.257 -0.2899  1.7706 -2.1229
 3647TIP3    H210906   1.825   0.374   5.257 -0.2165 -0.7843 -0.3699
 3648TIP3   OH210907   3.702   2.992   0.829  0.1045 -0.2626 -0.1273
 3648TIP3    H110908   3.756   3.018   0.903  0.7601  0.0590 -0.7030
 3648TIP3    H210909   3.674   3.074   0.789  0.1579 -0.4297 -0.5178
 3649TIP3   OH210910   6.525   0.208   5.572  0.3865  0.0345  0.4673
 3649TIP3    H110911   6.478   0.184   5.492  1.9264 -1.7069  0.0412
 3649TIP3    H210912   6.499   0.299   5.588 -1.8002 -0.3278 -0.6470
 3650TIP3   OH210913   6.840   4.550   3.973 -0.3922 -0.3361 -0.0827
 3650TIP3    H110914   6.894   4.610   4.024 -0.5828  0.4918 -0.8459
 3650TIP3    H210915   6.883   4.465   3.983  0.2885  0.0566  0.4026
 3651TIP3   OH210916   4.903   0.315   5.085  0.1582 -0.2535 -0.1572
 3651TIP3    H110917   4.880   0.370   5.010  3.0856  1.4005  0.0130
 3651TIP3    H210918   4.924   0.376   5.155  0.0469 -1.6968  1.1917
 3652TIP3   OH210919   4.486   3.287   0.036  0.1337  1.0409  0.0449
 3652TIP3    H110920   4.424   3.298   0.109  0.0257  1.7061 -0.1434
 3652TIP3    H210921   4.495   3.375  -0.001 -0.0321  0.6560 -0.9279
 3653TIP3   OH210922   2.419   1.884   4.411 -0.1130 -0.0259  0.4108
 3653TIP3    H110923   2.329   1.916   4.401  0.6591  2.0672 -0.3658
 3653TIP3    H210924   2.452   1.928   4.489  0.1854 -0.9909  0.8504
 3654TIP3   OH210925   1.118   2.629   2.749  0.8356 -0.2963  0.1572
 3654TIP3    H110926   1.116   2.626   2.653  0.7949  0.7596  0.1146
 3654TIP3    H210927   1.178   2.700   2.770  0.5186 -0.2404  0.9108
 3655TIP3   OH210928   1.169   3.320   4.890 -0.1589  0.2683 -0.5000
 3655TIP3    H110929   1.118   3.337   4.811 -0.1670  1.6615 -0.2269
 3655TIP3    H210930   1.260   3.323   4.861 -0.1358  1.4205 -0.3816
 3656TIP3   OH210931   5.187   4.400   3.214 -0.4352 -0.1677 -0.2186
 3656TIP3    H110932   5.110   4.400   3.157 -0.6005  1.7127 -0.0520
 3656TIP3    H210933   5.257   4.363   3.161 -0.8186  0.6483 -1.3211
 3657TIP3   OH210934   4.932   2.974   0.549 -0.2108 -0.3050  0.0162
 3657TIP3    H110935   4.969   3.021   0.623 -1.9829  0.1380  0.6749
 3657TIP3    H210936   4.897   3.042   0.492  0.4631 -0.6810 -0.8625
 3658TIP3   OH210937   2.940   0.956   2.925  0.2172 -0.2170 -0.0505
 3658TIP3    H110938   2.915   1.043   2.896 -2.1903 -1.2790 -1.5636
 3658TIP3    H210939   2.985   0.917   2.849 -0.9107 -1.0609 -0.3200
 3659TIP3   OH210940   0.024   2.680   5.583  0.3566  0.5248  0.1429
 3659TIP3    H110941   0.005   2.739   5.511 -0.7375 -0.6571 -0.5680
 3659TIP3    H210942   0.119   2.667   5.579  0.2723  0.1565 -1.3665
 3660TIP3   OH210943   4.482   3.279   0.941  0.5151  0.5309 -0.6514
 3660TIP3    H110944   4.416   3.324   0.993 -1.3585  0.0323 -2.4218
 3660TIP3    H210945   4.432   3.240   0.869  2.7827  0.2283 -2.1665
 3661TIP3   OH210946   5.046   0.171   5.798  0.0655 -0.0696 -0.0983
 3661TIP3    H110947   5.117   0.173   5.734 -0.1887  0.4606 -0.3692
 3661TIP3    H210948   4.967   0.153   5.746 -0.2735  1.2439 -0.0753
 3662TIP3   OH210949   5.034   0.496   2.789  0.4216 -0.1621 -0.3065
 3662TIP3    H110950   5.003   0.585   2.805  1.6386  0.4757 -1.2797
 3662TIP3    H210951   5.112   0.488   2.845  0.4372 -0.5416 -0.3831
 3663TIP3   OH210952   6.748   5.915   4.142 -0.0694  0.7297 -0.2926
 3663TIP3    H110953   6.759   5.958   4.226  0.1500  1.6491 -0.7750
 3663TIP3    H210954   6.670   5.956   4.104  0.2217  0.8093 -0.8186
 3664TIP3   OH210955   5.619   5.158   3.910  0.7997 -0.1860  0.0591
 3664TIP3    H110956   5.612   5.250   3.883  2.7033  0.7427  2.4149
 3664TIP3    H210957   5.567   5.153   3.990 -1.1384 -1.8061 -1.1941
 3665TIP3   OH210958   0.027   5.975   0.434 -0.3153 -0.1857 -0.0721
 3665TIP3    H110959  -0.010   5.892   0.405 -0.0095  0.3281 -2.1144
 3665TIP3    H210960   0.023   6.031   0.356  0.8586  1.2175  0.8302
 3666TIP3   OH210961   0.767   0.624   1.821  0.4171 -0.4593  0.3079
 3666TIP3    H110962   0.815   0.541   1.824  0.3662 -0.4916  0.2164
 3666TIP3    H210963   0.817   0.679   1.761  0.2063 -0.5753  0.0278
 3667TIP3   OH210964   3.948   0.462   4.820  0.3917  0.0965 -0.1955
 3667TIP3    H110965   3.910   0.374   4.817 -0.2564  0.3984 -1.7266
 3667TIP3    H210966   3.978   0.472   4.911  0.3489 -1.6347  0.0483
 3668TIP3   OH210967   3.403   0.782   5.407 -0.2426 -0.1457 -0.2116
 3668TIP3    H110968   3.394   0.715   5.475 -0.2299  0.0821  0.0166
 3668TIP3    H210969   3.388   0.735   5.325  1.9562 -0.9005 -0.2382
 3669TIP3   OH210970   5.853   5.311   5.568 -0.3024  0.9662 -0.0846
 3669TIP3    H110971   5.809   5.362   5.636  0.8659  1.2540  0.4785
 3669TIP3    H210972   5.871   5.227   5.610  0.5820  1.2064  0.0389
 3670TIP3   OH210973   6.922   6.006   0.025 -0.5473 -0.8032  0.6916
 3670TIP3    H110974   6.895   5.919   0.054 -0.6526 -0.4778  1.5930
 3670TIP3    H210975   6.841   6.058   0.025 -0.0954  0.0103  2.8055
 3671TIP3   OH210976   0.828   5.397   5.330 -0.3272 -0.0139 -0.2001
 3671TIP3    H110977   0.777   5.323   5.300 -0.3167 -0.0177 -0.2078
 3671TIP3    H210978   0.763   5.457   5.367 -0.2386 -0.4789  0.7377
 3672TIP3   OH210979   3.000   4.882   4.668 -0.2236 -0.0493 -0.0400
 3672TIP3    H110980   3.066   4.821   4.701  0.3151  0.1070 -0.7998
 3672TIP3    H210981   2.990   4.859   4.576  0.5475  1.4777 -0.5400
 3673TIP3   OH210982   5.619   4.827   1.131  0.3894 -0.2903 -0.2101
 3673TIP3    H110983   5.613   4.744   1.179  1.0016 -1.3139 -1.8165
 3673TIP3    H210984   5.704   4.863   1.156 -0.0113  0.0351  0.7337
 3674TIP3   OH210985   5.514   6.022   3.595  0.4861 -0.4662 -0.4730
 3674TIP3    H110986   5.562   6.043   3.515 -0.7876  1.0480 -0.8981
 3674TIP3    H210987   5.462   5.945   3.573  0.8993 -0.6636 -0.7718
 3675TIP3   OH210988   1.979   4.929   0.546 -0.2055 -0.2255  0.4305
 3675TIP3    H110989   2.038   4.927   0.471  0.1151 -2.1014  0.6896
 3675TIP3    H210990   1.911   4.865   0.525 -1.6670  1.2157  0.5500
 3676TIP3   OH210991   0.330   4.549   4.304 -0.3064 -0.3789  1.1339
 3676TIP3    H110992   0.240   4.521   4.323 -0.3879 -1.6547 -0.8201
 3676TIP3    H210993   0.321   4.638   4.270 -0.6408  0.0966  2.4282
 3677TIP3   OH210994   0.069   0.698   0.384 -0.1361 -0.0528  0.4683
 3677TIP3    H110995   0.138   0.664   0.441 -1.2347 -0.5378  1.5466
 3677TIP3    H210996   0.023   0.620   0.353 -0.3246  0.2749 -0.0921
 3678TIP3   OH210997   5.504   5.637   1.468  0.2460  0.3150  0.0634
 3678TIP3    H110998   5.524   5.605   1.380  2.3342  1.0016  0.2179
 3678TIP3    H210999   5.496   5.732   1.458  0.0396  0.3548  0.5465
 3679TIP3   OH211000   3.538   0.366   4.435  0.9801  0.0285 -0.3907
 3679TIP3    H111001   3.504   0.281   4.406 -0.2743  0.0986  0.7844
 3679TIP3    H211002   3.615   0.345   4.487 -0.4029 -0.5738  1.5027
 3680TIP3   OH211003   0.454   3.362   2.755 -0.0245 -0.3649 -0.7438
 3680TIP3    H111004   0.530   3.305   2.742  0.1958 -0.3955  0.5052
 3680TIP3    H211005   0.459   3.386   2.848 -0.7658  0.7594 -0.9888
 3681TIP3   OH211006   5.463   6.126   1.174 -0.3335  0.3454  0.1906
 3681TIP3    H111007   5.389   6.103   1.117 -0.9789 -0.3353  1.2703
 3681TIP3    H211008   5.473   6.220   1.164 -0.6256  0.2854 -0.8105
 3682TIP3   OH211009   6.241   3.202   3.215  0.0894  0.2871  0.3630
 3682TIP3    H111010   6.151   3.183   3.241 -1.1183  0.2162 -3.3331
 3682TIP3    H211011   6.291   3.126   3.246 -1.6765 -1.1334 -0.0760
 3683TIP3   OH211012   4.761   5.421   0.517  0.1856 -0.6943 -0.3923
 3683TIP3    H111013   4.747   5.360   0.444 -0.8426 -0.1092 -0.7022
 3683TIP3    H211014   4.734   5.372   0.595 -2.3612 -0.1152 -0.8147
 3684TIP3   OH211015   3.225   3.886   4.867  0.4801  0.4423  0.2557
 3684TIP3    H111016   3.235   3.885   4.772  2.0895 -0.3483  0.4015
 3684TIP3    H211017   3.271   3.964   4.895  0.0399  0.6526  0.4084
 3685TIP3   OH211018   5.025   4.899   3.728  0.7102  0.5170 -0.1074
 3685TIP3    H111019   4.991   4.985   3.754  1.5508  1.1836 -1.1379
 3685TIP3    H211020   5.106   4.919   3.681  0.2390 -0.7463 -1.5103
 3686TIP3   OH211021   0.464   5.944   4.907  0.3271  0.5421 -0.4364
 3686TIP3    H111022   0.506   6.017   4.951  0.7713  0.2072 -0.3024
 3686TIP3    H211023   0.440   5.979   4.821  1.5321  0.5284 -0.7917
 3687TIP3   OH211024   4.614   4.291   2.571  0.2842  0.1000 -0.4385
 3687TIP3    H111025   4.539   4.350   2.581 -0.9184 -1.5352  0.8366
 3687TIP3    H211026   4.611   4.236   2.649  1.7583 -1.2178 -1.2627
 3688TIP3   OH211027   3.950   3.604   2.778 -0.7050  0.4855  0.3440
 3688TIP3    H111028   3.894   3.610   2.700 -2.8350  0.1727  1.7680
 3688TIP3    H211029   3.896   3.558   2.843  1.7922 -1.2940  1.3316
 3689TIP3   OH211030   0.575   0.268   2.544  0.4436 -0.2416  0.2177
 3689TIP3    H111031   0.612   0.189   2.505  0.9459  0.0652  0.0576
 3689TIP3    H211032   0.510   0.298   2.482  0.6872 -0.1912 -0.0159
 3690TIP3   OH211033   6.709   4.565   1.078  0.0092 -0.4488 -0.4795
 3690TIP3    H111034   6.665   4.643   1.042  0.0731 -0.3302 -0.2999
 3690TIP3    H211035   6.766   4.599   1.147  1.0042 -0.5077 -1.2593
 3691TIP3   OH211036   5.718   0.284   0.425 -0.4048 -0.1548 -0.0302
 3691TIP3    H111037   5.623   0.282   0.418 -0.3153  0.7890 -2.3643
 3691TIP3    H211038   5.737   0.234   0.505 -2.9303  1.4417  1.7106
 3692TIP3   OH211039   5.936   6.028   5.411 -0.4948  0.6032  0.4678
 3692TIP3    H111040   5.924   5.998   5.321  0.1441  1.1837  0.1828
 3692TIP3    H211041   6.023   5.996   5.435 -0.7678  0.2268  0.9741
 3693TIP3   OH211042   5.359   1.448   2.674 -0.5724 -0.1435  0.0649
 3693TIP3    H111043   5.347   1.481   2.763 -1.0125 -0.0478 -0.0248
 3693TIP3    H211044   5.445   1.405   2.675 -0.4853  0.0354  0.4786
 3694TIP3   OH211045   2.632   5.104   5.815 -0.3918 -0.2135 -0.5542
 3694TIP3    H111046   2.667   5.019   5.788  0.4682  0.1273 -0.5577
 3694TIP3    H211047   2.581   5.135   5.740 -0.3079 -0.5131 -0.7334
 3695TIP3   OH211048   6.598   3.478   3.396  0.0289  0.1273  0.2865
 3695TIP3    H111049   6.595   3.382   3.391  0.7674  0.0417  1.2441
 3695TIP3    H211050   6.506   3.505   3.386 -0.2015 -0.6840  0.1437
 3696TIP3   OH211051   6.168   5.930   5.546  0.2359 -0.5197 -0.1110
 3696TIP3    H111052   6.172   5.970   5.633  0.5550 -1.2408  0.2085
 3696TIP3    H211053   6.252   5.950   5.506  0.2636 -0.5825 -0.0830
 3697TIP3   OH211054   5.950   3.223   5.150 -0.3349  0.2591 -0.3122
 3697TIP3    H111055   5.984   3.166   5.082  0.6113 -0.0071  0.3627
 3697TIP3    H211056   5.935   3.306   5.106 -0.2665 -0.0655 -0.9673
 3698TIP3   OH211057   4.870   6.400   5.190  0.1609 -0.1047 -0.1382
 3698TIP3    H111058   4.820   6.330   5.147 -1.2985  0.2644  0.8758
 3698TIP3    H211059   4.894   6.459   5.118  1.5535 -1.6644 -1.0340
 3699TIP3   OH211060   4.929   0.728   2.223  0.3124 -0.7041 -0.4722
 3699TIP3    H111061   4.928   0.671   2.147  1.5656 -2.1351  0.5207
 3699TIP3    H211062   4.975   0.677   2.290  0.3950  1.0109  0.8328
 3700TIP3   OH211063   6.174   3.413   2.036 -0.1665 -0.3740 -0.1553
 3700TIP3    H111064   6.158   3.495   2.082 -1.0778  0.5349 -1.9702
 3700TIP3    H211065   6.112   3.351   2.074  0.4582 -0.2063  1.1608
 3701TIP3   OH211066   2.074   1.701   2.504 -0.0318 -0.1896 -0.5379
 3701TIP3    H111067   2.143   1.720   2.440  1.0330 -1.0531  0.3262
 3701TIP3    H211068   2.029   1.624   2.469  0.8230 -0.9206 -0.0493
 3702TIP3   OH211069   4.032   0.640   1.191  0.0698 -0.7973 -0.2962
 3702TIP3    H111070   4.062   0.728   1.171 -1.4609  0.1499  1.3077
 3702TIP3    H211071   3.936   0.645   1.183 -0.0852 -2.1543  0.3654
 3703TIP3   OH211072   1.863   6.624   5.451  0.2533 -0.1603  0.8728
 3703TIP3    H111073   1.836   6.542   5.411  1.0488 -1.0706  2.1055
 3703TIP3    H211074   1.810   6.632   5.530 -0.4098  0.9557  0.3389
 3704TIP3   OH211075   7.006   0.199   3.980  0.1152  0.4826  0.1136
 3704TIP3    H111076   7.034   0.109   3.995 -1.1221  0.0694  0.0668
 3704TIP3    H211077   6.961   0.196   3.895  2.0052  1.6245 -1.0158
 3705TIP3   OH211078   0.908   2.822   2.481 -0.5112 -0.0422  0.6856
 3705TIP3    H111079   0.939   2.843   2.393  0.6908 -1.4209  0.7466
 3705TIP3    H211080   0.859   2.900   2.508  1.4089  1.5239 -0.1293
 3706TIP3   OH211081   6.421   1.618   2.040 -0.2062  0.0612  0.3305
 3706TIP3    H111082   6.462   1.620   2.127  0.3424  0.3916  0.0712
 3706TIP3    H211083   6.483   1.570   1.986 -1.1862 -1.3410  0.4260
 3707TIP3   OH211084   0.711   2.621   0.893  0.8545 -0.0744  0.6438
 3707TIP3    H111085   0.669   2.584   0.971  2.2128 -0.8001  1.0714
 3707TIP3    H211086   0.803   2.600   0.904  1.3076  1.2510 -0.3838
 3708TIP3   OH211087   4.291   5.782   3.325  0.1505  0.0168  0.1309
 3708TIP3    H111088   4.279   5.773   3.230  0.7554 -0.1652  0.0693
 3708TIP3    H211089   4.202   5.785   3.360 -0.1083  1.1744 -0.5392
 3709TIP3   OH211090   3.597   0.385   4.862 -0.3729 -0.3462  0.6971
 3709TIP3    H111091   3.633   0.470   4.837 -2.9674  0.8346  0.6462
 3709TIP3    H211092   3.674   0.329   4.874  1.3390  0.9543 -2.8173
 3710TIP3   OH211093   6.059   6.313   5.609  0.3052 -1.1702 -0.0938
 3710TIP3    H111094   6.123   6.276   5.548  0.0503  0.0627 -1.1539
 3710TIP3    H211095   6.053   6.248   5.679  1.6058 -2.0038 -0.7072
 3711TIP3   OH211096   2.676   6.758   3.797  0.3560 -0.3810 -0.9056
 3711TIP3    H111097   2.655   6.718   3.713  0.2315  1.5417 -1.8409
 3711TIP3    H211098   2.620   6.713   3.860 -1.6038 -0.0127 -2.3026
 3712TIP3   OH211099   3.446   6.187   4.258 -0.6184 -0.1283  0.5019
 3712TIP3    H111100   3.500   6.160   4.333 -1.2348 -0.8121  0.7135
 3712TIP3    H211101   3.361   6.144   4.273 -0.9972  0.3647 -0.1851
 3713TIP3   OH211102   0.007   1.526   0.317 -0.6500 -0.4187 -0.5636
 3713TIP3    H111103   0.006   1.438   0.279  0.2353 -0.5577 -0.2791
 3713TIP3    H211104   0.099   1.543   0.338 -1.0336 -0.1967  1.1399
 3714TIP3   OH211105   2.327   4.588   5.620  0.3888  0.0584 -0.0224
 3714TIP3    H111106   2.253   4.595   5.680  0.5497  0.3500  0.1410
 3714TIP3    H211107   2.364   4.676   5.615  0.6570 -0.0592 -0.1916
 3715TIP3   OH211108   5.842   0.940   2.189 -0.1801 -0.2013  0.1392
 3715TIP3    H111109   5.859   0.858   2.235  1.1637  0.5374  1.0186
 3715TIP3    H211110   5.914   0.948   2.126 -0.3523  0.2565 -0.0068
 3716TIP3   OH211111   1.007   2.876   2.230 -0.3963 -0.1924 -0.2949
 3716TIP3    H111112   1.078   2.830   2.185 -0.1613 -0.2407  0.1151
 3716TIP3    H211113   0.954   2.913   2.160  1.4110  1.9810 -0.6742
 3717TIP3   OH211114   4.347   3.113   1.551  0.1501  0.3880  0.0575
 3717TIP3    H111115   4.432   3.081   1.523 -0.4364  0.9211 -2.6389
 3717TIP3    H211116   4.351   3.208   1.537 -0.4073  0.6293  1.3685
 3718TIP3   OH211117   7.079   3.029   0.376  0.4228  0.1101  0.4055
 3718TIP3    H111118   7.174   3.016   0.377  0.5323  0.8243  1.9694
 3718TIP3    H211119   7.060   3.059   0.287  1.5444 -0.7694 -0.1518
 3719TIP3   OH211120   0.783   2.427   5.089  0.6023 -0.0551 -0.2261
 3719TIP3    H111121   0.720   2.481   5.040  1.3608 -0.5992 -1.8787
 3719TIP3    H211122   0.769   2.338   5.056  0.9882 -0.4862  0.7350
 3720TIP3   OH211123   7.046   4.846   3.000  0.1884  0.2528 -0.0967
 3720TIP3    H111124   7.088   4.788   3.064  0.2530 -2.2512 -2.2441
 3720TIP3    H211125   6.956   4.856   3.032  0.1914 -1.0384  0.3592
 3721TIP3   OH211126   3.078   4.975   0.462  0.4347  0.0477  0.0840
 3721TIP3    H111127   3.029   5.041   0.412  2.9038  1.0580 -1.1462
 3721TIP3    H211128   3.140   5.026   0.513 -1.0932 -1.0581  3.3103
 3722TIP3   OH211129   7.148   0.845   2.528  0.2162  0.4770 -0.8207
 3722TIP3    H111130   7.108   0.795   2.599  1.9462 -1.3141 -1.0086
 3722TIP3    H211131   7.091   0.829   2.453 -0.7068  0.9958 -0.2392
 3723TIP3   OH211132   5.822   1.573   3.247 -0.2225  0.5335  0.3548
 3723TIP3    H111133   5.740   1.612   3.217  0.0141  0.7160 -0.0569
 3723TIP3    H211134   5.885   1.645   3.243  0.4561 -0.1120 -1.3456
 3724TIP3   OH211135   0.545   2.767   3.314 -0.3505  0.0153  0.5210
 3724TIP3    H111136   0.451   2.783   3.315 -0.0966  1.8502 -0.7203
 3724TIP3    H211137   0.561   2.712   3.391 -2.6858 -2.0667 -0.3365
 3725TIP3   OH211138   2.538   1.570   1.968  0.6918  0.2379 -0.2030
 3725TIP3    H111139   2.542   1.564   2.063 -0.1142  2.7053  0.0672
 3725TIP3    H211140   2.597   1.642   1.946 -0.0209  0.4884 -1.4273
 3726TIP3   OH211141   6.180   4.261   5.763 -0.0410 -0.3358 -0.6665
 3726TIP3    H111142   6.152   4.351   5.777 -0.9253 -0.5467 -0.9680
 3726TIP3    H211143   6.098   4.213   5.747  0.2727 -1.4576  0.8826
 3727TIP3   OH211144   0.422   2.954   0.169  0.4670 -0.2409 -0.3382
 3727TIP3    H111145   0.382   3.031   0.211  1.4539  1.0591 -1.6643
 3727TIP3    H211146   0.347   2.900   0.143 -0.2974  0.7063 -0.1658
 3728TIP3   OH211147   2.628   3.150   3.996  0.4699  0.2073  0.1965
 3728TIP3    H111148   2.598   3.213   3.930 -1.9855 -0.7300  0.3231
 3728TIP3    H211149   2.643   3.070   3.947  0.9268  0.1445  0.4390
 3729TIP3   OH211150   2.393   1.421   0.200  0.1854 -0.3939 -0.2859
 3729TIP3    H111151   2.371   1.514   0.195  0.2942 -0.2493  1.3022
 3729TIP3    H211152   2.488   1.419   0.191  0.6261  0.0607  3.0101
 3730TIP3   OH211153   3.937   1.755   4.861 -0.0651 -0.1775 -0.0748
 3730TIP3    H111154   3.932   1.808   4.781  1.3375  0.0022 -0.0726
 3730TIP3    H211155   3.876   1.683   4.846 -1.7415  1.2121 -0.2301
 3731TIP3   OH211156   3.596   4.331   3.055  0.4587 -0.2265 -0.3206
 3731TIP3    H111157   3.631   4.276   2.985  0.2315 -0.1802 -0.4720
 3731TIP3    H211158   3.634   4.295   3.135 -1.4462 -2.0517 -0.1696
 3732TIP3   OH211159   2.140   0.301   2.236 -0.3152  0.2251 -0.1977
 3732TIP3    H111160   2.220   0.265   2.275 -0.5404 -0.1433 -0.0749
 3732TIP3    H211161   2.172   0.364   2.171  0.0713  0.2768  0.0384
 3733TIP3   OH211162   7.143   0.911   0.140 -0.2149  0.1150  0.2174
 3733TIP3    H111163   7.238   0.903   0.152 -0.1051 -0.9765 -1.1297
 3733TIP3    H211164   7.114   0.823   0.118 -1.6361  0.3474  1.0686
 3734TIP3   OH211165   0.813   5.392   4.852  0.0369 -0.2723 -0.5800
 3734TIP3    H111166   0.828   5.450   4.926  0.5944 -2.3443  1.0524
 3734TIP3    H211167   0.728   5.352   4.869 -0.4808  0.2326 -1.8293
 3735TIP3   OH211168   6.460   4.525   1.816 -0.2552  0.1928 -0.2362
 3735TIP3    H111169   6.407   4.473   1.878 -1.5933  0.9226 -0.7178
 3735TIP3    H211170   6.473   4.466   1.741  0.6882 -0.4142  0.3776
 3736TIP3   OH211171   5.484   6.490   3.915  0.0082 -0.0397  0.0149
 3736TIP3    H111172   5.571   6.458   3.891  0.1170 -1.2042  1.7534
 3736TIP3    H211173   5.498   6.581   3.939  0.2581  0.5325 -2.1131
 3737TIP3   OH211174   5.568   1.906   5.736  0.5412  0.2059  0.5208
 3737TIP3    H111175   5.627   1.841   5.697 -0.6188 -0.0756 -0.8322
 3737TIP3    H211176   5.514   1.936   5.663  0.4991  2.1067  1.2816
 3738TIP3   OH211177   1.585   2.455   2.612  0.0913 -0.3394  0.5039
 3738TIP3    H111178   1.602   2.384   2.674  2.1331 -0.0914  0.3170
 3738TIP3    H211179   1.511   2.424   2.560 -0.3406 -1.4470  1.7153
 3739TIP3   OH211180   5.797   0.066   5.329  0.2701  0.0926  1.0115
 3739TIP3    H111181   5.874   0.044   5.381  0.7914 -0.3850  0.0745
 3739TIP3    H211182   5.753  -0.018   5.313  0.8202  0.0322 -0.3602
 3740TIP3   OH211183   6.269   2.316   5.331 -0.2249 -0.2441  0.4083
 3740TIP3    H111184   6.214   2.316   5.409 -0.3141 -0.6078  0.3476
 3740TIP3    H211185   6.219   2.366   5.267 -0.1617  0.0369  0.5790
 3741TIP3   OH211186   0.111   6.675   3.941 -0.5219  0.1983 -0.1355
 3741TIP3    H111187   0.181   6.670   3.875 -0.3787 -3.8005  0.0550
 3741TIP3    H211188   0.075   6.763   3.931  2.5414  1.3964 -2.3007
 3742TIP3   OH211189   5.535   0.451   2.249 -0.0626  0.2682  0.4039
 3742TIP3    H111190   5.485   0.377   2.284 -0.3149  0.3924  0.3144
 3742TIP3    H211191   5.483   0.480   2.174  0.1291  0.4231  0.3330
 3743TIP3   OH211192   6.887   0.172   5.404 -0.2976  0.4204  0.0094
 3743TIP3    H111193   6.935   0.098   5.365  1.4555  1.8395 -0.6744
 3743TIP3    H211194   6.814   0.187   5.345 -0.2509 -0.2897 -0.2437
 3744TIP3   OH211195   6.409   2.275   0.999  0.2773  0.1553 -0.1574
 3744TIP3    H111196   6.371   2.216   1.064 -2.1440 -1.0127 -2.4202
 3744TIP3    H211197   6.446   2.216   0.932  0.7816  1.2599 -0.8830
 3745TIP3   OH211198   2.548   4.291   2.626 -0.2654 -0.3111 -0.2710
 3745TIP3    H111199   2.487   4.325   2.560 -0.0792 -1.6443 -1.1618
 3745TIP3    H211200   2.599   4.225   2.580  0.9736 -0.1476  0.8102
 3746TIP3   OH211201   0.738   0.503   5.725 -0.1565  0.0334  0.2664
 3746TIP3    H111202   0.726   0.577   5.665 -0.8258 -0.2403  0.0495
 3746TIP3    H211203   0.666   0.443   5.704  1.1803 -1.3575 -0.5454
 3747TIP3   OH211204   6.341   1.884   0.947  0.1965 -0.4966 -0.1199
 3747TIP3    H111205   6.314   1.845   0.863  0.7056  0.5931 -0.8208
 3747TIP3    H211206   6.294   1.833   1.013  0.7629 -2.2215 -0.9817
 3748TIP3   OH211207   3.097   0.268   5.432 -0.0331 -0.1844 -0.6471
 3748TIP3    H111208   3.108   0.266   5.337 -1.9217 -0.5771 -0.9022
 3748TIP3    H211209   3.114   0.178   5.460 -0.7841 -0.3763 -0.7977
 3749TIP3   OH211210   6.524   4.990   1.082  0.4847 -0.3835  0.5347
 3749TIP3    H111211   6.599   5.041   1.050  0.4453 -0.1717  0.7760
 3749TIP3    H211212   6.449   5.050   1.074  0.0705 -1.0551 -1.0322
 3750TIP3   OH211213   4.978   1.765   2.134 -0.1622 -0.8775  0.2355
 3750TIP3    H111214   4.906   1.815   2.096  0.6849  1.3097  1.4087
 3750TIP3    H211215   5.037   1.749   2.060 -1.5186 -2.2014 -0.6146
 3751TIP3   OH211216   2.590   4.155   3.387  0.4087  0.0959 -0.1004
 3751TIP3    H111217   2.554   4.101   3.316  1.3523 -0.0777 -0.4580
 3751TIP3    H211218   2.579   4.103   3.466  1.6937 -0.8144 -0.5005
 3752TIP3   OH211219   4.634   3.902   4.902 -0.1871  0.2096  0.0974
 3752TIP3    H111220   4.583   3.911   4.822 -0.4287 -1.0211  0.0891
 3752TIP3    H211221   4.701   3.970   4.896  0.9160 -0.9583 -2.0012
 3753TIP3   OH211222   1.745   4.385   4.779 -0.4155 -0.0821  0.2864
 3753TIP3    H111223   1.661   4.409   4.817 -0.4238 -2.0747  1.6528
 3753TIP3    H211224   1.807   4.389   4.852  0.6379  0.9357 -0.6129
 3754TIP3   OH211225   3.042   4.739   3.561 -1.1046 -0.7542  0.0418
 3754TIP3    H111226   3.128   4.740   3.519 -0.1362 -0.6529  1.9049
 3754TIP3    H211227   2.984   4.701   3.495  0.2820 -0.4939 -1.4011
 3755TIP3   OH211228   2.156   5.302   3.834  0.4490 -0.2586  0.0697
 3755TIP3    H111229   2.092   5.312   3.905  0.6041  0.0905  0.1623
 3755TIP3    H211230   2.233   5.263   3.876  0.1098 -1.2092 -0.1483
 3756TIP3   OH211231   4.377   6.302   5.179 -0.0816 -0.1339  0.1380
 3756TIP3    H111232   4.393   6.360   5.105  0.6391 -2.2365 -1.4720
 3756TIP3    H211233   4.425   6.341   5.251  1.1447  0.7918 -1.1237
 3757TIP3   OH211234   2.478   2.301   0.439  0.1912  0.2105 -0.3471
 3757TIP3    H111235   2.498   2.340   0.524  0.5230 -0.5621 -0.0647
 3757TIP3    H211236   2.391   2.335   0.417 -0.4529 -0.5664  0.8973
 3758TIP3   OH211237   6.827   2.405   5.799 -0.3388 -0.1706 -0.0534
 3758TIP3    H111238   6.896   2.377   5.860 -0.8847  0.3654  0.8290
 3758TIP3    H211239   6.773   2.326   5.788  0.3112 -0.5423 -0.6099
 3759TIP3   OH211240   0.983   3.451   3.281  0.3769 -0.0627 -0.1553
 3759TIP3    H111241   0.905   3.406   3.317  0.7207 -1.3029 -0.8869
 3759TIP3    H211242   0.961   3.544   3.286 -0.0440 -0.2146  2.2153
 3760TIP3   OH211243   3.992   2.576   2.178 -0.0385  0.1790 -0.0348
 3760TIP3    H111244   4.011   2.486   2.205  0.1670 -0.1320 -1.1628
 3760TIP3    H211245   4.022   2.581   2.088 -0.7599  1.1616 -0.2401
 3761TIP3   OH211246   0.920   6.051   0.262 -0.2506  0.1521  0.1131
 3761TIP3    H111247   0.840   6.080   0.217 -0.5847  0.6815  1.0299
 3761TIP3    H211248   0.917   5.955   0.255 -1.4689  0.0995  0.9243
 3762TIP3   OH211249   0.555   0.076   0.451  0.0036 -0.3391  0.4730
 3762TIP3    H111250   0.522  -0.013   0.455 -0.0505 -0.3249  0.3541
 3762TIP3    H211251   0.645   0.070   0.483  0.4341 -0.6567 -0.7269
 3763TIP3   OH211252   5.653   3.140   5.243 -0.1310 -0.3600 -0.3940
 3763TIP3    H111253   5.635   3.063   5.296  0.9425  1.1660  2.3744
 3763TIP3    H211254   5.567   3.170   5.213 -0.8202 -1.0374  0.8373
 3764TIP3   OH211255   0.213   3.327   1.017 -0.0387  0.1169 -0.1035
 3764TIP3    H111256   0.182   3.398   0.960  0.2610  0.1913 -0.1756
 3764TIP3    H211257   0.180   3.349   1.104  0.6186  0.7032  0.0088
 3765TIP3   OH211258   5.007   0.035   4.893  0.2753  0.9593  0.2261
 3765TIP3    H111259   4.980   0.024   4.984 -3.1152  2.4039 -0.4742
 3765TIP3    H211260   4.940  -0.008   4.842  0.8881  2.1016 -1.6578
 3766TIP3   OH211261   6.917   3.557   2.948  0.5422 -0.3263 -0.2518
 3766TIP3    H111262   6.832   3.601   2.942  0.8346  0.4836  1.0219
 3766TIP3    H211263   6.932   3.521   2.861  0.1565  1.9139 -1.3137
 3767TIP3   OH211264   6.081   3.217   2.231 -0.3659 -0.3301  0.1572
 3767TIP3    H111265   6.109   3.258   2.312 -0.4617 -0.9185  0.4945
 3767TIP3    H211266   5.985   3.212   2.238 -0.3874 -0.2571 -0.0555
 3768TIP3   OH211267   5.828   4.980   5.056 -0.6059 -0.0075 -0.0683
 3768TIP3    H111268   5.747   4.982   5.107  0.3389  2.3106  1.4709
 3768TIP3    H211269   5.805   5.022   4.973 -1.0030  0.4987  0.2981
 3769TIP3   OH211270   6.291   3.482   3.636 -0.3800 -0.1318  0.3752
 3769TIP3    H111271   6.313   3.479   3.543 -0.3086  0.9557  0.3535
 3769TIP3    H211272   6.257   3.570   3.651 -0.1747 -0.2180  1.4329
 3770TIP3   OH211273   0.619   0.793   5.735  0.0282 -0.6834  0.3006
 3770TIP3    H111274   0.542   0.737   5.726 -0.8911  0.6897 -1.0170
 3770TIP3    H211275   0.616   0.850   5.657  1.3975  0.5823  1.1177
 3771TIP3   OH211276   2.800   0.877   5.229  0.0763 -0.1559 -0.1292
 3771TIP3    H111277   2.855   0.840   5.161  3.6182  1.4832  1.6130
 3771TIP3    H211278   2.785   0.967   5.201  1.4723  0.4976  1.1500
 3772TIP3   OH211279   6.033   1.679   1.540  0.1523 -0.0559 -0.4814
 3772TIP3    H111280   6.008   1.612   1.604 -2.3251  1.0853 -0.1388
 3772TIP3    H211281   6.094   1.736   1.588  0.7223 -0.9088 -0.1534
 3773TIP3   OH211282   6.196   4.346   2.989  0.9684 -0.1473 -0.1927
 3773TIP3    H111283   6.197   4.259   3.028 -1.2373 -0.6420 -1.0846
 3773TIP3    H211284   6.285   4.358   2.955  1.1535 -2.3136 -0.6091
 3774TIP3   OH211285   2.189   2.832   0.045 -0.3472 -0.0449  0.3948
 3774TIP3    H111286   2.192   2.920   0.008  1.0607 -0.0401  0.4420
 3774TIP3    H211287   2.150   2.778  -0.024 -0.2238  0.4342 -0.0595
 3775TIP3   OH211288   6.997   0.678   3.005  0.2386  0.2236  0.0823
 3775TIP3    H111289   6.970   0.765   3.036  1.0021  1.0510 -1.4579
 3775TIP3    H211290   7.015   0.690   2.911  0.2598 -1.6285 -0.1984
 3776TIP3   OH211291   0.311   2.369   0.279 -0.4041  0.0867  0.1871
 3776TIP3    H111292   0.259   2.289   0.289 -1.8444  1.0724  0.9929
 3776TIP3    H211293   0.361   2.356   0.198  0.3112 -2.0970  0.9125
 3777TIP3   OH211294   5.263   3.336   3.647  0.0017 -0.1752 -0.4216
 3777TIP3    H111295   5.182   3.365   3.687  0.5354  0.4675  0.2212
 3777TIP3    H211296   5.268   3.384   3.564  1.0136  1.8636  0.7579
 3778TIP3   OH211297   1.226   0.168   3.865 -0.5288 -0.2619 -0.4771
 3778TIP3    H111298   1.275   0.086   3.855 -0.1265 -0.0377 -0.3675
 3778TIP3    H211299   1.289   0.237   3.840 -1.2051 -0.0520 -1.6634
 3779TIP3   OH211300   3.458   0.090   2.176  0.2026  0.3275 -0.0346
 3779TIP3    H111301   3.440   0.183   2.190  0.1440  0.1229  1.4018
 3779TIP3    H211302   3.541   0.073   2.221  0.0232 -0.3875  0.0519
 3780TIP3   OH211303   5.395   4.064   4.228 -0.0919 -0.2942 -0.1857
 3780TIP3    H111304   5.345   4.019   4.296  0.5961  1.0259  1.2371
 3780TIP3    H211305   5.332   4.124   4.187  0.0841  0.7611  1.0382
 3781TIP3   OH211306   0.615   1.857   5.785  0.6988  0.0705 -0.0188
 3781TIP3    H111307   0.622   1.800   5.861  1.1775 -0.8317 -0.7262
 3781TIP3    H211308   0.682   1.924   5.799  1.7889 -0.9263 -0.3373
 3782TIP3   OH211309   6.747   1.968   0.888 -0.3031 -0.1074  0.0823
 3782TIP3    H111310   6.680   2.031   0.861 -0.6899 -0.2356  0.7061
 3782TIP3    H211311   6.827   2.020   0.897 -0.3056  0.0416 -0.7008
 3783TIP3   OH211312   4.186   0.935   4.482 -0.1943 -0.1766  0.0378
 3783TIP3    H111313   4.188   0.848   4.520 -0.5008  0.2621  1.1011
 3783TIP3    H211314   4.199   0.921   4.388 -1.6762 -1.4851 -0.0144
 3784TIP3   OH211315   6.559   0.537   4.117  0.6282 -0.1833  0.4921
 3784TIP3    H111316   6.505   0.521   4.039  1.1642  0.1059  0.0556
 3784TIP3    H211317   6.641   0.573   4.083  0.8549 -0.0116  1.1950
 3785TIP3   OH211318   3.266   3.718   0.234 -0.1578 -0.1786  0.2484
 3785TIP3    H111319   3.206   3.645   0.223 -0.0125 -0.0257 -2.0890
 3785TIP3    H211320   3.238   3.783   0.169  1.1687  0.8290  0.6221
 3786TIP3   OH211321   2.929   4.401   2.338  0.2731  0.4649 -0.2296
 3786TIP3    H111322   2.971   4.319   2.313  0.8240  1.0205 -1.1769
 3786TIP3    H211323   2.922   4.450   2.257 -3.0054  0.0844 -0.3341
 3787TIP3   OH211324   4.014   4.088   4.652  0.5172  0.2644 -0.0087
 3787TIP3    H111325   4.011   4.171   4.699 -2.2778 -0.3319  1.0411
 3787TIP3    H211326   4.058   4.027   4.712 -1.2738 -0.0119  1.0789
 3788TIP3   OH211327   3.121   5.310   0.796  0.8292  0.8671 -0.3024
 3788TIP3    H111328   3.198   5.310   0.852 -0.9102  1.2935  2.2364
 3788TIP3    H211329   3.071   5.233   0.824 -0.9815  2.1285  0.0963
 3789TIP3   OH211330   3.635   6.740   5.410 -0.2905  0.2866 -0.1324
 3789TIP3    H111331   3.723   6.741   5.372  0.5236 -0.1227  1.6443
 3789TIP3    H211332   3.650   6.731   5.504 -2.2366  0.6700  0.2465
 3790TIP3   OH211333   3.969   5.259   0.565 -0.2932  0.3595 -0.0789
 3790TIP3    H111334   4.037   5.295   0.622 -0.3367  1.5002 -0.7127
 3790TIP3    H211335   3.981   5.164   0.569  1.6160  0.5412 -0.5283
 3791TIP3   OH211336   3.126   1.222   1.209 -0.0936 -0.2667 -0.3777
 3791TIP3    H111337   3.148   1.166   1.283  1.2265  1.0777  0.3045
 3791TIP3    H211338   3.060   1.173   1.160 -1.6664 -0.8330  2.1363
 3792TIP3   OH211339   5.631   0.660   0.792  0.8239 -0.0313  0.1563
 3792TIP3    H111340   5.547   0.666   0.747  2.0306 -0.9900 -2.4275
 3792TIP3    H211341   5.628   0.729   0.857 -1.5376  0.6651 -0.5783
 3793TIP3   OH211342   6.057   0.794   5.096 -0.0419  0.0775 -0.0767
 3793TIP3    H111343   5.982   0.812   5.039 -1.4767 -0.2744  1.5807
 3793TIP3    H211344   6.121   0.861   5.074 -0.8036  0.3580 -1.6048
 3794TIP3   OH211345   3.487   2.895   3.849 -0.4204  0.4016 -0.0063
 3794TIP3    H111346   3.410   2.919   3.798 -2.3527  0.0274  2.5221
 3794TIP3    H211347   3.481   2.947   3.929  1.3209 -0.4833  0.7706
 3795TIP3   OH211348   6.211   4.026   5.293  0.4854 -0.1746  0.6597
 3795TIP3    H111349   6.201   3.943   5.339 -1.2089 -0.6124 -0.4136
 3795TIP3    H211350   6.188   4.007   5.202 -1.7337  1.7599  0.7036
 3796TIP3   OH211351   5.525   3.742   3.360  0.5725 -0.1033 -0.2479
 3796TIP3    H111352   5.499   3.655   3.390 -0.1545  0.0232 -0.4805
 3796TIP3    H211353   5.610   3.729   3.318  1.7704 -0.2517  2.0419
 3797TIP3   OH211354   6.256   1.964   0.344  0.2951  0.3005 -0.4473
 3797TIP3    H111355   6.248   1.976   0.439  1.5501 -2.4884  0.1034
 3797TIP3    H211356   6.194   2.027   0.307 -1.6903  0.1426  2.2924
 3798TIP3   OH211357   1.046   6.235   2.486 -0.6758  0.4505  0.1151
 3798TIP3    H111358   0.985   6.165   2.463 -1.1521  0.4299  1.3672
 3798TIP3    H211359   0.991   6.302   2.526  0.1226  0.3907  1.3665
 3799TIP3   OH211360   4.813   4.864   1.498  0.4358 -0.3396 -0.8966
 3799TIP3    H111361   4.823   4.959   1.507  1.1665 -0.5805  2.1646
 3799TIP3    H211362   4.719   4.851   1.485 -0.4767  0.7620  3.1584
 3800TIP3   OH211363   5.052   0.961   1.828  0.0260 -0.2973  0.0034
 3800TIP3    H111364   5.041   1.054   1.847  1.5381  0.0049 -0.4846
 3800TIP3    H211365   5.017   0.950   1.739 -1.5382 -0.5280  0.6103
 3801TIP3   OH211366   6.047   6.152   4.152 -0.3481 -0.6638  0.2867
 3801TIP3    H111367   5.993   6.231   4.159  0.6542 -0.0097  0.9329
 3801TIP3    H211368   6.055   6.136   4.058  0.8501  1.0411  0.0486
 3802TIP3   OH211369   4.251   4.671   2.325  0.4333 -0.7930 -0.1659
 3802TIP3    H111370   4.296   4.605   2.379 -0.4375 -1.5379 -0.3318
 3802TIP3    H211371   4.311   4.745   2.324 -0.2284 -0.0483  3.2827
 3803TIP3   OH211372   3.889   3.530   2.075  0.4886  0.2172 -0.1275
 3803TIP3    H111373   3.861   3.617   2.106  3.3299  1.0673  0.3031
 3803TIP3    H211374   3.823   3.471   2.110 -1.9713  2.2129 -1.0481
 3804TIP3   OH211375   1.999   2.668   0.493 -0.1778 -0.0254  0.2469
 3804TIP3    H111376   1.907   2.694   0.506  0.0387  0.2474  1.3505
 3804TIP3    H211377   1.994   2.576   0.467 -0.8224  0.3678 -1.1479
 3805TIP3   OH211378   2.582   0.802   0.489 -0.0535  0.4317 -0.2127
 3805TIP3    H111379   2.636   0.861   0.541  0.9063 -0.2935 -0.3539
 3805TIP3    H211380   2.516   0.858   0.449 -0.3872  1.0970  1.2280
 3806TIP3   OH211381   5.212   3.221   5.580  0.0404  0.5233  0.4426
 3806TIP3    H111382   5.181   3.212   5.670 -0.7146  0.5244  0.1925
 3806TIP3    H211383   5.297   3.264   5.588  0.3966 -0.3027  1.2014
 3807TIP3   OH211384   0.679   6.673   0.397 -0.0969  0.0107 -0.5497
 3807TIP3    H111385   0.617   6.651   0.328 -0.5293 -0.5946  0.0217
 3807TIP3    H211386   0.677   6.598   0.456  1.1527 -0.0046 -0.4974
 3808TIP3   OH211387   2.706   2.458   3.626  0.1001  0.2424 -0.9315
 3808TIP3    H111388   2.632   2.518   3.621 -1.8718 -2.0811 -1.6166
 3808TIP3    H211389   2.719   2.427   3.536 -1.3233 -2.9237 -0.1831
 3809TIP3   OH211390   2.964   6.159   0.989  0.3619 -0.4719 -0.2296
 3809TIP3    H111391   2.871   6.175   1.001  0.2786 -1.6978  0.8460
 3809TIP3    H211392   2.969   6.080   0.935  0.7827 -0.3228 -0.4187
 3810TIP3   OH211393   4.355   0.097   0.009  0.1137 -0.2649 -0.1068
 3810TIP3    H111394   4.443   0.134  -0.006 -0.6798  2.1913  0.8005
 3810TIP3    H211395   4.361   0.057   0.096 -0.3836  2.6974  1.4241
 3811TIP3   OH211396   0.490   3.508   5.536 -0.4703  0.2752  0.3594
 3811TIP3    H111397   0.495   3.494   5.630  1.7781  0.3507  0.2855
 3811TIP3    H211398   0.577   3.489   5.503 -0.7041  1.9970 -1.4690
 3812TIP3   OH211399   0.428   4.329   2.732 -0.3274  0.2171  0.3573
 3812TIP3    H111400   0.370   4.305   2.804 -1.2773  1.1654 -0.0652
 3812TIP3    H211401   0.498   4.381   2.773 -0.6050  0.3504  0.6587
 3813TIP3   OH211402   2.412   1.318   3.959 -0.5851  0.3268  0.2436
 3813TIP3    H111403   2.436   1.392   3.903  0.1317  0.3552  0.5870
 3813TIP3    H211404   2.376   1.254   3.899  1.8795 -0.4101 -0.5576
 3814TIP3   OH211405   1.081   1.074   1.431  0.2397  0.1997 -0.4779
 3814TIP3    H111406   0.999   1.119   1.408 -0.3171 -0.9759 -0.9028
 3814TIP3    H211407   1.058   0.981   1.428  0.9790 -0.1080  1.7250
 3815TIP3   OH211408   6.822   2.378   2.859 -0.6755  0.7947 -0.4127
 3815TIP3    H111409   6.784   2.396   2.945 -1.6878  1.1482 -0.9163
 3815TIP3    H211410   6.916   2.382   2.873 -0.8243  0.6395  0.7239
 3816TIP3   OH211411   6.617   1.906   1.168 -0.0258  0.3621 -0.2578
 3816TIP3    H111412   6.656   1.972   1.226  1.6429 -1.0483  0.3347
 3816TIP3    H211413   6.610   1.949   1.083  0.3299  1.5355  0.2902
 3817TIP3   OH211414   4.072   5.136   4.404  0.1413 -0.5324  0.2140
 3817TIP3    H111415   4.096   5.224   4.429 -1.9982 -0.6031  3.0448
 3817TIP3    H211416   4.002   5.147   4.339  1.0063 -0.2217 -0.6846
 3818TIP3   OH211417   3.561   4.428   4.633 -0.1273 -0.4055  0.1343
 3818TIP3    H111418   3.524   4.346   4.668  1.1313 -1.8096 -1.6734
 3818TIP3    H211419   3.656   4.414   4.635  0.1255  1.1939  0.1748
 3819TIP3   OH211420   4.566   1.527   4.752 -0.2374 -0.1641 -0.2685
 3819TIP3    H111421   4.549   1.517   4.846 -0.9751  2.8091  0.0235
 3819TIP3    H211422   4.647   1.578   4.748  0.3967 -1.2248 -1.3105
 3820TIP3   OH211423   4.577   2.972   0.346  0.7651 -0.4713  0.2519
 3820TIP3    H111424   4.608   2.944   0.433  0.4241  0.3970  0.6633
 3820TIP3    H211425   4.654   3.011   0.305  1.5007 -2.7514 -0.6923
 3821TIP3   OH211426   5.921   4.564   3.467 -0.5145  0.4343 -0.2383
 3821TIP3    H111427   5.920   4.592   3.376 -1.6742  0.6477 -0.1724
 3821TIP3    H211428   5.832   4.578   3.498 -0.3801 -0.5230  0.6594
 3822TIP3   OH211429   6.997   3.727   4.936  0.0007  0.1997 -0.0688
 3822TIP3    H111430   6.970   3.784   4.864 -1.1607  1.4408  1.2704
 3822TIP3    H211431   7.091   3.743   4.946 -0.2232  1.5908 -0.0031
 3823TIP3   OH211432   4.114   4.535   4.074 -0.2937  0.4027  0.6221
 3823TIP3    H111433   4.105   4.607   4.011 -1.7808 -0.7745 -0.5797
 3823TIP3    H211434   4.081   4.458   4.027 -0.1798 -0.7707  2.3942
 3824TIP3   OH211435   4.585   5.768   2.363  0.2703 -0.4498 -0.0696
 3824TIP3    H111436   4.594   5.790   2.455  0.1484  2.1768 -0.5954
 3824TIP3    H211437   4.504   5.718   2.358  0.7214 -1.3603  1.3245
 3825TIP3   OH211438   4.924   3.826   1.461 -0.6861 -0.0149  0.3715
 3825TIP3    H111439   4.871   3.748   1.441 -0.5780 -0.4091  1.5770
 3825TIP3    H211440   4.979   3.837   1.383  0.1254 -1.8489  0.6290
 3826TIP3   OH211441   4.480   2.463   0.616  0.2646  0.1428  0.2205
 3826TIP3    H111442   4.523   2.378   0.609  0.7104  0.4200 -0.6396
 3826TIP3    H211443   4.517   2.514   0.543 -0.8572  0.6836  0.0163
 3827TIP3   OH211444   3.561   2.048   1.623  0.0528 -0.1105 -0.0908
 3827TIP3    H111445   3.478   2.096   1.627 -0.5415 -1.1675  1.3408
 3827TIP3    H211446   3.599   2.072   1.539 -1.0203  1.5146 -0.1550
 3828TIP3   OH211447   2.194   0.080   4.925  0.0922  0.3084 -0.2338
 3828TIP3    H111448   2.177   0.137   5.000 -0.9230  0.9723 -0.9360
 3828TIP3    H211449   2.111   0.079   4.877 -1.0956 -4.2955  1.3601
 3829TIP3   OH211450   5.071   3.356   0.231 -0.0945  0.7078 -0.4473
 3829TIP3    H111451   5.055   3.446   0.204  0.7582  0.8623 -0.4615
 3829TIP3    H211452   5.038   3.350   0.320  1.3462  1.5090  0.1717
 3830TIP3   OH211453   3.530   1.628   2.999 -0.2285 -0.3899 -0.2528
 3830TIP3    H111454   3.532   1.670   2.912 -0.0419  1.3317  0.5337
 3830TIP3    H211455   3.596   1.675   3.049 -1.7373  0.0331  1.4127
 3831TIP3   OH211456   2.957   2.626   2.082  0.8648  0.0063  0.0500
 3831TIP3    H111457   2.870   2.588   2.098  1.4399 -1.8219 -0.8118
 3831TIP3    H211458   3.016   2.570   2.132  1.5280  1.6326  1.1589
 3832TIP3   OH211459   5.138   0.731   4.099 -0.2739  0.0878  0.3317
 3832TIP3    H111460   5.133   0.636   4.094  1.1106  0.0364 -0.4797
 3832TIP3    H211461   5.069   0.761   4.040 -0.0348 -0.4283 -0.2239
 3833TIP3   OH211462   3.381   3.880   5.457  0.1922 -0.2055 -0.1627
 3833TIP3    H111463   3.425   3.841   5.382 -0.4899  1.2485 -1.3632
 3833TIP3    H211464   3.288   3.860   5.443  0.1777 -1.0112  0.9744
 3834TIP3   OH211465   1.528   4.600   4.786 -0.4907  0.0339  0.1253
 3834TIP3    H111466   1.549   4.644   4.704  0.6213  0.8930  0.8421
 3834TIP3    H211467   1.433   4.613   4.796 -0.5654  0.2720 -0.8183
 3835TIP3   OH211468   2.276   2.917   1.261  0.3433  0.2753  0.1587
 3835TIP3    H111469   2.196   2.930   1.313  0.2384 -0.0700  0.0872
 3835TIP3    H211470   2.248   2.860   1.189 -0.1111  2.6833 -1.6953
 3836TIP3   OH211471   6.021   3.266   4.270  0.5768  0.2832 -0.2286
 3836TIP3    H111472   5.951   3.202   4.254  0.1981  0.5176  0.4447
 3836TIP3    H211473   5.980   3.332   4.325  1.5763 -0.0593  0.9766
 3837TIP3   OH211474   0.232   2.088   5.532  0.7603 -0.5415 -0.9440
 3837TIP3    H111475   0.165   2.067   5.598 -0.0894 -0.9941 -1.9302
 3837TIP3    H211476   0.314   2.091   5.582  0.1964 -1.2566  0.0744
 3838TIP3   OH211477   2.719   1.268   4.479 -0.2027  0.3446  0.1681
 3838TIP3    H111478   2.766   1.204   4.427 -0.5377 -1.0838  1.5581
 3838TIP3    H211479   2.639   1.286   4.429  0.5199  0.7550 -0.8876
 3839TIP3   OH211480   0.226   3.820   2.735  0.3064 -0.2962 -0.7277
 3839TIP3    H111481   0.259   3.890   2.791 -0.5087 -0.5949  0.1551
 3839TIP3    H211482   0.280   3.744   2.759  0.2127 -0.3312 -0.6292
 3840TIP3   OH211483   7.061   4.912   5.763  0.5499 -0.1718 -0.5641
 3840TIP3    H111484   7.123   4.853   5.807 -0.0091 -0.3663 -0.0355
 3840TIP3    H211485   7.115   4.985   5.733  1.0588 -0.4012 -0.2182
 3841TIP3   OH211486   0.747   5.747   2.170 -0.0638  0.8138 -0.2272
 3841TIP3    H111487   0.768   5.660   2.139  0.3116  0.3709  1.1755
 3841TIP3    H211488   0.725   5.797   2.092  0.2044 -0.4017 -1.0918
 3842TIP3   OH211489   5.481   4.617   3.250  0.8912  0.3340  0.1181
 3842TIP3    H111490   5.405   4.559   3.250  0.5458  0.7629 -0.9582
 3842TIP3    H211491   5.556   4.558   3.244  0.4948 -0.0187 -2.6773
 3843TIP3   OH211492   0.615   2.660   2.567  0.3889  0.1951  0.4224
 3843TIP3    H111493   0.689   2.701   2.611 -0.4607  1.5139  0.6784
 3843TIP3    H211494   0.598   2.580   2.617 -0.1220  1.3148  2.1124
 3844TIP3   OH211495   6.070   6.727   4.549 -0.2628  0.0636 -0.0897
 3844TIP3    H111496   6.072   6.716   4.454 -1.4047  1.0821 -0.2603
 3844TIP3    H211497   6.018   6.654   4.581  0.7566 -0.7084 -0.1546
 3845TIP3   OH211498   6.716   0.306   0.325  0.2689 -0.0022 -0.3566
 3845TIP3    H111499   6.762   0.281   0.405  2.9930  0.0598 -1.7772
 3845TIP3    H211500   6.786   0.317   0.260 -1.5786  2.3804 -2.1255
 3846TIP3   OH211501   0.468   0.345   4.078  0.5616  0.3916  0.2406
 3846TIP3    H111502   0.468   0.380   3.989  1.2200  0.3438  0.2202
 3846TIP3    H211503   0.375   0.328   4.096  0.5283 -0.9441 -0.9669
 3847TIP3   OH211504   6.610   4.936   1.341  0.1593 -0.5666 -0.4713
 3847TIP3    H111505   6.546   4.959   1.274 -1.9705 -1.4708  1.1751
 3847TIP3    H211506   6.641   5.021   1.374 -0.9814 -0.0964 -0.5624
 3848TIP3   OH211507   2.750   5.200   0.596  0.4795  0.0258 -0.1349
 3848TIP3    H111508   2.787   5.241   0.674  2.3249 -0.5123 -0.6734
 3848TIP3    H211509   2.691   5.133   0.631  2.7164 -1.5331  0.9301
 3849TIP3   OH211510   3.152   3.069   5.377 -0.1088  0.4927 -0.0547
 3849TIP3    H111511   3.129   3.087   5.468 -1.7908  1.0287 -0.5531
 3849TIP3    H211512   3.215   2.997   5.382  0.5908  1.1696  1.5596
 3850TIP3   OH211513   2.346   3.182   0.127  0.3959 -0.9710  0.4095
 3850TIP3    H111514   2.294   3.185   0.207  0.2046  1.1420  0.2638
 3850TIP3    H211515   2.286   3.149   0.061 -0.3153 -0.0446  0.5723
 3851TIP3   OH211516   5.587   1.258   2.641 -0.3756  0.5606  0.0914
 3851TIP3    H111517   5.613   1.219   2.558  0.0503 -1.1658  0.9852
 3851TIP3    H211518   5.654   1.324   2.659  0.4772 -0.2279 -0.1436
 3852TIP3   OH211519   3.886   1.922   3.622 -0.0028 -0.1931  0.1507
 3852TIP3    H111520   3.813   1.867   3.649  0.4220 -0.5280  0.6350
 3852TIP3    H211521   3.868   1.943   3.530  0.4008 -2.1121 -0.4202
 3853TIP3   OH211522   4.546   3.066   4.921  0.2590 -0.3215 -0.4116
 3853TIP3    H111523   4.480   3.022   4.868  0.6268 -0.3909 -0.8195
 3853TIP3    H211524   4.594   2.995   4.963  0.2651 -0.2817 -0.3524
 3854TIP3   OH211525   5.906   0.239   3.361  0.3920 -0.6244  0.6380
 3854TIP3    H111526   5.829   0.295   3.371  0.0689 -0.9417  0.0057
 3854TIP3    H211527   5.980   0.299   3.352  0.0403 -0.2985 -0.0863
 3855TIP3   OH211528   1.901   3.351   3.679  0.1667 -0.2822 -0.1420
 3855TIP3    H111529   1.951   3.433   3.680 -1.5605  0.8344  1.5186
 3855TIP3    H211530   1.848   3.354   3.758  0.7142 -3.5080  0.5098
 3856TIP3   OH211531   4.007   0.740   5.753  0.1515 -0.4682  0.5283
 3856TIP3    H111532   3.978   0.651   5.734  0.8635 -0.3544 -1.2069
 3856TIP3    H211533   3.934   0.795   5.726  0.3404 -0.4317  0.0911
 3857TIP3   OH211534   6.938   6.304   2.590  0.4860 -0.1808 -0.0293
 3857TIP3    H111535   6.927   6.380   2.647 -0.3988 -0.6487  0.4493
 3857TIP3    H211536   7.029   6.277   2.603  1.2968  1.6900 -1.3783
 3858TIP3   OH211537   6.513   3.237   1.886  0.0989  0.4244  0.5293
 3858TIP3    H111538   6.433   3.186   1.872 -0.0073  0.7183  0.0640
 3858TIP3    H211539   6.578   3.172   1.914 -0.2206  0.1422  0.6295
 3859TIP3   OH211540   3.165   2.650   4.820 -0.1326 -0.5719  0.7511
 3859TIP3    H111541   3.100   2.627   4.886  0.5485 -1.9922  0.9747
 3859TIP3    H211542   3.249   2.643   4.866  0.2814 -0.5000  0.0214
 3860TIP3   OH211543   0.604   1.059   0.788 -0.3248  0.1367  0.0328
 3860TIP3    H111544   0.593   1.049   0.694  0.1869 -0.0620 -0.0093
 3860TIP3    H211545   0.652   0.981   0.815  0.6323  0.7974  0.2627
 3861TIP3   OH211546   3.563   1.346   3.049  0.7811  0.1983 -0.0816
 3861TIP3    H111547   3.520   1.311   2.971  2.1209  1.2816 -1.3860
 3861TIP3    H211548   3.572   1.440   3.031  3.0847  0.1318  0.3264
 3862TIP3   OH211549   1.582   5.134   5.390  0.7868 -0.0840 -0.3238
 3862TIP3    H111550   1.542   5.221   5.386  0.8974 -0.0532 -0.9808
 3862TIP3    H211551   1.644   5.134   5.317  2.4384  0.0818  1.0497
 3863TIP3   OH211552   3.247   6.482   0.598 -0.2907  0.1466  0.3109
 3863TIP3    H111553   3.280   6.553   0.542 -2.0152 -0.6178 -1.8363
 3863TIP3    H211554   3.167   6.518   0.638 -0.4458 -0.1421  0.2611
 3864TIP3   OH211555   1.868   6.045   2.570  0.0430  0.7950  0.0725
 3864TIP3    H111556   1.787   6.081   2.533  1.2452  0.6042 -3.0410
 3864TIP3    H211557   1.937   6.105   2.540  1.3686 -0.6468  0.0893
 3865TIP3   OH211558   1.942   3.717   2.593 -0.5434  0.6815  0.1430
 3865TIP3    H111559   1.875   3.718   2.661 -0.5014  1.1492  0.1785
 3865TIP3    H211560   2.024   3.702   2.640 -0.6736 -0.3797  0.0503
 3866TIP3   OH211561   6.300   6.699   5.405  0.4404  0.4749  0.9059
 3866TIP3    H111562   6.210   6.730   5.418  0.1647  0.2313 -0.3570
 3866TIP3    H211563   6.323   6.658   5.489 -1.5913 -1.8289  0.4368
 3867TIP3   OH211564   1.779   6.497   4.116  0.4164  0.0341  0.4364
 3867TIP3    H111565   1.766   6.420   4.172  3.2000 -0.7998  0.0728
 3867TIP3    H211566   1.734   6.567   4.161 -1.0953 -1.5113  1.4670
 3868TIP3   OH211567   7.224   1.398   1.537 -0.2728  0.1545  0.3915
 3868TIP3    H111568   7.142   1.444   1.518 -0.1577  0.6510  1.0614
 3868TIP3    H211569   7.243   1.419   1.628 -0.8940 -2.2804  1.1456
 3869TIP3   OH211570   4.426   5.347   0.379  0.6272 -0.4597 -0.0373
 3869TIP3    H111571   4.516   5.316   0.390  0.7471  0.0336  0.4151
 3869TIP3    H211572   4.372   5.279   0.419  0.8628 -0.2861  0.5902
 3870TIP3   OH211573   2.765   3.298   5.732  0.0736  0.2346  0.0497
 3870TIP3    H111574   2.751   3.217   5.782 -0.3410  0.4268  0.2500
 3870TIP3    H211575   2.812   3.356   5.792  0.6625  0.0259 -0.2070
 3871TIP3   OH211576   1.599   3.851   4.493  0.0258 -0.2616  0.1301
 3871TIP3    H111577   1.605   3.947   4.499 -2.4583  0.3419 -3.4208
 3871TIP3    H211578   1.506   3.832   4.507  0.6390 -2.3747  1.8762
 3872TIP3   OH211579   2.165   0.689   3.856 -0.1007  0.4895 -0.0829
 3872TIP3    H111580   2.090   0.632   3.873  1.5238 -1.6962  0.2061
 3872TIP3    H211581   2.187   0.726   3.941 -0.3043  0.3976  0.0097
 3873TIP3   OH211582   0.812   2.929   0.482 -0.5062  0.6239  0.2680
 3873TIP3    H111583   0.849   2.841   0.492 -2.1118  0.0374  1.5327
 3873TIP3    H211584   0.850   2.980   0.553 -0.1979  0.7213  0.0324
 3874TIP3   OH211585   7.208   1.954   3.653 -0.2298  0.0597  0.1841
 3874TIP3    H111586   7.215   1.982   3.744 -1.1877 -0.2861  0.3771
 3874TIP3    H211587   7.166   1.868   3.657  0.6765 -0.4393 -0.5255
 3875TIP3   OH211588   2.278   4.771   3.612 -0.2238  0.4263 -0.3502
 3875TIP3    H111589   2.188   4.740   3.622 -0.1399 -0.0705 -1.0685
 3875TIP3    H211590   2.327   4.721   3.677 -0.0022 -1.3900 -1.8424
 3876TIP3   OH211591   0.034   6.323   0.876  0.0219 -0.3592  0.1513
 3876TIP3    H111592   0.012   6.308   0.784  1.1542 -0.1355 -0.1680
 3876TIP3    H211593   0.034   6.419   0.886  0.6954 -0.3567  0.1743
 3877TIP3   OH211594   1.244   2.928   2.057  0.5675 -0.3169  0.0253
 3877TIP3    H111595   1.261   2.969   1.973 -1.0210 -0.4871 -0.4192
 3877TIP3    H211596   1.307   2.967   2.117 -0.0232  1.7827 -0.6601
 3878TIP3   OH211597   0.281   5.962   2.520 -0.3153 -0.5481  0.0580
 3878TIP3    H111598   0.209   5.948   2.581 -0.8873 -1.2684 -0.7523
 3878TIP3    H211599   0.312   6.050   2.539 -1.7401 -0.0336  0.0975
 3879TIP3   OH211600   3.677   3.093   3.190  0.4348 -0.4052  0.0789
 3879TIP3    H111601   3.613   3.035   3.232  1.2801 -1.0582  0.5015
 3879TIP3    H211602   3.627   3.141   3.124 -0.5708 -0.6009  0.6801
 3880TIP3   OH211603   6.792   2.441   0.345 -0.5883 -0.3859  0.7900
 3880TIP3    H111604   6.734   2.498   0.396 -1.1389  0.1293 -0.3741
 3880TIP3    H211605   6.832   2.500   0.281  2.1256 -0.4697  2.2449
 3881TIP3   OH211606   4.818   0.253   2.316  0.5019 -0.4076  0.1161
 3881TIP3    H111607   4.860   0.251   2.230  1.4688  0.1675  0.5572
 3881TIP3    H211608   4.886   0.224   2.376  0.4412  1.0354  0.9203
 3882TIP3   OH211609   4.486   0.921   1.550 -0.0162  0.1968 -0.2786
 3882TIP3    H111610   4.427   0.983   1.508 -3.3291 -3.0344 -0.8999
 3882TIP3    H211611   4.531   0.877   1.478 -0.3755 -0.5028 -0.0896
 3883TIP3   OH211612   6.718   2.307   4.613 -0.8250 -0.2190  0.1417
 3883TIP3    H111613   6.710   2.219   4.577 -3.8964 -0.4961  1.2240
 3883TIP3    H211614   6.791   2.302   4.675 -0.7179 -1.8900 -0.0931
 3884TIP3   OH211615   2.139   3.615   2.989  0.4439  0.8066  0.0610
 3884TIP3    H111616   2.099   3.695   3.024 -1.5687  0.3946 -1.1234
 3884TIP3    H211617   2.196   3.584   3.060 -0.1422  2.2900  1.2467
 3885TIP3   OH211618   1.837   4.529   2.125  0.3455  0.3442  0.0221
 3885TIP3    H111619   1.762   4.499   2.075 -0.1939 -1.0782  1.5927
 3885TIP3    H211620   1.899   4.455   2.122  0.7242  0.6317  0.6033
 3886TIP3   OH211621   5.517   1.766   1.967 -0.5927 -0.4093 -0.0815
 3886TIP3    H111622   5.588   1.830   1.975 -1.7990  0.8009  1.8651
 3886TIP3    H211623   5.466   1.797   1.892 -1.5340  1.3739  1.2309
 3887TIP3   OH211624   4.249   0.169   3.588  0.1760 -0.1068 -0.4220
 3887TIP3    H111625   4.217   0.227   3.656  1.9871 -0.3953  0.7495
 3887TIP3    H211626   4.194   0.188   3.512 -1.0889  1.1035  0.7399
 3888TIP3   OH211627   6.315   5.632   0.682 -0.1175  0.4108  0.1001
 3888TIP3    H111628   6.341   5.630   0.590  0.3480  1.4545  0.1926
 3888TIP3    H211629   6.387   5.678   0.726 -0.9612  1.1084  0.7659
 3889TIP3   OH211630   1.973   2.707   2.867 -0.4865  0.1349 -0.7864
 3889TIP3    H111631   1.996   2.793   2.902 -0.2338 -0.8592  1.6636
 3889TIP3    H211632   1.878   2.710   2.858 -0.5113  0.5704 -0.4428
 3890TIP3   OH211633   1.555   3.220   5.463 -0.2625 -0.0139 -0.1181
 3890TIP3    H111634   1.556   3.294   5.524 -0.1283  1.3116 -1.6392
 3890TIP3    H211635   1.535   3.260   5.378  2.0599 -1.4011 -1.4109
 3891TIP3   OH211636   4.903   5.485   5.553  0.1605 -0.1019  0.2451
 3891TIP3    H111637   4.820   5.453   5.589  0.7847 -1.0788  0.8826
 3891TIP3    H211638   4.920   5.565   5.602  0.9801 -1.3928  2.2251
 3892TIP3   OH211639   0.661   2.270   1.708  0.4978  0.1161  0.7278
 3892TIP3    H111640   0.641   2.221   1.628  1.6646 -0.7522  0.9376
 3892TIP3    H211641   0.695   2.354   1.677 -1.6195  0.8766  0.3621
 3893TIP3   OH211642   2.564   4.825   3.406  0.1231  0.7309  0.0707
 3893TIP3    H111643   2.575   4.840   3.312 -1.6742  1.4315 -0.0612
 3893TIP3    H211644   2.500   4.890   3.434  0.2620  0.2247  1.6987
 3894TIP3   OH211645   2.354   5.414   1.530 -0.2171  0.4325  0.1210
 3894TIP3    H111646   2.438   5.457   1.515 -0.2948  0.9422  1.0626
 3894TIP3    H211647   2.375   5.320   1.528  0.3554  0.5529  0.2613
 3895TIP3   OH211648   5.529   3.777   5.322 -0.3522  0.3013 -0.3648
 3895TIP3    H111649   5.465   3.802   5.388  0.3194  0.6176  0.1823
 3895TIP3    H211650   5.587   3.716   5.366  0.5871  1.1427 -0.4021
 3896TIP3   OH211651   4.318   1.247   4.200  0.1936 -0.1667 -0.0286
 3896TIP3    H111652   4.301   1.173   4.259  3.9045 -1.8196 -0.7380
 3896TIP3    H211653   4.323   1.323   4.258  0.9377 -1.2895  1.4744
 3897TIP3   OH211654   2.244   6.024   3.109 -0.0019 -0.0245 -0.2841
 3897TIP3    H111655   2.253   5.978   3.193 -0.4305 -2.6476 -1.5559
 3897TIP3    H211656   2.238   5.954   3.044 -0.9738  1.8926 -2.4044
 3898TIP3   OH211657   6.425   0.465   5.699 -0.6940 -0.0897 -0.3192
 3898TIP3    H111658   6.460   0.549   5.671 -2.3550  0.5893 -0.4992
 3898TIP3    H211659   6.355   0.488   5.760 -0.9878 -1.3571 -0.1542
 3899TIP3   OH211660   1.369   2.028   3.904  0.4918 -0.7652 -0.3185
 3899TIP3    H111661   1.288   2.049   3.949  1.2643  2.4411 -0.1394
 3899TIP3    H211662   1.432   2.012   3.974  0.9951  1.3166 -0.2068
 3900TIP3   OH211663   6.554   3.916   2.932 -0.0125  0.0671  0.6230
 3900TIP3    H111664   6.619   3.949   2.995  0.9085 -1.1754  0.3831
 3900TIP3    H211665   6.537   3.989   2.874  0.7189  0.6079  1.0725
 3901TIP3   OH211666   1.157   2.245   0.200  0.0494  0.4685 -0.5614
 3901TIP3    H111667   1.246   2.270   0.224 -0.1602 -0.5480  1.4622
 3901TIP3    H211668   1.108   2.327   0.202  0.6553  0.8321 -0.3622
 3902TIP3   OH211669   5.096   6.647   5.375 -0.0642  0.2066  0.3433
 3902TIP3    H111670   5.008   6.674   5.401  0.6229  1.7349  1.2349
 3902TIP3    H211671   5.134   6.726   5.334  0.6595 -0.6365 -0.6781
 3903TIP3   OH211672   0.834   3.545   4.349  0.3230 -0.0373  0.3223
 3903TIP3    H111673   0.827   3.520   4.257  1.3892 -0.3310  0.3130
 3903TIP3    H211674   0.749   3.585   4.369 -0.6960 -1.7811 -0.2406
 3904TIP3   OH211675   0.276   0.426   1.470  0.3381 -0.3888 -0.7210
 3904TIP3    H111676   0.359   0.459   1.438 -0.5307  2.1266 -0.5818
 3904TIP3    H211677   0.282   0.432   1.565  0.4103 -1.3215 -0.6604
 3905TIP3   OH211678   2.247   2.545   2.204 -0.3194  0.4582 -0.0145
 3905TIP3    H111679   2.162   2.584   2.185 -0.1171  0.7290 -0.3646
 3905TIP3    H211680   2.240   2.455   2.173 -1.2640 -0.2494  2.0339
 3906TIP3   OH211681   6.146   4.221   1.493  0.2179  0.4905 -0.9506
 3906TIP3    H111682   6.240   4.229   1.475  0.5424 -0.9681 -0.0607
 3906TIP3    H211683   6.122   4.136   1.459 -0.8526  0.9420 -1.3541
 3907TIP3   OH211684   6.704   5.097   2.261 -0.4259  0.0575  0.0503
 3907TIP3    H111685   6.729   5.017   2.306  0.6228 -0.0577 -0.6961
 3907TIP3    H211686   6.608   5.093   2.256 -0.5387 -0.1238  1.8399
 3908TIP3   OH211687   2.187   5.629   4.651  0.6744 -0.6271  0.3605
 3908TIP3    H111688   2.268   5.582   4.669  0.7444 -0.5244  0.3143
 3908TIP3    H211689   2.135   5.569   4.598  0.6210 -0.7861  0.5933
 3909TIP3   OH211690   5.476   1.813   0.027 -0.1292 -0.3117  0.1514
 3909TIP3    H111691   5.471   1.764   0.109 -1.3950  0.1237  0.3413
 3909TIP3    H211692   5.446   1.901   0.049  2.9844  0.9150  0.0400
 3910TIP3   OH211693   6.344   0.857   3.192 -0.1638 -0.1335 -0.0006
 3910TIP3    H111694   6.310   0.944   3.175 -0.0753  0.0108  0.5376
 3910TIP3    H211695   6.438   0.870   3.205 -0.4354  0.0239  2.2103
 3911TIP3   OH211696   5.272   2.377   2.335 -0.4574  0.3980  0.2605
 3911TIP3    H111697   5.177   2.368   2.346 -0.5628 -0.6624 -1.2307
 3911TIP3    H211698   5.293   2.321   2.260  1.4922 -0.0853  1.1099
 3912TIP3   OH211699   3.858   3.261   3.778 -0.1412  0.5396  0.8226
 3912TIP3    H111700   3.892   3.174   3.800 -0.3460  0.0690 -0.6105
 3912TIP3    H211701   3.780   3.244   3.725  0.8067  1.5587 -0.9961
 3913TIP3   OH211702   2.561   0.996  -0.002  0.2189 -0.3134  0.1574
 3913TIP3    H111703   2.521   1.064   0.051 -0.5416 -0.7201  0.1204
 3913TIP3    H211704   2.654   1.001   0.018 -0.0280 -0.2983  1.3499
 3914TIP3   OH211705   6.559   1.170   5.312 -0.6943  0.1994 -0.0850
 3914TIP3    H111706   6.474   1.128   5.327 -0.4309 -0.1849  0.3883
 3914TIP3    H211707   6.547   1.221   5.232 -0.9904 -0.8811 -0.7503
 3915TIP3   OH211708   6.886   3.901   2.702 -0.3088 -0.0990  0.0990
 3915TIP3    H111709   6.970   3.855   2.699 -0.1196  0.2972 -2.5092
 3915TIP3    H211710   6.822   3.835   2.675 -0.5757  0.1586  0.1016
 3916TIP3   OH211711   7.061   5.879   3.231  0.0772 -0.2947 -0.5149
 3916TIP3    H111712   7.126   5.814   3.257  0.5748 -0.4013 -1.9360
 3916TIP3    H211713   7.064   5.880   3.135 -1.0893  0.6451 -0.5776
 3917TIP3   OH211714   6.243   3.122   4.227 -0.6700  0.3663  0.6518
 3917TIP3    H111715   6.180   3.162   4.287 -1.1056 -1.1763  1.2633
 3917TIP3    H211716   6.306   3.192   4.207 -0.8525  1.0693  2.4404
 3918TIP3   OH211717   5.233   2.162   0.461  0.2946  0.6187 -0.2230
 3918TIP3    H111718   5.313   2.211   0.474  0.4727  0.2466  0.0955
 3918TIP3    H211719   5.261   2.070   0.458 -0.3918  0.2578  2.4730
 3919TIP3   OH211720   2.102   1.315   5.321 -0.0769  0.5714 -0.5292
 3919TIP3    H111721   2.171   1.250   5.309 -0.8081 -0.1560 -0.9329
 3919TIP3    H211722   2.046   1.278   5.390  1.0185  2.1031  1.2880
 3920TIP3   OH211723   3.249   4.385   1.162  0.0912 -0.3159 -0.1790
 3920TIP3    H111724   3.272   4.478   1.156 -2.7275  0.6226  1.3033
 3920TIP3    H211725   3.272   4.360   1.252 -0.7474 -0.5293 -0.0153
 3921TIP3   OH211726   0.569   2.722   4.703 -0.2865 -0.6968  0.2823
 3921TIP3    H111727   0.492   2.735   4.647  0.0975 -0.1315 -0.1162
 3921TIP3    H211728   0.643   2.745   4.647  0.0450  0.9346  1.3351
 3922TIP3   OH211729   4.640   6.272   1.186 -0.2216 -0.3086 -0.3470
 3922TIP3    H111730   4.595   6.211   1.128  1.6432  1.2948 -3.8116
 3922TIP3    H211731   4.678   6.337   1.127  1.2529  1.9612  2.8136
 3923TIP3   OH211732   3.498   2.149   3.432 -0.2989 -0.3675  0.0122
 3923TIP3    H111733   3.578   2.197   3.411 -0.6640  0.6334  0.7941
 3923TIP3    H211734   3.433   2.218   3.445 -0.0652 -0.7702  4.6166
 3924TIP3   OH211735   2.867   0.866   0.796  0.0221  0.7005  0.5387
 3924TIP3    H111736   2.816   0.802   0.846  0.6646 -0.7150 -0.5472
 3924TIP3    H211737   2.949   0.874   0.845 -0.1297  0.8339  0.7729
 3925TIP3   OH211738   3.378   3.679   2.537  0.2202  0.4524 -0.1990
 3925TIP3    H111739   3.402   3.675   2.629  0.3026  0.0965 -0.2326
 3925TIP3    H211740   3.448   3.632   2.492  0.9322  1.8576 -0.6010
 3926TIP3   OH211741   4.781   1.273   0.020  0.1373  0.6686 -0.0264
 3926TIP3    H111742   4.727   1.210   0.067 -0.0569  0.1412 -0.9298
 3926TIP3    H211743   4.858   1.285   0.075 -0.2061  0.2797  0.5507
 3927TIP3   OH211744   7.114   4.185   3.583  0.1332  0.1154  0.0666
 3927TIP3    H111745   7.064   4.104   3.580  1.0146 -0.4227 -1.7898
 3927TIP3    H211746   7.169   4.177   3.660 -0.8023 -0.3912  0.7041
 3928TIP3   OH211747   0.739   1.737   3.918 -0.4911 -0.0774 -0.6595
 3928TIP3    H111748   0.787   1.683   3.981 -0.3647  1.6513  0.7961
 3928TIP3    H211749   0.806   1.793   3.879 -0.5309 -1.2395 -2.5582
 3929TIP3   OH211750   1.631   6.193   4.533 -0.1438 -1.2051 -0.0456
 3929TIP3    H111751   1.609   6.166   4.622 -0.3154 -2.9156 -0.5743
 3929TIP3    H211752   1.695   6.264   4.545 -0.6114 -0.9936  1.4305
 3930TIP3   OH211753   5.186   0.340   5.625 -0.1207 -0.0164  0.6136
 3930TIP3    H111754   5.212   0.291   5.547 -1.8141  0.4476 -0.3102
 3930TIP3    H211755   5.091   0.326   5.632 -0.6173  2.6933  0.5551
 3931TIP3   OH211756   5.911   5.478   0.339  0.7774 -0.3152  0.5749
 3931TIP3    H111757   5.964   5.556   0.320 -0.6000 -0.2147 -3.6924
 3931TIP3    H211758   5.850   5.471   0.266 -2.4370 -2.7716  3.1703
 3932TIP3   OH211759   5.871   0.769   4.024 -0.5150  0.0956  0.0494
 3932TIP3    H111760   5.906   0.692   4.069 -2.1289  0.1770  1.5458
 3932TIP3    H211761   5.778   0.750   4.013 -0.8261  1.5696 -0.0950
 3933TIP3   OH211762   4.661   4.001   0.975 -0.9342 -0.4250  0.0015
 3933TIP3    H111763   4.639   3.912   0.948  2.1130 -0.5858 -2.5629
 3933TIP3    H211764   4.587   4.029   1.028 -2.8686 -3.7962 -0.6205
 3934TIP3   OH211765   4.936   3.986   4.666 -0.1548 -0.4108  0.2920
 3934TIP3    H111766   4.879   3.926   4.618 -0.0101 -0.2658 -0.0596
 3934TIP3    H211767   4.890   4.001   4.749 -0.2000 -0.9923  0.3784
 3935TIP3   OH211768   2.860   5.864   2.413 -0.0113  0.0434  0.0429
 3935TIP3    H111769   2.833   5.915   2.489  0.5904 -0.0223  0.3106
 3935TIP3    H211770   2.956   5.871   2.413  0.1150 -1.3235  0.2707
 3936TIP3   OH211771   0.773   4.616   0.457 -0.2186  0.3077 -0.0136
 3936TIP3    H111772   0.771   4.521   0.455  0.4635  0.2957 -0.7561
 3936TIP3    H211773   0.840   4.638   0.521 -1.0099  0.3125  0.8337
 3937TIP3   OH211774   6.309   1.340   2.982  0.1590 -0.2951 -0.2307
 3937TIP3    H111775   6.397   1.375   2.983  0.5061 -1.0780  1.7490
 3937TIP3    H211776   6.312   1.265   3.042 -1.4637 -1.3426 -1.3541
 3938TIP3   OH211777   4.030   6.368   4.255  0.5463  0.0413  0.9648
 3938TIP3    H111778   3.956   6.422   4.282  0.2167  1.3259 -2.0685
 3938TIP3    H211779   4.081   6.355   4.335 -1.9212  0.7094  2.7730
 3939TIP3   OH211780   4.192   3.159   5.150  0.3632  0.1797 -0.3898
 3939TIP3    H111781   4.263   3.222   5.139  1.2083 -0.7190 -0.2272
 3939TIP3    H211782   4.233   3.074   5.133 -0.3842 -0.4696  0.9431
 3940TIP3   OH211783   5.719   0.487   4.043  0.3830 -0.1523  0.5788
 3940TIP3    H111784   5.659   0.561   4.048  0.0448 -0.4695  1.2437
 3940TIP3    H211785   5.715   0.460   3.951 -0.8009 -0.4241  0.7006
 3941TIP3   OH211786   5.708   3.611   4.514 -0.2838  0.3617  0.0437
 3941TIP3    H111787   5.680   3.635   4.426  1.0191 -0.4733 -0.6259
 3941TIP3    H211788   5.686   3.688   4.568 -0.6770  1.0592 -1.0831
 3942TIP3   OH211789   3.424   1.251   3.882 -0.5060  0.4321 -0.2102
 3942TIP3    H111790   3.353   1.231   3.944  0.5899 -1.0774  0.6011
 3942TIP3    H211791   3.501   1.206   3.917  0.6938  1.3862 -1.4922
 3943TIP3   OH211792   0.324   4.369   0.377  0.0931 -0.5388  0.0640
 3943TIP3    H111793   0.396   4.427   0.403 -0.2026 -0.5804  1.0082
 3943TIP3    H211794   0.257   4.428   0.342  0.6663 -0.5201 -1.0288
 3944TIP3   OH211795   2.859   2.352   5.194  0.4429  0.6905  0.8488
 3944TIP3    H111796   2.798   2.419   5.223 -0.1267  0.5018  0.1199
 3944TIP3    H211797   2.905   2.390   5.119  1.0976  0.7629  1.2747
 3945TIP3   OH211798   5.280   4.428   4.883 -0.3225  0.1520  0.1696
 3945TIP3    H111799   5.203   4.403   4.831 -0.3521 -0.5356  0.5322
 3945TIP3    H211800   5.257   4.405   4.973 -0.5082  1.9088  0.5994
 3946TIP3   OH211801   3.801   3.358   2.356 -0.1926 -0.5564 -0.1744
 3946TIP3    H111802   3.788   3.279   2.409  1.1635  0.5473  1.9623
 3946TIP3    H211803   3.895   3.371   2.355 -0.4039  1.3226  0.0091
 3947TIP3   OH211804   5.716   0.284   5.176  0.0740 -0.2571  1.1380
 3947TIP3    H111805   5.727   0.213   5.240  0.5409  0.2573  1.6322
 3947TIP3    H211806   5.624   0.310   5.185 -0.1007 -0.7982  0.9522
 3948TIP3   OH211807   4.680   1.680   1.345  0.1978  0.2353  0.1971
 3948TIP3    H111808   4.609   1.655   1.403 -1.6200  0.6542 -1.7220
 3948TIP3    H211809   4.731   1.600   1.332 -1.8015 -0.9194 -0.8515
 3949TIP3   OH211810   2.667   6.503   4.827  0.2593 -0.9469 -0.4222
 3949TIP3    H111811   2.728   6.432   4.807  1.8776 -0.0504  1.0399
 3949TIP3    H211812   2.684   6.524   4.919 -1.2487  0.3190 -0.3936
 3950TIP3   OH211813   7.074   1.235   1.154 -0.0722  0.0926  0.0336
 3950TIP3    H111814   7.149   1.257   1.208  0.0415 -0.1368 -0.0303
 3950TIP3    H211815   7.108   1.232   1.064  0.2814 -1.9191  0.1872
 3951TIP3   OH211816   6.990   0.554   4.839 -0.0420  0.0520 -0.2043
 3951TIP3    H111817   6.908   0.552   4.889 -0.6099 -0.6544 -1.1098
 3951TIP3    H211818   6.981   0.481   4.777  0.8205  0.6171 -1.0225
 3952TIP3   OH211819   2.429   0.086   1.376 -0.3691 -0.0603  0.5329
 3952TIP3    H111820   2.362   0.086   1.445 -0.4673  0.2877  0.4384
 3952TIP3    H211821   2.415   0.169   1.330  0.4886  0.2737  0.8624
 3953TIP3   OH211822   6.924   2.768   3.700  0.1741  0.0480 -0.3263
 3953TIP3    H111823   6.976   2.712   3.642  2.2843  0.0143  1.4092
 3953TIP3    H211824   6.852   2.712   3.729  0.1843 -0.5517 -1.4261
 3954TIP3   OH211825   1.853   2.113   2.073 -0.3243 -0.3381  0.0905
 3954TIP3    H111826   1.821   2.176   2.008 -1.4774 -0.7236  0.2788
 3954TIP3    H211827   1.775   2.084   2.120  0.3204 -1.1533  0.6873
 3955TIP3   OH211828   5.272   2.532   4.607 -0.6043 -0.2519  0.4367
 3955TIP3    H111829   5.245   2.482   4.530 -3.9424  1.2616  0.4703
 3955TIP3    H211830   5.287   2.466   4.674  0.0710 -1.4402 -0.8187
 3956TIP3   OH211831   5.618   3.041   0.386  0.2208 -0.2430  0.2258
 3956TIP3    H111832   5.605   2.955   0.426  2.0452 -0.1261  1.1464
 3956TIP3    H211833   5.533   3.085   0.396 -0.3569 -1.4743  0.8673
 3957TIP3   OH211834   6.821   6.029   1.376  0.1158 -0.5192 -0.5992
 3957TIP3    H111835   6.755   6.024   1.444  0.1214  0.1236 -0.5401
 3957TIP3    H211836   6.816   6.120   1.344  2.6091  0.2959  1.0599
 3958TIP3   OH211837   1.045   6.504   0.254 -0.0816 -0.4770 -0.2166
 3958TIP3    H111838   1.116   6.568   0.261  0.3705 -0.8905 -0.8520
 3958TIP3    H211839   1.040   6.484   0.161 -0.9604 -0.5521 -0.1614
 3959TIP3   OH211840   1.525   6.198   4.796 -0.1105 -0.0076  0.0058
 3959TIP3    H111841   1.577   6.229   4.870  0.8195  0.2846 -0.7581
 3959TIP3    H211842   1.503   6.108   4.818 -0.8422  0.4348  1.1671
 3960TIP3   OH211843   3.090   2.766   0.172  0.9472 -0.0672  0.0910
 3960TIP3    H111844   3.046   2.843   0.207  0.3997 -0.5115  0.3875
 3960TIP3    H211845   3.034   2.737   0.100  0.3830 -1.0213  0.8893
 3961TIP3   OH211846   6.859   6.591   2.216 -0.0990  0.3239 -0.2388
 3961TIP3    H111847   6.946   6.568   2.183  0.1927 -2.9509  2.3446
 3961TIP3    H211848   6.877   6.640   2.297 -0.6231 -0.2493  0.2320
 3962TIP3   OH211849   6.779   4.080   2.891 -0.3607 -0.1603  0.0592
 3962TIP3    H111850   6.812   4.000   2.849  0.0252  0.4226 -0.7845
 3962TIP3    H211851   6.853   4.141   2.887 -0.5695  0.1638  0.9273
 3963TIP3   OH211852   3.806   1.360   1.392 -0.3102  0.5626  0.1630
 3963TIP3    H111853   3.762   1.277   1.375 -0.8235  1.0765 -1.1429
 3963TIP3    H211854   3.738   1.414   1.432 -0.5531  0.9740 -0.7785
 3964TIP3   OH211855   6.663   5.948   2.734 -0.0633  0.3900 -0.1894
 3964TIP3    H111856   6.587   6.006   2.727 -0.0217  0.4716  0.0247
 3964TIP3    H211857   6.631   5.872   2.783 -0.2927 -0.0763 -1.0418
 3965TIP3   OH211858   1.338   5.681   4.998 -0.2537  0.7516  0.6361
 3965TIP3    H111859   1.324   5.760   5.051  0.9931  1.0233  0.5948
 3965TIP3    H211860   1.282   5.693   4.922 -0.5738  1.2860  0.9431
 3966TIP3   OH211861   6.432   2.861   2.214 -0.1125  0.2133  0.0793
 3966TIP3    H111862   6.371   2.891   2.281  0.2233  1.1565 -0.0144
 3966TIP3    H211863   6.459   2.774   2.243 -1.1316 -0.0199  0.3601
 3967TIP3   OH211864   0.108   3.025   5.566  0.2531  0.3220 -0.1972
 3967TIP3    H111865   0.178   2.960   5.567  0.5910  0.5130 -3.3660
 3967TIP3    H211866   0.154   3.109   5.559 -0.2153  0.9469  2.8419
 3968TIP3   OH211867   3.752   4.294   3.625  0.2685  0.1076  0.4411
 3968TIP3    H111868   3.709   4.358   3.682  0.0175 -0.3544  0.7735
 3968TIP3    H211869   3.681   4.235   3.598  0.1153  1.0843 -1.4178
 3969TIP3   OH211870   3.554   6.583   0.092 -0.8000 -0.2572  0.0324
 3969TIP3    H111871   3.619   6.584   0.163 -3.0716  0.3560  2.2769
 3969TIP3    H211872   3.543   6.675   0.068 -0.4973 -0.4068 -0.6980
 3970TIP3   OH211873   2.414   6.194   2.942  0.2358  0.0142 -0.0619
 3970TIP3    H111874   2.341   6.246   2.908 -0.1848  0.7683  1.8522
 3970TIP3    H211875   2.373   6.127   2.996  0.8860 -0.8984 -0.6832
 3971TIP3   OH211876   2.822   2.125   2.897  0.0484  0.4485 -0.2035
 3971TIP3    H111877   2.900   2.071   2.886  0.0467  0.2676  0.6325
 3971TIP3    H211878   2.795   2.112   2.988  1.4373  3.7034  0.8266
 3972TIP3   OH211879   6.695   2.957   1.975 -0.2553  0.0408  0.5071
 3972TIP3    H111880   6.632   2.889   1.951 -1.1242  0.6056  1.1280
 3972TIP3    H211881   6.713   2.940   2.068  0.3866 -0.0153  0.3728
 3973TIP3   OH211882   5.732   6.004   2.847 -0.0244 -0.2283  0.4357
 3973TIP3    H111883   5.716   6.029   2.756 -2.2667 -0.7099  0.6380
 3973TIP3    H211884   5.737   5.909   2.845  0.7558 -0.2003  0.7192
 3974TIP3   OH211885   4.393   1.211   2.329  0.0395  0.6332 -0.2335
 3974TIP3    H111886   4.330   1.150   2.367  1.9722 -1.3011  0.0696
 3974TIP3    H211887   4.418   1.267   2.402  0.8468 -0.5345  0.4172
 3975TIP3   OH211888   0.732   5.535   2.375 -0.1662  0.3993 -0.0286
 3975TIP3    H111889   0.733   5.624   2.342  0.9755  0.5498  0.3820
 3975TIP3    H211890   0.823   5.516   2.398 -0.7028 -0.0948  1.9071
 3976TIP3   OH211891   2.278   5.698   1.538  0.3954 -0.5637  0.0777
 3976TIP3    H111892   2.303   5.607   1.554  3.0910 -0.4801 -2.6874
 3976TIP3    H211893   2.343   5.750   1.584  0.1465 -0.0694 -0.1119
 3977TIP3   OH211894   0.260   5.130   2.644  0.0814 -0.2171 -0.4412
 3977TIP3    H111895   0.307   5.169   2.570 -0.2251 -0.3067 -0.6805
 3977TIP3    H211896   0.287   5.183   2.719  0.6030 -0.2937 -0.5690
 3978TIP3   OH211897   6.780   0.532   0.092 -0.4931  0.2282 -0.2836
 3978TIP3    H111898   6.771   0.599   0.025 -3.4469  0.6801  0.4099
 3978TIP3    H211899   6.705   0.474   0.078  0.4696 -1.3649  0.8338
 3979TIP3   OH211900   0.449   3.347   2.171 -0.0646 -0.3713 -0.0342
 3979TIP3    H111901   0.484   3.294   2.243  0.3696  0.4009  0.3286
 3979TIP3    H211902   0.407   3.283   2.113  1.1711 -1.2181 -0.0336
 3980TIP3   OH211903   2.062   3.470   1.446 -0.0886  0.0703 -0.7003
 3980TIP3    H111904   2.122   3.523   1.394  1.5970 -2.0418 -1.0183
 3980TIP3    H211905   2.028   3.405   1.384 -0.7432 -0.3424  0.0736
 3981TIP3   OH211906   3.612   2.371   1.969 -0.3303  0.0064 -0.3426
 3981TIP3    H111907   3.700   2.334   1.972  0.5801  2.0955  1.1937
 3981TIP3    H211908   3.572   2.344   2.052 -0.9291 -0.4437 -0.7740
 3982TIP3   OH211909   0.751   4.934   1.429 -0.2481  0.5664 -0.2629
 3982TIP3    H111910   0.829   4.879   1.440 -0.1737  0.3495 -1.6737
 3982TIP3    H211911   0.719   4.913   1.342 -1.3868  1.3103 -0.0479
 3983TIP3   OH211912   0.106   5.313   1.647  0.1120 -0.4529  0.1332
 3983TIP3    H111913   0.092   5.369   1.723 -2.0617 -1.3295  0.4600
 3983TIP3    H211914   0.165   5.244   1.678 -0.5146 -0.6308  0.9640
 3984TIP3   OH211915   1.474   1.886   5.456  0.4396 -0.0720  0.0773
 3984TIP3    H111916   1.522   1.967   5.440  1.0833 -0.5874 -0.6877
 3984TIP3    H211917   1.477   1.875   5.551 -0.5927  1.3375  0.2994
 3985TIP3   OH211918   1.332   3.683   0.184 -0.0690 -0.5059  0.3669
 3985TIP3    H111919   1.381   3.613   0.140  0.6901  0.7209 -0.7826
 3985TIP3    H211920   1.299   3.739   0.114 -2.0672 -0.5661  1.1864
 3986TIP3   OH211921   3.687   4.538   0.692  0.5330 -0.3768  0.5430
 3986TIP3    H111922   3.718   4.451   0.715 -2.7729 -2.1186 -0.9117
 3986TIP3    H211923   3.610   4.551   0.746 -0.1726  0.7601 -0.6654
 3987TIP3   OH211924   2.799   1.917   4.109  0.4118 -0.7105  0.0385
 3987TIP3    H111925   2.862   1.872   4.052  0.4097  0.4488 -0.9301
 3987TIP3    H211926   2.810   1.876   4.195  0.4433 -2.4971 -0.7701
 3988TIP3   OH211927   6.967   1.990   2.353  0.0658  0.0862  0.0403
 3988TIP3    H111928   6.872   1.987   2.361  0.2153 -0.6468  2.2476
 3988TIP3    H211929   6.995   2.050   2.423  1.2293  0.3270 -0.6039
 3989TIP3   OH211930   1.951   6.052   2.849  0.4445 -0.1830 -0.5190
 3989TIP3    H111931   1.899   6.070   2.771  0.0860  0.0682 -0.2290
 3989TIP3    H211932   1.971   6.139   2.885  0.0703 -0.3041  0.0095
 3990TIP3   OH211933   5.556   2.468   3.473  0.0050 -0.0068 -0.8588
 3990TIP3    H111934   5.575   2.391   3.420 -0.1338 -0.9567  0.4257
 3990TIP3    H211935   5.468   2.494   3.447 -0.0153 -0.3878 -1.1708
 3991TIP3   OH211936   5.472   1.661   1.095 -0.3712 -0.5799  0.1109
 3991TIP3    H111937   5.489   1.679   1.002 -0.5509 -0.8495  0.0250
 3991TIP3    H211938   5.386   1.700   1.111 -0.3686 -0.5907  0.1492
 3992TIP3   OH211939   5.985   1.643   2.318  0.1474  0.0243 -0.1492
 3992TIP3    H111940   6.000   1.552   2.292  1.5420  0.6140 -1.5706
 3992TIP3    H211941   5.900   1.642   2.363  0.6787 -2.1531  0.9031
 3993TIP3   OH211942   5.938   4.169   5.716 -0.3518 -0.0991  0.3423
 3993TIP3    H111943   5.865   4.228   5.737 -0.4957 -0.2192  0.1893
 3993TIP3    H211944   5.932   4.156   5.621  0.2328  0.3617  0.2386
 3994TIP3   OH211945   4.321   0.221   5.440 -0.8895 -0.0663 -0.3459
 3994TIP3    H111946   4.329   0.233   5.345  0.2573 -0.9188 -0.3854
 3994TIP3    H211947   4.239   0.174   5.452  0.3155 -2.5951 -1.2309
 3995TIP3   OH211948   2.606   0.401   3.993  0.6047 -0.3607  0.5830
 3995TIP3    H111949   2.570   0.441   3.914 -0.1254  2.3296  2.1358
 3995TIP3    H211950   2.697   0.430   3.996  0.6352 -0.4655  0.7250
 3996TIP3   OH211951   4.906   1.983   5.875 -0.5964 -0.2849  0.0751
 3996TIP3    H111952   4.857   1.970   5.794 -0.7786 -1.8426  0.4096
 3996TIP3    H211953   4.988   1.935   5.862  1.0697  2.5102 -0.5822
 3997TIP3   OH211954   5.609   5.219   0.430 -0.0217 -0.4382 -0.0286
 3997TIP3    H111955   5.674   5.160   0.468 -0.9167 -1.3812  0.0699
 3997TIP3    H211956   5.534   5.214   0.489  0.1325  1.3651  0.3731
 3998TIP3   OH211957   3.712   4.855   1.176 -0.3128 -0.0976  0.4790
 3998TIP3    H111958   3.711   4.761   1.155 -1.3643  0.3126 -1.5627
 3998TIP3    H211959   3.791   4.888   1.135  0.3669 -0.1587  1.6977
 3999TIP3   OH211960   1.288   6.259   3.194 -0.3168 -0.1072  0.2804
 3999TIP3    H111961   1.258   6.172   3.169  0.0862 -0.2327  0.2341
 3999TIP3    H211962   1.245   6.276   3.278 -1.2040  0.0739 -0.2016
 4000TIP3   OH211963   2.011   3.185   1.148 -0.4908  0.3808  0.2488
 4000TIP3    H111964   2.026   3.099   1.108 -0.6095  0.6889 -0.4840
 4000TIP3    H211965   1.955   3.167   1.223 -0.1709 -0.2343  0.3488
 4001TIP3   OH211966   5.589   1.271   5.292  0.1482  0.0787  0.1787
 4001TIP3    H111967   5.580   1.281   5.387  2.1809 -2.6801  0.7719
 4001TIP3    H211968   5.668   1.319   5.270  0.6789 -0.7511  0.2257
 4002TIP3   OH211969   7.025   2.595   3.525  0.3005  0.0570 -0.0485
 4002TIP3    H111970   7.104   2.581   3.473 -0.2009  0.2079 -0.8750
 4002TIP3    H211971   6.953   2.580   3.463 -0.3068  0.7799  0.4648
 4003TIP3   OH211972   3.364   5.509   2.161  0.0386 -0.0799  0.6487
 4003TIP3    H111973   3.373   5.587   2.217 -0.0957  2.4643 -2.5676
 4003TIP3    H211974   3.270   5.502   2.145  0.2582  1.1386 -1.5566
 4004TIP3   OH211975   3.848   2.029   5.901 -0.3892  0.4052  0.6033
 4004TIP3    H111976   3.858   2.065   5.813 -1.6008  0.1370  0.3437
 4004TIP3    H211977   3.762   1.986   5.900  0.3058 -1.0783  1.4024
 4005TIP3   OH211978   4.136   4.635   0.294 -0.4625 -0.0829 -0.0157
 4005TIP3    H111979   4.112   4.707   0.236 -0.9170 -0.7033 -0.6138
 4005TIP3    H211980   4.180   4.677   0.368 -0.3314  0.7665 -0.5634
 4006TIP3   OH211981   5.301   3.116   3.835 -0.4211  0.3083 -0.0860
 4006TIP3    H111982   5.286   3.187   3.773  1.7793  1.2951  0.4103
 4006TIP3    H211983   5.274   3.152   3.920 -0.2609  0.1979  0.0132
 4007TIP3   OH211984   1.043   0.244   1.758 -0.7068 -0.4626  0.4382
 4007TIP3    H111985   1.032   0.229   1.664  3.9024  1.5137 -0.7112
 4007TIP3    H211986   1.112   0.183   1.783 -0.0457  0.8255  1.8693
 4008TIP3   OH211987   4.990   1.997   3.259  0.3328 -0.1018  0.1878
 4008TIP3    H111988   4.954   2.045   3.333 -0.8237 -1.2431  0.3914
 4008TIP3    H211989   5.084   1.992   3.277 -0.0746 -1.4791  2.2696
 4009TIP3   OH211990   2.511   0.133   3.809  0.0162  0.1528  0.5342
 4009TIP3    H111991   2.445   0.173   3.864  2.2677  0.2450  3.4062
 4009TIP3    H211992   2.589   0.187   3.821  1.2954 -1.2757 -0.7919
 4010TIP3   OH211993   1.416   5.530   5.708 -0.1181 -0.1956  0.1680
 4010TIP3    H111994   1.448   5.619   5.724  1.0667 -0.4317 -0.7705
 4010TIP3    H211995   1.336   5.524   5.760  1.4001  0.3888  2.7464
 4011TIP3   OH211996   0.839   2.934   2.029  0.4321 -0.1369 -0.2940
 4011TIP3    H111997   0.744   2.941   2.038  0.3407  0.2480 -1.3512
 4011TIP3    H211998   0.854   2.937   1.934  1.4907 -0.2726 -0.1431
 4012TIP3   OH211999   5.862   3.318   3.002  0.3479 -0.1928 -0.0200
 4012TIP3    H112000   5.904   3.402   3.018  3.5792 -0.8432 -3.6033
 4012TIP3    H212001   5.932   3.254   3.012 -1.3657 -2.1603 -0.0231
 4013TIP3   OH212002   4.943   5.246   4.619 -0.0263  0.1461  0.0149
 4013TIP3    H112003   4.981   5.334   4.628  1.1081 -0.3848  0.5413
 4013TIP3    H212004   4.941   5.231   4.525  2.4296 -0.3590 -0.0162
 4014TIP3   OH212005   6.979   1.631   0.685 -0.1781 -0.1651 -0.3007
 4014TIP3    H112006   7.035   1.592   0.618  2.2647  1.0679  0.8719
 4014TIP3    H212007   6.974   1.724   0.662  0.4021  0.2066  0.9879
 4015TIP3   OH212008   5.957   5.220   1.883 -0.6509 -0.2236  0.0809
 4015TIP3    H112009   5.920   5.135   1.910 -1.1738 -0.4461 -1.2682
 4015TIP3    H212010   5.974   5.265   1.965 -2.0513 -0.9233  0.7977
 4016TIP3   OH212011   1.572   4.026   2.572 -0.2089 -0.1018 -0.4854
 4016TIP3    H112012   1.658   4.064   2.557  0.0519  1.0039  2.9551
 4016TIP3    H212013   1.518   4.099   2.602 -0.7690 -1.6083  2.6185
 4017TIP3   OH212014   3.507   0.541   3.781 -0.7778 -0.1589  0.1936
 4017TIP3    H112015   3.454   0.586   3.714  0.0217  0.6546  0.0982
 4017TIP3    H212016   3.511   0.450   3.750 -0.5613  0.1672 -0.7921
 4018TIP3   OH212017   4.346   5.782   5.680 -0.0791  0.1165 -0.0991
 4018TIP3    H112018   4.271   5.779   5.738  0.7166 -1.9777  0.9200
 4018TIP3    H212019   4.317   5.834   5.605 -1.4343  2.1152  1.7093
 4019TIP3   OH212020   0.834   4.019   1.819  0.1552  0.6537  0.6236
 4019TIP3    H112021   0.818   3.977   1.903  0.6478 -1.9870 -0.5049
 4019TIP3    H212022   0.748   4.046   1.788 -0.2201  0.2105  1.2728
 4020TIP3   OH212023   1.087   4.700   3.554 -0.1054 -0.0628 -0.3863
 4020TIP3    H112024   1.023   4.770   3.541 -0.3015 -0.0443  0.5885
 4020TIP3    H212025   1.169   4.746   3.575 -0.0783 -0.1044 -0.4019
 4021TIP3   OH212026   4.206   6.645   2.685  0.6880 -0.4419  0.1520
 4021TIP3    H112027   4.144   6.655   2.757 -0.4722 -1.1993 -0.7006
 4021TIP3    H212028   4.224   6.551   2.683 -0.4849 -0.6659 -1.4688
 4022TIP3   OH212029   2.295   2.465   3.555 -0.6303  0.2100  0.4250
 4022TIP3    H112030   2.338   2.544   3.589  0.4586  0.7647 -2.0574
 4022TIP3    H212031   2.329   2.394   3.610  1.6174  0.9597  0.1135
 4023TIP3   OH212032   4.602   5.736   1.796 -0.4750 -0.0730 -0.0736
 4023TIP3    H112033   4.555   5.656   1.820  0.4542 -0.5390  0.2369
 4023TIP3    H212034   4.595   5.739   1.700  0.5865 -1.2411 -0.2071
 4024TIP3   OH212035   6.018   0.759   2.978 -0.4258 -0.0035 -0.8175
 4024TIP3    H112036   5.944   0.802   3.021 -0.7201 -1.4924  0.2448
 4024TIP3    H212037   5.979   0.707   2.908 -0.0173  1.7853 -2.4727
 4025TIP3   OH212038   3.261   0.637   4.940 -0.0754  0.3943  0.2262
 4025TIP3    H112039   3.178   0.666   4.980 -0.1480  1.3320 -0.5738
 4025TIP3    H212040   3.256   0.668   4.850  0.9977  0.1364  0.0661
 4026TIP3   OH212041   1.986   2.801   4.671  0.0222 -0.6278  0.2699
 4026TIP3    H112042   2.044   2.745   4.620  1.7160  0.0610  1.3375
 4026TIP3    H212043   2.046   2.856   4.723 -1.5908 -0.1981  1.7630
 4027TIP3   OH212044   4.985   3.971   1.166  0.1929  0.2295 -0.1835
 4027TIP3    H112045   5.033   4.031   1.223 -0.9923  1.2657 -0.2337
 4027TIP3    H212046   4.929   4.028   1.113  0.5509 -0.7815 -1.7047
 4028TIP3   OH212047   1.544   3.061   0.771 -0.2263 -0.1718  0.8570
 4028TIP3    H112048   1.534   3.074   0.677 -0.1012  1.4691  1.0343
 4028TIP3    H212049   1.621   3.006   0.780  0.6568  0.8860  0.0187
 4029TIP3   OH212050   2.810   6.177   1.843  0.2802 -0.3032 -0.2568
 4029TIP3    H112051   2.741   6.215   1.898  0.2602  0.3916 -0.7455
 4029TIP3    H212052   2.829   6.245   1.778  0.8481 -0.8100 -0.6333
 4030TIP3   OH212053   2.990   2.212   4.841 -0.0822 -0.2156 -0.0054
 4030TIP3    H112054   3.019   2.208   4.750  2.1432  0.2560  0.5981
 4030TIP3    H212055   3.052   2.155   4.888 -0.2307  0.7347  1.4089
 4031TIP3   OH212056   6.382   4.103   2.822  0.1204  0.1513  0.4569
 4031TIP3    H112057   6.308   4.097   2.762 -0.2455  0.2799  0.8998
 4031TIP3    H212058   6.393   4.197   2.837  0.1434  0.1114  0.6834
 4032TIP3   OH212059   3.507   5.556   1.263  0.5009  0.9875 -0.0039
 4032TIP3    H112060   3.415   5.579   1.256  0.6259  1.4392 -0.2231
 4032TIP3    H212061   3.525   5.555   1.357  0.2489  0.7837  0.0436
 4033TIP3   OH212062   2.176   2.847   5.110 -0.1920 -0.7431  0.5482
 4033TIP3    H112063   2.202   2.783   5.176 -0.8665 -2.7005 -0.9898
 4033TIP3    H212064   2.110   2.902   5.154  0.2497 -1.2247  1.8451
 4034TIP3   OH212065   5.367   6.271   4.530  0.5992  0.2954  0.3066
 4034TIP3    H112066   5.424   6.196   4.510  0.6465  0.3456  0.2528
 4034TIP3    H212067   5.362   6.319   4.448 -0.7996 -0.5567 -0.1457
 4035TIP3   OH212068   0.060   1.943   2.877  0.1351 -0.2912  0.0594
 4035TIP3    H112069  -0.031   1.946   2.907 -0.2191 -0.6095 -0.9516
 4035TIP3    H212070   0.094   1.860   2.912 -1.3826 -2.5453 -3.3557
 4036TIP3   OH212071   4.001   2.809   0.857 -0.7265 -0.2767  0.4120
 4036TIP3    H112072   3.959   2.849   0.932 -1.2811  0.6986 -0.4028
 4036TIP3    H212073   3.940   2.822   0.785  0.2343 -0.3059 -0.4291
 4037TIP3   OH212074   6.773   2.089   2.941 -0.2393 -0.1233 -0.1349
 4037TIP3    H112075   6.861   2.055   2.956 -0.2057 -0.5024 -1.1289
 4037TIP3    H212076   6.788   2.178   2.909  0.0192 -1.3042 -3.7385
 4038TIP3   OH212077   5.192   1.542   1.102  0.4815 -0.1657  0.4682
 4038TIP3    H112078   5.102   1.570   1.087  0.4610  0.8148  2.1878
 4038TIP3    H212079   5.184   1.453   1.137  0.2280 -0.2624  0.1728
 4039TIP3   OH212080   2.441   2.736   2.049  0.4488  0.0702 -0.2510
 4039TIP3    H112081   2.405   2.688   2.124  0.2269  1.0504  0.2866
 4039TIP3    H212082   2.413   2.685   1.973 -0.6186 -0.1305  0.2522
 4040TIP3   OH212083   4.098   0.451   5.590  0.2926 -0.5239  0.2833
 4040TIP3    H112084   4.170   0.513   5.593 -0.0326 -0.0138 -1.2657
 4040TIP3    H212085   4.139   0.365   5.595  0.7669 -0.2140  2.2550
 4041TIP3   OH212086   4.410   0.795   1.131 -0.6683 -0.0909 -0.1361
 4041TIP3    H112087   4.386   0.702   1.142  0.4191 -0.8881 -3.3380
 4041TIP3    H212088   4.505   0.796   1.141 -0.7776  0.9082  0.9122
 4042TIP3   OH212089   3.646   6.804   2.985  0.3064  0.0347  0.2569
 4042TIP3    H112090   3.576   6.742   2.963  0.4255  0.2397 -0.7106
 4042TIP3    H212091   3.704   6.754   3.043 -0.8085 -0.0262  1.3643
 4043TIP3   OH212092   3.919   0.455   3.791 -0.2342 -0.2334  0.3738
 4043TIP3    H112093   3.864   0.459   3.869  1.9823 -2.2124  2.1886
 4043TIP3    H212094   3.891   0.530   3.739 -2.0998  0.9641  2.8478
 4044TIP3   OH212095   0.972   4.543   2.934 -0.6944 -0.5613 -0.3111
 4044TIP3    H112096   1.064   4.570   2.929 -1.0836  0.7024 -1.3320
 4044TIP3    H212097   0.933   4.604   2.996 -0.7297 -1.5288  0.6499
 4045TIP3   OH212098   0.673   0.496   4.197 -0.2232  0.7671 -0.6558
 4045TIP3    H112099   0.688   0.560   4.128 -0.9377  0.9280 -0.6767
 4045TIP3    H212100   0.634   0.421   4.152  1.0085  0.1343 -0.6984
 4046TIP3   OH212101   5.028   4.093   0.766 -0.1086 -0.2655 -0.0157
 4046TIP3    H112102   4.978   4.022   0.726 -2.1841  2.5555 -3.0003
 4046TIP3    H212103   4.986   4.107   0.851 -0.9089 -1.3680 -0.1998
 4047TIP3   OH212104   3.303   6.187   2.345  0.4616  0.1017  0.2198
 4047TIP3    H112105   3.389   6.222   2.322  0.9890 -0.7172  0.8672
 4047TIP3    H212106   3.314   6.154   2.435 -0.3906 -0.4334  0.1388
 4048TIP3   OH212107   1.944   4.466   5.398 -0.1262  0.0821  0.0923
 4048TIP3    H112108   1.952   4.512   5.482 -0.2214  0.6337 -0.1982
 4048TIP3    H212109   1.907   4.531   5.338  0.2368 -0.2093 -0.4574
 4049TIP3   OH212110   3.885   4.650   3.567  0.0944 -0.1472 -0.7927
 4049TIP3    H112111   3.803   4.639   3.615  1.9094 -3.3357  1.9782
 4049TIP3    H212112   3.863   4.625   3.477 -2.1988  0.4980 -0.4954
 4050TIP3   OH212113   3.417   1.549   0.058  0.9553  0.4176  0.6414
 4050TIP3    H112114   3.380   1.631   0.090  1.2899  0.6954  0.3208
 4050TIP3    H212115   3.366   1.481   0.103 -1.2698  0.7473 -1.1672
 4051TIP3   OH212116   5.325   1.844   5.407  0.2398 -0.4099  0.4059
 4051TIP3    H112117   5.260   1.911   5.386  1.2872  0.6000  0.2373
 4051TIP3    H212118   5.359   1.870   5.493  0.7030 -0.6731  0.3070
 4052TIP3   OH212119   3.632   1.763   5.121 -0.0746 -0.2736  0.0055
 4052TIP3    H112120   3.574   1.806   5.059  0.3738  1.8615  0.9578
 4052TIP3    H212121   3.687   1.706   5.068 -0.6631  0.3863 -1.3542
 4053TIP3   OH212122   6.102   6.683   3.879 -0.1232  0.3293 -0.9001
 4053TIP3    H112123   6.144   6.598   3.888  0.2570  0.6345  0.3846
 4053TIP3    H212124   6.012   6.662   3.851 -0.5504 -0.6108  1.0257
 4054TIP3   OH212125   2.242   2.270   2.191 -0.2220 -0.3447 -0.2956
 4054TIP3    H112126   2.246   2.195   2.131 -1.7379 -0.0467 -0.8196
 4054TIP3    H212127   2.154   2.265   2.229  0.5237 -0.2346  1.5702
 4055TIP3   OH212128   4.301   2.285   3.420 -0.3025  0.3078 -0.4309
 4055TIP3    H112129   4.209   2.269   3.441 -0.5328  1.7265 -0.3072
 4055TIP3    H212130   4.344   2.200   3.435 -1.4990 -0.2484 -0.0481
 4056TIP3   OH212131   1.892   6.301   0.016  0.3415  0.2218  0.1823
 4056TIP3    H112132   1.900   6.224  -0.040  2.6725  1.9876 -2.1821
 4056TIP3    H212133   1.980   6.312   0.053 -0.1889  1.2573  1.1905
 4057TIP3   OH212134   5.145   0.630   3.058 -0.0492  0.0654 -0.4589
 4057TIP3    H112135   5.229   0.676   3.068 -0.2460  0.3822 -0.2725
 4057TIP3    H212136   5.088   0.693   3.015 -0.0245 -0.3537 -1.1242
 4058TIP3   OH212137   5.648   1.249   0.812 -0.0300 -0.1072 -0.1823
 4058TIP3    H112138   5.712   1.316   0.837  0.1723 -1.1281  2.2931
 4058TIP3    H212139   5.572   1.300   0.782  1.3740  1.1259 -1.9418
 4059TIP3   OH212140   3.589   3.814   1.481 -0.2116 -0.0759  0.0792
 4059TIP3    H112141   3.682   3.799   1.501  0.2341 -1.8789 -2.7774
 4059TIP3    H212142   3.557   3.865   1.556  2.7772 -0.3260  1.7156
 4060TIP3   OH212143   0.043   3.254   3.003 -0.0145 -0.3107  0.0482
 4060TIP3    H112144   0.017   3.343   2.978  1.6109 -0.5645 -2.9094
 4060TIP3    H212145  -0.034   3.201   2.985 -0.2927  0.1804 -0.2459
 4061TIP3   OH212146   6.507   0.502   3.057 -0.0599 -0.4688 -0.0537
 4061TIP3    H112147   6.425   0.546   3.033 -0.4150 -0.7337  0.6384
 4061TIP3    H212148   6.576   0.557   3.019 -0.4467  1.1271  1.4173
 4062TIP3   OH212149   0.609   6.692   3.540 -0.4806  0.3583  0.0635
 4062TIP3    H112150   0.630   6.752   3.612 -1.6049 -0.8669  1.4776
 4062TIP3    H212151   0.522   6.718   3.512 -0.8550 -0.4022  0.4898
 4063TIP3   OH212152   5.550   5.954   3.302 -0.2649  0.3581  0.0127
 4063TIP3    H112153   5.571   5.861   3.312  0.0090  0.3100 -0.9084
 4063TIP3    H212154   5.458   5.961   3.327 -0.4524 -0.2646 -0.4896
 4064TIP3   OH212155   6.794   3.329   2.412 -0.3512  0.0947  0.4275
 4064TIP3    H112156   6.868   3.352   2.357  1.0842  0.4483  2.3857
 4064TIP3    H212157   6.738   3.407   2.411  0.1276  0.4355  0.2123
 4065TIP3   OH212158   2.513   0.034   5.848 -0.7675 -0.2788  0.3847
 4065TIP3    H112159   2.546  -0.046   5.890  0.9325  1.6344  2.9760
 4065TIP3    H212160   2.443   0.064   5.906  0.3382  1.4367  0.8743
 4066TIP3   OH212161   6.337   4.434   2.089  0.6572 -0.1112 -0.1537
 4066TIP3    H112162   6.300   4.394   2.168  3.4054  0.0492  1.3514
 4066TIP3    H212163   6.284   4.512   2.074 -0.3496 -0.5106  1.1214
 4067TIP3   OH212164   3.993   5.499   2.352  0.5531  0.3535 -0.4966
 4067TIP3    H112165   4.022   5.449   2.276  1.1044  0.2874 -0.2461
 4067TIP3    H212166   4.051   5.472   2.423 -0.9321 -0.7230  0.3494
 4068TIP3   OH212167   0.549   0.512   1.470 -0.2018  0.1838 -0.4773
 4068TIP3    H112168   0.593   0.493   1.388  1.4281 -0.1619  0.4233
 4068TIP3    H212169   0.604   0.470   1.537 -0.1615  2.4388  1.0045
 4069TIP3   OH212170   5.178   5.200   0.507 -0.6267  0.3122  0.6185
 4069TIP3    H112171   5.100   5.179   0.455  0.8159 -1.7030 -0.8684
 4069TIP3    H212172   5.144   5.212   0.596 -2.4840 -2.2244  0.3754
 4070TIP3   OH212173   3.269   4.609   2.961 -0.5418  0.4875  0.4427
 4070TIP3    H112174   3.348   4.656   2.989 -0.1344 -1.0391  2.0615
 4070TIP3    H212175   3.197   4.667   2.984  0.0427  1.6067 -0.4222
 4071TIP3   OH212176   0.892   6.531   1.145  0.0360 -0.0898  0.0948
 4071TIP3    H112177   0.807   6.488   1.154  0.0933 -0.0742  0.7931
 4071TIP3    H212178   0.903   6.544   1.051  0.1628 -1.9287 -0.1967
 4072TIP3   OH212179   2.458   4.780   1.455  0.0204 -0.1777  0.1668
 4072TIP3    H112180   2.392   4.768   1.524  0.3488 -1.1052  0.3304
 4072TIP3    H212181   2.407   4.791   1.375 -0.3340 -0.9569  0.2799
 4073TIP3   OH212182   1.063   2.139   1.505  0.2468  0.1770  0.4409
 4073TIP3    H112183   0.996   2.099   1.560 -1.2584  0.5796 -1.0075
 4073TIP3    H212184   1.063   2.087   1.425  2.6553 -0.6283  0.8601
 4074TIP3   OH212185   2.714   4.010   1.691 -0.6962  0.4921 -0.1123
 4074TIP3    H112186   2.683   3.925   1.723  0.0486  0.6419  1.0685
 4074TIP3    H212187   2.780   4.037   1.754 -0.0699  1.4115 -1.1237
 4075TIP3   OH212188   6.255   3.920   3.860  0.0474 -0.4625 -0.1323
 4075TIP3    H112189   6.310   3.865   3.916 -1.2267 -1.3548  0.2798
 4075TIP3    H212190   6.212   3.980   3.922 -0.0247 -0.2783 -0.3616
 4076TIP3   OH212191   2.657   5.673   1.915  0.4331 -0.4769  0.1875
 4076TIP3    H112192   2.689   5.750   1.961  0.1190 -0.5898  0.6080
 4076TIP3    H212193   2.724   5.654   1.850  0.5097  0.1496  0.0823
 4077TIP3   OH212194   4.547   0.126   3.884 -0.2262 -0.3966 -0.1814
 4077TIP3    H112195   4.606   0.070   3.936  0.1619  1.1323  1.0935
 4077TIP3    H212196   4.499   0.064   3.828 -0.1784 -2.0751  1.5106
 4078TIP3   OH212197   4.997   5.816   4.616  0.3068 -0.7758  0.4368
 4078TIP3    H112198   4.980   5.867   4.695 -2.3467 -0.4355 -0.2499
 4078TIP3    H212199   5.047   5.874   4.559 -2.3243  1.0666 -0.1822
 4079TIP3   OH212200   1.513   3.046   1.607 -0.9912 -0.3142 -0.0539
 4079TIP3    H112201   1.436   3.016   1.558 -1.3234 -0.6272  0.6396
 4079TIP3    H212202   1.513   3.141   1.595 -2.7632 -0.0301  1.6764
 4080TIP3   OH212203   0.590   5.276   5.171  0.2934  0.4549  0.7532
 4080TIP3    H112204   0.497   5.262   5.157  0.2597  0.6201  0.8013
 4080TIP3    H212205   0.628   5.189   5.176  0.2697  0.3900 -0.1043
 4081TIP3   OH212206   1.285   5.702   3.559  0.2079 -0.2421 -0.3127
 4081TIP3    H112207   1.305   5.608   3.549  0.4917 -0.3303  0.9543
 4081TIP3    H212208   1.361   5.738   3.604 -0.6888  0.2374  0.8551
 4082TIP3   OH212209   4.659   0.207   4.446  0.0311 -0.3005 -0.5808
 4082TIP3    H112210   4.697   0.122   4.426 -1.0507 -1.4136  1.7048
 4082TIP3    H212211   4.704   0.235   4.526 -0.9956  0.3412 -0.2105
 4083TIP3   OH212212   4.651   6.738   4.235 -0.2115 -0.0716  0.1641
 4083TIP3    H112213   4.638   6.647   4.263 -0.0165 -0.4424 -0.8913
 4083TIP3    H212214   4.566   6.763   4.197 -0.2921  0.2221  0.5330
 4084TIP3   OH212215   0.321   1.881   1.196 -0.2057  0.1373 -0.8576
 4084TIP3    H112216   0.240   1.838   1.173 -1.0880 -0.0446  2.1410
 4084TIP3    H212217   0.390   1.823   1.163 -1.3293 -1.2414 -0.8703
 4085TIP3   OH212218   2.557   4.367   5.511 -0.3351 -0.1574  0.6821
 4085TIP3    H112219   2.557   4.456   5.477 -2.0155  0.1765  1.4566
 4085TIP3    H212220   2.530   4.313   5.436  0.0674  0.0366  0.3886
 4086TIP3   OH212221   2.859   4.729   1.709 -0.2214 -0.8382 -0.2316
 4086TIP3    H112222   2.830   4.665   1.644  0.6842  0.2771 -1.8107
 4086TIP3    H212223   2.780   4.753   1.756 -0.8681 -1.8659 -0.7555
 4087TIP3   OH212224   6.731   1.778   4.548 -0.2369 -0.1192  0.5291
 4087TIP3    H112225   6.691   1.864   4.537  1.9500  1.3267  2.6797
 4087TIP3    H212226   6.766   1.756   4.462 -1.3453  0.8387 -0.1962
 4088TIP3   OH212227   6.593   4.285   5.752 -0.2559  0.3644 -0.3152
 4088TIP3    H112228   6.601   4.231   5.674  2.1622  0.4705 -0.2177
 4088TIP3    H212229   6.555   4.227   5.818 -2.2560  0.2575 -1.4868
 4089TIP3   OH212230   2.130   0.425   5.340 -0.2291 -0.0408 -0.0541
 4089TIP3    H112231   2.190   0.498   5.356 -1.5551  0.8314  1.1621
 4089TIP3    H212232   2.169   0.351   5.387 -0.6424  0.7989  1.6889
 4090TIP3   OH212233   5.467   2.352   3.719  0.8227  0.4608  0.3250
 4090TIP3    H112234   5.497   2.404   3.644  0.0941 -0.2670 -0.4937
 4090TIP3    H212235   5.492   2.263   3.698  0.8448  0.2772  1.0876
 4091TIP3   OH212236   6.263   2.499   0.951  0.2898  0.5451  0.1569
 4091TIP3    H112237   6.305   2.419   0.980  0.0917  0.6600  0.7773
 4091TIP3    H212238   6.210   2.473   0.876 -0.1297  0.0050  0.6340
 4092TIP3   OH212239   0.378   5.499   0.447 -0.7259  0.0956 -0.3305
 4092TIP3    H112240   0.406   5.453   0.368 -1.1547  1.6676 -1.4396
 4092TIP3    H212241   0.460   5.517   0.494 -0.6100 -2.7268  0.7489
 4093TIP3   OH212242   3.723   5.825   1.310  0.1837 -0.5018 -0.3307
 4093TIP3    H112243   3.774   5.786   1.239  1.9433  0.6415  0.2109
 4093TIP3    H212244   3.723   5.759   1.379  1.5855 -0.2941 -0.0899
 4094TIP3   OH212245   0.993   4.034   3.965  0.4314  0.3279 -0.6798
 4094TIP3    H112246   0.984   4.092   4.041  1.0968  0.7236 -0.9001
 4094TIP3    H212247   1.006   3.947   4.003  0.2177  0.4360 -0.3484
 4095TIP3   OH212248   1.164   2.824   5.106  0.2121  0.3016 -0.0753
 4095TIP3    H112249   1.164   2.810   5.011  1.9302  0.0905 -0.0664
 4095TIP3    H212250   1.088   2.775   5.136  1.5795 -2.6322 -0.9882
 4096TIP3   OH212251   4.591   1.179   5.159 -0.6782  0.8852 -0.1873
 4096TIP3    H112252   4.591   1.083   5.165 -0.8232  0.7615 -1.7393
 4096TIP3    H212253   4.631   1.208   5.241  0.4305 -0.5444 -0.1736
 4097TIP3   OH212254   1.913   6.519   3.070  0.1597 -0.2446  0.4413
 4097TIP3    H112255   1.836   6.539   3.122 -0.0129  1.0233 -0.2598
 4097TIP3    H212256   1.894   6.556   2.984  0.9286 -1.2470 -0.1807
 4098TIP3   OH212257   1.686   2.012   0.656 -0.2005  0.3464  0.1506
 4098TIP3    H112258   1.723   2.097   0.633  2.0574 -0.3939  0.7283
 4098TIP3    H212259   1.671   2.017   0.751 -2.6214  0.9463 -0.1958
 4099TIP3   OH212260   2.584   0.510   5.071 -0.8647 -0.1730  0.5758
 4099TIP3    H112261   2.651   0.550   5.127 -0.3420 -1.1580  0.6636
 4099TIP3    H212262   2.596   0.551   4.985 -1.3325  0.9646  1.0321
 4100TIP3   OH212263   1.940   4.966   3.321  0.5660  0.3188  0.3077
 4100TIP3    H112264   2.033   4.954   3.343  0.6300 -1.8751 -0.8216
 4100TIP3    H212265   1.894   4.937   3.400  0.8338  0.2958  0.4591
 4101TIP3   OH212266   5.653   4.104   4.107 -0.2283  0.6932 -0.3774
 4101TIP3    H112267   5.700   4.102   4.024  0.9060  0.0705  0.2450
 4101TIP3    H212268   5.575   4.051   4.093  1.5146 -2.0786 -0.1940
 4102TIP3   OH212269   0.995   0.321   4.580  0.1653  0.0994  0.3929
 4102TIP3    H112270   1.001   0.268   4.500  2.1618 -0.2376  0.7212
 4102TIP3    H212271   0.915   0.289   4.623 -0.7404  0.0235 -1.2567
 4103TIP3   OH212272   2.729   5.176   1.312  0.2781 -0.3408 -0.2210
 4103TIP3    H112273   2.801   5.116   1.331  0.0861  0.0278  1.8886
 4103TIP3    H212274   2.763   5.263   1.335 -0.2495  0.0634 -0.9353
 4104TIP3   OH212275   3.054   1.458   1.338 -0.2753  0.1680 -0.1001
 4104TIP3    H112276   3.078   1.381   1.287  1.2104 -0.2485  1.1336
 4104TIP3    H212277   2.989   1.426   1.401 -0.3215  0.1198 -0.1732
 4105TIP3   OH212278   2.568   2.746   3.290  0.0906  0.9485  0.1186
 4105TIP3    H112279   2.574   2.775   3.199 -2.8546  1.5815  0.0156
 4105TIP3    H212280   2.602   2.820   3.341 -1.5313  2.1334 -0.4111
 4106TIP3   OH212281   4.805   3.849   1.927 -0.2320 -0.0143 -0.6208
 4106TIP3    H112282   4.783   3.935   1.963  1.1094 -0.7022  2.0931
 4106TIP3    H212283   4.731   3.793   1.951  0.6009 -0.4408  1.1300
 4107TIP3   OH212284   7.187   1.654   3.070  0.5974  0.2192 -0.0880
 4107TIP3    H112285   7.272   1.697   3.061 -0.4976  2.3052 -1.3210
 4107TIP3    H212286   7.137   1.712   3.128  0.1872 -1.3160  1.1582
 4108TIP3   OH212287   0.786   6.335   0.269  0.0609  0.1019 -0.2024
 4108TIP3    H112288   0.873   6.375   0.268  0.9671 -1.6695  1.4028
 4108TIP3    H212289   0.744   6.367   0.189  1.6647  2.0726 -0.3284
 4109TIP3   OH212290   5.341   6.098   2.605  0.0314 -0.3287 -0.6730
 4109TIP3    H112291   5.336   6.029   2.671 -0.8379 -0.2316 -0.6205
 4109TIP3    H212292   5.362   6.178   2.654  0.4141 -0.4407 -0.6527
 4110TIP3   OH212293   4.024   4.099   1.585 -0.1763 -0.0047 -0.4425
 4110TIP3    H112294   3.958   4.124   1.649  0.5953 -2.0006  1.2421
 4110TIP3    H212295   3.975   4.060   1.513 -1.0464  2.1529 -1.0985
 4111TIP3   OH212296   6.111   4.207   3.573  0.4803  0.3944  0.0405
 4111TIP3    H112297   6.095   4.115   3.554  2.6523 -0.2892  1.1333
 4111TIP3    H212298   6.032   4.236   3.619  0.0937 -1.1648  0.4252
 4112TIP3   OH212299   0.149   4.792   0.332 -0.3890 -0.3141 -0.5327
 4112TIP3    H112300   0.067   4.760   0.295 -0.6422  0.2600 -0.4809
 4112TIP3    H212301   0.209   4.795   0.258 -0.6766  0.1191 -0.7522
 4113TIP3   OH212302   2.174   6.530   3.204  0.6813  0.0709  0.2075
 4113TIP3    H112303   2.205   6.443   3.181  1.0623 -0.0331  1.1121
 4113TIP3    H212304   2.106   6.549   3.139  0.4720 -0.9651  0.1167
 4114TIP3   OH212305   1.507   0.176   2.280  0.2404  0.6336 -1.1140
 4114TIP3    H112306   1.501   0.253   2.223 -1.2708 -0.6761 -2.8358
 4114TIP3    H212307   1.416   0.152   2.297  0.6914 -0.6242 -0.4088
 4115TIP3   OH212308   3.130   6.303   4.835 -0.0402  0.3158  0.2765
 4115TIP3    H112309   3.219   6.314   4.869  0.7149 -0.6043 -1.2787
 4115TIP3    H212310   3.141   6.307   4.739 -1.5488 -0.5853  0.0381
 4116TIP3   OH212311   6.714   5.200   3.705 -0.4831  0.2118  0.1359
 4116TIP3    H112312   6.748   5.138   3.641 -0.6009  0.0033  0.2754
 4116TIP3    H212313   6.736   5.162   3.790  1.5031  1.4613  0.2560
 4117TIP3   OH212314   3.538   6.630   1.549  0.3377  0.1821 -0.8081
 4117TIP3    H112315   3.592   6.688   1.494  0.6396  0.1155 -0.5864
 4117TIP3    H212316   3.551   6.663   1.638  1.0037 -0.6021 -0.6024
 4118TIP3   OH212317   2.123   3.303   3.170  0.0889  0.1951  0.0268
 4118TIP3    H112318   2.117   3.218   3.214  1.3313  1.0283  1.9538
 4118TIP3    H212319   2.072   3.362   3.225  1.5782  1.2531  0.3275
 4119TIP3   OH212320   5.896   5.857   5.184 -0.6162  0.6198 -0.0500
 4119TIP3    H112321   5.913   5.842   5.091 -0.0007 -0.9464  0.2879
 4119TIP3    H212322   5.872   5.771   5.218  0.8284  0.8146  1.5776
 4120TIP3   OH212323   4.934   5.818   1.739  0.3985 -0.0898 -0.0316
 4120TIP3    H112324   4.900   5.869   1.812  0.9347  0.4453 -0.1526
 4120TIP3    H212325   5.028   5.812   1.756  0.2242 -1.8867  0.5150
 4121TIP3   OH212326   5.122   0.072   5.484  0.0060  1.0272  0.3437
 4121TIP3    H112327   5.170  -0.006   5.457 -0.4482  1.0674 -0.6003
 4121TIP3    H212328   5.036   0.040   5.510  0.0730  1.1236  0.6891
 4122TIP3   OH212329   0.892   3.166   5.640  0.7478 -0.1109 -0.1098
 4122TIP3    H112330   0.961   3.227   5.666  0.2064  0.4170  0.0990
 4122TIP3    H212331   0.892   3.169   5.545 -0.2628  1.3549 -0.0931
 4123TIP3   OH212332   2.580   5.908   4.119  0.0896  0.0438 -0.3923
 4123TIP3    H112333   2.553   5.950   4.038  0.5020 -0.5932 -0.8703
 4123TIP3    H212334   2.522   5.832   4.128  0.2239 -0.0436 -0.2410
 4124TIP3   OH212335  -0.009   2.528   1.613 -0.1393  0.1387 -0.2475
 4124TIP3    H112336  -0.017   2.604   1.555  0.5011 -0.8024 -1.6177
 4124TIP3    H212337   0.079   2.534   1.649 -0.2289  0.2525 -0.0452
 4125TIP3   OH212338   7.067   4.384   4.931 -0.2843 -0.2947  0.4226
 4125TIP3    H112339   7.041   4.466   4.973 -1.8676 -0.2119 -0.6212
 4125TIP3    H212340   6.984   4.342   4.909  0.5045 -1.9932  0.5516
 4126TIP3   OH212341   3.068   3.002   1.073 -0.3994  0.3594  0.4696
 4126TIP3    H112342   3.025   2.979   0.990 -1.8832 -0.2036  1.3559
 4126TIP3    H212343   3.051   3.096   1.083  1.3827  0.8572 -0.7279
 4127TIP3   OH212344   2.746   3.308   5.463  0.2805 -0.5686 -0.2361
 4127TIP3    H112345   2.742   3.215   5.439  0.0335 -0.6113 -0.0321
 4127TIP3    H212346   2.794   3.309   5.546  0.7634 -0.4602 -0.5117
 4128TIP3   OH212347   2.802   1.439   4.215 -0.1939  0.6881 -0.3706
 4128TIP3    H112348   2.857   1.516   4.230 -0.1171  0.5770 -0.0781
 4128TIP3    H212349   2.737   1.441   4.285 -0.1554  0.4555 -0.3252
 4129TIP3   OH212350   4.869   1.147   4.597  0.3651 -0.5014 -0.4829
 4129TIP3    H112351   4.845   1.239   4.612 -0.2559 -0.3855 -2.0135
 4129TIP3    H212352   4.822   1.123   4.517  1.5149 -1.7862 -0.8044
 4130TIP3   OH212353   6.963   1.106   4.698 -0.2597  0.5734 -0.3313
 4130TIP3    H112354   7.027   1.036   4.706 -1.4920 -0.4779  0.7531
 4130TIP3    H212355   6.979   1.161   4.775 -2.6251 -1.4393  1.7332
 4131TIP3   OH212356   6.784   0.268   5.644 -0.2366  0.3405  0.6506
 4131TIP3    H112357   6.827   0.271   5.558 -0.0816 -0.7574  0.6705
 4131TIP3    H212358   6.714   0.203   5.633  0.4650 -0.6257  1.6305
 4132TIP3   OH212359   2.978   5.256   4.927  0.3433  0.6233  0.1177
 4132TIP3    H112360   2.954   5.221   5.014  1.6158 -1.2035 -0.1932
 4132TIP3    H212361   2.985   5.350   4.940 -1.8329  0.6922  1.4003
 4133TIP3   OH212362   2.079   1.686   4.279  0.1527  0.4563  0.8960
 4133TIP3    H112363   2.042   1.664   4.193  2.5352 -0.1263 -0.0591
 4133TIP3    H212364   2.007   1.671   4.340 -1.2550 -0.3521 -0.8569
 4134TIP3   OH212365   3.939   4.440   1.368  0.2753 -0.4274  0.2317
 4134TIP3    H112366   3.922   4.395   1.285 -0.6516 -2.0071  1.2118
 4134TIP3    H212367   4.033   4.429   1.383  0.5696  0.4389 -0.8992
 4135TIP3   OH212368   6.927   1.438   0.314 -0.0250  0.2771 -0.5684
 4135TIP3    H112369   6.846   1.401   0.350 -0.2195 -0.4555 -1.7105
 4135TIP3    H212370   6.945   1.514   0.369  0.0101 -1.0954  1.4116
 4136TIP3   OH212371   0.596   3.644   3.635  0.1368  0.0569  0.0277
 4136TIP3    H112372   0.602   3.725   3.685 -0.4404  0.3185 -0.3193
 4136TIP3    H212373   0.565   3.671   3.548  1.6978 -0.3106 -0.6873
 4137TIP3   OH212374   6.984   5.300   5.176  0.1442 -0.0528 -0.1799
 4137TIP3    H112375   6.909   5.284   5.233 -0.7735  0.4136 -1.2446
 4137TIP3    H212376   7.012   5.213   5.148 -1.9881 -0.1411 -2.2928
 4138TIP3   OH212377   2.109   1.879   1.534 -0.4029 -0.0575  0.4578
 4138TIP3    H112378   2.205   1.882   1.535 -0.2843 -2.2733  0.7644
 4138TIP3    H212379   2.084   1.942   1.466  1.2159  0.9145  0.6955
 4139TIP3   OH212380   5.644   5.316   2.972  0.3454  0.4445 -0.3355
 4139TIP3    H112381   5.707   5.246   2.990  0.0650  0.5285  1.0202
 4139TIP3    H212382   5.680   5.360   2.895  1.3452 -0.2202 -0.2720
 4140TIP3   OH212383   6.018   5.162   3.686  0.1451  0.4889 -0.1545
 4140TIP3    H112384   6.086   5.103   3.718 -1.3542 -0.7596  0.9074
 4140TIP3    H212385   6.065   5.235   3.646  2.0722 -0.8429 -0.4161
 4141TIP3   OH212386   5.966   0.534   2.821  0.0353  0.1239  0.2998
 4141TIP3    H112387   5.977   0.439   2.816  1.2401  0.3028 -0.8029
 4141TIP3    H212388   5.982   0.565   2.732 -2.1979  1.2083  0.2043
 4142TIP3   OH212389   0.794   1.250   3.595  0.1328 -0.1070  0.5198
 4142TIP3    H112390   0.850   1.248   3.517  1.3578 -2.9498  1.3322
 4142TIP3    H212391   0.745   1.168   3.590 -1.3521  0.6643  1.7059
 4143TIP3   OH212392   2.314   1.798   5.303  0.1373 -0.1806  0.2935
 4143TIP3    H112393   2.235   1.748   5.327 -0.1613 -0.4021 -1.0653
 4143TIP3    H212394   2.381   1.731   5.291  0.0277 -0.1696 -0.4213
 4144TIP3   OH212395   0.052   4.475   2.356  0.1640  0.4336  0.5116
 4144TIP3    H112396   0.093   4.508   2.436 -0.7321 -2.4609  2.3330
 4144TIP3    H212397   0.121   4.427   2.311  0.0342 -0.1705  0.9479
 4145TIP3   OH212398   2.517   1.921   2.938 -0.5497 -0.4471 -0.1312
 4145TIP3    H112399   2.427   1.945   2.916 -0.3727 -0.4481 -0.8856
 4145TIP3    H212400   2.559   2.004   2.960 -0.4673 -0.3180 -0.7755
 4146TIP3   OH212401   5.244   6.783   3.492 -0.4517  0.3897  0.0249
 4146TIP3    H112402   5.199   6.766   3.409  0.1886  0.4464 -0.3471
 4146TIP3    H212403   5.174   6.796   3.556 -0.9489 -0.6015 -0.3113
 4147TIP3   OH212404   2.535   2.990  -0.002  0.4428 -0.0535 -0.0584
 4147TIP3    H112405   2.538   3.071   0.049  0.1255 -0.2851  0.3413
 4147TIP3    H212406   2.524   2.921   0.064 -3.8077 -0.1190 -0.5491
 4148TIP3   OH212407   1.406   4.771   4.355 -0.0697 -0.1041 -0.8345
 4148TIP3    H112408   1.327   4.721   4.336 -0.0702 -0.8663  0.9802
 4148TIP3    H212409   1.418   4.827   4.278 -1.6556 -0.8635 -1.6835
 4149TIP3   OH212410   3.023   1.043   3.761  0.0140 -0.5343 -0.4162
 4149TIP3    H112411   3.028   1.004   3.848 -1.2767 -0.3056 -0.2319
 4149TIP3    H212412   2.931   1.037   3.736  0.1627  0.4336 -1.2834
 4150TIP3   OH212413   6.293   3.578   0.053  0.2310 -0.2863  0.6370
 4150TIP3    H112414   6.250   3.553  -0.029 -2.2684 -2.4680  2.4205
 4150TIP3    H212415   6.255   3.663   0.075  0.3852 -0.0183 -0.1021
 4151TIP3   OH212416   6.981   1.786   1.686 -0.3014 -0.5201  0.6539
 4151TIP3    H112417   7.028   1.866   1.709  1.1742 -1.6549  1.7993
 4151TIP3    H212418   6.890   1.804   1.710 -0.3661  1.4288 -0.8345
 4152TIP3   OH212419   2.568   3.978   3.636  0.4458 -0.0514 -0.0460
 4152TIP3    H112420   2.644   3.931   3.603  1.7610  1.9239 -0.0177
 4152TIP3    H212421   2.511   3.910   3.673  0.6756 -1.9494 -2.8628
 4153TIP3   OH212422   2.232   6.742   1.711 -0.1279  0.6930 -0.3301
 4153TIP3    H112423   2.139   6.756   1.697 -0.4368  1.9108  2.3945
 4153TIP3    H212424   2.238   6.655   1.751 -0.2025  1.0116  0.3787
 4154TIP3   OH212425   5.148   2.938   3.526  0.1431 -0.2089  0.2542
 4154TIP3    H112426   5.079   2.965   3.465 -0.1313 -0.3619  0.4977
 4154TIP3    H212427   5.227   2.934   3.471  0.3886  1.9021  0.3644
 4155TIP3   OH212428   4.072   4.872   2.647 -0.4310 -0.6333 -0.4808
 4155TIP3    H112429   4.059   4.794   2.592  1.1049 -0.6809 -0.8069
 4155TIP3    H212430   4.089   4.837   2.735  2.4173 -0.8400 -1.0171
 4156TIP3   OH212431   6.565   1.103   0.225  0.3231 -0.3759  0.5282
 4156TIP3    H112432   6.607   1.051   0.157  2.0448  2.4675 -0.8132
 4156TIP3    H212433   6.489   1.142   0.183  0.5773  0.2707  0.6499
 4157TIP3   OH212434   5.354   5.693   2.836 -0.3060 -0.0075  0.1808
 4157TIP3    H112435   5.434   5.649   2.865 -0.2872 -0.0059  0.1309
 4157TIP3    H212436   5.369   5.785   2.856 -0.1986  0.0252 -0.0513
 4158TIP3   OH212437   2.411   5.147   5.623  0.3287 -0.6044 -0.1547
 4158TIP3    H112438   2.337   5.101   5.663  0.4035 -0.4302  0.1793
 4158TIP3    H212439   2.426   5.099   5.541  1.2620 -2.0231  0.7912
 4159TIP3   OH212440   3.746   5.577   2.137  0.1401 -0.2194  0.1553
 4159TIP3    H112441   3.690   5.533   2.201  0.8541 -0.2214  0.7880
 4159TIP3    H212442   3.795   5.641   2.188  2.0615 -1.4658 -0.0405
 4160TIP3   OH212443   4.983   3.444   4.253  0.5113 -0.7308 -0.5215
 4160TIP3    H112444   4.921   3.513   4.228  2.4028  0.7136 -1.4354
 4160TIP3    H212445   4.929   3.380   4.301 -1.3112  1.4130  0.4807
 4161TIP3   OH212446   3.359   1.591   0.455 -0.4522 -0.2122  0.1643
 4161TIP3    H112447   3.299   1.651   0.410 -0.2777  0.6186  1.0003
 4161TIP3    H212448   3.315   1.572   0.538 -0.5515 -1.3426 -0.1261
 4162TIP3   OH212449   0.310   0.156   1.924  0.2277  0.1725 -0.3680
 4162TIP3    H112450   0.228   0.164   1.874 -0.9697  1.0189  1.6053
 4162TIP3    H212451   0.378   0.152   1.857 -1.2233  1.8570 -2.0919
 4163TIP3   OH212452   5.906   0.503   5.243 -0.7518  0.5551  0.2869
 4163TIP3    H112453   5.829   0.464   5.202 -0.1055  0.2942 -0.7321
 4163TIP3    H212454   5.908   0.465   5.331 -1.9828  0.8527  0.4627
 4164TIP3   OH212455   5.511   0.256   0.031  0.5557  0.0628 -0.5284
 4164TIP3    H112456   5.478   0.334   0.076  0.8794  0.4886 -1.0215
 4164TIP3    H212457   5.524   0.192   0.101  0.6828  0.5892 -0.0647
 4165TIP3   OH212458   1.034   6.349   3.674 -0.8234  0.1962  0.6970
 4165TIP3    H112459   0.996   6.435   3.693 -1.2901  0.1366  0.0513
 4165TIP3    H212460   1.070   6.320   3.758 -1.4610  0.6272  1.1284
 4166TIP3   OH212461   4.577   5.685   4.400 -0.4455  0.4723  0.1972
 4166TIP3    H112462   4.580   5.779   4.383  1.5690  0.7697  1.8371
 4166TIP3    H212463   4.594   5.644   4.316 -1.8157  1.5282 -0.6297
 4167TIP3   OH212464   3.273   3.815   4.582 -0.3637  0.5314  0.1161
 4167TIP3    H112465   3.261   3.720   4.576 -0.7180  0.5713  0.1677
 4167TIP3    H212466   3.347   3.834   4.523 -1.2228  0.4095 -1.0368
 4168TIP3   OH212467   1.330   1.850   2.306 -0.2797 -0.3741  0.1438
 4168TIP3    H112468   1.420   1.876   2.326  0.0358  0.0222 -1.6565
 4168TIP3    H212469   1.307   1.900   2.228 -2.3178  0.0319  0.9397
 4169TIP3   OH212470   5.404   2.090   4.174  0.3367 -0.0111  0.7983
 4169TIP3    H112471   5.486   2.138   4.163  0.5014 -0.1764  1.2752
 4169TIP3    H212472   5.336   2.155   4.160  0.4180 -0.5439 -3.1880
 4170TIP3   OH212473   7.168   1.581   4.386 -0.3407 -0.6159 -0.2382
 4170TIP3    H112474   7.218   1.517   4.335 -0.1455 -0.0876 -0.7328
 4170TIP3    H212475   7.080   1.544   4.391 -0.3397 -0.7282 -0.8861
 4171TIP3   OH212476   7.087   3.407   5.751 -0.1654 -0.5779  0.2720
 4171TIP3    H112477   7.051   3.475   5.808  2.3066  0.6330  0.5573
 4171TIP3    H212478   7.111   3.336   5.811 -3.3762 -2.1505 -0.0982
 4172TIP3   OH212479   2.510   3.402   2.697  0.0962  0.1771 -0.4490
 4172TIP3    H112480   2.522   3.466   2.627  1.3609 -0.1673 -0.5850
 4172TIP3    H212481   2.574   3.333   2.677 -0.1729 -0.3824  0.5339
 4173TIP3   OH212482   4.670   5.513   1.143  0.3149  0.3237  0.4879
 4173TIP3    H112483   4.596   5.539   1.088  1.6141  0.4596 -1.2951
 4173TIP3    H212484   4.697   5.594   1.186  0.7736  0.7692 -0.5882
 4174TIP3   OH212485   6.711   0.470   0.652  0.2670 -0.5661  0.1171
 4174TIP3    H112486   6.795   0.423   0.648  1.3374  1.1789  0.7080
 4174TIP3    H212487   6.689   0.488   0.561  0.9948 -0.2972 -0.0144
 4175TIP3   OH212488   0.167   6.118   1.898 -0.0568  0.2738  0.4054
 4175TIP3    H112489   0.156   6.154   1.986 -0.2885 -0.2980  0.6176
 4175TIP3    H212490   0.202   6.190   1.846  0.7239  0.4242  1.1240
 4176TIP3   OH212491   1.437   6.713   0.754  0.2228  0.0911 -0.4873
 4176TIP3    H112492   1.468   6.770   0.824 -0.0215 -1.6393  1.1425
 4176TIP3    H212493   1.384   6.769   0.698  0.1266  1.4962  0.9441
 4177TIP3   OH212494   1.230   0.828   3.122 -0.2493  0.7741 -0.5714
 4177TIP3    H112495   1.191   0.885   3.189  3.1967  1.1496  1.3650
 4177TIP3    H212496   1.254   0.886   3.051  0.6840  1.3097  0.1607
 4178TIP3   OH212497   1.298   2.432   1.712  0.2141 -0.1082 -0.0843
 4178TIP3    H112498   1.310   2.476   1.796  1.9706 -0.2588 -0.2056
 4178TIP3    H212499   1.222   2.474   1.673 -0.6223 -0.0248  1.5673
 4179TIP3   OH212500   1.471   4.483   3.195 -0.2848 -0.0526 -0.0709
 4179TIP3    H112501   1.532   4.550   3.224 -1.2859  0.3110  1.2930
 4179TIP3    H212502   1.443   4.511   3.108  0.9964  0.0960 -0.4396
 4180TIP3   OH212503   5.336   3.558   5.173 -0.2632  0.1475 -0.7543
 4180TIP3    H112504   5.293   3.488   5.125 -0.4695 -0.6543  0.5660
 4180TIP3    H212505   5.334   3.633   5.113 -2.7075 -0.1127 -1.0791
 4181TIP3   OH212506   3.941   6.068   3.984  0.5323 -0.2301  0.1022
 4181TIP3    H112507   4.010   6.061   4.050 -1.1208 -1.4585  1.7964
 4181TIP3    H212508   3.921   5.978   3.960  1.2906  0.1996 -2.3553
 4182TIP3   OH212509   3.634   1.788   3.674 -0.4802  0.1655  0.0348
 4182TIP3    H112510   3.630   1.735   3.594  0.1445 -0.1040  0.1720
 4182TIP3    H212511   3.666   1.728   3.741 -0.1334  0.6168  0.2813
 4183TIP3   OH212512   3.309   2.274   4.891  0.2500 -0.4882  0.4440
 4183TIP3    H112513   3.338   2.295   4.802  2.0427 -1.3937  0.7652
 4183TIP3    H212514   3.270   2.187   4.884  1.2126 -0.9563  0.6600
 4184TIP3   OH212515   3.437   1.632   1.888 -0.4434 -0.1480  0.4518
 4184TIP3    H112516   3.474   1.603   1.971 -0.7203 -0.0194  0.6204
 4184TIP3    H212517   3.428   1.727   1.897 -0.1362 -0.0854  0.1394
 4185TIP3   OH212518   3.045   0.951   4.349  0.4998 -0.0605  0.6413
 4185TIP3    H112519   3.104   0.918   4.282 -2.6489 -0.1891 -2.3196
 4185TIP3    H212520   3.017   0.873   4.397  1.6438 -0.1601  1.1689
 4186TIP3   OH212521   2.385   4.083   2.781  0.2119 -0.4110 -0.0093
 4186TIP3    H112522   2.429   4.141   2.719  1.7281 -1.2587  0.2361
 4186TIP3    H212523   2.435   4.001   2.777 -0.8518 -1.1323  0.9023
 4187TIP3   OH212524   2.415   1.365   3.528 -0.5494 -0.0174  0.0011
 4187TIP3    H112525   2.428   1.388   3.436 -0.2348  0.1339  0.0798
 4187TIP3    H212526   2.498   1.325   3.554  0.0712  1.6630  0.7330
 4188TIP3   OH212527   1.389   4.455   5.473 -0.4759  0.4879 -0.2197
 4188TIP3    H112528   1.346   4.401   5.406 -0.5468  1.0486 -0.6282
 4188TIP3    H212529   1.317   4.488   5.527 -0.3251 -1.2491  1.1384
 4189TIP3   OH212530   1.601   1.531   2.206  0.1559  0.0592 -0.2852
 4189TIP3    H112531   1.554   1.551   2.124  0.6312  0.0459 -0.5663
 4189TIP3    H212532   1.676   1.591   2.205  0.5631 -0.4459 -0.2165
 4190TIP3   OH212533   3.742   6.660   3.443 -0.1728  0.3350 -0.3466
 4190TIP3    H112534   3.693   6.610   3.509  1.6893 -0.8957  0.1948
 4190TIP3    H212535   3.832   6.659   3.475  0.6830  0.2596 -2.5967
 4191TIP3   OH212536   6.849   1.322   4.222 -0.2274 -0.6831 -0.6421
 4191TIP3    H112537   6.756   1.325   4.200 -0.4366  2.4938  0.1712
 4191TIP3    H212538   6.853   1.266   4.300 -1.7373  0.2453  0.1689
 4192TIP3   OH212539   0.997   5.870   5.011 -0.4264  0.4957 -0.0664
 4192TIP3    H112540   0.910   5.845   5.041 -0.9062 -0.3498 -1.9695
 4192TIP3    H212541   0.981   5.923   4.933  0.7477  1.8992  0.6091
 4193TIP3   OH212542   4.739   3.239   4.840  0.0813  0.2759 -0.0933
 4193TIP3    H112543   4.688   3.162   4.863  1.5623 -0.2260  1.7903
 4193TIP3    H212544   4.806   3.207   4.780  1.5030 -0.2560  1.6891
 4194TIP3   OH212545   4.462   5.403   2.534 -0.0728  0.0203  0.0283
 4194TIP3    H112546   4.472   5.393   2.439 -0.8133  1.4053 -0.2203
 4194TIP3    H212547   4.546   5.438   2.564 -0.1140  0.3505 -0.2398
 4195TIP3   OH212548   7.188   1.035   4.354 -0.0822 -0.9050 -0.2964
 4195TIP3    H112549   7.264   1.004   4.404  0.2565 -0.0354 -0.2642
 4195TIP3    H212550   7.131   1.075   4.420  0.0728 -0.3203 -0.5140
 4196TIP3   OH212551   7.173   0.880   4.111  0.1923  0.3999  0.1561
 4196TIP3    H112552   7.078   0.869   4.102  0.1534 -0.8014  1.5506
 4196TIP3    H212553   7.184   0.926   4.194  0.8619 -1.0963  0.9304
 4197TIP3   OH212554   3.136   3.929   0.142 -0.7445  0.2865 -0.7136
 4197TIP3    H112555   3.192   3.997   0.181 -2.0970  1.3056 -0.4665
 4197TIP3    H212556   3.117   3.961   0.054 -0.3145 -0.4469 -1.0843
 4198TIP3   OH212557   6.231   0.852   2.250 -0.2303  0.2093 -0.0579
 4198TIP3    H112558   6.265   0.807   2.172  0.3380  0.7630 -0.1392
 4198TIP3    H212559   6.173   0.788   2.291 -2.5479  0.6996 -2.2746
 4199TIP3   OH212560   4.719   0.089   1.979  0.4126  0.1690  0.0857
 4199TIP3    H112561   4.671   0.169   1.962  2.7298  1.6526  0.0619
 4199TIP3    H212562   4.688   0.027   1.912 -1.8648  0.7979  0.5045
 4200TIP3   OH212563   4.941   6.409   1.991 -0.2707  0.2019 -0.1677
 4200TIP3    H112564   4.860   6.362   1.972 -1.1613  1.6375  0.0167
 4200TIP3    H212565   4.988   6.352   2.052 -0.8621 -0.8971 -0.7085
 4201TIP3   OH212566   5.368   3.887   1.941 -0.3936 -0.1970 -0.3595
 4201TIP3    H112567   5.353   3.871   1.848 -0.2223  1.4017 -0.6887
 4201TIP3    H212568   5.389   3.801   1.977 -2.1490 -1.1434 -1.4531
 4202TIP3   OH212569   6.709   6.008   3.100 -0.1123  0.1036  0.3321
 4202TIP3    H112570   6.619   5.983   3.122  0.4107 -1.3454  0.9706
 4202TIP3    H212571   6.757   5.925   3.097  1.5123  0.9426  1.3600
 4203TIP3   OH212572   4.394   6.754   0.958 -0.2196  0.5717  0.8985
 4203TIP3    H112573   4.390   6.769   1.052  2.0612  3.1039  0.7039
 4203TIP3    H212574   4.319   6.801   0.922 -0.6291  0.2871  1.3836
 4204TIP3   OH212575   1.683   5.283   0.836  0.1012  0.3682 -0.4210
 4204TIP3    H112576   1.633   5.335   0.774 -0.3189  0.3637 -0.0897
 4204TIP3    H212577   1.733   5.222   0.782  1.1732  1.5888 -0.8662
 4205TIP3   OH212578   6.702   6.346   4.532  0.2149 -0.3407  0.2345
 4205TIP3    H112579   6.660   6.294   4.464 -1.7574 -0.1207  1.2024
 4205TIP3    H212580   6.782   6.298   4.554  1.6071  0.2384 -3.0322
 4206TIP3   OH212581   7.196   0.614   4.039 -0.4519  0.3001  0.5207
 4206TIP3    H112582   7.226   0.698   4.073  0.6528  0.1109  0.0786
 4206TIP3    H212583   7.165   0.634   3.950  0.2812  0.1807  0.2254
 4207TIP3   OH212584   6.298   0.319   1.960  0.2759 -0.0916  0.7419
 4207TIP3    H112585   6.356   0.355   2.027  3.2094 -2.3670 -0.3450
 4207TIP3    H212586   6.327   0.361   1.878 -0.5832 -0.2359  0.3574
 4208TIP3   OH212587   6.311   3.148   5.083  0.0384 -0.2635  0.1951
 4208TIP3    H112588   6.275   3.070   5.126  2.0646 -1.1049  0.4905
 4208TIP3    H212589   6.242   3.176   5.023 -0.3385 -3.0242 -0.8337
 4209TIP3   OH212590   3.083   0.646   2.463 -0.4698 -1.0118  0.0428
 4209TIP3    H112591   3.148   0.580   2.486  0.8057 -0.1915 -1.0289
 4209TIP3    H212592   3.059   0.627   2.373 -1.1936 -0.8770  0.2003
 4210TIP3   OH212593   1.078   6.418   4.673 -0.3414 -0.0541 -0.0895
 4210TIP3    H112594   1.156   6.378   4.635 -0.7366 -0.2391 -0.7064
 4210TIP3    H212595   1.065   6.371   4.756 -0.0797 -0.3448 -0.2147
 4211TIP3   OH212596   6.362   3.967   4.213  0.1965 -0.0607  0.4188
 4211TIP3    H112597   6.413   3.935   4.288  2.1411  1.8908  0.0320
 4211TIP3    H212598   6.354   4.061   4.228 -1.9650 -0.0593 -0.4021
 4212TIP3   OH212599   4.563   5.863   3.405  0.3358  0.3864  0.1868
 4212TIP3    H112600   4.632   5.805   3.373  0.9673  1.9972 -1.5939
 4212TIP3    H212601   4.481   5.816   3.385  0.8340 -0.0351 -0.9702
 4213TIP3   OH212602   2.575   2.054   1.975 -0.3752  0.4176  0.3837
 4213TIP3    H112603   2.511   1.988   1.949 -0.1611  0.4492 -0.2581
 4213TIP3    H212604   2.629   2.012   2.041 -0.5091  0.0955  0.2868
 4214TIP3   OH212605   6.857   0.337   3.243  0.3028 -0.4658  0.1356
 4214TIP3    H112606   6.802   0.270   3.285  0.0358 -0.6623 -0.5228
 4214TIP3    H212607   6.820   0.420   3.273  0.2871 -0.6022  0.5086
 4215TIP3   OH212608   0.013   2.618   0.882  0.3037 -0.2957 -0.3652
 4215TIP3    H112609  -0.045   2.694   0.876  0.3460 -0.2060  0.2605
 4215TIP3    H212610   0.052   2.611   0.795  2.5044  2.1735  0.2916
 4216TIP3   OH212611   6.183   0.379   3.825 -0.2602 -0.0178 -0.0659
 4216TIP3    H112612   6.142   0.459   3.792 -1.0254 -0.2219  0.3663
 4216TIP3    H212613   6.158   0.312   3.761  4.3347  0.8276 -3.2754
 4217TIP3   OH212614   4.158   3.031   1.803 -0.0964  0.0759 -0.1269
 4217TIP3    H112615   4.064   3.049   1.798 -0.0422  0.0891 -2.0833
 4217TIP3    H212616   4.198   3.118   1.806 -0.1300  0.0694  0.7893
 4218TIP3   OH212617   0.819   4.670   2.233 -0.0511  0.4732  0.2315
 4218TIP3    H112618   0.773   4.751   2.214 -1.2530 -0.1892  0.1949
 4218TIP3    H212619   0.900   4.697   2.276  0.7083  1.8098 -1.8640
 4219TIP3   OH212620   5.890   6.640   1.108 -0.4828 -0.0233 -0.4828
 4219TIP3    H112621   5.926   6.710   1.162 -0.6579  1.8556 -2.6322
 4219TIP3    H212622   5.932   6.561   1.140  2.4307  1.5142 -0.1967
 4220TIP3   OH212623   1.620   4.911   2.249 -0.2127  0.0337  0.3986
 4220TIP3    H112624   1.686   4.940   2.186 -1.5183 -0.4677 -1.2632
 4220TIP3    H212625   1.661   4.836   2.293  0.5395  0.0677 -0.2219
 4221TIP3   OH212626   1.596   0.411   4.442 -0.7325  0.5602 -0.2363
 4221TIP3    H112627   1.514   0.392   4.396 -0.1160  0.3311 -1.2611
 4221TIP3    H212628   1.596   0.506   4.453 -1.4222  0.5027  0.3256
 4222TIP3   OH212629   1.034   4.600   0.559  0.5768  0.5725 -1.1789
 4222TIP3    H112630   1.086   4.519   0.560 -0.1160  0.1096 -0.2691
 4222TIP3    H212631   1.043   4.635   0.648 -0.6672  0.4561 -0.9798
 4223TIP3   OH212632   4.396   0.563   0.554  0.9189  0.1412  0.0358
 4223TIP3    H112633   4.467   0.527   0.608 -1.0750 -2.7994  0.9756
 4223TIP3    H212634   4.341   0.611   0.615 -0.7921 -2.3386  0.6113
 4224TIP3   OH212635   1.686   5.509   5.867  0.2413 -0.7946 -0.3460
 4224TIP3    H112636   1.756   5.504   5.802  1.4087 -0.7470  0.8599
 4224TIP3    H212637   1.605   5.509   5.816  1.0415 -2.7714 -1.7110
 4225TIP3   OH212638   4.006   5.158   0.278  0.0557  0.3023 -0.5415
 4225TIP3    H112639   3.995   5.253   0.283 -0.5441  0.2183 -0.2710
 4225TIP3    H212640   3.929   5.122   0.321  0.6879 -0.3057  0.1027
 4226TIP3   OH212641   0.099   3.000   4.160  0.1981  0.7612  0.4625
 4226TIP3    H112642   0.023   3.034   4.113  1.3500  2.6046 -0.1590
 4226TIP3    H212643   0.080   3.018   4.252  0.0956  1.6978  0.2650
 4227TIP3   OH212644   6.152   2.557   1.190 -0.5147  0.4231  0.1230
 4227TIP3    H112645   6.182   2.563   1.099 -0.7297 -1.1842 -0.0867
 4227TIP3    H212646   6.062   2.525   1.184 -1.2598  2.2634  0.8587
 4228TIP3   OH212647   6.494   1.015   3.384  0.5629  0.5086  0.0670
 4228TIP3    H112648   6.554   0.944   3.406  0.4523  0.4325  0.1248
 4228TIP3    H212649   6.433   1.019   3.458 -1.0577 -1.0852 -1.0983
 4229TIP3   OH212650   2.653   5.853   5.263 -0.4468  0.0151  0.1913
 4229TIP3    H112651   2.670   5.765   5.229  1.6414 -0.4696  2.2554
 4229TIP3    H212652   2.663   5.911   5.187  1.5956 -1.2314 -0.5639
 4230TIP3   OH212653   6.028   0.511   4.982  1.0260  0.2348 -0.3776
 4230TIP3    H112654   6.009   0.479   5.070 -0.2724  0.0843 -0.6884
 4230TIP3    H212655   6.046   0.604   4.994 -0.0862  0.4301 -0.0352
 4231TIP3   OH212656   0.672   3.071   4.251 -0.0053  0.3332  0.0414
 4231TIP3    H112657   0.583   3.037   4.257  0.4131 -0.8894 -0.3847
 4231TIP3    H212658   0.712   3.051   4.336  0.6809 -1.5992 -0.6915
 4232TIP3   OH212659   0.232   4.693   3.616  0.2042  0.2181 -0.6850
 4232TIP3    H112660   0.225   4.615   3.672 -2.1950  0.2879 -0.7944
 4232TIP3    H212661   0.142   4.714   3.593  0.8563  2.5321 -1.3823
 4233TIP3   OH212662   1.585   1.665   1.039  0.2604  0.4158  0.0599
 4233TIP3    H112663   1.664   1.635   0.993  0.6548  0.9445  0.3853
 4233TIP3    H212664   1.612   1.674   1.130 -0.1807  0.6029  0.1751
 4234TIP3   OH212665   1.529   2.677   4.072 -0.0996  0.3562 -0.0046
 4234TIP3    H112666   1.560   2.726   3.996  0.2516 -0.7211 -0.5775
 4234TIP3    H212667   1.464   2.616   4.037 -0.4319  0.3056  0.6725
 4235TIP3   OH212668   5.352   0.073   3.754 -0.7427  0.1589 -0.0918
 4235TIP3    H112669   5.386   0.069   3.665  2.2171 -0.6250  0.9630
 4235TIP3    H212670   5.324  -0.017   3.773 -2.3023  0.5213 -0.4847
 4236TIP3   OH212671   1.792   0.459   3.749 -0.1162 -0.2846 -0.0838
 4236TIP3    H112672   1.827   0.458   3.838  1.8219  0.9432 -0.7687
 4236TIP3    H212673   1.845   0.396   3.701 -0.0581  0.2332 -0.7208
 4237TIP3   OH212674   4.199   1.107   3.295  0.0438 -0.4640  0.0020
 4237TIP3    H112675   4.110   1.141   3.292 -0.3224 -1.1266  1.9026
 4237TIP3    H212676   4.244   1.162   3.358  1.1663  0.1670 -1.2869
 4238TIP3   OH212677   2.683   6.151   0.967  0.0201  0.1132 -0.6461
 4238TIP3    H112678   2.666   6.167   0.874 -0.7630  0.0330 -0.5242
 4238TIP3    H212679   2.598   6.126   1.003  0.2033  0.6770  0.2048
 4239TIP3   OH212680   0.708   3.175   5.847  0.0585  0.0952  0.0845
 4239TIP3    H112681   0.751   3.131   5.921  0.9268 -0.5176 -0.7576
 4239TIP3    H212682   0.771   3.167   5.775 -1.2196 -0.2930 -1.0277
 4240TIP3   OH212683   2.978   2.841   3.791  0.0414  0.7020 -0.1787
 4240TIP3    H112684   2.950   2.761   3.836  0.2566  1.0122  0.5114
 4240TIP3    H212685   2.966   2.821   3.698 -0.4171  0.0600  0.0102
 4241TIP3   OH212686   6.282   5.473   1.929  0.4379  0.7105  0.1710
 4241TIP3    H112687   6.335   5.396   1.910  1.0002  1.5604 -2.0225
 4241TIP3    H212688   6.204   5.439   1.972 -0.2529 -1.3965 -2.4837
 4242TIP3   OH212689   1.393   0.235   3.027  0.9807 -0.0140  0.3118
 4242TIP3    H112690   1.313   0.196   2.991  0.1871 -0.3243  2.2997
 4242TIP3    H212691   1.434   0.277   2.952  0.5622 -2.4773 -1.4333
 4243TIP3   OH212692   2.476   1.667   1.052  0.3142  0.1034  0.0023
 4243TIP3    H112693   2.501   1.755   1.022 -0.5562 -0.4645 -2.6463
 4243TIP3    H212694   2.493   1.610   0.977 -0.8835 -1.6934  1.0146
 4244TIP3   OH212695   6.742   1.022   4.270  0.2090 -0.3388  0.1391
 4244TIP3    H112696   6.662   0.995   4.315 -0.0635 -2.1546 -1.3015
 4244TIP3    H212697   6.796   1.062   4.338 -0.4884 -2.2606  1.9248
 4245TIP3   OH212698   3.737   3.808   3.050 -0.0181 -0.5249  0.7556
 4245TIP3    H112699   3.720   3.776   2.961  0.4701 -0.5916  0.6862
 4245TIP3    H212700   3.651   3.837   3.081 -0.1638 -0.3380  0.1979
 4246TIP3   OH212701   6.698   3.950   0.446  0.1396 -0.1916 -0.1703
 4246TIP3    H112702   6.738   4.033   0.423  4.2376 -1.5404  1.2811
 4246TIP3    H212703   6.662   3.963   0.534  0.1119  0.1999 -0.2385
 4247TIP3   OH212704   2.052   2.279   5.489 -0.3124 -0.3381  0.3050
 4247TIP3    H112705   2.003   2.360   5.505 -0.4946 -0.3647 -0.1120
 4247TIP3    H212706   2.018   2.246   5.407 -1.4457 -1.7350  1.2856
 4248TIP3   OH212707   6.413   2.847   1.816  0.6387 -0.1690  0.7977
 4248TIP3    H112708   6.351   2.828   1.886  0.5055  1.0681  1.0333
 4248TIP3    H212709   6.469   2.769   1.812  0.2401 -0.5277  1.8327
 4249TIP3   OH212710   1.556   0.577   2.338  0.2016 -0.0661  0.6249
 4249TIP3    H112711   1.631   0.532   2.376  1.6101  1.1873 -0.5322
 4249TIP3    H212712   1.482   0.549   2.391  1.6068 -0.6759  2.3577
 4250TIP3   OH212713   3.135   1.383   3.287  0.1355  0.1253 -0.0951
 4250TIP3    H112714   3.165   1.441   3.357  2.2747  0.6110 -1.3182
 4250TIP3    H212715   3.213   1.332   3.262 -0.9156 -1.0448 -1.1637
 4251TIP3   OH212716   6.455   6.642   3.575 -0.1086 -0.2627 -0.2337
 4251TIP3    H112717   6.382   6.580   3.579  0.3527 -1.0076 -2.4309
 4251TIP3    H212718   6.528   6.592   3.541  1.4587  0.5244  1.7196
 4252TIP3   OH212719   0.267   1.510   3.943  0.2144  0.1545 -0.3223
 4252TIP3    H112720   0.264   1.532   4.036 -0.2966  1.1326 -0.5523
 4252TIP3    H212721   0.317   1.580   3.903 -0.5271  0.3549 -0.9357
 4253TIP3   OH212722   3.473   6.430   2.222  0.3405  0.2692  0.2604
 4253TIP3    H112723   3.422   6.392   2.150 -1.1378  0.1759  1.3136
 4253TIP3    H212724   3.562   6.401   2.206 -0.4918 -2.6375  0.3000
 4254TIP3   OH212725   3.081   4.677   4.984 -0.1243 -0.5506 -0.6120
 4254TIP3    H112726   3.070   4.592   4.939 -0.7196  0.1759 -1.9133
 4254TIP3    H212727   3.112   4.736   4.915  2.2194 -0.1240  0.7184
 4255TIP3   OH212728   3.639   2.040   4.803 -0.0285  0.1239  0.2126
 4255TIP3    H112729   3.610   2.100   4.871  0.9193  1.3011 -0.3782
 4255TIP3    H212730   3.718   2.000   4.839 -0.1994 -0.1683  0.2711
 4256TIP3   OH212731   1.171   1.408   4.234  0.4042 -0.2636 -0.2395
 4256TIP3    H112732   1.139   1.496   4.255  1.0662  0.1046 -0.7239
 4256TIP3    H212733   1.247   1.396   4.291 -0.8407 -1.3383  1.2790
 4257TIP3   OH212734   0.113   5.486   3.425  0.1907  0.2377  0.2993
 4257TIP3    H112735   0.105   5.492   3.520 -0.9012  2.2138  0.1253
 4257TIP3    H212736   0.037   5.435   3.398  1.1457 -1.3951  0.5282
 4258TIP3   OH212737   2.933   4.783   4.433 -0.3695 -0.0621 -0.1595
 4258TIP3    H112738   2.842   4.794   4.407 -0.9193 -1.4881  0.9758
 4258TIP3    H212739   2.973   4.733   4.362 -0.7498 -0.3077 -0.2013
 4259TIP3   OH212740   5.155   5.373   1.291  0.4913  0.2901  0.0329
 4259TIP3    H112741   5.125   5.305   1.230  0.8192  0.4480 -0.3115
 4259TIP3    H212742   5.164   5.451   1.237  0.1585  0.5982  0.4204
 4260TIP3   OH212743   0.414   1.924   2.200  0.0786 -0.2684  0.2428
 4260TIP3    H112744   0.330   1.891   2.169  0.6785 -0.0365 -1.8150
 4260TIP3    H212745   0.424   2.008   2.156  0.4534  0.7295  2.1356
 4261TIP3   OH212746   0.657   1.599   1.888  0.4877 -0.0396  0.1512
 4261TIP3    H112747   0.614   1.649   1.819  2.4262  0.0436 -1.0469
 4261TIP3    H212748   0.629   1.642   1.969  0.4520  1.6828 -0.7380
 4262TIP3   OH212749   2.025   6.085   0.221  0.3101  0.1546  0.3189
 4262TIP3    H112750   2.085   6.011   0.226  0.8307  0.6620  2.5190
 4262TIP3    H212751   2.071   6.149   0.167  0.8440 -0.2689  0.2619
 4263TIP3   OH212752   1.604   0.684   5.215 -0.6315  0.1877  0.5223
 4263TIP3    H112753   1.678   0.626   5.235  0.1027 -0.2645 -2.8804
 4263TIP3    H212754   1.639   0.773   5.228  0.6024 -0.0213 -1.0225
 4264TIP3   OH212755   6.914   4.950   4.578 -0.0954  0.1995 -0.3506
 4264TIP3    H112756   6.968   4.999   4.517  0.2634 -0.3293 -0.4624
 4264TIP3    H212757   6.825   4.957   4.543 -0.0516  0.7690 -0.3600
 4265TIP3   OH212758   5.764   5.603   5.215 -0.2983 -0.2304 -0.4437
 4265TIP3    H112759   5.673   5.581   5.236 -0.0142 -2.7207 -1.3549
 4265TIP3    H212760   5.786   5.542   5.144  1.4382  1.7695 -1.7169
 4266TIP3   OH212761   4.464   1.292   5.664 -0.9743  0.0298  0.2075
 4266TIP3    H112762   4.461   1.197   5.668 -0.1445 -0.0177 -0.0726
 4266TIP3    H212763   4.470   1.312   5.570  0.3667  0.2879  0.3336
 4267TIP3   OH212764   7.117   1.230   0.316  0.7048 -0.0836  0.2864
 4267TIP3    H112765   7.044   1.281   0.350  0.8064  0.5668 -0.4521
 4267TIP3    H212766   7.076   1.162   0.262  0.6110 -0.3021  0.6268
 4268TIP3   OH212767   2.449   4.023   4.467  0.0083 -0.6608  0.4985
 4268TIP3    H112768   2.382   4.045   4.403 -1.0202 -0.0001  1.7524
 4268TIP3    H212769   2.415   3.945   4.512 -0.6117  0.4523  2.0469
 4269TIP3   OH212770   3.284   0.846   1.247  0.1437  0.2909  0.2452
 4269TIP3    H112771   3.342   0.842   1.171 -0.9771  2.0769 -0.7738
 4269TIP3    H212772   3.242   0.760   1.250  0.1619  0.2061 -1.2099
 4270TIP3   OH212773   1.175   3.311   1.786  0.0917 -0.1645 -0.9918
 4270TIP3    H112774   1.251   3.344   1.834 -1.8161  1.9105  0.8171
 4270TIP3    H212775   1.151   3.231   1.833 -0.3812  0.6057  0.1157
 4271TIP3   OH212776   2.710   0.475   1.593 -0.6138  0.7326  0.1371
 4271TIP3    H112777   2.623   0.498   1.624  0.0097  0.8551  1.9609
 4271TIP3    H212778   2.702   0.384   1.563 -1.6694  1.2251 -1.1281
 4272TIP3   OH212779   1.445   0.895   0.102 -0.2188 -0.1605 -0.5546
 4272TIP3    H112780   1.457   0.975   0.051 -2.7779  0.8717  0.2621
 4272TIP3    H212781   1.407   0.925   0.185  0.7962 -2.0664  0.6917
 4273TIP3   OH212782   3.414   4.891   5.779  0.0836 -0.0129  0.0691
 4273TIP3    H112783   3.429   4.940   5.698 -2.1547 -2.3781 -1.9263
 4273TIP3    H212784   3.336   4.932   5.817 -0.5738 -0.6811 -0.5285
 4274TIP3   OH212785   3.272   2.024   3.272  0.1380 -0.1216 -0.0513
 4274TIP3    H112786   3.339   2.074   3.320 -0.1936  0.5765 -0.3190
 4274TIP3    H212787   3.193   2.077   3.278  0.3450  0.5260 -2.2978
 4275TIP3   OH212788   5.616   0.291   2.513  0.2257  0.2598  0.4522
 4275TIP3    H112789   5.584   0.380   2.521 -1.3541 -0.2680  0.4192
 4275TIP3    H212790   5.701   0.299   2.470 -0.5052  1.6488 -0.8087
 4276TIP3   OH212791   4.305   2.879   5.376  0.6736 -0.5776  0.3567
 4276TIP3    H112792   4.325   2.837   5.459  1.2986 -0.3396  0.3261
 4276TIP3    H212793   4.240   2.946   5.397 -1.0376 -2.1112  0.2795
 4277TIP3   OH212794   2.862   1.229   5.740  0.3435  0.2106 -0.0615
 4277TIP3    H112795   2.815   1.160   5.787  1.9220  0.1771  1.5587
 4277TIP3    H212796   2.802   1.304   5.742 -0.7661 -0.6310 -0.5171
 4278TIP3   OH212797   5.523   0.574   3.164 -0.0184  0.1119 -0.6953
 4278TIP3    H112798   5.525   0.669   3.150  0.0798  0.3523  0.7683
 4278TIP3    H212799   5.459   0.542   3.100  0.4705  1.0638 -1.6862
 4279TIP3   OH212800   1.100   0.497   4.821  0.2738 -0.0205 -0.1671
 4279TIP3    H112801   1.035   0.471   4.887  0.3337  0.4000  0.0612
 4279TIP3    H212802   1.049   0.508   4.740  0.2337 -0.7405 -0.2447
 4280TIP3   OH212803   5.445   2.356   3.037 -0.3137  0.3373 -0.0934
 4280TIP3    H112804   5.512   2.392   3.096 -0.8660 -0.1144  0.8410
 4280TIP3    H212805   5.485   2.279   2.999  0.2054  0.8764 -0.6655
 4281TIP3   OH212806   5.728   0.687   2.435  0.5092  0.2903  0.4962
 4281TIP3    H112807   5.652   0.648   2.390 -0.2717  0.5643  1.5407
 4281TIP3    H212808   5.690   0.759   2.486  1.6371  1.1118  0.2008
 4282TIP3   OH212809   5.997   4.622   2.768 -0.5560 -0.3950  0.0012
 4282TIP3    H112810   5.938   4.670   2.827 -0.2781 -0.6753  0.5195
 4282TIP3    H212811   5.980   4.530   2.788  2.0566 -0.5205  2.2705
 4283TIP3   OH212812   0.477   6.246   3.302 -0.0558 -0.0561  0.3035
 4283TIP3    H112813   0.543   6.178   3.310 -0.3262 -0.3761 -0.1708
 4283TIP3    H212814   0.491   6.302   3.379  1.2958  0.3456 -0.2085
 4284TIP3   OH212815   5.887   6.119   1.548  0.5532  0.1131  0.1537
 4284TIP3    H112816   5.849   6.038   1.581  0.9383 -1.1698 -2.3295
 4284TIP3    H212817   5.968   6.129   1.598  0.8680 -1.4501  0.0111
 4285TIP3   OH212818   0.593   0.852   3.867 -0.0953  0.4044 -0.3905
 4285TIP3    H112819   0.600   0.916   3.796 -0.0369  1.5903  0.6443
 4285TIP3    H212820   0.512   0.805   3.849 -0.1861  0.8173 -1.1305
 4286TIP3   OH212821   7.014   3.322   2.232 -0.1595  0.2965  0.2225
 4286TIP3    H112822   6.949   3.379   2.190  1.2739  1.3441 -0.6498
 4286TIP3    H212823   7.025   3.250   2.170 -0.9568 -0.2432  0.6870
 4287TIP3   OH212824   6.568   2.026   4.535  0.0360  0.0108  0.3432
 4287TIP3    H112825   6.600   2.056   4.450 -1.1231 -1.5620 -0.7155
 4287TIP3    H212826   6.473   2.037   4.530  0.0414  0.9565  1.9007
 4288TIP3   OH212827   1.705   2.931   3.047  0.2221  0.0693 -0.0744
 4288TIP3    H112828   1.734   3.007   2.998  0.2398  0.5507  0.6698
 4288TIP3    H212829   1.687   2.865   2.980  1.7553  0.1818 -0.6248
 4289TIP3   OH212830   0.451   2.409   3.821 -0.1143 -0.1082 -0.2973
 4289TIP3    H112831   0.392   2.445   3.756  0.6510 -0.3602 -1.1497
 4289TIP3    H212832   0.493   2.485   3.861  0.4230  0.0193 -1.0745
 4290TIP3   OH212833   2.766   6.241   2.355 -0.3609 -0.1544 -0.3396
 4290TIP3    H112834   2.737   6.219   2.443 -0.1782  0.9044  0.0060
 4290TIP3    H212835   2.850   6.285   2.367 -1.1353  1.5657 -0.8716
 4291TIP3   OH212836   0.619   6.698   1.116 -0.1091 -0.2658 -0.2462
 4291TIP3    H112837   0.666   6.754   1.055 -1.5618  0.8655 -0.4074
 4291TIP3    H212838   0.685   6.670   1.179  0.5761  2.3595  0.3372
 4292TIP3   OH212839   4.801   5.704   0.889 -0.1451 -0.1470 -0.9284
 4292TIP3    H112840   4.751   5.672   0.964 -2.0053  2.5182 -0.8893
 4292TIP3    H212841   4.883   5.737   0.927 -0.8133  0.6272 -0.1051
 4293TIP3   OH212842   4.476   0.486   0.945  0.0434 -0.6668  0.3004
 4293TIP3    H112843   4.554   0.440   0.978  0.9737  0.9713  0.5070
 4293TIP3    H212844   4.425   0.506   1.023 -0.9033 -2.2031  0.1211
 4294TIP3   OH212845   6.614   1.629   3.696 -0.5420  0.4303 -0.1552
 4294TIP3    H112846   6.632   1.536   3.683 -2.2386  0.3140 -2.0502
 4294TIP3    H212847   6.579   1.634   3.785 -1.7344 -0.9903 -0.4961
 4295TIP3   OH212848   2.137   0.775   5.565 -0.6588 -0.2283  0.2961
 4295TIP3    H112849   2.140   0.825   5.646 -0.1315 -0.6427  0.5417
 4295TIP3    H212850   2.184   0.694   5.585 -0.6592 -0.4040 -0.3739
 4296TIP3   OH212851   5.965   0.851   4.617  0.3427 -0.3063 -0.5362
 4296TIP3    H112852   5.948   0.788   4.686 -0.2217 -0.7260 -1.0475
 4296TIP3    H212853   6.057   0.839   4.595  0.7797  0.4672  0.7560
 4297TIP3   OH212854   6.942   2.203  -0.009 -0.0798 -0.2341 -0.2468
 4297TIP3    H112855   6.877   2.182   0.057 -0.2074  1.6904  0.2945
 4297TIP3    H212856   7.004   2.130  -0.006 -0.3120 -0.3868  1.6915
 4298TIP3   OH212857   4.694   4.252   3.123  0.0329  0.3156 -0.4193
 4298TIP3    H112858   4.722   4.165   3.150 -0.3270 -0.3332 -2.0137
 4298TIP3    H212859   4.755   4.276   3.053 -0.5869  0.8294 -0.7956
 4299TIP3   OH212860   0.279   2.267   4.021  0.1757 -0.2194 -0.1693
 4299TIP3    H112861   0.342   2.305   3.960  0.4835 -0.1698  0.1767
 4299TIP3    H212862   0.330   2.250   4.101 -0.3234  0.1403  0.2319
 4300TIP3   OH212863   3.815   6.045   4.235  0.4393  0.2533  0.7217
 4300TIP3    H112864   3.812   6.108   4.307 -2.0262 -0.4676  1.3312
 4300TIP3    H212865   3.909   6.032   4.219  1.0360  1.7530  2.5977
 4301TIP3   OH212866   6.866   4.550   1.595  0.5282 -0.2230 -0.2639
 4301TIP3    H112867   6.939   4.510   1.549  1.9591  0.8159  1.0105
 4301TIP3    H212868   6.859   4.502   1.677 -0.2431 -0.3292 -0.3838
 4302TIP3   OH212869   1.429   0.879   1.833 -0.0503  0.1824  0.3501
 4302TIP3    H112870   1.411   0.796   1.876  0.4211  0.9708  2.2058
 4302TIP3    H212871   1.361   0.888   1.767 -0.8341 -1.1162  0.9500
 4303TIP3   OH212872   4.354   4.249   0.743  0.2166  0.4815 -0.5354
 4303TIP3    H112873   4.281   4.187   0.742 -0.9307  1.7910 -0.2721
 4303TIP3    H212874   4.423   4.206   0.691 -1.2137 -0.1993 -1.9402
 4304TIP3   OH212875   5.228   2.772   0.784  0.0274 -0.3138 -0.7673
 4304TIP3    H112876   5.249   2.688   0.825  2.7397  0.2762 -0.7721
 4304TIP3    H212877   5.180   2.820   0.851 -1.7953 -1.8808 -0.8511
 4305TIP3   OH212878   3.073   1.485   0.371  0.0800 -0.2482 -0.6178
 4305TIP3    H112879   2.995   1.493   0.426  0.2356  1.1705 -0.5615
 4305TIP3    H212880   3.096   1.575   0.348  1.6403 -0.6319 -0.7275
 4306TIP3   OH212881   2.045   0.925   1.655  0.3031 -0.1070  0.0555
 4306TIP3    H112882   2.097   0.967   1.588  1.3340  0.1116  0.9611
 4306TIP3    H212883   2.039   0.833   1.628 -0.3838  0.2255 -0.9695
 4307TIP3   OH212884   3.576   4.186   0.727  0.6233  0.1070 -0.4237
 4307TIP3    H112885   3.573   4.247   0.653  0.8320  1.9079  0.9994
 4307TIP3    H212886   3.517   4.224   0.792  1.5553 -0.6702  0.9195
 4308TIP3   OH212887   5.357   0.680   0.730 -0.5931 -0.4277  0.1057
 4308TIP3    H112888   5.275   0.640   0.701 -1.1353  0.8149 -0.1788
 4308TIP3    H212889   5.333   0.728   0.810 -0.4735  0.9942 -0.6752
 4309TIP3   OH212890   4.289   4.260   2.685  0.3862  0.4358 -0.2188
 4309TIP3    H112891   4.293   4.166   2.668 -0.5995  0.5594 -1.2768
 4309TIP3    H212892   4.298   4.300   2.599 -0.6457  1.2602  0.0342
 4310TIP3   OH212893   2.474   0.618   3.230  0.8040 -0.2486  0.1905
 4310TIP3    H112894   2.535   0.677   3.186 -0.7022  0.2605 -1.3350
 4310TIP3    H212895   2.443   0.667   3.306  0.0076  0.7234 -0.7407
 4311TIP3   OH212896   3.521   2.453   0.448  0.1603  0.0982  0.5598
 4311TIP3    H112897   3.456   2.478   0.514 -1.2695  1.2449 -1.1628
 4311TIP3    H212898   3.492   2.499   0.369  1.2486 -1.9547 -1.1202
 4312TIP3   OH212899   5.034   4.131   4.273 -0.0129  0.5999  0.4256
 4312TIP3    H112900   4.940   4.137   4.290 -0.5983 -2.3275 -1.1411
 4312TIP3    H212901   5.073   4.115   4.360 -1.0173  1.1935  1.0005
 4313TIP3   OH212902   6.924   4.737   2.507 -0.0230  0.3656  0.2605
 4313TIP3    H112903   6.831   4.713   2.501  0.4961 -1.7147 -0.1827
 4313TIP3    H212904   6.939   4.792   2.430 -0.6970 -0.0264 -0.1628
 4314TIP3   OH212905   6.999   0.651   5.703 -0.1388 -0.6982  0.4892
 4314TIP3    H112906   7.023   0.654   5.611 -0.0737  0.1843  0.5223
 4314TIP3    H212907   7.083   0.660   5.750 -0.3977  1.5869  0.6072
 4315TIP3   OH212908   5.036   6.148   2.131  0.1924  0.2372  0.5813
 4315TIP3    H112909   4.971   6.126   2.197 -0.5231 -0.5607 -0.3748
 4315TIP3    H212910   5.116   6.104   2.161 -0.5506 -1.5400  0.0659
 4316TIP3   OH212911   0.553   3.767   1.828  0.0270 -0.5576  0.4546
 4316TIP3    H112912   0.621   3.713   1.868 -0.7400 -0.0784  2.5761
 4316TIP3    H212913   0.522   3.716   1.753  4.3021  0.2527 -2.2258
 4317TIP3   OH212914   6.839   4.215   4.826  0.0989  0.7560  0.1406
 4317TIP3    H112915   6.823   4.135   4.775  1.0221  1.9379 -2.1327
 4317TIP3    H212916   6.754   4.259   4.829  0.3864  1.6170 -2.1986
 4318TIP3   OH212917   0.294   1.600   2.157  0.5429 -0.0785 -0.2099
 4318TIP3    H112918   0.261   1.686   2.129  1.3075  0.4394  0.4491
 4318TIP3    H212919   0.389   1.611   2.160  0.6776 -1.1008 -0.5882
 4319TIP3   OH212920   3.879   2.982   5.241  0.0896 -0.8040 -0.6922
 4319TIP3    H112921   3.959   3.009   5.287 -0.4759  0.8626 -0.6058
 4319TIP3    H212922   3.895   3.005   5.150 -0.0368 -1.1217 -0.7961
 4320TIP3   OH212923   3.287   4.451   0.324 -0.1517 -0.0838 -0.1893
 4320TIP3    H112924   3.239   4.446   0.241  1.8292 -0.1798 -1.3939
 4320TIP3    H212925   3.265   4.537   0.359 -0.0593  0.4668 -1.4313
 4321TIP3   OH212926   3.625   4.130   4.461  0.1925 -0.0236  0.7251
 4321TIP3    H112927   3.643   4.036   4.456  0.7403  0.0972  0.1956
 4321TIP3    H212928   3.709   4.171   4.439 -0.6374  0.5671 -1.6772
 4322TIP3   OH212929   0.599   4.991   4.454  0.1461 -0.1511 -0.2551
 4322TIP3    H112930   0.539   4.936   4.505 -0.8386  2.6723  1.8963
 4322TIP3    H212931   0.542   5.053   4.408  1.2641  1.7920  0.8236
 4323TIP3   OH212932   4.909   2.409   0.435 -0.1709 -0.0948 -0.1587
 4323TIP3    H112933   4.862   2.419   0.352 -2.4534  0.2570  1.1012
 4323TIP3    H212934   4.929   2.316   0.439 -0.3585 -0.1805 -0.9427
 4324TIP3   OH212935   6.367   2.619   5.380 -0.2134 -0.3652  0.2264
 4324TIP3    H112936   6.423   2.552   5.420  1.5474  2.0129  1.9718
 4324TIP3    H212937   6.308   2.646   5.451 -1.6202 -0.7167 -0.7564
 4325TIP3   OH212938   4.220   2.863   5.122 -0.0809  0.0583  0.2232
 4325TIP3    H112939   4.252   2.858   5.212  0.4807 -1.9666 -0.0300
 4325TIP3    H212940   4.277   2.802   5.074 -0.6469  0.7784 -1.4164
 4326TIP3   OH212941   7.079   6.198   3.211 -0.4853 -0.0466 -0.0561
 4326TIP3    H112942   7.086   6.114   3.256 -3.2275 -0.3474 -0.0454
 4326TIP3    H212943   7.075   6.176   3.118  3.0824  0.4482 -0.4715
 4327TIP3   OH212944   4.728   5.473   3.282  0.0308  0.0101  0.1318
 4327TIP3    H112945   4.726   5.460   3.377 -0.2650  0.4725  0.1904
 4327TIP3    H212946   4.715   5.385   3.246 -2.0343  0.1196  0.5236
 4328TIP3   OH212947   4.257   2.609   0.625 -0.2033 -0.1235  0.2235
 4328TIP3    H112948   4.308   2.685   0.655  0.7285 -0.4916 -0.3754
 4328TIP3    H212949   4.315   2.534   0.641 -0.7678 -0.6122  0.0017
 4329TIP3   OH212950   6.288   0.430   0.560  0.0728  0.1552 -0.4795
 4329TIP3    H112951   6.358   0.418   0.624 -0.8986 -2.1244  0.2742
 4329TIP3    H212952   6.328   0.405   0.476  0.4396 -0.1508 -0.2171
 4330TIP3   OH212953   3.942   2.903   5.532  0.0308 -0.7097 -0.0499
 4330TIP3    H112954   4.013   2.930   5.474  0.5672  0.7401  1.2194
 4330TIP3    H212955   3.891   2.840   5.480  1.9579 -1.4442 -1.1516
 4331TIP3   OH212956   0.741   5.103   2.312 -0.1214  0.5365  0.1469
 4331TIP3    H112957   0.808   5.171   2.321  0.5693  0.1328 -1.6288
 4331TIP3    H212958   0.688   5.131   2.238  2.0915 -2.2992 -2.7712
 4332TIP3   OH212959   2.402   0.979   1.312 -0.0247  0.3796 -0.2090
 4332TIP3    H112960   2.389   0.987   1.407  1.1553  1.3637 -0.1015
 4332TIP3    H212961   2.321   1.015   1.275 -0.6698 -0.3852  0.4057
 4333TIP3   OH212962   6.417   6.393   0.288 -0.0444 -0.5815 -0.1578
 4333TIP3    H112963   6.344   6.451   0.313 -0.0191 -0.0332 -1.3045
 4333TIP3    H212964   6.463   6.441   0.219  1.2415 -1.0542  0.3476
 4334TIP3   OH212965   1.819   5.836   1.329  0.7033  0.7134  0.1036
 4334TIP3    H112966   1.840   5.754   1.373 -1.0752  1.1695  1.9444
 4334TIP3    H212967   1.823   5.902   1.398 -0.3064  1.7897 -0.8186
 4335TIP3   OH212968   5.239   3.348   4.999  0.2351 -0.0658  0.5591
 4335TIP3    H112969   5.159   3.300   5.021  0.0617  0.6549  1.5524
 4335TIP3    H212970   5.232   3.364   4.904 -0.9869  0.3381  0.7033
 4336TIP3   OH212971   1.465   5.852   2.256  0.3887  0.3474 -0.1272
 4336TIP3    H112972   1.429   5.764   2.247  1.2570 -0.0144 -0.1814
 4336TIP3    H212973   1.414   5.891   2.328 -1.2408  0.4784 -1.3020
 4337TIP3   OH212974   5.643   5.816   4.988 -0.4178 -0.0267  0.2783
 4337TIP3    H112975   5.621   5.756   4.917  0.6818  0.3148 -0.3781
 4337TIP3    H212976   5.709   5.770   5.039  1.2649  1.0098 -0.8703
 4338TIP3   OH212977   5.719   3.689   2.735  0.4627 -0.3978 -0.4385
 4338TIP3    H112978   5.670   3.742   2.671  0.0498 -0.6132 -0.3091
 4338TIP3    H212979   5.651   3.637   2.778  0.5928  0.4883  0.8933
 4339TIP3   OH212980   7.072   4.042   1.162 -0.0325  0.7358 -0.0879
 4339TIP3    H112981   7.045   4.098   1.089  0.7544  0.1344 -0.8814
 4339TIP3    H212982   7.159   4.075   1.186  0.4977 -0.1933 -0.6544
 4340TIP3   OH212983   6.256   2.697   4.504  0.2237  0.1666 -0.7951
 4340TIP3    H112984   6.190   2.736   4.447  0.0704  0.7272 -0.2349
 4340TIP3    H212985   6.339   2.734   4.474  0.2422 -0.1986 -1.2082
 4341TIP3   OH212986   4.497   5.988   1.856  0.1490  0.4275  0.0800
 4341TIP3    H112987   4.535   5.903   1.832 -0.0735  0.4394 -0.3280
 4341TIP3    H212988   4.526   6.003   1.946 -0.4229 -0.4351  0.4306
 4342TIP3   OH212989   0.830   4.563   5.250 -0.6905  0.5123  0.1144
 4342TIP3    H112990   0.786   4.481   5.226 -0.3049  0.2420  0.3205
 4342TIP3    H212991   0.826   4.565   5.346  0.2528  0.1943  0.1674
 4343TIP3   OH212992   2.356   1.107   0.750  0.1209  0.2506 -0.0620
 4343TIP3    H112993   2.354   1.137   0.659  0.9723 -0.1826 -0.2310
 4343TIP3    H212994   2.352   1.012   0.745  1.0326  0.1791  0.3039
 4344TIP3   OH212995   2.118   6.636   5.148 -0.2251 -0.1631  0.4350
 4344TIP3    H112996   2.151   6.709   5.201 -0.9155 -0.7130  1.6830
 4344TIP3    H212997   2.194   6.608   5.096  0.1867  1.0808  0.3370
 4345TIP3   OH212998   0.766   2.528   1.604 -0.2885 -0.2317 -0.3060
 4345TIP3    H112999   0.799   2.587   1.672  0.3850  0.8140 -1.4870
 4345TIP3    H213000   0.845   2.492   1.563 -0.6783 -0.8307 -0.5480
 4346TIP3   OH213001   5.219   2.185   1.582 -0.1741 -0.3281 -0.4548
 4346TIP3    H113002   5.290   2.191   1.518 -1.1736  0.5422 -1.5170
 4346TIP3    H213003   5.139   2.184   1.529 -0.9972 -0.5428  0.7512
 4347TIP3   OH213004   3.928   1.273   1.763 -0.0636  0.4568  0.0203
 4347TIP3    H113005   3.889   1.213   1.699 -0.3121  0.1020  0.5009
 4347TIP3    H213006   3.891   1.246   1.847  1.4534 -0.1084  0.5423
 4348TIP3   OH213007   2.213   0.685   2.589 -0.1688 -0.1019  0.4067
 4348TIP3    H113008   2.154   0.614   2.614  0.2886 -0.7296 -0.2388
 4348TIP3    H213009   2.172   0.724   2.512  0.6235 -1.0710 -0.5530
 4349TIP3   OH213010   5.708   2.466   5.242  0.1175 -0.0835 -0.0436
 4349TIP3    H113011   5.758   2.425   5.172 -0.6982 -0.0678 -0.6491
 4349TIP3    H213012   5.769   2.470   5.316  0.9480 -0.2151 -0.7077
 4350TIP3   OH213013   2.835   3.991   2.198  1.0427 -0.4876  0.3858
 4350TIP3    H113014   2.858   3.918   2.140  1.1962 -0.9607  1.0362
 4350TIP3    H213015   2.918   4.037   2.212  1.1968 -0.9593  1.0335
 4351TIP3   OH213016   0.381   6.364   2.094  0.6656  0.6005 -0.1334
 4351TIP3    H113017   0.390   6.386   2.001  0.4956 -0.7424 -0.4904
 4351TIP3    H213018   0.342   6.277   2.094  2.6493 -0.3464  1.1650
 4352TIP3   OH213019   0.069   2.120   5.770  0.5385 -0.1398  0.5164
 4352TIP3    H113020   0.090   2.163   5.853 -2.7493  1.4906  0.6548
 4352TIP3    H213021   0.061   2.027   5.793 -0.3170  0.2825  2.0798
 4353TIP3   OH213022   6.250   1.093   1.553  0.1180 -0.6503  0.0676
 4353TIP3    H113023   6.217   1.104   1.464  1.1232 -0.8230 -0.3472
 4353TIP3    H213024   6.338   1.057   1.541  0.8311  0.6469  1.0750
 4354TIP3   OH213025   5.258   6.558   4.090 -0.1309  0.0241 -0.4201
 4354TIP3    H113026   5.188   6.603   4.044  0.9388  2.5382  0.2213
 4354TIP3    H213027   5.322   6.538   4.022 -0.1174  0.5440 -0.5680
 4355TIP3   OH213028   3.314   2.509   2.834 -0.5310 -0.0373 -0.4467
 4355TIP3    H113029   3.377   2.580   2.818 -1.5499  0.9912 -0.0834
 4355TIP3    H213030   3.307   2.504   2.929 -2.4613  1.2753 -0.4496
 4356TIP3   OH213031   1.705   3.268   0.139  0.0914  0.0085  0.7607
 4356TIP3    H113032   1.628   3.250   0.084  0.1388 -1.8921  1.2645
 4356TIP3    H213033   1.680   3.345   0.190 -0.6395  0.7204 -0.6083
 4357TIP3   OH213034   6.447   3.982   3.368  0.2801  0.4413  0.0496
 4357TIP3    H113035   6.444   4.068   3.410 -2.4068 -0.3719  1.8141
 4357TIP3    H213036   6.497   3.928   3.429  1.4288  0.5611 -0.7553
 4358TIP3   OH213037   6.967   4.720   5.569  0.0047  0.0216 -0.0226
 4358TIP3    H113038   6.991   4.791   5.628 -0.5059 -0.1860  0.4386
 4358TIP3    H213039   6.938   4.764   5.489  0.1837  0.3159  0.0730
 4359TIP3   OH213040   4.767   1.316   3.882  0.0887 -0.5336 -0.0900
 4359TIP3    H113041   4.792   1.393   3.933 -1.3063 -0.4523  0.5192
 4359TIP3    H213042   4.689   1.282   3.927  0.3074 -1.9283 -0.7198
 4360TIP3   OH213043   7.182   4.793   0.613 -0.1144 -0.4579  0.0161
 4360TIP3    H113044   7.202   4.886   0.612 -1.4425 -0.1568 -0.7398
 4360TIP3    H213045   7.241   4.755   0.547  0.3036 -0.1424  0.2001
 4361TIP3   OH213046   0.529   4.070   2.771 -0.6004  0.5482  0.1302
 4361TIP3    H113047   0.548   4.082   2.863 -0.8592 -0.7166  0.3677
 4361TIP3    H213048   0.460   4.134   2.752 -1.1095  0.2698  1.0160
 4362TIP3   OH213049   6.728   1.518   0.715  0.6126 -0.5397 -0.1460
 4362TIP3    H113050   6.813   1.556   0.691  0.2830  0.9712  0.9133
 4362TIP3    H213051   6.678   1.592   0.749 -1.7391 -1.0376 -2.2011
 4363TIP3   OH213052   1.840   6.494   0.967 -0.0171  0.1841 -0.6640
 4363TIP3    H113053   1.896   6.434   1.016 -0.1213 -0.1435 -0.9469
 4363TIP3    H213054   1.758   6.496   1.016 -0.5405 -1.0522 -1.4499
 4364TIP3   OH213055   3.712   1.109   0.608  0.6320 -0.0428  0.1102
 4364TIP3    H113056   3.717   1.136   0.516  0.0955 -1.0291 -0.2263
 4364TIP3    H213057   3.637   1.157   0.643 -0.5066 -1.2453 -0.5624
 4365TIP3   OH213058   3.491   1.818   5.605 -0.2433 -0.1428  0.2845
 4365TIP3    H113059   3.519   1.772   5.525 -2.1293  0.6409 -0.9143
 4365TIP3    H213060   3.444   1.752   5.655 -0.2565 -0.3040  0.0624
 4366TIP3   OH213061   2.528   1.950   0.967 -0.5829  0.2369  0.3201
 4366TIP3    H113062   2.455   2.005   0.936  0.6435  2.3757  0.9913
 4366TIP3    H213063   2.570   2.002   1.035  0.3791 -1.8226  1.3941
 4367TIP3   OH213064   3.081   4.799   3.050 -0.1037  0.1194  0.2103
 4367TIP3    H113065   3.132   4.849   3.114  0.7292 -0.2879 -0.1105
 4367TIP3    H213066   2.991   4.826   3.064  0.1884  0.7818  0.8760
 4368TIP3   OH213067   5.571   6.704   5.834  0.6866 -0.6199  0.2698
 4368TIP3    H113068   5.543   6.792   5.860  1.4894 -0.0362 -0.7403
 4368TIP3    H213069   5.498   6.648   5.857 -1.7930  0.9364 -3.0211
 4369TIP3   OH213070   5.664   3.588   3.162  0.1028  0.2302  0.2632
 4369TIP3    H113071   5.611   3.556   3.089  0.3468 -0.0583  0.2096
 4369TIP3    H213072   5.628   3.543   3.239  0.3101 -0.0149  0.2176
 4370TIP3   OH213073   6.117   5.611   5.105  0.5151  0.0238 -0.3390
 4370TIP3    H113074   6.141   5.529   5.062 -1.6109 -0.2914 -1.0364
 4370TIP3    H213075   6.070   5.661   5.038 -1.8391  0.0244  1.1920
 4371TIP3   OH213076   5.665   4.570   3.960 -0.1314 -0.0491 -0.2975
 4371TIP3    H113077   5.671   4.485   3.916  0.4903  0.0344 -0.3843
 4371TIP3    H213078   5.711   4.557   4.043  1.2725  0.5963 -0.9396
 4372TIP3   OH213079   6.481   6.659   2.459 -0.3344  0.0314 -0.3011
 4372TIP3    H113080   6.523   6.720   2.398 -0.4898  0.0662 -0.3732
 4372TIP3    H213081   6.550   6.638   2.523 -0.5839  1.1043  0.3370
 4373TIP3   OH213082   1.610   1.561   5.603 -0.5881  0.4349 -0.6992
 4373TIP3    H113083   1.570   1.561   5.690 -1.6637 -0.2959 -1.1688
 4373TIP3    H213084   1.538   1.581   5.543 -0.3411 -1.1230 -1.5910
 4374TIP3   OH213085   0.674   4.376   4.724  0.7342 -0.3642 -0.3039
 4374TIP3    H113086   0.638   4.298   4.766  0.0468 -0.3205 -0.7889
 4374TIP3    H213087   0.678   4.353   4.631 -1.2146  0.7999 -0.7218
 4375TIP3   OH213088   6.447   6.748   3.952  0.0141 -0.3913  0.7111
 4375TIP3    H113089   6.384   6.678   3.970  0.4643 -1.2206 -0.7783
 4375TIP3    H213090   6.533   6.705   3.956  0.5281  0.6680  2.4462
 4376TIP3   OH213091   0.520   6.299   4.726 -0.4024 -0.1390  0.3022
 4376TIP3    H113092   0.541   6.382   4.683 -1.5687  1.2874  2.3203
 4376TIP3    H213093   0.605   6.257   4.740  0.0776 -0.6878 -3.1450
 4377TIP3   OH213094   4.014   3.239   3.480 -0.0313  0.3004 -0.1082
 4377TIP3    H113095   4.039   3.153   3.445  0.3775  0.8384 -1.1559
 4377TIP3    H213096   4.018   3.227   3.575 -0.1009 -0.8734 -0.2296
 4378TIP3   OH213097   5.543   0.869   1.023 -0.5644  0.7314 -0.2026
 4378TIP3    H113098   5.492   0.924   1.083 -1.9998 -1.6979  0.9958
 4378TIP3    H213099   5.613   0.926   0.992 -1.7546  3.1115  1.1355
 4379TIP3   OH213100   6.857   2.903   3.029 -0.4915  0.0060  0.6301
 4379TIP3    H113101   6.875   2.822   2.981  0.9859  0.3156  0.6320
 4379TIP3    H213102   6.768   2.891   3.063 -0.5771 -1.2978  0.0011
 4380TIP3   OH213103   6.628   3.663   0.509 -0.2127 -0.5595  0.6597
 4380TIP3    H113104   6.544   3.621   0.527 -0.8429 -0.1040 -1.0576
 4380TIP3    H213105   6.610   3.757   0.513  0.0889 -0.4562 -0.1451
 4381TIP3   OH213106   0.261   6.635   2.550 -0.0411 -0.1277 -0.4728
 4381TIP3    H113107   0.348   6.614   2.515  0.0248 -0.5536 -0.0669
 4381TIP3    H213108   0.218   6.550   2.561 -0.4115  0.0639 -0.4191
 4382TIP3   OH213109   4.093   3.174   0.555  0.4584  0.1817 -0.5450
 4382TIP3    H113110   4.047   3.217   0.483  2.1607  0.8545 -1.2866
 4382TIP3    H213111   4.141   3.102   0.513 -1.5966 -1.9618  0.5361
 4383TIP3   OH213112   0.524   5.123   1.517  0.4877  0.2390  0.3841
 4383TIP3    H113113   0.549   5.215   1.528  0.1965  0.2464  1.0049
 4383TIP3    H213114   0.592   5.087   1.459 -0.0745  1.1321 -0.8802
 4384TIP3   OH213115   6.969   1.711   0.403  0.3855 -0.2229  0.0786
 4384TIP3    H113116   7.062   1.719   0.427 -0.0118  0.7513  1.4252
 4384TIP3    H213117   6.925   1.775   0.458 -1.2038 -1.2169  0.0190
 4385TIP3   OH213118   0.941   0.209   4.312  0.0170  0.3953 -0.9297
 4385TIP3    H113119   0.851   0.203   4.278  0.3960  0.3690 -1.9677
 4385TIP3    H213120   0.995   0.216   4.234  0.7484  2.9707 -0.2970
 4386TIP3   OH213121   4.163   1.756   0.721 -0.3279 -0.1444 -0.1007
 4386TIP3    H113122   4.130   1.683   0.774  0.0149 -0.8112 -0.7719
 4386TIP3    H213123   4.256   1.763   0.745  0.0905 -1.1094 -1.2822
 4387TIP3   OH213124   5.635   0.862   5.319  0.0762 -0.4032  0.6118
 4387TIP3    H113125   5.699   0.904   5.261  0.1177  0.3854  1.2158
 4387TIP3    H213126   5.686   0.800   5.371  0.0283 -1.1665 -0.2217
 4388TIP3   OH213127   3.274   6.248   0.460  0.1715 -0.1774 -0.0120
 4388TIP3    H113128   3.364   6.252   0.427  0.7818 -0.6762  1.5059
 4388TIP3    H213129   3.269   6.319   0.524 -0.4515 -0.2686  0.0453
 4389TIP3   OH213130   4.789   1.291   2.314 -0.1238 -0.2745 -0.1678
 4389TIP3    H113131   4.728   1.237   2.263 -2.4700  0.8190  1.3196
 4389TIP3    H213132   4.875   1.262   2.284 -1.2983 -1.2750 -3.0736
 4390TIP3   OH213133   3.699   4.521   3.801 -0.5155  0.1209  0.4969
 4390TIP3    H113134   3.611   4.482   3.801 -1.0161  1.2044  1.0250
 4390TIP3    H213135   3.689   4.602   3.852  0.4449  1.0249 -0.7071
 4391TIP3   OH213136   6.136   0.081   1.693 -0.3459 -0.2382 -0.4292
 4391TIP3    H113137   6.145  -0.007   1.729 -1.5089 -0.3355 -0.3604
 4391TIP3    H213138   6.200   0.133   1.742  0.3037 -1.0153 -0.4237
 4392TIP3   OH213139   5.019   2.029   1.205  0.6012 -1.0359  0.3999
 4392TIP3    H113140   5.036   2.093   1.274  2.2225 -2.3564  1.3224
 4392TIP3    H213141   5.056   2.068   1.126  1.2291 -0.6535  0.8709
 4393TIP3   OH213142   2.952   4.213   0.561 -0.2160  0.4349  0.2555
 4393TIP3    H113143   3.043   4.230   0.535 -0.2455  0.0972 -0.0804
 4393TIP3    H213144   2.960   4.157   0.638 -0.1431 -0.7042 -0.5625
 4394TIP3   OH213145   7.096   1.403   3.850 -0.3132  0.1009 -0.1065
 4394TIP3    H113146   7.166   1.448   3.803 -0.3874  0.3142 -0.0166
 4394TIP3    H213147   7.140   1.330   3.893  0.3837  1.6418  2.0180
 4395TIP3   OH213148   4.246   4.582   5.393 -0.1093 -0.0690 -0.3810
 4395TIP3    H113149   4.331   4.540   5.378  1.3485  2.0930  1.2219
 4395TIP3    H213150   4.227   4.565   5.485 -0.6344  0.7598 -0.3273
 4396TIP3   OH213151   0.069   0.269   3.028  0.3499  0.5818 -0.3561
 4396TIP3    H113152   0.007   0.262   3.100  0.3113  1.6750 -0.2587
 4396TIP3    H213153   0.155   0.264   3.070  0.3538 -0.8536 -0.4828
 4397TIP3   OH213154   3.341   4.244   1.660 -0.4618 -0.3675 -0.3279
 4397TIP3    H113155   3.331   4.220   1.752  2.5878  0.0784  0.2499
 4397TIP3    H213156   3.299   4.173   1.611 -0.7185 -1.4629  1.4065
 4398TIP3   OH213157   1.895   1.131   3.009  0.3301  0.2283  0.1213
 4398TIP3    H113158   1.939   1.207   3.047  0.4879 -0.7207  1.9784
 4398TIP3    H213159   1.811   1.164   2.978  0.5281  1.2154  0.6058
 4399TIP3   OH213160   4.789   3.525   4.589 -0.1492  0.4631 -0.2582
 4399TIP3    H113161   4.852   3.578   4.541 -1.1953  3.3039  1.2863
 4399TIP3    H213162   4.703   3.559   4.561 -0.8155  0.6301  1.8488
 4400TIP3   OH213163   1.301   1.039   0.678  0.1884 -0.1704  0.4402
 4400TIP3    H113164   1.215   1.001   0.662 -0.2149  1.0075 -0.3177
 4400TIP3    H213165   1.360   0.964   0.681 -0.6531 -0.9013 -0.5156
 4401TIP3   OH213166   4.437   4.235   0.317 -0.0949 -0.3865  0.0843
 4401TIP3    H113167   4.412   4.196   0.401  1.1279 -0.9724  0.2009
 4401TIP3    H213168   4.450   4.161   0.258  1.5084 -0.1611  0.0976
 4402TIP3   OH213169   2.961   5.338   2.463  0.2914 -0.2264 -0.2234
 4402TIP3    H113170   2.903   5.267   2.493  1.4797 -1.6877 -1.1992
 4402TIP3    H213171   2.968   5.324   2.368  2.4019 -0.2674 -0.1040
 4403TIP3   OH213172   0.109   6.327   5.776  0.0844 -0.7015  0.0415
 4403TIP3    H113173   0.066   6.323   5.690  0.4775  3.7059 -0.5526
 4403TIP3    H213174   0.202   6.328   5.755  0.1943 -0.2317  0.5552
 4404TIP3   OH213175   2.557   0.956   2.960  0.1614 -0.2802  0.1033
 4404TIP3    H113176   2.605   0.904   2.895  0.4488 -1.0254  0.9014
 4404TIP3    H213177   2.470   0.917   2.962  0.1694 -0.2901  0.2128
 4405TIP3   OH213178   3.881   4.533   5.861 -0.9582  0.0079  0.9872
 4405TIP3    H113179   3.796   4.553   5.822 -1.5445  0.0170  2.2223
 4405TIP3    H213180   3.883   4.585   5.942  0.8328  1.1145  0.2707
 4406TIP3   OH213181   6.206   2.421   3.901  0.5200  0.1089  0.6624
 4406TIP3    H113182   6.267   2.461   3.839 -0.5443  1.0524  0.1858
 4406TIP3    H213183   6.130   2.480   3.901  0.3578 -0.0250  2.6242
 4407TIP3   OH213184   1.534   0.017   2.797  0.0678  0.1542  0.4086
 4407TIP3    H113185   1.602  -0.050   2.805 -0.5335 -0.6895 -1.1366
 4407TIP3    H213186   1.576   0.098   2.829  1.6485 -0.4340 -0.0786
 4408TIP3   OH213187   1.624   0.141   1.324  0.3338  0.5609 -0.4813
 4408TIP3    H113188   1.605   0.227   1.361 -1.2429 -0.2377  0.6998
 4408TIP3    H213189   1.540   0.112   1.288  1.2317  0.1867 -2.3551
 4409TIP3   OH213190   6.881   5.998   5.079  0.4624 -0.0873 -0.1960
 4409TIP3    H113191   6.918   6.074   5.035 -1.3179  1.1178  0.3071
 4409TIP3    H213192   6.956   5.939   5.091  2.2740  2.3044  0.9741
 4410TIP3   OH213193   1.766   4.250   2.592  0.1596 -0.6021  0.1872
 4410TIP3    H113194   1.802   4.255   2.680  1.5054  0.9391 -0.3993
 4410TIP3    H213195   1.832   4.203   2.541  0.3077  0.2017 -0.3919
 4411TIP3   OH213196   0.373   5.808   3.569 -0.1643  0.3248  0.0243
 4411TIP3    H113197   0.422   5.727   3.587 -1.1456 -0.3171 -0.1329
 4411TIP3    H213198   0.400   5.832   3.480 -1.6500 -1.1748 -0.8811
 4412TIP3   OH213199   6.461   0.394   0.338 -0.5200  0.4346  0.1213
 4412TIP3    H113200   6.550   0.361   0.323 -0.2498  1.5286 -0.7984
 4412TIP3    H213201   6.426   0.409   0.250 -1.6162  0.0560  0.4759
 4413TIP3   OH213202   6.013   0.915   1.970 -0.0914  0.0235  0.6983
 4413TIP3    H113203   6.065   0.990   1.939  0.5647  0.0419  1.8096
 4413TIP3    H213204   6.068   0.839   1.952 -0.6655 -0.1854 -0.2249
 4414TIP3   OH213205   0.675   1.278   0.956  0.4158  0.2551  0.1792
 4414TIP3    H113206   0.673   1.198   0.904 -3.3455  0.4035 -0.1465
 4414TIP3    H213207   0.765   1.309   0.948  1.3680 -2.5777 -1.7438
 4415TIP3   OH213208   3.818   5.971   1.581  0.0879 -0.0131 -0.4183
 4415TIP3    H113209   3.778   6.026   1.514 -0.1909 -0.9715 -1.0549
 4415TIP3    H213210   3.863   5.902   1.532 -1.4097 -1.6291  0.3709
 4416TIP3   OH213211   2.193   3.035   2.185 -0.5960  0.3137  0.0466
 4416TIP3    H113212   2.232   3.014   2.270  1.4521  0.0126 -0.9086
 4416TIP3    H213213   2.167   3.127   2.193 -1.5093 -0.0383  1.3648
 4417TIP3   OH213214   4.827   1.872   4.144  0.6799 -0.2813 -0.1951
 4417TIP3    H113215   4.861   1.814   4.212  1.3478  1.5857  1.1365
 4417TIP3    H213216   4.835   1.960   4.180  0.4275  0.7497 -2.4368
 4418TIP3   OH213217   1.979   0.964   3.924 -0.0649  0.0473 -0.0239
 4418TIP3    H113218   1.988   0.941   4.017 -1.5614  1.2664  0.4663
 4418TIP3    H213219   2.059   1.011   3.903 -0.4449  1.3108  1.1759
 4419TIP3   OH213220   4.135   0.315   3.798  0.2301 -0.0559  0.0186
 4419TIP3    H113221   4.066   0.380   3.787  0.7516  0.5192  0.0813
 4419TIP3    H213222   4.198   0.356   3.857  1.2674 -0.0301 -1.0572
 4420TIP3   OH213223   6.285   3.560   1.825 -0.0701  0.2702  0.6817
 4420TIP3    H113224   6.271   3.489   1.888  1.2228 -0.7400 -0.1210
 4420TIP3    H213225   6.268   3.520   1.740  1.6658  0.6117  0.1323
 4421TIP3   OH213226   0.418   4.251   3.594  0.6382 -0.0571  0.2583
 4421TIP3    H113227   0.450   4.186   3.532  0.7150  0.5616 -0.3555
 4421TIP3    H213228   0.440   4.215   3.680  2.5651  0.1275 -0.1330
 4422TIP3   OH213229   5.374   1.225   4.409 -0.1553 -0.0355  0.4975
 4422TIP3    H113230   5.431   1.166   4.360 -0.2981  0.1963  0.0382
 4422TIP3    H213231   5.334   1.171   4.476 -0.0475 -0.3893  0.2781
 4423TIP3   OH213232   1.030   5.245   5.188  0.2902  0.2155 -0.2905
 4423TIP3    H113233   0.956   5.305   5.199  0.0375  0.0394 -0.9981
 4423TIP3    H213234   1.103   5.302   5.161  0.6932  0.5290  1.3693
 4424TIP3   OH213235   5.439   1.588   4.030  0.1272  0.0444  0.1642
 4424TIP3    H113236   5.356   1.542   4.019  0.9984 -1.4090 -0.7089
 4424TIP3    H213237   5.477   1.552   4.110  0.7299 -0.6906 -0.4267
 4425TIP3   OH213238   1.285   6.481   5.470 -0.0508 -0.3677  0.5807
 4425TIP3    H113239   1.343   6.554   5.446 -1.3525  0.8067  0.8493
 4425TIP3    H213240   1.343   6.415   5.506  0.9879  1.3765  2.3041
 4426TIP3   OH213241   3.402   6.282   3.413  0.5956 -0.7540 -0.2308
 4426TIP3    H113242   3.331   6.226   3.380  1.5239 -1.0071 -1.8977
 4426TIP3    H213243   3.399   6.360   3.357  1.7450 -0.8598 -0.4615
 4427TIP3   OH213244   5.344   1.287   5.853 -0.2859 -0.2742 -0.3587
 4427TIP3    H113245   5.349   1.235   5.773  0.8904 -1.6287  0.5627
 4427TIP3    H213246   5.366   1.226   5.923 -0.1716  1.1617  0.9005
 4428TIP3   OH213247   4.778   6.543   0.099 -0.2077 -1.4455 -0.4365
 4428TIP3    H113248   4.836   6.606   0.057 -0.4357  0.4662  1.8721
 4428TIP3    H213249   4.693   6.555   0.056 -0.3293  0.1186  0.1860
 4429TIP3   OH213250   1.215   3.419   5.816 -0.1533 -0.3361 -0.2373
 4429TIP3    H113251   1.269   3.498   5.814  2.6902 -2.0609  1.2623
 4429TIP3    H213252   1.266   3.355   5.767 -0.9677 -1.9625  0.9669
 4430TIP3   OH213253   4.190   6.139   2.016  0.1076 -0.2651  0.2741
 4430TIP3    H113254   4.095   6.137   2.014  0.1193 -1.8596 -0.2223
 4430TIP3    H213255   4.217   6.086   1.941  1.3618 -1.0472  1.2278
 4431TIP3   OH213256   6.948   5.525   5.860 -0.4739 -0.2436  0.3854
 4431TIP3    H113257   6.993   5.472   5.794  0.2469 -1.2786  1.6466
 4431TIP3    H213258   6.920   5.604   5.814  1.3095 -0.2659 -0.8162
 4432TIP3   OH213259   2.243   2.549   1.535  0.6558 -0.1389  0.6798
 4432TIP3    H113260   2.172   2.564   1.473  1.4506 -1.5595 -0.6397
 4432TIP3    H213261   2.297   2.627   1.529  1.0140 -0.4660 -0.8832
 4433TIP3   OH213262   2.888   2.633   4.099 -0.3005  0.1506  0.1920
 4433TIP3    H113263   2.876   2.577   4.176  1.3731  1.7477  1.7365
 4433TIP3    H213264   2.853   2.582   4.027 -1.6854 -1.5691  1.9522
 4434TIP3   OH213265   2.434   3.611   4.262  0.0058  0.1204 -0.1853
 4434TIP3    H113266   2.370   3.677   4.235 -0.4280 -0.8636 -1.7472
 4434TIP3    H213267   2.487   3.654   4.329 -1.4604  1.3941  0.2092
 4435TIP3   OH213268   6.690   0.258   5.241 -0.3076 -0.1091 -0.0974
 4435TIP3    H113269   6.615   0.223   5.289 -0.4525  0.4578  0.1079
 4435TIP3    H213270   6.695   0.206   5.161  1.2089 -2.5177  1.4321
 4436TIP3   OH213271   1.238   0.655   0.472 -0.0078 -0.0244  0.4194
 4436TIP3    H113272   1.326   0.619   0.461 -0.6939 -1.0844 -2.4692
 4436TIP3    H213273   1.192   0.591   0.526 -0.0454 -1.5502 -1.3205
 4437TIP3   OH213274   1.936   5.308   5.834 -0.3729 -0.0702 -0.3578
 4437TIP3    H113275   2.005   5.270   5.888 -1.4410 -0.7455  0.5990
 4437TIP3    H213276   1.912   5.389   5.879  0.1212  0.4170 -0.9587
 4438TIP3   OH213277   1.066   2.900   4.433  0.1543  0.0723 -0.3505
 4438TIP3    H113278   1.077   2.887   4.339  1.3649  2.0417 -0.5335
 4438TIP3    H213279   1.132   2.843   4.473  1.6894  1.4457 -0.8575
 4439TIP3   OH213280   3.985   6.655   3.554 -0.0311 -0.6728 -0.5094
 4439TIP3    H113281   4.034   6.607   3.487  2.4479  0.4083  0.4255
 4439TIP3    H213282   4.050   6.678   3.620 -1.4388  2.4061 -0.0426
 4440TIP3   OH213283   6.220   4.491   1.195  0.0900  0.1244  0.5168
 4440TIP3    H113284   6.229   4.492   1.290  2.3346 -0.1596  0.3526
 4440TIP3    H213285   6.174   4.409   1.176  0.9654 -0.5560  1.2749
 4441TIP3   OH213286   6.521   2.285   2.040  0.1118 -0.4395  0.0856
 4441TIP3    H113287   6.467   2.239   1.976  3.1740 -3.0409 -0.9048
 4441TIP3    H213288   6.599   2.311   1.991  1.4383 -0.2442  2.1800
 4442TIP3   OH213289   2.040   2.969   2.963 -0.2941  0.5097 -0.2000
 4442TIP3    H113290   2.076   2.980   3.051  0.8165  0.4374 -0.6272
 4442TIP3    H213291   2.070   3.047   2.916  1.4285 -0.7194 -1.2414
 4443TIP3   OH213292   5.271   3.227   0.859  0.8596 -0.0305 -0.0613
 4443TIP3    H113293   5.337   3.243   0.926  0.7574  2.2421 -0.4447
 4443TIP3    H213294   5.316   3.173   0.794  1.2937 -1.3003  1.2483
 4444TIP3   OH213295   2.519   5.328   0.496 -0.4082  0.0124  0.2896
 4444TIP3    H113296   2.602   5.297   0.532 -0.4912  1.6995  2.1234
 4444TIP3    H213297   2.539   5.415   0.462 -0.8292 -0.7091 -1.9231
 4445TIP3   OH213298   0.274   0.322   3.182  0.7498 -0.0640 -0.1508
 4445TIP3    H113299   0.361   0.360   3.196  2.0119 -2.8578  0.3772
 4445TIP3    H213300   0.242   0.303   3.270  0.4780 -0.7875 -0.3969
 4446TIP3   OH213301   2.687   2.335   3.372 -0.2565  0.5965 -1.0560
 4446TIP3    H113302   2.595   2.321   3.350 -1.0107  2.5836  0.5955
 4446TIP3    H213303   2.713   2.254   3.417 -0.9072 -0.3240 -2.2695
 4447TIP3   OH213304   1.034   2.684   3.881  0.1304  0.1453  0.3392
 4447TIP3    H113305   1.120   2.714   3.911  0.1804  0.0654  0.2758
 4447TIP3    H213306   1.010   2.615   3.944 -0.0122  0.3586  0.5212
 4448TIP3   OH213307   3.572   0.799   2.398  0.1557 -0.0995 -0.2460
 4448TIP3    H113308   3.593   0.860   2.328  1.5777  0.2038  0.4096
 4448TIP3    H213309   3.507   0.845   2.451 -0.2302  0.0438 -0.8352
 4449TIP3   OH213310   0.672   2.100   4.823 -0.1176 -0.2229  0.1296
 4449TIP3    H113311   0.672   2.122   4.729 -1.2056  0.8370  0.3534
 4449TIP3    H213312   0.716   2.015   4.827  2.1819  0.8113 -1.0640
 4450TIP3   OH213313   5.036   6.329   2.385 -0.0565 -0.1565  0.3849
 4450TIP3    H113314   5.058   6.320   2.477 -0.8670 -1.5506  0.4651
 4450TIP3    H213315   5.114   6.367   2.345  0.2621  0.5691  1.6468
 4451TIP3   OH213316   6.582   3.192   3.395 -0.1433  0.1561 -0.0326
 4451TIP3    H113317   6.629   3.117   3.431  1.3880  0.4079 -1.4013
 4451TIP3    H213318   6.537   3.156   3.318  1.2219  0.7393 -1.1531
 4452TIP3   OH213319   3.876   0.372   0.536  0.5872  0.0675  0.1327
 4452TIP3    H113320   3.821   0.434   0.489  0.5436 -1.0264 -1.3449
 4452TIP3    H213321   3.963   0.411   0.536 -0.1056  1.8312  2.5262
 4453TIP3   OH213322   2.331   4.295   1.237 -0.3832  0.1746  0.1581
 4453TIP3    H113323   2.314   4.301   1.331 -0.2528  0.4148  0.1661
 4453TIP3    H213324   2.415   4.250   1.231 -0.7176 -0.4661  0.1345
 4454TIP3   OH213325   3.374   1.999   0.470 -0.8270  0.3704  0.3224
 4454TIP3    H113326   3.422   2.079   0.491 -2.4277  1.3439  0.5061
 4454TIP3    H213327   3.431   1.928   0.497  0.0026  1.4893  1.6087
 4455TIP3   OH213328   0.390   5.973   0.152 -0.1827  0.1314 -0.7626
 4455TIP3    H113329   0.483   5.985   0.167  0.0099 -0.6417 -1.3180
 4455TIP3    H213330   0.370   5.886   0.186 -1.0933  0.9581  1.0283
 4456TIP3   OH213331   6.525   4.740   0.353  0.7928  0.4225  0.5048
 4456TIP3    H113332   6.548   4.797   0.426 -0.9804 -0.0762  1.5332
 4456TIP3    H213333   6.537   4.651   0.388 -0.2837  0.1772  0.2808
 4457TIP3   OH213334   5.730   1.930   1.923  0.2227  0.3152  0.1433
 4457TIP3    H113335   5.748   1.956   2.014  0.5445  1.6668 -0.2871
 4457TIP3    H213336   5.806   1.878   1.898  0.3240  0.2818  0.5093
 4458TIP3   OH213337   2.121   5.070   4.977 -0.1735 -0.1512  0.0870
 4458TIP3    H113338   2.123   5.108   4.889  0.9648 -1.1843 -0.3747
 4458TIP3    H213339   2.069   4.990   4.967 -0.9203  0.2570  0.6059
 4459TIP3   OH213340   4.389   5.565   0.212 -0.2025  0.1635 -0.2223
 4459TIP3    H113341   4.411   5.495   0.274 -0.8545 -0.7833 -1.0316
 4459TIP3    H213342   4.425   5.645   0.252  1.7488 -0.8164  0.0649
 4460TIP3   OH213343   2.214   4.345   4.390  0.1784  0.2108  0.0139
 4460TIP3    H113344   2.229   4.420   4.447  0.2075 -0.8033  1.4013
 4460TIP3    H213345   2.298   4.331   4.346  0.4437  0.4458  0.4443
 4461TIP3   OH213346   5.033   0.030   0.882 -0.2328 -0.5385  0.1799
 4461TIP3    H113347   5.100   0.093   0.857 -0.1713 -1.2290 -1.5068
 4461TIP3    H213348   5.081  -0.039   0.928 -0.1341  0.0400  0.9678
 4462TIP3   OH213349   3.337   0.357   2.128 -0.2088 -0.4450 -0.1514
 4462TIP3    H113350   3.265   0.414   2.152  0.1712 -0.4842  1.1769
 4462TIP3    H213351   3.405   0.376   2.193  0.5989 -1.1066 -0.7864
 4463TIP3   OH213352   2.593   1.093   2.577 -0.3302 -0.1869 -0.6945
 4463TIP3    H113353   2.542   1.168   2.608 -0.3534 -0.4033 -0.2124
 4463TIP3    H213354   2.651   1.071   2.650  2.0202  1.3985 -1.9387
 4464TIP3   OH213355   3.705   1.753   3.186  0.1680 -0.2414 -0.1282
 4464TIP3    H113356   3.710   1.768   3.280 -0.3569 -0.8569  0.0053
 4464TIP3    H213357   3.784   1.702   3.166  0.2203 -0.2111  0.0021
 4465TIP3   OH213358   7.195   2.723   2.332  0.2587 -0.0377  0.1420
 4465TIP3    H113359   7.134   2.745   2.261 -0.0440 -1.6615 -0.1560
 4465TIP3    H213360   7.168   2.778   2.405 -2.4535 -1.5711  0.4307
 4466TIP3   OH213361   0.728   3.017   4.536 -0.2988  0.1954  0.0834
 4466TIP3    H113362   0.665   3.084   4.562  0.0149  0.5077  0.0431
 4466TIP3    H213363   0.810   3.042   4.580 -0.6916 -1.3448  1.8572
 4467TIP3   OH213364   5.913   1.937   2.448  0.0130  0.5484 -0.3843
 4467TIP3    H113365   5.941   1.903   2.363  1.5430  0.2292  0.2269
 4467TIP3    H213366   5.932   2.030   2.445 -0.4964  0.6473 -0.6068
 4468TIP3   OH213367   7.058   1.043   1.510  1.0528  0.1644  0.5897
 4468TIP3    H113368   7.018   1.000   1.585  2.9803 -5.2468 -1.0053
 4468TIP3    H213369   7.141   0.997   1.497  2.9154  3.7627 -2.3602
 4469TIP3   OH213370   6.090   4.611   4.098 -0.3449  0.3465 -0.1446
 4469TIP3    H113371   6.176   4.626   4.137  0.3371 -0.9635 -1.0865
 4469TIP3    H213372   6.060   4.698   4.071  1.0504  0.7177 -0.5611
 4470TIP3   OH213373   2.122   1.310   4.031 -0.0560  0.0113 -0.2892
 4470TIP3    H113374   2.210   1.305   3.994  0.1129 -0.8231  0.1972
 4470TIP3    H213375   2.136   1.319   4.125 -0.4875  0.1666 -0.2379
 4471TIP3   OH213376   6.443   4.362   2.857  0.0017 -0.2306  0.3215
 4471TIP3    H113377   6.483   4.369   2.944 -0.6930 -1.1220  0.7373
 4471TIP3    H213378   6.480   4.434   2.807 -0.6998  1.2294  1.8024
 4472TIP3   OH213379   4.567   4.435   4.671 -0.3526 -0.1243 -0.5632
 4472TIP3    H113380   4.592   4.471   4.756 -2.6967  5.8999 -1.8901
 4472TIP3    H213381   4.514   4.358   4.692  1.1242 -0.3130  3.1865
 4473TIP3   OH213382   6.211   0.864   0.380  0.4246 -0.2530 -0.2542
 4473TIP3    H113383   6.217   0.891   0.471  1.1802 -1.0137 -0.0661
 4473TIP3    H213384   6.182   0.942   0.333  1.0040  0.4239  0.4960
 4474TIP3   OH213385   3.774   3.324   3.330 -0.5063 -0.0699 -0.5587
 4474TIP3    H113386   3.753   3.251   3.272  0.2385 -1.3851  0.7690
 4474TIP3    H213387   3.843   3.290   3.387 -0.4125  1.5538  0.3396
 4475TIP3   OH213388   6.253   5.204   3.173  0.3722  0.4331 -0.1981
 4475TIP3    H113389   6.277   5.223   3.264  0.2299  0.6553 -0.2077
 4475TIP3    H213390   6.167   5.243   3.162 -0.2054 -0.7584 -0.0370
 4476TIP3   OH213391   5.441   4.376   0.890 -0.4686 -0.2158  1.2089
 4476TIP3    H113392   5.464   4.466   0.912 -3.5759  1.5334 -1.6784
 4476TIP3    H213393   5.371   4.354   0.952 -2.5882  1.1024 -0.5356
 4477TIP3   OH213394   2.424   5.558   1.802  0.1053  0.2194  0.8622
 4477TIP3    H113395   2.442   5.503   1.726  0.0381 -0.8386  1.5934
 4477TIP3    H213396   2.471   5.516   1.874 -0.5678  0.6851  1.5922
 4478TIP3   OH213397   6.991   5.139   1.543 -0.3752 -0.3440  0.7752
 4478TIP3    H113398   6.908   5.100   1.570 -0.2185 -0.3595  1.2305
 4478TIP3    H213399   7.014   5.199   1.614  1.7733 -2.8838  2.3896
 4479TIP3   OH213400   6.452   0.979   3.950  0.1922  0.1436 -0.4150
 4479TIP3    H113401   6.435   0.887   3.965  0.1861  0.1896 -0.1233
 4479TIP3    H213402   6.377   1.025   3.990  1.0423  0.3520  1.0360
 4480TIP3   OH213403   0.469   2.656   4.016 -0.2486 -0.4694 -0.0022
 4480TIP3    H113404   0.412   2.688   4.086 -0.8405 -1.1804 -0.1451
 4480TIP3    H213405   0.533   2.727   4.003 -0.7813  0.1229  0.5128
 4481TIP3   OH213406   2.962   5.887   1.389 -0.1009  0.5376  0.2239
 4481TIP3    H113407   3.017   5.913   1.463  0.2963  2.3252 -0.6534
 4481TIP3    H213408   3.023   5.878   1.316 -0.5944 -0.4578 -0.0808
 4482TIP3   OH213409   3.883   5.566   0.894  0.1647  0.0571  0.1383
 4482TIP3    H113410   3.902   5.660   0.898 -1.8190  0.5420 -0.8281
 4482TIP3    H213411   3.877   5.539   0.985 -0.7560  1.2205  0.4469
 4483TIP3   OH213412   2.014   4.700   0.194  0.1811  0.3671 -0.2405
 4483TIP3    H113413   2.065   4.781   0.191  1.5070 -0.4719 -1.4009
 4483TIP3    H213414   2.065   4.641   0.250  0.0175 -0.1860 -0.6655
 4484TIP3   OH213415   6.637   4.702   5.179  0.0536  0.0215  0.8058
 4484TIP3    H113416   6.627   4.624   5.232 -0.1289  0.4591  1.4296
 4484TIP3    H213417   6.713   4.685   5.124  0.2232 -0.4509  1.1883
 4485TIP3   OH213418   5.186   1.396   2.045 -0.3965  0.0607 -0.2667
 4485TIP3    H113419   5.248   1.435   1.984  2.8229 -1.8281  1.4963
 4485TIP3    H213420   5.192   1.450   2.123 -0.4462 -0.5103  0.1379
 4486TIP3   OH213421   5.541   0.843   2.564 -0.0306  0.1059  0.3150
 4486TIP3    H113422   5.569   0.927   2.529  0.6034  0.1565  0.9084
 4486TIP3    H213423   5.447   0.839   2.548  0.1272  0.4322 -0.7197
 4487TIP3   OH213424   5.401   2.614   0.172  0.2578  0.1195 -0.3730
 4487TIP3    H113425   5.344   2.690   0.160  0.3177 -0.0257 -1.8807
 4487TIP3    H213426   5.400   2.596   0.266 -0.3555  1.5163 -0.0979
 4488TIP3   OH213427   5.408   5.134   2.575  0.4047 -0.1106  0.0986
 4488TIP3    H113428   5.370   5.121   2.662  1.7021 -1.3183  0.5236
 4488TIP3    H213429   5.485   5.188   2.590 -0.2553  1.0443 -0.5455
 4489TIP3   OH213430   3.261   2.875   4.340 -0.0069 -0.1903  0.6128
 4489TIP3    H113431   3.220   2.837   4.263  0.1775 -1.2655  1.0233
 4489TIP3    H213432   3.195   2.934   4.376 -0.4804 -0.4656  0.2124
 4490TIP3   OH213433   6.375   1.881   2.062  0.2700  0.3827 -0.1069
 4490TIP3    H113434   6.384   1.786   2.059 -0.8469  0.1477  2.2702
 4490TIP3    H213435   6.344   1.900   2.150 -1.8118  2.7721 -1.2246
 4491TIP3   OH213436   3.290   1.798   0.076 -0.7947 -0.3915  0.2786
 4491TIP3    H113437   3.363   1.860   0.073 -1.8759  0.8897 -0.3853
 4491TIP3    H213438   3.241   1.813  -0.005 -0.7620 -2.5604 -0.2072
 4492TIP3   OH213439   5.516   2.230   0.446  0.0440 -0.2945  0.5932
 4492TIP3    H113440   5.522   2.290   0.372 -0.3385  0.5117  1.2047
 4492TIP3    H213441   5.594   2.174   0.437  0.5915  0.5071  0.2065
 4493TIP3   OH213442   4.012   6.074   1.780 -0.8124 -0.1080 -0.0068
 4493TIP3    H113443   4.028   6.158   1.737  0.1454 -1.6323 -2.9059
 4493TIP3    H213444   3.925   6.048   1.751 -1.3743  0.0996  1.3895
 4494TIP3   OH213445   0.770   0.366   4.740 -0.8498  0.2322 -0.2389
 4494TIP3    H113446   0.742   0.390   4.652 -2.0752  2.4960  0.6740
 4494TIP3    H213447   0.689   0.342   4.785 -0.2779 -0.6275  0.3584
 4495TIP3   OH213448   2.401   3.358   3.651  0.5646 -0.4386 -0.0755
 4495TIP3    H113449   2.334   3.421   3.680  0.1551 -1.5428  1.5298
 4495TIP3    H213450   2.483   3.393   3.685  0.6104  0.1710 -0.7933
 4496TIP3   OH213451   0.586   6.223   5.689  0.1434  0.1109  0.3277
 4496TIP3    H113452   0.666   6.274   5.702  1.0042 -1.7053  2.9645
 4496TIP3    H213453   0.607   6.136   5.722 -2.1479 -1.2039 -1.3538
 4497TIP3   OH213454   4.370   5.496   0.608 -0.2221  0.0332 -0.2460
 4497TIP3    H113455   4.285   5.540   0.614 -1.2480 -1.5299 -2.2261
 4497TIP3    H213456   4.370   5.455   0.522  2.4971 -0.1911 -0.2233
 4498TIP3   OH213457   1.304   2.152   1.673 -0.1885 -0.0876  0.1861
 4498TIP3    H113458   1.256   2.117   1.598  0.0167 -0.6696  0.3251
 4498TIP3    H213459   1.310   2.246   1.655 -0.9149 -0.0864 -0.0863
 4499TIP3   OH213460   3.804   0.832   2.957  0.9735  0.2162 -0.2616
 4499TIP3    H113461   3.767   0.896   2.897 -0.1200  1.4764  1.6333
 4499TIP3    H213462   3.811   0.879   3.041  2.2752 -1.4839  0.6522
 4500TIP3   OH213463   2.310   4.768   5.145 -0.1712  0.1400 -0.5887
 4500TIP3    H113464   2.394   4.734   5.176 -1.3073 -4.2800 -1.5852
 4500TIP3    H213465   2.331   4.817   5.066  1.5898  1.0594  0.3956
 4501TIP3   OH213466   3.942   4.820   1.865  0.2305 -0.7481  0.2442
 4501TIP3    H113467   4.021   4.857   1.825 -0.7412  0.7483 -0.3873
 4501TIP3    H213468   3.940   4.858   1.953 -0.1439 -0.2237  0.0129
 4502TIP3   OH213469   0.341   1.541   2.931 -0.5962 -0.1236  0.1423
 4502TIP3    H113470   0.279   1.539   2.858 -0.3067 -0.5972 -0.0922
 4502TIP3    H213471   0.364   1.450   2.946 -2.3228 -0.2810  2.2866
 4503TIP3   OH213472   6.074   0.616   3.693 -0.4202  0.2258  0.1787
 4503TIP3    H113473   6.126   0.647   3.620  1.3703  1.9800  2.0904
 4503TIP3    H213474   6.065   0.692   3.751  1.1864 -1.8433  3.4194
 4504TIP3   OH213475   4.822   1.479   4.174  0.1994  0.5013  0.2967
 4504TIP3    H113476   4.756   1.416   4.203  0.5183 -0.7947 -1.6252
 4504TIP3    H213477   4.905   1.440   4.198  0.5241 -0.9944 -2.7376
 4505TIP3   OH213478   2.755   4.804   0.333  0.4910  0.3177 -0.3341
 4505TIP3    H113479   2.794   4.845   0.257  1.3427 -0.6016 -0.4065
 4505TIP3    H213480   2.793   4.850   0.408  2.2605 -0.9886 -0.3792
 4506TIP3   OH213481   6.075   2.056   3.148 -0.1017  0.1799 -0.0189
 4506TIP3    H113482   6.155   2.085   3.192 -0.1345 -1.1674  1.0060
 4506TIP3    H213483   6.057   2.123   3.083  1.1808  1.1287  0.5721
 4507TIP3   OH213484   5.497   5.840   1.812 -0.4037  0.0243  0.1702
 4507TIP3    H113485   5.434   5.831   1.884 -0.0293 -0.8962  0.4050
 4507TIP3    H213486   5.491   5.757   1.765  1.1414 -0.3763  0.6275
 4508TIP3   OH213487   2.700   0.672   3.736 -0.1010 -0.4120 -0.0505
 4508TIP3    H113488   2.648   0.592   3.730  1.8742 -1.6966 -0.7979
 4508TIP3    H213489   2.752   0.661   3.815  2.4270 -1.3724 -1.7187
 4509TIP3   OH213490   3.317   0.319   4.910 -0.2411  0.0729 -0.0567
 4509TIP3    H113491   3.407   0.350   4.899 -0.6864  1.6775  0.4785
 4509TIP3    H213492   3.263   0.396   4.889 -1.4874 -0.8738 -0.4058
 4510TIP3   OH213493   4.957   1.992   0.053  0.1025 -0.5939 -0.6486
 4510TIP3    H113494   4.941   2.060  -0.012 -0.1137 -0.2258 -0.2108
 4510TIP3    H213495   4.910   2.021   0.131 -0.0850 -1.2978 -0.4918
 4511TIP3   OH213496   4.006   3.760   3.142 -0.1591 -0.2489  0.0492
 4511TIP3    H113497   3.941   3.774   3.073  1.5846 -0.0568 -1.6164
 4511TIP3    H213498   3.983   3.675   3.180 -2.7504  0.8188  1.1363
 4512TIP3   OH213499   4.415   5.609   4.982 -0.1084  0.2202 -0.0462
 4512TIP3    H113500   4.325   5.577   4.974  0.1132 -1.0728  1.9645
 4512TIP3    H213501   4.462   5.537   5.025  1.2548  1.9342  1.4675
 4513TIP3   OH213502   1.153   0.706   5.797  0.3738 -0.0859 -0.5318
 4513TIP3    H113503   1.168   0.795   5.831  2.1104 -0.9839  1.2640
 4513TIP3    H213504   1.058   0.699   5.790  0.1596  1.6304  0.0561
 4514TIP3   OH213505   1.279   1.249   0.855 -0.0803 -0.2654 -0.5650
 4514TIP3    H113506   1.201   1.212   0.897 -0.0272 -0.0109 -0.2389
 4514TIP3    H213507   1.300   1.187   0.785 -1.8541  0.7321 -2.0891
 4515TIP3   OH213508   6.298   1.171   5.815 -0.2830 -0.5843 -0.0546
 4515TIP3    H113509   6.306   1.240   5.749  0.9497 -0.9601 -0.3238
 4515TIP3    H213510   6.377   1.179   5.869 -0.7459 -0.9743  0.7006
 4516TIP3   OH213511   0.989   5.887   5.353 -0.2305  0.5611 -0.3639
 4516TIP3    H113512   1.000   5.949   5.425  1.5966  1.3765 -1.3010
 4516TIP3    H213513   0.916   5.922   5.302 -1.1426  0.2972  0.7255
 4517TIP3   OH213514   0.672   0.161   4.191 -0.3339  0.1356 -0.0096
 4517TIP3    H113515   0.623   0.188   4.113  0.3686 -0.8081 -0.7995
 4517TIP3    H213516   0.619   0.093   4.231 -1.6839  1.9840  1.5027
 4518TIP3   OH213517   5.225   4.533   2.230  0.4074  0.9275  0.4317
 4518TIP3    H113518   5.193   4.568   2.147  2.0996  0.4084 -0.4693
 4518TIP3    H213519   5.202   4.600   2.294 -0.7462  1.4294 -0.4555
 4519TIP3   OH213520   1.554   0.737   4.737  0.5616 -0.3467 -0.2632
 4519TIP3    H113521   1.590   0.686   4.810 -0.2345 -1.3760 -0.5622
 4519TIP3    H213522   1.462   0.750   4.760  0.5979  0.3755 -0.5199
 4520TIP3   OH213523   0.069   3.158   0.165 -0.0816 -0.8439 -0.4574
 4520TIP3    H113524   0.031   3.234   0.208  2.9049  0.6821 -0.2396
 4520TIP3    H213525   0.027   3.155   0.080  0.5156  1.8542 -0.9464
 4521TIP3   OH213526   6.237   6.290   3.096 -0.5003  0.0030 -0.1355
 4521TIP3    H113527   6.313   6.336   3.129  0.1288 -0.9062 -0.2731
 4521TIP3    H213528   6.261   6.197   3.101 -1.1084 -0.2472 -1.3250
 4522TIP3   OH213529   2.553   5.797   2.513 -0.4417  0.4095 -0.1312
 4522TIP3    H113530   2.633   5.848   2.512 -0.1809 -0.0037 -0.7368
 4522TIP3    H213531   2.558   5.742   2.435 -2.0865  1.5725 -1.1240
 4523TIP3   OH213532   5.044   2.211   2.670 -0.3235 -0.3420  0.4357
 4523TIP3    H113533   5.007   2.297   2.651  0.5788 -0.3033 -1.2396
 4523TIP3    H213534   4.994   2.151   2.615 -0.6189 -0.8594  1.2362
 4524TIP3   OH213535   6.942   0.397   2.973  0.0850  0.3539  1.0046
 4524TIP3    H113536   6.987   0.481   2.983 -1.8886  1.8242 -1.3738
 4524TIP3    H213537   6.909   0.377   3.061  0.4472  2.1232  1.5873
 4525TIP3   OH213538   3.412   0.966   1.933 -0.2931  0.3389  0.2255
 4525TIP3    H113539   3.405   1.054   1.970 -0.0422  0.4456  0.0159
 4525TIP3    H213540   3.349   0.965   1.861 -0.1534  0.4060  0.1046
 4526TIP3   OH213541   0.009   0.273   2.403  0.2729 -0.2127  0.1437
 4526TIP3    H113542   0.027   0.219   2.325 -1.5781 -2.1089  0.9244
 4526TIP3    H213543   0.035   0.218   2.477 -1.0414  0.2058  0.9565
 4527TIP3   OH213544   7.172   0.979   0.939  0.4787  0.4132  0.0566
 4527TIP3    H113545   7.250   1.034   0.939 -0.1259  1.3691  2.0748
 4527TIP3    H213546   7.172   0.939   1.026 -1.0509  0.0966 -0.0704
 4528TIP3   OH213547   1.886   2.052   3.461  0.7624  0.7298  0.3482
 4528TIP3    H113548   1.873   2.115   3.391  1.0828  1.2696  0.7643
 4528TIP3    H213549   1.970   2.076   3.500  1.1281 -0.2653  0.1942
 4529TIP3   OH213550   4.076   1.274   5.037 -0.1060 -0.2488 -0.5287
 4529TIP3    H113551   4.042   1.185   5.041 -0.8173  0.0527  1.4082
 4529TIP3    H213552   4.039   1.317   5.115  0.8967  1.4907 -0.9605
 4530TIP3   OH213553   4.304   0.575   1.508  0.2309  0.0770  0.5066
 4530TIP3    H113554   4.331   0.622   1.587  0.0450  1.2602 -0.1142
 4530TIP3    H213555   4.338   0.487   1.520  1.7296  0.7130  1.1133
 4531TIP3   OH213556   1.877   6.215   1.323 -0.5818 -0.5160  0.3686
 4531TIP3    H113557   1.801   6.194   1.377 -0.0944 -1.1120  0.8542
 4531TIP3    H213558   1.860   6.175   1.238 -1.5593  0.8125 -0.0928
 4532TIP3   OH213559   5.718   4.406   5.032  0.0311  0.7710 -0.1476
 4532TIP3    H113560   5.804   4.372   5.056 -0.7549 -0.5989  0.8439
 4532TIP3    H213561   5.715   4.401   4.937  1.3128  1.5336 -0.2456
 4533TIP3   OH213562   6.470   1.216   3.185  0.5278 -0.0946 -0.7268
 4533TIP3    H113563   6.378   1.212   3.211  0.4562  2.9676 -0.0486
 4533TIP3    H213564   6.514   1.154   3.243 -0.9543 -0.8309 -0.3327
 4534TIP3   OH213565   3.354   2.990   0.872 -0.5244  0.6816 -0.2588
 4534TIP3    H113566   3.299   3.068   0.875 -1.0586  0.3207 -0.6277
 4534TIP3    H213567   3.430   3.016   0.821 -0.4396  1.1243  0.0886
 4535TIP3   OH213568   2.055   2.424   0.377  0.1985  0.1962 -0.3263
 4535TIP3    H113569   2.137   2.463   0.348 -0.0769 -0.2352 -1.7754
 4535TIP3    H213570   1.994   2.439   0.304 -0.0272 -2.5302 -0.8030
 4536TIP3   OH213571   6.711   0.307   4.451  0.1730  0.2661 -0.1161
 4536TIP3    H113572   6.680   0.355   4.528 -0.1658  1.5907 -1.0400
 4536TIP3    H213573   6.772   0.242   4.485 -1.1941 -0.2620  1.4342
 4537TIP3   OH213574   0.488   1.104   2.468 -0.1655  0.8401  0.4978
 4537TIP3    H113575   0.506   1.037   2.534 -0.1926  1.4216  1.0974
 4537TIP3    H213576   0.393   1.102   2.457 -0.0321 -0.5088 -0.8664
 4538TIP3   OH213577   1.720   5.233   0.053  0.2722  0.2587  0.5978
 4538TIP3    H113578   1.727   5.155  -0.002  1.4950 -0.3600  1.5875
 4538TIP3    H213579   1.756   5.304  -0.000 -0.9931  0.2188 -0.3704
 4539TIP3   OH213580   1.846   5.592   1.430  0.1897  0.0012 -0.2755
 4539TIP3    H113581   1.917   5.538   1.395 -0.6078 -0.3457 -1.4200
 4539TIP3    H213582   1.766   5.546   1.405 -0.4703  0.9104  0.0973
 4540TIP3   OH213583   1.253   6.274   3.957 -0.3361  0.2375  0.2798
 4540TIP3    H113584   1.178   6.215   3.956 -1.5591  1.7301  0.6272
 4540TIP3    H213585   1.325   6.221   3.992 -1.4823 -0.9246  0.9510
 4541TIP3   OH213586   3.701   3.549   2.592  0.2144 -0.1238 -0.0116
 4541TIP3    H113587   3.655   3.528   2.673  0.6104 -0.2128  0.1884
 4541TIP3    H213588   3.672   3.482   2.530  0.6614 -0.6386  0.3310
 4542TIP3   OH213589   6.382   6.683   5.135 -0.3175 -0.2512 -0.1300
 4542TIP3    H113590   6.476   6.703   5.125 -0.3911  0.4201  0.4484
 4542TIP3    H213591   6.365   6.694   5.229 -0.7264 -1.5201 -0.0420
 4543TIP3   OH213592   3.588   1.023   0.925  0.2056 -0.3709  0.6463
 4543TIP3    H113593   3.640   0.969   0.865 -1.2691  0.6887 -1.7592
 4543TIP3    H213594   3.648   1.091   0.954  0.6641 -0.2113 -0.6189
 4544TIP3   OH213595   7.041   1.684   5.702  0.0930  0.6137 -0.2035
 4544TIP3    H113596   7.058   1.776   5.685  1.8849  0.0719 -1.8258
 4544TIP3    H213597   7.084   1.638   5.629  0.2652 -1.5516  1.1514
 4545TIP3   OH213598   5.800   0.911   2.782 -0.7655  0.3105  0.2188
 4545TIP3    H113599   5.878   0.915   2.727 -1.4452 -0.3044 -0.8356
 4545TIP3    H213600   5.787   1.000   2.813 -1.4657  1.1554 -2.2521
 4546TIP3   OH213601   5.266   4.380   1.868 -0.8536  0.3355 -0.8470
 4546TIP3    H113602   5.248   4.303   1.922  1.9253 -1.3076 -2.0236
 4546TIP3    H213603   5.244   4.454   1.924  0.3069 -1.2864  1.9739
 4547TIP3   OH213604   0.589   4.452   1.117 -0.2441 -0.5560 -0.7659
 4547TIP3    H113605   0.622   4.509   1.187 -3.1940  0.8441 -0.3875
 4547TIP3    H213606   0.646   4.472   1.042  0.8555  0.4511  0.2834
 4548TIP3   OH213607   6.123   2.947   4.465 -0.4689 -0.2485  0.1079
 4548TIP3    H113608   6.034   2.948   4.500 -0.8157  1.8800 -0.6763
 4548TIP3    H213609   6.115   2.899   4.382 -0.7181 -0.6850  0.3775
 4549TIP3   OH213610   4.090   0.825   1.636  0.4665 -0.1708 -0.5613
 4549TIP3    H113611   4.005   0.812   1.593  0.4200 -1.2040 -0.1931
 4549TIP3    H213612   4.100   0.748   1.692  1.0023  0.6438  0.4909
 4550TIP3   OH213613   0.254   2.840   3.317  0.2081  0.6511  0.8885
 4550TIP3    H113614   0.228   2.839   3.409 -1.5618 -1.8227  0.4735
 4550TIP3    H213615   0.197   2.905   3.276 -3.6133 -2.5347  0.5621
 4551TIP3   OH213616   6.456   5.828   4.161  0.2800  0.3888 -0.3159
 4551TIP3    H113617   6.436   5.795   4.073  1.9076 -2.2667  0.1827
 4551TIP3    H213618   6.406   5.909   4.168  0.1622  0.7642 -3.7125
 4552TIP3   OH213619   2.734   1.471   5.729  0.0575 -0.3501  0.2747
 4552TIP3    H113620   2.795   1.530   5.773 -0.8018 -1.0314  2.5310
 4552TIP3    H213621   2.714   1.514   5.646  0.4355  1.8988  1.2836
 4553TIP3   OH213622   1.798   1.701   3.609 -0.1596 -0.1139  0.0493
 4553TIP3    H113623   1.867   1.716   3.674 -0.3710 -0.5553  0.3798
 4553TIP3    H213624   1.841   1.652   3.539 -0.2512 -0.8497  0.4949
 4554TIP3   OH213625   7.039   4.613   1.103 -0.5633  0.5029  0.6683
 4554TIP3    H113626   7.089   4.634   1.182 -2.4634  3.2924  1.2970
 4554TIP3    H213627   7.087   4.657   1.032  0.4212 -0.8949  0.4289
 4555TIP3   OH213628   2.845   4.843   2.083 -0.2594 -0.1580 -0.2379
 4555TIP3    H113629   2.770   4.861   2.027  0.8303  1.0470 -1.3725
 4555TIP3    H213630   2.816   4.867   2.171 -1.7793 -1.4693 -0.3268
 4556TIP3   OH213631   5.522   4.614   0.946  0.0394  0.7727  0.0508
 4556TIP3    H113632   5.526   4.679   1.016  1.0257 -0.1259  0.8630
 4556TIP3    H213633   5.546   4.663   0.867  0.6738  1.4245  0.6287
 4557TIP3   OH213634   1.365   6.625   5.778  0.1393  0.0060 -0.0556
 4557TIP3    H113635   1.305   6.650   5.849 -1.1193  0.1143 -1.1198
 4557TIP3    H213636   1.399   6.540   5.804 -1.4252 -0.6220  0.0160
 4558TIP3   OH213637   4.290   6.476   4.911  0.1744  0.1672 -1.0093
 4558TIP3    H113638   4.233   6.497   4.984  0.0475 -0.8429 -0.7939
 4558TIP3    H213639   4.265   6.537   4.842  0.3671  1.2094 -0.1882
 4559TIP3   OH213640   7.117   2.034   1.754 -0.1564 -0.3353 -0.3261
 4559TIP3    H113641   7.197   2.064   1.711 -0.0436 -2.6614 -1.9562
 4559TIP3    H213642   7.101   2.098   1.822  1.7609  1.5235 -1.4907
 4560TIP3   OH213643   5.900   1.705   2.887  0.5500 -0.6731  0.2067
 4560TIP3    H113644   5.912   1.778   2.825  0.4752  1.1175  2.2011
 4560TIP3    H213645   5.982   1.656   2.882  0.8646 -0.0908 -0.6874
 4561TIP3   OH213646   1.730   2.467   1.733 -0.0994 -0.4408  0.7258
 4561TIP3    H113647   1.806   2.423   1.695 -2.7203 -2.5034 -2.7216
 4561TIP3    H213648   1.727   2.552   1.689 -1.3029 -1.5339 -1.4457
 4562TIP3   OH213649   0.787   5.168   1.839 -0.4648 -0.5288 -0.2120
 4562TIP3    H113650   0.749   5.118   1.767 -1.7760  1.1014 -0.7007
 4562TIP3    H213651   0.831   5.102   1.893 -2.3429 -2.2389 -0.6796
 4563TIP3   OH213652   0.627   2.087   5.393  0.0468  0.3011 -0.0121
 4563TIP3    H113653   0.659   2.175   5.411 -0.3692  0.3983  0.2499
 4563TIP3    H213654   0.658   2.068   5.304 -0.4835  0.9924 -0.3491
 4564TIP3   OH213655   2.231   0.169   2.963 -0.4197  0.2690 -0.2114
 4564TIP3    H113656   2.310   0.176   2.909  0.1713 -1.1616  0.4178
 4564TIP3    H213657   2.254   0.211   3.045 -1.2795  2.3345 -0.9689
 4565TIP3   OH213658   1.256   3.779   2.893 -0.2590  0.3258 -0.3863
 4565TIP3    H113659   1.306   3.841   2.946 -1.1736 -0.4229  1.4395
 4565TIP3    H213660   1.167   3.814   2.891 -1.0565 -1.3856  1.5955
 4566TIP3   OH213661   2.112   0.932   5.105 -0.0343  1.0685  0.8771
 4566TIP3    H113662   2.066   0.946   5.188  0.4005 -0.7922  1.4923
 4566TIP3    H213663   2.203   0.954   5.124  0.1918 -0.0036  1.1314
 4567TIP3   OH213664   1.637   4.709   4.513 -0.0877 -0.3263  0.1826
 4567TIP3    H113665   1.701   4.645   4.481 -1.4601 -2.4735  1.4881
 4567TIP3    H213666   1.587   4.734   4.435  0.8882 -0.3499 -0.4639
 4568TIP3   OH213667   2.670   4.427   0.703 -0.0570  0.4110 -0.3294
 4568TIP3    H113668   2.575   4.432   0.713 -0.4032 -1.8838 -1.7100
 4568TIP3    H213669   2.697   4.354   0.759  0.7318  0.3473 -0.7724
 4569TIP3   OH213670   0.550   6.435   2.639 -0.1640 -0.3101  0.0242
 4569TIP3    H113671   0.589   6.493   2.574  1.9738 -1.9051 -0.2155
 4569TIP3    H213672   0.570   6.476   2.724 -0.2874  0.2051 -0.1922
 4570TIP3   OH213673   3.422   4.221   4.230 -0.0972 -0.2596  0.3589
 4570TIP3    H113674   3.337   4.239   4.270 -0.0335  0.1003  0.3405
 4570TIP3    H213675   3.471   4.173   4.296  0.1646  0.7098  0.8853
 4571TIP3   OH213676   1.702   4.876   2.607  0.2324 -0.0374 -0.6580
 4571TIP3    H113677   1.664   4.932   2.674  1.1140 -1.3914  1.0690
 4571TIP3    H213678   1.650   4.796   2.611  1.0204 -0.5609 -0.7770
 4572TIP3   OH213679   3.700   0.978   2.769 -0.4135 -0.0504  0.1882
 4572TIP3    H113680   3.609   0.964   2.742 -0.1026 -0.2903 -0.7890
 4572TIP3    H213681   3.747   0.991   2.687  0.6932 -1.4011  0.5789
 4573TIP3   OH213682   2.354   5.069   5.120 -0.4800 -0.3160  0.3441
 4573TIP3    H113683   2.406   5.038   5.046 -1.4281 -3.5363  0.8774
 4573TIP3    H213684   2.263   5.056   5.094 -0.9438  1.3275  0.9969
 4574TIP3   OH213685   4.205   3.359   2.854  0.7828  0.0132  0.2314
 4574TIP3    H113686   4.274   3.421   2.879  0.4060  0.5836 -0.1151
 4574TIP3    H213687   4.253   3.282   2.822  1.3475  1.5058 -2.8272
 4575TIP3   OH213688   5.538   1.931   1.524  0.4759 -0.2385 -0.2156
 4575TIP3    H113689   5.505   2.015   1.494  1.4933  0.6382  1.0055
 4575TIP3    H213690   5.633   1.937   1.514  0.7097 -0.5703  1.3972
 4576TIP3   OH213691   6.735   1.392   4.470 -0.3367 -0.0735  0.1614
 4576TIP3    H113692   6.780   1.473   4.445 -1.6930  1.2159  1.6178
 4576TIP3    H213693   6.652   1.395   4.423 -1.5335  0.7850  2.1895
 4577TIP3   OH213694   7.120   6.017   2.977 -0.1553  0.0161  0.1505
 4577TIP3    H113695   7.058   6.075   2.933  0.9621  1.5821  0.5565
 4577TIP3    H213696   7.156   5.963   2.906 -1.2906 -0.2755 -0.2211
 4578TIP3   OH213697   0.733   1.789   5.538  0.5859  0.2847  0.3036
 4578TIP3    H113698   0.814   1.747   5.566  1.4447  1.1733 -0.7833
 4578TIP3    H213699   0.695   1.822   5.619 -0.7474 -3.4569  1.4364
 4579TIP3   OH213700   6.067   1.079   0.188 -0.1360  0.5686 -0.3831
 4579TIP3    H113701   6.051   1.167   0.221  0.1552  0.9506 -1.2145
 4579TIP3    H213702   6.161   1.078   0.167 -0.3142  0.3806 -1.2394
 4580TIP3   OH213703   5.511   3.467   0.957 -0.1574 -0.1948  0.1003
 4580TIP3    H113704   5.505   3.441   0.865 -1.5974  0.2270  0.0474
 4580TIP3    H213705   5.573   3.539   0.958 -0.0378 -0.2840 -0.5264
 4581TIP3   OH213706   4.816   4.871   2.497 -0.2205  0.0025 -0.4289
 4581TIP3    H113707   4.879   4.799   2.492 -1.2121 -0.8310 -1.8786
 4581TIP3    H213708   4.805   4.886   2.591 -0.1136 -1.8841 -0.0560
 4582TIP3   OH213709   3.107   2.784   4.123  0.0930  0.0421 -0.2872
 4582TIP3    H113710   3.037   2.719   4.120  0.5231 -0.4022 -0.8541
 4582TIP3    H213711   3.179   2.745   4.074  1.1605  0.0006  1.2265
 4583TIP3   OH213712   6.701   3.365   0.538  0.0513 -0.1576  0.0826
 4583TIP3    H113713   6.692   3.457   0.513 -0.4800 -0.2339 -0.0248
 4583TIP3    H213714   6.694   3.317   0.455  0.8978 -0.2690  0.0648
 4584TIP3   OH213715   5.139   2.537   0.281 -0.0784 -0.0334 -0.2120
 4584TIP3    H113716   5.055   2.530   0.327  0.1368 -1.0659  0.0505
 4584TIP3    H213717   5.191   2.596   0.334 -0.1003 -0.6143  0.4761
 4585TIP3   OH213718   4.019   3.124   0.109  0.0176 -0.1217  0.1328
 4585TIP3    H113719   3.924   3.111   0.101 -0.2298  1.4444  0.1706
 4585TIP3    H213720   4.057   3.040   0.082 -1.2534  0.2042 -3.2917
 4586TIP3   OH213721   4.311   3.027   0.329  0.7943  0.5386 -0.4075
 4586TIP3    H113722   4.402   3.001   0.315  0.2740 -1.5717 -0.1851
 4586TIP3    H213723   4.276   2.961   0.389 -0.7311  1.6350 -0.0402
 4587TIP3   OH213724   4.500   1.212   3.993 -0.1428 -0.8519 -0.1822
 4587TIP3    H113725   4.478   1.242   3.904  0.7768 -0.9221 -0.4364
 4587TIP3    H213726   4.415   1.203   4.036 -0.7234 -2.2515 -1.5184
 4588TIP3   OH213727   6.024   4.042   2.915  0.7712 -0.1745 -0.7085
 4588TIP3    H113728   6.044   4.000   2.999 -1.9158  0.2474  0.2629
 4588TIP3    H213729   6.107   4.041   2.867  2.0012 -1.9856  1.2524
 4589TIP3   OH213730   3.870   1.682   1.373  0.1455  0.3091 -0.1834
 4589TIP3    H113731   3.944   1.621   1.376 -0.3483 -0.3148 -0.5726
 4589TIP3    H213732   3.815   1.658   1.447 -0.9923 -0.9605 -1.3760
 4590TIP3   OH213733   5.437   5.939   5.717  0.1530 -0.3110  0.2362
 4590TIP3    H113734   5.397   5.913   5.633 -3.7769  0.6574  1.5866
 4590TIP3    H213735   5.463   5.856   5.757 -1.7145 -1.2059 -0.2717
 4591TIP3   OH213736   7.080   1.002   5.647  0.0666 -0.3766 -0.4563
 4591TIP3    H113737   6.988   0.993   5.621 -0.6048  1.5424  1.0386
 4591TIP3    H213738   7.081   0.974   5.739  0.3805  2.0877  0.3643
 4592TIP3   OH213739   4.446   0.354   4.404  0.6705 -0.3879 -0.1854
 4592TIP3    H113740   4.447   0.359   4.308 -0.4416 -1.0763 -0.2413
 4592TIP3    H213741   4.517   0.293   4.425  0.9771 -0.1663 -0.5591
 4593TIP3   OH213742   2.294   0.144   2.398 -0.5592 -0.0255 -0.4591
 4593TIP3    H113743   2.333   0.077   2.341 -0.0967  0.9511 -1.3424
 4593TIP3    H213744   2.346   0.141   2.478  1.1145  0.9582 -1.4579
 4594TIP3   OH213745   0.910   4.809   1.042 -0.2420 -0.9243  0.4357
 4594TIP3    H113746   0.968   4.885   1.045 -0.9763 -0.2665 -1.1570
 4594TIP3    H213747   0.826   4.842   1.076 -1.1535 -0.3855 -2.0808
 4595TIP3   OH213748   0.110   1.162   2.178 -0.4761  0.1082 -0.5148
 4595TIP3    H113749   0.164   1.092   2.142 -0.7322 -0.2049 -0.2930
 4595TIP3    H213750   0.137   1.240   2.130  0.7491  0.1205  0.1497
 4596TIP3   OH213751   4.498   1.358   2.562  0.1446  0.3108  0.4663
 4596TIP3    H113752   4.440   1.430   2.535 -1.3738 -0.6364  1.0233
 4596TIP3    H213753   4.586   1.391   2.548 -0.4432  0.7373 -3.4776
 4597TIP3   OH213754   3.880   4.806   3.203 -0.7538 -0.1240  0.3642
 4597TIP3    H113755   3.826   4.759   3.140 -1.5194 -1.3034  1.8325
 4597TIP3    H213756   3.821   4.868   3.244 -0.3053  0.5153  0.0544
 4598TIP3   OH213757   6.800   5.129   3.950  0.3272  0.2264  0.0337
 4598TIP3    H113758   6.775   5.162   4.036  0.6003 -1.0333  0.6193
 4598TIP3    H213759   6.895   5.113   3.957  0.8866  2.5653 -1.3519
 4599TIP3   OH213760   4.910   6.195   1.417  0.5737 -0.1588  0.6428
 4599TIP3    H113761   4.947   6.180   1.330  0.9749  2.6595  0.2311
 4599TIP3    H213762   4.958   6.270   1.450  0.1823 -0.9603  3.2072
 4600TIP3   OH213763   6.748   5.347   3.286 -0.2748 -0.0731  0.2154
 4600TIP3    H113764   6.781   5.436   3.274 -0.2226 -0.1548 -0.2485
 4600TIP3    H213765   6.804   5.293   3.231 -0.6348 -0.3278  0.0985
 4601TIP3   OH213766   1.458   3.842   0.425 -0.2799 -0.3751  0.4982
 4601TIP3    H113767   1.419   3.792   0.354  0.4106 -2.3185  1.4245
 4601TIP3    H213768   1.450   3.785   0.502  1.7338  0.3546  1.3268
 4602TIP3   OH213769   5.248   0.209   1.914  0.3197  0.1589  0.4507
 4602TIP3    H113770   5.318   0.244   1.969  0.6299 -0.2587  0.3322
 4602TIP3    H213771   5.207   0.141   1.967  1.0358 -0.6939 -0.0532
 4603TIP3   OH213772   4.721   5.469   2.588  0.4279  0.4165  0.0782
 4603TIP3    H113773   4.702   5.559   2.616  0.0017 -0.2825  2.2568
 4603TIP3    H213774   4.815   5.469   2.572  0.3945  1.2958 -0.2187
 4604TIP3   OH213775   5.869   3.511   0.970  0.5452  0.2886 -0.2146
 4604TIP3    H113776   5.834   3.430   0.934  1.9309 -0.2055 -0.5104
 4604TIP3    H213777   5.892   3.564   0.894 -0.0489  0.8440 -0.0239
 4605TIP3   OH213778   4.707   0.227   0.309  0.0752 -0.0344 -0.4132
 4605TIP3    H113779   4.756   0.158   0.353  0.5707 -1.9272 -3.5805
 4605TIP3    H213780   4.770   0.297   0.294  0.2311  0.0617  0.6670
 4606TIP3   OH213781   4.785   0.744   3.152  0.0207 -0.5581 -0.1282
 4606TIP3    H113782   4.800   0.663   3.104 -0.3609 -1.0998  0.6392
 4606TIP3    H213783   4.691   0.760   3.143  0.2893  0.4524 -1.2699
 4607TIP3   OH213784   2.926   1.136   0.539  0.1151  0.2029 -0.1710
 4607TIP3    H113785   3.017   1.127   0.567 -0.6244  1.9839  3.3920
 4607TIP3    H213786   2.877   1.083   0.601 -1.3262 -0.6277 -1.9583
 4608TIP3   OH213787   3.666   0.727   1.655 -0.1587  0.3246  0.7665
 4608TIP3    H113788   3.737   0.736   1.592 -1.2242  0.0187 -0.5326
 4608TIP3    H213789   3.693   0.654   1.711  0.4044 -0.0222  0.0650
 4609TIP3   OH213790   0.399   5.292   2.826  0.0589 -0.4674  0.3837
 4609TIP3    H113791   0.423   5.228   2.893 -1.3217  0.7351  2.1338
 4609TIP3    H213792   0.460   5.364   2.839  0.4397 -0.6416 -0.3690
 4610TIP3   OH213793   6.557   5.878   0.184 -0.8660  0.2440  0.1855
 4610TIP3    H113794   6.633   5.874   0.125 -0.1336  1.9742  0.9517
 4610TIP3    H213795   6.584   5.832   0.262 -1.9487 -2.3255 -0.8380
 4611TIP3   OH213796   3.241   5.621   1.267  0.1559  0.1488 -0.2047
 4611TIP3    H113797   3.176   5.572   1.216 -0.2170 -0.0925  0.4827
 4611TIP3    H213798   3.221   5.713   1.249  0.0313  0.0655 -0.4984
 4612TIP3   OH213799   6.191   0.291   4.959  0.0899  0.5666  0.2404
 4612TIP3    H113800   6.127   0.361   4.954 -1.2573 -0.5994  0.5664
 4612TIP3    H213801   6.161   0.235   5.031  0.1997 -1.2129 -1.0114
 4613TIP3   OH213802   1.891   5.100   0.746 -0.1118 -0.0933 -0.0326
 4613TIP3    H113803   1.937   5.033   0.694 -0.1296  0.4143 -0.7121
 4613TIP3    H213804   1.949   5.116   0.821  0.4947  0.0310 -0.5199
 4614TIP3   OH213805   1.635   4.128   2.966  0.0429 -0.0033  0.4607
 4614TIP3    H113806   1.639   4.047   2.915  4.4467 -0.0465  0.4810
 4614TIP3    H213807   1.641   4.100   3.057  4.3548  0.0878  0.4319
 4615TIP3   OH213808   5.779   0.551   4.303 -0.1902  0.5435 -0.0656
 4615TIP3    H113809   5.773   0.539   4.208 -1.9018 -1.1372  0.2038
 4615TIP3    H213810   5.833   0.478   4.333  0.0265  0.8541  0.3044
 4616TIP3   OH213811   0.722   6.110   2.166  0.2716 -0.1280  0.6347
 4616TIP3    H113812   0.681   6.079   2.247 -0.7752  0.2968  0.2759
 4616TIP3    H213813   0.696   6.045   2.100  0.2283  0.1079  0.4198
 4617TIP3   OH213814   1.814   1.582   4.999 -0.4068  0.0512  0.3181
 4617TIP3    H113815   1.845   1.532   5.075 -0.1643  0.6470  0.6231
 4617TIP3    H213816   1.834   1.526   4.924 -1.0089 -0.7194  0.7168
 4618TIP3   OH213817   3.758   2.146   1.801 -0.2600 -0.6682  0.0491
 4618TIP3    H113818   3.790   2.066   1.843 -1.0199 -0.8008  0.3866
 4618TIP3    H213819   3.680   2.119   1.753 -0.1974 -0.2380 -0.3004
 4619TIP3   OH213820   6.264   2.773   0.906 -0.1077  1.3261  0.3615
 4619TIP3    H113821   6.273   2.678   0.894 -0.3559  1.3654 -0.1428
 4619TIP3    H213822   6.332   2.795   0.970 -0.6243  0.6743  1.1581
 4620TIP3   OH213823   1.944   1.089   0.478  0.5118  0.1909  0.4927
 4620TIP3    H113824   1.958   0.997   0.501  1.8012  0.1134 -0.4881
 4620TIP3    H213825   2.011   1.108   0.413 -0.5563  1.4720 -0.2866
 4621TIP3   OH213826   5.629   3.975   4.390 -0.3676 -0.8448 -0.5072
 4621TIP3    H113827   5.564   4.016   4.332  0.3209 -0.9325 -1.3735
 4621TIP3    H213828   5.705   3.959   4.333  0.8816  0.3515  0.7150
 4622TIP3   OH213829   1.455   1.890   0.502  0.0376  0.2111 -0.1047
 4622TIP3    H113830   1.469   1.808   0.548 -1.2010  1.3297  2.4817
 4622TIP3    H213831   1.535   1.940   0.518  0.9475 -0.5473 -1.9908
 4623TIP3   OH213832   1.196   2.472   3.193 -0.0872  0.0272  0.1265
 4623TIP3    H113833   1.145   2.404   3.236 -0.7645  1.7005  2.1743
 4623TIP3    H213834   1.141   2.501   3.120 -1.6117  0.9897  1.5929
 4624TIP3   OH213835   3.318   0.597   5.595 -0.1880  0.1734  0.3008
 4624TIP3    H113836   3.281   0.605   5.683 -0.1229 -1.5382  0.5090
 4624TIP3    H213837   3.377   0.522   5.600  0.1964  0.3481 -1.0935
 4625TIP3   OH213838   0.735   5.646   3.182 -0.1501  0.2668  0.1101
 4625TIP3    H113839   0.780   5.726   3.158  2.2341 -1.0308 -0.0233
 4625TIP3    H213840   0.740   5.644   3.278 -3.1355  1.7926  0.4292
 4626TIP3   OH213841   0.501   1.244   5.195  0.0035 -0.0330 -0.0565
 4626TIP3    H113842   0.544   1.309   5.139  2.3571 -0.9304  0.5904
 4626TIP3    H213843   0.546   1.253   5.279  0.3306 -2.4150  0.0712
 4627TIP3   OH213844   5.709   3.178   0.186  0.1776  0.3010 -0.2905
 4627TIP3    H113845   5.634   3.193   0.129  1.4941  1.3422 -1.8248
 4627TIP3    H213846   5.676   3.118   0.253 -1.5839 -0.4709 -1.7625
 4628TIP3   OH213847   6.335   2.011   4.957 -0.4629  0.1439  0.1365
 4628TIP3    H113848   6.419   1.981   4.919 -0.3192  2.0008 -1.1231
 4628TIP3    H213849   6.279   2.027   4.881 -1.4258  0.5029  0.9066
 4629TIP3   OH213850   6.221   2.835   5.002  0.4098  0.1424  0.5931
 4629TIP3    H113851   6.141   2.869   4.962  0.3672  0.4265  0.9147
 4629TIP3    H213852   6.195   2.812   5.091  0.2743 -1.3749  0.1902
 4630TIP3   OH213853   4.411   1.937   0.134 -0.6943 -0.4363  0.1580
 4630TIP3    H113854   4.456   2.000   0.079 -0.2478 -0.1456  0.8449
 4630TIP3    H213855   4.480   1.894   0.184 -1.1984  1.0078  2.2794
 4631TIP3   OH213856   2.645   4.831   1.841 -0.0291  0.1853  0.4166
 4631TIP3    H113857   2.622   4.899   1.905  1.5663 -0.6233  1.9042
 4631TIP3    H213858   2.570   4.771   1.843  0.9475 -1.1155  3.3939
 4632TIP3   OH213859   4.551   5.039   1.698  0.0089 -0.2688  0.2955
 4632TIP3    H113860   4.476   5.090   1.669  0.3975 -0.9325 -2.0933
 4632TIP3    H213861   4.569   4.980   1.625  1.3896 -1.7789  1.7760
 4633TIP3   OH213862   1.894   0.479   4.800 -0.1268  0.2048  0.3742
 4633TIP3    H113863   1.858   0.505   4.885 -1.5544 -4.5735  1.5359
 4633TIP3    H213864   1.977   0.437   4.821  0.3385  0.4634 -0.8542
 4634TIP3   OH213865   2.532   0.436   0.218  0.2693  0.2914 -0.0342
 4634TIP3    H113866   2.606   0.417   0.276 -0.7222  1.5776  1.7064
 4634TIP3    H213867   2.507   0.350   0.183  0.1065 -0.7268  2.4240
 4635TIP3   OH213868   3.455   4.424   2.786  0.2608  0.5250 -0.5228
 4635TIP3    H113869   3.373   4.404   2.831 -0.7221  3.5781 -0.7642
 4635TIP3    H213870   3.521   4.425   2.857 -0.1044 -0.6651 -0.1398
 4636TIP3   OH213871   6.191   6.501   4.996  0.2116  0.4627  0.0341
 4636TIP3    H113872   6.224   6.451   4.921  0.5527  0.7688 -0.0214
 4636TIP3    H213873   6.252   6.574   5.005  0.7838 -0.1345  1.2536
 4637TIP3   OH213874   5.506   1.859   4.557 -0.4167 -0.2728 -0.3081
 4637TIP3    H113875   5.590   1.904   4.565 -0.4492 -0.2737  0.0858
 4637TIP3    H213876   5.456   1.889   4.633 -0.5111 -0.8138 -0.1538
 4638TIP3   OH213877   6.806   4.254   3.219  0.0100 -0.6244  0.0820
 4638TIP3    H113878   6.892   4.295   3.224  0.0438 -0.7484  0.5864
 4638TIP3    H213879   6.776   4.251   3.310 -0.7777 -0.0570 -0.1534
 4639TIP3   OH213880   6.634   0.891   0.863  0.4974  0.2964 -0.0522
 4639TIP3    H113881   6.679   0.821   0.815  1.1850  1.2604 -0.8690
 4639TIP3    H213882   6.668   0.971   0.825 -2.8663  1.1423 -1.7132
 4640TIP3   OH213883   4.028   2.033   3.232  0.0344  0.2236  0.7386
 4640TIP3    H113884   4.071   2.103   3.281 -0.3364  0.8693  0.1546
 4640TIP3    H213885   3.949   2.014   3.282  0.5841 -0.4067  1.3799
 4641TIP3   OH213886   0.493   5.912   1.012  0.0784 -0.6309 -0.1754
 4641TIP3    H113887   0.525   5.877   0.929  1.0044 -1.8828  0.6653
 4641TIP3    H213888   0.524   5.849   1.078 -0.6626  0.3051  1.1128
 4642TIP3   OH213889   4.130   4.394   0.980 -0.2481  0.2694  0.1681
 4642TIP3    H113890   4.186   4.340   1.036 -2.4127 -1.6093  0.6690
 4642TIP3    H213891   4.089   4.456   1.040  0.1355  0.6704  0.0287
 4643TIP3   OH213892   6.028   3.410   3.416 -0.5625 -0.1828 -0.1410
 4643TIP3    H113893   6.002   3.461   3.493  1.7884  1.4228 -0.2805
 4643TIP3    H213894   5.998   3.462   3.341  1.8556  1.1698 -0.2850
 4644TIP3   OH213895   1.568   3.392   2.175  0.1642  0.3601 -0.2196
 4644TIP3    H113896   1.482   3.370   2.210 -0.6537  0.3472 -2.1157
 4644TIP3    H213897   1.622   3.314   2.191 -0.9302 -0.6591 -1.3010
 4645TIP3   OH213898   3.996   2.955   1.330  0.0421 -0.1668  0.9454
 4645TIP3    H113899   4.029   2.931   1.416 -1.0558 -0.7300  1.2338
 4645TIP3    H213900   3.948   2.877   1.300 -0.7089  0.4833  0.4045
 4646TIP3   OH213901   0.368   4.857   4.542 -0.3740  0.2235  0.6815
 4646TIP3    H113902   0.332   4.769   4.556 -0.8677 -0.2086 -2.4425
 4646TIP3    H213903   0.294   4.907   4.507  0.7511  0.7996 -0.9932
 4647TIP3   OH213904   0.937   5.122   1.405 -0.4517 -0.1244  0.5939
 4647TIP3    H113905   0.983   5.086   1.482  0.0552 -1.0248 -0.1117
 4647TIP3    H213906   0.851   5.082   1.408 -0.0669 -1.0213  0.1060
 4648TIP3   OH213907   4.765   6.193   5.053 -0.3661 -0.8981 -0.7168
 4648TIP3    H113908   4.794   6.104   5.073 -0.8849 -0.6921  1.0877
 4648TIP3    H213909   4.692   6.181   4.992 -0.8256 -1.7443 -0.0190
 4649TIP3   OH213910   3.498   6.348   1.032  0.2157  0.0204  0.1424
 4649TIP3    H113911   3.523   6.264   1.070 -1.1655 -0.3029  0.3763
 4649TIP3    H213912   3.491   6.332   0.938 -1.5207 -0.5480  0.3328
 4650TIP3   OH213913   0.330   0.678   4.121  0.5605 -0.2178  0.2478
 4650TIP3    H113914   0.385   0.726   4.183 -1.4021  1.7243  0.5919
 4650TIP3    H213915   0.288   0.610   4.175  0.8427 -0.2180  0.4720
 4651TIP3   OH213916   2.016   1.270   0.673 -0.1634 -0.5477 -0.1387
 4651TIP3    H113917   1.975   1.208   0.612 -0.3519 -0.8245  0.2579
 4651TIP3    H213918   2.063   1.332   0.618 -0.2867 -0.8276 -0.5599
 4652TIP3   OH213919   4.541   2.214   0.227  0.7079 -0.2258  0.4083
 4652TIP3    H113920   4.518   2.175   0.143  2.2208 -0.0439 -0.1296
 4652TIP3    H213921   4.497   2.300   0.227  1.1178 -0.0108 -0.4320
 4653TIP3   OH213922   5.670   1.516   0.587 -0.4194  0.3807  0.5097
 4653TIP3    H113923   5.727   1.551   0.519  0.0117 -0.4616  0.4197
 4653TIP3    H213924   5.692   1.566   0.666  0.6217 -0.0896  0.5318
 4654TIP3   OH213925   0.903   5.788   0.479 -0.1601 -0.8068 -1.1298
 4654TIP3    H113926   0.838   5.797   0.549  1.0540  1.6445 -0.1917
 4654TIP3    H213927   0.987   5.776   0.525  0.3920 -1.3820 -2.2360
 4655TIP3   OH213928   6.258   5.739   5.845  0.6591 -0.5588  0.0354
 4655TIP3    H113929   6.244   5.708   5.756  0.7043  0.2023 -0.2462
 4655TIP3    H213930   6.308   5.820   5.835 -1.2166  0.7476  0.6192
 4656TIP3   OH213931   1.181   6.177   2.722 -0.4703  0.1400 -0.1988
 4656TIP3    H113932   1.162   6.100   2.776 -0.1400  0.8081  0.9102
 4656TIP3    H213933   1.108   6.181   2.660 -0.2452 -1.3320 -0.6009
 4657TIP3   OH213934   5.487   4.618   2.903  0.2526  0.0310  0.1118
 4657TIP3    H113935   5.531   4.560   2.965  0.1911  0.8896  0.9852
 4657TIP3    H213936   5.452   4.560   2.835  1.6785 -0.7912  0.0346
 4658TIP3   OH213937   6.428   0.565   4.723 -0.2839 -0.2167 -0.2109
 4658TIP3    H113938   6.394   0.623   4.791  0.1399  1.2690 -1.1998
 4658TIP3    H213939   6.519   0.593   4.711  0.5291 -2.3342  0.5356
 4659TIP3   OH213940   0.648   1.867   5.176 -0.0302  0.3647  0.0895
 4659TIP3    H113941   0.691   1.861   5.091 -1.4529  0.5170 -0.6692
 4659TIP3    H213942   0.710   1.828   5.237  0.9660  0.1403 -1.0341
 4660TIP3   OH213943   0.345   5.394   0.693  0.3948 -0.2204  0.0269
 4660TIP3    H113944   0.347   5.437   0.608  0.2529  0.1629  0.2129
 4660TIP3    H213945   0.255   5.407   0.724  0.0167 -1.6332 -0.4022
 4661TIP3   OH213946   2.332   5.326   3.397 -0.2848 -0.0112  0.3938
 4661TIP3    H113947   2.299   5.276   3.472 -0.8072 -1.0716 -0.5111
 4661TIP3    H213948   2.263   5.317   3.331  0.2414  0.7702 -0.2814
 4662TIP3   OH213949   2.618   3.948   0.028 -0.0881 -0.4724  0.0688
 4662TIP3    H113950   2.608   3.980   0.117  1.3288 -1.2874  0.5553
 4662TIP3    H213951   2.604   3.853   0.035  0.7358 -0.6453 -0.4208
 4663TIP3   OH213952   5.262   5.731   5.085 -0.4950 -0.5180  0.0769
 4663TIP3    H113953   5.284   5.812   5.131 -0.5265 -0.0043 -0.7804
 4663TIP3    H213954   5.338   5.713   5.029 -1.4279  0.2562 -1.5161
 4664TIP3   OH213955   5.010   5.108   2.781  0.2585  0.4512 -0.6222
 4664TIP3    H113956   4.935   5.166   2.767  0.1012  0.5872  0.6758
 4664TIP3    H213957   5.046   5.095   2.693 -1.7475 -0.2882 -1.3975
 4665TIP3   OH213958   2.379  -0.034   3.623  0.2936  0.1436  0.1032
 4665TIP3    H113959   2.290   0.002   3.620  0.5378  0.7017 -0.6703
 4665TIP3    H213960   2.433   0.040   3.651  0.3978 -0.4493  1.5608
 4666TIP3   OH213961   1.314   2.725   2.307  0.0919 -0.2674  0.1505
 4666TIP3    H113962   1.377   2.753   2.374  0.7678 -0.2230 -0.4876
 4666TIP3    H213963   1.290   2.806   2.262  0.4094 -0.4258 -0.3076
 4667TIP3   OH213964   0.779   0.439   1.320 -0.2158  0.0786  0.1209
 4667TIP3    H113965   0.794   0.442   1.415 -1.1073 -2.9443  0.4637
 4667TIP3    H213966   0.866   0.428   1.283 -0.0135 -0.7343  0.7870
 4668TIP3   OH213967   5.888   2.930   0.173  0.3333  0.1476 -0.2846
 4668TIP3    H113968   5.840   2.967   0.099  0.2834 -0.8969 -0.7836
 4668TIP3    H213969   5.822   2.880   0.221 -0.2700  2.8561  1.9495
 4669TIP3   OH213970   5.638   0.628   2.770  0.4213 -0.8465 -0.3056
 4669TIP3    H113971   5.721   0.655   2.810 -0.2969  0.9165  0.1023
 4669TIP3    H213972   5.602   0.708   2.733 -0.3575 -1.8837 -1.9323
 4670TIP3   OH213973   6.298   0.662   4.408 -0.1619  0.3148  0.1425
 4670TIP3    H113974   6.247   0.736   4.441  0.4039  0.7382  0.0764
 4670TIP3    H213975   6.242   0.586   4.424 -1.1538  0.8573 -0.6741
 4671TIP3   OH213976   2.587   4.568   2.682  0.5769  0.2473  0.3137
 4671TIP3    H113977   2.593   4.565   2.587  2.1911  1.2597  0.3483
 4671TIP3    H213978   2.554   4.482   2.707  1.7253 -0.6318 -1.0677
 4672TIP3   OH213979   4.523   3.601   3.995  0.2679 -0.3549  0.3791
 4672TIP3    H113980   4.456   3.535   3.973 -0.8188  0.8732 -0.0891
 4672TIP3    H213981   4.534   3.652   3.915  1.6440 -0.4005  0.5178
 4673TIP3   OH213982   6.703   4.414   2.756  0.0668 -0.1316  0.4721
 4673TIP3    H113983   6.779   4.395   2.701  0.7140 -1.6044  1.7847
 4673TIP3    H213984   6.644   4.341   2.741  0.1776 -0.4695  1.5577
 4674TIP3   OH213985   4.787   5.898   0.638 -0.1248  0.5731  0.0099
 4674TIP3    H113986   4.790   5.825   0.700 -0.1398 -0.2041 -0.8804
 4674TIP3    H213987   4.706   5.943   0.658 -1.9518 -1.7039 -1.6472
 4675TIP3   OH213988   4.489   5.664   0.980 -0.1904 -0.1879  0.2615
 4675TIP3    H113989   4.484   5.739   0.921 -1.0045 -0.7201 -0.3566
 4675TIP3    H213990   4.434   5.690   1.055 -2.5843 -1.1108 -1.0553
 4676TIP3   OH213991   3.987   6.121   5.056 -0.3634 -0.2794  0.0059
 4676TIP3    H113992   3.915   6.073   5.015 -0.9136  0.7241 -0.2254
 4676TIP3    H213993   4.066   6.076   5.026 -0.8012 -0.1859 -1.3363
 4677TIP3   OH213994   6.782   4.494   5.710  0.4662 -0.2997  0.9482
 4677TIP3    H113995   6.730   4.420   5.742  0.2554 -1.0252 -0.9058
 4677TIP3    H213996   6.848   4.508   5.778 -0.8308 -0.7384  2.3620
 4678TIP3   OH213997   2.160   6.286   0.118 -0.3810  0.4903  0.0365
 4678TIP3    H113998   2.177   6.380   0.116 -4.0460  1.2707 -1.9162
 4678TIP3    H213999   2.222   6.249   0.055  0.9279  1.5304  0.6515
 4679TIP3   OH214000   5.970   4.105   1.998 -0.3585 -0.4042 -0.1869
 4679TIP3    H114001   5.947   4.185   1.951 -0.7608 -0.6014 -0.3313
 4679TIP3    H214002   6.027   4.057   1.937  0.4533  0.0887  0.1743
 4680TIP3   OH214003   1.964   4.336   3.475 -0.6390  0.6560 -0.6835
 4680TIP3    H114004   1.981   4.372   3.562  0.1190 -0.1564 -0.4856
 4680TIP3    H214005   1.869   4.338   3.466 -0.7419  0.4556  0.2862
 4681TIP3   OH214006   2.086   2.946   4.872 -0.1710 -0.4436  0.6768
 4681TIP3    H114007   2.044   3.018   4.920  0.1902 -0.6638  1.3408
 4681TIP3    H214008   2.150   2.910   4.934  1.3511  0.1830 -0.4733
 4682TIP3   OH214009   3.382   2.275   5.385  0.5206 -0.3126 -0.5229
 4682TIP3    H114010   3.290   2.257   5.403  0.5214  0.4468  0.2722
 4682TIP3    H214011   3.384   2.364   5.352  1.0293 -0.1282 -0.0178
 4683TIP3   OH214012   2.904   1.278   0.252 -0.7320  0.7047  0.5664
 4683TIP3    H114013   2.880   1.310   0.165 -0.5712  0.5781  0.4750
 4683TIP3    H214014   2.979   1.333   0.277  1.1883 -1.2139 -0.6465
 4684TIP3   OH214015   3.752   5.047   3.290 -0.0417 -0.1407  0.4651
 4684TIP3    H114016   3.813   5.108   3.332 -0.6819  0.1106  1.0602
 4684TIP3    H214017   3.674   5.051   3.345 -1.1324  0.6421 -1.0551
 4685TIP3   OH214018   1.460   0.921   1.259  0.4951  0.1411 -0.1556
 4685TIP3    H114019   1.408   0.888   1.332  1.0904  0.4653  0.4344
 4685TIP3    H214020   1.437   1.014   1.252  0.5101  0.1342 -0.3159
 4686TIP3   OH214021   1.986   2.153   0.954  0.4289 -0.0119  0.4145
 4686TIP3    H114022   1.960   2.062   0.966  0.6500 -0.5460 -2.4772
 4686TIP3    H214023   2.080   2.153   0.970  0.9947 -1.0013 -2.4210
 4687TIP3   OH214024   4.300   3.593   5.225 -0.7208 -0.3714  0.0982
 4687TIP3    H114025   4.376   3.626   5.274 -0.9438  2.0966 -1.0290
 4687TIP3    H214026   4.225   3.615   5.279 -0.8506  0.7972 -0.5217
 4688TIP3   OH214027   1.821   5.928   4.347  0.2041  0.0017 -0.2067
 4688TIP3    H114028   1.851   5.938   4.437 -1.0344  0.8467  0.1503
 4688TIP3    H214029   1.775   5.844   4.346 -0.4648  0.3533  0.1712
 4689TIP3   OH214030   1.495   5.141   1.297 -0.5306 -0.0221  0.4893
 4689TIP3    H114031   1.410   5.181   1.317 -0.8459 -1.1339  1.5890
 4689TIP3    H214032   1.525   5.106   1.382 -0.0579 -1.6114 -0.2818
 4690TIP3   OH214033   2.949   4.906   5.567  0.3436  0.4221 -0.4896
 4690TIP3    H114034   3.011   4.932   5.635  0.4605  0.8511 -0.7503
 4690TIP3    H214035   3.000   4.912   5.486  1.5137 -4.1273 -0.3296
 4691TIP3   OH214036   6.658   4.417   2.033 -0.2839  0.7033  0.0066
 4691TIP3    H114037   6.589   4.483   2.030 -0.7433  0.2243 -0.0787
 4691TIP3    H214038   6.629   4.354   2.099  1.1329  1.6438  1.6156
 4692TIP3   OH214039   4.753   4.951   0.377 -0.5599 -0.4598  0.0468
 4692TIP3    H114040   4.725   4.902   0.299 -1.1375  0.4394 -0.3281
 4692TIP3    H214041   4.744   4.889   0.449 -3.0603 -0.3926 -0.1383
 4693TIP3   OH214042   7.088   1.397   3.020 -0.3965  0.3074 -0.3085
 4693TIP3    H114043   7.111   1.394   2.927  2.4099  1.0754  0.2592
 4693TIP3    H214044   7.094   1.490   3.043 -0.1823  0.0244  0.8247
 4694TIP3   OH214045   6.913   4.439   0.406 -0.0607  0.8906 -0.1618
 4694TIP3    H114046   6.924   4.490   0.486  0.7520  0.4948 -0.0168
 4694TIP3    H214047   6.823   4.407   0.411 -0.6341  2.3995 -0.3250
 4695TIP3   OH214048   5.325   2.315   2.052 -0.7185 -0.1619 -0.5135
 4695TIP3    H114049   5.388   2.381   2.024 -1.7331  0.2605 -1.9630
 4695TIP3    H214050   5.240   2.358   2.044 -1.2586 -0.9614  0.6388
 4696TIP3   OH214051   1.778   4.969   3.821  0.1651  0.3241  0.3098
 4696TIP3    H114052   1.751   4.977   3.913  0.5450 -1.2264  0.5742
 4696TIP3    H214053   1.873   4.973   3.824  0.1986 -0.2995  0.0424
 4697TIP3   OH214054   4.515   1.994   0.560 -0.3326 -0.3986 -0.2910
 4697TIP3    H114055   4.550   2.067   0.508  2.0233 -0.6494  0.8161
 4697TIP3    H214056   4.421   2.008   0.560 -0.0341  2.0999 -0.9434
 4698TIP3   OH214057   3.505   0.830   0.559  0.1413  0.1600  0.2924
 4698TIP3    H114058   3.554   0.842   0.641 -0.7493 -1.4981  1.1142
 4698TIP3    H214059   3.460   0.746   0.570  0.7761 -0.6108 -2.3162
 4699TIP3   OH214060   7.072   3.403   0.310 -0.2438  0.2237 -0.0042
 4699TIP3    H114061   7.006   3.464   0.342  0.2050  0.1745  1.0797
 4699TIP3    H214062   7.133   3.456   0.260 -0.9193  0.3247 -0.7289
 4700TIP3   OH214063   4.688   3.078   1.500  0.1393 -0.1228  0.2156
 4700TIP3    H114064   4.636   2.999   1.516 -1.8658  0.4975 -2.6378
 4700TIP3    H214065   4.778   3.045   1.490 -0.6886 -2.1454 -1.1939
 4701TIP3   OH214066   7.163   1.108   5.150 -0.2663 -0.0706  0.1058
 4701TIP3    H114067   7.097   1.039   5.157 -1.5631  1.0095 -0.9416
 4701TIP3    H214068   7.128   1.182   5.199  0.9739 -0.0179  0.9752
 4702TIP3   OH214069   6.007   3.440   1.478 -0.5305 -0.1880  0.2813
 4702TIP3    H114070   5.976   3.403   1.561  0.6708  0.9478  1.2759
 4702TIP3    H214071   5.995   3.534   1.488  3.4230  0.4093  0.8957
 4703TIP3   OH214072   4.450   5.447   1.741  0.4067 -0.8971  0.0821
 4703TIP3    H114073   4.461   5.369   1.796 -3.0215 -0.8751  1.0257
 4703TIP3    H214074   4.520   5.440   1.676  0.2001 -4.8700  0.0176
 4704TIP3   OH214075   2.597   1.454   1.284  0.2700  0.0211 -0.2552
 4704TIP3    H114076   2.592   1.549   1.287  1.5511  0.0864  1.7626
 4704TIP3    H214077   2.662   1.436   1.216  0.0729  0.5795 -0.6003
 4705TIP3   OH214078   1.225   4.883   1.248 -0.0825  0.2272 -0.5014
 4705TIP3    H114079   1.320   4.883   1.239 -0.1020  1.4804 -0.9935
 4705TIP3    H214080   1.198   4.969   1.214 -1.1414  0.9888  2.0128
 4706TIP3   OH214081   1.767   5.477   0.413  0.5605 -0.4085  0.3300
 4706TIP3    H114082   1.860   5.480   0.437  0.7108 -1.2640 -0.0711
 4706TIP3    H214083   1.744   5.384   0.419  0.1725 -0.4447 -1.1764
 4707TIP3   OH214084   4.941   0.953   1.572 -0.3330 -0.1858 -0.1776
 4707TIP3    H114085   4.999   0.878   1.558 -0.3286 -0.3764  0.7745
 4707TIP3    H214086   4.914   0.979   1.484  1.4870  0.1340 -0.6860
 4708TIP3   OH214087   0.288   0.393   3.724  0.0143 -0.2350  0.3558
 4708TIP3    H114088   0.351   0.441   3.778  0.9510 -0.8304 -0.1828
 4708TIP3    H214089   0.280   0.308   3.766 -0.5851 -0.1073  0.5187
 4709TIP3   OH214090   1.745   4.867   5.535  0.2891 -0.0861 -0.5760
 4709TIP3    H114091   1.667   4.829   5.496 -0.1265  0.1193  0.0372
 4709TIP3    H214092   1.796   4.900   5.461 -0.2215 -0.1908 -0.9761
 4710TIP3   OH214093   5.007   6.332   3.390  0.9420 -0.0269 -0.4012
 4710TIP3    H114094   4.975   6.265   3.451  3.3680  0.1199  1.1511
 4710TIP3    H214095   5.080   6.291   3.345  0.7962  0.7423 -1.3731
 4711TIP3   OH214096   0.607   3.730   4.394  0.3603  0.0024 -0.5464
 4711TIP3    H114097   0.606   3.812   4.443 -2.4661  0.0392 -0.4854
 4711TIP3    H214098   0.583   3.755   4.305 -2.5334 -0.8723 -0.1033
 4712TIP3   OH214099   1.164   2.182   1.922  0.0709 -1.0879 -0.0433
 4712TIP3    H114100   1.068   2.187   1.920  0.0989  1.4439  0.8479
 4712TIP3    H214101   1.190   2.184   1.830 -0.6796 -5.7819 -0.6088
 4713TIP3   OH214102   1.748   5.169   4.415  0.2322  0.3644 -0.4202
 4713TIP3    H114103   1.683   5.109   4.379  1.6291 -0.5733 -1.4755
 4713TIP3    H214104   1.697   5.237   4.459 -1.4592 -0.0490 -1.6810
 4714TIP3   OH214105   1.852   0.945   1.121  0.3324 -0.3129 -0.1011
 4714TIP3    H114106   1.800   0.963   1.042 -1.5801 -0.9939  0.9276
 4714TIP3    H214107   1.867   0.851   1.119 -1.2734 -0.6518  1.1622
 4715TIP3   OH214108   2.505   2.310   2.067  0.6782 -0.1998  0.1827
 4715TIP3    H114109   2.520   2.218   2.046 -0.7925 -0.6018  0.7244
 4715TIP3    H214110   2.425   2.310   2.120  0.7670  1.3720  0.3830
 4716TIP3   OH214111   0.179   2.425   5.354 -0.4703  0.0303  0.1902
 4716TIP3    H114112   0.240   2.371   5.304 -0.6092  0.6431 -0.6599
 4716TIP3    H214113   0.093   2.389   5.333 -0.4048 -1.3580  2.0190
 4717TIP3   OH214114   1.218   6.745   0.269 -0.2929 -0.0064 -0.1714
 4717TIP3    H114115   1.313   6.730   0.263 -0.5020 -1.4399 -0.3165
 4717TIP3    H214116   1.203   6.827   0.222  0.9548  0.5851  0.4189
 4718TIP3   OH214117   0.593   4.092   0.583  0.2650  0.4099  0.4244
 4718TIP3    H114118   0.521   4.070   0.641 -0.5496 -0.4757 -0.8730
 4718TIP3    H214119   0.663   4.031   0.607  0.8293  1.6171  2.0408
 4719TIP3   OH214120   5.055   3.462   3.404  0.0639  0.3917 -0.8468
 4719TIP3    H114121   5.065   3.502   3.318 -3.2054  1.1922 -0.9776
 4719TIP3    H214122   4.995   3.389   3.389  3.3949 -2.8224 -0.0245
 4720TIP3   OH214123   0.563   1.065   5.725  0.3307 -0.4925 -0.1318
 4720TIP3    H114124   0.654   1.040   5.743  0.6684  0.9488  0.3005
 4720TIP3    H214125   0.511   1.002   5.775  1.1738  0.5142  2.1508
 4721TIP3   OH214126   0.544   3.243   4.590  0.4679  0.2599 -0.2764
 4721TIP3    H114127   0.464   3.283   4.557 -0.6992  0.4891  2.5281
 4721TIP3    H214128   0.611   3.309   4.577  0.3184 -0.0104 -2.8644
 4722TIP3   OH214129   0.801   0.592   1.060  0.3517 -0.7334  0.2860
 4722TIP3    H114130   0.811   0.545   0.977  1.7579  0.1949 -0.1006
 4722TIP3    H214131   0.868   0.555   1.117  1.5180  0.8003 -0.0387
 4723TIP3   OH214132   4.125   2.101   1.816 -0.0461 -0.5384 -0.0569
 4723TIP3    H114133   4.186   2.053   1.760  1.7009  0.7653  0.6441
 4723TIP3    H214134   4.056   2.129   1.756  0.5187 -1.2251 -1.0743
 4724TIP3   OH214135   4.240   5.759   3.035  0.4967  0.5428  0.7502
 4724TIP3    H114136   4.252   5.714   2.951  0.0663  0.7343  0.5826
 4724TIP3    H214137   4.241   5.852   3.012 -1.5309  0.5871  0.6684
 4725TIP3   OH214138   1.499   4.407   2.777  0.2116  0.1149  0.5906
 4725TIP3    H114139   1.537   4.466   2.712  1.0909  0.8231  1.7090
 4725TIP3    H214140   1.567   4.396   2.843 -0.9097  0.0334  1.7883
 4726TIP3   OH214141   1.575   6.306   5.298 -0.4155 -0.3299  0.0626
 4726TIP3    H114142   1.616   6.385   5.263 -2.4727  0.0577 -1.6383
 4726TIP3    H214143   1.598   6.307   5.391  1.1768  1.2300 -0.2947
 4727TIP3   OH214144   0.473   3.196   0.732 -0.2955 -0.4299 -0.4894
 4727TIP3    H114145   0.537   3.149   0.679  0.5937 -1.7717  1.6332
 4727TIP3    H214146   0.477   3.286   0.700  2.6338 -0.4597 -0.5132
 4728TIP3   OH214147   1.090   5.928   3.691 -0.1559  0.2488 -0.1479
 4728TIP3    H114148   1.150   5.881   3.632  0.3508  0.1733  0.4179
 4728TIP3    H214149   1.005   5.922   3.648  0.1870  0.1175 -0.8318
 4729TIP3   OH214150   6.757   0.898   5.753  0.6365  0.5104  0.0606
 4729TIP3    H114151   6.664   0.919   5.754  0.1406 -1.5234  0.5050
 4729TIP3    H214152   6.799   0.970   5.801 -1.0646 -0.0304  2.5357
 4730TIP3   OH214153   6.704   6.792   4.123  0.0974  0.4811  0.1562
 4730TIP3    H114154   6.695   6.827   4.034 -0.0266  0.8792  0.3223
 4730TIP3    H214155   6.793   6.758   4.127 -0.2430 -0.5272 -0.4672
 4731TIP3   OH214156   6.414   4.217   5.328  0.4109  0.1504  0.6967
 4731TIP3    H114157   6.349   4.149   5.308 -0.4322  1.6926 -2.5588
 4731TIP3    H214158   6.388   4.250   5.414 -2.8917  0.3148 -0.2141
 4732TIP3   OH214159   6.217   0.718   3.444 -0.1672  0.1594 -0.4129
 4732TIP3    H114160   6.246   0.764   3.366  0.6863 -1.0550 -0.8438
 4732TIP3    H214161   6.216   0.785   3.513 -0.4719  1.1332 -1.3345
 4733TIP3   OH214162   3.882   2.902   0.612 -0.3973  0.2734  0.3772
 4733TIP3    H114163   3.808   2.844   0.596 -0.7729  1.0742 -0.9036
 4733TIP3    H214164   3.846   2.990   0.602  0.5064  0.7002  0.7621
 4734TIP3   OH214165   2.450   5.956   0.680 -0.1136  0.0744  0.0390
 4734TIP3    H114166   2.357   5.934   0.684 -1.0465  3.3764 -0.1002
 4734TIP3    H214167   2.471   5.953   0.587 -0.2181 -0.2619  0.0276
 4735TIP3   OH214168   3.249   0.826   1.715  0.4567 -0.6819 -0.0076
 4735TIP3    H114169   3.199   0.755   1.756 -0.0510 -0.3649 -0.0594
 4735TIP3    H214170   3.182   0.883   1.676  0.8675 -0.2945 -0.1624
 4736TIP3   OH214171   3.192   1.077   0.600 -0.0644  0.5105  0.3994
 4736TIP3    H114172   3.226   1.080   0.690 -0.3542 -2.4613  0.7044
 4736TIP3    H214173   3.256   1.127   0.549 -0.5147  3.3361  2.3418
 4737TIP3   OH214174   3.875   2.641   5.784  0.0380 -0.3376  0.6183
 4737TIP3    H114175   3.801   2.581   5.777 -0.7985  0.8630 -2.2013
 4737TIP3    H214176   3.900   2.638   5.876 -1.3540 -3.2972  1.0072
 4738TIP3   OH214177   0.942   3.531   2.988 -0.1816 -0.0789 -0.1537
 4738TIP3    H114178   0.910   3.467   2.924  1.0806  0.8123 -1.7467
 4738TIP3    H214179   1.028   3.556   2.955  0.6467  0.1833  2.1079
 4739TIP3   OH214180   2.610   5.043   2.024 -0.2248 -0.5518  0.6574
 4739TIP3    H114181   2.563   5.123   2.000 -0.4596 -0.5771  1.0139
 4739TIP3    H214182   2.608   5.043   2.120  0.8999 -0.3224  0.7008
 4740TIP3   OH214183   5.563   3.656   1.789 -0.7965 -0.2606 -0.0262
 4740TIP3    H114184   5.604   3.700   1.864  0.4138  0.3017 -0.9862
 4740TIP3    H214185   5.626   3.667   1.717 -2.2535 -0.1124 -1.3374
 4741TIP3   OH214186   6.487   6.666   0.430 -0.3576 -0.3448  0.2120
 4741TIP3    H114187   6.462   6.701   0.516  0.8289 -0.5877  0.6673
 4741TIP3    H214188   6.405   6.635   0.393 -1.0610  0.7124  0.8132
 4742TIP3   OH214189   0.657   3.643   1.488 -0.5618 -0.3473  0.3049
 4742TIP3    H114190   0.598   3.630   1.562 -0.2372 -0.1600  0.6001
 4742TIP3    H214191   0.730   3.582   1.505 -0.3914 -0.1609  0.2444
 4743TIP3   OH214192   6.525   1.603   1.625  0.1989  0.3069  0.1044
 4743TIP3    H114193   6.482   1.596   1.541  0.8611  0.0115 -0.2201
 4743TIP3    H214194   6.478   1.542   1.682 -0.8801  1.2317  0.2333
 4744TIP3   OH214195   3.123   5.858   1.175 -0.3863  0.4395 -0.2442
 4744TIP3    H114196   3.160   5.945   1.160 -0.0528  0.2520 -0.5371
 4744TIP3    H214197   3.117   5.819   1.088 -1.9924  0.7402 -0.2942
 4745TIP3   OH214198   3.178   0.920   5.714  0.3514 -0.3816 -0.5066
 4745TIP3    H114199   3.133   0.969   5.783 -0.3171 -1.5516 -0.0865
 4745TIP3    H214200   3.108   0.880   5.663  0.6591  2.6345 -3.6392
 4746TIP3   OH214201   2.402   2.330   1.428 -0.4117  0.3437  0.5220
 4746TIP3    H114202   2.362   2.415   1.448 -1.9440 -0.4718  1.0399
 4746TIP3    H214203   2.392   2.279   1.508 -1.4597 -1.0327 -0.4293
 4747TIP3   OH214204   6.335   0.366   1.428  0.0430  0.5082 -0.1758
 4747TIP3    H114205   6.273   0.417   1.376 -0.0370  0.3167 -0.2656
 4747TIP3    H214206   6.412   0.423   1.434 -0.6643  1.3771  1.1807
 4748TIP3   OH214207   3.478   0.643   5.145 -0.1174 -0.8121 -0.9908
 4748TIP3    H114208   3.554   0.628   5.089 -0.0769 -2.2948 -0.5729
 4748TIP3    H214209   3.403   0.632   5.087 -0.0588 -1.5617 -0.9268
 4749TIP3   OH214210   1.994   4.650   5.627 -0.7876  0.1543  0.0125
 4749TIP3    H114211   1.918   4.643   5.685 -1.0940  1.7659 -0.1647
 4749TIP3    H214212   1.984   4.734   5.584  1.4457  0.7277  0.4782
 4750TIP3   OH214213   3.076   3.580   1.990  0.1786 -0.5340 -0.0900
 4750TIP3    H114214   3.089   3.656   1.933  3.5282 -1.4678 -0.7968
 4750TIP3    H214215   3.084   3.505   1.931 -1.8623 -1.4943  0.7928
 4751TIP3   OH214216   4.608   6.397   5.327  0.0308 -0.0776  0.1536
 4751TIP3    H114217   4.698   6.381   5.298 -0.4925 -1.1787 -0.9480
 4751TIP3    H214218   4.615   6.469   5.389  1.5303  0.6552 -0.8214
 4752TIP3   OH214219   4.840   0.287   1.713 -0.3728 -0.7053  0.2159
 4752TIP3    H114220   4.931   0.315   1.727 -0.6186 -0.3437  1.1734
 4752TIP3    H214221   4.794   0.314   1.792 -1.2853 -1.0522 -0.1793
 4753TIP3   OH214222   4.350   0.008   3.238 -0.5876  0.1436  0.2763
 4753TIP3    H114223   4.291   0.082   3.252  0.0791  0.9414 -1.0137
 4753TIP3    H214224   4.332  -0.022   3.149 -1.3597 -1.7516  1.0149
 4754TIP3   OH214225   2.119   1.705   0.500  0.2640  1.0880  0.0262
 4754TIP3    H114226   2.046   1.760   0.528 -1.2889 -0.9432  0.2962
 4754TIP3    H214227   2.097   1.681   0.409  0.0583 -0.2787  0.4049
 4755TIP3   OH214228   5.730   5.796   5.774 -0.3148 -0.0327 -0.0937
 4755TIP3    H114229   5.736   5.821   5.682 -2.5511  1.2912  0.0412
 4755TIP3    H214230   5.819   5.807   5.807  0.3049  0.5864 -1.8244
 4756TIP3   OH214231   2.669   0.799   3.163 -0.5931 -0.4473  0.0249
 4756TIP3    H114232   2.619   0.854   3.103 -1.0798 -0.8388  0.0674
 4756TIP3    H214233   2.704   0.860   3.227 -2.3041 -0.3239  0.9033
 4757TIP3   OH214234   5.567   4.332   4.274  0.4669 -0.0329 -0.3052
 4757TIP3    H114235   5.580   4.392   4.200  0.0565 -0.3125 -0.6088
 4757TIP3    H214236   5.588   4.245   4.237 -1.3638 -0.3975 -0.5746
 4758TIP3   OH214237   2.167   5.603   4.042 -0.0662  0.4621 -0.3490
 4758TIP3    H114238   2.251   5.618   3.998 -0.3008 -0.2233 -1.0659
 4758TIP3    H214239   2.182   5.527   4.098 -0.2984  0.1049 -0.7626
 4759TIP3   OH214240   3.684   4.588   5.682 -0.4986 -0.0052 -0.3459
 4759TIP3    H114241   3.711   4.648   5.612  0.4903  1.2317  1.0394
 4759TIP3    H214242   3.659   4.508   5.636 -1.2932  1.2480 -2.2105
 4760TIP3   OH214243   5.849   4.262   0.618 -0.1776  0.3952  0.1405
 4760TIP3    H114244   5.794   4.269   0.540 -0.1192  0.8876  0.1404
 4760TIP3    H214245   5.788   4.254   0.691 -0.2321 -0.1558  0.0430
 4761TIP3   OH214246   5.976   3.750   4.432 -0.1472 -0.0317 -0.2545
 4761TIP3    H114247   5.964   3.799   4.514 -2.2139 -0.6908 -0.1116
 4761TIP3    H214248   5.950   3.661   4.454  1.1485 -0.6520 -1.1571
 4762TIP3   OH214249   0.743   6.450   5.041 -0.4373  0.1867  0.7835
 4762TIP3    H114250   0.687   6.447   5.119  1.7281  0.0840  2.4061
 4762TIP3    H214251   0.780   6.362   5.035  0.0826  0.4436  0.1349
 4763TIP3   OH214252   2.561   1.248   5.483  0.1076 -0.1919 -0.0001
 4763TIP3    H114253   2.549   1.198   5.564  0.4878 -1.5191 -0.7258
 4763TIP3    H214254   2.651   1.279   5.487 -0.2053  0.7137  0.5712
 4764TIP3   OH214255   3.635   4.275   2.129 -0.1380 -0.5642 -0.0784
 4764TIP3    H114256   3.559   4.308   2.176 -0.3908 -1.4503  0.1498
 4764TIP3    H214257   3.599   4.208   2.070  0.4344 -0.8200 -0.1413
 4765TIP3   OH214258   7.170   6.214   2.708  0.3146  0.7561  0.7401
 4765TIP3    H114259   7.183   6.247   2.797  3.8346 -0.1264  0.6868
 4765TIP3    H214260   7.206   6.125   2.709  0.4216  0.6993 -1.5404
 4766TIP3   OH214261   2.418   6.623   4.806  0.1455 -0.5940 -0.5347
 4766TIP3    H114262   2.358   6.586   4.872  1.2769 -0.8542  0.3925
 4766TIP3    H214263   2.489   6.559   4.801  1.4731  0.7929  0.0817
 4767TIP3   OH214264   5.992   0.414   5.500 -0.3632 -0.3861  1.2844
 4767TIP3    H114265   6.026   0.431   5.588  1.8191 -0.7196  0.5650
 4767TIP3    H214266   6.063   0.370   5.455 -0.3364  2.2025 -1.5180
 4768TIP3   OH214267   1.002   0.836   4.666 -0.0310 -0.0096 -0.2761
 4768TIP3    H114268   1.058   0.862   4.593  1.0396  0.4984  0.6871
 4768TIP3    H214269   0.972   0.919   4.703 -0.7311 -0.2663 -0.2596
 4769TIP3   OH214270   0.317   2.835   5.593 -0.1494  0.0981 -0.0342
 4769TIP3    H114271   0.297   2.749   5.556  0.1612  0.3249 -0.7513
 4769TIP3    H214272   0.395   2.820   5.647  1.8651  0.4784 -2.6502
 4770TIP3   OH214273   6.798   0.413   1.533  0.0830 -0.2457 -0.1460
 4770TIP3    H114274   6.739   0.488   1.526  0.2865 -0.2482 -3.7893
 4770TIP3    H214275   6.756   0.355   1.595 -1.4676  1.6778  0.7138
 4771TIP3   OH214276   1.514   2.195   4.133 -0.1601  0.0359 -0.4042
 4771TIP3    H114277   1.476   2.108   4.140 -3.3066  1.2764 -0.1416
 4771TIP3    H214278   1.583   2.187   4.067  0.3460 -2.7911  0.3442
 4772TIP3   OH214279   7.003   2.237   3.927  0.4123  0.5110  0.7927
 4772TIP3    H114280   7.012   2.328   3.902  1.0705  0.1430 -0.3607
 4772TIP3    H214281   7.089   2.198   3.910 -0.1471 -0.5530  0.2967
 4773TIP3   OH214282  -0.015   3.056   0.986  0.1234  0.2296 -0.0082
 4773TIP3    H114283  -0.028   3.129   1.047  0.5787 -0.9382  1.5637
 4773TIP3    H214284   0.072   3.022   1.007  0.0590 -0.5550 -0.9370
 4774TIP3   OH214285   1.204   6.069   2.044  0.0970 -0.3962  0.0460
 4774TIP3    H114286   1.172   6.019   2.120 -1.8491 -1.2226 -1.2197
 4774TIP3    H214287   1.240   6.002   1.985 -0.2547 -0.0251 -0.6017
 4775TIP3   OH214288   0.538   2.103   2.658 -0.1517 -0.2195  0.3455
 4775TIP3    H114289   0.540   2.063   2.571  0.3738  0.2674  0.1242
 4775TIP3    H214290   0.593   2.182   2.649 -3.5160  2.2977 -0.0846
 4776TIP3   OH214291   4.806   2.823   4.633  0.5418  0.4517 -0.2152
 4776TIP3    H114292   4.725   2.772   4.631  1.0851 -0.4034 -1.0348
 4776TIP3    H214293   4.777   2.914   4.638 -0.4551  0.1256  0.2350
 4777TIP3   OH214294   0.749   2.790   1.522  0.7392 -0.1226 -0.4515
 4777TIP3    H114295   0.705   2.709   1.497 -1.6127  0.7250  0.6160
 4777TIP3    H214296   0.841   2.766   1.533  0.5854 -2.0348 -2.7035
 4778TIP3   OH214297   3.829   4.453   1.787  0.1451 -0.5711 -0.1194
 4778TIP3    H114298   3.843   4.505   1.708  0.5867 -0.2591  0.1595
 4778TIP3    H214299   3.734   4.452   1.800 -0.2820 -3.2904 -2.4354
 4779TIP3   OH214300   5.159   1.538   4.505 -0.4618  0.3734  0.6394
 4779TIP3    H114301   5.148   1.586   4.423 -0.0895  1.3292  1.1360
 4779TIP3    H214302   5.075   1.494   4.518 -0.4995  0.1515 -0.2833
 4780TIP3   OH214303   6.498   4.177   1.087  0.1051  0.2069 -0.0628
 4780TIP3    H114304   6.546   4.207   1.010 -0.3076  0.5399 -0.1899
 4780TIP3    H214305   6.482   4.257   1.138  1.1922 -0.1177  0.8433
 4781TIP3   OH214306   0.343   5.020   0.789  0.7162 -0.0431  0.1433
 4781TIP3    H114307   0.415   5.002   0.850  0.5387 -2.4870 -0.2486
 4781TIP3    H214308   0.267   5.037   0.845  1.3463  1.6422  0.5527
 4782TIP3   OH214309   3.059   0.226   5.880 -0.2602 -0.1394 -0.0939
 4782TIP3    H114310   3.092   0.315   5.865 -0.9636  0.2084  0.3270
 4782TIP3    H214311   3.126   0.169   5.843  2.1010  0.4032  2.9460
 4783TIP3   OH214312   3.506   4.596   5.412  0.0228  0.1215 -0.2417
 4783TIP3    H114313   3.539   4.622   5.326  1.3293  0.3686  0.3145
 4783TIP3    H214314   3.553   4.515   5.431 -0.0667  0.2097  0.3515
 4784TIP3   OH214315   3.965   1.006   2.623  0.1074 -0.4858  0.0690
 4784TIP3    H114316   3.918   0.929   2.591 -1.3343 -0.0160  0.9621
 4784TIP3    H214317   3.960   1.069   2.552  1.8492 -1.3928 -0.9211
 4785TIP3   OH214318   1.449   0.218   0.476 -0.0674 -0.2975  0.1300
 4785TIP3    H114319   1.369   0.222   0.530 -1.3241 -1.1363 -1.5688
 4785TIP3    H214320   1.503   0.152   0.520 -0.6002 -0.2234  0.9375
 4786TIP3   OH214321   4.109   4.373   1.882  0.0048  0.5793 -0.2142
 4786TIP3    H114322   4.020   4.407   1.868 -0.2546 -0.5188 -1.4076
 4786TIP3    H214323   4.166   4.434   1.836 -0.0986  1.3984  0.7218
 4787TIP3   OH214324   3.778   6.379   0.510 -0.1726  0.0987 -0.7495
 4787TIP3    H114325   3.719   6.450   0.534 -1.4047 -0.5440 -1.7734
 4787TIP3    H214326   3.731   6.329   0.443  2.4105  0.8503 -3.3267
 4788TIP3   OH214327   3.873   1.598   1.903 -0.3505  0.1942 -0.4399
 4788TIP3    H114328   3.845   1.508   1.885 -2.3665  1.1991 -2.9973
 4788TIP3    H214329   3.799   1.637   1.950  0.3003  0.6716  0.2117
 4789TIP3   OH214330   0.090   4.962   5.316  0.0506  0.3584  0.4296
 4789TIP3    H114331   0.172   4.932   5.278 -0.4002 -0.9131  0.4074
 4789TIP3    H214332   0.116   5.025   5.382  1.1309 -0.8565  1.2178
 4790TIP3   OH214333   6.419   2.842   3.762  0.0799  0.5403 -0.1349
 4790TIP3    H114334   6.393   2.767   3.815  2.5525 -0.0886  0.3336
 4790TIP3    H214335   6.412   2.812   3.672 -0.0328  0.1305  0.0088
 4791TIP3   OH214336   2.764   1.016   3.678  0.2926 -0.4449 -0.2375
 4791TIP3    H114337   2.739   0.960   3.604  0.4956 -1.2429  0.2816
 4791TIP3    H214338   2.716   0.980   3.753  2.1664 -1.3818  0.5807
 4792TIP3   OH214339   5.667   6.098   2.589  0.2010 -0.5954  0.0817
 4792TIP3    H114340   5.634   6.095   2.500 -0.7454  0.3776  0.3807
 4792TIP3    H214341   5.652   6.188   2.617  3.2476  0.0075  0.2022
 4793TIP3   OH214342   0.625   3.044   3.366  0.5942  0.1395 -0.2360
 4793TIP3    H114343   0.592   2.983   3.301  2.1794  1.2924 -2.2287
 4793TIP3    H214344   0.719   3.027   3.370  0.9245  1.8248 -0.1767
 4794TIP3   OH214345   5.850   5.493   3.806  0.4231  0.4561 -0.3247
 4794TIP3    H114346   5.939   5.458   3.804  0.9240  1.6682 -0.1526
 4794TIP3    H214347   5.857   5.574   3.856 -0.9610  0.1100  0.4939
 4795TIP3   OH214348   1.447   3.852   3.487  0.0078 -0.2437 -0.2117
 4795TIP3    H114349   1.512   3.854   3.556 -0.8736  0.3910  0.6234
 4795TIP3    H214350   1.428   3.759   3.474  0.4206 -0.3792  0.1582
 4796TIP3   OH214351   3.337   1.389   0.257 -0.5056 -0.0814 -0.8699
 4796TIP3    H114352   3.410   1.430   0.303  1.4134 -2.8637 -1.1962
 4796TIP3    H214353   3.261   1.401   0.314  0.6165  1.1580  0.4166
 4797TIP3   OH214354   1.439   0.298   3.779 -0.4192 -0.1992  0.7003
 4797TIP3    H114355   1.509   0.347   3.822 -0.2060 -0.4106  0.5979
 4797TIP3    H214356   1.485   0.235   3.723 -0.5432  2.4218 -2.6823
 4798TIP3   OH214357   3.616   5.005   4.253 -0.1566  0.1124  0.3702
 4798TIP3    H114358   3.701   4.967   4.230  0.6968  1.7821  0.5861
 4798TIP3    H214359   3.603   4.981   4.344  1.3106  1.8450  1.1140
 4799TIP3   OH214360   3.974   5.834   0.768 -0.1418 -0.0914  0.7270
 4799TIP3    H114361   3.994   5.920   0.804 -1.5040  0.0073  1.3191
 4799TIP3    H214362   3.906   5.850   0.702  1.0526 -0.4891 -0.6629
 4800TIP3   OH214363   1.817   5.869   3.302 -0.4102 -0.2202 -0.3325
 4800TIP3    H114364   1.747   5.830   3.248  0.9400  0.8241 -3.0100
 4800TIP3    H214365   1.806   5.963   3.291  2.3416  0.0096 -2.3344
 4801TIP3   OH214366   1.476   2.476   5.160  0.3199  0.2037  0.0986
 4801TIP3    H114367   1.469   2.518   5.245 -1.6906  0.2507 -0.0406
 4801TIP3    H214368   1.566   2.492   5.133  0.7888  0.8103  1.8810
 4802TIP3   OH214369   4.019   0.449   1.868  0.5961 -0.2061 -0.1620
 4802TIP3    H114370   4.057   0.365   1.896  2.9723  0.0473 -2.2830
 4802TIP3    H214371   4.084   0.514   1.894 -0.6782  0.8884  0.3800
 4803TIP3   OH214372   3.903   2.256   2.071  0.3986  0.1597 -0.3276
 4803TIP3    H114373   3.854   2.174   2.071 -1.1652  1.0527  0.2608
 4803TIP3    H214374   3.959   2.251   2.148 -0.6601  0.1765  0.4639
 4804TIP3   OH214375   1.482   4.052   5.076  0.0076 -0.2644  0.2167
 4804TIP3    H114376   1.454   3.976   5.024  2.1645  0.0012 -1.4606
 4804TIP3    H214377   1.435   4.125   5.036 -1.1989 -0.5079  1.1113
 4805TIP3   OH214378   3.054   1.397   2.635 -0.0551 -0.3780 -0.1119
 4805TIP3    H114379   3.020   1.350   2.711 -0.3650  0.5574  0.3408
 4805TIP3    H214380   3.080   1.482   2.669  2.1554 -0.8133 -0.5784
 4806TIP3   OH214381   6.790   1.802   5.157 -0.2685 -0.8537  0.3572
 4806TIP3    H114382   6.878   1.769   5.137  0.9097  1.4531  1.4090
 4806TIP3    H214383   6.805   1.884   5.203 -3.0090 -0.4257  0.6342
 4807TIP3   OH214384   4.488   6.018   5.526 -0.3359  0.3519 -0.3315
 4807TIP3    H114385   4.540   6.059   5.457 -2.3346  1.3808 -1.2847
 4807TIP3    H214386   4.488   5.925   5.503  1.8044  0.1569  0.2277
 4808TIP3   OH214387   0.465   4.816   3.564 -0.2992  0.2050 -0.4419
 4808TIP3    H114388   0.388   4.791   3.615  0.8595 -1.6749  0.5126
 4808TIP3    H214389   0.451   4.778   3.478 -0.4648 -0.1153 -0.2749
 4809TIP3   OH214390   4.674   6.288   1.921 -0.6205  0.5415 -0.0599
 4809TIP3    H114391   4.592   6.274   1.969 -1.9929  0.8938 -2.1707
 4809TIP3    H214392   4.711   6.200   1.912 -0.7577  0.3737  0.8875
 4810TIP3   OH214393   3.287   0.057   4.944  0.3699  0.6446  0.0904
 4810TIP3    H114394   3.368   0.008   4.931 -0.2651  0.1924 -2.5031
 4810TIP3    H214395   3.302   0.140   4.899 -0.1792  1.0774  0.6858
 4811TIP3   OH214396   2.108   3.239   5.903  0.2019  0.0884  0.0860
 4811TIP3    H114397   2.150   3.315   5.862  0.2297  0.3144  0.5317
 4811TIP3    H214398   2.104   3.173   5.833  0.5314  0.3622 -0.1918
 4812TIP3   OH214399   2.851   3.782   1.316 -0.3485  0.3834 -0.0702
 4812TIP3    H114400   2.908   3.837   1.262  0.6620  0.4682  1.0256
 4812TIP3    H214401   2.911   3.737   1.376 -1.3155 -0.6305  0.1765
 4813TIP3   OH214402   4.001   4.721   3.868  0.2542 -0.0101 -0.3467
 4813TIP3    H114403   4.075   4.726   3.808  0.7367  0.4060  0.2635
 4813TIP3    H214404   3.936   4.669   3.822  1.3738 -1.3934 -0.4358
 4814TIP3   OH214405   1.111   1.693   5.377  0.1827 -0.1427  0.1617
 4814TIP3    H114406   1.173   1.627   5.346 -1.0089 -1.5264  0.5716
 4814TIP3    H214407   1.063   1.648   5.447 -2.9036 -0.0045 -1.6956
 4815TIP3   OH214408   2.706   3.522   5.058  0.0828  0.0167 -0.2868
 4815TIP3    H114409   2.759   3.465   5.002  0.1657 -0.0621 -0.1294
 4815TIP3    H214410   2.638   3.465   5.093  1.1445 -0.3996  1.1987
 4816TIP3   OH214411   5.990   4.597   2.321  0.0736  0.0166  0.1913
 4816TIP3    H114412   5.917   4.556   2.369  0.9149 -0.0959  1.4201
 4816TIP3    H214413   5.961   4.598   2.230 -2.0321  1.2031  0.8098
 4817TIP3   OH214414   5.587   4.130   3.253  0.2656 -0.3816 -0.6785
 4817TIP3    H114415   5.523   4.130   3.324 -2.7250 -0.3025 -3.1333
 4817TIP3    H214416   5.656   4.072   3.283 -0.7041 -0.1372  2.3588
 4818TIP3   OH214417   4.331   6.230   4.820 -0.5145 -0.6164  0.2175
 4818TIP3    H114418   4.324   6.313   4.868 -2.5758 -1.1805  0.9583
 4818TIP3    H214419   4.241   6.200   4.810  0.1356 -2.3597 -0.8028
 4819TIP3   OH214420   1.759   5.896   2.245  0.2047  0.4839  0.5259
 4819TIP3    H114421   1.788   5.888   2.336 -0.0302 -2.4939  0.4573
 4819TIP3    H214422   1.665   5.882   2.248  0.1831  0.4439 -0.1659
 4820TIP3   OH214423   4.287   2.588   1.204 -0.5173 -0.6572  0.3152
 4820TIP3    H114424   4.213   2.595   1.264 -0.6731  1.4786 -0.0494
 4820TIP3    H214425   4.258   2.633   1.125  1.1927  0.4084  0.2416
 4821TIP3   OH214426   3.040   4.740   0.621 -0.9252  0.3911 -0.3639
 4821TIP3    H114427   3.055   4.825   0.581  1.8726  0.3636  0.4172
 4821TIP3    H214428   3.116   4.687   0.594 -1.5667 -1.1999  0.8011
 4822TIP3   OH214429   3.066   1.020   1.602  0.7196  0.1633 -0.1007
 4822TIP3    H114430   3.099   1.108   1.620 -0.8219  0.8917 -0.6533
 4822TIP3    H214431   3.015   1.029   1.522 -1.5256 -0.6513  1.1355
 4823TIP3   OH214432   4.136   3.802   4.152  0.5028 -0.3787 -0.5552
 4823TIP3    H114433   4.099   3.803   4.064 -0.4009 -0.8735 -0.1900
 4823TIP3    H214434   4.162   3.893   4.168 -1.2241  0.1532 -0.5683
 4824TIP3   OH214435   4.801   5.163   1.763  0.2714  0.0921  0.2885
 4824TIP3    H114436   4.736   5.099   1.793  0.1940 -1.1237 -2.1770
 4824TIP3    H214437   4.793   5.162   1.667  3.1027  0.7742 -0.0582
 4825TIP3   OH214438   4.429   2.357   2.921 -0.0644 -0.3910 -0.8025
 4825TIP3    H114439   4.381   2.306   2.986  1.0868 -0.4563  0.0199
 4825TIP3    H214440   4.467   2.291   2.862  0.6223 -0.4532 -0.3036
 4826TIP3   OH214441   2.324   1.716   3.572  0.5363 -0.2763  0.4136
 4826TIP3    H114442   2.297   1.791   3.625  2.5918  0.5028  0.4578
 4826TIP3    H214443   2.361   1.754   3.492 -0.0678 -1.3278 -0.3977
 4827TIP3   OH214444   5.844   2.560   2.130  0.5426  0.0837  0.1060
 4827TIP3    H114445   5.922   2.523   2.089  1.5873 -0.3597  2.3050
 4827TIP3    H214446   5.853   2.655   2.117  1.8723  0.1049  0.9046
 4828TIP3   OH214447   3.754   5.058   0.732 -0.1784  0.0518 -0.3111
 4828TIP3    H114448   3.775   4.980   0.784 -3.5040 -0.4279  0.5538
 4828TIP3    H214449   3.728   5.124   0.796 -1.7521  0.3396 -1.1857
 4829TIP3   OH214450   3.466   4.969   1.210 -0.0221  0.3153 -0.2165
 4829TIP3    H114451   3.487   5.060   1.188 -0.1559  0.6253  0.9220
 4829TIP3    H214452   3.546   4.921   1.188  0.7526  1.0058  0.9917
 4830TIP3   OH214453   0.301   6.695   0.696 -0.7838  0.3550 -0.4853
 4830TIP3    H114454   0.295   6.627   0.628 -1.9469  1.1291 -1.1941
 4830TIP3    H214455   0.341   6.650   0.770  1.4444 -0.2674 -1.9748
 4831TIP3   OH214456   4.431   0.974   2.590  0.0934  0.3240  0.0705
 4831TIP3    H114457   4.407   0.895   2.637  0.6746 -0.5257 -1.0036
 4831TIP3    H214458   4.399   0.959   2.501 -1.6807  2.2187  0.3094
 4832TIP3   OH214459   6.527   3.620   5.343 -0.1894  0.3994 -0.0699
 4832TIP3    H114460   6.468   3.630   5.418 -2.2561  0.1608 -1.5717
 4832TIP3    H214461   6.514   3.529   5.314 -0.7780  0.9599 -1.7229
 4833TIP3   OH214462   0.218   2.557   1.739 -0.0058 -0.6553 -0.1162
 4833TIP3    H114463   0.267   2.614   1.680  0.6288  0.2424  1.2365
 4833TIP3    H214464   0.283   2.493   1.769 -0.1729 -0.7402  0.0653
 4834TIP3   OH214465   1.183   0.066   1.246 -0.0437  0.1657  0.0261
 4834TIP3    H114466   1.217   0.132   1.186 -0.8601 -1.0345 -1.8663
 4834TIP3    H214467   1.148   0.116   1.319  1.0563  1.6931 -0.4425
 4835TIP3   OH214468   6.939   5.714   5.307  0.2138  0.1323  0.6962
 4835TIP3    H114469   6.844   5.721   5.304  0.1585 -0.8443 -0.5672
 4835TIP3    H214470   6.967   5.727   5.216  1.2256 -0.3155  0.9330
 4836TIP3   OH214471   2.681   4.787   4.273  0.6241  0.6522  0.6088
 4836TIP3    H114472   2.633   4.865   4.303 -1.1866  0.2658 -1.0827
 4836TIP3    H214473   2.720   4.814   4.189  1.1495  0.1385  0.6814
 4837TIP3   OH214474   4.777   2.285   0.046  0.0899 -0.4259  0.0444
 4837TIP3    H114475   4.691   2.243   0.034 -0.8956  0.7418  2.3903
 4837TIP3    H214476   4.763   2.348   0.116  2.1807  1.9341 -1.4875
 4838TIP3   OH214477   1.194   1.097   4.319  0.4459  0.5132 -0.5991
 4838TIP3    H114478   1.166   1.065   4.233 -2.1391  1.5236 -0.2304
 4838TIP3    H214479   1.123   1.155   4.347  1.3253  0.4050  2.1272
 4839TIP3   OH214480   4.021   0.581   1.458 -0.2889  0.6057 -0.4002
 4839TIP3    H114481   4.016   0.558   1.365 -2.4006 -0.3557 -0.0933
 4839TIP3    H214482   4.115   0.576   1.478  0.0996 -0.2794 -2.1918
 4840TIP3   OH214483   3.872   2.463   4.655  0.4348  0.0881  0.0833
 4840TIP3    H114484   3.904   2.474   4.744 -3.0527  0.8045  1.4282
 4840TIP3    H214485   3.854   2.552   4.625  0.4156 -0.2170 -0.8376
 4841TIP3   OH214486   1.197   6.253   3.469  0.0801  0.0727 -0.3917
 4841TIP3    H114487   1.235   6.231   3.554 -1.8744  1.4515  0.9237
 4841TIP3    H214488   1.148   6.334   3.484 -2.7813 -1.1806 -2.0506
 4842TIP3   OH214489   0.051   5.168   0.291 -0.3906 -0.1074 -0.2161
 4842TIP3    H114490   0.013   5.254   0.274  1.2609  0.6225 -0.4317
 4842TIP3    H214491  -0.024   5.108   0.291 -1.5875  1.3341  0.0730
 4843TIP3   OH214492   3.233   6.768   4.294 -0.4592 -0.6658  0.2078
 4843TIP3    H114493   3.276   6.851   4.274 -1.5306 -0.0333  0.4665
 4843TIP3    H214494   3.209   6.731   4.208 -0.0812 -0.6609  0.0993
 4844TIP3   OH214495   3.370   3.271   4.435 -0.2225  0.3196 -0.1240
 4844TIP3    H114496   3.447   3.317   4.467  0.0203 -0.7752  0.9527
 4844TIP3    H214497   3.333   3.229   4.513 -3.0856  2.3995 -0.1633
 4845TIP3   OH214498   4.936   0.754   5.039 -0.1733 -0.3715  0.1493
 4845TIP3    H114499   5.025   0.731   5.067 -0.4601  1.1316  2.5654
 4845TIP3    H214500   4.945   0.841   5.000 -0.6752  0.1621  1.1894
 4846TIP3   OH214501   3.844   4.138   1.787 -0.1913 -0.1363  0.1584
 4846TIP3    H114502   3.749   4.127   1.789 -0.8730  3.3118 -2.5558
 4846TIP3    H214503   3.857   4.233   1.791  3.1273 -0.4812 -0.0068
 4847TIP3   OH214504   7.128   5.052   4.757 -0.5738  0.3668  0.3670
 4847TIP3    H114505   7.217   5.022   4.739  0.0842  1.9877  0.7695
 4847TIP3    H214506   7.074   5.005   4.693  0.4198 -1.3185  0.6919
 4848TIP3   OH214507   1.456   0.025   0.253  0.0704  0.3062 -0.5336
 4848TIP3    H114508   1.377   0.036   0.200  1.2291  1.2635 -2.1415
 4848TIP3    H214509   1.455   0.100   0.313 -1.4578 -1.0016  1.1910
 4849TIP3   OH214510   5.325   4.012   5.673  0.1742 -0.2994  0.1917
 4849TIP3    H114511   5.260   3.958   5.718 -1.0823  1.8058  1.0302
 4849TIP3    H214512   5.294   4.016   5.583  0.1558 -0.8005  0.1747
 4850TIP3   OH214513   3.068   0.040   2.079 -0.3388 -0.3942  0.2782
 4850TIP3    H114514   3.083   0.017   1.987 -0.1296  1.1073 -0.0939
 4850TIP3    H214515   3.127  -0.018   2.128 -0.0860 -0.8626 -0.5623
 4851TIP3   OH214516   6.041   6.239   3.887  0.1058  0.2288  0.2078
 4851TIP3    H114517   6.097   6.316   3.872  1.8331 -0.0352  4.0970
 4851TIP3    H214518   6.035   6.197   3.801  0.6453  3.6182 -1.6899
 4852TIP3   OH214519   0.282   5.878   2.226 -0.1034 -0.0651 -0.1642
 4852TIP3    H114520   0.335   5.800   2.207 -0.0005 -0.4205  1.4103
 4852TIP3    H214521   0.301   5.897   2.318  0.6979  2.4999 -0.7997
 4853TIP3   OH214522   1.494   3.038   5.720  0.7109  0.2287 -0.2705
 4853TIP3    H114523   1.482   3.109   5.657  0.5199  0.6633  0.2460
 4853TIP3    H214524   1.487   3.080   5.806  0.2821 -0.4655  0.0469
 4854TIP3   OH214525   2.649   0.194   1.538 -0.4026 -0.0256  0.1766
 4854TIP3    H114526   2.619   0.191   1.447  0.3546 -0.5299 -0.0764
 4854TIP3    H214527   2.576   0.160   1.589 -1.1625  1.0877 -0.1476
 4855TIP3   OH214528   3.572   4.679   2.594  0.1085  0.3510 -0.0190
 4855TIP3    H114529   3.481   4.650   2.597  0.2405 -0.0302  1.7893
 4855TIP3    H214530   3.619   4.614   2.645  1.2392  1.0375 -0.1576
 4856TIP3   OH214531   1.992   3.440   0.819 -0.2071  0.0625 -0.4592
 4856TIP3    H114532   1.923   3.399   0.871  1.0591 -0.7012  0.6616
 4856TIP3    H214533   1.959   3.435   0.729 -1.5512 -0.3881  0.0266
 4857TIP3   OH214534   6.689   3.946   4.143  0.7440 -0.2764  0.2207
 4857TIP3    H114535   6.636   3.981   4.215  1.3050 -1.2026  1.1019
 4857TIP3    H214536   6.779   3.948   4.175  0.8989 -1.6422 -0.0511
 4858TIP3   OH214537   3.187   2.891   3.248 -0.0592 -0.5418  0.1685
 4858TIP3    H114538   3.220   2.815   3.199 -1.0319 -0.8103 -0.0893
 4858TIP3    H214539   3.229   2.884   3.334  0.0446 -1.2410  0.0663
 4859TIP3   OH214540   6.375   3.377   5.314  0.1359 -0.3241  0.1308
 4859TIP3    H114541   6.389   3.311   5.382 -2.0854 -2.3968 -1.2508
 4859TIP3    H214542   6.367   3.327   5.233  0.5450  1.8802 -1.3805
 4860TIP3   OH214543   5.550   1.946   0.646  0.4305 -0.4324 -0.1039
 4860TIP3    H114544   5.636   1.983   0.661  1.2620 -2.0906 -0.5591
 4860TIP3    H214545   5.555   1.905   0.559 -0.4978 -1.3611  0.2454
 4861TIP3   OH214546   4.440   5.995   2.558 -0.2126  0.2408  0.0932
 4861TIP3    H114547   4.483   5.929   2.613  0.0751 -0.2004 -0.6390
 4861TIP3    H214548   4.350   5.963   2.549  0.1988 -0.6451 -1.1348
 4862TIP3   OH214549   1.181   5.209   3.145  0.0281  0.6395  0.1511
 4862TIP3    H114550   1.230   5.229   3.225  0.2617  1.1202 -0.1091
 4862TIP3    H214551   1.205   5.279   3.084  0.9692 -0.4969 -0.8290
 4863TIP3   OH214552   5.164   1.257   4.704  0.2775  0.0721 -0.1853
 4863TIP3    H114553   5.221   1.180   4.698  0.1256 -0.3949  2.7316
 4863TIP3    H214554   5.082   1.229   4.663  0.9046 -0.5885 -1.0123
 4864TIP3   OH214555   3.713   1.122   4.988 -0.1713 -0.5189  0.1760
 4864TIP3    H114556   3.741   1.033   4.964 -2.1562 -1.2216  0.2584
 4864TIP3    H214557   3.721   1.125   5.083  2.2301  0.2945  0.0188
 4865TIP3   OH214558   1.999   5.491   4.482  0.3436 -0.0528 -0.4244
 4865TIP3    H114559   1.996   5.556   4.412 -0.8891  0.3218 -0.0453
 4865TIP3    H214560   1.918   5.504   4.531 -0.2203 -2.2437 -0.6674
 4866TIP3   OH214561   6.186   4.796   2.481  0.1846 -0.5202 -0.3895
 4866TIP3    H114562   6.245   4.748   2.539  0.2130 -1.3100 -1.0614
 4866TIP3    H214563   6.102   4.751   2.490  0.2802 -0.8858 -1.2368
 4867TIP3   OH214564   1.248   4.183   1.695  0.0338  0.2317  1.2451
 4867TIP3    H114565   1.187   4.212   1.764  1.1083  0.1365  2.2680
 4867TIP3    H214566   1.213   4.098   1.667 -1.6299  1.2369  0.1151
 4868TIP3   OH214567   0.559   4.330   1.415 -0.3278  0.2952  0.7337
 4868TIP3    H114568   0.606   4.252   1.386  0.9907  1.2990  0.0241
 4868TIP3    H214569   0.543   4.380   1.335 -1.4016  0.6195  1.1425
 4869TIP3   OH214570   4.452   4.004   0.153  0.1714  0.0224 -0.2474
 4869TIP3    H114571   4.385   3.969   0.094 -0.6962  1.6459 -0.2925
 4869TIP3    H214572   4.532   3.957   0.130 -0.8127 -1.5361 -0.6085
 4870TIP3   OH214573   1.637   0.837   5.796 -1.1253 -0.4780  0.6457
 4870TIP3    H114574   1.573   0.835   5.866 -1.0592 -1.0714  0.6994
 4870TIP3    H214575   1.658   0.744   5.780 -0.5149 -0.3095  0.4245
 4871TIP3   OH214576   3.379   0.569   4.515 -0.1970  0.2994  0.2830
 4871TIP3    H114577   3.441   0.640   4.499 -0.9479  0.7359 -0.8807
 4871TIP3    H214578   3.427   0.490   4.491 -0.3169  0.7064 -1.4604
 4872TIP3   OH214579   5.244   0.535   2.627  0.4462 -0.0069  0.2362
 4872TIP3    H114580   5.283   0.456   2.665  1.5034  0.9034  1.1380
 4872TIP3    H214581   5.161   0.545   2.673  0.7089 -0.1406  0.7524
 4873TIP3   OH214582   5.763   5.678   1.589 -0.0533 -0.0364 -0.6873
 4873TIP3    H114583   5.820   5.612   1.628  0.0934  1.0885  1.0988
 4873TIP3    H214584   5.678   5.634   1.580  0.2838 -0.7534 -0.4473
 4874TIP3   OH214585   2.301   0.533   0.320 -0.0982  0.5459  0.7996
 4874TIP3    H114586   2.226   0.521   0.261 -0.8434  0.7880  1.6735
 4874TIP3    H214587   2.376   0.498   0.272 -1.0293 -1.1185  0.5048
 4875TIP3   OH214588   6.464   5.834   5.148 -0.6291 -0.4712  0.1586
 4875TIP3    H114589   6.508   5.822   5.064  2.2240  0.7143  1.3312
 4875TIP3    H214590   6.381   5.877   5.126 -0.3560 -0.9651 -2.0736
 4876TIP3   OH214591   5.934   1.038   5.224  0.0500  0.1735 -0.1480
 4876TIP3    H114592   5.890   1.017   5.142 -3.0021  0.8755  1.1758
 4876TIP3    H214593   5.963   0.954   5.258 -0.7049 -0.3955 -0.8833
 4877TIP3   OH214594   4.880   3.360   2.845  0.2579  0.1347  0.0474
 4877TIP3    H114595   4.851   3.270   2.858  2.8521 -1.1377 -2.1076
 4877TIP3    H214596   4.969   3.353   2.812  0.8396  3.5538  0.4680
 4878TIP3   OH214597   7.050   3.016   1.786 -0.1137  0.0721 -0.4643
 4878TIP3    H114598   7.083   3.085   1.728  1.9052  0.3890  0.9687
 4878TIP3    H214599   7.100   2.938   1.760 -1.4908 -0.5872 -1.2347
 4879TIP3   OH214600   0.471   5.659   4.520 -0.6089  0.2573  0.2935
 4879TIP3    H114601   0.536   5.729   4.507 -0.5986  0.1140 -0.4601
 4879TIP3    H214602   0.387   5.705   4.517 -0.6643  0.1201 -1.3106
 4880TIP3   OH214603   3.028   4.036   5.211  0.3351 -0.0730 -0.0694
 4880TIP3    H114604   3.106   4.030   5.266 -0.7051  0.5586  1.5381
 4880TIP3    H214605   2.965   3.978   5.252 -0.9033  1.4083  0.2092
 4881TIP3   OH214606   6.714   5.417   1.168 -0.4421  0.3121 -0.0647
 4881TIP3    H114607   6.719   5.506   1.203 -1.2508 -0.8825  3.4857
 4881TIP3    H214608   6.659   5.425   1.089 -0.5263  2.9176  0.1762
 4882TIP3   OH214609   4.064   5.576   3.184 -0.1017  0.4384  0.5288
 4882TIP3    H114610   3.995   5.638   3.208 -0.1163  0.7352 -0.2538
 4882TIP3    H214611   4.128   5.629   3.136 -0.0577 -0.1299 -0.0519
 4883TIP3   OH214612   3.010   0.927   2.177 -0.4530 -0.2460 -0.3273
 4883TIP3    H114613   3.090   0.903   2.224 -1.4658 -1.5519  0.7889
 4883TIP3    H214614   3.037   0.932   2.085  1.1527  0.5148  0.1498
 4884TIP3   OH214615   5.176   5.649   1.272  0.1212 -0.1242  0.1824
 4884TIP3    H114616   5.110   5.679   1.208  1.1819 -1.6396 -1.7560
 4884TIP3    H214617   5.210   5.729   1.311 -0.5089  0.9022 -1.2663
 4885TIP3   OH214618   3.785   1.284   3.561  0.0565  0.5804  0.2511
 4885TIP3    H114619   3.825   1.252   3.481 -0.4051  0.3051  0.1256
 4885TIP3    H214620   3.693   1.257   3.555 -1.1302  4.3011 -1.2228
 4886TIP3   OH214621   3.067   4.283   5.086 -0.5877 -0.2195 -0.8431
 4886TIP3    H114622   3.045   4.193   5.109  0.1088 -0.0256  0.6896
 4886TIP3    H214623   3.044   4.335   5.163 -0.0166  0.7576 -1.3031
 4887TIP3   OH214624   0.089   5.304   5.011  0.2421 -0.0896 -0.1843
 4887TIP3    H114625   0.014   5.246   5.015  1.2908 -1.4872 -0.0215
 4887TIP3    H214626   0.124   5.293   4.922 -0.4870  1.5724 -0.7241
 4888TIP3   OH214627   2.053   3.935   5.246  0.2424  0.1198  0.1446
 4888TIP3    H114628   1.990   3.930   5.318  0.3801 -1.6571  0.1711
 4888TIP3    H214629   2.005   3.978   5.175 -0.0255  1.5081  1.1133
 4889TIP3   OH214630   7.015   3.858   3.301  0.0809  0.0527 -0.0701
 4889TIP3    H114631   6.992   3.933   3.245 -1.7894 -1.0319 -0.8228
 4889TIP3    H214632   6.943   3.796   3.290  1.1679 -1.5211  1.1976
 4890TIP3   OH214633   2.648   5.178   3.492 -0.6188  0.6636 -0.8161
 4890TIP3    H114634   2.584   5.107   3.502 -1.1763  1.4008  1.0966
 4890TIP3    H214635   2.609   5.252   3.538  1.4527  1.2334  0.0906
 4891TIP3   OH214636   5.734   1.892   4.281  0.1863 -1.2096 -0.5250
 4891TIP3    H114637   5.704   1.878   4.191 -0.5875  0.4898 -0.5810
 4891TIP3    H214638   5.710   1.812   4.327 -0.6593 -1.5670 -1.5365
 4892TIP3   OH214639   3.083   2.087   2.904 -0.4619  0.6157  0.2816
 4892TIP3    H114640   3.052   2.177   2.903  0.6867  1.0224  0.1155
 4892TIP3    H214641   3.170   2.091   2.864 -0.5207 -0.6116  0.0007
 4893TIP3   OH214642   0.049   6.085   1.018 -0.3352  0.3819  0.1823
 4893TIP3    H114643   0.101   6.075   1.098  0.3983  0.6667 -0.2427
 4893TIP3    H214644   0.064   6.176   0.991 -2.4344  1.0229  0.9652
 4894TIP3   OH214645   4.619   6.243   3.768  0.0765  0.0024 -0.2715
 4894TIP3    H114646   4.630   6.335   3.791  0.3614  0.5798 -2.5300
 4894TIP3    H214647   4.697   6.221   3.718  0.1102 -1.5608  0.4113
 4895TIP3   OH214648   0.686   1.589   0.960  0.0297 -0.1798 -0.9110
 4895TIP3    H114649   0.761   1.637   0.927  0.9121  0.0136  1.1988
 4895TIP3    H214650   0.711   1.497   0.955  0.6233 -0.0955  0.1845
 4896TIP3   OH214651   0.787   6.218   4.221 -0.6117 -0.1654  0.2523
 4896TIP3    H114652   0.737   6.291   4.257  1.3116  2.2319 -1.5025
 4896TIP3    H214653   0.765   6.218   4.128  0.3389 -1.0146  0.0127
 4897TIP3   OH214654   5.189   5.648   3.761  0.0692 -0.0246 -0.3391
 4897TIP3    H114655   5.143   5.565   3.752 -0.0722  0.1417 -1.3217
 4897TIP3    H214656   5.182   5.670   3.854 -2.3760  0.2722 -0.5152
 4898TIP3   OH214657   2.296   4.132   1.918 -0.0973 -0.0374 -0.5354
 4898TIP3    H114658   2.351   4.057   1.897 -2.4822 -1.3585 -2.5948
 4898TIP3    H214659   2.209   4.107   1.887 -2.1294  1.6031  3.1297
 4899TIP3   OH214660   4.438   4.042   1.754  0.4708  0.2262  0.3661
 4899TIP3    H114661   4.461   4.133   1.733 -2.6016  0.3305 -3.7606
 4899TIP3    H214662   4.495   3.989   1.697 -2.4695  0.1163 -2.8002
 4900TIP3   OH214663   6.921   0.399   3.716 -0.1735  0.3642  0.1420
 4900TIP3    H114664   6.882   0.480   3.683 -1.3410 -0.1202  0.3174
 4900TIP3    H214665   7.014   0.421   3.728 -0.5460  1.7857  0.5542
 4901TIP3   OH214666   2.374   1.956   2.406 -0.1694  0.0431 -0.5294
 4901TIP3    H114667   2.364   1.865   2.378  2.5079 -0.4656 -0.0868
 4901TIP3    H214668   2.446   1.990   2.352  1.2945  0.7442  1.7169
 4902TIP3   OH214669   5.235   3.328   1.717 -0.0073  0.1202 -0.6602
 4902TIP3    H114670   5.153   3.375   1.701 -0.4811 -0.1510  0.8268
 4902TIP3    H214671   5.217   3.239   1.688 -0.6565 -0.2269  0.7592
 4903TIP3   OH214672   0.893   6.601   4.540  0.0581 -1.1216 -0.2341
 4903TIP3    H114673   0.845   6.606   4.623  0.3830 -0.1771 -0.0918
 4903TIP3    H214674   0.969   6.546   4.560  0.4951 -0.3375  0.2794
 4904TIP3   OH214675   6.795   6.743   0.148  0.5653  0.4126 -0.1192
 4904TIP3    H114676   6.833   6.684   0.213 -1.4646  0.1195  0.8771
 4904TIP3    H214677   6.823   6.830   0.176 -0.9209  0.3696  1.6834
 4905TIP3   OH214678   4.999   2.273   1.414 -0.0074 -0.0197  0.6288
 4905TIP3    H114679   5.010   2.340   1.482 -0.9883 -0.9745  1.7815
 4905TIP3    H214680   4.909   2.285   1.383  0.6668  0.9021 -1.1101
 4906TIP3   OH214681   4.096   6.333   0.986 -0.0448 -0.0849 -0.0803
 4906TIP3    H114682   4.176   6.302   1.028 -0.4365 -1.0734 -0.0351
 4906TIP3    H214683   4.030   6.332   1.056  0.2128  2.2458  0.3039
 4907TIP3   OH214684   6.585   4.509   4.420 -0.1508  0.0928  0.0239
 4907TIP3    H114685   6.657   4.450   4.442 -0.8018 -0.6743  0.1512
 4907TIP3    H214686   6.609   4.546   4.335 -0.0164 -0.8478 -0.3584
 4908TIP3   OH214687   5.094   2.972   5.762 -0.1552 -0.3319  0.0619
 4908TIP3    H114688   5.057   2.999   5.678  0.3557  1.6636  0.4012
 4908TIP3    H214689   5.057   2.886   5.779  0.4935 -1.2434 -2.6621
 4909TIP3   OH214690   3.062   4.089   1.947  0.2055  0.0982  0.6219
 4909TIP3    H114691   2.995   4.156   1.953 -1.4712 -1.3738 -0.5151
 4909TIP3    H214692   3.028   4.027   1.882  1.2098 -2.3364  2.2935
 4910TIP3   OH214693   3.142   3.895   0.832  0.1312 -0.3020  0.4612
 4910TIP3    H114694   3.110   3.985   0.838 -0.1353  0.0587 -3.6448
 4910TIP3    H214695   3.235   3.900   0.852  0.1427  0.9127  0.1279
 4911TIP3   OH214696   1.517   6.651   3.741 -0.0840 -0.0492 -0.4478
 4911TIP3    H114697   1.543   6.723   3.800  1.3560  1.3315 -2.6296
 4911TIP3    H214698   1.575   6.579   3.766  0.6430  0.5784 -0.2595
 4912TIP3   OH214699   3.638   2.720   0.788  0.4765 -0.2408 -0.2069
 4912TIP3    H114700   3.649   2.719   0.693  1.1598 -0.6722 -0.1282
 4912TIP3    H214701   3.657   2.810   0.813  1.1033 -0.3213 -0.3894
 4913TIP3   OH214702   7.009   1.386   0.059 -0.5248  0.0469 -0.5968
 4913TIP3    H114703   7.035   1.294   0.071  1.2386  0.4746 -0.9122
 4913TIP3    H214704   6.988   1.416   0.148  1.4595  0.0430 -0.0847
 4914TIP3   OH214705   5.391   0.406   3.990 -0.1048  0.1662 -0.6087
 4914TIP3    H114706   5.457   0.369   3.932  0.4221  1.1675 -0.6598
 4914TIP3    H214707   5.409   0.366   4.075 -1.1395 -1.6229 -1.1855
 4915TIP3   OH214708   5.862   0.118   0.104  0.1353 -0.6415 -0.1163
 4915TIP3    H114709   5.901   0.083   0.024  0.8943 -0.5839  0.2213
 4915TIP3    H214710   5.876   0.212   0.099 -2.1255 -0.2992 -1.1398
 4916TIP3   OH214711   4.468   0.415   5.042  0.5753  0.5726 -0.0407
 4916TIP3    H114712   4.546   0.381   4.999  1.0909 -0.7384  1.8094
 4916TIP3    H214713   4.501   0.466   5.115 -0.2285 -1.0250  1.5281
 4917TIP3   OH214714   1.051   4.245   2.141  0.3297 -0.3802  0.5742
 4917TIP3    H114715   0.963   4.280   2.153  0.6332  1.1967 -1.3340
 4917TIP3    H214716   1.051   4.163   2.190 -1.9308 -0.0346  1.2659
 4918TIP3   OH214717   3.044   0.867   1.912  0.4958 -0.0902  0.0444
 4918TIP3    H114718   3.107   0.795   1.903  0.1005 -0.4299 -0.0117
 4918TIP3    H214719   2.959   0.825   1.916  0.4015  0.2355  2.2700
 4919TIP3   OH214720   5.334   6.526   3.227  0.4051  0.1634 -0.1036
 4919TIP3    H114721   5.402   6.541   3.161  0.1522 -0.5940 -0.5545
 4919TIP3    H214722   5.263   6.586   3.202  0.3541 -0.0406 -0.4605
 4920TIP3   OH214723   3.012   3.629   4.970 -0.4628  0.5130 -0.4554
 4920TIP3    H114724   2.948   3.692   5.003  0.3687  0.5410  1.1798
 4920TIP3    H214725   3.025   3.654   4.878 -0.2486  2.6651  0.1102
 4921TIP3   OH214726   0.284   1.132   1.222  0.2570 -0.2462  0.1825
 4921TIP3    H114727   0.198   1.170   1.241 -0.2583 -0.6049 -1.3117
 4921TIP3    H214728   0.299   1.069   1.292 -1.7508 -1.8428 -0.7504
 4922TIP3   OH214729   4.745   5.908   5.737  0.0406  0.6383 -0.6283
 4922TIP3    H114730   4.745   5.931   5.830  0.3719 -0.4872 -0.3351
 4922TIP3    H214731   4.789   5.982   5.694  0.1602  1.0242  0.1446
 4923TIP3   OH214732   6.911   0.526   1.241  0.6448 -0.4003 -0.4162
 4923TIP3    H114733   6.827   0.487   1.218  0.9314 -0.9354 -0.5643
 4923TIP3    H214734   6.929   0.587   1.169 -0.1262  0.5346  0.1508
 4924TIP3   OH214735   5.385   0.873   2.231  0.0136  0.1778 -0.4278
 4924TIP3    H114736   5.297   0.880   2.194  0.1622  3.2946 -0.4393
 4924TIP3    H214737   5.375   0.900   2.322  0.7870 -0.6713 -0.0751
 4925TIP3   OH214738   4.629   4.696   0.930  0.1223  0.1599 -0.4391
 4925TIP3    H114739   4.615   4.605   0.908  0.1597 -0.1650  0.7801
 4925TIP3    H214740   4.710   4.696   0.982 -0.7614  0.6336  0.9946
 4926TIP3   OH214741   3.772   4.448   2.590  0.3814 -0.4841  0.3449
 4926TIP3    H114742   3.696   4.408   2.548 -1.1375  0.5600  1.9430
 4926TIP3    H214743   3.844   4.386   2.576 -0.9908 -1.9694 -0.3874
 4927TIP3   OH214744   0.327   4.642   3.969 -0.2598  0.1875  0.1761
 4927TIP3    H114745   0.417   4.652   3.940  0.2644 -0.0374  1.6340
 4927TIP3    H214746   0.293   4.566   3.921  0.9650 -0.9409  1.0366
 4928TIP3   OH214747   6.575   6.139   0.685 -0.1553 -0.2595  0.3755
 4928TIP3    H114748   6.552   6.187   0.765 -0.1229  1.2652 -0.4765
 4928TIP3    H214749   6.669   6.152   0.676 -0.0965 -0.7402  0.2845
 4929TIP3   OH214750   7.090   5.820   5.085  0.0536 -0.2675  0.1046
 4929TIP3    H114751   7.184   5.810   5.075  0.0130  0.3513 -1.0683
 4929TIP3    H214752   7.053   5.792   5.001 -0.6984  0.7506  0.0682
 4930TIP3   OH214753   5.804   6.695   1.889  0.0304  0.2590 -0.4086
 4930TIP3    H114754   5.851   6.650   1.959 -0.3764 -0.3888 -0.5409
 4930TIP3    H214755   5.869   6.752   1.849  0.4523  0.0948  0.0372
 4931TIP3   OH214756   6.665   0.623   0.395 -0.0572 -0.2077  0.2469
 4931TIP3    H114757   6.663   0.719   0.400  0.1721 -0.1508 -0.5765
 4931TIP3    H214758   6.638   0.604   0.305  1.2264 -0.8597 -0.0196
 4932TIP3   OH214759   5.231   3.502   0.858  0.5112  0.3390  0.2553
 4932TIP3    H114760   5.289   3.442   0.811  1.7684  0.8453  1.1090
 4932TIP3    H214761   5.281   3.583   0.864 -0.1806  0.7101  1.2388
 4933TIP3   OH214762   5.290   1.819   3.006 -0.0475  0.2901  0.6165
 4933TIP3    H114763   5.256   1.736   3.041  0.4882 -0.4594 -0.5764
 4933TIP3    H214764   5.238   1.835   2.928  3.5673 -2.1160 -2.6640
 4934TIP3   OH214765   4.506   3.024   4.397  0.5398  0.4519 -0.0845
 4934TIP3    H114766   4.494   2.973   4.317  0.5676  1.2291 -0.5943
 4934TIP3    H214767   4.556   2.967   4.455  0.5448 -0.1064 -0.6362
 4935TIP3   OH214768   2.580   3.648   0.319  0.0080 -0.1476  0.2284
 4935TIP3    H114769   2.525   3.669   0.394 -1.6342  1.9962 -1.4382
 4935TIP3    H214770   2.552   3.561   0.292 -0.4833 -0.2894  1.1717
 4936TIP3   OH214771   4.151   3.342   1.716 -0.0623  0.0709 -0.2312
 4936TIP3    H114772   4.192   3.425   1.691 -0.4439  1.0423  2.1194
 4936TIP3    H214773   4.119   3.306   1.633  3.1746  0.4877 -1.8382
 4937TIP3   OH214774   3.404   3.369   5.595  0.8170 -0.1950  0.3091
 4937TIP3    H114775   3.327   3.415   5.627  0.6794 -0.7080  0.7415
 4937TIP3    H214776   3.429   3.311   5.667 -0.4807 -2.6125 -1.0361
 4938TIP3   OH214777   3.739   2.563   1.844 -0.2222 -0.4800 -0.0971
 4938TIP3    H114778   3.681   2.613   1.786 -0.0667 -0.7711 -0.5080
 4938TIP3    H214779   3.682   2.497   1.884 -0.1323 -0.9135 -0.6766
 4939TIP3   OH214780   3.674   5.165   4.495 -0.2014 -0.1521 -0.3225
 4939TIP3    H114781   3.692   5.071   4.499  1.8802  0.1380 -1.2564
 4939TIP3    H214782   3.585   5.174   4.529 -0.4580 -2.4465 -0.2074
 4940TIP3   OH214783   2.582   4.483   2.153 -0.0220 -0.2184 -0.0865
 4940TIP3    H114784   2.628   4.523   2.226 -1.0717 -2.2576  1.8201
 4940TIP3    H214785   2.548   4.556   2.102  1.3050  1.2710  1.0821
 4941TIP3   OH214786   6.005   1.354   2.392 -0.0685  0.3410  0.1093
 4941TIP3    H114787   6.036   1.263   2.388  1.2834  0.8273 -1.3875
 4941TIP3    H214788   5.931   1.356   2.332  0.2714  0.3486 -0.3163
 4942TIP3   OH214789   0.308   3.176   1.984  0.3240 -0.1247  0.5290
 4942TIP3    H114790   0.224   3.208   1.951  0.2268 -0.5627  0.3471
 4942TIP3    H214791   0.290   3.085   2.011  1.1226 -0.7737 -1.0223
 4943TIP3   OH214792   5.710   3.034   3.488 -0.0735 -0.1732 -0.3918
 4943TIP3    H114793   5.682   2.943   3.487  0.8129 -0.5217 -3.1088
 4943TIP3    H214794   5.753   3.045   3.573 -1.7117 -1.7401  0.7144
 4944TIP3   OH214795   5.475   3.417   5.870 -0.0146  0.5208  0.1554
 4944TIP3    H114796   5.482   3.374   5.785 -1.3209 -1.3206  0.9300
 4944TIP3    H214797   5.560   3.401   5.912 -0.0622 -0.2807 -0.0466
 4945TIP3   OH214798   0.568   4.691   2.755 -0.2784  0.3784  0.3670
 4945TIP3    H114799   0.645   4.639   2.779 -0.6691 -0.9183 -1.0779
 4945TIP3    H214800   0.571   4.695   2.660 -2.1684  0.0333  0.2695
 4946TIP3   OH214801   4.696   2.385   1.410 -0.0803 -0.2888  0.0767
 4946TIP3    H114802   4.671   2.477   1.402 -0.5571 -0.2885  1.3168
 4946TIP3    H214803   4.620   2.337   1.377 -0.7537 -0.2537  1.5306
 4947TIP3   OH214804   6.498   4.641   2.234 -0.2501 -0.2889 -0.3124
 4947TIP3    H114805   6.456   4.557   2.214 -0.2590 -0.2134 -0.6242
 4947TIP3    H214806   6.425   4.700   2.252 -0.2536 -0.2944 -0.3094
 4948TIP3   OH214807   4.676   2.455   4.132 -0.3226  0.5002 -0.0293
 4948TIP3    H114808   4.609   2.393   4.104  0.9703 -0.8082 -0.3403
 4948TIP3    H214809   4.642   2.541   4.104 -1.0992 -0.2925 -1.6811
 4949TIP3   OH214810   2.019   5.685   4.275 -0.5661 -0.0713 -0.3008
 4949TIP3    H114811   1.998   5.778   4.288 -0.5298 -0.0936 -0.0664
 4949TIP3    H214812   2.057   5.681   4.188  0.1748  0.2643 -0.0060
 4950TIP3   OH214813   5.974   5.873   0.926  0.0849  0.0385  0.0594
 4950TIP3    H114814   6.054   5.861   0.876  0.9105 -0.8551  1.5334
 4950TIP3    H214815   5.990   5.950   0.981 -0.3682  0.3121 -0.1786
 4951TIP3   OH214816   2.524   6.547   1.814 -0.0959 -0.1195 -0.7347
 4951TIP3    H114817   2.429   6.541   1.803 -0.1847 -0.9351  0.3950
 4951TIP3    H214818   2.558   6.541   1.725 -1.0258 -1.3813 -1.0375
 4952TIP3   OH214819   3.321   0.448   0.532  0.1511 -0.6034 -0.2546
 4952TIP3    H114820   3.374   0.509   0.480 -0.5396  0.0947 -0.1710
 4952TIP3    H214821   3.285   0.387   0.467  0.4040 -0.5777 -0.4191
 4953TIP3   OH214822   2.166   2.159   3.457 -0.0406  0.2479 -0.4815
 4953TIP3    H114823   2.131   2.244   3.431 -0.5945 -0.1296 -1.0192
 4953TIP3    H214824   2.193   2.170   3.548  0.8396  1.2706 -0.8520
 4954TIP3   OH214825   4.855   2.272   5.105  0.6980  0.0599  0.3673
 4954TIP3    H114826   4.832   2.181   5.086  0.4079 -0.1034  1.4493
 4954TIP3    H214827   4.810   2.292   5.186  0.0649  1.4566 -0.3000
 4955TIP3   OH214828   5.022   2.446   3.467  0.2529  0.2107  0.0591
 4955TIP3    H114829   4.956   2.403   3.522 -0.9217  0.9147 -0.7453
 4955TIP3    H214830   5.038   2.530   3.511 -0.8416  0.8650 -0.7213
 4956TIP3   OH214831   3.403   5.937   0.523 -0.3450  0.0150  0.0674
 4956TIP3    H114832   3.370   5.983   0.600  0.6379 -0.1704  0.6051
 4956TIP3    H214833   3.484   5.981   0.500  0.0954 -0.8094 -0.0183
 4957TIP3   OH214834   0.333   6.136   4.313 -0.1364  0.1592  0.2300
 4957TIP3    H114835   0.383   6.207   4.352 -0.1927  0.6264 -0.5443
 4957TIP3    H214836   0.393   6.061   4.314 -0.1690  0.1196  1.2972
 4958TIP3   OH214837   2.404   6.191   0.839 -0.1244  0.1403  0.5973
 4958TIP3    H114838   2.437   6.121   0.783  0.0059  1.6360 -1.2686
 4958TIP3    H214839   2.309   6.180   0.838 -0.3963  1.8087 -2.3591
 4959TIP3   OH214840   2.721   3.116   4.511 -0.5126 -0.3002 -0.0877
 4959TIP3    H114841   2.746   3.183   4.575  1.7953  0.9672 -2.1513
 4959TIP3    H214842   2.739   3.156   4.426 -0.6544 -2.9689 -1.4654
 4960TIP3   OH214843   1.040   4.949   3.049 -0.5747  0.5050  0.2840
 4960TIP3    H114844   0.964   4.994   3.014 -0.5425 -1.4431 -2.5507
 4960TIP3    H214845   1.091   5.018   3.091 -2.2986  2.4126 -0.6046
 4961TIP3   OH214846   5.980   3.158   3.326 -0.4496 -0.0593  0.2808
 4961TIP3    H114847   6.001   3.248   3.352 -0.5461 -0.6705  2.6810
 4961TIP3    H214848   5.900   3.137   3.374 -0.4123 -1.4620 -0.2094
 4962TIP3   OH214849   6.902   6.757   2.440  0.1028  0.0718  0.1862
 4962TIP3    H114850   6.808   6.745   2.455 -0.0676  0.1423 -0.7207
 4962TIP3    H214851   6.912   6.851   2.425  0.2608  0.0166 -0.0593
 4963TIP3   OH214852   4.890   3.883   0.611 -0.1468  0.3700  0.7500
 4963TIP3    H114853   4.963   3.841   0.566 -0.1729  0.2646  0.8064
 4963TIP3    H214854   4.826   3.900   0.541  0.2985  1.2659  0.5495
 4964TIP3   OH214855   1.515   2.441   1.524  0.4121 -0.1165 -0.4389
 4964TIP3    H114856   1.500   2.506   1.456 -0.0193 -0.3047 -0.5234
 4964TIP3    H214857   1.438   2.446   1.580  0.0117 -1.0877 -0.8820
 4965TIP3   OH214858   5.844   3.069   2.230  0.3878  0.4739  0.2124
 4965TIP3    H114859   5.870   3.005   2.164  1.0865  0.4674  0.4884
 4965TIP3    H214860   5.910   3.061   2.299 -0.7405 -0.0699  1.2787
 4966TIP3   OH214861   1.218   2.651   1.028  0.3454  0.7681  0.0779
 4966TIP3    H114862   1.220   2.747   1.029  2.1029  0.7574  0.2065
 4966TIP3    H214863   1.283   2.626   0.962  0.6481 -0.3392  0.7684
 4967TIP3   OH214864   3.652   6.121   3.710  0.2467  0.3034  0.7262
 4967TIP3    H114865   3.605   6.176   3.773 -1.7992 -0.0800 -0.3506
 4967TIP3    H214866   3.649   6.171   3.629  1.3653  0.0631  0.5295
 4968TIP3   OH214867   5.987   1.475   4.171 -0.1235 -0.0406  0.0317
 4968TIP3    H114868   6.048   1.427   4.115 -1.3981 -1.0411 -0.5723
 4968TIP3    H214869   5.995   1.566   4.143  0.7930 -0.2134 -0.3029
 4969TIP3   OH214870   7.197   3.327   3.354  0.4297 -0.5463 -0.5214
 4969TIP3    H114871   7.132   3.316   3.285 -2.3897  1.7531  1.4954
 4969TIP3    H214872   7.201   3.241   3.397 -1.1564 -0.8320 -0.8705
 4970TIP3   OH214873   1.631   6.233   2.754  0.0751  0.1852 -0.7802
 4970TIP3    H114874   1.621   6.222   2.659 -0.2098 -0.5590 -0.6716
 4970TIP3    H214875   1.545   6.259   2.784  0.0645  0.0339 -0.6772
 4971TIP3   OH214876   5.605   0.533   5.303 -0.8112 -0.2709 -0.1618
 4971TIP3    H114877   5.524   0.571   5.337 -1.8726 -1.4578 -1.2858
 4971TIP3    H214878   5.625   0.586   5.226 -1.3985 -0.9395 -0.7877
 4972TIP3   OH214879   0.243   3.598   2.457 -1.0231 -0.6532 -0.2017
 4972TIP3    H114880   0.302   3.669   2.433  0.5143 -1.5232  0.8493
 4972TIP3    H214881   0.196   3.577   2.376 -0.9129  0.9766 -0.7205
 4973TIP3   OH214882   2.752   0.111   2.557 -0.0688  0.1922  0.9910
 4973TIP3    H114883   2.837   0.081   2.527 -0.3039 -0.2545  0.7571
 4973TIP3    H214884   2.706   0.031   2.583 -0.7264  0.3430  0.3215
 4974TIP3   OH214885   2.823   5.935   3.797  0.4920 -0.1156  0.5603
 4974TIP3    H114886   2.858   5.890   3.874  3.4532  2.7128  1.0647
 4974TIP3    H214887   2.887   5.918   3.728  0.6028  1.5258  0.2083
 4975TIP3   OH214888   1.866   3.236   2.272 -0.1111  0.1218  0.2609
 4975TIP3    H114889   1.885   3.251   2.179  2.3930  0.6175  0.7783
 4975TIP3    H214890   1.893   3.317   2.315  1.1621 -1.0067  1.6804
 4976TIP3   OH214891   4.056   3.607   4.693  0.3005  0.0965 -0.3203
 4976TIP3    H114892   4.133   3.661   4.678  1.8118 -1.8299  0.0722
 4976TIP3    H214893   4.044   3.608   4.788 -0.3529  0.5923 -0.3962
 4977TIP3   OH214894   5.924   5.586   4.220 -0.5070  0.5657 -0.3656
 4977TIP3    H114895   6.008   5.631   4.228 -0.6412  0.5219  1.9731
 4977TIP3    H214896   5.945   5.503   4.179  1.1787 -0.6792  2.6792
 4978TIP3   OH214897   7.079   0.453   1.544 -0.2441 -0.3690  0.1259
 4978TIP3    H114898   6.990   0.447   1.580  0.3400 -0.4517  1.5965
 4978TIP3    H214899   7.136   0.449   1.620  1.0967 -1.7464 -0.8973
 4979TIP3   OH214900   5.033   6.594   2.166 -0.1510 -0.3360  0.5695
 4979TIP3    H114901   4.994   6.529   2.107  0.7150 -0.1043 -0.2855
 4979TIP3    H214902   5.126   6.592   2.145 -0.0853  1.0671  0.6563
 4980TIP3   OH214903   3.405   6.695   4.485 -0.5369 -0.0516  0.3268
 4980TIP3    H114904   3.357   6.706   4.403 -1.3730  1.0042  0.9287
 4980TIP3    H214905   3.338   6.677   4.550  0.0124  0.1348  0.9582
 4981TIP3   OH214906   4.365   0.734   1.734 -0.0285 -0.0780  0.4885
 4981TIP3    H114907   4.393   0.784   1.658  0.7474 -0.6281  0.4036
 4981TIP3    H214908   4.401   0.782   1.809  0.2010 -0.1814  0.4432
 4982TIP3   OH214909   6.388   5.816   2.562 -0.3089 -0.1227  0.5801
 4982TIP3    H114910   6.358   5.874   2.632  1.3631  0.9387  0.4663
 4982TIP3    H214911   6.424   5.740   2.607  1.9885  1.1386  1.0116
 4983TIP3   OH214912   2.722   5.486   4.236  0.3598 -0.3022 -0.0259
 4983TIP3    H114913   2.794   5.524   4.186 -0.3880  0.1294 -0.8104
 4983TIP3    H214914   2.749   5.396   4.253  1.9451  0.3991  1.4322
 4984TIP3   OH214915   0.356   5.532   1.111  0.1331 -0.1490  0.5635
 4984TIP3    H114916   0.308   5.471   1.055  0.3785  1.1793 -1.1970
 4984TIP3    H214917   0.388   5.479   1.183 -1.0750 -1.7423 -0.0166
 4985TIP3   OH214918   7.110   5.901   4.081 -0.4179 -0.6073 -0.4606
 4985TIP3    H114919   7.046   5.856   4.136 -0.8021  0.0996 -0.3117
 4985TIP3    H214920   7.058   5.943   4.013 -0.0766 -0.3344 -0.5575
 4986TIP3   OH214921   1.934   2.530   0.160 -0.1002 -0.6094 -0.4362
 4986TIP3    H114922   1.879   2.465   0.116  0.4776  0.0472 -2.2501
 4986TIP3    H214923   1.979   2.575   0.088  0.7016  0.7316  0.8519
 4987TIP3   OH214924   1.058   3.118   1.958 -0.2261  0.0130 -0.1318
 4987TIP3    H114925   1.094   3.068   2.031  1.4418  2.4046  0.8163
 4987TIP3    H214926   0.986   3.169   1.997 -0.8496 -0.4021 -0.7129
 4988TIP3   OH214927   0.529   2.518   0.360 -0.4111  0.1767  0.0265
 4988TIP3    H114928   0.566   2.447   0.414 -1.6500  1.1088  2.2403
 4988TIP3    H214929   0.446   2.483   0.328 -0.8066  0.4319  0.7440
 4989TIP3   OH214930   0.656   6.474   2.029 -0.6426 -0.1275 -0.1693
 4989TIP3    H114931   0.579   6.452   2.081 -0.8516 -1.1734 -0.8878
 4989TIP3    H214932   0.730   6.448   2.083 -0.7605  1.1083  0.6290
 4990TIP3   OH214933   5.743   1.062   0.974 -0.1861  0.0030 -0.2456
 4990TIP3    H114934   5.806   1.108   1.029  0.4525 -1.4720  0.3291
 4990TIP3    H214935   5.709   1.128   0.914  0.8892  1.1276  0.3533
 4991TIP3   OH214936   4.871   2.011   2.541  0.2597 -0.5894  0.0761
 4991TIP3    H114937   4.823   2.039   2.463 -1.1391 -0.5729  0.9212
 4991TIP3    H214938   4.810   1.954   2.588  0.9976 -0.4315  1.2714
 4992TIP3   OH214939   4.589   1.706   0.612 -0.1180 -0.2071  0.7279
 4992TIP3    H114940   4.557   1.795   0.599 -1.7978 -0.9806 -0.6392
 4992TIP3    H214941   4.540   1.674   0.687  0.5079 -0.0090  1.2382
 4993TIP3   OH214942   5.521   6.116   4.330 -0.3060  1.0167  0.2990
 4993TIP3    H114943   5.541   6.207   4.311  0.6311  0.2960 -2.7474
 4993TIP3    H214944   5.483   6.082   4.248 -0.8656 -1.2708  1.4236
 4994TIP3   OH214945   3.760   6.181   5.465 -0.3412 -0.1775 -0.0052
 4994TIP3    H114946   3.670   6.174   5.495 -0.2711  0.7638  0.4327
 4994TIP3    H214947   3.781   6.093   5.434 -1.1943 -0.5652  0.4775
 4995TIP3   OH214948   4.033   0.909   3.398 -0.2081  0.4053  0.3398
 4995TIP3    H114949   3.974   0.931   3.326 -0.2555 -1.4098 -0.2029
 4995TIP3    H214950   4.116   0.951   3.374 -0.6744  1.1967  0.0688
 4996TIP3   OH214951   3.976   1.407   1.089 -0.1968 -0.2146 -0.2359
 4996TIP3    H114952   4.007   1.495   1.108 -0.5351 -0.1357 -0.0368
 4996TIP3    H214953   4.001   1.392   0.998 -0.5958  0.2874 -0.4345
 4997TIP3   OH214954   1.901   4.238   1.992  0.2156  0.6501 -0.2783
 4997TIP3    H114955   1.905   4.267   2.083  1.1111 -3.5737  1.2906
 4997TIP3    H214956   1.809   4.216   1.978  0.1996  0.6353 -0.1487
 4998TIP3   OH214957   0.915   1.434   0.920  0.0636  0.0968  0.1162
 4998TIP3    H114958   0.986   1.447   0.983  0.2996  0.3493 -0.1970
 4998TIP3    H214959   0.958   1.439   0.834 -0.5064  1.4293 -0.1167
 4999TIP3   OH214960   5.288   0.605   1.945  0.3754 -0.2036  0.0795
 4999TIP3    H114961   5.357   0.555   1.902 -0.2095 -0.1785 -0.9285
 4999TIP3    H214962   5.293   0.692   1.905  0.4721  0.1295  0.8016
 5000TIP3   OH214963   0.126   4.207   4.416 -0.3781 -0.3538  0.1086
 5000TIP3    H114964   0.110   4.295   4.380 -0.3103 -0.3152  0.1756
 5000TIP3    H214965   0.220   4.205   4.435 -0.1785 -0.7972 -0.8653
 5001TIP3   OH214966   6.198   5.921   0.710  0.4280 -0.4082 -0.0563
 5001TIP3    H114967   6.154   5.857   0.655 -0.6308  0.6464 -0.4636
 5001TIP3    H214968   6.183   6.005   0.667 -0.9770  0.5425  2.1315
 5002TIP3   OH214969   5.077   0.414   4.471 -0.4943  0.3491 -0.4529
 5002TIP3    H114970   5.091   0.504   4.502 -0.8541  0.3662 -0.3340
 5002TIP3    H214971   5.014   0.423   4.399 -2.4226 -0.0230  1.1066
 5003TIP3   OH214972   5.751   5.765   1.036 -0.1303 -0.2585 -0.7664
 5003TIP3    H114973   5.689   5.809   0.978  0.5908 -0.8815 -2.0512
 5003TIP3    H214974   5.832   5.816   1.028 -0.2401  0.1295  0.3467
 5004TIP3   OH214975   3.431   0.054   5.186  0.1091 -0.7868 -0.8123
 5004TIP3    H114976   3.347   0.070   5.142  0.6596  0.6916 -1.3859
 5004TIP3    H214977   3.448  -0.038   5.169 -1.3119 -1.0796 -0.8394
 5005TIP3   OH214978   3.261   2.899   1.421 -0.1814  0.9217 -0.1527
 5005TIP3    H114979   3.313   2.940   1.491  0.2972 -1.0125  0.6868
 5005TIP3    H214980   3.171   2.907   1.451 -0.1496  1.7392 -0.2346
 5006TIP3   OH214981   6.578   5.774   1.440  0.7392  0.4690 -0.0932
 5006TIP3    H114982   6.556   5.764   1.347  1.1893 -2.8149  0.0551
 5006TIP3    H214983   6.495   5.763   1.486  0.6534  1.2900 -0.0258
 5007TIP3   OH214984   4.692   5.962   0.221 -0.2928  0.2840 -0.1887
 5007TIP3    H114985   4.663   6.045   0.184  1.6137  0.9006 -0.4027
 5007TIP3    H214986   4.743   5.986   0.298 -0.0824 -0.7158  0.0013
 5008TIP3   OH214987   3.918   6.633   5.273  0.3219  0.6449 -0.4949
 5008TIP3    H114988   3.949   6.625   5.363  0.0330 -0.4236 -0.4793
 5008TIP3    H214989   3.885   6.546   5.251  0.3738  0.8946 -1.6302
 5009TIP3   OH214990   1.892   0.122   2.631 -0.2075 -1.0664  0.4122
 5009TIP3    H114991   1.899   0.047   2.689 -0.2522 -0.6275  0.9851
 5009TIP3    H214992   1.862   0.194   2.687 -0.5969 -0.7256 -0.2158
 5010TIP3   OH214993   6.937   6.349   5.810  0.1809 -0.8867  0.2419
 5010TIP3    H114994   7.000   6.358   5.882  0.5734 -1.5328 -0.0060
 5010TIP3    H214995   6.967   6.412   5.744 -1.4745  1.3529  1.4942
 5011TIP3   OH214996   3.780   0.928   0.192 -0.2779 -0.2514 -0.2666
 5011TIP3    H114997   3.850   0.918   0.128  0.5418  0.2233  0.5294
 5011TIP3    H214998   3.754   1.020   0.185  0.4101  0.0294  0.6568
 5012TIP3   OH214999   2.856   0.451   3.330  0.0806 -0.0452  0.0184
 5012TIP3    H115000   2.885   0.375   3.381 -0.4974 -0.3367 -0.0768
 5012TIP3    H215001   2.904   0.525   3.367 -0.3640 -0.2488  1.0084
 5013TIP3   OH215002   1.060   5.268   3.928  0.5467 -0.1198  0.3905
 5013TIP3    H115003   1.065   5.362   3.942 -1.5403  0.0915  0.0072
 5013TIP3    H215004   1.092   5.230   4.010  0.2098  0.9405  1.0321
 5014TIP3   OH215005   3.442   4.760   4.798 -0.3636 -0.2967  0.1687
 5014TIP3    H115006   3.489   4.842   4.780 -0.1913 -0.0380  1.6877
 5014TIP3    H215007   3.511   4.696   4.816 -0.5108 -0.7135 -0.6721
 5015TIP3   OH215008   1.340   6.201   3.698 -0.3492  0.2003  0.0794
 5015TIP3    H115009   1.430   6.172   3.713 -0.5307 -0.7585 -0.5786
 5015TIP3    H215010   1.326   6.271   3.762  1.4637  1.6438 -0.9622
 5016TIP3   OH215011   5.588   6.230   4.795  0.2626  0.0162  0.6210
 5016TIP3    H115012   5.550   6.228   4.707 -0.3445 -0.8833  0.8843
 5016TIP3    H215013   5.540   6.162   4.843  1.4577 -0.3839  1.2826
 5017TIP3   OH215014   6.615   2.468   2.726  0.3934 -0.3122 -0.3531
 5017TIP3    H115015   6.626   2.452   2.633  1.5282 -0.8302 -0.1571
 5017TIP3    H215016   6.685   2.418   2.767 -0.8653 -1.1345  0.8777
 5018TIP3   OH215017   2.390   3.242   2.449  0.1814 -0.1892 -0.7082
 5018TIP3    H115018   2.432   3.213   2.530 -1.7883  0.9581  0.8223
 5018TIP3    H215019   2.450   3.307   2.413  0.6662 -0.0365  0.3351
 5019TIP3   OH215020   5.920   3.966   5.032  0.1000 -0.1079 -0.2267
 5019TIP3    H115021   5.935   3.905   4.960 -0.0970  0.1165 -0.4583
 5019TIP3    H215022   5.903   3.909   5.107  1.9972 -0.4008  0.0553
 5020TIP3   OH215023   1.105   2.640   0.299 -0.1663 -0.1283 -0.0898
 5020TIP3    H115024   1.122   2.573   0.366 -2.1041 -0.3421  0.2381
 5020TIP3    H215025   1.087   2.591   0.219 -0.2032  0.0412 -0.1868
 5021TIP3   OH215026   6.579   3.226   1.497 -0.3157  0.1313 -0.1612
 5021TIP3    H115027   6.645   3.157   1.502  0.5323  0.6729 -2.5665
 5021TIP3    H215028   6.629   3.304   1.472 -1.3547  1.4779  1.7820
 5022TIP3   OH215029   3.303   5.951   4.571 -0.3450  0.6331 -0.1059
 5022TIP3    H115030   3.305   5.855   4.566  0.8010  0.6976 -1.3782
 5022TIP3    H215031   3.320   5.970   4.663 -3.5833 -0.3984  0.8446
 5023TIP3   OH215032   3.796   1.999   2.094 -0.0791 -0.3046  0.0060
 5023TIP3    H115033   3.714   2.023   2.051  0.5141  0.1042 -0.9413
 5023TIP3    H215034   3.771   1.980   2.184 -0.7398  3.6049  0.8618
 5024TIP3   OH215035   4.879   0.393   4.265 -0.7876 -0.0454 -0.1999
 5024TIP3    H115036   4.829   0.314   4.285 -1.4156 -0.1425 -1.9973
 5024TIP3    H215037   4.816   0.453   4.226  0.0051  0.7499 -0.3088
 5025TIP3   OH215038   1.588   2.618   0.023 -0.0171 -0.4734 -0.0629
 5025TIP3    H115039   1.613   2.612  -0.069 -0.5640 -2.3768 -0.1208
 5025TIP3    H215040   1.655   2.674   0.062 -0.2539  1.0897 -1.7519
 5026TIP3   OH215041   4.759   4.983   5.332  0.8109  0.3994 -0.6093
 5026TIP3    H115042   4.775   4.972   5.425  0.3408  0.0216 -0.5660
 5026TIP3    H215043   4.846   4.988   5.293  1.0073  0.7907 -0.1277
 5027TIP3   OH215044   6.443   1.713   0.443 -0.6626  0.1901  0.3551
 5027TIP3    H115045   6.449   1.720   0.348 -2.3009 -1.4246  0.0887
 5027TIP3    H215046   6.514   1.769   0.475  0.1469  0.5027 -1.7970
 5028TIP3   OH215047   6.435   1.356   4.770 -0.1673 -0.6841 -0.0346
 5028TIP3    H115048   6.485   1.432   4.740  0.1063 -0.3139  1.2757
 5028TIP3    H215049   6.370   1.342   4.701  0.4631  0.0618 -0.8214
 5029TIP3   OH215050   3.152   3.320   5.774 -0.5564 -0.3436 -0.1318
 5029TIP3    H115051   3.152   3.311   5.870 -3.6688  0.7415  0.0982
 5029TIP3    H215052   3.097   3.248   5.744  0.4828 -0.7364 -1.1507
 5030TIP3   OH215053   6.547   6.276   3.171  0.9287  0.0937  0.4565
 5030TIP3    H115054   6.612   6.299   3.104  1.1408 -0.9122  0.2946
 5030TIP3    H215055   6.529   6.183   3.156 -0.5286  0.3463  0.5287
 5031TIP3   OH215056   1.745   0.285   4.635  0.0485  0.0002 -0.5391
 5031TIP3    H115057   1.681   0.338   4.588 -0.1059 -1.2208 -1.7670
 5031TIP3    H215058   1.808   0.348   4.669 -0.6183  1.0434 -1.1919
 5032TIP3   OH215059   1.353   3.986   3.084  0.3868 -0.4273  0.0418
 5032TIP3    H115060   1.442   3.999   3.050  0.2219  1.2545  0.1592
 5032TIP3    H215061   1.308   4.068   3.064 -1.4611 -1.6065 -0.8929
 5033TIP3   OH215062   1.313   4.908   0.625 -0.2976 -0.1562 -0.2342
 5033TIP3    H115063   1.238   4.892   0.681 -1.7897  2.1189 -1.3750
 5033TIP3    H215064   1.326   5.003   0.629  1.0362 -0.2078 -1.8592
 5034TIP3   OH215065   1.000   6.627   3.360 -0.0583  0.5702  0.2924
 5034TIP3    H115066   1.011   6.596   3.270 -1.1496  1.2192 -0.0926
 5034TIP3    H215067   0.923   6.579   3.392  2.4321 -2.5551  2.2739
 5035TIP3   OH215068   2.154   1.248   2.262 -0.5784 -0.4508 -0.3580
 5035TIP3    H115069   2.203   1.220   2.340  1.0264 -0.1516 -1.2057
 5035TIP3    H215070   2.186   1.190   2.193  0.4281  1.3295 -1.4532
 5036TIP3   OH215071   5.495   3.679   0.683 -0.2554 -0.8542  0.3246
 5036TIP3    H115072   5.471   3.715   0.597  0.0536 -0.1023  0.5485
 5036TIP3    H215073   5.462   3.743   0.746  0.2281 -1.0089  0.7369
 5037TIP3   OH215074   3.139   5.507   4.297  0.4405  0.1695 -0.2332
 5037TIP3    H115075   3.222   5.464   4.316  0.3727 -0.0077 -0.3340
 5037TIP3    H215076   3.074   5.454   4.344  0.1265 -0.9617 -1.8487
 5038TIP3   OH215077   2.997   3.744   1.047  0.4499  0.8023 -0.1238
 5038TIP3    H115078   3.005   3.824   0.995  0.9798 -0.2634 -1.7564
 5038TIP3    H215079   3.074   3.744   1.103  0.8201  1.0808 -0.6288
 5039TIP3   OH215080   1.947   5.831   3.826  0.2743 -0.6012  0.1556
 5039TIP3    H115081   1.914   5.871   3.907  2.5361  4.3981 -0.9712
 5039TIP3    H215082   1.894   5.869   3.757  1.1454 -1.3409 -0.9555
 5040TIP3   OH215083   1.832   1.810   0.565  0.1078 -0.1781 -0.6942
 5040TIP3    H115084   1.876   1.876   0.511 -1.9008  0.4417 -1.6778
 5040TIP3    H215085   1.777   1.861   0.624  0.6863 -0.9352  0.5420
 5041TIP3   OH215086   1.582   0.676   4.455  0.6463 -0.6957  0.4658
 5041TIP3    H115087   1.635   0.751   4.430 -0.9768  0.7217  1.1150
 5041TIP3    H215088   1.555   0.695   4.544 -1.3905 -1.0889 -0.0318
 5042TIP3   OH215089   0.038   0.227   4.931  0.5922 -0.5880  0.7211
 5042TIP3    H115090  -0.048   0.214   4.891  0.0883  1.7228  0.8874
 5042TIP3    H215091   0.035   0.176   5.012 -0.6310 -0.5473  0.7185
 5043TIP3   OH215092   2.260   4.457   1.469  0.4599  1.1319  0.0793
 5043TIP3    H115093   2.175   4.475   1.428 -0.5148 -2.3772  0.2006
 5043TIP3    H215094   2.238   4.424   1.557  2.0849  1.6727  0.7359
 5044TIP3   OH215095   4.022   3.992   3.629 -0.4215 -0.2033 -0.4292
 5044TIP3    H115096   3.971   4.008   3.549  0.0799  1.8711 -0.3801
 5044TIP3    H215097   4.072   4.072   3.642 -0.9691 -0.2341  2.3550
 5045TIP3   OH215098   0.104   1.091   5.760  0.1513 -0.2807 -0.5618
 5045TIP3    H115099   0.025   1.095   5.706 -0.2511 -0.6323 -0.0030
 5045TIP3    H215100   0.092   1.159   5.826 -0.9466 -2.0444  1.1849
 5046TIP3   OH215101   6.554   0.031   5.758  0.2931  0.3710  0.1030
 5046TIP3    H115102   6.573  -0.060   5.734 -1.1384  0.2199 -0.5459
 5046TIP3    H215103   6.544   0.076   5.674 -1.3783  0.5817  0.3830
 5047TIP3   OH215104   3.117   2.638   5.131  0.2917 -0.7923 -0.1627
 5047TIP3    H115105   3.038   2.681   5.098  1.5623  0.2846 -2.0145
 5047TIP3    H215106   3.094   2.545   5.134 -1.1068 -0.4838 -0.4278
 5048TIP3   OH215107   5.864   3.968   0.695 -0.5673 -0.3101  0.0627
 5048TIP3    H115108   5.884   3.971   0.789  1.5645  1.9730 -0.3542
 5048TIP3    H215109   5.848   3.876   0.677 -1.6212 -0.7543  2.7493
 5049TIP3   OH215110   5.658   4.611   0.211  0.4058 -0.1883  0.0576
 5049TIP3    H115111   5.607   4.642   0.285  0.6858  0.9845 -0.2273
 5049TIP3    H215112   5.684   4.690   0.164  1.2867 -0.8397 -0.5944
 5050TIP3   OH215113   0.784   1.356   3.980  0.4512  0.4773  0.3499
 5050TIP3    H115114   0.776   1.404   3.898  0.3739  1.0057  0.6624
 5050TIP3    H215115   0.694   1.335   4.004  0.5787 -1.9694 -1.0157
 5051TIP3   OH215116   0.766   6.520   2.422  0.3963 -0.1914  1.0860
 5051TIP3    H115117   0.781   6.468   2.343  1.0472 -1.1720  1.8277
 5051TIP3    H215118   0.681   6.563   2.407 -0.1381 -1.4279  0.4220
 5052TIP3   OH215119   6.214   1.653   5.385  0.0795 -0.0760  0.0163
 5052TIP3    H115120   6.121   1.645   5.408 -0.2434 -0.7648 -1.3943
 5052TIP3    H215121   6.252   1.704   5.457 -1.2882 -0.1726  0.8599
 5053TIP3   OH215122   0.834   4.093   3.723 -0.7727  0.5752 -0.3287
 5053TIP3    H115123   0.813   4.182   3.694  0.1477  0.8436 -0.2109
 5053TIP3    H215124   0.874   4.105   3.810 -0.6589  0.0486 -0.3037
 5054TIP3   OH215125   5.246   2.295   0.223 -0.5421  0.1695  0.1424
 5054TIP3    H115126   5.211   2.380   0.250  0.7380  0.8947 -0.3828
 5054TIP3    H215127   5.236   2.240   0.300 -0.4754  1.0898  0.8306
 5055TIP3   OH215128   5.802   5.082   0.559  0.3274 -0.3586  0.3149
 5055TIP3    H115129   5.871   5.146   0.540 -0.0495 -0.0135  0.0799
 5055TIP3    H215130   5.816   5.058   0.651  0.3274  0.2455  0.4762
 5056TIP3   OH215131  -0.024   0.150   0.961 -0.1146  0.6034  0.3766
 5056TIP3    H115132   0.001   0.240   0.980 -0.2700  1.0110 -1.2031
 5056TIP3    H215133   0.023   0.129   0.880 -0.1601 -0.7068  0.6671
 5057TIP3   OH215134   1.358   3.191   1.148  0.2434  0.0992 -0.0669
 5057TIP3    H115135   1.288   3.128   1.132 -2.1343  1.8779  2.4857
 5057TIP3    H215136   1.387   3.218   1.061 -1.7246 -1.2675 -1.2088
 5058TIP3   OH215137   2.886   5.856   4.085  0.3049 -0.1571  0.1041
 5058TIP3    H115138   2.943   5.906   4.144 -0.0605  0.3974 -0.0043
 5058TIP3    H215139   2.800   5.899   4.092 -0.0408 -0.8191  0.0685
 5059TIP3   OH215140   4.257   0.883   5.769 -0.0469  0.0642  1.0458
 5059TIP3    H115141   4.236   0.976   5.782  0.4942  0.6402 -1.5344
 5059TIP3    H215142   4.173   0.843   5.748  0.2284  1.0673 -2.7554
 5060TIP3   OH215143   1.375   4.942   0.351 -0.1042 -0.5775 -0.0478
 5060TIP3    H115144   1.349   4.949   0.443 -0.2886  0.4038 -0.1586
 5060TIP3    H215145   1.295   4.919   0.305 -0.0933 -0.6947 -0.0083
 5061TIP3   OH215146   3.777   6.632   3.174  0.1151 -0.1345  0.1724
 5061TIP3    H115147   3.789   6.537   3.171  0.0875 -0.1410  0.2744
 5061TIP3    H215148   3.757   6.651   3.265 -0.7019 -0.1297 -0.0040
 5062TIP3   OH215149   2.403   0.834   3.725 -0.3333  1.0227 -0.2610
 5062TIP3    H115150   2.316   0.794   3.729 -1.1929  2.7278 -0.7177
 5062TIP3    H215151   2.458   0.779   3.780 -1.2168 -1.2215 -1.4991
 5063TIP3   OH215152   4.707   0.319   5.905  0.5538 -0.4163 -0.4054
 5063TIP3    H115153   4.727   0.329   5.812 -1.0113 -0.8475 -0.8182
 5063TIP3    H215154   4.616   0.291   5.907  0.2511  0.5691  1.3103
 5064TIP3   OH215155   2.276   0.367   2.646  0.2160  0.7478 -0.0138
 5064TIP3    H115156   2.213   0.347   2.577  0.6525  0.5916 -0.3704
 5064TIP3    H215157   2.341   0.297   2.640  0.0613  0.5255  0.7964
 5065TIP3   OH215158   3.497   3.462   2.754  0.2030 -0.1664 -0.4444
 5065TIP3    H115159   3.473   3.417   2.835 -1.6422  0.1619 -0.7487
 5065TIP3    H215160   3.463   3.405   2.684 -1.6498  1.3042 -0.8466
 5066TIP3   OH215161   5.235   6.467   3.537 -0.3689  0.0956 -0.1085
 5066TIP3    H115162   5.198   6.456   3.450 -0.4333 -0.3116 -0.0337
 5066TIP3    H215163   5.310   6.525   3.525  0.5905 -1.2043 -0.7071
 5067TIP3   OH215164   1.277   5.307   2.432 -0.1307 -0.5642 -0.2430
 5067TIP3    H115165   1.225   5.285   2.510  0.5960 -0.2904  0.3272
 5067TIP3    H215166   1.244   5.392   2.404 -1.0357 -1.0824 -0.8005
 5068TIP3   OH215167   1.980   6.241   5.356  0.3308  0.3458  0.0843
 5068TIP3    H115168   1.952   6.270   5.443 -1.9412  1.4275 -0.9331
 5068TIP3    H215169   1.970   6.317   5.300  1.9541 -0.2751 -1.1381
 5069TIP3   OH215170   3.011   0.305   0.685 -0.1245  0.3288 -0.4177
 5069TIP3    H115171   2.985   0.397   0.681  1.3503  0.9706  2.4222
 5069TIP3    H215172   3.054   0.288   0.601 -1.3441  1.8758 -1.4072
 5070TIP3   OH215173   2.868   1.330   1.492  0.2044 -0.1946 -0.3735
 5070TIP3    H115174   2.780   1.297   1.478  0.0010  0.4260 -0.6241
 5070TIP3    H215175   2.866   1.369   1.579  0.5764 -1.2413  0.1175
 5071TIP3   OH215176   6.165   2.038   0.596  0.3818  0.3046  0.0000
 5071TIP3    H115177   6.173   2.129   0.624 -2.8141  0.8562 -0.5014
 5071TIP3    H215178   6.101   1.999   0.656 -3.2069  0.2967 -3.3997
 5072TIP3   OH215179   5.532   1.002   4.327 -0.0249 -0.1330 -0.2828
 5072TIP3    H115180   5.547   0.990   4.421  1.4483  0.5464 -0.4169
 5072TIP3    H215181   5.484   0.924   4.301 -2.1441  0.4938  1.3761
 5073TIP3   OH215182   0.214   3.434   0.393 -0.2906  0.0199  0.6505
 5073TIP3    H115183   0.188   3.352   0.435 -0.9903 -0.8958 -1.4316
 5073TIP3    H215184   0.140   3.458   0.339  0.8555  0.7043 -0.6845
 5074TIP3   OH215185   6.077   5.057   2.160 -0.5051 -0.2941 -0.0953
 5074TIP3    H115186   5.994   5.096   2.132 -0.8794 -0.0759  1.2537
 5074TIP3    H215187   6.130   5.053   2.080 -2.3141 -1.7930 -1.3041
 5075TIP3   OH215188   3.110   2.706   1.170 -0.6537 -0.1726 -0.9724
 5075TIP3    H115189   3.133   2.797   1.149 -0.9954 -0.1453 -1.2398
 5075TIP3    H215190   3.080   2.710   1.261  1.6219 -0.4292 -0.1399
 5076TIP3   OH215191   5.802   1.942   2.752  0.3503 -0.1551  0.1702
 5076TIP3    H115192   5.752   2.001   2.696 -0.2285 -0.5925  0.2187
 5076TIP3    H215193   5.735   1.888   2.795  0.9099 -1.5013 -0.5939
 5077TIP3   OH215194   0.576   4.357   2.472 -0.3086 -0.6684 -0.1290
 5077TIP3    H115195   0.496   4.345   2.524 -1.2770 -1.1017 -1.6466
 5077TIP3    H215196   0.584   4.451   2.460 -1.1476 -0.6624 -0.7503
 5078TIP3   OH215197   2.578   4.789   2.219  0.0333  0.0697  0.8544
 5078TIP3    H115198   2.494   4.828   2.194 -0.3734 -1.2334  0.0843
 5078TIP3    H215199   2.561   4.747   2.303 -0.1854 -0.5081  0.5208
 5079TIP3   OH215200   2.650   3.751   1.758  0.4115  0.1346  0.1845
 5079TIP3    H115201   2.599   3.678   1.791  0.6229  0.3464  0.9930
 5079TIP3    H215202   2.736   3.741   1.798  1.8106 -1.5212 -2.8908
 5080TIP3   OH215203   2.236   2.045   0.344 -0.2760 -0.2225  0.2070
 5080TIP3    H115204   2.288   2.086   0.275 -0.4173 -0.0000  0.2347
 5080TIP3    H215205   2.264   2.089   0.425 -0.4560 -0.1536  0.2315
 5081TIP3   OH215206   6.445   3.906   5.468 -0.0398  0.1661  0.2131
 5081TIP3    H115207   6.496   3.832   5.501 -1.4715 -1.2337 -0.5975
 5081TIP3    H215208   6.353   3.880   5.481 -0.6013  1.0027 -1.7309
 5082TIP3   OH215209   6.054   5.042   2.702 -0.1882  0.2855 -0.2642
 5082TIP3    H115210   6.091   5.059   2.616  0.4386 -1.6094 -0.4180
 5082TIP3    H215211   6.000   4.964   2.690 -0.6874  0.4299  0.9044
 5083TIP3   OH215212   0.661   2.785   5.211 -0.4467 -0.1109 -0.2500
 5083TIP3    H115213   0.630   2.695   5.200 -1.9547  0.2530  0.7795
 5083TIP3    H215214   0.627   2.832   5.135  0.8075 -0.4935 -1.0809
 5084TIP3   OH215215   4.524   3.991   4.107 -0.5510 -0.8345  0.0357
 5084TIP3    H115216   4.489   4.010   4.020  1.0327 -1.9951 -0.9093
 5084TIP3    H215217   4.536   4.077   4.147  0.0581 -0.1929 -1.4607
 5085TIP3   OH215218   3.277   5.814   0.259  0.1316 -0.0691  0.2314
 5085TIP3    H115219   3.243   5.900   0.236 -0.9120 -0.1329  1.4477
 5085TIP3    H215220   3.296   5.820   0.352  2.2977 -0.4431 -0.1300
 5086TIP3   OH215221   1.985   6.598   2.148  0.0568  0.5020  0.2967
 5086TIP3    H115222   1.954   6.559   2.230 -0.9944  0.2017 -0.2306
 5086TIP3    H215223   2.043   6.670   2.176  1.3143 -0.8254  1.2941
 5087TIP3   OH215224   3.811   2.858   0.232  0.4077 -0.3206  0.3658
 5087TIP3    H115225   3.906   2.862   0.226  0.3795 -0.2665 -0.0988
 5087TIP3    H215226   3.791   2.765   0.244  0.5037 -0.3784  0.0936
 5088TIP3   OH215227   0.070   1.801   1.104  0.6660 -0.4358 -0.1988
 5088TIP3    H115228   0.008   1.736   1.136  0.0775 -0.3404 -1.0989
 5088TIP3    H215229   0.082   1.779   1.011  1.5528 -0.1113 -0.1713
 5089TIP3   OH215230   2.779   2.369   1.515  0.0049 -0.0270  0.0521
 5089TIP3    H115231   2.770   2.303   1.584  1.5210  0.2736  0.5707
 5089TIP3    H215232   2.745   2.449   1.554 -1.2676 -0.3296 -0.3704
 5090TIP3   OH215233   6.087   2.771   4.257 -0.1636  0.5569  0.1405
 5090TIP3    H115234   5.996   2.743   4.257 -0.2886  0.9375  1.3502
 5090TIP3    H215235   6.106   2.792   4.165 -0.5615 -1.8449 -0.5611
 5091TIP3   OH215236   4.967   3.912   1.702 -0.3807  0.3636 -0.2355
 5091TIP3    H115237   4.911   3.864   1.763 -0.7311  1.9254  0.7526
 5091TIP3    H215238   4.951   3.872   1.617 -0.5255 -1.3314  0.5449
 5092TIP3   OH215239   6.080   1.498   2.935  0.2988  0.1463 -0.1260
 5092TIP3    H115240   6.011   1.434   2.914 -0.3184  0.6462  0.3389
 5092TIP3    H215241   6.151   1.446   2.970 -0.0223 -0.3354 -0.1754
 5093TIP3   OH215242   2.069   5.084   2.753 -0.1065 -0.0036  0.1528
 5093TIP3    H115243   2.000   5.145   2.726 -0.3138 -1.1141 -2.0510
 5093TIP3    H215244   2.135   5.091   2.684  0.8053 -0.8202  0.9181
 5094TIP3   OH215245   2.647   2.782   2.281 -0.2433  0.2543 -0.6612
 5094TIP3    H115246   2.721   2.842   2.267 -1.2103  1.7257  0.2354
 5094TIP3    H215247   2.581   2.809   2.217  0.3364 -1.7867 -2.2407
 5095TIP3   OH215248   1.512   0.834   2.648 -0.1616 -0.3278  0.6188
 5095TIP3    H115249   1.582   0.809   2.588 -0.0592 -0.3155  0.7327
 5095TIP3    H215250   1.454   0.889   2.597  0.4693  0.5360  0.8174
 5096TIP3   OH215251   0.179   4.547   0.830 -0.0952  0.3412  0.1870
 5096TIP3    H115252   0.112   4.613   0.851  0.4178  0.6786  0.7709
 5096TIP3    H215253   0.258   4.578   0.873  0.0186 -0.9717  0.9756
 5097TIP3   OH215254   7.122   2.262   3.130  0.1952 -0.5043 -0.1846
 5097TIP3    H115255   7.107   2.255   3.224 -1.9099 -0.9899 -0.5143
 5097TIP3    H215256   7.196   2.323   3.122  0.7828 -0.8962  1.7735
 5098TIP3   OH215257   4.482   5.424   4.074 -0.1778  0.0160 -0.4733
 5098TIP3    H115258   4.563   5.453   4.115 -0.8255  0.8662  0.2580
 5098TIP3    H215259   4.423   5.407   4.147 -0.8058 -0.1629 -1.0088
 5099TIP3   OH215260   1.981   2.433   3.143 -0.2694 -0.0274 -0.1063
 5099TIP3    H115261   2.037   2.424   3.066  0.7545  0.5319  0.5377
 5099TIP3    H215262   1.896   2.460   3.109  0.0214 -0.2866 -1.0683
 5100TIP3   OH215263   2.686   6.578   1.212 -0.7406 -0.0468  0.5439
 5100TIP3    H115264   2.615   6.625   1.257 -1.8107  0.3883 -1.5103
 5100TIP3    H215265   2.645   6.497   1.181 -0.5832  0.5191 -1.2534
 5101TIP3   OH215266   4.083   4.227   5.251  0.1902 -0.3736  0.5628
 5101TIP3    H115267   4.028   4.304   5.267  0.1025 -0.6683  1.7412
 5101TIP3    H215268   4.135   4.218   5.331  1.4800 -0.4961 -0.2741
 5102TIP3   OH215269   3.675   6.692   0.853 -0.4686  0.1872 -0.1275
 5102TIP3    H115270   3.616   6.681   0.927  0.1938  1.2985  0.5918
 5102TIP3    H215271   3.728   6.769   0.875 -0.7540  1.0034 -2.0998
 5103TIP3   OH215272   1.853   6.134   1.024 -0.7151  0.1668  0.3875
 5103TIP3    H115273   1.792   6.075   1.068  0.1033 -1.4952 -0.5782
 5103TIP3    H215274   1.852   6.105   0.932 -1.1599  2.4628 -0.4002
 5104TIP3   OH215275   5.537   2.284   5.466  0.2115 -0.7229  0.1085
 5104TIP3    H115276   5.570   2.364   5.506  1.2288 -1.3921  0.6490
 5104TIP3    H215277   5.599   2.264   5.396 -0.5663 -0.5322 -0.6508
 5105TIP3   OH215278   2.162   5.353   0.995 -1.0215  0.4322 -0.2962
 5105TIP3    H115279   2.120   5.335   1.080 -0.3300  0.9875  0.1722
 5105TIP3    H215280   2.154   5.448   0.984  0.8719  0.7045  0.2415
 5106TIP3   OH215281   6.473   0.380   0.778 -0.1036 -0.7251  0.0347
 5106TIP3    H115282   6.564   0.405   0.764 -0.1347 -0.6933 -0.1144
 5106TIP3    H215283   6.437   0.450   0.834 -0.6307  0.4656 -1.7125
 5107TIP3   OH215284   4.513   1.583   5.571  0.1425  0.5200 -0.2609
 5107TIP3    H115285   4.587   1.620   5.618 -0.5671 -0.0372  1.3899
 5107TIP3    H215286   4.550   1.511   5.520  0.3263 -2.8616  4.0294
 5108TIP3   OH215287   4.647  -0.018   5.819  0.1608 -0.2413 -0.0316
 5108TIP3    H115288   4.710   0.052   5.836  1.4205 -1.2932 -0.1753
 5108TIP3    H215289   4.597   0.013   5.743 -0.0183  0.9356  0.5476
 5109TIP3   OH215290   4.907   0.807   3.878  0.4212 -0.1380  0.4791
 5109TIP3    H115291   4.818   0.770   3.874 -0.1983  1.2301  0.9953
 5109TIP3    H215292   4.894   0.901   3.867  2.0907 -0.1362 -2.2522
 5110TIP3   OH215293   5.186   2.797   3.845 -0.0441 -0.7816  0.0780
 5110TIP3    H115294   5.263   2.811   3.791  0.8183 -1.3454  1.1104
 5110TIP3    H215295   5.157   2.885   3.870 -0.2731 -0.5356 -1.0276
 5111TIP3   OH215296   3.334   1.315   1.027  0.0028 -0.0164  0.1128
 5111TIP3    H115297   3.411   1.344   1.077 -0.8701 -0.7193  1.9443
 5111TIP3    H215298   3.285   1.261   1.088 -2.0775  0.5859 -0.9412
 5112TIP3   OH215299   6.843   2.829   2.182 -0.7762  0.5211 -0.0466
 5112TIP3    H115300   6.862   2.875   2.264 -1.2952  1.6258 -0.5137
 5112TIP3    H215301   6.911   2.859   2.122 -1.6819  1.4847 -0.6338
 5113TIP3   OH215302   1.847   6.767   3.972  0.2808  0.5532  0.0788
 5113TIP3    H115303   1.917   6.775   4.036 -0.1660  0.3775  0.6018
 5113TIP3    H215304   1.767   6.760   4.025  0.0090 -0.7002 -0.4579
 5114TIP3   OH215305   4.615   2.047   1.501 -0.2918 -0.3436  0.1341
 5114TIP3    H115306   4.565   2.092   1.570  0.6709 -0.1833  0.7512
 5114TIP3    H215307   4.612   2.107   1.426  0.4987  0.5063  0.7609
 5115TIP3   OH215308   4.145   0.476   0.472 -0.0866 -0.0370 -0.2407
 5115TIP3    H115309   4.226   0.471   0.522  0.4007  2.3349 -0.6910
 5115TIP3    H215310   4.173   0.488   0.381 -0.6993  4.6298 -0.0398
 5116TIP3   OH215311   4.763   4.160   4.395 -0.0969  0.0313  0.0203
 5116TIP3    H115312   4.685   4.119   4.434 -1.0444  1.4536 -0.3094
 5116TIP3    H215313   4.731   4.203   4.316  1.4759 -1.2698 -1.4102
 5117TIP3   OH215314   3.387   2.993   5.121  0.3209  0.6008 -0.2830
 5117TIP3    H115315   3.349   3.080   5.131 -0.0910  0.2720  1.1047
 5117TIP3    H215316   3.453   2.986   5.190  2.2960  0.7926 -2.0306
 5118TIP3   OH215317   3.180   5.160   1.261 -0.5161 -0.0059 -0.1000
 5118TIP3    H115318   3.238   5.124   1.328  0.2244  0.3801 -0.5171
 5118TIP3    H215319   3.146   5.241   1.299  1.2319  1.1212 -0.7922
 5119TIP3   OH215320   1.390   2.195   4.426  0.0588  0.3637  0.2974
 5119TIP3    H115321   1.405   2.214   4.333 -0.4289 -0.9220 -0.0568
 5119TIP3    H215322   1.468   2.149   4.455  0.2041  0.7507  0.5268
 5120TIP3   OH215323   4.635   4.102   0.676  0.8298 -0.2101 -0.2353
 5120TIP3    H115324   4.713   4.141   0.637  1.6732 -2.6480 -1.1729
 5120TIP3    H215325   4.660   4.086   0.767  0.7684  0.5929 -0.0670
 5121TIP3   OH215326   2.414   4.392   2.385 -0.0969  0.5991  0.3555
 5121TIP3    H115327   2.469   4.400   2.307 -0.1459  1.6814  0.4104
 5121TIP3    H215328   2.381   4.481   2.400 -0.4077  0.3254  1.3834
 5122TIP3   OH215329   4.003   2.601   0.062  0.0129 -0.0711 -0.5474
 5122TIP3    H115330   4.035   2.653   0.136  1.8093 -0.0865 -1.2727
 5122TIP3    H215331   3.912   2.630   0.050 -0.5549 -0.5230  2.0392
 5123TIP3   OH215332   1.685   5.128   3.603 -0.1184 -0.0730 -0.4483
 5123TIP3    H115333   1.698   5.071   3.679 -2.4201  0.4194  0.3930
 5123TIP3    H215334   1.733   5.208   3.624  0.7926 -0.6385 -0.3577
 5124TIP3   OH215335   2.260   4.805   1.677  0.1597  0.2218 -0.0362
 5124TIP3    H115336   2.290   4.849   1.756  0.0303 -0.6572  0.5147
 5124TIP3    H215337   2.214   4.728   1.708  0.8289 -0.5935 -0.9883
 5125TIP3   OH215338   1.121   1.283   5.747  0.1905  0.1063 -0.0971
 5125TIP3    H115339   1.131   1.362   5.800 -1.0972 -0.0911  0.4941
 5125TIP3    H215340   1.035   1.248   5.773  1.2653 -2.2277  0.6533
 5126TIP3   OH215341   6.262   0.641   3.041 -0.0356  0.1426 -0.7292
 5126TIP3    H115342   6.181   0.691   3.037 -0.4640 -0.5141 -0.4277
 5126TIP3    H215343   6.326   0.702   3.077 -0.1259  0.9873 -1.9439
 5127TIP3   OH215344   7.116   4.030   4.988 -0.0100 -0.4017  0.4381
 5127TIP3    H115345   7.098   4.098   4.923  2.5217  1.8082  1.8712
 5127TIP3    H215346   7.146   3.955   4.936 -1.1855  0.1113 -1.0788
 5128TIP3   OH215347   3.164   6.414   2.638 -0.0395  0.3220 -0.2482
 5128TIP3    H115348   3.131   6.339   2.687 -0.1339  0.9428  0.6753
 5128TIP3    H215349   3.255   6.424   2.666  0.5793 -0.6048 -1.8274
 5129TIP3   OH215350   0.129   4.333   5.017  0.0856 -0.5777  0.1941
 5129TIP3    H115351   0.110   4.387   5.093 -1.0339 -1.3448  0.4654
 5129TIP3    H215352   0.046   4.326   4.971  0.1962 -2.1335  0.1992
 5130TIP3   OH215353   4.278   2.154   4.172  0.6797 -0.7218  0.3548
 5130TIP3    H115354   4.237   2.236   4.198 -0.3364 -1.6782  1.9449
 5130TIP3    H215355   4.217   2.116   4.109  0.3438 -0.9738  0.8224
 5131TIP3   OH215356   5.572   6.667   2.218  0.0261  0.3706 -0.5793
 5131TIP3    H115357   5.477   6.652   2.222  0.0985 -0.0370 -0.3664
 5131TIP3    H215358   5.610   6.579   2.215  0.4901  0.4416  1.6175
 5132TIP3   OH215359   1.766   1.393   1.146 -0.3443 -0.4264  0.1840
 5132TIP3    H115360   1.816   1.358   1.071  1.1184 -2.7659  2.0790
 5132TIP3    H215361   1.676   1.364   1.130 -0.3918  0.4900 -1.4030
 5133TIP3   OH215362   5.754   5.754   2.955  0.3080  0.4576 -0.1052
 5133TIP3    H115363   5.843   5.729   2.979  0.1736 -1.0709 -1.0906
 5133TIP3    H215364   5.719   5.796   3.034  1.5084  0.0549  0.6757
 5134TIP3   OH215365   4.926   4.206   2.664  0.0387 -0.2454  0.0206
 5134TIP3    H115366   4.909   4.158   2.745  0.7300 -0.0694  0.2750
 5134TIP3    H215367   4.942   4.296   2.693  0.1767 -0.1601 -0.3215
 5135TIP3   OH215368   6.034   3.936   0.475  0.2890  0.1272  0.4511
 5135TIP3    H115369   5.951   3.957   0.432  0.9583 -0.1788 -1.0526
 5135TIP3    H215370   6.026   3.974   0.563 -0.7814  1.5667 -0.2290
 5136TIP3   OH215371   3.301   1.081   0.883  0.4301  0.1848  0.3333
 5136TIP3    H115372   3.308   1.168   0.921  0.3941 -0.6856  2.4465
 5136TIP3    H215373   3.389   1.063   0.849  0.2298  1.3327 -0.8780
 5137TIP3   OH215374   5.184   4.789   4.134  0.6270  0.1538 -0.0307
 5137TIP3    H115375   5.088   4.791   4.143  0.7774  1.0996  1.7627
 5137TIP3    H215376   5.204   4.867   4.081  0.3751 -0.4482 -1.0387
 5138TIP3   OH215377   4.887   5.132   3.793  0.1145  0.0855 -0.1197
 5138TIP3    H115378   4.794   5.115   3.811  0.3043 -1.7391 -0.6476
 5138TIP3    H215379   4.888   5.166   3.703 -0.0307 -0.1565 -0.2147
 5139TIP3   OH215380   5.086   5.515   0.938 -0.0291  0.0387  0.2299
 5139TIP3    H115381   5.062   5.599   0.977  0.3586  0.6413 -0.8218
 5139TIP3    H215382   5.011   5.458   0.958 -0.4051  0.6904  0.7336
 5140TIP3   OH215383   4.411   1.660   0.820  0.3984 -0.6188  0.6100
 5140TIP3    H115384   4.443   1.656   0.910 -1.4597 -0.3603  1.3172
 5140TIP3    H215385   4.381   1.571   0.802 -1.5172 -0.1153  1.1552
 5141TIP3   OH215386   0.457   4.063   5.536 -0.0752  0.0095 -0.2719
 5141TIP3    H115387   0.444   4.009   5.458 -1.2963 -1.1161  0.6560
 5141TIP3    H215388   0.368   4.090   5.561  0.2304 -0.2188  1.1141
 5142TIP3   OH215389   5.977   4.256   2.548  0.5058  0.3627  0.5938
 5142TIP3    H115390   5.938   4.334   2.508  0.3719  0.2934  0.5909
 5142TIP3    H215391   5.988   4.280   2.641 -0.4958  0.0104  0.8048
 5143TIP3   OH215392   1.457   2.767   1.771  0.3311  0.1792 -0.1307
 5143TIP3    H115393   1.500   2.750   1.688  2.2343  2.2041  0.3389
 5143TIP3    H215394   1.524   2.752   1.837 -1.1121 -1.2855  1.0999
 5144TIP3   OH215395   6.114   1.208   4.351 -0.0811 -0.0358  0.5002
 5144TIP3    H115396   6.072   1.247   4.274  0.6334  1.0508  0.6480
 5144TIP3    H215397   6.050   1.219   4.421  0.3148  1.3686  0.6617
 5145TIP3   OH215398   6.768   2.980   3.582  0.3479 -0.6016  0.6251
 5145TIP3    H115399   6.834   2.916   3.608  1.4531  0.9932  1.9581
 5145TIP3    H215400   6.721   3.000   3.663 -0.7267 -0.5356  0.0028
 5146TIP3   OH215401   6.450   1.182   2.124 -0.2242  0.2098  0.1424
 5146TIP3    H115402   6.452   1.147   2.035  1.4832  0.0935  0.2006
 5146TIP3    H215403   6.537   1.166   2.159 -1.0558 -0.3635  2.0984
 5147TIP3   OH215404   1.259   1.876   0.111 -0.1616 -0.0369 -0.2519
 5147TIP3    H115405   1.285   1.940   0.045  0.8777  0.3762  0.5206
 5147TIP3    H215406   1.342   1.845   0.148 -0.7095 -0.5752  0.5637
 5148TIP3   OH215407   3.860   4.133   4.114  0.0740 -0.0014 -0.5502
 5148TIP3    H115408   3.799   4.207   4.105  0.3263  0.2371 -0.3120
 5148TIP3    H215409   3.806   4.056   4.097 -1.5854 -0.2647  4.3190
 5149TIP3   OH215410   1.075   2.346   4.668  0.2094 -0.0147  0.4451
 5149TIP3    H115411   0.986   2.377   4.685 -0.0459  0.2927 -1.2274
 5149TIP3    H215412   1.094   2.286   4.740 -0.4362  1.6703  2.0923
 5150TIP3   OH215413   3.154   4.284   4.281 -0.1472 -0.1210  0.6417
 5150TIP3    H115414   3.102   4.287   4.361 -0.4652 -1.6608  0.5283
 5150TIP3    H215415   3.101   4.329   4.215 -1.1118 -1.2156  0.6565
 5151TIP3   OH215416   2.683   3.945   5.304 -0.3791  0.0565 -0.2872
 5151TIP3    H115417   2.615   3.921   5.367 -0.2815  0.3447 -0.0709
 5151TIP3    H215418   2.760   3.896   5.332 -0.9721 -1.7397 -1.6244
 5152TIP3   OH215419   1.574   4.468   1.747  0.0720 -0.2198 -0.7423
 5152TIP3    H115420   1.549   4.406   1.815 -1.1938  0.4190 -0.5877
 5152TIP3    H215421   1.618   4.539   1.793 -1.4073  0.5530 -0.4495
 5153TIP3   OH215422   6.530   4.234   4.825  0.2711  0.1221 -0.0181
 5153TIP3    H115423   6.527   4.206   4.916  0.1997 -1.7192 -0.5586
 5153TIP3    H215424   6.498   4.324   4.827  3.0717  1.2146  2.1460
 5154TIP3   OH215425   1.800   5.440   4.251 -0.5126 -0.4611  0.3479
 5154TIP3    H115426   1.887   5.479   4.261 -0.3287 -0.6949 -0.2960
 5154TIP3    H215427   1.782   5.400   4.336  0.8996 -2.2140 -0.1152
 5155TIP3   OH215428   2.589   1.018   4.240 -0.9127 -0.3542  0.1704
 5155TIP3    H115429   2.573   1.111   4.223 -0.0666 -0.0315  1.0654
 5155TIP3    H215430   2.684   1.010   4.241 -0.9824 -1.2304  0.1307
 5156TIP3   OH215431   4.461   5.831   1.559 -0.1692  0.1059  0.0151
 5156TIP3    H115432   4.401   5.900   1.589  0.0888  1.1723 -1.7491
 5156TIP3    H215433   4.473   5.850   1.466  2.4709 -0.4123  0.1833
 5157TIP3   OH215434   2.624   4.268   1.614  0.1037  0.3503  0.3008
 5157TIP3    H115435   2.641   4.179   1.643 -0.8749  0.2737  0.6801
 5157TIP3    H215436   2.539   4.263   1.570 -0.2424  1.1970  0.8394
 5158TIP3   OH215437   3.315   0.277   3.103 -0.2585  0.4777 -0.2874
 5158TIP3    H115438   3.316   0.372   3.108  0.3076  0.5828 -1.7679
 5158TIP3    H215439   3.223   0.253   3.104 -0.4184  1.0786 -0.4972
 5159TIP3   OH215440   3.061   0.575   0.284  0.3003 -0.2968 -0.4797
 5159TIP3    H115441   2.983   0.622   0.256 -0.0653  0.0328  0.9901
 5159TIP3    H215442   3.104   0.633   0.347 -0.3885 -2.0000  1.7078
 5160TIP3   OH215443   4.572   1.668   3.973 -0.1537 -0.5936  0.2671
 5160TIP3    H115444   4.598   1.619   4.051  3.0082 -0.4689 -0.5494
 5160TIP3    H215445   4.520   1.741   4.007  1.1768 -0.4935  2.3045
 5161TIP3   OH215446   6.438   3.252   5.553 -0.6313  0.1612  0.5703
 5161TIP3    H115447   6.446   3.297   5.637 -1.2472  0.4497  0.4771
 5161TIP3    H215448   6.375   3.182   5.568 -1.4876  0.8166  0.1068
 5162TIP3   OH215449   4.248   4.004   2.604 -0.5137 -0.5283  0.5566
 5162TIP3    H115450   4.206   3.934   2.654  1.3923 -0.7597  1.9721
 5162TIP3    H215451   4.329   3.965   2.571 -0.2976  0.4848 -0.1631
 5163TIP3   OH215452   2.659   6.027   1.635  0.0345  0.5477 -0.1879
 5163TIP3    H115453   2.583   6.020   1.693  0.1006  1.4029  0.0145
 5163TIP3    H215454   2.685   6.119   1.640  2.3200 -0.1136  1.2790
 5164TIP3   OH215455   1.044   3.189   3.130  0.3492 -0.0515  0.4899
 5164TIP3    H115456   1.099   3.177   3.053 -0.9657  0.2762 -0.5480
 5164TIP3    H215457   1.046   3.283   3.147  3.5344 -0.4318  3.1648
 5165TIP3   OH215458   3.417   5.833   5.000 -0.1569  0.1390 -0.5648
 5165TIP3    H115459   3.461   5.769   4.944 -0.2405 -1.1069  0.7321
 5165TIP3    H215460   3.358   5.880   4.942  0.8449 -0.0720 -1.7976
 5166TIP3   OH215461   3.366   6.466   4.213 -0.1595  0.4194 -0.0020
 5166TIP3    H115462   3.402   6.379   4.233  0.2092  0.7977  1.0754
 5166TIP3    H215463   3.272   6.453   4.208 -0.1718  0.0933  0.9383
 5167TIP3   OH215464   5.483   0.716   1.269  1.3666  0.1712  0.7688
 5167TIP3    H115465   5.571   0.694   1.240  0.4761  0.0744 -2.1349
 5167TIP3    H215466   5.428   0.705   1.192 -1.4803 -1.1852  2.7771
 5168TIP3   OH215467   2.133   4.445   2.650 -0.2758  0.3403  0.9445
 5168TIP3    H115468   2.170   4.495   2.723  0.2897  0.3769  0.6390
 5168TIP3    H215469   2.095   4.511   2.592 -0.7729  0.3069  1.2303
 5169TIP3   OH215470   7.130   1.012   3.010  0.5340  0.5932  0.1484
 5169TIP3    H115471   7.088   0.986   3.092  1.6311  0.2520  0.6179
 5169TIP3    H215472   7.168   1.098   3.029  2.5234 -0.3365  0.6773
 5170TIP3   OH215473   2.318   3.063   0.630  0.2715 -0.0486 -0.1462
 5170TIP3    H115474   2.229   3.068   0.663  0.3014 -1.1939  0.1464
 5170TIP3    H215475   2.364   3.134   0.674 -0.4196  0.3628 -0.0747
 5171TIP3   OH215476   3.709   4.352   5.241  0.3198  0.1458 -0.0958
 5171TIP3    H115477   3.793   4.374   5.281  1.5106 -2.2111 -1.0644
 5171TIP3    H215478   3.730   4.339   5.148 -0.8165 -1.6961 -0.1513
 5172TIP3   OH215479   7.073   1.108   2.510  0.3244 -0.3890  0.6211
 5172TIP3    H115480   7.103   1.020   2.534 -0.2309 -0.4483  1.1426
 5172TIP3    H215481   7.101   1.163   2.583 -0.2047 -0.3240  0.7820
 5173TIP3   OH215482   5.437   2.836   5.733 -0.1915  0.0589  0.3476
 5173TIP3    H115483   5.487   2.756   5.743 -0.4267 -0.1327  0.0130
 5173TIP3    H215484   5.386   2.823   5.653 -0.3561  0.4728  0.3811
 5174TIP3   OH215485   6.915   1.907   0.655  0.6302  0.4284 -0.0285
 5174TIP3    H115486   6.930   1.956   0.735  0.0306  2.3088 -1.0013
 5174TIP3    H215487   6.823   1.922   0.634  1.1061  1.2052 -1.7922
 5175TIP3   OH215488   4.349   0.886   0.899 -0.3264  0.2682  0.3800
 5175TIP3    H115489   4.375   0.865   0.988 -0.1786  0.1758  0.3161
 5175TIP3    H215490   4.431   0.910   0.855 -0.3297 -0.1220  0.1512
 5176TIP3   OH215491   3.739   2.488   5.492  0.0799 -0.2872  0.0155
 5176TIP3    H115492   3.711   2.506   5.402  0.4242  0.6825  0.0936
 5176TIP3    H215493   3.754   2.574   5.530  2.4809 -0.7188  0.1904
 5177TIP3   OH215494   4.113   4.046   5.580 -0.6952  0.3270  0.4641
 5177TIP3    H115495   4.106   4.043   5.675 -0.9235 -2.8600  0.4338
 5177TIP3    H215496   4.204   4.071   5.564 -0.3751 -0.0865  1.5549
 5178TIP3   OH215497   6.686   1.100   1.895  0.2402  0.8032 -0.4635
 5178TIP3    H115498   6.748   1.153   1.846  0.8334 -0.5511 -1.2296
 5178TIP3    H215499   6.620   1.074   1.831 -0.5647  1.3630  0.1102
 5179TIP3   OH215500   5.947   4.130   0.246  0.0831 -0.0287 -0.6107
 5179TIP3    H115501   5.884   4.201   0.239 -0.0913 -0.1020  0.1870
 5179TIP3    H215502   5.894   4.050   0.241  0.1178 -0.0912 -0.0307
 5180TIP3   OH215503   6.025   2.879   0.487 -0.0610  0.3770  0.2370
 5180TIP3    H115504   5.953   2.877   0.424  0.2091  2.1358 -0.1883
 5180TIP3    H215505   6.001   2.948   0.549  0.2649 -0.4826  1.3510
 5181TIP3   OH215506   5.654   2.938   1.458  0.1794  0.1731 -0.1614
 5181TIP3    H115507   5.660   2.859   1.404 -0.1934 -1.0210  1.4830
 5181TIP3    H215508   5.736   2.984   1.442  0.2728 -0.3743 -1.3791
 5182TIP3   OH215509   5.460   3.200   0.085 -0.3515  0.5970 -0.3548
 5182TIP3    H115510   5.456   3.286   0.127  0.2853  0.0379  0.9031
 5182TIP3    H215511   5.372   3.163   0.096 -0.7099  1.1703 -1.1440
 5183TIP3   OH215512   0.767   0.873   0.156 -0.1419  0.1475 -0.4195
 5183TIP3    H115513   0.678   0.840   0.152  0.2252 -0.8409 -0.5072
 5183TIP3    H215514   0.780   0.918   0.072 -1.6453  3.2181  0.8255
 5184TIP3   OH215515   0.680   4.441   2.861  0.4095 -0.1672 -0.3839
 5184TIP3    H115516   0.647   4.364   2.908 -0.9014  0.6377  0.0668
 5184TIP3    H215517   0.776   4.433   2.866  0.3235 -2.0588 -0.8574
 5185TIP3   OH215518   1.482   4.191   0.099 -0.1331 -0.0840  0.3594
 5185TIP3    H115519   1.401   4.242   0.107 -1.4036 -1.7361 -1.1240
 5185TIP3    H215520   1.550   4.249   0.132 -1.5603  2.3175 -0.6627
 5186TIP3   OH215521   1.354   3.688   1.574 -0.2469  0.3241 -0.4565
 5186TIP3    H115522   1.314   3.601   1.576  3.0093 -1.2967 -0.1315
 5186TIP3    H215523   1.388   3.696   1.485  0.1102  0.9744 -0.2667
 5187TIP3   OH215524   3.248   3.365   3.613  0.1442  0.0416  0.4007
 5187TIP3    H115525   3.154   3.376   3.629 -0.4717 -1.1008 -1.9906
 5187TIP3    H215526   3.281   3.322   3.692 -1.9114 -2.0713  0.2153
 5188TIP3   OH215527   3.117   6.540   3.959  0.1883 -0.7644  0.1209
 5188TIP3    H115528   3.104   6.533   4.054 -0.3045  2.6432  0.4140
 5188TIP3    H215529   3.030   6.560   3.924  0.4984 -1.2597 -0.9791
 5189TIP3   OH215530   0.992   2.742   0.536 -0.2926 -0.2714 -0.4846
 5189TIP3    H115531   1.018   2.711   0.450 -0.4516 -0.0936 -0.5983
 5189TIP3    H215532   1.073   2.772   0.577 -0.0256 -1.4513 -0.1120
 5190TIP3   OH215533   5.929   5.899   4.175  0.2732 -0.1339 -0.1431
 5190TIP3    H115534   5.954   5.987   4.144 -1.2752  0.1074 -0.8447
 5190TIP3    H215535   6.009   5.863   4.213  0.5629  2.2850  1.8632
 5191TIP3   OH215536   1.207   0.719   2.615 -0.4054  0.4860  0.0465
 5191TIP3    H115537   1.272   0.695   2.682 -0.5103  0.7896  0.2570
 5191TIP3    H215538   1.159   0.792   2.653 -0.1725  0.9534 -0.5418
 5192TIP3   OH215539   5.515   6.802   2.500  0.1178  0.0204 -0.0663
 5192TIP3    H115540   5.540   6.735   2.564 -0.1564 -0.2359 -0.2236
 5192TIP3    H215541   5.439   6.765   2.455  0.8461 -0.2049 -1.1674
 5193TIP3   OH215542   4.695   6.477   3.935 -0.3784 -0.3935  0.8890
 5193TIP3    H115543   4.766   6.541   3.939 -0.7428  0.2275 -1.4860
 5193TIP3    H215544   4.620   6.522   3.975 -0.7562  0.9251 -1.1437
 5194TIP3   OH215545   5.125   1.599   3.105 -0.1118  0.0265  0.3294
 5194TIP3    H115546   5.109   1.522   3.160  0.4828 -0.9834 -0.8544
 5194TIP3    H215547   5.060   1.592   3.035  1.2083 -0.5023 -0.8772
 5195TIP3   OH215548   5.332   6.552   4.690 -0.2706 -0.2031 -0.2311
 5195TIP3    H115549   5.386   6.548   4.768 -0.8854  2.7193  0.4533
 5195TIP3    H215550   5.393   6.568   4.618  0.0076  0.6628  0.1902
 5196TIP3   OH215551   4.923   5.786   0.145  0.7681  0.3801 -0.0078
 5196TIP3    H115552   4.858   5.751   0.206  0.8828 -1.0727 -0.6641
 5196TIP3    H215553   4.877   5.856   0.098  0.2034  0.4678  0.6724
 5197TIP3   OH215554   5.070   6.563   1.369 -0.4365 -1.0231  0.0523
 5197TIP3    H115555   5.079   6.655   1.343  2.5453 -1.1463  0.2928
 5197TIP3    H215556   4.976   6.545   1.363 -0.7847  1.0967 -3.1091
 5198TIP3   OH215557   4.933   2.720   4.401 -0.1005 -0.6094 -0.3155
 5198TIP3    H115558   4.962   2.650   4.459 -0.0250 -0.4267 -0.1314
 5198TIP3    H215559   4.894   2.785   4.460  2.9335  1.1495 -0.0438
 5199TIP3   OH215560   5.916   0.169   4.471 -0.2251  0.3285 -0.5910
 5199TIP3    H115561   5.942   0.078   4.459  1.0784  0.7669 -1.2736
 5199TIP3    H215562   5.825   0.164   4.500 -0.2798 -1.1729 -0.9373
 5200TIP3   OH215563   6.212   1.506   4.669 -0.2793 -0.4292 -0.1343
 5200TIP3    H115564   6.179   1.534   4.584 -0.0801  0.3951  0.0475
 5200TIP3    H215565   6.133   1.489   4.721 -0.4403 -2.8134 -1.0324
 5201TIP3   OH215566   0.108   2.603   4.648  0.3915  0.5894 -0.7550
 5201TIP3    H115567   0.098   2.518   4.604 -1.3344 -0.3694  1.3304
 5201TIP3    H215568   0.020   2.638   4.652  0.6313  1.0653  1.0802
 5202TIP3   OH215569   6.335   4.578   4.226 -0.1053  0.2636 -0.0002
 5202TIP3    H115570   6.409   4.521   4.208 -0.0468  0.0978  0.7533
 5202TIP3    H215571   6.333   4.587   4.321 -1.6035 -0.4894  0.0765
 5203TIP3   OH215572   2.521   2.436   5.266  0.4435  0.0782 -0.0473
 5203TIP3    H115573   2.464   2.362   5.246  0.6736 -0.7043  1.9400
 5203TIP3    H215574   2.478   2.480   5.340  1.4388  0.6195  0.2286
 5204TIP3   OH215575   0.934   3.109   0.671 -0.2966  0.2477  0.0893
 5204TIP3    H115576   1.006   3.128   0.612 -0.2879  0.0855  0.0452
 5204TIP3    H215577   0.911   3.193   0.711 -0.0332  0.2839  0.1615
 5205TIP3   OH215578   3.353   1.693   2.645 -0.5189 -0.2009  0.0145
 5205TIP3    H115579   3.417   1.728   2.707 -0.6669  0.2712 -0.0929
 5205TIP3    H215580   3.401   1.629   2.594 -0.1764  0.0272  0.0488
 5206TIP3   OH215581   2.915   2.774   4.985  0.6918  0.2363 -0.1824
 5206TIP3    H115582   2.861   2.751   4.909  0.2692  0.3930  0.0670
 5206TIP3    H215583   2.883   2.859   5.013 -0.1034 -0.4064  0.9947
 5207TIP3   OH215584   2.732   1.623   4.877  0.0053 -0.0840 -0.3898
 5207TIP3    H115585   2.797   1.583   4.936  1.9269  1.3627 -1.3984
 5207TIP3    H215586   2.705   1.551   4.820  1.1544 -0.6140 -0.3007
 5208TIP3   OH215587   0.439   5.028   4.036 -1.0450  0.0128 -0.0580
 5208TIP3    H115588   0.433   5.041   3.942  0.2314 -0.3904 -0.2207
 5208TIP3    H215589   0.530   5.001   4.051 -1.3489 -0.4009  1.2270
 5209TIP3   OH215590   5.386   2.064   0.097 -0.4436 -0.4321  0.1447
 5209TIP3    H115591   5.425   2.106   0.020  1.4276 -0.8066  0.8343
 5209TIP3    H215592   5.320   2.126   0.128 -0.6397  0.0961 -1.2545
 5210TIP3   OH215593   7.187   3.537   2.912  0.2997  0.5978 -0.4425
 5210TIP3    H115594   7.100   3.539   2.952 -0.1548  0.9758 -1.4220
 5210TIP3    H215595   7.171   3.513   2.820  1.3514 -0.6349 -0.3295
 5211TIP3   OH215596   3.657   3.168   2.593  0.7774  0.7399  0.1140
 5211TIP3    H115597   3.590   3.135   2.533  0.1975  0.0964  1.0996
 5211TIP3    H215598   3.740   3.147   2.550  0.3774  1.6403 -1.1695
 5212TIP3   OH215599   6.894   0.967   1.108 -0.9340 -0.4770 -0.3800
 5212TIP3    H115600   6.971   1.012   1.143 -1.5821  0.7738 -0.4829
 5212TIP3    H215601   6.927   0.883   1.077  0.2000 -0.3764  0.4876
 5213TIP3   OH215602   4.087   4.632   4.675 -0.2525 -0.7117 -0.0293
 5213TIP3    H115603   4.180   4.636   4.697 -0.7251 -0.7721  2.1498
 5213TIP3    H215604   4.062   4.542   4.695 -0.4635 -1.1675 -2.1463
 5214TIP3   OH215605   2.525   2.824   4.188  0.1523 -0.1312 -0.2548
 5214TIP3    H115606   2.473   2.893   4.229 -1.1139 -1.0416 -0.2538
 5214TIP3    H215607   2.542   2.762   4.258  0.7443 -0.1384 -0.3983
 5215TIP3   OH215608   1.727   2.296   5.679  0.5989  0.5229  0.3069
 5215TIP3    H115609   1.712   2.203   5.664  0.0085  0.7139 -0.3589
 5215TIP3    H215610   1.789   2.322   5.611  0.9882  0.5579  0.6712
 5216TIP3   OH215611   3.978   5.360   3.036  0.2553  0.0339 -0.3735
 5216TIP3    H115612   3.994   5.385   2.945  0.2650 -0.1318 -0.4168
 5216TIP3    H215613   3.999   5.439   3.086 -3.2992  1.4276 -0.7862
 5217TIP3   OH215614   4.255   0.130   2.170 -0.0369  0.7272 -0.7105
 5217TIP3    H115615   4.331   0.186   2.153  0.9722 -0.7929 -1.3439
 5217TIP3    H215616   4.260   0.112   2.264  0.3458  0.6979 -0.7347
 5218TIP3   OH215617   0.339   1.061   5.394  0.5195 -0.0104 -0.0967
 5218TIP3    H115618   0.315   1.135   5.450  1.7696 -0.0262  0.5001
 5218TIP3    H215619   0.330   0.984   5.450  0.0146 -0.2273 -0.4700
 5219TIP3   OH215620   3.658   1.582   0.863 -0.4509 -0.8273  0.3787
 5219TIP3    H115621   3.694   1.632   0.936 -0.9900  0.7520 -0.4023
 5219TIP3    H215622   3.729   1.523   0.837  0.8173  0.6781  0.2694
 5220TIP3   OH215623   6.032   1.477   3.663  0.5336  0.2526 -0.7876
 5220TIP3    H115624   6.081   1.471   3.745 -1.1106 -2.3637  0.1454
 5220TIP3    H215625   6.089   1.527   3.604  2.0724  1.6086  1.6926
 5221TIP3   OH215626   4.527   0.144   3.516 -0.4014 -1.0054 -0.0094
 5221TIP3    H115627   4.433   0.125   3.514 -0.2508 -1.7574 -0.8402
 5221TIP3    H215628   4.567   0.070   3.469  0.5314 -0.2765 -0.3924
 5222TIP3   OH215629   4.179   5.655   1.090 -0.2102  0.3836 -0.2863
 5222TIP3    H115630   4.249   5.688   1.147 -0.3330 -0.0962  0.1439
 5222TIP3    H215631   4.171   5.563   1.112 -0.3153  0.2054 -1.0318
 5223TIP3   OH215632   5.640   6.379   2.651  0.2903  0.6996 -0.0071
 5223TIP3    H115633   5.574   6.449   2.652 -0.0577  0.3744  1.1722
 5223TIP3    H215634   5.651   6.354   2.743  2.0879  0.7530 -0.1654
 5224TIP3   OH215635   1.545   2.228   0.338  0.2935  0.5138  0.3481
 5224TIP3    H115636   1.591   2.308   0.365  0.5334  0.2762  0.6448
 5224TIP3    H215637   1.465   2.229   0.390 -1.0138  1.9366 -1.5467
 5225TIP3   OH215638   2.171   5.730   5.615  0.6982 -0.4513  0.2104
 5225TIP3    H115639   2.126   5.679   5.682  1.2052 -2.8441 -1.1468
 5225TIP3    H215640   2.231   5.786   5.663  0.2812 -1.2964  1.7955
 5226TIP3   OH215641   6.577   1.293   4.202 -0.1246  0.4435 -0.4077
 5226TIP3    H115642   6.514   1.319   4.134 -0.1695  0.0034 -0.5356
 5226TIP3    H215643   6.526   1.240   4.263  0.2720 -0.4801 -0.8720
 5227TIP3   OH215644   0.300   5.418   2.189  0.0462 -0.2515  0.5079
 5227TIP3    H115645   0.309   5.370   2.271  1.1456 -1.2063 -0.1250
 5227TIP3    H215646   0.279   5.350   2.124 -0.2856  0.4004 -0.0842
 5228TIP3   OH215647   0.584   4.251   2.036  0.2801  0.2575 -0.1418
 5228TIP3    H115648   0.512   4.273   1.978 -0.9414  0.4195  1.3803
 5228TIP3    H215649   0.591   4.155   2.030  0.8639  0.3479 -1.3040
 5229TIP3   OH215650   6.390   5.167   2.791  0.1972  0.2501 -0.0034
 5229TIP3    H115651   6.435   5.212   2.720  2.3013 -2.4783 -0.5661
 5229TIP3    H215652   6.423   5.209   2.871 -0.4989  1.8712 -0.5280
 5230TIP3   OH215653   3.237   5.803   2.720  0.6331 -0.4311 -0.2536
 5230TIP3    H115654   3.292   5.734   2.681 -0.8971 -2.1904  0.5555
 5230TIP3    H215655   3.299   5.858   2.768  1.8985 -1.2461 -0.8923
 5231TIP3   OH215656   2.153   1.382   4.295  0.1538 -0.3869  0.4549
 5231TIP3    H115657   2.245   1.404   4.281  0.5818 -2.1149  0.2850
 5231TIP3    H215658   2.107   1.466   4.291  1.5339  0.3583 -0.8797
 5232TIP3   OH215659   3.730   4.514   3.373 -0.0307  0.1184  0.3072
 5232TIP3    H115660   3.757   4.439   3.425 -1.3015 -2.5361 -2.5863
 5232TIP3    H215661   3.637   4.525   3.394 -0.1827  0.0040 -0.3038
 5233TIP3   OH215662   4.073   0.516   2.627  0.0103  0.6598 -0.1917
 5233TIP3    H115663   4.015   0.540   2.699 -2.1324  0.0580 -1.6074
 5233TIP3    H215664   4.108   0.430   2.652 -0.0686  0.8236  0.4852
 5234TIP3   OH215665   0.939   2.335   1.228  0.1930 -0.0675 -0.9794
 5234TIP3    H115666   0.862   2.284   1.202 -1.0339  1.2334 -0.0142
 5234TIP3    H215667   1.006   2.311   1.164 -1.3835 -0.2896 -2.6206
 5235TIP3   OH215668  -0.000   1.440   0.570  0.2665 -0.7731 -0.5204
 5235TIP3    H115669   0.071   1.501   0.591 -0.4896  0.2270 -0.7939
 5235TIP3    H215670  -0.022   1.459   0.479 -2.1784  0.8957  0.3103
 5236TIP3   OH215671   5.489   1.838   2.604  0.0796  0.0761 -0.1278
 5236TIP3    H115672   5.576   1.802   2.586 -0.0640 -0.0549 -0.5634
 5236TIP3    H215673   5.442   1.830   2.522  0.1500  1.5785 -0.3468
 5237TIP3   OH215674   4.726   3.687   5.051  0.0160 -0.0681 -0.7514
 5237TIP3    H115675   4.660   3.659   5.115 -0.6650 -0.2436 -1.5087
 5237TIP3    H215676   4.685   3.761   5.007  0.7819  0.5173 -0.4941
 5238TIP3   OH215677   3.214   0.725   4.686 -0.1551 -0.0799  0.3223
 5238TIP3    H115678   3.129   0.737   4.643  0.2863 -0.5023 -0.6762
 5238TIP3    H215679   3.273   0.696   4.617  0.5436 -0.8869  1.2252
 5239TIP3   OH215680   5.912   2.871   4.947 -0.0797  0.1324 -0.1935
 5239TIP3    H115681   5.848   2.813   4.906 -2.6608  2.2246  0.6014
 5239TIP3    H215682   5.881   2.959   4.927  3.1694  1.3314 -0.5892
 5240TIP3   OH215683   1.735   3.095   2.482 -0.3421  0.5220 -0.3616
 5240TIP3    H115684   1.709   3.167   2.540 -0.5816  1.9530 -2.1536
 5240TIP3    H215685   1.796   3.136   2.420  0.3943 -1.1009 -0.7510
 5241TIP3   OH215686   3.909   3.897   4.306  0.3875  0.7622  0.0918
 5241TIP3    H115687   3.858   3.953   4.247 -1.3009  0.8245  1.5276
 5241TIP3    H215688   3.968   3.849   4.248  0.2474  2.3079 -1.4163
 5242TIP3   OH215689   2.826   3.741   3.836  0.5765  0.2807  0.0104
 5242TIP3    H115690   2.780   3.737   3.921 -1.7024 -0.1150 -1.1514
 5242TIP3    H215691   2.863   3.829   3.833 -0.0965  0.6188  1.0532
 5243TIP3   OH215692   4.417   0.655   0.051 -0.0573  0.0527  0.3257
 5243TIP3    H115693   4.444   0.612  -0.030  0.2282 -0.6290  0.7813
 5243TIP3    H215694   4.333   0.615   0.072 -0.1567  0.2674  0.3461
 5244TIP3   OH215695   4.578   5.913   3.086  0.0585 -0.3465  0.4708
 5244TIP3    H115696   4.564   5.824   3.118  1.3578  0.0725  2.3800
 5244TIP3    H215697   4.661   5.940   3.126  1.3888  0.5811 -2.6519
 5245TIP3   OH215698   1.486   5.785   0.357 -1.0577  0.0957  0.3934
 5245TIP3    H115699   1.431   5.863   0.349 -0.7141  0.2541 -0.6490
 5245TIP3    H215700   1.474   5.739   0.274 -2.3838 -1.7451  1.5367
 5246TIP3   OH215701   6.295   4.127   3.106 -0.3307 -0.2733 -0.0047
 5246TIP3    H115702   6.346   4.106   3.184 -0.5613  0.6087  0.3952
 5246TIP3    H215703   6.343   4.085   3.034 -0.1146 -1.0892  0.5979
 5247TIP3   OH215704   5.361   6.354   5.738  0.2186 -0.3296 -0.0984
 5247TIP3    H115705   5.423   6.287   5.712  2.5235  1.8009 -0.5012
 5247TIP3    H215706   5.313   6.374   5.658  2.0442  0.9307 -0.9534
 5248TIP3   OH215707   1.491   6.138   0.966  0.5296 -0.3484 -0.0413
 5248TIP3    H115708   1.538   6.097   0.894 -0.5576 -0.5910 -0.6352
 5248TIP3    H215709   1.532   6.103   1.045  0.3322 -1.7558 -0.5345
 5249TIP3   OH215710   1.175   5.673   3.259 -0.2524  0.2603 -0.4674
 5249TIP3    H115711   1.153   5.592   3.212  1.7058 -0.1513 -0.7588
 5249TIP3    H215712   1.130   5.664   3.343  0.4379 -1.4576 -0.2330
 5250TIP3   OH215713   2.229   2.194   5.862  0.2892  0.1219  0.1251
 5250TIP3    H115714   2.306   2.158   5.907  0.6431 -0.1023 -0.6410
 5250TIP3    H215715   2.165   2.123   5.864  0.6565 -0.2369 -0.5737
 5251TIP3   OH215716   0.902   5.618   4.727  0.5921  0.6074 -0.5397
 5251TIP3    H115717   0.830   5.680   4.743  0.3763  0.1483  0.3683
 5251TIP3    H215718   0.874   5.538   4.771  2.1552  0.7668  0.8575
 5252TIP3   OH215719   4.121   5.675   0.602 -0.4459 -0.1850  0.3714
 5252TIP3    H115720   4.161   5.746   0.552 -1.5174 -0.6216 -1.1719
 5252TIP3    H215721   4.099   5.714   0.687  2.1329  0.3635  0.8762
 5253TIP3   OH215722   4.208   4.678   0.823  0.4380  0.5497  0.4437
 5253TIP3    H115723   4.120   4.666   0.785  0.3568  1.5231  0.3118
 5253TIP3    H215724   4.260   4.608   0.783  0.0856  0.8817 -0.6508
 5254TIP3   OH215725   0.645   6.516   0.809  0.0416  0.0987 -0.2366
 5254TIP3    H115726   0.565   6.493   0.855  0.3812  0.1880  0.4099
 5254TIP3    H215727   0.618   6.530   0.718 -1.1980  2.9112  0.4717
 5255TIP3   OH215728   3.756   5.467   3.163 -0.4868 -0.0770 -0.3859
 5255TIP3    H115729   3.818   5.421   3.107 -1.2195  0.0188 -1.2892
 5255TIP3    H215730   3.682   5.487   3.106 -0.0436  2.5714 -0.1583
 5256TIP3   OH215731   4.615   0.137   2.765  0.5849  0.5506  0.0769
 5256TIP3    H115732   4.680   0.207   2.778  1.1267  0.4491 -1.7462
 5256TIP3    H215733   4.586   0.149   2.674  1.2389 -1.9954 -0.5444
 5257TIP3   OH215734   3.850   2.650   4.898  0.3080  0.0779  0.2373
 5257TIP3    H115735   3.855   2.728   4.843  0.8312 -0.6593 -0.7979
 5257TIP3    H215736   3.756   2.636   4.912 -0.0177 -1.0198 -2.4362
 5258TIP3   OH215737   4.205   4.792   0.005 -0.1260 -0.3142 -0.1839
 5258TIP3    H115738   4.279   4.805   0.064  0.6397  1.2040 -1.3943
 5258TIP3    H215739   4.129   4.792   0.062  0.6522  0.1891  0.8985
 5259TIP3   OH215740   1.715   1.220   4.633  0.0108  0.0025  0.2966
 5259TIP3    H115741   1.725   1.134   4.675  0.1099 -0.0266  0.2112
 5259TIP3    H215742   1.758   1.211   4.549  0.0937  0.1628  0.3218
 5260TIP3   OH215743   6.419   0.785   5.546 -0.2581 -0.3938  0.1906
 5260TIP3    H115744   6.352   0.722   5.522  1.1843 -1.5702 -0.9163
 5260TIP3    H215745   6.431   0.838   5.467 -0.2169  0.1456  0.5502
 5261TIP3   OH215746   4.355   2.788   2.960  0.1294 -0.3805 -0.1314
 5261TIP3    H115747   4.286   2.812   3.022 -0.2235  0.3793 -0.8082
 5261TIP3    H215748   4.437   2.809   3.007 -0.1154 -0.3691  0.2999
 5262TIP3   OH215749   1.741   3.806   0.570  0.7293  0.0692 -0.1812
 5262TIP3    H115750   1.711   3.891   0.541 -2.5184 -0.8127  0.2602
 5262TIP3    H215751   1.733   3.750   0.492  0.9195 -0.2898  0.0545
 5263TIP3   OH215752   2.919   0.607   1.970  0.2544 -0.0199  0.3127
 5263TIP3    H115753   2.833   0.566   1.979 -0.3396  0.9735 -0.6828
 5263TIP3    H215754   2.946   0.586   1.880  1.8920 -1.8455  1.1427
 5264TIP3   OH215755   1.621   4.062   5.340 -0.2255  0.2187 -0.5655
 5264TIP3    H115756   1.671   3.985   5.312  0.4285  0.3718  0.1370
 5264TIP3    H215757   1.680   4.136   5.329 -0.1330  0.3523  0.6405
 5265TIP3   OH215758   4.482   2.119   2.299 -0.5515 -0.2224 -0.4929
 5265TIP3    H115759   4.524   2.125   2.385  1.9966  1.0541 -1.7177
 5265TIP3    H215760   4.397   2.078   2.317  0.6407 -1.7412  2.3400
 5266TIP3   OH215761   2.796   2.745   2.954 -0.6493  0.4783 -0.1165
 5266TIP3    H115762   2.706   2.764   2.979 -0.3389  0.5035  1.0320
 5266TIP3    H215763   2.839   2.831   2.953 -0.9146  0.6455 -1.9602
 5267TIP3   OH215764   6.368   3.804   5.764  0.3411  0.1457 -0.0992
 5267TIP3    H115765   6.332   3.823   5.850  1.6667  0.0289  0.5052
 5267TIP3    H215766   6.447   3.857   5.758  0.1073  0.3903 -1.3827
 5268TIP3   OH215767   2.252   5.822   2.286 -0.4635  0.5464 -0.1673
 5268TIP3    H115768   2.239   5.880   2.361  0.2358  0.1800  0.2388
 5268TIP3    H215769   2.343   5.836   2.260  0.5129 -2.0991  1.4551
 5269TIP3   OH215770   0.411   4.644   0.937 -0.0269 -0.0414  0.2602
 5269TIP3    H115771   0.503   4.618   0.947 -0.3802 -1.1756  0.7905
 5269TIP3    H215772   0.383   4.664   1.026 -0.0482  1.2643 -0.0178
 5270TIP3   OH215773   5.358   6.199   2.338 -0.2130  0.9179  0.3472
 5270TIP3    H115774   5.357   6.149   2.420  0.3895  0.8791  0.3410
 5270TIP3    H215775   5.323   6.139   2.272 -0.1817  0.7542  0.4773
 5271TIP3   OH215776   1.944   3.719   0.950 -0.0074  0.3611  0.7528
 5271TIP3    H115777   1.928   3.760   0.865 -0.2923  0.2496  0.7517
 5271TIP3    H215778   1.968   3.629   0.930 -1.4217 -0.0561  0.8463
 5272TIP3   OH215779   6.621   1.177   3.886 -0.2883  0.0918  0.6229
 5272TIP3    H115780   6.574   1.130   3.954 -0.9766  1.7959  1.3692
 5272TIP3    H215781   6.695   1.217   3.931 -0.3000  0.5866  0.2133
 5273TIP3   OH215782   0.892   3.697   3.320 -0.0753  0.1926  0.1707
 5273TIP3    H115783   0.821   3.692   3.257  0.4410  0.1113 -0.4107
 5273TIP3    H215784   0.890   3.788   3.352 -0.6037  0.1164  0.3592
 5274TIP3   OH215785   6.890   1.758   0.110 -0.2175 -0.5389  0.3838
 5274TIP3    H115786   6.967   1.725   0.063  0.3260  1.0511  0.0649
 5274TIP3    H215787   6.920   1.767   0.201  0.2564  0.7486  0.1342
 5275TIP3   OH215788   3.185   6.810   0.167 -0.7699 -0.6254  0.0530
 5275TIP3    H115789   3.275   6.840   0.162 -0.6973 -0.9563 -0.7719
 5275TIP3    H215790   3.192   6.714   0.171 -1.0927 -0.6666 -0.3037
 5276TIP3   OH215791   4.472   2.834   4.183  0.3388  0.2867 -0.4579
 5276TIP3    H115792   4.500   2.915   4.141 -1.0544  0.5746 -0.8812
 5276TIP3    H215793   4.466   2.771   4.112 -1.8263  0.7216 -0.7335
 5277TIP3   OH215794   3.671   5.281   5.422 -0.2825  0.0576 -0.4061
 5277TIP3    H115795   3.753   5.296   5.374  0.5151 -1.0548  0.5469
 5277TIP3    H215796   3.624   5.216   5.370  0.2962 -0.6758 -0.0383
 5278TIP3   OH215797   5.217   6.267   4.753 -0.4557 -0.0574  0.2002
 5278TIP3    H115798   5.203   6.359   4.776  1.3340  0.2599  0.1806
 5278TIP3    H215799   5.289   6.270   4.690  0.2220 -1.5357  0.8707
 5279TIP3   OH215800   3.483   0.742   3.075 -0.1547  0.4073  0.1826
 5279TIP3    H115801   3.546   0.685   3.030  1.0393  1.8289 -0.0376
 5279TIP3    H215802   3.419   0.764   3.008 -0.1407  0.0151  0.0368
 5280TIP3   OH215803   7.011   4.859   1.423 -0.5476  0.2437 -0.1744
 5280TIP3    H115804   7.092   4.875   1.470 -1.6434 -0.4313  2.1031
 5280TIP3    H215805   6.998   4.938   1.370  1.3177  0.5522 -0.2419
 5281TIP3   OH215806   4.620   2.565   3.745 -0.2270  0.3051 -0.3033
 5281TIP3    H115807   4.710   2.575   3.775 -0.3223  1.6391 -0.3888
 5281TIP3    H215808   4.625   2.574   3.650 -0.4194  0.1063 -0.3330
 5282TIP3   OH215809   2.804   1.659   2.686  0.2580  0.2066  0.7560
 5282TIP3    H115810   2.893   1.680   2.714  0.8198 -2.1636  0.9265
 5282TIP3    H215811   2.748   1.691   2.756  0.9996  1.1955  0.9194
 5283TIP3   OH215812   4.889   6.117   4.063  0.1160 -0.4852 -0.3326
 5283TIP3    H115813   4.904   6.208   4.036  0.7600 -0.3873  0.3261
 5283TIP3    H215814   4.796   6.102   4.043 -0.3675  0.7597  0.7788
 5284TIP3   OH215815   4.176   2.159   0.806 -0.2212  0.1648 -0.7325
 5284TIP3    H115816   4.186   2.241   0.855 -0.5312  0.5714 -1.3423
 5284TIP3    H215817   4.087   2.131   0.824 -0.0429 -0.1579 -0.3451
 5285TIP3   OH215818   6.462   5.216   5.175 -0.0963 -0.3591 -0.1647
 5285TIP3    H115819   6.367   5.215   5.176 -0.0929 -0.5613  0.5563
 5285TIP3    H215820   6.488   5.125   5.191  0.2028 -0.1054  0.9245
 5286TIP3   OH215821   1.876   3.278   4.366  0.2611  0.1749  0.1760
 5286TIP3    H115822   1.907   3.342   4.302 -0.2567 -0.3998 -0.6644
 5286TIP3    H215823   1.834   3.331   4.434 -0.8155  0.7012 -0.8629
 5287TIP3   OH215824   5.637   4.410   3.301 -0.1808  0.0744 -0.1269
 5287TIP3    H115825   5.732   4.396   3.290 -0.1978  0.7047 -1.2793
 5287TIP3    H215826   5.597   4.339   3.250 -0.2962  0.7274 -0.9823
 5288TIP3   OH215827   6.070   0.593   0.002 -0.2491  0.3265  0.2452
 5288TIP3    H115828   6.066   0.638   0.087 -1.3383  1.2098 -0.2479
 5288TIP3    H215829   6.103   0.659  -0.058 -0.7934  0.1402 -0.2734
 5289TIP3   OH215830   2.896   1.261   3.162 -0.4172  0.6064  0.1732
 5289TIP3    H115831   2.946   1.316   3.221 -1.9959  1.4046  0.8418
 5289TIP3    H215832   2.852   1.198   3.219 -0.1040 -0.1395 -0.3975
 5290TIP3   OH215833   6.468   2.330   0.164  0.2363 -0.8361  0.0319
 5290TIP3    H115834   6.459   2.391   0.091  0.9959  0.5301  1.0311
 5290TIP3    H215835   6.481   2.245   0.123  0.9032 -0.0597 -1.4345
 5291TIP3   OH215836   0.453   5.258   1.033  0.3838 -0.5318  0.6041
 5291TIP3    H115837   0.518   5.282   1.099  2.0033 -0.7095 -0.8490
 5291TIP3    H215838   0.371   5.248   1.082  1.1585  0.9447  2.3074
 5292TIP3   OH215839   3.919   4.269   1.164  0.0472  0.5044  0.4074
 5292TIP3    H115840   3.833   4.289   1.128  0.9839  1.9642 -1.1834
 5292TIP3    H215841   3.977   4.266   1.087  1.8785  2.2227  1.6227
 5293TIP3   OH215842   5.386   6.266   0.456 -0.5714 -0.3937  0.1127
 5293TIP3    H115843   5.441   6.200   0.499 -3.0276 -1.6843  1.5098
 5293TIP3    H215844   5.386   6.241   0.364  1.2906 -0.2278  0.0425
 5294TIP3   OH215845   6.280   4.666   3.438  0.1752  0.1297 -0.3252
 5294TIP3    H115846   6.263   4.758   3.419 -0.5831  0.2935  1.0904
 5294TIP3    H215847   6.234   4.618   3.369  1.7341  0.7932 -1.9250
 5295TIP3   OH215848   3.248   1.283   3.592  0.5322  0.1009  0.5788
 5295TIP3    H115849   3.333   1.250   3.562 -0.5432 -1.2419 -1.2667
 5295TIP3    H215850   3.234   1.241   3.676  0.3915 -2.1749 -0.5080
 5296TIP3   OH215851   4.905   2.303   4.455  0.0359 -0.1422 -0.0597
 5296TIP3    H115852   4.841   2.374   4.444  1.7097  1.1671 -2.0124
 5296TIP3    H215853   4.963   2.335   4.524  1.0919  0.6675 -1.2945
 5297TIP3   OH215854   0.278   3.677   4.282  0.0168  0.4704 -0.0593
 5297TIP3    H115855   0.289   3.753   4.339 -0.7128 -0.4273  1.3356
 5297TIP3    H215856   0.347   3.617   4.310 -1.6480 -0.8523  1.4287
 5298TIP3   OH215857   6.622   6.305   1.702  0.1253  0.0301 -0.0244
 5298TIP3    H115858   6.684   6.280   1.770 -0.2929  0.8798  0.6832
 5298TIP3    H215859   6.574   6.379   1.739 -0.7508 -0.0939 -0.8816
 5299TIP3   OH215860   1.762   3.657   3.623 -0.3896 -0.1987 -0.1805
 5299TIP3    H115861   1.854   3.662   3.649 -0.3998 -0.5873 -0.0780
 5299TIP3    H215862   1.720   3.731   3.668 -0.7379 -1.7917  2.2470
 5300TIP3   OH215863   1.046   5.543   3.721 -0.5975 -0.1185  0.9759
 5300TIP3    H115864   1.045   5.577   3.631 -2.1981 -2.2937  0.0848
 5300TIP3    H215865   1.127   5.577   3.759  0.0878  0.9136 -1.2605
 5301TIP3   OH215866   6.322   4.838   2.259 -0.1296  0.0632 -0.4217
 5301TIP3    H115867   6.359   4.925   2.273  0.3374 -0.1746 -0.1336
 5301TIP3    H215868   6.259   4.827   2.330  1.0573 -0.4982  0.5957
 5302TIP3   OH215869   2.882   1.769   3.152 -0.3927 -0.0044 -0.0361
 5302TIP3    H115870   2.974   1.750   3.135 -0.3799  0.5928 -0.6607
 5302TIP3    H215871   2.878   1.864   3.162 -0.4741 -0.2292  2.9292
 5303TIP3   OH215872   2.970   4.748   5.219  0.0421  0.2730  0.1649
 5303TIP3    H115873   3.009   4.828   5.254 -0.1123  0.1895  0.5227
 5303TIP3    H215874   3.030   4.722   5.148 -0.4617  1.2801 -0.6584
 5304TIP3   OH215875   5.893   5.447   1.235  0.0946 -0.5973 -0.0557
 5304TIP3    H115876   5.829   5.513   1.264 -0.6200 -1.7746  1.1888
 5304TIP3    H215877   5.968   5.498   1.204 -0.2127  0.8051  1.3676
 5305TIP3   OH215878   3.698   3.766   3.385 -0.0490  0.3979  0.2729
 5305TIP3    H115879   3.735   3.852   3.405  0.8511  0.1077 -0.0775
 5305TIP3    H215880   3.742   3.740   3.304 -0.5606 -0.2499  0.1998
 5306TIP3   OH215881   5.869   2.504   3.554 -0.6578  0.2777  0.2195
 5306TIP3    H115882   5.809   2.529   3.484 -1.6378  0.1373  0.9865
 5306TIP3    H215883   5.826   2.431   3.599  0.3160 -0.1508  0.4850
 5307TIP3   OH215884   3.307   4.667   1.084  0.6139 -0.1128  0.1318
 5307TIP3    H115885   3.214   4.689   1.076  0.5662  0.0291  0.9854
 5307TIP3    H215886   3.336   4.714   1.162  1.1930 -0.8316  0.3591
 5308TIP3   OH215887   3.033   3.979   4.220 -0.3283  0.2132 -0.1161
 5308TIP3    H115888   2.985   4.058   4.196  0.9330  1.6519  1.8067
 5308TIP3    H215889   3.122   3.995   4.189  0.1798  0.0218  1.2084
 5309TIP3   OH215890   4.763   4.957   2.013  0.0743 -0.2945  0.3094
 5309TIP3    H115891   4.759   4.862   2.005  0.9449 -0.3920  0.8978
 5309TIP3    H215892   4.721   4.976   2.097 -0.9299 -0.0672 -0.2300
 5310TIP3   OH215893   4.628   2.862   1.740 -0.1509  0.0538  0.0313
 5310TIP3    H115894   4.550   2.807   1.747 -1.6748  1.6178 -2.8210
 5310TIP3    H215895   4.614   2.931   1.805 -1.1533  0.2930 -0.4179
 5311TIP3   OH215896   3.291   0.704   1.019  0.3477 -0.0633 -0.3080
 5311TIP3    H115897   3.360   0.705   0.953 -0.5875 -0.0069 -1.3164
 5311TIP3    H215898   3.315   0.632   1.077  0.3271 -1.2507 -1.7010
 5312TIP3   OH215899   4.351   3.843   5.743  0.1098  0.0927 -0.0429
 5312TIP3    H115900   4.313   3.757   5.757  1.1229 -0.5890 -1.2436
 5312TIP3    H215901   4.287   3.905   5.778 -0.1721 -1.1694  1.7921
 5313TIP3   OH215902   5.481   3.154   1.035  0.0154  0.3431 -0.1755
 5313TIP3    H115903   5.453   3.175   1.124  1.1228  0.4160  0.1680
 5313TIP3    H215904   5.482   3.058   1.032  1.5333  0.3068  0.4307
 5314TIP3   OH215905   6.867   2.605   3.280  0.0413 -0.1004 -0.2129
 5314TIP3    H115906   6.910   2.546   3.219  0.3737  1.1369 -1.2154
 5314TIP3    H215907   6.803   2.653   3.226 -1.6226 -0.8947  0.9570
 5315TIP3   OH215908   5.713   6.409   5.615  0.6567 -0.4220  0.9219
 5315TIP3    H115909   5.651   6.341   5.643  0.3931 -0.7823 -0.4692
 5315TIP3    H215910   5.751   6.374   5.535  0.9320  0.8417  0.4883
 5316TIP3   OH215911   6.127   5.390   4.396 -0.1873 -0.2963  0.6305
 5316TIP3    H115912   6.074   5.466   4.418  1.8695  1.1660  0.7792
 5316TIP3    H215913   6.175   5.370   4.476  0.7559 -0.5015  0.0332
 5317TIP3   OH215914   6.396   2.083   3.586 -0.1903  0.2954  0.1940
 5317TIP3    H115915   6.448   2.005   3.565  0.7563  0.5639  1.4004
 5317TIP3    H215916   6.438   2.154   3.538  0.7877  0.5636  1.3866
 5318TIP3   OH215917   6.496   0.967   5.734  0.0446 -0.0024  0.1797
 5318TIP3    H115918   6.454   0.974   5.819  0.1445  1.7717  0.1223
 5318TIP3    H215919   6.456   0.890   5.693 -1.2712  0.1571  1.1198
 5319TIP3   OH215920   2.972   4.315   1.138  0.1759 -0.1570  0.6540
 5319TIP3    H115921   2.915   4.335   1.212  0.6777 -0.2827  1.0814
 5319TIP3    H215922   3.049   4.369   1.151  1.2307 -1.7571  1.4261
 5320TIP3   OH215923   6.694   1.361   3.690 -0.0952 -0.3689 -0.2654
 5320TIP3    H115924   6.786   1.343   3.671 -0.1007 -0.0157 -0.6589
 5320TIP3    H215925   6.665   1.288   3.744  0.1691 -0.9708 -0.9168
 5321TIP3   OH215926   4.906   6.512   4.877 -0.5511 -0.3603 -0.4396
 5321TIP3    H115927   4.957   6.536   4.800 -0.3268 -0.5587 -0.3559
 5321TIP3    H215928   4.845   6.445   4.847 -3.0433  2.1198 -1.3096
 5322TIP3   OH215929   5.213   2.313   0.789 -0.0111 -0.9164  0.0120
 5322TIP3    H115930   5.286   2.370   0.764 -0.2064 -1.6907 -2.5191
 5322TIP3    H215931   5.145   2.374   0.819  0.3450  0.1031 -1.1664
 5323TIP3   OH215932   0.067   1.324   4.248 -0.6383  0.2240  0.1071
 5323TIP3    H115933   0.159   1.324   4.272 -0.3379  0.7364 -0.9873
 5323TIP3    H215934   0.023   1.283   4.322  0.4025  0.4561  0.8709
 5324TIP3   OH215935   2.256   4.331   0.016 -0.7078 -0.5947 -0.4523
 5324TIP3    H115936   2.229   4.408   0.066 -2.0125 -2.1142  1.3281
 5324TIP3    H215937   2.298   4.274   0.081 -0.8025 -1.8648 -1.4649
 5325TIP3   OH215938   1.785   2.745   5.443  0.1699 -0.1808 -0.5165
 5325TIP3    H115939   1.800   2.840   5.449 -0.9845 -0.0521  0.7848
 5325TIP3    H215940   1.754   2.720   5.530 -1.8443 -1.3192 -1.4974
 5326TIP3   OH215941   1.302   2.225   0.458  0.4555  0.0290  0.0736
 5326TIP3    H115942   1.259   2.141   0.449 -2.8363  1.3381  1.7537
 5326TIP3    H215943   1.322   2.232   0.551  3.6067 -0.0622 -0.4789
 5327TIP3   OH215944   1.081   3.875   1.275  0.2159 -0.1069  0.4681
 5327TIP3    H115945   1.156   3.915   1.232 -0.4497  0.7548  0.0922
 5327TIP3    H215946   1.080   3.785   1.243  1.4268 -0.3070  0.9320
 5328TIP3   OH215947   2.841   3.648   0.306 -0.1296 -0.1828  0.1060
 5328TIP3    H115948   2.745   3.653   0.305 -0.1657 -0.6053 -1.4913
 5328TIP3    H215949   2.868   3.710   0.238  0.9143  2.2359  2.5665
 5329TIP3   OH215950   6.108   4.534   4.853  0.2105  0.4138 -0.3278
 5329TIP3    H115951   6.169   4.515   4.924 -0.0531  1.0452  0.0788
 5329TIP3    H215952   6.095   4.450   4.809  0.0953 -0.0578  0.5960
 5330TIP3   OH215953   4.266   5.278   5.681 -0.4152 -0.3062  0.0742
 5330TIP3    H115954   4.325   5.291   5.606  1.1101 -0.6900  1.1510
 5330TIP3    H215955   4.283   5.354   5.737 -1.2717 -0.2111  0.2119
 5331TIP3   OH215956   5.578   6.120   1.527  0.0768  0.0439  0.0316
 5331TIP3    H115957   5.661   6.095   1.566  0.0063  1.1390  0.9384
 5331TIP3    H215958   5.523   6.147   1.601 -0.9611 -0.3243 -0.5850
 5332TIP3   OH215959   3.192   5.274   5.152 -0.0783  0.3188  0.2565
 5332TIP3    H115960   3.257   5.344   5.159  2.3717 -1.8919  1.8214
 5332TIP3    H215961   3.243   5.197   5.127 -2.2392 -1.4082  0.8847
 5333TIP3   OH215962   6.744   3.675   2.633 -0.2142 -0.2833 -0.0529
 5333TIP3    H115963   6.791   3.597   2.662  0.8100 -0.3002 -1.6452
 5333TIP3    H215964   6.769   3.685   2.541  0.6595  2.6337  0.4133
 5334TIP3   OH215965   1.496   6.281   0.668 -0.3249 -0.1023  0.1570
 5334TIP3    H115966   1.577   6.232   0.681 -0.7187 -0.8289 -0.0523
 5334TIP3    H215967   1.524   6.364   0.629  0.2804 -0.5537 -0.3997
 5335TIP3   OH215968   2.838   0.741   1.674  0.0563 -0.0442  0.1349
 5335TIP3    H115969   2.806   0.830   1.657  0.7415  0.2152  0.1450
 5335TIP3    H215970   2.766   0.684   1.649  0.0578  0.4564 -1.0879
 5336TIP3   OH215971   0.156   6.574   1.119  0.3686 -0.5536 -0.5175
 5336TIP3    H115972   0.192   6.575   1.207  1.1757  2.0557 -0.7848
 5336TIP3    H215973   0.231   6.593   1.062 -0.4767 -0.2626 -1.5746
 5337TIP3   OH215974   5.296   4.842   0.698 -0.5358 -0.0453  0.3073
 5337TIP3    H115975   5.367   4.803   0.749 -0.3635  0.6121  0.5799
 5337TIP3    H215976   5.337   4.916   0.652 -0.9649  0.1264  0.1911
 5338TIP3   OH215977   6.799   6.183   2.197 -0.5320 -0.1225  0.2328
 5338TIP3    H115978   6.776   6.122   2.267 -1.1823 -2.5774 -1.9801
 5338TIP3    H215979   6.892   6.169   2.182 -0.6437 -0.4611 -0.1584
 5339TIP3   OH215980   4.525   6.343   4.613 -0.0342  0.4356 -0.1934
 5339TIP3    H115981   4.474   6.297   4.680  0.7552 -0.2145 -0.0261
 5339TIP3    H215982   4.560   6.420   4.658  1.3812 -0.5492  0.4850
 5340TIP3   OH215983   0.809   2.047   1.645 -0.1505  0.0769 -0.5986
 5340TIP3    H115984   0.816   2.122   1.704 -0.4255 -0.0636 -0.3836
 5340TIP3    H215985   0.883   1.991   1.669 -0.3016 -0.0135 -0.3344
 5341TIP3   OH215986   3.378   1.342   1.393  0.2117 -0.1513 -0.5724
 5341TIP3    H115987   3.287   1.358   1.368  0.1335 -0.1869 -0.3153
 5341TIP3    H215988   3.382   1.247   1.406  0.5014 -0.2592 -1.4299
 5342TIP3   OH215989   2.368   1.149   0.115 -0.1821 -0.0439 -0.2205
 5342TIP3    H115990   2.314   1.152   0.036  0.1215  0.3815 -0.4125
 5342TIP3    H215991   2.361   1.237   0.152  2.2368  0.7521 -1.4927
 5343TIP3   OH215992   6.523   5.816   2.119 -0.0342  0.1495 -1.0645
 5343TIP3    H115993   6.507   5.729   2.155  2.4808  0.3765  0.9830
 5343TIP3    H215994   6.530   5.872   2.197  1.6198  1.5067 -2.1319
 5344TIP3   OH215995   0.311   5.675   1.854 -0.3261 -0.2792 -0.3544
 5344TIP3    H115996   0.353   5.680   1.940 -1.4661 -0.5228  0.2326
 5344TIP3    H215997   0.382   5.648   1.795  0.4681 -0.1499  0.5048
 5345TIP3   OH215998   6.549   2.983   0.395 -0.4625 -0.4091 -0.2124
 5345TIP3    H115999   6.574   2.980   0.487 -1.0143 -0.4882 -0.0639
 5345TIP3    H216000   6.622   3.029   0.352  0.2468 -1.2252  0.1028
 5346TIP3   OH216001   1.719   2.372   5.365 -0.2942 -0.4081  0.1079
 5346TIP3    H116002   1.732   2.418   5.282 -3.7122  0.6727  0.0182
 5346TIP3    H216003   1.730   2.440   5.431  0.5812 -0.8552  0.4353
 5347TIP3   OH216004   4.007   4.345   2.468 -0.1912 -0.0509  0.0170
 5347TIP3    H116005   4.015   4.257   2.504  2.2432  0.4121  0.7440
 5347TIP3    H216006   3.991   4.331   2.374 -0.5415 -1.2471  0.2408
 5348TIP3   OH216007   0.537   5.547   5.126  0.0485  0.3885  0.2243
 5348TIP3    H116008   0.448   5.514   5.130 -0.0735 -0.2450 -3.7230
 5348TIP3    H216009   0.592   5.469   5.123  0.2576  0.5566 -2.4832
 5349TIP3   OH216010   4.813   1.918   4.585  0.0941 -0.3186 -0.2176
 5349TIP3    H116011   4.731   1.900   4.539  0.2824 -0.0256 -0.6751
 5349TIP3    H216012   4.805   2.009   4.614 -0.3828 -0.7545  1.0977
 5350TIP3   OH216013   2.951   1.733   5.307  0.4326  0.7582  0.5713
 5350TIP3    H116014   3.012   1.801   5.277  0.7245 -0.4546 -1.8073
 5350TIP3    H216015   2.877   1.740   5.247 -0.3006  0.0474  1.3693
 5351TIP3   OH216016   6.667   4.624   2.485 -0.3281 -0.4596  0.1663
 5351TIP3    H116017   6.633   4.583   2.406  2.4799 -2.3139 -0.2007
 5351TIP3    H216018   6.654   4.558   2.554 -0.1377 -0.0238  0.6285
 5352TIP3   OH216019   2.227   5.733   0.082 -0.0531 -0.2786  0.2939
 5352TIP3    H116020   2.318   5.756   0.062  0.2200 -1.4442  0.0990
 5352TIP3    H216021   2.210   5.774   0.167  0.4572  0.4319  0.0690
 5353TIP3   OH216022   3.571   5.585   2.760  0.4186  0.5305 -0.0815
 5353TIP3    H116023   3.666   5.572   2.753  0.1720 -2.3670  0.7081
 5353TIP3    H216024   3.554   5.583   2.854 -0.5181  0.1857 -0.2462
 5354TIP3   OH216025   1.145   4.403   5.829 -0.1959  0.3879  0.4452
 5354TIP3    H116026   1.191   4.435   5.907  0.3522 -0.9238  0.6793
 5354TIP3    H216027   1.076   4.346   5.863 -0.5548  0.5395 -0.0074
 5355TIP3   OH216028   6.876   2.504   1.555  0.0851  0.2979  0.5049
 5355TIP3    H116029   6.963   2.518   1.516 -0.9601  1.4719 -1.5867
 5355TIP3    H216030   6.893   2.447   1.629  2.4269 -1.0898 -0.9445
 5356TIP3   OH216031   1.726   4.625   0.098  0.5233 -0.0821 -0.9249
 5356TIP3    H116032   1.813   4.666   0.093  0.3582  0.4966  0.2915
 5356TIP3    H216033   1.675   4.687   0.151  0.2975 -1.9155  1.1196
 5357TIP3   OH216034   2.994   3.043   3.991  0.0625 -0.6247  0.6089
 5357TIP3    H116035   2.977   2.985   4.065  0.2277 -0.9372  0.4015
 5357TIP3    H216036   2.969   2.992   3.914  2.8225 -1.5005  0.1902
 5358TIP3   OH216037   5.680   1.670   1.688  0.3741  0.4490 -0.1818
 5358TIP3    H116038   5.593   1.650   1.653  1.4940 -2.1810 -1.7455
 5358TIP3    H216039   5.708   1.748   1.639 -0.9564  1.1790  0.1735
 5359TIP3   OH216040   6.514   0.952   0.427 -0.2153 -0.4710 -0.3608
 5359TIP3    H116041   6.444   1.008   0.461  0.3540 -0.8637  1.5932
 5359TIP3    H216042   6.550   1.001   0.354 -1.7781  0.2601 -0.6923
 5360TIP3   OH216043   5.994   4.202   5.409  0.2883  0.3033 -0.3900
 5360TIP3    H116044   6.051   4.132   5.376  0.0255 -0.1597  0.1216
 5360TIP3    H216045   5.912   4.192   5.360  0.5808  0.8605 -1.0024
 5361TIP3   OH216046   4.780   3.304   4.426 -0.1682 -0.0850 -0.4687
 5361TIP3    H116047   4.706   3.338   4.376 -1.0299 -0.8634  0.2321
 5361TIP3    H216048   4.797   3.370   4.493 -0.0446  0.2303 -0.8127
 5362TIP3   OH216049   1.112   0.891   0.574  0.1234  0.4142  0.0963
 5362TIP3    H116050   1.155   0.814   0.537 -0.9436  0.3763 -1.1348
 5362TIP3    H216051   1.026   0.893   0.531 -0.4157  1.4786  1.1776
 5363TIP3   OH216052   6.164   4.659   5.182 -0.3979 -0.4701 -0.1697
 5363TIP3    H116053   6.184   4.576   5.225 -0.0683 -0.7055 -0.7599
 5363TIP3    H216054   6.075   4.680   5.210 -0.2168 -0.6579  0.5510
 5364TIP3   OH216055   5.499   4.159   1.768  0.8548  0.4367 -0.5056
 5364TIP3    H116056   5.502   4.254   1.758  1.2007  0.3854 -0.9567
 5364TIP3    H216057   5.424   4.143   1.824 -0.1562  0.8948 -1.6678
 5365TIP3   OH216058   5.980   1.093   0.778 -0.0160 -0.2565 -0.6913
 5365TIP3    H116059   5.903   1.065   0.728  0.4496 -0.4309 -1.3194
 5365TIP3    H216060   6.051   1.039   0.745  0.0957 -1.2193  0.9898
 5366TIP3   OH216061   3.567   5.532   5.139 -0.5403 -0.4086 -0.7349
 5366TIP3    H116062   3.604   5.587   5.070  0.1506  0.5737  0.3924
 5366TIP3    H216063   3.586   5.442   5.110 -0.2087 -0.0109 -1.7866
 5367TIP3   OH216064   3.593   1.768   1.642 -0.0857 -0.2936  0.3587
 5367TIP3    H116065   3.562   1.859   1.649 -2.2971 -0.8014 -1.4353
 5367TIP3    H216066   3.537   1.719   1.703  0.2732 -0.6178  0.4298
 5368TIP3   OH216067   4.006   2.246   4.510  0.1192  0.2382  0.5856
 5368TIP3    H116068   3.940   2.177   4.505  1.4516 -1.1503  1.1552
 5368TIP3    H216069   3.962   2.319   4.554 -1.3374 -0.2248 -0.0643
 5369TIP3   OH216070   5.297   0.824   1.782 -0.3124 -0.3904  0.0558
 5369TIP3    H116071   5.213   0.868   1.796 -0.1767  0.2030 -0.9241
 5369TIP3    H216072   5.316   0.837   1.689  1.7450  1.0445  0.6121
 5370TIP3   OH216073   2.080   3.421   3.925 -0.3108 -0.5827 -0.0091
 5370TIP3    H116074   2.063   3.330   3.950 -1.7959 -1.4374 -3.5495
 5370TIP3    H216075   2.171   3.436   3.948  0.0109 -3.0234  0.5076
 5371TIP3   OH216076   0.398   1.745   2.482 -0.4975 -0.1324  0.3757
 5371TIP3    H116077   0.333   1.765   2.415 -0.4163 -0.5580  0.1649
 5371TIP3    H216078   0.347   1.719   2.559 -0.6178  1.1517  0.7644
 5372TIP3   OH216079   0.085   3.941   0.411 -0.1732 -0.2825  0.0306
 5372TIP3    H116080   0.143   4.015   0.429 -1.0211  0.9985 -2.0334
 5372TIP3    H216081   0.103   3.919   0.320 -0.6170 -2.0349  0.3396
 5373TIP3   OH216082   2.787   1.716   0.249  0.0708 -0.2913 -0.8437
 5373TIP3    H116083   2.813   1.789   0.305  0.0760 -1.0746  0.2060
 5373TIP3    H216084   2.794   1.751   0.160 -0.6254  1.1939 -0.3486
 5374TIP3   OH216085   4.597   2.127   3.246  0.4084  0.2976 -0.3752
 5374TIP3    H116086   4.687   2.158   3.257  0.3951  0.3557 -0.4293
 5374TIP3    H216087   4.607   2.040   3.207  0.4218  0.6368 -1.1562
 5375TIP3   OH216088   2.816   1.651   1.311  0.3613  0.2475  0.0095
 5375TIP3    H116089   2.876   1.576   1.316  0.6477  0.5350  1.6267
 5375TIP3    H216090   2.806   1.669   1.218  2.0936 -0.3856 -0.3275
 5376TIP3   OH216091   2.634   3.350   1.363 -0.4079  0.0124  0.0234
 5376TIP3    H116092   2.622   3.436   1.403 -0.8895 -0.4407  0.8560
 5376TIP3    H216093   2.576   3.350   1.287 -1.9959 -0.3401  1.2085
 5377TIP3   OH216094   3.258   1.716   4.219 -0.1526  0.5860  0.3937
 5377TIP3    H116095   3.284   1.797   4.262  2.4705 -0.5176  1.1132
 5377TIP3    H216096   3.266   1.649   4.287 -1.7011 -0.3873 -0.3267
 5378TIP3   OH216097   4.629   3.449   5.174 -0.5328 -0.1134  0.0372
 5378TIP3    H116098   4.656   3.376   5.229  2.5436  0.6855 -0.2190
 5378TIP3    H216099   4.592   3.513   5.235  0.9225 -0.0991  0.9607
 5379TIP3   OH216100   2.559   6.458   0.902 -0.9990  0.5159  0.5983
 5379TIP3    H116101   2.653   6.456   0.881 -1.4239  1.9270 -1.8838
 5379TIP3    H216102   2.526   6.374   0.870 -0.8191  0.6787 -0.0405
 5380TIP3   OH216103   6.793   4.091   3.469 -0.0613  0.5780  0.7594
 5380TIP3    H116104   6.791   4.180   3.504  1.4171  0.6477  0.7381
 5380TIP3    H216105   6.821   4.036   3.542 -0.9908  0.1157  0.7797
 5381TIP3   OH216106   0.772   2.125   4.233  0.0850  0.2156  0.6591
 5381TIP3    H116107   0.810   2.191   4.292 -0.9199  0.0368  1.5426
 5381TIP3    H216108   0.714   2.074   4.289  0.1500 -0.8522 -0.2120
 5382TIP3   OH216109   6.096   5.379   3.844  0.0194 -0.0041  0.0782
 5382TIP3    H116110   6.054   5.292   3.844  0.7486 -0.3735  1.2117
 5382TIP3    H216111   6.184   5.363   3.810 -0.0603  0.4213 -0.3431
 5383TIP3   OH216112   3.948   5.934   3.019  0.1278  0.4756  0.0605
 5383TIP3    H116113   3.965   5.995   3.091 -0.3598  1.1644 -0.3999
 5383TIP3    H216114   4.027   5.939   2.964  0.6994 -0.3946  0.7660
 5384TIP3   OH216115   4.830   5.040   1.219 -0.0530 -0.6314 -0.4005
 5384TIP3    H116116   4.761   5.085   1.268  0.7341  0.0561  0.1037
 5384TIP3    H216117   4.833   5.085   1.135 -0.1848 -0.6399 -0.4103
 5385TIP3   OH216118   0.138   2.872   0.058 -0.2400 -0.1795  0.2304
 5385TIP3    H116119   0.133   2.967   0.071 -1.1847  0.0956 -1.8023
 5385TIP3    H216120   0.072   2.836   0.116  0.7887  0.2755  1.7619
 5386TIP3   OH216121   1.170   5.679   4.752 -0.1694 -0.1004 -0.1629
 5386TIP3    H116122   1.075   5.667   4.745 -0.8499  3.9879 -0.1284
 5386TIP3    H216123   1.199   5.694   4.663  0.0203  0.8861  0.0534
 5387TIP3   OH216124   7.096   3.342   1.498  0.6807  0.5313  0.0306
 5387TIP3    H116125   7.081   3.425   1.545 -0.7210  0.6745 -0.6170
 5387TIP3    H216126   7.009   3.315   1.470  0.8037 -2.1665  1.8586
 5388TIP3   OH216127   2.280   0.382   3.650  0.3303 -0.0817 -0.1630
 5388TIP3    H116128   2.228   0.387   3.569 -1.0868  0.2875  0.7368
 5388TIP3    H216129   2.268   0.292   3.680  0.4719 -0.0796 -0.0985
 5389TIP3   OH216130   0.645   0.606   2.078  0.0563 -0.0393 -0.0845
 5389TIP3    H116131   0.638   0.518   2.114 -0.9130 -0.2288 -0.7299
 5389TIP3    H216132   0.681   0.594   1.990  0.6120  0.2753  0.0928
 5390TIP3   OH216133   2.458   3.702   5.476 -0.0449 -0.0660 -0.0585
 5390TIP3    H116134   2.550   3.676   5.487 -0.3633 -1.6605 -0.8981
 5390TIP3    H216135   2.452   3.787   5.519  2.0027  0.4243 -0.6367
 5391TIP3   OH216136   4.461   5.627   3.735  0.0354 -0.4742 -0.5128
 5391TIP3    H116137   4.420   5.620   3.649 -1.9637  0.4272  0.3040
 5391TIP3    H216138   4.388   5.623   3.797  1.4397 -1.3596  1.1716
 5392TIP3   OH216139   1.732   4.090   1.515  0.3452 -0.5846  0.2366
 5392TIP3    H116140   1.659   4.076   1.575 -0.8413  0.0076 -1.0184
 5392TIP3    H216141   1.740   4.008   1.467  0.1260 -0.4617 -0.0133
 5393TIP3   OH216142   1.460   3.235   2.956 -0.1317  0.1078 -0.2340
 5393TIP3    H116143   1.475   3.323   2.922 -0.4251  0.2594  0.0240
 5393TIP3    H216144   1.376   3.241   3.002  0.5856  0.0777  1.1119
 5394TIP3   OH216145   5.102   2.689   3.604  0.1837  0.2266  0.0244
 5394TIP3    H116146   5.106   2.784   3.589 -1.1245  0.3540  0.2920
 5394TIP3    H216147   5.125   2.679   3.697 -2.0353  0.5798  0.6764
 5395TIP3   OH216148   6.761   2.409   1.917 -0.3662 -0.5499  0.4008
 5395TIP3    H116149   6.806   2.352   1.979 -0.0841  0.1738  0.8697
 5395TIP3    H216150   6.824   2.422   1.846 -0.5394 -1.0497  0.1502
 5396TIP3   OH216151   2.642   3.442   0.535 -0.2734 -0.1455 -0.5113
 5396TIP3    H116152   2.599   3.527   0.549  0.3802  0.2418 -0.7790
 5396TIP3    H216153   2.721   3.446   0.589 -1.5913 -1.6915  1.6738
 5397TIP3   OH216154   5.708   3.177   0.613 -0.3817  0.1460 -0.0015
 5397TIP3    H116155   5.675   3.134   0.534  1.6316  0.8097 -1.2954
 5397TIP3    H216156   5.653   3.255   0.623 -1.6798 -0.7661  0.2198
 5398TIP3   OH216157   4.241   6.052   1.110  0.2807 -0.1357 -0.3046
 5398TIP3    H116158   4.255   6.136   1.154  0.7307 -0.3100 -0.1105
 5398TIP3    H216159   4.204   5.995   1.177  0.9235 -0.3875 -0.1581
 5399TIP3   OH216160   5.786   2.232   3.650  0.2040 -0.4878  0.3628
 5399TIP3    H116161   5.710   2.176   3.636 -1.0689  1.0936  0.5998
 5399TIP3    H216162   5.844   2.214   3.576 -0.5544 -1.4684 -0.0054
 5400TIP3   OH216163   3.139   3.500   0.924  0.6062  0.0564 -0.4324
 5400TIP3    H116164   3.102   3.572   0.976 -2.5906 -1.5168 -0.2896
 5400TIP3    H216165   3.194   3.452   0.986  0.2404  0.5901  0.3188
 5401TIP3   OH216166   4.368   3.520   1.960 -0.0801  0.4837 -0.0579
 5401TIP3    H116167   4.337   3.572   1.886  1.5978  0.6156 -0.7225
 5401TIP3    H216168   4.445   3.473   1.925  1.2589  1.1825  1.8126
 5402TIP3   OH216169   2.939   5.033   1.389  0.1984 -0.7005 -0.3146
 5402TIP3    H116170   3.008   5.067   1.332 -1.7354  1.1259 -1.7243
 5402TIP3    H216171   2.985   4.986   1.458  2.9055  1.3107 -0.6011
 5403TIP3   OH216172   5.030   6.224   2.967  0.1344  0.0327 -0.1909
 5403TIP3    H116173   4.965   6.162   3.000  0.8161 -0.0587  1.0724
 5403TIP3    H216174   5.070   6.180   2.892 -0.6638 -0.2606 -0.4544
 5404TIP3   OH216175   0.353   3.152   0.349 -0.2032  0.0845 -0.1164
 5404TIP3    H116176   0.286   3.220   0.357 -0.3643 -0.2226  1.7530
 5404TIP3    H216177   0.314   3.075   0.389  1.1179 -0.1948  0.7120
 5405TIP3   OH216178   6.615   4.389   3.398  0.1604 -0.0551  0.3442
 5405TIP3    H116179   6.532   4.341   3.400 -0.5923  1.1941  0.6359
 5405TIP3    H216180   6.597   4.469   3.448  0.9351  1.1700 -1.2629
 5406TIP3   OH216181   1.794   6.402   4.692  0.3291 -0.1598  0.1910
 5406TIP3    H116182   1.834   6.480   4.653 -1.4031 -0.0150 -1.4201
 5406TIP3    H216183   1.866   6.359   4.738  1.6513  1.6090 -0.1234
 5407TIP3   OH216184   4.280   2.437   2.593  0.0118  0.1701  0.3126
 5407TIP3    H116185   4.218   2.371   2.561  0.6372 -0.4669  0.3877
 5407TIP3    H216186   4.267   2.437   2.688  2.7402 -2.7806  0.8509
 5408TIP3   OH216187   6.948   6.509   2.787  0.2533 -0.0251 -0.0439
 5408TIP3    H116188   6.916   6.508   2.877 -2.4090 -0.7888 -0.9044
 5408TIP3    H216189   7.010   6.582   2.785  0.2398  0.1445  2.3353
 5409TIP3   OH216190   6.878   2.113   4.733  0.5652 -0.8178 -0.4178
 5409TIP3    H116191   6.884   2.136   4.826 -0.8400 -1.3798 -0.1534
 5409TIP3    H216192   6.899   2.020   4.730 -0.1747 -0.9859 -0.5420
 5410TIP3   OH216193   4.728   4.127   3.899  0.3009 -0.6396 -0.6328
 5410TIP3    H116194   4.722   4.077   3.818  1.5962 -1.0323 -0.5157
 5410TIP3    H216195   4.637   4.144   3.925 -0.1649 -2.5100 -0.9346
 5411TIP3   OH216196   6.789   3.419   3.169 -0.2055  0.3108 -0.6337
 5411TIP3    H116197   6.817   3.484   3.104  0.8961  0.3161 -0.1764
 5411TIP3    H216198   6.736   3.469   3.232  0.0714  0.6296 -0.6520
 5412TIP3   OH216199   5.402   3.224   5.182 -0.1726  0.3200  0.3785
 5412TIP3    H116200   5.339   3.271   5.127  0.2246  1.2853  0.7181
 5412TIP3    H216201   5.348   3.178   5.247 -0.6204 -0.5199 -0.5654
 5413TIP3   OH216202   1.509   5.872   3.707 -0.3142 -0.2463  0.1953
 5413TIP3    H116203   1.481   5.939   3.644 -1.1566  1.0622  1.8977
 5413TIP3    H216204   1.598   5.898   3.731  0.2105 -1.0458 -0.7916
 5414TIP3   OH216205   4.673   4.276   4.148 -0.4564  0.2687 -0.8478
 5414TIP3    H116206   4.611   4.349   4.140 -2.3298 -1.3736 -2.0878
 5414TIP3    H216207   4.747   4.302   4.093 -0.3215  1.9178  0.0309
 5415TIP3   OH216208   6.686   2.191   0.513 -0.2025 -0.0531 -0.0855
 5415TIP3    H116209   6.737   2.222   0.588  0.4944 -1.0921 -0.1134
 5415TIP3    H216210   6.742   2.207   0.438 -0.3474 -0.2679 -0.2397
 5416TIP3   OH216211   5.135   1.453   3.874 -0.7288 -0.1351  0.3891
 5416TIP3    H116212   5.077   1.523   3.906 -0.8089 -0.0654  0.0968
 5416TIP3    H216213   5.187   1.428   3.950  0.8420  1.7442  0.0331
 5417TIP3   OH216214   5.362   5.377   4.912  0.1243  0.5547  0.1859
 5417TIP3    H116215   5.448   5.407   4.881 -0.3569  1.3531 -0.4221
 5417TIP3    H216216   5.348   5.426   4.993  0.2826  0.3523  0.3364
 5418TIP3   OH216217   2.121   1.918   2.677 -0.5542 -0.4854  0.7432
 5418TIP3    H116218   2.098   1.855   2.608  0.2240  1.3512 -1.2889
 5418TIP3    H216219   2.178   1.869   2.736 -1.0632 -2.0570 -0.0092
 5419TIP3   OH216220   3.600   1.244   4.746 -0.4407 -0.1632 -0.7923
 5419TIP3    H116221   3.606   1.206   4.833 -0.5150  1.1601 -0.1888
 5419TIP3    H216222   3.512   1.220   4.716 -1.0956  0.8515  0.2321
 5420TIP3   OH216223   1.269   4.556   2.111  0.2594  0.2833  0.0902
 5420TIP3    H116224   1.180   4.533   2.085  0.5310 -2.0281  0.9701
 5420TIP3    H216225   1.262   4.578   2.204  0.7437 -1.1498  0.4966
 5421TIP3   OH216226   3.260   1.136   2.969 -0.0258  0.1677  0.8167
 5421TIP3    H116227   3.326   1.153   2.902 -0.6917  2.1664  0.5929
 5421TIP3    H216228   3.303   1.077   3.031  1.2141 -0.2796 -0.4123
 5422TIP3   OH216229   2.710   4.863   5.714 -0.1118 -0.4718  1.1200
 5422TIP3    H116230   2.775   4.859   5.643 -0.1332 -0.5967  1.1077
 5422TIP3    H216231   2.730   4.787   5.769 -1.2228 -1.4125  0.2747
 5423TIP3   OH216232   7.231   3.779   5.536  0.2235  0.4324  0.0951
 5423TIP3    H116233   7.148   3.743   5.507  0.9985 -1.4501  0.1087
 5423TIP3    H216234   7.227   3.871   5.509 -0.9124 -0.1534 -1.9789
 5424TIP3   OH216235   0.816   6.260   3.573 -0.7823  0.1152 -0.2250
 5424TIP3    H116236   0.785   6.190   3.631  0.2854 -1.1107 -1.0530
 5424TIP3    H216237   0.907   6.275   3.600  0.2318 -1.4761 -2.3601
 5425TIP3   OH216238   2.666   1.814   3.549  0.0712 -0.3864  0.0932
 5425TIP3    H116239   2.596   1.822   3.485  0.1381  0.5346  0.1286
 5425TIP3    H216240   2.718   1.740   3.519  0.0745  0.0028 -0.8897
 5426TIP3   OH216241   5.184   4.760   2.415  0.0899  0.8743 -0.5380
 5426TIP3    H116242   5.211   4.753   2.507  0.2792 -1.1560 -0.7052
 5426TIP3    H216243   5.220   4.844   2.386 -0.2927  1.7558  1.3247
 5427TIP3   OH216244   4.586   0.009   5.537  0.0071  0.5152 -0.1075
 5427TIP3    H116245   4.616   0.005   5.447 -0.2323  0.1994 -0.1761
 5427TIP3    H216246   4.500   0.052   5.532 -0.3783 -0.2332 -0.1331
 5428TIP3   OH216247   2.802   5.285   5.198 -0.5415 -0.9064 -0.6407
 5428TIP3    H116248   2.791   5.191   5.209 -0.0071 -0.8133  0.9003
 5428TIP3    H216249   2.764   5.323   5.277  1.0733  0.0443 -0.2878
 5429TIP3   OH216250   3.578   0.176   5.407  0.2591  0.1739  0.2079
 5429TIP3    H116251   3.540   0.153   5.322  1.3603  0.7293 -0.4625
 5429TIP3    H216252   3.557   0.102   5.463 -0.9993  0.0564 -0.3734
 5430TIP3   OH216253   6.737   4.746   0.148  0.1932  0.5330  0.4361
 5430TIP3    H116254   6.649   4.751   0.110 -0.5409 -1.6412  1.6642
 5430TIP3    H216255   6.735   4.809   0.220  0.0024  1.1921 -0.1252
 5431TIP3   OH216256   1.916   6.651   1.883  0.4784 -0.4177 -0.2306
 5431TIP3    H116257   1.824   6.677   1.887  0.8487  0.8562  0.9051
 5431TIP3    H216258   1.947   6.660   1.973  1.4247 -1.9858 -0.3717
 5432TIP3   OH216259   3.531   0.968   5.747  0.2795 -0.6008  0.3830
 5432TIP3    H116260   3.451   0.941   5.702  0.1088  0.0046  0.3238
 5432TIP3    H216261   3.505   0.980   5.838  0.0258  0.7461  0.1502
 5433TIP3   OH216262   6.685   0.206   2.367 -0.5274 -0.1288  0.1882
 5433TIP3    H116263   6.685   0.251   2.282  0.7495 -0.4283  0.0178
 5433TIP3    H216264   6.733   0.264   2.425  0.6948 -1.0119  0.0929
 5434TIP3   OH216265   6.273   2.066   2.488 -0.0017 -0.1591 -0.2118
 5434TIP3    H116266   6.310   2.103   2.569  0.0576 -3.0159  1.1748
 5434TIP3    H216267   6.183   2.043   2.512 -0.0877 -0.7411 -1.0734
 5435TIP3   OH216268   2.220   0.466   3.335  0.2462 -0.4172 -0.2937
 5435TIP3    H116269   2.169   0.543   3.311  0.0259 -0.1966  0.8415
 5435TIP3    H216270   2.311   0.492   3.322  0.2362  0.4625  1.2383
 5436TIP3   OH216271   3.857   6.168   2.630 -0.4794  0.2291  0.4005
 5436TIP3    H116272   3.783   6.227   2.637  0.9894  2.5686 -1.7241
 5436TIP3    H216273   3.927   6.210   2.680 -0.0432 -0.9595  0.8310
 5437TIP3   OH216274   1.774   3.010   4.721  0.0844  0.0198  0.1348
 5437TIP3    H116275   1.865   3.034   4.736 -0.0940  0.3184  0.7919
 5437TIP3    H216276   1.761   2.931   4.774 -0.0088 -0.0901 -0.0495
 5438TIP3   OH216277   4.913   4.619   0.732  0.0581 -0.2119  0.3617
 5438TIP3    H116278   5.001   4.626   0.695 -0.1279 -1.2966 -0.3545
 5438TIP3    H216279   4.926   4.577   0.817  0.3260  0.6628  0.7611
 5439TIP3   OH216280   0.416   4.169   4.608 -0.0950 -0.1904  0.0981
 5439TIP3    H116281   0.429   4.107   4.679 -3.3500 -1.1652  0.0148
 5439TIP3    H216282   0.390   4.250   4.652  0.5567  0.0202  0.0968
 5440TIP3   OH216283   2.085   3.642   5.407  0.3318 -0.0064 -0.1841
 5440TIP3    H116284   2.063   3.626   5.499  2.0671  2.4020  0.7586
 5440TIP3    H216285   2.080   3.737   5.397 -0.7438 -0.2554 -2.9000
 5441TIP3   OH216286   0.556   2.316   0.983 -0.1635  0.3754 -0.3605
 5441TIP3    H116287   0.645   2.282   0.974 -0.9447 -1.6862 -0.6634
 5441TIP3    H216288   0.525   2.327   0.893 -0.6087  0.0062 -0.2542
 5442TIP3   OH216289   3.208   6.137   1.779 -0.1476 -0.4483 -0.7987
 5442TIP3    H116290   3.232   6.208   1.720  1.3429  0.6946  1.0423
 5442TIP3    H216291   3.291   6.097   1.802 -0.6550 -0.7166  0.6565
 5443TIP3   OH216292   1.461   2.188   5.165  0.2070 -0.0367  0.0694
 5443TIP3    H116293   1.477   2.274   5.205 -3.0325  1.0436 -0.6179
 5443TIP3    H216294   1.374   2.163   5.197 -0.1433 -1.7177 -1.9742
 5444TIP3   OH216295   1.857   5.323   3.703  0.0647  0.3875  0.0230
 5444TIP3    H116296   1.947   5.345   3.725  0.6867  0.2623 -2.1753
 5444TIP3    H216297   1.806   5.400   3.728  1.1710  1.4934 -1.0206
 5445TIP3   OH216298   1.323   3.052   1.415  0.5280 -0.3853 -0.0180
 5445TIP3    H116299   1.312   3.036   1.321 -0.3078  0.8115 -0.1468
 5445TIP3    H216300   1.234   3.069   1.446  1.1680  3.9127  0.0535
 5446TIP3   OH216301   1.036   5.528   4.051 -0.1829 -0.0452  0.0163
 5446TIP3    H116302   0.952   5.563   4.021  0.1009 -0.0830 -0.8352
 5446TIP3    H216303   1.102   5.570   3.995  0.4096  0.2784  0.9241
 5447TIP3   OH216304   5.239   4.299   5.106  0.3061 -1.0605  0.3747
 5447TIP3    H116305   5.284   4.353   5.171 -1.1759  1.6021 -0.6153
 5447TIP3    H216306   5.176   4.248   5.156  2.2714 -2.5756  1.4341
 5448TIP3   OH216307   5.134   3.237   5.860  0.0240 -0.4396  0.1304
 5448TIP3    H116308   5.158   3.238   5.953 -2.1366  0.2550  0.7597
 5448TIP3    H216309   5.121   3.144   5.839 -1.5000 -0.5059  1.1672
 5449TIP3   OH216310   0.054   3.279   1.949 -0.0236 -1.3276 -0.0703
 5449TIP3    H116311  -0.019   3.251   1.893 -0.5168 -1.5494  0.6588
 5449TIP3    H216312   0.012   3.334   2.015  0.8069  0.4510 -0.9534
 5450TIP3   OH216313   0.242   2.630   3.733  0.3635  0.0624 -0.0827
 5450TIP3    H116314   0.319   2.685   3.723  1.4511 -0.9084  2.1919
 5450TIP3    H216315   0.182   2.682   3.787  0.1448  0.1431 -0.3993
 5451TIP3   OH216316   1.375   1.751   4.285  0.1287  0.0747  0.0743
 5451TIP3    H116317   1.429   1.673   4.273 -1.1358 -0.7749 -0.2748
 5451TIP3    H216318   1.299   1.738   4.228 -0.7817  0.9163  1.0380
 5452TIP3   OH216319   1.414   1.092   3.216 -0.1324 -0.0953 -0.2760
 5452TIP3    H116320   1.452   1.179   3.211 -0.0213 -0.0734  0.8323
 5452TIP3    H216321   1.488   1.033   3.208 -0.1777 -0.0934 -0.7545
 5453TIP3   OH216322   3.758   1.568   3.486  0.0870 -0.0254 -0.4206
 5453TIP3    H116323   3.844   1.593   3.521 -0.3889  0.4727  0.4027
 5453TIP3    H216324   3.756   1.473   3.494  1.2091 -0.2386 -1.9740
 5454TIP3   OH216325   0.016   2.832   5.342 -0.3047  0.7415 -0.1592
 5454TIP3    H116326  -0.061   2.887   5.353  0.3165  1.8579 -1.1836
 5454TIP3    H216327   0.070   2.878   5.277  0.2362 -1.0509 -1.0619
 5455TIP3   OH216328   6.207   5.302   4.948  0.1329  0.6090  0.5340
 5455TIP3    H116329   6.113   5.304   4.965  0.5746 -0.7435  3.9327
 5455TIP3    H216330   6.225   5.212   4.923  0.4846  0.9868 -0.6111
 5456TIP3   OH216331   2.485   0.593   4.194  0.0763 -0.2741 -0.0534
 5456TIP3    H116332   2.560   0.578   4.136 -0.0679  1.2385 -0.6702
 5456TIP3    H216333   2.440   0.508   4.197  1.5255 -1.0738 -0.0496
 5457TIP3   OH216334   0.480   2.123   5.664  0.4786  0.4661  0.0495
 5457TIP3    H116335   0.536   2.105   5.588  1.5980 -0.0860  0.9730
 5457TIP3    H216336   0.502   2.053   5.726 -0.4857  0.8556  0.8480
 5458TIP3   OH216337   2.844   3.244   2.392 -0.3304  0.4846  0.1322
 5458TIP3    H116338   2.931   3.210   2.413 -0.2990  0.1294 -0.5334
 5458TIP3    H216339   2.861   3.319   2.335 -0.4388  0.8671  0.6033
 5459TIP3   OH216340   1.647   2.083   3.625 -0.7512  0.1076  0.0464
 5459TIP3    H116341   1.725   2.031   3.608  0.0889  1.4871 -0.5419
 5459TIP3    H216342   1.576   2.034   3.585 -0.2130 -1.2123  0.6630
 5460TIP3   OH216343   6.488   3.937   1.864 -0.0399 -0.0710  0.1385
 5460TIP3    H116344   6.400   3.906   1.841 -1.2923  2.6459  0.7670
 5460TIP3    H216345   6.517   3.877   1.933 -2.3729  0.1546  1.4543
 5461TIP3   OH216346   6.962   1.123   0.090  0.0068 -0.2830 -0.3337
 5461TIP3    H116347   7.004   1.042   0.122  1.2183 -0.4663 -2.2469
 5461TIP3    H216348   6.874   1.096   0.066  0.7036 -1.3201 -1.8985
 5462TIP3   OH216349   0.194   6.678   1.426  0.3954  0.5487  0.2609
 5462TIP3    H116350   0.141   6.756   1.412  1.0791  0.6777 -2.1349
 5462TIP3    H216351   0.236   6.692   1.510 -1.3898  1.5996  1.0180
 5463TIP3   OH216352   6.744   2.620   4.722  0.4185 -0.4216 -0.3077
 5463TIP3    H116353   6.753   2.712   4.699  2.5634 -0.5289 -0.1080
 5463TIP3    H216354   6.665   2.616   4.776 -0.7540  0.9641 -1.8434
 5464TIP3   OH216355   0.649   2.231   4.588 -0.1515  0.1228 -0.1842
 5464TIP3    H116356   0.718   2.266   4.532 -0.1396 -0.5069 -0.5707
 5464TIP3    H216357   0.569   2.237   4.535 -0.4516  1.0897  0.3560
 5465TIP3   OH216358   3.819   6.551   4.310  0.0448 -0.3743 -0.2795
 5465TIP3    H116359   3.753   6.573   4.245 -0.1156 -0.1513 -0.0386
 5465TIP3    H216360   3.843   6.634   4.350  1.0753 -0.3332 -0.9312
 5466TIP3   OH216361   2.217   0.278   1.710  0.3079 -0.5158  0.2542
 5466TIP3    H116362   2.235   0.264   1.617 -0.3575  0.4010 -0.0257
 5466TIP3    H216363   2.222   0.191   1.749  0.2658 -0.9529 -0.6946
 5467TIP3   OH216364   4.704   3.497   2.594  0.7384 -0.4030  0.6643
 5467TIP3    H116365   4.749   3.464   2.516  1.5215  0.2678  0.8175
 5467TIP3    H216366   4.773   3.538   2.646  0.3263 -1.3940  2.0278
 5468TIP3   OH216367   3.779   0.573   2.153 -0.3270  0.2422  0.4485
 5468TIP3    H116368   3.790   0.491   2.105  0.5974  1.4613 -1.5308
 5468TIP3    H216369   3.740   0.633   2.090  1.1321  1.9834  1.1195
 5469TIP3   OH216370   5.553   4.466   5.386  0.5158  0.1711  0.2689
 5469TIP3    H116371   5.644   4.480   5.410  1.4491 -2.5486 -1.2148
 5469TIP3    H216372   5.550   4.478   5.291 -0.4623 -0.6149  0.1777
 5470TIP3   OH216373   4.494   4.499   1.882  0.1134 -0.6023  0.1814
 5470TIP3    H116374   4.428   4.484   1.950 -0.3621 -0.2775 -0.1996
 5470TIP3    H216375   4.558   4.429   1.895 -1.1237 -1.9027 -0.4331
 5471TIP3   OH216376   5.842   6.580   5.192  0.2878 -0.0668 -0.0754
 5471TIP3    H116377   5.912   6.574   5.258  0.9042 -0.2487 -0.7334
 5471TIP3    H216378   5.844   6.496   5.147  1.2360  0.7502 -1.6527
 5472TIP3   OH216379   2.249   3.802   5.043  0.3392  0.3238  0.3774
 5472TIP3    H116380   2.235   3.708   5.034  1.1695  0.2014  0.1917
 5472TIP3    H216381   2.224   3.823   5.133 -0.8122  0.1204  0.1116
 5473TIP3   OH216382   4.223   4.347   5.695  0.2377  0.3810 -0.0190
 5473TIP3    H116383   4.279   4.314   5.624 -0.3057 -1.3875  0.3176
 5473TIP3    H216384   4.136   4.354   5.655 -0.3064 -1.6756  0.6960
 5474TIP3   OH216385   3.657   1.318   2.403  0.6847 -0.4746 -0.8218
 5474TIP3    H116386   3.570   1.333   2.441  0.0862 -1.5955 -1.6909
 5474TIP3    H216387   3.716   1.372   2.456 -0.7820  1.8049 -1.3830
 5475TIP3   OH216388   0.444   2.408   0.699  0.2289  0.0842 -0.0686
 5475TIP3    H116389   0.366   2.362   0.667 -0.8499  1.6855  0.0799
 5475TIP3    H216390   0.511   2.391   0.633 -0.4375 -0.8245 -0.5366
 5476TIP3   OH216391   5.509   6.731   0.223 -0.0224  0.4645 -0.2427
 5476TIP3    H116392   5.503   6.751   0.317 -0.1750  0.9912 -0.3635
 5476TIP3    H216393   5.426   6.686   0.203  0.9883 -1.8345  0.3816
 5477TIP3   OH216394   3.752   5.799   4.375 -0.2369 -0.1126 -0.3411
 5477TIP3    H116395   3.681   5.761   4.323 -1.1422  1.1302 -0.0844
 5477TIP3    H216396   3.786   5.870   4.320 -1.9607  1.9725  1.0940
 5478TIP3   OH216397   2.599   5.218   4.685 -0.1089  0.0942  0.5605
 5478TIP3    H116398   2.665   5.254   4.625  0.4405  0.2147  1.2220
 5478TIP3    H216399   2.639   5.226   4.772 -0.9648  0.0849  0.9640
 5479TIP3   OH216400   3.087   2.562   0.411 -0.3734  0.2375  0.3344
 5479TIP3    H116401   3.100   2.605   0.327  0.5671  0.0574  0.3737
 5479TIP3    H216402   3.035   2.625   0.462  0.1902  0.9343  0.0733
 5480TIP3   OH216403   1.785   0.886   0.178  0.5490  0.8129  0.1494
 5480TIP3    H116404   1.691   0.888   0.200  0.7699  0.2361  1.2028
 5480TIP3    H216405   1.828   0.862   0.260  1.6017  0.7728 -0.4040
 5481TIP3   OH216406   6.858   6.436   0.675  0.4106  0.1232 -0.3828
 5481TIP3    H116407   6.836   6.345   0.694 -0.0757  0.4365  0.6315
 5481TIP3    H216408   6.790   6.465   0.614 -0.8283  0.4545  1.0772
 5482TIP3   OH216409   3.160   3.304   1.875  0.1516  0.0708 -0.0101
 5482TIP3    H116410   3.142   3.239   1.943  1.6321  0.7301  1.0597
 5482TIP3    H216411   3.097   3.283   1.805  0.0475 -1.9877  0.6280
 5483TIP3   OH216412   5.904   5.723   3.937 -0.3437  0.2400  0.2849
 5483TIP3    H116413   5.856   5.738   4.018 -1.5530  2.4514 -0.7224
 5483TIP3    H216414   5.988   5.766   3.950 -0.4127  0.3082  0.5094
 5484TIP3   OH216415   2.726   1.737   2.942 -0.3641  0.4868  0.7328
 5484TIP3    H116416   2.784   1.737   3.019  1.8181 -0.5134 -0.7924
 5484TIP3    H216417   2.675   1.817   2.951  2.2309  2.1937  1.5780
 5485TIP3   OH216418   2.997   6.362   5.204 -0.4357  0.3735 -0.0802
 5485TIP3    H116419   2.903   6.365   5.190 -0.5182 -2.1569 -0.6000
 5485TIP3    H216420   3.008   6.301   5.278  0.7879  0.9320  0.2303
 5486TIP3   OH216421   2.456   2.996   1.667  0.2636  0.1700  0.1554
 5486TIP3    H116422   2.420   3.070   1.715  1.5406 -0.6953  2.6452
 5486TIP3    H216423   2.542   3.025   1.638 -0.0899  0.3433 -0.7431
 5487TIP3   OH216424   6.753   6.772   0.476 -0.4836  0.4700  0.4167
 5487TIP3    H116425   6.785   6.713   0.544 -0.4760  0.6544  0.5751
 5487TIP3    H216426   6.683   6.723   0.433 -0.6072  0.4174  0.6733
 5488TIP3   OH216427   4.917   0.209   1.245  0.2437 -0.1883  0.1339
 5488TIP3    H116428   4.985   0.244   1.303 -0.3939  0.3609  0.5785
 5488TIP3    H216429   4.887   0.129   1.288 -0.6158  0.5113  0.8815
 5489TIP3   OH216430   6.329   6.067   4.072 -0.0732  0.7583 -0.0078
 5489TIP3    H116431   6.412   6.074   4.025 -0.9365  0.7298 -1.5884
 5489TIP3    H216432   6.314   6.154   4.108 -0.3342  1.3408 -1.4585
 5490TIP3   OH216433   1.610   0.546   5.764 -0.6103 -0.1904 -0.9438
 5490TIP3    H116434   1.603   0.541   5.669 -0.1135  0.8562 -1.0531
 5490TIP3    H216435   1.527   0.511   5.796 -1.9884  2.0315 -1.8486
 5491TIP3   OH216436   2.475   1.187   1.008  0.4547  0.5956  0.1202
 5491TIP3    H116437   2.541   1.124   1.037 -0.8048 -1.5687 -1.4194
 5491TIP3    H216438   2.461   1.166   0.915 -0.1811  3.0500 -0.4103
 5492TIP3   OH216439   4.388   5.176   3.516  0.6319  0.2830  0.0607
 5492TIP3    H116440   4.326   5.249   3.520  0.4777  0.1005  2.4264
 5492TIP3    H216441   4.372   5.127   3.597  1.6826 -1.6019 -0.8173
 5493TIP3   OH216442   4.665   5.152   4.337 -0.1859  0.1097  0.3150
 5493TIP3    H116443   4.693   5.238   4.307  1.5547 -0.9001 -1.2261
 5493TIP3    H216444   4.742   5.096   4.323 -1.8552 -2.1082 -0.7039
 5494TIP3   OH216445   3.954   3.666   1.857  0.5465  0.2346  0.4252
 5494TIP3    H116446   4.019   3.601   1.827  1.6894  1.3098  0.5050
 5494TIP3    H216447   3.892   3.615   1.908  1.4735 -0.8020  0.5687
 5495TIP3   OH216448   2.075   3.616   3.337 -0.0249 -0.4178 -0.3097
 5495TIP3    H116449   2.016   3.541   3.346 -1.0294  0.2475 -1.0922
 5495TIP3    H216450   2.132   3.611   3.414 -1.4671 -0.7656  0.7872
 5496TIP3   OH216451   6.665   1.905   0.516  0.7744 -0.3476  0.1107
 5496TIP3    H116452   6.608   1.898   0.439 -2.8954 -2.3811  2.6957
 5496TIP3    H216453   6.677   1.999   0.529  2.4236  0.0802 -3.3782
 5497TIP3   OH216454   1.299   2.390   2.544  0.1092  0.0456 -0.3044
 5497TIP3    H116455   1.260   2.355   2.624  1.3963 -0.0519  0.3080
 5497TIP3    H216456   1.226   2.430   2.497 -0.3911  1.7889  1.8052
 5498TIP3   OH216457   4.480   4.905   2.616  0.5849  0.0741 -0.3536
 5498TIP3    H116458   4.534   4.826   2.627  0.2945 -0.1171 -0.2894
 5498TIP3    H216459   4.483   4.948   2.701  0.8320  0.1916 -0.4195
 5499TIP3   OH216460   3.072   1.210   5.090 -0.5845  0.5777  0.0051
 5499TIP3    H116461   3.143   1.146   5.085  0.4453  1.7421 -0.6353
 5499TIP3    H216462   3.023   1.198   5.009 -0.8990  0.0544  0.2631
 5500TIP3   OH216463   4.537   6.501   2.215  0.2477 -0.2426  0.3948
 5500TIP3    H116464   4.486   6.467   2.141  0.9331  0.6304 -0.5002
 5500TIP3    H216465   4.607   6.438   2.227 -0.4741 -0.9497  1.0151
 5501TIP3   OH216466   1.992   3.153   4.015 -0.2760 -0.1581  0.6527
 5501TIP3    H116467   1.905   3.144   4.055 -0.2529  0.1108  0.7656
 5501TIP3    H216468   2.000   3.076   3.958  0.2271 -1.3044  2.1935
 5502TIP3   OH216469   1.454   1.112   1.475  0.5182  0.0183  0.0869
 5502TIP3    H116470   1.545   1.112   1.445  0.5169  0.9394  0.0579
 5502TIP3    H216471   1.442   1.198   1.516  0.0582 -0.6004  1.3119
 5503TIP3   OH216472   1.298   2.993   0.296 -0.3028  0.1423  0.1612
 5503TIP3    H116473   1.334   2.933   0.231  1.0656  1.7730 -0.6492
 5503TIP3    H216474   1.203   2.986   0.285 -0.1631 -1.3486 -0.3594
 5504TIP3   OH216475   6.406   6.070   1.141  0.0460  0.9806 -0.3383
 5504TIP3    H116476   6.412   6.016   1.062 -1.5006  0.5568 -0.1936
 5504TIP3    H216477   6.491   6.059   1.183 -0.2089 -1.4120 -0.3021
 5505TIP3   OH216478   6.790   4.701   1.299 -0.1520 -0.0127  0.0387
 5505TIP3    H116479   6.734   4.777   1.286  0.6300  0.3799 -1.1977
 5505TIP3    H216480   6.872   4.737   1.332  0.3385 -0.2810 -0.8768
 5506TIP3   OH216481   6.053   4.496   5.891  0.4158 -0.0628  0.8328
 5506TIP3    H116482   6.091   4.562   5.833 -1.0203 -0.1424 -0.2825
 5506TIP3    H216483   5.960   4.519   5.896 -0.6730 -3.1335 -1.4258
 5507TIP3   OH216484   3.925   2.965   3.194  0.5126 -0.1420  0.1142
 5507TIP3    H116485   3.919   2.956   3.289  1.5088 -0.8262  0.1227
 5507TIP3    H216486   3.839   2.998   3.168 -0.3983 -1.6854  1.0442
 5508TIP3   OH216487   0.165   5.635  -0.022 -0.5204  0.2626  0.1853
 5508TIP3    H116488   0.146   5.546   0.008  2.2886 -0.5639 -0.2526
 5508TIP3    H216489   0.212   5.675   0.051 -1.9612  1.5275  0.4682
 5509TIP3   OH216490   0.957   2.423   4.018 -0.0873  0.0366 -0.1135
 5509TIP3    H116491   0.965   2.334   3.984 -1.8881 -0.6640  1.1293
 5509TIP3    H216492   0.961   2.413   4.113 -0.2229  1.2908  0.0452
 5510TIP3   OH216493   2.845   5.206   0.986  0.3939  0.8207  0.6060
 5510TIP3    H116494   2.894   5.145   0.932  0.8188  1.2414  0.5100
 5510TIP3    H216495   2.837   5.163   1.071 -1.6167 -0.5291 -0.1890
 5511TIP3   OH216496   1.126   4.702   4.353 -0.7556  0.3481  0.2476
 5511TIP3    H116497   1.033   4.700   4.330 -0.9674 -1.8614  1.1095
 5511TIP3    H216498   1.127   4.702   4.448  0.1262 -0.3974  0.2456
 5512TIP3   OH216499   5.509   6.574   3.003 -0.3858  0.2689  0.0638
 5512TIP3    H116500   5.502   6.661   2.963 -0.9381  0.4671  0.5671
 5512TIP3    H216501   5.601   6.566   3.029 -0.5388  1.1195  0.9156
 5513TIP3   OH216502   5.406   3.307   4.364 -0.0599 -0.2929 -0.6647
 5513TIP3    H116503   5.407   3.228   4.309  0.6215  0.2864 -1.5130
 5513TIP3    H216504   5.461   3.369   4.317  0.7439  0.1537  0.8173
 5514TIP3   OH216505   0.727   0.715   3.556 -0.2438 -0.0900 -0.5740
 5514TIP3    H116506   0.799   0.687   3.613  1.0736  0.2644 -2.0127
 5514TIP3    H216507   0.681   0.634   3.534 -0.7163 -0.2491  0.8509
 5515TIP3   OH216508   4.882   6.240   3.647  0.2276  0.1331  0.1550
 5515TIP3    H116509   4.893   6.330   3.679 -1.5242  1.1845 -1.9273
 5515TIP3    H216510   4.971   6.206   3.642  0.8192  1.0774  2.6895
 5516TIP3   OH216511   5.194   4.734   2.690  0.2633 -0.4914  0.3451
 5516TIP3    H116512   5.290   4.735   2.685  0.3502  1.1966  1.5606
 5516TIP3    H216513   5.174   4.777   2.773 -1.5804  0.4246 -0.5234
 5517TIP3   OH216514   1.085   5.027   0.243 -0.7796  0.1153 -0.0626
 5517TIP3    H116515   1.076   4.982   0.159  1.7203 -1.4714  0.3943
 5517TIP3    H216516   1.073   5.119   0.223  1.9110  0.0472 -2.6478
 5518TIP3   OH216517   3.439   4.615   2.306  0.2959 -0.1981 -0.0601
 5518TIP3    H116518   3.502   4.675   2.267  0.7333 -0.6303 -0.0265
 5518TIP3    H216519   3.488   4.570   2.375  0.6760 -2.3131 -1.6222
 5519TIP3   OH216520   6.265   6.312   5.201 -0.1376  0.1580  0.0408
 5519TIP3    H116521   6.182   6.307   5.155  0.8947 -0.9720 -1.8323
 5519TIP3    H216522   6.321   6.364   5.144  1.3273 -1.6713 -0.2939
 5520TIP3   OH216523   1.062   1.710   4.439  0.1459  0.1256  0.1140
 5520TIP3    H116524   1.041   1.801   4.418 -0.6342  0.0331  0.4793
 5520TIP3    H216525   1.094   1.713   4.529  0.0779  0.0331  0.1414
 5521TIP3   OH216526   3.097   6.595   3.347  0.4317  0.1688 -0.6200
 5521TIP3    H116527   3.175   6.596   3.291  1.7427 -1.7703  1.0400
 5521TIP3    H216528   3.051   6.515   3.323 -0.3184  0.5942 -0.6220
 5522TIP3   OH216529   4.002   0.429   3.172  0.0871  0.0235 -0.0189
 5522TIP3    H116530   4.022   0.476   3.252 -0.6599  0.3689 -0.0240
 5522TIP3    H216531   3.906   0.424   3.171  0.0261  1.0187 -1.4466
 5523TIP3   OH216532   0.520   3.056   2.623 -0.0472  0.6128 -0.1252
 5523TIP3    H116533   0.553   2.974   2.661 -2.5468 -0.2315  0.3737
 5523TIP3    H216534   0.436   3.070   2.666  0.8999  4.2371  0.8389
 5524TIP3   OH216535   7.192   6.528   0.350  0.2252 -0.0501  0.0152
 5524TIP3    H116536   7.272   6.580   0.348  0.1100  0.1101 -0.4152
 5524TIP3    H216537   7.156   6.542   0.438  0.6026 -0.0236  0.1658
 5525TIP3   OH216538   4.556   6.385   0.504  0.6127  0.5555 -0.0776
 5525TIP3    H116539   4.480   6.335   0.535  0.6674  0.7774  0.4265
 5525TIP3    H216540   4.518   6.461   0.461  0.5371  0.2882 -0.4908
 5526TIP3   OH216541   6.618   2.432   2.464  0.3229 -0.2634 -0.0429
 5526TIP3    H116542   6.654   2.490   2.397  2.7981  0.1601  1.5575
 5526TIP3    H216543   6.631   2.344   2.428  0.2529  0.0104 -0.7523
 5527TIP3   OH216544   0.617   1.001   0.396 -0.1657 -0.1277 -0.3876
 5527TIP3    H116545   0.573   0.941   0.456 -0.9089  0.9822  0.2070
 5527TIP3    H216546   0.702   0.960   0.379  0.0110 -0.5220  1.3108
 5528TIP3   OH216547   2.061   2.965   5.334  0.1463  0.4220  0.2728
 5528TIP3    H116548   2.084   2.911   5.409  1.3521  1.7214  0.8965
 5528TIP3    H216549   1.981   3.010   5.359 -0.0812 -0.0016  0.3126
 5529TIP3   OH216550   6.883   4.841   1.676 -0.2062 -0.8095  0.4544
 5529TIP3    H116551   6.934   4.812   1.600  1.2781  0.0368  1.0676
 5529TIP3    H216552   6.835   4.763   1.704  2.8794 -2.5443  1.4519
 5530TIP3   OH216553   2.539   0.434   3.724 -0.0719  0.3971  0.6918
 5530TIP3    H116554   2.451   0.432   3.688 -1.1780  1.3818  3.1327
 5530TIP3    H216555   2.592   0.385   3.661 -2.0242  1.0597 -1.6121
 5531TIP3   OH216556   1.631   1.840   1.244  0.3365 -0.7526  0.3260
 5531TIP3    H116557   1.576   1.918   1.252  1.0070 -0.2143 -0.2669
 5531TIP3    H216558   1.687   1.842   1.321 -0.3328 -1.2075  0.8400
 5532TIP3   OH216559   3.549   5.753   4.156  0.5440  0.0166 -0.0544
 5532TIP3    H116560   3.559   5.844   4.126  1.4546 -0.3109 -0.7720
 5532TIP3    H216561   3.462   5.751   4.196 -0.2298  0.7763 -1.6008
 5533TIP3   OH216562   4.177   6.703   3.768 -0.5523  0.4248 -0.4561
 5533TIP3    H116563   4.270   6.702   3.744 -0.6785  0.2251 -0.9423
 5533TIP3    H216564   4.175   6.665   3.856 -0.1840  0.3704 -0.4687
 5534TIP3   OH216565   3.383   1.301   2.503 -0.0389 -0.2603  0.0179
 5534TIP3    H116566   3.373   1.207   2.488 -1.7601 -0.4006  1.6837
 5534TIP3    H216567   3.318   1.341   2.445  1.7813  0.0921 -1.9095
 5535TIP3   OH216568   6.790   3.704   3.219 -0.4369 -0.3990 -0.0435
 5535TIP3    H116569   6.739   3.780   3.191  0.0892  0.2338  0.7019
 5535TIP3    H216570   6.834   3.675   3.139  0.0041  0.5825 -0.1717
 5536TIP3   OH216571   5.102   4.954   1.339 -0.0463 -0.2521  0.8902
 5536TIP3    H116572   5.016   4.995   1.346  0.7631  1.3543  2.2353
 5536TIP3    H216573   5.129   4.967   1.248 -1.2493 -0.8685  0.4352
 5537TIP3   OH216574   4.542   2.721   5.302 -0.2331  0.1430  0.3560
 5537TIP3    H116575   4.511   2.661   5.235 -0.1377  0.2489  0.2172
 5537TIP3    H216576   4.480   2.794   5.300 -0.8255 -0.3223  1.0817
 5538TIP3   OH216577   0.577   0.092   5.553  0.0444  0.3573 -0.1858
 5538TIP3    H116578   0.584   0.117   5.461  1.7035 -0.9114 -0.4488
 5538TIP3    H216579   0.629   0.012   5.560 -1.8498 -0.8230  1.4126
 5539TIP3   OH216580   2.200   4.620   2.901  0.2094  0.0958 -0.3544
 5539TIP3    H116581   2.292   4.645   2.901 -0.1241  1.3582 -0.1405
 5539TIP3    H216582   2.189   4.567   2.980  1.0759 -1.4063 -1.1839
 5540TIP3   OH216583   0.074   1.291   1.301 -0.0574 -0.1752 -0.5170
 5540TIP3    H116584   0.082   1.385   1.285 -0.8192 -0.1690 -0.8831
 5540TIP3    H216585   0.052   1.285   1.394 -1.3878  0.0942 -0.7903
 5541TIP3   OH216586   6.122   2.753   2.280  0.5126  0.0800 -0.2986
 5541TIP3    H116587   6.102   2.821   2.344 -1.0828 -0.3122 -0.3352
 5541TIP3    H216588   6.052   2.760   2.215  2.2636  0.6934 -2.2314
 5542TIP3   OH216589   2.758   3.962   4.733 -0.4367  0.2635  0.4966
 5542TIP3    H116590   2.737   3.931   4.821 -0.4797 -0.4811  0.2297
 5542TIP3    H216591   2.853   3.950   4.725 -0.7953 -2.5443 -0.6108
 5543TIP3   OH216592   5.612   5.326   5.082  0.0074 -0.7176 -0.0007
 5543TIP3    H116593   5.578   5.245   5.045 -1.4519 -0.4528  0.6654
 5543TIP3    H216594   5.632   5.305   5.173  0.0781 -0.4578  0.0455
 5544TIP3   OH216595   3.473   2.360   2.621 -0.0736  0.9085 -0.3716
 5544TIP3    H116596   3.430   2.434   2.578  0.4635  1.7967  0.5662
 5544TIP3    H216597   3.557   2.351   2.576  0.1875  1.3749  0.0200
 5545TIP3   OH216598   6.579   5.246   3.043  0.3982  0.4719 -0.4286
 5545TIP3    H116599   6.497   5.254   3.092  0.3026  0.8765 -0.6412
 5545TIP3    H216600   6.643   5.293   3.096  1.4386 -3.0060  1.6888
 5546TIP3   OH216601   1.247   3.761   3.212 -0.0979 -0.7618  0.3461
 5546TIP3    H116602   1.252   3.767   3.307  0.9245  0.6428  0.2314
 5546TIP3    H216603   1.263   3.850   3.181  1.9176 -1.5788 -1.1842
 5547TIP3   OH216604   0.214   2.629   1.987 -0.4108 -0.1277 -0.1293
 5547TIP3    H116605   0.221   2.599   1.897  0.7735 -1.0661  0.2451
 5547TIP3    H216606   0.129   2.595   2.017 -1.4626  1.3689 -1.2707
 5548TIP3   OH216607   6.500   6.429   0.823 -0.7276  0.1220 -0.0066
 5548TIP3    H116608   6.543   6.514   0.829 -0.0909 -0.2324  0.6319
 5548TIP3    H216609   6.541   6.377   0.892 -1.2520 -0.6420 -0.2611
 5549TIP3   OH216610   0.396   4.890   1.446  0.4779  0.1003 -0.8782
 5549TIP3    H116611   0.396   4.974   1.492 -0.6826 -0.6779  0.6254
 5549TIP3    H216612   0.485   4.858   1.455  0.9969  1.2605 -1.6752
 5550TIP3   OH216613   5.781   0.238   0.682  0.0150 -0.1192  0.2030
 5550TIP3    H116614   5.866   0.198   0.700  0.4673  1.1352  0.9176
 5550TIP3    H216615   5.794   0.332   0.695 -1.2662  0.1902 -0.5126
 5551TIP3   OH216616   5.830   0.759   0.587 -0.2918 -0.2430  0.2777
 5551TIP3    H116617   5.860   0.787   0.674 -1.0413 -1.3931  0.9203
 5551TIP3    H216618   5.852   0.833   0.530  2.2135 -0.3139  1.0103
 5552TIP3   OH216619   4.816   0.721   4.634  0.4646 -0.0926 -0.4960
 5552TIP3    H116620   4.808   0.689   4.724  2.0848 -1.7553 -0.8928
 5552TIP3    H216621   4.726   0.745   4.610 -0.5515 -2.5002  0.5325
 5553TIP3   OH216622   1.568   6.296   1.786  0.4808 -0.4106 -0.0184
 5553TIP3    H116623   1.489   6.339   1.819  0.6352  0.8002 -1.1223
 5553TIP3    H216624   1.638   6.359   1.805  0.5255  0.5143 -2.8171
 5554TIP3   OH216625   4.410   6.753   0.241  0.4579  0.2930  0.3718
 5554TIP3    H116626   4.407   6.698   0.320  3.9650  0.2921  0.7007
 5554TIP3    H216627   4.456   6.699   0.176 -0.1488  1.2064 -0.8482
 5555TIP3   OH216628   6.350   1.652   2.675  0.3672  0.1356 -0.0401
 5555TIP3    H116629   6.260   1.671   2.651  1.1582  0.7098 -2.9273
 5555TIP3    H216630   6.383   1.598   2.603  2.6995  1.0309  0.2773
 5556TIP3   OH216631   6.604   6.589   1.259  0.1259 -0.2419 -0.2659
 5556TIP3    H116632   6.514   6.580   1.229 -0.8943 -0.6356  2.6315
 5556TIP3    H216633   6.613   6.522   1.327  1.6749  1.6273  1.4947
 5557TIP3   OH216634   1.040   6.162   1.509  0.3528 -0.7198  0.4625
 5557TIP3    H116635   1.107   6.145   1.575  0.4352  1.6982  1.1165
 5557TIP3    H216636   0.961   6.180   1.560 -0.5942 -2.5640 -0.2715
 5558TIP3   OH216637   0.809   5.331   0.473  0.0971  0.0120  0.0490
 5558TIP3    H116638   0.893   5.339   0.518  0.3191  0.9353 -0.5064
 5558TIP3    H216639   0.818   5.254   0.418 -0.3174 -1.3889  1.8363
 5559TIP3   OH216640   1.414   5.214   1.583 -1.1208  0.0646  0.2614
 5559TIP3    H116641   1.349   5.145   1.595 -0.3945 -0.5606  0.7116
 5559TIP3    H216642   1.497   5.174   1.610 -0.8799  1.5383  1.8974
 5560TIP3   OH216643   4.522   3.593   4.606 -0.4700  0.0433 -0.1187
 5560TIP3    H116644   4.537   3.549   4.690 -2.7716  1.2060  1.0020
 5560TIP3    H216645   4.575   3.673   4.611  1.2426 -0.9941 -0.8321
 5561TIP3   OH216646   2.051   5.118   4.661  0.3434 -0.0022 -0.3046
 5561TIP3    H116647   1.973   5.162   4.696  1.0442 -0.0690  1.4402
 5561TIP3    H216648   2.018   5.032   4.632 -0.6222  0.7973 -1.7013
 5562TIP3   OH216649   2.859   5.586   2.569  0.0800  0.5081 -0.2508
 5562TIP3    H116650   2.765   5.575   2.583  0.0339  0.7483 -0.3716
 5562TIP3    H216651   2.884   5.511   2.515 -0.2388  0.9894 -1.0812
 5563TIP3   OH216652   0.732   3.839   1.287 -0.5062 -0.1548  0.2069
 5563TIP3    H116653   0.729   3.911   1.350  0.7764 -0.6357  0.8394
 5563TIP3    H216654   0.688   3.766   1.332 -2.6948  0.4627 -0.8041
 5564TIP3   OH216655   5.908   4.709   0.368  0.8864  0.0557  0.6844
 5564TIP3    H116656   5.902   4.749   0.281  1.5005 -0.9563  0.1608
 5564TIP3    H216657   5.945   4.623   0.353  0.6588 -0.2852  1.9238
 5565TIP3   OH216658   1.995   0.353   2.494  0.3205 -0.3025  0.4147
 5565TIP3    H116659   1.954   0.266   2.493 -2.8481  1.0342 -1.6636
 5565TIP3    H216660   2.045   0.356   2.412 -0.3134  0.0966  0.0327
 5566TIP3   OH216661   3.133   2.327   5.101  0.0677  0.1879  0.6872
 5566TIP3    H116662   3.195   2.326   5.028 -0.8668  0.0731 -0.1171
 5566TIP3    H216663   3.056   2.281   5.068  0.2316 -1.3260  2.2962
 5567TIP3   OH216664   5.840   6.451   2.091  0.0258 -0.1523  0.4669
 5567TIP3    H116665   5.816   6.384   2.155  0.9075 -0.2765  0.6807
 5567TIP3    H216666   5.793   6.425   2.011 -1.3994  0.2292  1.1459
 5568TIP3   OH216667   0.461   6.598   4.074  0.2931  0.3867  0.6753
 5568TIP3    H116668   0.546   6.631   4.101  1.7306 -2.7678  0.4079
 5568TIP3    H216669   0.406   6.607   4.152  1.2130  1.3367  1.2347
 5569TIP3   OH216670   6.674   1.061   1.432  0.1354  0.2773 -0.4144
 5569TIP3    H116671   6.732   1.106   1.370  1.6966 -0.5929  0.3441
 5569TIP3    H216672   6.592   1.051   1.385 -0.0846  3.2662 -0.8793
 5570TIP3   OH216673   2.274   3.041   4.190 -0.1395  0.1295 -0.0897
 5570TIP3    H116674   2.181   3.064   4.184 -0.1645  0.5626  1.6219
 5570TIP3    H216675   2.318   3.124   4.207  0.3718 -0.3133  0.7853
 5571TIP3   OH216676   5.516   6.590   5.525  0.1728  0.4641 -1.0783
 5571TIP3    H116677   5.585   6.544   5.573  0.0638  0.9976 -0.4051
 5571TIP3    H216678   5.561   6.631   5.451  0.6650  1.2129 -0.3704
 5572TIP3   OH216679   0.445   1.126   3.732 -0.4626  0.4301  0.2105
 5572TIP3    H116680   0.526   1.100   3.688 -0.2297 -2.4848  2.0840
 5572TIP3    H216681   0.429   1.215   3.701  3.2607  1.0500 -0.4956
 5573TIP3   OH216682   3.574   6.231   0.368  0.0262 -0.0835  0.1217
 5573TIP3    H116683   3.606   6.152   0.411 -2.1678 -1.4437 -0.5877
 5573TIP3    H216684   3.602   6.222   0.277 -0.8815 -0.4555 -0.1309
 5574TIP3   OH216685   1.793   2.046   5.602  0.4659  0.8725 -0.0668
 5574TIP3    H116686   1.767   2.064   5.511  2.6656 -0.1014 -0.9530
 5574TIP3    H216687   1.784   1.951   5.611 -0.8176  1.0783  1.1474
 5575TIP3   OH216688   0.453   3.399   3.024 -0.2742  0.2522 -0.0326
 5575TIP3    H116689   0.529   3.351   3.058 -0.1758  0.2942 -0.1925
 5575TIP3    H216690   0.381   3.375   3.083  0.0056  0.7058  0.4961
 5576TIP3   OH216691   3.762   1.970   0.621  0.1668  0.3814  0.3296
 5576TIP3    H116692   3.739   2.037   0.685  0.5965  0.2360  0.6427
 5576TIP3    H216693   3.774   2.018   0.539  0.1072  0.6380  0.4712
 5577TIP3   OH216694   4.551   2.389   2.265  0.2023  0.1861 -0.1276
 5577TIP3    H116695   4.525   2.297   2.263 -1.3793  0.6080  0.0917
 5577TIP3    H216696   4.592   2.400   2.351  0.7654 -0.3972 -0.3115
 5578TIP3   OH216697   5.113   1.506   4.820  0.1057  0.1678 -0.2418
 5578TIP3    H116698   5.157   1.434   4.775 -0.2589 -0.4582  0.3753
 5578TIP3    H216699   5.044   1.463   4.871 -0.3865  0.9990 -0.1882
 5579TIP3   OH216700   6.727   5.658   3.679  0.9727 -0.2707 -0.3835
 5579TIP3    H116701   6.800   5.693   3.730  0.7052 -0.7491  0.3551
 5579TIP3    H216702   6.768   5.609   3.608  1.3585  1.4922 -1.4488
 5580TIP3   OH216703   4.086   4.515   4.345 -0.1568  0.1966  0.1954
 5580TIP3    H116704   4.069   4.540   4.254  0.6511  2.4318  0.6046
 5580TIP3    H216705   4.025   4.567   4.397 -1.2928 -1.7701  0.9565
 5581TIP3   OH216706   5.120   2.880   5.107  0.2573  0.4506 -0.5085
 5581TIP3    H116707   5.097   2.942   5.176 -0.1382 -0.7420  0.4515
 5581TIP3    H216708   5.148   2.801   5.153  1.7959  0.2560 -1.6915
 5582TIP3   OH216709   4.033   6.405   4.545 -0.1243  0.0487  0.1523
 5582TIP3    H116710   3.952   6.373   4.585  0.1877 -2.4209 -1.0011
 5582TIP3    H216711   4.103   6.364   4.595  0.3367  0.1310 -0.4105
 5583TIP3   OH216712   1.794   3.256   0.928  0.1360 -0.1791 -0.0806
 5583TIP3    H116713   1.840   3.225   1.006  0.7578  2.5336  0.7277
 5583TIP3    H216714   1.723   3.193   0.917  1.1678 -1.7443  1.5068
 5584TIP3   OH216715   0.737   4.796   4.235  0.2113 -0.0013  0.8002
 5584TIP3    H116716   0.741   4.721   4.294 -1.5772  0.3826  1.4609
 5584TIP3    H216717   0.702   4.867   4.289  2.4360  1.5479  0.3815
 5585TIP3   OH216718   5.491   4.459   0.036 -0.1810  0.1279  0.0878
 5585TIP3    H116719   5.404   4.453   0.075  0.2112  0.7437  1.1076
 5585TIP3    H216720   5.544   4.503   0.103  1.0245 -0.6400 -0.3397
 5586TIP3   OH216721   4.183   3.677   3.842  0.2048 -0.3428  0.1134
 5586TIP3    H116722   4.148   3.766   3.848  2.7059  0.7876 -0.4385
 5586TIP3    H216723   4.172   3.654   3.749 -0.5447 -0.6597  0.2794
 5587TIP3   OH216724   4.244   1.554   4.103  0.4182  0.2456  0.6517
 5587TIP3    H116725   4.190   1.474   4.102 -0.7886  1.0309  0.7341
 5587TIP3    H216726   4.276   1.562   4.013 -0.5459  0.3616  0.3017
 5588TIP3   OH216727   3.109   5.755   0.911 -0.1098  0.0035 -0.6523
 5588TIP3    H116728   3.036   5.814   0.891  0.9434  1.5775 -0.0703
 5588TIP3    H216729   3.107   5.689   0.842 -1.7832  0.2941 -0.9079
 5589TIP3   OH216730   0.462   5.749   5.842 -0.3335  0.6479  0.1856
 5589TIP3    H116731   0.412   5.743   5.924 -0.3057 -1.0901  0.1085
 5589TIP3    H216732   0.415   5.693   5.781  1.0468 -0.0865 -0.2326
 5590TIP3   OH216733   6.739   4.228   0.479  0.2352  0.0095 -0.0557
 5590TIP3    H116734   6.820   4.182   0.501  0.7929  0.9361 -0.0915
 5590TIP3    H216735   6.734   4.299   0.543  0.1024  0.7007 -0.8130
 5591TIP3   OH216736   0.734   2.775   3.885  0.2022  0.0542 -0.2233
 5591TIP3    H116737   0.811   2.826   3.910  0.5844 -0.8042  0.3996
 5591TIP3    H216738   0.664   2.840   3.877  1.5895  1.3526 -3.9069
 5592TIP3   OH216739   3.306   6.699   2.997  0.8477 -0.4408  0.1233
 5592TIP3    H116740   3.297   6.756   2.920  1.0505 -0.0514  0.3778
 5592TIP3    H216741   3.280   6.755   3.070 -0.0266 -1.0262  0.2729
 5593TIP3   OH216742   2.803   0.358   2.665 -0.4055  0.5140  0.7818
 5593TIP3    H116743   2.867   0.332   2.732  1.2762  1.6565 -0.2934
 5593TIP3    H216744   2.777   0.277   2.623  1.3644  0.1039  0.3933
 5594TIP3   OH216745   0.693   6.787   0.826  0.0356  0.1640  0.9161
 5594TIP3    H116746   0.687   6.693   0.810 -0.8241 -0.0030  2.0411
 5594TIP3    H216747   0.733   6.823   0.747  1.5615 -1.2918  0.9861
 5595TIP3   OH216748   2.520   5.044   4.052 -1.1194 -0.3020 -0.5505
 5595TIP3    H116749   2.614   5.039   4.068 -0.8878 -0.0651 -1.7518
 5595TIP3    H216750   2.500   4.969   3.996 -1.8416 -0.9070  0.4691
 5596TIP3   OH216751   1.037   1.890   1.712 -0.3143  0.1510 -0.2598
 5596TIP3    H116752   1.085   1.860   1.789  0.0797 -0.2602 -0.6607
 5596TIP3    H216753   1.073   1.839   1.640 -0.8330  0.3775 -0.6855
 5597TIP3   OH216754   5.352   6.301   2.766 -0.0233  0.6012  0.2233
 5597TIP3    H116755   5.258   6.314   2.782  0.0364 -0.3195  1.4491
 5597TIP3    H216756   5.390   6.389   2.775 -0.7854  1.0285 -0.5365
 5598TIP3   OH216757   3.985   3.317   5.023 -0.6889 -0.5420  0.5988
 5598TIP3    H116758   3.993   3.323   4.928  0.1279  2.8865  0.7269
 5598TIP3    H216759   4.068   3.280   5.052  0.0728  0.6442  0.0306
 5599TIP3   OH216760   4.103   0.909   1.098  0.3773  0.2177  0.1823
 5599TIP3    H116761   4.034   0.942   1.155  1.5039 -0.7594  2.2372
 5599TIP3    H216762   4.184   0.943   1.136  1.1674 -0.4302 -0.8658
 5600TIP3   OH216763   2.773   1.587   3.962 -0.1522  0.2243 -0.3744
 5600TIP3    H116764   2.773   1.534   4.042  0.6042  0.1906 -0.3846
 5600TIP3    H216765   2.865   1.589   3.935 -0.4109  0.1647 -1.2948
 5601TIP3   OH216766   4.979   0.087   2.068  0.0725  0.1559 -0.1462
 5601TIP3    H116767   4.992   0.029   2.143  2.0417 -3.3915 -2.8997
 5601TIP3    H216768   4.888   0.072   2.041 -1.1698  2.6014  2.1366
 5602TIP3   OH216769   2.459   1.182   2.276  0.2049  0.4301 -0.1074
 5602TIP3    H116770   2.431   1.221   2.359  1.1502  0.4989  0.1942
 5602TIP3    H216771   2.440   1.089   2.285 -1.5134  0.6960 -0.5971
 5603TIP3   OH216772   5.285   0.857   2.486 -0.4100  0.3445 -0.0687
 5603TIP3    H116773   5.202   0.904   2.492 -1.6104 -1.1218 -3.1294
 5603TIP3    H216774   5.265   0.770   2.521 -0.2129 -0.0290 -0.8645
 5604TIP3   OH216775   4.432   3.680   0.172 -0.1397 -0.4245 -0.1803
 5604TIP3    H116776   4.339   3.686   0.195 -0.3847  0.2185 -1.2875
 5604TIP3    H216777   4.434   3.688   0.077  0.9848 -1.4126 -0.2615
 5605TIP3   OH216778   6.386   1.577   0.080 -0.3082  0.1214  0.3043
 5605TIP3    H116779   6.332   1.654   0.063  0.7660  1.3067  1.8945
 5605TIP3    H216780   6.472   1.613   0.103  0.1249 -1.5256  1.4632
 5606TIP3   OH216781   5.791   1.011   5.828 -0.2244  0.3785  0.2455
 5606TIP3    H116782   5.774   0.976   5.740  0.2115  1.2590 -0.2036
 5606TIP3    H216783   5.758   0.944   5.887  1.2770 -1.1624 -0.5714
 5607TIP3   OH216784   0.685   2.892   0.891  0.3801  0.2224 -0.0479
 5607TIP3    H116785   0.686   2.797   0.877 -1.1097 -0.0123  1.0861
 5607TIP3    H216786   0.660   2.901   0.984 -0.5300  1.7146 -0.4043
 5608TIP3   OH216787   0.913   4.071   1.382  0.1499  0.8573 -0.6343
 5608TIP3    H116788   0.838   4.058   1.440 -0.0895 -0.3798 -1.1877
 5608TIP3    H216789   0.958   3.987   1.382  0.1469  0.8122 -2.2165
 5609TIP3   OH216790   5.315   4.096   3.894 -0.3717  0.4129 -0.3625
 5609TIP3    H116791   5.306   4.175   3.948  0.1601 -0.5211  1.1467
 5609TIP3    H216792   5.226   4.063   3.886 -0.4734  0.6303 -0.1568
 5610TIP3   OH216793   0.889   3.225   0.174 -0.0057 -0.9295  0.3339
 5610TIP3    H116794   0.897   3.293   0.107  0.6541 -0.9635  0.3719
 5610TIP3    H216795   0.799   3.232   0.205  0.0116 -0.1862  0.2208
 5611TIP3   OH216796   7.021   5.664   4.741  0.4905  0.5491 -0.4023
 5611TIP3    H116797   7.117   5.661   4.741  0.6846  2.9612 -2.5180
 5611TIP3    H216798   7.000   5.736   4.682 -2.6723 -0.3241 -0.5007
 5612TIP3   OH216799   5.594   4.993   5.240 -0.5636 -0.7036  0.2441
 5612TIP3    H116800   5.525   5.003   5.174  0.1358  1.3273 -0.2416
 5612TIP3    H216801   5.560   5.035   5.318 -0.1066 -0.1874  0.1703
 5613TIP3   OH216802   7.049   2.595   4.972  0.2254 -0.2785  0.2023
 5613TIP3    H116803   6.966   2.638   4.993 -0.1769 -1.0595  0.2311
 5613TIP3    H216804   7.084   2.566   5.056  0.4004 -0.1896  0.1620
 5614TIP3   OH216805   5.101   2.269   3.137  0.3730  0.4460 -0.3479
 5614TIP3    H116806   5.129   2.193   3.087  0.5536 -0.3725  0.9457
 5614TIP3    H216807   5.177   2.292   3.191  0.2620  1.4415 -0.6016
 5615TIP3   OH216808   6.520   3.954   0.655 -0.1329 -0.2229  0.3302
 5615TIP3    H116809   6.435   3.910   0.649  0.5550 -1.7499  1.1939
 5615TIP3    H216810   6.498   4.045   0.677 -1.5565 -0.4435 -0.0858
 5616TIP3   OH216811   3.557   1.474   2.626  0.2049 -0.3862  0.6558
 5616TIP3    H116812   3.482   1.416   2.612  1.6944 -2.1972 -0.3544
 5616TIP3    H216813   3.612   1.427   2.689  0.8258  0.5676  0.8386
 5617TIP3   OH216814   1.527   4.111   1.711 -0.4959 -0.4006 -0.3171
 5617TIP3    H116815   1.450   4.161   1.738 -1.0175 -1.0442 -0.5907
 5617TIP3    H216816   1.597   4.142   1.769 -1.2771 -0.8018  0.8837
 5618TIP3   OH216817   5.336   4.044   4.983 -0.0467 -0.4438  0.2305
 5618TIP3    H116818   5.432   4.043   4.978 -0.0162 -1.4366  0.8827
 5618TIP3    H216819   5.316   4.120   5.038  0.3801 -0.4251  0.3659
 5619TIP3   OH216820   0.085   2.537   0.332  0.5246  0.5112  0.3518
 5619TIP3    H116821   0.096   2.611   0.272  1.0828  0.2645  0.1427
 5619TIP3    H216822   0.158   2.479   0.312 -1.2373 -1.3211 -1.2255
 5620TIP3   OH216823   5.958   3.507   4.605  0.0677  0.1047  0.0024
 5620TIP3    H116824   6.023   3.436   4.600 -0.3508 -0.2131 -1.4455
 5620TIP3    H216825   5.891   3.474   4.664  0.7969  0.0966  0.8560
 5621TIP3   OH216826   2.803   4.184   3.634  0.4298 -0.3297 -0.5377
 5621TIP3    H116827   2.824   4.195   3.541 -2.1890  2.3658 -0.9557
 5621TIP3    H216828   2.724   4.129   3.635 -0.2064  0.5593 -0.0390
 5622TIP3   OH216829   0.232   0.080   0.817  0.4112  0.0305  0.1590
 5622TIP3    H116830   0.302   0.125   0.864 -0.9247  2.4351 -0.0150
 5622TIP3    H216831   0.225   0.126   0.733 -0.3544 -1.1788 -0.4756
 5623TIP3   OH216832   1.101   5.000   2.269 -0.4096  0.1204  0.8222
 5623TIP3    H116833   1.137   4.913   2.253 -0.3034  0.0757  1.2893
 5623TIP3    H216834   1.141   5.028   2.352  3.7015  2.7725 -1.6618
 5624TIP3   OH216835   0.697   6.058   3.728 -0.0439 -0.4244 -0.0103
 5624TIP3    H116836   0.684   5.990   3.793 -0.6456 -0.5963 -0.2988
 5624TIP3    H216837   0.609   6.078   3.697  0.1591  0.2501 -0.1648
 5625TIP3   OH216838   3.638   5.220   1.201  0.3367 -0.4618  0.1807
 5625TIP3    H116839   3.642   5.312   1.176  1.7557 -0.8532 -1.1766
 5625TIP3    H216840   3.594   5.220   1.287 -1.0908  1.3087 -0.4920
 5626TIP3   OH216841   2.337   6.527   5.829 -0.1836 -0.1555 -0.0931
 5626TIP3    H116842   2.363   6.481   5.749 -0.4226  0.1474 -0.3472
 5626TIP3    H216843   2.319   6.617   5.800 -0.6161 -0.1332  0.2406
 5627TIP3   OH216844   6.895   2.292   3.637 -0.2094 -0.6031  0.2968
 5627TIP3    H116845   6.830   2.357   3.611 -0.8574 -0.6122  1.7425
 5627TIP3    H216846   6.931   2.326   3.719  1.9669 -0.3871 -0.7005
 5628TIP3   OH216847   6.666   1.489   5.552  0.0156  0.6989 -0.0449
 5628TIP3    H116848   6.737   1.461   5.610 -0.7005  0.5954  0.8088
 5628TIP3    H216849   6.613   1.410   5.538 -1.9570  1.4918  2.2945
 5629TIP3   OH216850   4.354   0.907   2.190  0.5343 -0.0752 -0.6573
 5629TIP3    H116851   4.336   0.974   2.256  0.1441  0.5514 -1.3813
 5629TIP3    H216852   4.269   0.863   2.178  0.6017 -0.1762 -0.7589
 5630TIP3   OH216853   4.567   6.100   4.872 -0.6210  0.0463 -0.5648
 5630TIP3    H116854   4.526   6.013   4.872  0.0932 -0.3547  1.7865
 5630TIP3    H216855   4.496   6.160   4.851 -1.7216 -0.9120  0.2672
 5631TIP3   OH216856   7.070   0.018   2.447  0.0414  0.5310  0.2703
 5631TIP3    H116857   6.998   0.076   2.472 -0.2313  0.4840 -0.3910
 5631TIP3    H216858   7.045  -0.015   2.361  0.4677 -0.1282  0.3977
 5632TIP3   OH216859   5.101   0.342   1.748 -0.0873 -0.5569  0.0908
 5632TIP3    H116860   5.137   0.284   1.815  0.5674 -3.0887 -2.2715
 5632TIP3    H216861   5.178   0.379   1.704 -0.5008  0.3696  0.1041
 5633TIP3   OH216862   0.666   4.936   1.716  0.6739 -0.5994 -0.2016
 5633TIP3    H116863   0.684   4.858   1.768  0.0669 -0.0745  0.8232
 5633TIP3    H216864   0.689   4.911   1.627  0.9514 -1.7889  0.1867
 5634TIP3   OH216865   4.995   5.021   5.759 -0.6026 -0.0158 -0.2873
 5634TIP3    H116866   4.970   5.036   5.850  1.1502 -0.1765  0.2698
 5634TIP3    H216867   4.929   4.961   5.725 -2.3795  1.5142  0.2643
 5635TIP3   OH216868   1.663   2.478   3.776 -0.2826  0.1360 -0.1951
 5635TIP3    H116869   1.699   2.438   3.696  0.9006 -0.2547  0.5112
 5635TIP3    H216870   1.738   2.485   3.835 -0.9474  1.3111  0.5427
 5636TIP3   OH216871   2.986   2.713   4.443 -0.0620 -0.3712 -0.2464
 5636TIP3    H116872   2.946   2.778   4.502 -0.2508  0.9452 -1.7540
 5636TIP3    H216873   2.935   2.720   4.362  0.6366 -1.6208 -0.8173
 5637TIP3   OH216874   6.565   5.322   3.996 -0.1253  0.7876  0.0040
 5637TIP3    H116875   6.655   5.330   3.964 -0.9097 -0.2570 -2.7632
 5637TIP3    H216876   6.546   5.407   4.035  1.7343  1.3639 -0.2239
 5638TIP3   OH216877   0.817   2.289   0.888  0.3752 -0.0677 -0.0484
 5638TIP3    H116878   0.880   2.219   0.871 -0.7327 -1.3017  0.7481
 5638TIP3    H216879   0.802   2.330   0.803  1.6195 -0.2647 -0.3849
 5639TIP3   OH216880   4.676   4.283   2.213  0.6158  0.2580 -0.0428
 5639TIP3    H116881   4.752   4.320   2.169  1.8534 -1.8584  0.1908
 5639TIP3    H216882   4.712   4.218   2.273 -1.3691 -0.7960  0.0910
 5640TIP3   OH216883   4.680   5.260   5.230  0.0308 -0.2942 -0.0265
 5640TIP3    H116884   4.648   5.328   5.288 -0.8035 -0.0921 -0.7013
 5640TIP3    H216885   4.772   5.249   5.254 -0.1208  0.2672  0.8483
 5641TIP3   OH216886   3.493   2.515   3.368 -0.8596  0.0528  0.3825
 5641TIP3    H116887   3.454   2.522   3.281 -0.4914  0.3030  0.2347
 5641TIP3    H216888   3.561   2.448   3.359 -2.1741 -1.4009  0.9832
 5642TIP3   OH216889   0.663   0.337   2.158 -0.1897 -0.1611 -0.4591
 5642TIP3    H116890   0.724   0.265   2.169 -0.6429 -0.1640  2.8653
 5642TIP3    H216891   0.580   0.305   2.194 -0.8796  1.3921 -0.5684
 5643TIP3   OH216892   6.689   1.093   4.695 -0.2072  0.4729  0.1255
 5643TIP3    H116893   6.661   1.053   4.613 -0.9033  1.3447 -0.0795
 5643TIP3    H216894   6.783   1.109   4.683  0.5934 -2.8727  0.9868
 5644TIP3   OH216895   2.336   0.562   0.828  0.0323  0.2008 -0.3586
 5644TIP3    H116896   2.339   0.470   0.855  1.1584 -0.2853 -1.9407
 5644TIP3    H216897   2.377   0.562   0.741  0.4300  2.2765 -0.2161
 5645TIP3   OH216898   3.294   6.104   5.660  0.2050  0.5055  0.2083
 5645TIP3    H116899   3.251   6.044   5.598  1.1994 -0.5079  0.4533
 5645TIP3    H216900   3.231   6.114   5.732  0.3783 -1.0254  0.6095
 5646TIP3   OH216901   3.946   6.749   2.504 -0.4928 -0.0185 -0.1485
 5646TIP3    H116902   3.907   6.728   2.589 -1.9718  0.7118 -0.6115
 5646TIP3    H216903   4.002   6.824   2.522  1.2522 -1.4301  0.6366
 5647TIP3   OH216904   3.032   4.778   1.101  0.0930 -0.1716  0.0307
 5647TIP3    H116905   3.082   4.859   1.113  1.1423 -0.8123  0.1268
 5647TIP3    H216906   2.947   4.807   1.067  0.5431  0.9478 -0.1902
 5648TIP3   OH216907   0.320   4.362   4.790 -0.1826 -0.5005  0.1889
 5648TIP3    H116908   0.228   4.353   4.813 -0.0083  0.1959  1.2194
 5648TIP3    H216909   0.360   4.405   4.866  0.5786  1.1615 -1.0742
 5649TIP3   OH216910   2.701   3.611   2.134  0.3276  0.2064  0.2101
 5649TIP3    H116911   2.739   3.646   2.215 -1.2245  0.2362  0.9614
 5649TIP3    H216912   2.632   3.552   2.164  0.7653 -1.0154 -1.0909
 5650TIP3   OH216913   0.922   3.363   2.375 -0.2781  0.1809 -0.5902
 5650TIP3    H116914   0.882   3.307   2.310 -2.5923  1.8282 -0.7031
 5650TIP3    H216915   0.855   3.375   2.442  1.4378 -0.0944  1.2654
 5651TIP3   OH216916  -0.003   0.042   5.189 -0.0601  0.7575 -0.1573
 5651TIP3    H116917  -0.021  -0.025   5.255 -1.0728  1.4148  0.2656
 5651TIP3    H216918   0.062   0.099   5.230  1.0387 -0.1075 -0.6366
 5652TIP3   OH216919   7.013   5.824   0.635 -0.1417  0.2847 -0.2976
 5652TIP3    H116920   7.040   5.887   0.701 -0.9816 -1.1597  1.5358
 5652TIP3    H216921   6.961   5.874   0.572  1.1237  1.7993 -0.1716
 5653TIP3   OH216922   0.727   0.662   5.498  0.5097 -0.4293  0.5183
 5653TIP3    H116923   0.815   0.686   5.467  0.2175 -2.4029 -2.1635
 5653TIP3    H216924   0.668   0.716   5.447  0.1180 -0.4495  0.9508
 5654TIP3   OH216925   1.634   5.958   2.779 -0.2721  0.4259  0.0306
 5654TIP3    H116926   1.549   5.975   2.820  0.4267  1.1697  1.2415
 5654TIP3    H216927   1.654   6.039   2.732  0.0471  0.4895  0.2735
 5655TIP3   OH216928   4.918   1.629   3.983  0.2695 -0.7357 -0.2836
 5655TIP3    H116929   4.898   1.721   3.999  2.1364 -0.4566  0.6956
 5655TIP3    H216930   4.881   1.582   4.058 -0.2134 -0.7307 -0.5146
 5656TIP3   OH216931   5.156   3.265   2.709  0.2353  0.0893  0.6238
 5656TIP3    H116932   5.242   3.250   2.670  0.3678  1.2877  0.4385
 5656TIP3    H216933   5.166   3.236   2.800  0.6848 -0.2297  0.4790
 5657TIP3   OH216934   3.893   5.162   4.039  0.1491 -0.1621  0.0913
 5657TIP3    H116935   3.874   5.216   4.116 -1.7879  0.4162 -0.7417
 5657TIP3    H216936   3.867   5.074   4.065 -1.8805  0.2736 -0.3395
 5658TIP3   OH216937   1.301   0.352   3.498 -0.1304  0.1471  0.4911
 5658TIP3    H116938   1.268   0.309   3.420 -1.3006  3.1065 -0.7678
 5658TIP3    H216939   1.388   0.313   3.512 -0.1061 -0.8072 -1.9656
 5659TIP3   OH216940   5.487   6.679   3.414 -0.4168 -0.3582  0.5719
 5659TIP3    H116941   5.449   6.620   3.349  0.4127 -1.2644  0.8928
 5659TIP3    H216942   5.413   6.709   3.466 -0.8236 -1.3278  0.5654
 5660TIP3   OH216943   5.666   5.437   1.999 -0.4820  0.0227 -0.1141
 5660TIP3    H116944   5.606   5.510   2.014  0.1514  0.9508 -1.7621
 5660TIP3    H216945   5.618   5.379   1.940 -0.9077 -0.8236  1.0357
 5661TIP3   OH216946   2.678   2.163   2.453  0.3479  0.6759 -0.5783
 5661TIP3    H116947   2.600   2.194   2.408  0.3864 -0.2570 -1.3237
 5661TIP3    H216948   2.646   2.126   2.535 -0.3894 -1.9668 -1.9184
 5662TIP3   OH216949   6.193   3.266   1.403 -0.9803 -0.1219  0.6910
 5662TIP3    H116950   6.122   3.331   1.407 -1.0957 -0.2340  0.4780
 5662TIP3    H216951   6.242   3.280   1.484 -1.1942  0.0153  0.7996
 5663TIP3   OH216952   0.879   1.441   3.176  0.1529 -0.6002  0.1653
 5663TIP3    H116953   0.788   1.414   3.184  0.2630 -1.2898 -0.7154
 5663TIP3    H216954   0.883   1.488   3.093  0.4870 -0.0628  0.4791
 5664TIP3   OH216955   2.473   5.164   1.520  0.2031  0.3709  0.5614
 5664TIP3    H116956   2.561   5.130   1.535  0.0896 -0.1592  0.0495
 5664TIP3    H216957   2.460   5.157   1.426 -1.6755 -2.8412  0.9223
 5665TIP3   OH216958   0.187   4.906   2.018  0.0063 -0.2743  0.2211
 5665TIP3    H116959   0.093   4.905   2.034 -0.2694 -0.3033 -1.2670
 5665TIP3    H216960   0.206   4.819   1.984  0.2992  0.1711 -0.8076
 5666TIP3   OH216961   3.235   1.522   1.699  0.2003  0.1877  1.0925
 5666TIP3    H116962   3.297   1.568   1.756 -1.6501  1.6423  2.0672
 5666TIP3    H216963   3.249   1.561   1.612  1.0272  0.0851  1.1763
 5667TIP3   OH216964   1.691   1.490   1.876  0.1845  0.1633 -0.0278
 5667TIP3    H116965   1.774   1.452   1.905 -0.9971 -1.1166  1.9069
 5667TIP3    H216966   1.625   1.428   1.907 -1.5159  1.3085 -1.2457
 5668TIP3   OH216967   2.908   0.641   4.255 -0.2200 -0.6875 -0.1627
 5668TIP3    H116968   2.885   0.592   4.176  0.8921 -1.3504 -0.0955
 5668TIP3    H216969   3.002   0.625   4.267 -0.1554  0.2372  0.7213
 5669TIP3   OH216970   1.887   1.585   4.487  1.0648 -0.1641  0.5198
 5669TIP3    H116971   1.859   1.539   4.408 -0.1110 -0.3126  1.0017
 5669TIP3    H216972   1.850   1.533   4.559  1.0040  0.6935  1.1149
 5670TIP3   OH216973   4.417   6.511   2.985  0.5015 -0.3631 -0.7814
 5670TIP3    H116974   4.495   6.546   2.942  1.1044 -0.9860 -0.1990
 5670TIP3    H216975   4.365   6.475   2.913  0.1840  1.0796 -1.3145
 5671TIP3   OH216976   5.869   4.084   3.923 -0.6254  0.0505  0.2122
 5671TIP3    H116977   5.955   4.104   3.960 -0.8531 -0.6341  1.1579
 5671TIP3    H216978   5.888   4.048   3.837  0.0598 -0.3564  0.5225
 5672TIP3   OH216979   4.226   2.735   2.722  0.3004  0.0308  0.3838
 5672TIP3    H116980   4.175   2.654   2.724 -0.6642  0.5947 -0.1692
 5672TIP3    H216981   4.271   2.738   2.806 -1.0975 -0.1766  1.1634
 5673TIP3   OH216982   4.808   4.688   2.236  0.2412  0.2368  0.2114
 5673TIP3    H116983   4.810   4.776   2.273  0.2297  0.3077  0.0453
 5673TIP3    H216984   4.773   4.700   2.147 -0.5418 -0.0342  0.4704
 5674TIP3   OH216985   4.926   4.408   2.174 -0.1019  0.1187 -0.1448
 5674TIP3    H116986   4.997   4.381   2.232  0.0691  3.2346  1.2532
 5674TIP3    H216987   4.897   4.493   2.208 -3.9876 -0.6033 -1.1473
 5675TIP3   OH216988   6.221   1.620   3.521  1.1331  0.0012  0.1565
 5675TIP3    H116989   6.188   1.710   3.520  0.2823 -0.2949 -0.0371
 5675TIP3    H216990   6.271   1.612   3.440 -0.1906 -0.1702 -0.6809
 5676TIP3   OH216991   1.472   0.076   2.009  0.1651  0.0697 -0.0869
 5676TIP3    H116992   1.564   0.100   2.017  0.7275 -2.3896  2.2563
 5676TIP3    H216993   1.449   0.038   2.094 -2.8724  0.0443 -0.7852
 5677TIP3   OH216994   5.876   4.684   5.800  0.2790  0.1153  0.1958
 5677TIP3    H116995   5.800   4.627   5.796 -0.3935  1.0385 -0.5606
 5677TIP3    H216996   5.845   4.763   5.843 -0.1382  1.8318 -2.9739
 5678TIP3   OH216997   7.085   1.265   4.909 -0.1726 -0.0177 -0.8439
 5678TIP3    H116998   7.081   1.358   4.887  1.6875 -0.3268 -2.8826
 5678TIP3    H216999   7.120   1.262   4.998 -0.2548  1.2084 -0.7590
 5679TIP3   OH217000   2.930   4.032   1.199 -0.0643 -0.1684  0.2808
 5679TIP3    H117001   3.008   4.085   1.180  0.1472 -0.8245 -0.7408
 5679TIP3    H217002   2.867   4.095   1.233  0.8407  0.4119  0.9378
 5680TIP3   OH217003   2.407   2.844   4.948 -0.3803 -0.5650  0.6664
 5680TIP3    H117004   2.338   2.855   5.013 -0.0752 -0.5785  0.9898
 5680TIP3    H217005   2.461   2.773   4.981 -1.0792 -1.6036 -0.3353
 5681TIP3   OH217006   5.301   1.148   0.605 -0.4102  0.7141 -0.4372
 5681TIP3    H117007   5.210   1.180   0.606 -0.7192 -0.0120 -2.0866
 5681TIP3    H217008   5.354   1.227   0.616 -1.2078  1.5207 -2.0006
 5682TIP3   OH217009   6.197   6.669   2.283  0.6228  0.4626 -0.0991
 5682TIP3    H117010   6.219   6.720   2.361 -0.9176  1.5509 -0.3104
 5682TIP3    H217011   6.101   6.667   2.283  0.6072 -0.0732 -1.6023
 5683TIP3   OH217012   0.607   4.678   3.783  0.2382  0.5988 -0.4423
 5683TIP3    H117013   0.703   4.682   3.779  0.3185 -1.1279 -1.0680
 5683TIP3    H217014   0.580   4.673   3.691 -0.5000  1.5844 -0.2887
 5684TIP3   OH217015   1.819   2.717   5.715 -0.3295  0.2865  0.4371
 5684TIP3    H117016   1.901   2.699   5.762 -1.9447  1.7114  4.1649
 5684TIP3    H217017   1.809   2.812   5.719 -0.5955  0.5287 -3.0673
 5685TIP3   OH217018   7.143   3.811   2.705 -0.3352 -0.0336  0.6033
 5685TIP3    H117019   7.229   3.806   2.747 -0.3256 -2.0425  0.4441
 5685TIP3    H217020   7.161   3.796   2.612 -0.6464  1.7701  0.2147
 5686TIP3   OH217021   6.351   4.355   5.581 -0.0174  0.4595  0.2194
 5686TIP3    H117022   6.276   4.316   5.626 -0.9513  2.0409  0.1249
 5686TIP3    H217023   6.418   4.363   5.648 -0.9789  1.6992  1.0939
 5687TIP3   OH217024   4.212   3.358   3.697 -0.1497 -0.2828  0.3393
 5687TIP3    H117025   4.235   3.385   3.608  1.2070 -1.0396  0.4416
 5687TIP3    H217026   4.181   3.268   3.689  1.2687 -0.8431  0.7701
 5688TIP3   OH217027   5.902   3.945   5.892  0.0911  0.1384 -0.3428
 5688TIP3    H117028   5.809   3.949   5.916  0.0258 -1.4466 -0.2506
 5688TIP3    H217029   5.912   4.015   5.827 -1.1819  0.2896 -0.4107
 5689TIP3   OH217030   1.338   3.126   4.992 -0.2661  0.3233 -0.8420
 5689TIP3    H117031   1.260   3.127   4.936 -1.0774  0.7114  0.2772
 5689TIP3    H217032   1.411   3.121   4.930 -1.1068  1.4841 -1.9786
 5690TIP3   OH217033   5.675   6.467   0.575  0.0230 -0.1607  0.2515
 5690TIP3    H117034   5.762   6.499   0.552 -0.4922  1.7721  0.8456
 5690TIP3    H217035   5.635   6.444   0.491  0.5398  0.4714 -0.1753
 5691TIP3   OH217036   3.848   5.590   1.885 -0.3068 -0.3222 -0.5321
 5691TIP3    H117037   3.853   5.685   1.873  3.2925  0.0003  1.9983
 5691TIP3    H217038   3.824   5.579   1.977  2.0873 -1.7073  0.0057
 5692TIP3   OH217039   3.844   0.472   2.454 -0.4445 -0.6800 -0.3028
 5692TIP3    H117040   3.879   0.501   2.370  0.9286  1.0449  0.7736
 5692TIP3    H217041   3.921   0.445   2.504 -0.6906  1.8140  1.6366
 5693TIP3   OH217042   3.226   1.143   4.097 -0.4498 -0.3587  0.4962
 5693TIP3    H117043   3.233   1.069   4.157  2.0880  0.6529  1.5658
 5693TIP3    H217044   3.137   1.176   4.110 -0.9670 -1.9954  1.4155
 5694TIP3   OH217045   2.995   6.206   5.427  0.3844 -0.2007  0.2120
 5694TIP3    H117046   2.904   6.175   5.419  0.4439 -0.1842 -0.5677
 5694TIP3    H217047   3.043   6.130   5.459  0.8926 -1.6208 -3.4792
 5695TIP3   OH217048   4.389   2.472   1.448  0.2898 -0.2999  0.5785
 5695TIP3    H117049   4.373   2.518   1.366  2.0494 -0.2756  0.2100
 5695TIP3    H217050   4.308   2.424   1.465 -0.8009  1.1871 -0.1503
 5696TIP3   OH217051   3.021   0.083   2.473 -0.2493  0.3188  0.2411
 5696TIP3    H117052   3.055   0.058   2.387  0.0389  1.8481 -0.1133
 5696TIP3    H217053   3.075   0.034   2.535 -0.1960 -0.4933 -0.4214
 5697TIP3   OH217054   2.643   3.097   0.525 -0.6300 -0.3958  0.0128
 5697TIP3    H117055   2.561   3.125   0.567 -0.0865 -1.1836  1.7128
 5697TIP3    H217056   2.712   3.143   0.574  0.0019 -0.7652 -0.5159
 5698TIP3   OH217057   1.137   6.587   1.275 -0.1646 -0.1125 -0.0169
 5698TIP3    H117058   1.102   6.624   1.356  1.0547  0.2422  0.3699
 5698TIP3    H217059   1.062   6.545   1.234 -0.3530 -2.5770  2.5286
 5699TIP3   OH217060   6.558   1.588   4.660 -0.3105 -0.0821 -0.3778
 5699TIP3    H117061   6.632   1.638   4.626 -1.0208 -0.3057 -2.3779
 5699TIP3    H217062   6.510   1.651   4.713  1.3930 -0.0054  1.1874
 5700TIP3   OH217063   6.809   1.496   0.971  0.5834 -0.4091 -0.3498
 5700TIP3    H117064   6.801   1.405   1.001  0.2458 -0.5800 -0.9405
 5700TIP3    H217065   6.793   1.492   0.877 -3.1242  0.6886  0.0729
 5701TIP3   OH217066   2.749   1.508   3.696 -0.5752 -0.1479 -0.0119
 5701TIP3    H117067   2.750   1.546   3.784  1.0957 -0.7157  0.2464
 5701TIP3    H217068   2.656   1.501   3.674 -1.0121  2.8780  0.4376
 5702TIP3   OH217069   7.022   2.352   4.176  0.0193 -0.2956  1.1082
 5702TIP3    H117070   6.990   2.313   4.257  0.1908 -0.8034  0.9404
 5702TIP3    H217071   7.113   2.321   4.169  0.0411 -0.1613  0.7817
 5703TIP3   OH217072   2.438   2.921   5.255 -1.1459  0.0030  0.1581
 5703TIP3    H117073   2.522   2.929   5.210 -0.5646  3.1709  1.5078
 5703TIP3    H217074   2.461   2.912   5.347 -2.3251 -1.4460  0.3395
 5704TIP3   OH217075   5.066   4.413   4.658  0.1340  0.0061  0.0917
 5704TIP3    H117076   4.986   4.362   4.665  0.2955 -0.1243  1.1652
 5704TIP3    H217077   5.042   4.501   4.689 -0.2448  0.7381 -2.1154
 5705TIP3   OH217078   1.662   6.345   3.447 -0.3368 -0.2167 -0.2823
 5705TIP3    H117079   1.735   6.394   3.410  0.4864 -0.2059  1.2968
 5705TIP3    H217080   1.626   6.296   3.373  0.9319  0.1809 -1.1942
 5706TIP3   OH217081   1.919   6.166   3.774 -0.2160 -0.0209  0.5376
 5706TIP3    H117082   1.949   6.149   3.684  0.9565  0.8876  0.7312
 5706TIP3    H217083   1.884   6.255   3.771  1.1024  0.5561  1.2541
 5707TIP3   OH217084   4.879   4.553   3.099  0.8447 -0.1614  0.0914
 5707TIP3    H117085   4.866   4.510   3.184  0.3854  0.4795  0.3635
 5707TIP3    H217086   4.958   4.606   3.112  0.7351 -0.0098  0.1471
 5708TIP3   OH217087   6.324   4.436   0.165 -0.5012 -0.1998 -0.1899
 5708TIP3    H117088   6.350   4.346   0.145 -0.3440 -0.2501  0.2222
 5708TIP3    H217089   6.333   4.443   0.260 -1.2632  0.0193 -0.1297
 5709TIP3   OH217090   2.653   2.893   1.965  0.2257  0.1899  0.2009
 5709TIP3    H117091   2.598   2.970   1.949 -0.2583  0.0402  1.0528
 5709TIP3    H217092   2.592   2.827   1.999  0.8866 -0.0441  0.9643
 5710TIP3   OH217093   6.665   3.830   5.644 -0.5253 -0.4681 -0.1590
 5710TIP3    H117094   6.736   3.894   5.636  0.5816 -1.5333  0.7358
 5710TIP3    H217095   6.708   3.745   5.627 -1.3505 -1.2462  1.4782
 5711TIP3   OH217096   0.878   1.506   4.417  0.0608  0.2443  0.4564
 5711TIP3    H117097   0.802   1.517   4.475  0.7111 -1.0758  1.6075
 5711TIP3    H217098   0.926   1.588   4.425 -0.4696  0.5238  0.8763
 5712TIP3   OH217099   2.809   4.931   4.066 -0.2490 -0.2878  0.4696
 5712TIP3    H117100   2.824   4.845   4.027 -1.2120 -0.1775 -0.1961
 5712TIP3    H217101   2.872   4.989   4.023  0.5934 -0.7070  1.1231
 5713TIP3   OH217102   5.815   3.955   3.301  0.2975  0.2626 -0.4030
 5713TIP3    H117103   5.891   3.946   3.244  0.2361 -1.6495 -0.2562
 5713TIP3    H217104   5.817   3.876   3.356 -1.0046  0.8636  0.5727
 5714TIP3   OH217105   5.192   1.525   5.360 -0.2211  0.5976 -0.2846
 5714TIP3    H117106   5.284   1.529   5.334 -0.4493 -0.0998 -1.2711
 5714TIP3    H217107   5.145   1.571   5.291 -0.7001  0.0498 -0.3355
 5715TIP3   OH217108   5.589   2.892   4.092  0.5978 -0.7268 -0.2396
 5715TIP3    H117109   5.648   2.817   4.108  3.6523  1.7231  1.1482
 5715TIP3    H217110   5.590   2.903   3.997  1.3641 -1.5415 -0.3476
 5716TIP3   OH217111   4.083   4.909   5.639  0.4435  0.3147  0.9130
 5716TIP3    H117112   4.010   4.964   5.608  1.8567  1.1106 -1.2407
 5716TIP3    H217113   4.105   4.945   5.725 -1.3127  0.3910  1.3854
 5717TIP3   OH217114   2.002   3.574   0.439  0.2961 -0.4593  0.3912
 5717TIP3    H117115   2.062   3.564   0.365 -1.6211  1.1952 -1.4975
 5717TIP3    H217116   1.975   3.484   0.460  0.5678 -0.9473 -1.1990
 5718TIP3   OH217117   0.045   6.146   3.467 -0.3652  0.0429  0.2948
 5718TIP3    H117118   0.020   6.094   3.544  1.1132 -0.0462  0.7406
 5718TIP3    H217119   0.116   6.095   3.426 -0.5380  0.5292 -0.6343
 5719TIP3   OH217120   1.506   0.342   1.449 -0.5666 -0.2558  0.1969
 5719TIP3    H117121   1.434   0.281   1.434 -2.5972  1.6951  1.4708
 5719TIP3    H217122   1.486   0.383   1.533  2.4972 -0.1812  1.0067
 5720TIP3   OH217123   0.553   1.028   1.981  0.1693  0.5528  0.2043
 5720TIP3    H117124   0.507   0.987   2.055  0.8838  1.1126  0.9708
 5720TIP3    H217125   0.518   1.117   1.977 -0.6619  0.2013 -0.8402
 5721TIP3   OH217126   5.316   5.238   2.850  0.0480 -0.0100 -0.2872
 5721TIP3    H117127   5.226   5.260   2.826  0.1073 -0.7182 -1.2260
 5721TIP3    H217128   5.341   5.304   2.915 -1.4038 -0.2803  0.5703
 5722TIP3   OH217129   1.038   1.322   4.010  0.1893  0.5255 -0.6922
 5722TIP3    H117130   1.067   1.367   4.090 -1.4168 -1.2926  1.0424
 5722TIP3    H217131   0.943   1.333   4.010  0.0097 -0.8408 -1.4791
 5723TIP3   OH217132   7.156   2.239   1.946  0.2975 -0.1082  0.5908
 5723TIP3    H117133   7.149   2.259   2.039 -0.8846  0.0274  0.4835
 5723TIP3    H217134   7.251   2.234   1.930  0.5392  0.8622  1.5780
 5724TIP3   OH217135   5.282   6.424   5.198 -0.0942  0.2598  0.0757
 5724TIP3    H117136   5.342   6.366   5.152  1.4229  1.8026 -0.0152
 5724TIP3    H217137   5.295   6.405   5.291 -1.8973 -1.6525  0.0025
 5725TIP3   OH217138   5.633   5.430   0.244 -0.1894 -0.4746 -0.0801
 5725TIP3    H117139   5.548   5.468   0.268 -1.4552 -0.9288 -3.2802
 5725TIP3    H217140   5.638   5.349   0.294 -1.8714 -0.6314 -0.1098
 5726TIP3   OH217141   4.564   0.494   5.519 -0.0093  0.0756  0.1790
 5726TIP3    H117142   4.480   0.452   5.537 -1.0679  1.4155 -1.3226
 5726TIP3    H217143   4.557   0.581   5.558  0.4492  0.3884 -0.4053
 5727TIP3   OH217144   5.717   2.705   4.496  0.4047 -0.0492 -0.6840
 5727TIP3    H117145   5.719   2.656   4.414  0.6996 -1.2846  0.0367
 5727TIP3    H217146   5.629   2.741   4.500  0.6487  0.7568 -1.9414
 5728TIP3   OH217147   2.752   4.684   3.815 -0.1406  0.0950 -0.2362
 5728TIP3    H117148   2.717   4.643   3.736  0.6321 -0.2439 -0.4061
 5728TIP3    H217149   2.845   4.662   3.815  0.5199  2.5421 -0.8112
 5729TIP3   OH217150   0.133   2.515   2.286  0.0054 -0.1529 -0.4472
 5729TIP3    H117151   0.083   2.597   2.290 -0.9129 -0.5489 -2.7103
 5729TIP3    H217152   0.213   2.537   2.238  0.2871 -0.3456 -0.0728
 5730TIP3   OH217153   4.629   0.754   0.947 -0.0107 -0.6913  0.3048
 5730TIP3    H117154   4.581   0.671   0.948 -1.0388 -0.1455 -1.0091
 5730TIP3    H217155   4.639   0.775   0.854  0.1405  0.7036  0.6153
 5731TIP3   OH217156   5.808   6.187   5.142  0.1693 -0.0045 -0.8303
 5731TIP3    H117157   5.841   6.233   5.065  0.0493 -1.4513 -1.7854
 5731TIP3    H217158   5.779   6.102   5.108  1.0777 -1.0891  0.9847
 5732TIP3   OH217159   0.554   5.311   0.809 -0.5749 -0.4170 -0.2708
 5732TIP3    H117160   0.476   5.332   0.757 -0.7421 -0.1787  0.0736
 5732TIP3    H217161   0.521   5.292   0.897 -0.1734  0.5688  0.1148
 5733TIP3   OH217162   6.952   2.868   3.939 -0.3610  0.4452  0.1977
 5733TIP3    H117163   6.938   2.795   3.999  0.1709  1.7200  1.9532
 5733TIP3    H217164   6.947   2.829   3.852 -2.8906 -1.2030  0.9691
 5734TIP3   OH217165   1.271   5.720   2.984  0.4118 -0.5068 -0.1508
 5734TIP3    H117166   1.242   5.697   3.072  0.6048  0.5281  0.1870
 5734TIP3    H217167   1.189   5.736   2.935  0.2845 -1.5281 -0.3070
 5735TIP3   OH217168   2.264   0.967   5.861  0.3078  0.3442  0.3177
 5735TIP3    H117169   2.292   1.057   5.845 -0.7134  0.6849  0.4235
 5735TIP3    H217170   2.170   0.968   5.847  0.2661 -0.6845  0.4516
 5736TIP3   OH217171   0.817   4.633   1.620 -0.0198  0.5843  0.1192
 5736TIP3    H117172   0.814   4.561   1.683  0.6792 -1.6220 -2.2123
 5736TIP3    H217173   0.910   4.657   1.616  0.1102 -0.0252 -0.8060
 5737TIP3   OH217174   0.075   5.683   2.858 -0.0373  0.2597 -0.0131
 5737TIP3    H117175   0.042   5.635   2.934  0.3430  0.6372  0.3994
 5737TIP3    H217176   0.074   5.620   2.787 -0.2301 -0.1502  0.3508
 5738TIP3   OH217177   0.079   6.348   2.392 -0.5045 -0.6313 -0.4656
 5738TIP3    H117178   0.078   6.356   2.488 -1.8227 -0.1170 -0.4944
 5738TIP3    H217179   0.133   6.421   2.363  0.6045 -1.2870 -0.0899
 5739TIP3   OH217180   4.008   0.455   5.089 -0.5544  0.0010  0.4997
 5739TIP3    H117181   3.984   0.446   5.181  3.5313  2.5293  2.1111
 5739TIP3    H217182   4.075   0.387   5.076  0.8456  1.3459  0.3454
 5740TIP3   OH217183   2.971   1.241   4.064 -0.2056  0.1473 -0.5151
 5740TIP3    H117184   2.934   1.315   4.113 -0.0368  0.2827 -0.5927
 5740TIP3    H217185   2.985   1.275   3.976 -1.4289 -0.3799 -0.9268
 5741TIP3   OH217186   1.582   5.718   1.077 -0.1450 -0.6362  0.3157
 5741TIP3    H117187   1.560   5.717   0.983 -0.9251  0.2490  0.4718
 5741TIP3    H217188   1.677   5.702   1.079  0.4488  2.0269 -0.8519
 5742TIP3   OH217189   7.061   0.168   2.760 -0.2173 -0.8008  0.2307
 5742TIP3    H117190   7.148   0.146   2.725  1.2312  0.2191  2.8616
 5742TIP3    H217191   7.059   0.124   2.845 -0.5575  2.3986  2.0075
 5743TIP3   OH217192   5.838   4.690   4.909  0.1670  0.3527 -0.2745
 5743TIP3    H117193   5.902   4.620   4.921  0.6094  0.8731  0.4728
 5743TIP3    H217194   5.847   4.716   4.817  0.1587 -0.4142 -0.4929
 5744TIP3   OH217195   5.496   2.534   5.788 -0.7038 -0.0474 -0.3767
 5744TIP3    H117196   5.462   2.445   5.782 -0.4916 -0.1986  0.5940
 5744TIP3    H217197   5.562   2.539   5.720 -0.4275 -0.7644 -0.1663
 5745TIP3   OH217198   1.739   5.164   5.174 -0.2849 -0.0611 -0.2416
 5745TIP3    H117199   1.716   5.129   5.088  1.0431 -1.0530 -0.2266
 5745TIP3    H217200   1.771   5.252   5.156 -1.4014  0.2965 -0.5697
 5746TIP3   OH217201   5.668   1.891   5.071 -0.2251 -0.2495 -0.1303
 5746TIP3    H117202   5.587   1.869   5.023  0.3311  0.0119 -1.2321
 5746TIP3    H217203   5.738   1.872   5.008  0.9734 -4.5466  2.1088
 5747TIP3   OH217204   7.187   5.071   0.719  0.0896 -0.1530  0.1744
 5747TIP3    H117205   7.252   5.064   0.788  0.2459  0.2493  0.0719
 5747TIP3    H217206   7.137   5.149   0.741  0.2214  0.0484 -0.2288
 5748TIP3   OH217207   5.804   0.057   1.711 -0.7718  0.2277  0.0047
 5748TIP3    H117208   5.896   0.058   1.739  0.0552 -2.3268 -2.2007
 5748TIP3    H217209   5.757   0.016   1.783  0.2282 -0.5438  0.2413
 5749TIP3   OH217210   1.710   1.453   3.335  0.1326 -0.5827  0.3114
 5749TIP3    H117211   1.789   1.501   3.360  1.8108 -0.7875 -3.7075
 5749TIP3    H217212   1.741   1.364   3.317 -1.3662 -1.1324  0.3031
 5750TIP3   OH217213   5.768   6.293   1.869  0.2912  0.1421 -0.0857
 5750TIP3    H117214   5.828   6.273   1.798  1.7321  0.6937  0.9419
 5750TIP3    H217215   5.681   6.277   1.832  1.0868 -2.0391 -1.1733
 5751TIP3   OH217216   0.867   5.329   2.967  0.2326  0.2407  0.7959
 5751TIP3    H117217   0.814   5.353   2.891  0.8967  1.1502  0.6010
 5751TIP3    H217218   0.861   5.234   2.972 -0.4814  0.2383  0.1030
 5752TIP3   OH217219   7.087   4.402   1.479 -0.3397 -0.7507  0.2670
 5752TIP3    H117220   7.129   4.317   1.469  1.3230  0.2336 -1.6786
 5752TIP3    H217221   7.087   4.440   1.391 -1.5338  1.0503  0.9829
 5753TIP3   OH217222   6.250   1.122   4.042 -0.1351  0.0425 -0.4007
 5753TIP3    H117223   6.167   1.077   4.054  0.6006 -1.0669  0.9185
 5753TIP3    H217224   6.282   1.137   4.131  1.1828  0.2260 -0.8806
 5754TIP3   OH217225   0.061   1.506   1.814 -0.9809 -0.2427  0.0444
 5754TIP3    H117226   0.099   1.594   1.809  0.3977 -0.6974  1.7310
 5754TIP3    H217227  -0.033   1.522   1.829 -0.8128  0.9340 -0.0528
 5755TIP3   OH217228   5.175   3.022   1.731 -0.2385  0.0824 -0.2174
 5755TIP3    H117229   5.210   2.956   1.791 -1.9247 -0.1601  0.5750
 5755TIP3    H217230   5.192   2.986   1.644  1.1186 -0.1657  0.1262
 5756TIP3   OH217231   6.140   6.667   0.736  0.0096 -0.0825  0.1200
 5756TIP3    H117232   6.149   6.711   0.651  1.2384  1.1207  0.8305
 5756TIP3    H217233   6.175   6.579   0.721  3.1148  1.0439  0.0408
 5757TIP3   OH217234   6.692   4.819   4.256  0.2184  0.2133  0.2941
 5757TIP3    H117235   6.626   4.852   4.317 -0.5641 -1.9620  0.7194
 5757TIP3    H217236   6.760   4.781   4.312  1.2850  1.3565 -0.1727
 5758TIP3   OH217237   1.860   5.976   1.557 -0.2076 -0.5415 -0.1497
 5758TIP3    H117238   1.822   6.044   1.613 -1.2380  1.4436 -3.0178
 5758TIP3    H217239   1.952   5.971   1.584 -0.2026  1.7063  0.4804
 5759TIP3   OH217240   1.420   3.894   4.828 -0.0582  0.9859 -0.3476
 5759TIP3    H117241   1.414   3.816   4.772  1.4389  0.2704  0.4092
 5759TIP3    H217242   1.340   3.943   4.810 -1.9205 -1.5614  0.4012
 5760TIP3   OH217243   1.983   1.873   2.082 -0.0057 -0.3992  0.1784
 5760TIP3    H117244   1.920   1.851   2.014  0.3974  1.8957 -1.0526
 5760TIP3    H217245   1.951   1.956   2.119  0.6449 -0.7832  1.6918
 5761TIP3   OH217246   2.396   6.477   3.568  0.2764 -0.0968  0.3571
 5761TIP3    H117247   2.472   6.534   3.562 -1.1004  2.1058  2.0920
 5761TIP3    H217248   2.333   6.526   3.621 -2.4125 -1.7527 -1.0412
 5762TIP3   OH217249   0.437   6.017   4.629 -0.1812 -0.7981 -0.0626
 5762TIP3    H117250   0.452   6.109   4.648 -1.4950 -0.5993  0.1099
 5762TIP3    H217251   0.482   6.001   4.546  0.9234 -0.2760  0.4142
 5763TIP3   OH217252   4.540   6.200   3.177 -0.2017  0.1262  0.0947
 5763TIP3    H117253   4.455   6.179   3.139 -2.2634  1.8995  3.3003
 5763TIP3    H217254   4.572   6.117   3.213 -0.9630 -0.3912 -0.3926
 5764TIP3   OH217255   5.266   3.930   2.727  0.2473  0.4635  0.1426
 5764TIP3    H117256   5.230   3.938   2.815  0.7927  0.6366  0.3529
 5764TIP3    H217257   5.360   3.938   2.739  0.6251 -2.5576 -0.0702
 5765TIP3   OH217258   2.946   4.113   1.546  0.0821  0.6498 -0.5051
 5765TIP3    H117259   2.851   4.115   1.538 -0.1442 -2.1858  0.1932
 5765TIP3    H217260   2.974   4.203   1.534 -2.5848  1.3741 -1.8813
 5766TIP3   OH217261   3.809   3.307   1.795  0.7110  0.0121  0.2209
 5766TIP3    H117262   3.846   3.221   1.816 -0.1177 -0.4005  0.0319
 5766TIP3    H217263   3.722   3.306   1.835 -0.3931 -0.2863 -2.0507
 5767TIP3   OH217264   5.619   3.758   5.054 -0.2582 -0.1850 -0.0890
 5767TIP3    H117265   5.573   3.783   5.135 -0.9379 -0.0057 -0.5248
 5767TIP3    H217266   5.710   3.782   5.070 -1.0034  3.9367 -0.9815
 5768TIP3   OH217267   2.245   3.558   0.732  0.2029  0.4564  0.2026
 5768TIP3    H117268   2.215   3.632   0.679  0.2542  0.1218 -0.3088
 5768TIP3    H217269   2.164   3.514   0.760  0.1407  1.2288  1.2932
 5769TIP3   OH217270   0.029   6.695   4.592  0.0937  0.5557  0.2637
 5769TIP3    H117271   0.096   6.645   4.545  0.0545 -0.5839  1.3679
 5769TIP3    H217272  -0.021   6.738   4.523  1.2179  0.4859 -0.6393
 5770TIP3   OH217273   0.086   0.359   5.671  0.3139 -0.0506  0.1185
 5770TIP3    H117274   0.076   0.453   5.656 -1.5647 -0.3416 -0.7520
 5770TIP3    H217275   0.104   0.352   5.765 -2.1691  1.0725  0.7697
 5771TIP3   OH217276   1.966   0.138   4.726  0.1540 -0.1980  0.0522
 5771TIP3    H117277   1.947   0.187   4.806  0.1764 -0.8084  0.4404
 5771TIP3    H217278   1.885   0.142   4.676  0.5176  1.2351 -0.4734
 5772TIP3   OH217279   1.267   2.078   3.660  0.2407 -0.5471 -0.4693
 5772TIP3    H117280   1.174   2.055   3.661  0.3506 -0.9808 -0.1963
 5772TIP3    H217281   1.299   2.050   3.745  0.2501  1.1364  0.1275
 5773TIP3   OH217282   6.595   0.203   3.731  0.4843 -0.2636 -0.0361
 5773TIP3    H117283   6.541   0.199   3.651 -1.8464 -0.1349  1.4211
 5773TIP3    H217284   6.584   0.118   3.772  0.4856  0.1420  0.8340
 5774TIP3   OH217285   3.005   5.548   0.736  0.2455  0.1792 -0.0692
 5774TIP3    H117286   3.045   5.461   0.737  1.2821  0.6349 -0.2759
 5774TIP3    H217287   2.912   5.532   0.748  0.1408 -1.1246 -2.0748
 5775TIP3   OH217288   2.516   5.563   1.105 -0.8528  0.6679 -0.1770
 5775TIP3    H117289   2.465   5.522   1.174  1.4159  0.7855  1.6795
 5775TIP3    H217290   2.456   5.627   1.065 -2.7514 -0.6589  0.4379
 5776TIP3   OH217291   0.946   5.196   4.711  0.0103  0.0264 -0.2403
 5776TIP3    H117292   1.002   5.230   4.641 -0.8028  1.4005 -0.2513
 5776TIP3    H217293   0.895   5.272   4.740 -1.2450 -1.0077  0.3424
 5777TIP3   OH217294   2.334   0.952   0.468  0.4495 -0.1705  0.0053
 5777TIP3    H117295   2.318   0.920   0.557 -2.3548  0.1579 -0.3018
 5777TIP3    H217296   2.302   1.042   0.469  2.1013  0.4769 -0.9028
 5778TIP3   OH217297   0.056   3.787   4.968 -0.2183 -0.3623  0.1074
 5778TIP3    H117298   0.120   3.858   4.958  0.2316 -0.8115 -0.2932
 5778TIP3    H217299   0.080   3.744   5.050 -0.5517  0.0113  0.3986
 5779TIP3   OH217300   5.499   0.523   0.151  0.1061 -0.1266 -0.2987
 5779TIP3    H117301   5.557   0.561   0.085 -0.6454  0.1002 -0.8428
 5779TIP3    H217302   5.527   0.563   0.233  0.0948  0.7106 -0.6953
 5780TIP3   OH217303   6.860   1.598   4.857 -0.3146  0.1310 -0.4714
 5780TIP3    H117304   6.790   1.660   4.878  0.0863  1.0941 -1.8666
 5780TIP3    H217305   6.818   1.512   4.859 -1.0825  0.5118  0.6250
 5781TIP3   OH217306   3.129   0.809   3.646  0.3744 -0.0066  0.5145
 5781TIP3    H117307   3.073   0.755   3.702 -0.6111 -0.8196 -1.1650
 5781TIP3    H217308   3.099   0.899   3.660 -2.0437 -0.5077 -1.0176
 5782TIP3   OH217309   1.500   1.840   5.713 -0.0007  0.3670  0.2175
 5782TIP3    H117310   1.491   1.902   5.785 -1.8434  0.7373 -0.2929
 5782TIP3    H217311   1.566   1.777   5.744 -0.5983  0.6202  2.1494
 5783TIP3   OH217312   2.360   0.234   3.208  0.6327  0.6420 -0.1954
 5783TIP3    H117313   2.401   0.302   3.261  1.4536 -0.2306  0.3232
 5783TIP3    H217314   2.433   0.178   3.181 -0.0724 -0.2256 -0.3290
 5784TIP3   OH217315   5.613   2.852   2.068  0.3559  0.3933  0.0741
 5784TIP3    H117316   5.703   2.824   2.050 -0.0971 -0.2360 -1.3932
 5784TIP3    H217317   5.570   2.849   1.982 -0.6950  2.0850  0.4904
 5785TIP3   OH217318   1.471   1.422   4.780  0.3136  0.3999 -0.8069
 5785TIP3    H117319   1.517   1.497   4.817  0.2624  1.1189 -2.1287
 5785TIP3    H217320   1.522   1.346   4.807 -0.6635  0.6773  2.1609
 5786TIP3   OH217321   1.063   0.489   4.080 -0.4241 -0.0529 -0.0109
 5786TIP3    H117322   0.977   0.531   4.073  0.1353  1.1604  0.3133
 5786TIP3    H217323   1.097   0.517   4.165  0.7860  0.4211 -0.6375
 5787TIP3   OH217324   4.999   6.132   2.566 -0.3082 -0.0806 -0.2053
 5787TIP3    H117325   4.918   6.092   2.597 -0.7859  0.1268 -1.1674
 5787TIP3    H217326   5.002   6.113   2.473  0.2717  0.7450 -0.3709
 5788TIP3   OH217327   5.940   6.561   5.685  0.3010 -0.3263  0.1406
 5788TIP3    H117328   5.985   6.500   5.626  0.6176  0.0929 -0.0482
 5788TIP3    H217329   5.848   6.536   5.677  0.1501  0.5771 -1.5694
 5789TIP3   OH217330   7.013   4.551   2.175 -0.6381 -0.6954 -0.1201
 5789TIP3    H117331   7.065   4.542   2.254  0.0803 -0.7752 -0.5979
 5789TIP3    H217332   7.077   4.554   2.104 -1.3244 -2.6152 -0.8885
 5790TIP3   OH217333   5.807   4.677   5.504  0.6428  0.3227  0.2899
 5790TIP3    H117334   5.792   4.761   5.461 -0.1954  0.3519  0.6355
 5790TIP3    H217335   5.878   4.694   5.566 -0.3690  1.1026  1.2680
 5791TIP3   OH217336   1.484   5.986   3.426 -0.1813  0.0872  0.2863
 5791TIP3    H117337   1.495   6.067   3.377  0.6808  0.5798  1.2488
 5791TIP3    H217338   1.488   5.916   3.360  2.2958  0.6299 -0.2320
 5792TIP3   OH217339   0.438   2.317   0.052 -0.2199 -0.7094 -0.2381
 5792TIP3    H117340   0.440   2.403   0.009 -3.7948 -1.0561 -1.3938
 5792TIP3    H217341   0.444   2.254  -0.020  0.2941 -1.4179  0.4108
 5793TIP3   OH217342   1.272   5.997   0.285 -0.2060 -1.2156 -0.1963
 5793TIP3    H117343   1.239   5.907   0.285 -2.7207 -0.3492 -0.5377
 5793TIP3    H217344   1.224   6.040   0.356  0.6949 -0.0197 -0.2829
 5794TIP3   OH217345   1.468   3.477   2.769  0.5115  0.4829 -0.5755
 5794TIP3    H117346   1.465   3.527   2.851  1.5928 -1.3043  0.6288
 5794TIP3    H217347   1.508   3.537   2.706 -1.3686  2.2952 -0.1638
 5795TIP3   OH217348   4.041   1.378   0.829  0.4426 -0.7008 -0.3155
 5795TIP3    H117349   4.040   1.282   0.826 -2.2685 -0.7390 -1.2127
 5795TIP3    H217350   3.996   1.405   0.749 -0.8256  1.2448  0.9743
 5796TIP3   OH217351   2.195   4.838   0.830 -0.2135 -0.0898  0.5818
 5796TIP3    H117352   2.159   4.771   0.889 -0.5871  0.0361  0.5004
 5796TIP3    H217353   2.118   4.879   0.790 -0.1738  2.2790  2.6628
 5797TIP3   OH217354   2.382   0.256   0.725 -0.1028  0.6946  0.0266
 5797TIP3    H117355   2.406   0.169   0.694 -1.6326  0.1357  0.3274
 5797TIP3    H217356   2.446   0.276   0.793  0.9993  0.3414 -0.8791
 5798TIP3   OH217357   0.407   0.036   4.838 -0.0952 -0.1045  0.2800
 5798TIP3    H117358   0.415  -0.048   4.883 -0.0246 -0.8463 -1.0674
 5798TIP3    H217359   0.470   0.032   4.766  0.4924  1.4403  0.6623
 5799TIP3   OH217360   3.364   5.760   5.419 -0.1665  0.0861  0.0502
 5799TIP3    H117361   3.442   5.728   5.464  0.8191  2.5000  0.1413
 5799TIP3    H217362   3.394   5.831   5.364 -2.5460  2.5763  1.7111
 5800TIP3   OH217363   1.478   5.474   5.456 -0.0950 -0.6887 -0.1173
 5800TIP3    H117364   1.435   5.490   5.540  1.3090  1.1806  0.3176
 5800TIP3    H217365   1.571   5.486   5.474  0.1802  0.5710 -2.0802
 5801TIP3   OH217366   1.547   5.996   1.430 -0.4508  0.4503  0.3109
 5801TIP3    H117367   1.566   6.029   1.518  1.8103  0.0247  0.0401
 5801TIP3    H217368   1.547   5.901   1.439  1.7911  0.3265 -0.4524
 5802TIP3   OH217369   2.091   6.271   1.001  0.3450 -0.2203 -0.2010
 5802TIP3    H117370   2.008   6.223   1.005  0.5239 -0.4916  0.3163
 5802TIP3    H217371   2.087   6.333   1.073  0.6687 -0.3559 -0.0663
 5803TIP3   OH217372   0.401   0.157   3.823  0.0011 -0.0057  0.7235
 5803TIP3    H117373   0.487   0.143   3.786  0.0813  0.2568  0.8037
 5803TIP3    H217374   0.412   0.138   3.917  0.7020  2.7379  1.3120
 5804TIP3   OH217375   3.111   6.017   0.565  0.1222  0.3336  0.2416
 5804TIP3    H117376   3.152   6.038   0.481 -0.7135  1.6228  0.1238
 5804TIP3    H217377   3.170   6.053   0.631  1.6742 -2.1672  0.3711
 5805TIP3   OH217378   3.172   1.952   3.695 -0.4079  0.1740  0.0825
 5805TIP3    H117379   3.100   1.991   3.646 -0.7090 -0.2224  0.1999
 5805TIP3    H217380   3.222   1.903   3.629 -0.6036 -0.0598  0.1061
 5806TIP3   OH217381   2.710   4.577   2.400 -0.6840 -0.2143 -0.3829
 5806TIP3    H117382   2.739   4.487   2.416 -0.7841 -0.5914 -2.1655
 5806TIP3    H217383   2.789   4.630   2.412 -0.8102 -0.4001  1.5402
 5807TIP3   OH217384   2.046   3.080   0.716  0.1396 -0.3787  0.3353
 5807TIP3    H117385   2.072   3.073   0.808 -2.4587 -0.0804  1.1818
 5807TIP3    H217386   1.975   3.016   0.706  0.3918 -0.4235 -1.4809
 5808TIP3   OH217387   6.970   2.574   2.166 -0.2446  0.1270  0.3511
 5808TIP3    H117388   6.906   2.644   2.168 -0.8280 -0.3570 -0.6489
 5808TIP3    H217389   6.977   2.545   2.257 -2.6487 -0.8595  0.2995
 5809TIP3   OH217390   1.005   4.021   2.287  0.3727  0.3792 -0.3320
 5809TIP3    H117391   0.925   3.968   2.287 -0.7158  1.9274 -1.4394
 5809TIP3    H217392   1.056   3.987   2.360 -1.7593 -0.0291  1.0817
 5810TIP3   OH217393   6.621   5.172   4.748 -0.8739  0.0120  0.3228
 5810TIP3    H117394   6.670   5.239   4.701 -1.2828  0.5082  0.5915
 5810TIP3    H217395   6.687   5.124   4.798 -0.6004  0.3418  0.2789
 5811TIP3   OH217396   3.781   5.063   0.432 -0.0937 -0.4830  0.2638
 5811TIP3    H117397   3.764   5.124   0.504 -1.4741 -1.2379  0.6199
 5811TIP3    H217398   3.771   4.977   0.471 -1.8929 -0.9058 -1.0292
 5812TIP3   OH217399   6.612   0.325   4.805 -0.4967 -0.2324 -0.9249
 5812TIP3    H117400   6.550   0.277   4.859 -1.2273 -0.6003 -2.0709
 5812TIP3    H217401   6.585   0.416   4.813  0.1735 -0.1079  0.3033
 5813TIP3   OH217402   6.830   5.651   2.573 -0.4493 -0.0722  0.4815
 5813TIP3    H117403   6.892   5.605   2.516 -1.4824 -1.7419  0.6529
 5813TIP3    H217404   6.789   5.716   2.516  0.0941 -0.2404 -0.1137
 5814TIP3   OH217405   5.603   3.419   5.004 -0.4576  0.3316  0.1509
 5814TIP3    H117406   5.618   3.508   5.035  1.1909  0.7354 -1.6280
 5814TIP3    H217407   5.508   3.411   4.998 -0.6474  1.7089  0.9909
 5815TIP3   OH217408   4.381   4.553   2.719  0.2810  0.3746 -0.4738
 5815TIP3    H117409   4.467   4.585   2.746  0.8924 -1.4899 -0.0849
 5815TIP3    H217410   4.377   4.569   2.625  1.9922 -1.4919 -0.9268
 5816TIP3   OH217411   4.470   5.123   2.020  0.3328 -0.6451 -0.2874
 5816TIP3    H117412   4.531   5.108   1.948 -0.4396 -0.7239 -0.9383
 5816TIP3    H217413   4.481   5.047   2.077  1.5582 -0.1678  0.1214
 5817TIP3   OH217414   5.514   4.701   2.640  0.4672  0.0084  0.0034
 5817TIP3    H117415   5.564   4.777   2.610 -2.0912  2.0246  0.4794
 5817TIP3    H217416   5.512   4.710   2.736  1.5721 -1.6876  0.2282
 5818TIP3   OH217417   4.433   2.978   1.906  0.1045 -0.0829  0.1026
 5818TIP3    H117418   4.357   2.983   1.848  0.8574  1.2098 -0.8165
 5818TIP3    H217419   4.427   3.055   1.962 -0.3606 -1.0720  1.4907
 5819TIP3   OH217420   3.244   5.134   5.720  0.0850 -0.4580  0.2280
 5819TIP3    H117421   3.210   5.179   5.798  1.3598  1.3464 -0.1978
 5819TIP3    H217422   3.168   5.128   5.661 -0.6760 -1.0524  1.2354
 5820TIP3   OH217423   3.770   6.450   2.424  0.2462 -0.1474  0.0935
 5820TIP3    H117424   3.763   6.403   2.341  0.8501  0.0140 -0.0542
 5820TIP3    H217425   3.750   6.541   2.402  0.5232 -0.0847  0.1023
 5821TIP3   OH217426   3.366   5.971   0.987 -0.0470  0.1842  0.3557
 5821TIP3    H117427   3.458   5.969   0.961  0.4602  4.4261  1.1080
 5821TIP3    H217428   3.366   5.936   1.076  0.7234 -0.4432  0.1185
 5822TIP3   OH217429   1.611   6.147   2.481  0.3431  0.7819  0.0627
 5822TIP3    H117430   1.613   6.211   2.409  0.3102  1.6354  0.8077
 5822TIP3    H217431   1.518   6.128   2.493  0.3609  0.4709 -0.2498
 5823TIP3   OH217432   7.074   0.268   4.242 -0.6335  0.4484  0.2598
 5823TIP3    H117433   7.080   0.273   4.147 -0.3718  0.8673  0.2942
 5823TIP3    H217434   6.981   0.276   4.261 -0.9664 -2.0656 -0.0828
 5824TIP3   OH217435   3.835   2.903   4.780 -0.0574  0.0046  0.4104
 5824TIP3    H117436   3.769   2.971   4.788  1.6897  1.7468  0.6818
 5824TIP3    H217437   3.887   2.910   4.860 -0.0454 -1.9067  0.6112
 5825TIP3   OH217438   1.251   1.122   3.531 -0.6622  0.2167 -0.5153
 5825TIP3    H117439   1.285   1.201   3.488 -0.4071 -0.2247 -1.1470
 5825TIP3    H217440   1.191   1.154   3.598 -0.7841  0.9383 -0.9645
 5826TIP3   OH217441   0.933   4.942   4.072  0.0425  0.0089  0.1093
 5826TIP3    H117442   0.926   4.976   4.161  0.6596  0.2781  0.0639
 5826TIP3    H217443   0.848   4.902   4.055  0.3368 -1.2105  1.2901
 5827TIP3   OH217444   5.935   0.864   3.771 -0.2699  0.8600 -0.3002
 5827TIP3    H117445   5.878   0.941   3.776 -1.5916 -0.1510  1.2796
 5827TIP3    H217446   5.938   0.831   3.861  0.0597 -1.0720 -0.9756
 5828TIP3   OH217447   6.172   2.876   2.923  0.0523  0.2140 -0.1936
 5828TIP3    H117448   6.266   2.861   2.914  0.2899  1.0394  0.7318
 5828TIP3    H217449   6.158   2.885   3.018 -1.1828 -1.2547 -0.1941
 5829TIP3   OH217450   1.323   0.856   1.504 -0.4334 -0.0976 -0.1366
 5829TIP3    H117451   1.240   0.849   1.552 -1.1606 -1.0294 -1.4329
 5829TIP3    H217452   1.345   0.949   1.507 -0.6104 -0.0786  1.6821
 5830TIP3   OH217453   1.269   6.133   1.275  0.1085  0.1223 -0.4954
 5830TIP3    H117454   1.340   6.077   1.304 -0.6030 -0.1542  0.8279
 5830TIP3    H217455   1.293   6.220   1.308  0.1440  0.1478 -0.5899
 5831TIP3   OH217456   2.872   1.453   5.047  0.0787  0.7285  0.9140
 5831TIP3    H117457   2.793   1.453   5.101 -0.5700 -2.4471  0.1481
 5831TIP3    H217458   2.862   1.378   4.989  3.9152 -0.1495  1.1295
 5832TIP3   OH217459   0.209   0.215   5.220 -0.3173 -0.2781 -0.0667
 5832TIP3    H117460   0.286   0.162   5.198 -0.0867  0.6076 -1.4925
 5832TIP3    H217461   0.218   0.233   5.313  1.7842  0.7036 -0.4168
 5833TIP3   OH217462   1.021   5.331   1.760  0.1721 -0.0143  0.4722
 5833TIP3    H117463   1.080   5.258   1.781 -1.4035 -1.3325  0.4930
 5833TIP3    H217464   0.933   5.296   1.775 -0.6488  1.8108  0.1830
 5834TIP3   OH217465   2.165   6.684   4.114 -0.1030 -0.0126  0.5322
 5834TIP3    H117466   2.096   6.704   4.177  0.5294  3.4470  0.3512
 5834TIP3    H217467   2.232   6.639   4.165 -0.8447  0.1021  1.6509
 5835TIP3   OH217468   3.095   3.033   2.978  0.6411 -0.0495  0.5618
 5835TIP3    H117469   3.141   3.106   2.937  0.2226  0.0424  0.2396
 5835TIP3    H217470   3.146   2.956   2.953  0.4657  0.0198 -0.0338
 5836TIP3   OH217471   0.433   2.347   2.521  0.0799  0.7363 -0.0167
 5836TIP3    H117472   0.469   2.355   2.609  0.9351  1.6787 -0.4292
 5836TIP3    H217473   0.508   2.320   2.467  0.1791  2.5352 -0.8556
 5837TIP3   OH217474   0.649   3.894   3.696 -0.2855 -0.0642 -0.6431
 5837TIP3    H117475   0.712   3.964   3.681 -1.2234  0.9883  0.1624
 5837TIP3    H217476   0.589   3.899   3.622  0.2680 -0.7654 -1.1642
 5838TIP3   OH217477   3.030   1.547   1.067 -0.2922 -0.2433  0.5028
 5838TIP3    H117478   3.056   1.628   1.022 -1.3455  0.3367  0.8779
 5838TIP3    H217479   3.095   1.536   1.136  0.1655 -0.0068  0.1150
 5839TIP3   OH217480   7.162   2.546   1.981  0.0833  0.8993 -0.2773
 5839TIP3    H117481   7.093   2.564   2.045  0.2454  2.5424 -0.5101
 5839TIP3    H217482   7.117   2.501   1.910  0.0141 -1.5164  1.1893
 5840TIP3   OH217483   1.747   5.464   5.498 -0.2825 -0.1830 -0.0577
 5840TIP3    H117484   1.812   5.455   5.428 -0.6758 -0.5486 -0.3802
 5840TIP3    H217485   1.774   5.542   5.546 -0.3140  0.3943 -0.9507
 5841TIP3   OH217486   0.143   3.679   0.571  0.1820 -0.2775  0.2188
 5841TIP3    H117487   0.234   3.654   0.550 -0.0463 -0.2805 -0.8487
 5841TIP3    H217488   0.123   3.748   0.507 -0.0548  0.8392  1.4667
 5842TIP3   OH217489   1.197   2.715   1.763 -0.0512  0.3658  0.2159
 5842TIP3    H117490   1.279   2.759   1.741 -0.9607  2.7122  1.1665
 5842TIP3    H217491   1.218   2.660   1.838  1.4979 -2.3176 -2.0071
 5843TIP3   OH217492   3.266   3.581   3.015 -0.1724  0.4770 -0.1290
 5843TIP3    H117493   3.315   3.500   3.029  1.3320  1.4438  0.3921
 5843TIP3    H217494   3.174   3.554   3.019  0.2383 -1.5373 -1.9512
 5844TIP3   OH217495   6.923   4.010   4.242  0.3297  0.0696  0.1526
 5844TIP3    H117496   6.966   3.943   4.295  0.2545 -0.6096 -0.6198
 5844TIP3    H217497   6.979   4.087   4.251  0.7146 -0.2594  0.6251
 5845TIP3   OH217498   0.657   6.219   0.517 -0.2807  0.6590 -0.3357
 5845TIP3    H117499   0.743   6.199   0.555 -0.4440 -1.1275 -0.8065
 5845TIP3    H217500   0.676   6.241   0.426 -0.4867 -3.2119 -1.4967
 5846TIP3   OH217501   1.022   3.616   4.533  0.1212  0.4471  0.2136
 5846TIP3    H117502   1.059   3.669   4.462 -0.1565  0.8074  0.3293
 5846TIP3    H217503   0.954   3.564   4.491  0.4507  0.1240  0.0838
 5847TIP3   OH217504   1.931   0.311   1.735 -0.6800 -0.0070  0.0354
 5847TIP3    H117505   1.908   0.219   1.728  0.0185 -0.1454 -0.6413
 5847TIP3    H217506   2.026   0.313   1.721 -0.9476  0.9980 -2.0938
 5848TIP3   OH217507   1.107   0.756   5.004  0.1963 -0.4418 -0.0929
 5848TIP3    H117508   1.086   0.847   4.982  2.6344 -0.1060 -1.5122
 5848TIP3    H217509   1.155   0.724   4.927  2.7633 -1.6397  1.8486
 5849TIP3   OH217510   3.451   2.575   5.644 -0.0693 -0.3673 -0.7101
 5849TIP3    H117511   3.421   2.484   5.649 -1.1828 -0.0271 -0.7615
 5849TIP3    H217512   3.436   2.600   5.553  0.1778 -0.1231 -0.6840
 5850TIP3   OH217513   6.332   0.506   5.350 -0.0455  0.1561  0.7349
 5850TIP3    H117514   6.294   0.424   5.383 -1.2310  0.7472  0.8981
 5850TIP3    H217515   6.258   0.566   5.347  0.0104  0.2098 -2.8286
 5851TIP3   OH217516   1.254   4.449   5.176  0.2121 -0.2970 -0.0618
 5851TIP3    H117517   1.218   4.530   5.211 -1.6154 -0.3189 -1.7365
 5851TIP3    H217518   1.192   4.422   5.108  1.1233 -2.7544 -0.0161
 5852TIP3   OH217519   1.129   2.906   5.534  0.1234 -0.4215 -0.4807
 5852TIP3    H117520   1.155   2.903   5.626 -0.4391 -0.3250 -0.3175
 5852TIP3    H217521   1.166   2.826   5.496 -0.1232 -0.7517 -0.0391
 5853TIP3   OH217522   3.856   0.248   0.157 -0.0018  0.2819  0.6036
 5853TIP3    H117523   3.815   0.212   0.079 -0.6649  0.1261  1.0114
 5853TIP3    H217524   3.949   0.255   0.135 -0.0849 -0.3501  0.0269
 5854TIP3   OH217525   2.074   6.329   2.966  0.2877 -0.1690  0.2463
 5854TIP3    H117526   2.140   6.318   3.035  1.9543 -0.0090 -1.2629
 5854TIP3    H217527   2.023   6.406   2.995  1.0539  0.0046  1.1954
 5855TIP3   OH217528   2.461   1.632   2.952 -0.4783  0.1686 -0.1576
 5855TIP3    H117529   2.511   1.587   2.884 -1.6505 -0.3600 -0.7072
 5855TIP3    H217530   2.511   1.710   2.972  0.4326 -0.2278 -0.8537
 5856TIP3   OH217531   3.202   2.500   1.732 -0.4454  0.4624  0.3481
 5856TIP3    H117532   3.283   2.523   1.686 -0.5856  2.3265  0.9584
 5856TIP3    H217533   3.172   2.419   1.688  0.6132  0.9003 -1.2926
 5857TIP3   OH217534   2.003   1.349   0.055 -0.0661  0.2539  0.2074
 5857TIP3    H117535   1.965   1.431   0.024 -2.0546 -1.3911 -2.1375
 5857TIP3    H217536   1.928   1.296   0.081  0.8181 -1.9668 -1.4438
 5858TIP3   OH217537   2.823   1.928   0.431 -0.0421  0.3196 -0.1561
 5858TIP3    H117538   2.739   1.961   0.463 -0.6299 -1.0527 -0.2062
 5858TIP3    H217539   2.884   1.947   0.502 -0.5676  0.6241  0.2231
 5859TIP3   OH217540   5.786   1.087   4.605  0.0223  0.4689  0.0869
 5859TIP3    H117541   5.803   0.992   4.601  0.8152  0.6480 -1.8600
 5859TIP3    H217542   5.871   1.127   4.592 -0.6507  1.4250 -1.6479
 5860TIP3   OH217543   1.238   2.365   5.500 -0.2283 -0.1859 -0.0182
 5860TIP3    H117544   1.222   2.287   5.553 -0.4740 -0.3077 -0.2707
 5860TIP3    H217545   1.273   2.429   5.562  1.5239 -1.0081 -0.1013
 5861TIP3   OH217546   0.338   2.272   4.520  0.1082 -0.4353  0.3363
 5861TIP3    H117547   0.366   2.329   4.592  1.1761 -0.3254 -0.1619
 5861TIP3    H217548   0.345   2.183   4.556  1.4091 -0.4346  0.1366
 5862TIP3   OH217549   6.792   1.093   0.781 -0.2015  0.0757 -0.2983
 5862TIP3    H117550   6.880   1.064   0.804 -0.4254 -0.5343 -0.1903
 5862TIP3    H217551   6.789   1.087   0.686 -0.0302  0.3803 -0.3230
 5863TIP3   OH217552   6.294   3.975   1.169  0.3297  0.4848  0.4686
 5863TIP3    H117553   6.361   4.041   1.149  2.8379 -1.6936  1.0317
 5863TIP3    H217554   6.311   3.905   1.106 -1.3319 -0.2572  0.8015
 5864TIP3   OH217555   5.473   5.334   1.828 -0.2818  0.3785  0.1502
 5864TIP3    H117556   5.540   5.290   1.777  0.3784  1.5844 -0.0679
 5864TIP3    H217557   5.400   5.272   1.831 -0.1516  0.0763 -1.8211
 5865TIP3   OH217558   4.632   2.277   3.819  0.0976  0.1691 -0.2218
 5865TIP3    H117559   4.558   2.276   3.880 -0.4183 -0.3993 -0.8393
 5865TIP3    H217560   4.640   2.369   3.793  1.1478  0.6556  1.6603
 5866TIP3   OH217561   2.397   2.476   4.703  0.5308 -0.6056 -0.3713
 5866TIP3    H117562   2.442   2.441   4.780 -0.0191 -1.3518 -0.3758
 5866TIP3    H217563   2.304   2.468   4.724  0.3812 -0.3331 -0.9110
 5867TIP3   OH217564   6.979   3.795   4.427 -0.2458  0.1851 -0.5131
 5867TIP3    H117565   6.923   3.737   4.375  0.7398 -0.1503 -1.2208
 5867TIP3    H217566   7.064   3.751   4.429 -0.4551 -0.2917  2.1832
 5868TIP3   OH217567   1.220   6.650   2.265  0.3955  0.6167 -0.0451
 5868TIP3    H117568   1.255   6.635   2.177  0.0967  1.2849 -0.2807
 5868TIP3    H217569   1.288   6.616   2.324  1.4102  1.7781 -0.5023
 5869TIP3   OH217570   7.077   0.189   3.231 -0.4589 -0.3573 -0.2474
 5869TIP3    H117571   7.054   0.096   3.236 -0.5983 -0.4538 -2.0859
 5869TIP3    H217572   6.994   0.233   3.215 -0.0853 -0.2095 -1.9949
 5870TIP3   OH217573   2.008   5.134   5.622 -0.1749 -0.0775 -0.4688
 5870TIP3    H117574   2.057   5.211   5.592 -1.1378  0.7882  0.1272
 5870TIP3    H217575   2.064   5.060   5.598  0.8856  0.8084 -0.8465
 5871TIP3   OH217576   7.090   6.215   2.173  0.3182 -0.1538  0.0161
 5871TIP3    H117577   7.086   6.210   2.269  0.9988  0.6148  0.0929
 5871TIP3    H217578   7.181   6.236   2.154 -0.3127  2.1988 -0.6870
 5872TIP3   OH217579   6.875   3.267   1.290  0.0484 -0.1707  0.6505
 5872TIP3    H117580   6.837   3.238   1.207 -1.3691  0.6447  0.9802
 5872TIP3    H217581   6.873   3.362   1.286  0.2751 -0.1192  1.4831
 5873TIP3   OH217582   1.564   2.974   0.201 -0.6277 -0.1175  0.3697
 5873TIP3    H117583   1.536   2.947   0.113 -1.2362  0.0108  0.5189
 5873TIP3    H217584   1.542   2.899   0.257  0.5033 -0.5262  0.2881
 5874TIP3   OH217585   6.350   0.108   0.335  0.1054  0.2417 -0.2441
 5874TIP3    H117586   6.379   0.197   0.353  0.9251  0.1626 -1.0782
 5874TIP3    H217587   6.419   0.071   0.279 -1.1122 -0.2984 -1.4413
 5875TIP3   OH217588   3.757   4.880   5.609  0.8319  0.7992 -0.7537
 5875TIP3    H117589   3.755   4.965   5.652  0.8229  0.1917  0.5054
 5875TIP3    H217590   3.706   4.823   5.666  0.1337  0.1263 -2.0016
 5876TIP3   OH217591   0.586   4.307   0.761  0.5134 -0.2504  0.1781
 5876TIP3    H117592   0.505   4.255   0.761 -0.8325  1.6364 -2.2182
 5876TIP3    H217593   0.624   4.292   0.674  1.2645  1.0258  0.2681
 5877TIP3   OH217594   6.819   3.281   4.677  0.6972  0.3045  0.1362
 5877TIP3    H117595   6.879   3.318   4.742  0.2933  0.9204  0.1679
 5877TIP3    H217596   6.751   3.239   4.729  1.9760 -1.9567  0.1259
 5878TIP3   OH217597   6.217   2.790   5.572  0.2772  0.2309  0.4770
 5878TIP3    H117598   6.295   2.833   5.607  0.5040 -0.3561  0.7007
 5878TIP3    H217599   6.165   2.862   5.535  0.7289  0.6759  0.6891
 5879TIP3   OH217600   2.501   0.221   2.870 -0.2804  0.1925  0.1767
 5879TIP3    H117601   2.550   0.304   2.871  1.1094 -0.5490 -1.2577
 5879TIP3    H217602   2.525   0.179   2.953  0.3194  0.5213  0.1830
 5880TIP3   OH217603   5.016   5.381   0.309  0.0358  0.2169 -0.1385
 5880TIP3    H117604   5.009   5.434   0.388 -0.3863 -0.5455  0.3526
 5880TIP3    H217605   5.103   5.400   0.274  0.3349  0.3375  0.6697
 5881TIP3   OH217606   2.786   4.488   0.178 -0.0247  0.4536  0.3576
 5881TIP3    H117607   2.751   4.452   0.097  1.3503  2.7412 -1.3659
 5881TIP3    H217608   2.797   4.412   0.236  0.5260 -1.5162 -2.1861
 5882TIP3   OH217609   4.357   0.194   5.175 -0.0777 -0.0205  0.2514
 5882TIP3    H117610   4.388   0.126   5.115  2.1153  0.6610  0.5138
 5882TIP3    H217611   4.369   0.276   5.128  0.3461  0.4165  1.0970
 5883TIP3   OH217612   2.153   2.719   0.734  0.3856 -0.2410 -0.3704
 5883TIP3    H117613   2.241   2.723   0.696 -0.3740  0.4263 -2.1293
 5883TIP3    H217614   2.096   2.698   0.661 -1.1300  0.9396  0.4171
 5884TIP3   OH217615   1.123   2.441   0.479 -0.1055 -0.1103  0.1373
 5884TIP3    H117616   1.100   2.435   0.572  1.3643  0.8160  0.6015
 5884TIP3    H217617   1.193   2.376   0.467  0.9719  1.0032  0.1449
 5885TIP3   OH217618   4.059   2.243   3.005 -0.0899 -0.7326 -0.3168
 5885TIP3    H117619   4.116   2.190   2.950 -0.2527  0.2121 -1.4245
 5885TIP3    H217620   4.092   2.228   3.094  1.5385 -0.6553 -0.8680
 5886TIP3   OH217621   2.949   4.379   4.122  0.4193 -0.0388  0.1220
 5886TIP3    H117622   2.944   4.323   4.044  0.0399 -0.6443  0.5770
 5886TIP3    H217623   2.870   4.358   4.172 -0.9202  2.4412 -0.7132
 5887TIP3   OH217624   3.697   3.633   5.131 -0.0108  0.0234  0.0608
 5887TIP3    H117625   3.709   3.538   5.122 -2.3247 -0.3047 -0.0759
 5887TIP3    H217626   3.678   3.663   5.042 -2.8640 -0.0251  0.5533
 5888TIP3   OH217627   2.868   4.593   5.837 -0.3237  0.1326 -0.0528
 5888TIP3    H117628   2.957   4.606   5.870  0.1378 -0.3008 -1.0766
 5888TIP3    H217629   2.871   4.507   5.794 -1.3240 -0.0251  0.1719
 5889TIP3   OH217630   2.887   6.473   2.977  0.3816  0.3235 -0.0408
 5889TIP3    H117631   2.980   6.451   2.979  0.0651 -1.4921 -1.9322
 5889TIP3    H217632   2.844   6.392   2.951 -1.9763  0.5737  2.5660
 5890TIP3   OH217633   2.790   3.176   0.780  0.1867 -0.1688  0.1719
 5890TIP3    H117634   2.842   3.096   0.778  0.6197  0.1079 -0.8691
 5890TIP3    H217635   2.852   3.244   0.808  0.4615  0.1877 -1.2100
 5891TIP3   OH217636   4.439   5.637   2.029 -0.4014  0.1056  0.1925
 5891TIP3    H117637   4.496   5.575   2.075 -0.4181  0.6715  0.9957
 5891TIP3    H217638   4.351   5.611   2.055 -0.3563  1.3795  1.7671
 5892TIP3   OH217639   0.046   4.650   1.286  0.2030  0.1933 -0.1222
 5892TIP3    H117640   0.074   4.558   1.284  2.0709  0.7098  0.6188
 5892TIP3    H217641   0.078   4.683   1.370 -1.9969  1.0947  0.4399
 5893TIP3   OH217642   1.453   3.912   0.044  0.2288 -0.0887 -0.2632
 5893TIP3    H117643   1.437   4.000   0.078 -0.8813  0.1589 -1.3487
 5893TIP3    H217644   1.533   3.883   0.088 -0.2444  0.8397  1.2649
 5894TIP3   OH217645   0.536   1.703   0.757  0.1203 -0.1314  0.4587
 5894TIP3    H117646   0.577   1.629   0.801 -0.9948  0.7102  3.1037
 5894TIP3    H217647   0.537   1.773   0.822 -1.2966  1.3406 -1.0083
 5895TIP3   OH217648   0.660   4.002   3.055  0.1092  0.2095  0.2354
 5895TIP3    H117649   0.700   3.918   3.075 -0.0109  0.2637  0.7288
 5895TIP3    H217650   0.664   4.051   3.138 -3.6401 -0.8570  1.2736
 5896TIP3   OH217651   5.807   2.566   2.425  0.6329  0.9596 -0.1788
 5896TIP3    H117652   5.759   2.646   2.445 -0.9084 -0.0460  0.3988
 5896TIP3    H217653   5.807   2.562   2.330  1.4127  2.0153 -0.2412
 5897TIP3   OH217654   3.624   3.189   5.547 -0.7138 -0.6646  0.7172
 5897TIP3    H117655   3.619   3.109   5.599 -0.7635 -0.4366  1.0682
 5897TIP3    H217656   3.544   3.237   5.570 -0.8954 -0.7052  0.1867
 5898TIP3   OH217657   4.149   6.522   5.155 -0.1147  0.3609 -0.2799
 5898TIP3    H117658   4.055   6.504   5.145 -0.1551  0.7186 -0.5287
 5898TIP3    H217659   4.165   6.511   5.249 -0.2292 -0.5510 -0.3537
 5899TIP3   OH217660   5.860   0.209   3.770  0.4946 -0.3160 -0.2856
 5899TIP3    H117661   5.836   0.116   3.764  0.3752 -0.2024 -1.9826
 5899TIP3    H217662   5.955   0.209   3.764  0.6390 -0.4227  1.5074
 5900TIP3   OH217663   0.856   4.175   5.395  0.1402 -0.2830 -0.0615
 5900TIP3    H117664   0.940   4.140   5.364  0.4479  0.2320  0.1894
 5900TIP3    H217665   0.855   4.157   5.489  1.0535  1.8580  0.4073
 5901TIP3   OH217666   2.281   2.641   4.376 -0.0268 -0.1434 -0.5904
 5901TIP3    H117667   2.340   2.569   4.356  0.8559 -0.0079  1.3196
 5901TIP3    H217668   2.218   2.604   4.438  0.5851  0.7390  0.6071
 5902TIP3   OH217669   1.760   2.625   1.504  0.0614 -0.1261  0.1098
 5902TIP3    H117670   1.792   2.686   1.570  0.8950  0.4546 -0.7999
 5902TIP3    H217671   1.706   2.680   1.446  0.0342 -0.4496 -0.1729
 5903TIP3   OH217672   4.624   5.436   5.728  0.4615  0.0835  0.3413
 5903TIP3    H117673   4.629   5.527   5.755 -3.7038  0.8102 -0.6609
 5903TIP3    H217674   4.538   5.406   5.758 -0.0539 -2.1945 -2.8538
 5904TIP3   OH217675   7.104   2.483   2.788 -0.8974 -0.2520 -0.3959
 5904TIP3    H117676   7.159   2.533   2.727 -0.7402  2.4166  1.7866
 5904TIP3    H217677   7.166   2.442   2.847 -1.1428 -0.0009  0.0370
 5905TIP3   OH217678   4.914   3.476   5.096 -0.0182 -0.3255  0.2029
 5905TIP3    H117679   4.918   3.461   5.001  0.0679  2.0128 -0.2359
 5905TIP3    H217680   4.830   3.521   5.109  0.2923 -0.0087  1.1312
 5906TIP3   OH217681   2.655   5.580   5.207  0.5103 -0.2217  0.3541
 5906TIP3    H117682   2.560   5.565   5.204  0.5078 -0.3180  0.8255
 5906TIP3    H217683   2.685   5.559   5.119  0.2868 -1.5831  0.5767
 5907TIP3   OH217684   5.091   3.497   1.346  0.1930  0.1398  0.0043
 5907TIP3    H117685   5.082   3.418   1.294 -1.5361  1.2669 -1.5227
 5907TIP3    H217686   5.143   3.556   1.292 -0.1172  0.7011  0.3022
 5908TIP3   OH217687   1.792   6.511   4.969  0.8621 -0.5337 -0.7459
 5908TIP3    H117688   1.873   6.544   4.931 -0.9339  1.9714 -2.8363
 5908TIP3    H217689   1.737   6.489   4.893 -2.0475  2.3928  0.2600
 5909TIP3   OH217690   3.137   2.071   4.322 -0.0123  0.1025  0.0561
 5909TIP3    H117691   3.111   2.038   4.408 -0.2375 -1.8571 -0.7169
 5909TIP3    H217692   3.226   2.039   4.310  1.1398  2.7582  0.6753
 5910TIP3   OH217693   3.873   1.769   4.208  0.3873  0.2111 -0.0287
 5910TIP3    H117694   3.920   1.786   4.127  1.3058  2.0559  0.8409
 5910TIP3    H217695   3.854   1.675   4.206  0.1711  0.2509 -2.4617
 5911TIP3   OH217696   5.793   0.469   1.396  0.1274 -0.1570 -0.0308
 5911TIP3    H117697   5.764   0.425   1.316  1.0813 -1.7443  0.4507
 5911TIP3    H217698   5.745   0.425   1.466  0.6156  0.0185  0.4153
 5912TIP3   OH217699   3.003   1.836   3.961 -0.4894 -0.2558 -0.5642
 5912TIP3    H117700   3.017   1.819   3.868  1.3406  0.2756 -0.4376
 5912TIP3    H217701   3.011   1.750   4.002 -1.7057 -0.5493 -0.9284
 5913TIP3   OH217702   6.374   1.709   3.936 -0.0835  0.0385 -0.3602
 5913TIP3    H117703   6.455   1.672   3.972 -0.6146 -0.4505  0.3595
 5913TIP3    H217704   6.396   1.801   3.918  1.5666 -0.7879 -3.1555
 5914TIP3   OH217705   1.959   4.583   3.314 -0.1296 -0.2699 -0.4658
 5914TIP3    H117706   2.043   4.571   3.269  0.0171  2.2246 -0.9718
 5914TIP3    H217707   1.951   4.506   3.371  1.0758 -2.0469 -2.5409
 5915TIP3   OH217708   2.819   6.220   5.740  0.0923 -0.3858  0.5904
 5915TIP3    H117709   2.728   6.224   5.768  0.5233  0.8841  1.9168
 5915TIP3    H217710   2.834   6.303   5.695  0.9373 -0.0023  1.5467
 5916TIP3   OH217711   4.526   5.270   2.940 -0.6365 -0.0711 -0.1665
 5916TIP3    H117712   4.466   5.207   2.901 -0.9860 -0.0071  0.2581
 5916TIP3    H217713   4.567   5.223   3.012  2.0458 -1.0910 -2.2006
 5917TIP3   OH217714   0.172   2.326   2.655 -0.2839 -0.0691  0.2181
 5917TIP3    H117715   0.162   2.420   2.668  0.0495 -0.0741  0.5251
 5917TIP3    H217716   0.259   2.316   2.615 -0.1829 -0.2721  0.4860
 5918TIP3   OH217717   4.775   6.104   2.741 -0.0757  0.6770 -0.3231
 5918TIP3    H117718   4.833   6.065   2.806  0.3267  0.2532 -0.9249
 5918TIP3    H217719   4.710   6.152   2.792 -0.3481 -0.4462  0.4240
 5919TIP3   OH217720   2.357   4.271   3.033 -0.2480  0.0170  0.2111
 5919TIP3    H117721   2.284   4.223   3.071  0.3112 -0.9302  0.1096
 5919TIP3    H217722   2.347   4.259   2.938  0.0081 -0.0712  0.1945
 5920TIP3   OH217723   1.720   0.389   0.033 -0.8578  0.1718  0.3198
 5920TIP3    H117724   1.657   0.372   0.103 -1.1748 -2.4769 -0.4999
 5920TIP3    H217725   1.716   0.311  -0.022  3.7350 -0.5464  0.6362
 5921TIP3   OH217726   1.299   5.935   3.897  0.2434 -0.0115  0.5351
 5921TIP3    H117727   1.360   5.949   3.825  0.0561  1.8745  0.6673
 5921TIP3    H217728   1.215   5.920   3.855  0.4719 -0.8525  0.3657
 5922TIP3   OH217729   7.178   5.536   3.089 -0.2020 -0.1054 -0.1946
 5922TIP3    H117730   7.139   5.505   3.008  2.4428 -1.1391 -1.1861
 5922TIP3    H217731   7.241   5.467   3.113  0.7528  1.2548  1.4481
 5923TIP3   OH217732   3.297   4.010   4.114 -0.4510  0.3925 -0.3542
 5923TIP3    H117733   3.338   3.927   4.139 -0.4061  0.7385  0.8020
 5923TIP3    H217734   3.346   4.077   4.164 -0.7332  1.0728 -0.9722
 5924TIP3   OH217735   1.767   0.912   5.278 -0.2912 -0.1972  0.0440
 5924TIP3    H117736   1.731   0.927   5.365  0.4108 -1.3684  0.5518
 5924TIP3    H217737   1.862   0.917   5.289 -0.2033  0.0447 -0.7364
 5925TIP3   OH217738   1.438   0.940   3.639 -0.8109  0.6360 -0.3550
 5925TIP3    H117739   1.388   1.017   3.613 -0.4191  1.3586  0.9433
 5925TIP3    H217740   1.449   0.949   3.734 -1.3109 -1.3377 -0.0484
 5926TIP3   OH217741   2.179   3.244   4.679 -0.5028  0.0602  0.2863
 5926TIP3    H117742   2.189   3.295   4.760  0.9264 -0.4992  0.5011
 5926TIP3    H217743   2.255   3.268   4.626 -0.5063 -0.8575 -0.1594
 5927TIP3   OH217744   7.044   2.840   0.860  0.9293 -0.0365  0.1125
 5927TIP3    H117745   7.093   2.914   0.897  2.0946 -0.3938 -0.6609
 5927TIP3    H217746   6.952   2.869   0.861  1.5122  2.1884 -1.8127
 5928TIP3   OH217747   1.908   3.958   5.472 -0.5424 -0.3576  0.5297
 5928TIP3    H117748   1.914   4.048   5.504  0.9660 -0.7143  1.3343
 5928TIP3    H217749   1.907   3.904   5.551  0.5107 -1.1314  0.0354
 5929TIP3   OH217750   1.807   2.921   3.398 -0.2569  0.1625 -0.5127
 5929TIP3    H117751   1.825   2.850   3.460 -2.8051 -0.4287 -0.3331
 5929TIP3    H217752   1.797   2.999   3.453 -0.4942  0.0413 -0.3804
 5930TIP3   OH217753   5.821   1.176   5.466 -0.2737  0.1880  0.1068
 5930TIP3    H117754   5.859   1.144   5.384 -0.0720  1.9335 -0.5178
 5930TIP3    H217755   5.885   1.239   5.499 -0.6398 -0.0463  1.3096
 5931TIP3   OH217756   5.635   6.723   0.745  0.4168  0.2901 -0.1970
 5931TIP3    H117757   5.721   6.708   0.785  0.1384 -1.4726 -0.1695
 5931TIP3    H217758   5.611   6.638   0.709 -0.5666  1.1792 -1.7258
 5932TIP3   OH217759   4.323   5.065   4.098 -0.4564  0.3611  0.0016
 5932TIP3    H117760   4.237   5.030   4.075  0.1374 -0.0656 -1.7237
 5932TIP3    H217761   4.330   5.147   4.049  0.3490  0.1028 -0.3198
 5933TIP3   OH217762   3.448   5.166   5.267  0.1521  0.0889  0.4704
 5933TIP3    H117763   3.517   5.231   5.254  0.4085 -0.3369 -0.3548
 5933TIP3    H217764   3.452   5.111   5.189 -2.0856  0.9327 -0.3225
 5934TIP3   OH217765   4.407   5.188   4.788 -0.3232  0.4619  0.4577
 5934TIP3    H117766   4.452   5.266   4.818  1.2341  0.2226 -1.0742
 5934TIP3    H217767   4.319   5.218   4.764  0.2082  1.7127  0.0137
 5935TIP3   OH217768   0.728   2.384   5.388  0.0379 -0.0606  0.4548
 5935TIP3    H117769   0.797   2.367   5.453 -0.2933 -1.6696  0.4166
 5935TIP3    H217770   0.773   2.378   5.303  0.4456  1.9263  0.4650
 5936TIP3   OH217771   5.961   4.517   0.927  0.0400 -0.2593 -0.6712
 5936TIP3    H117772   5.934   4.605   0.903  0.7743  0.8722  2.2238
 5936TIP3    H217773   5.933   4.507   1.018  0.5776 -2.7809 -0.7008
 5937TIP3   OH217774   2.688   0.953   1.589 -0.2397  0.3226  0.4467
 5937TIP3    H117775   2.712   0.996   1.506  0.2011 -2.4474 -0.9571
 5937TIP3    H217776   2.593   0.950   1.587 -0.2108 -0.4465 -0.3858
 5938TIP3   OH217777   5.203   1.748   2.002 -0.8042 -0.0686  0.3775
 5938TIP3    H117778   5.198   1.841   2.026  0.6902 -0.5294  2.7498
 5938TIP3    H217779   5.209   1.702   2.085 -1.5571 -2.3536 -0.7417
 5939TIP3   OH217780   2.249   6.484   0.804 -0.7032 -0.8640 -0.3890
 5939TIP3    H117781   2.154   6.486   0.819 -0.5776 -1.0527  0.4909
 5939TIP3    H217782   2.287   6.483   0.892  0.1101 -1.0674 -0.7334
 5940TIP3   OH217783   0.234   4.291   3.974 -0.1360 -0.8180  0.1533
 5940TIP3    H117784   0.285   4.277   4.054  0.4573  0.7143  0.0596
 5940TIP3    H217785   0.171   4.359   3.997  0.0017 -0.4068 -0.6712
 5941TIP3   OH217786   2.335   4.514   3.397 -0.4572  0.2249 -0.1110
 5941TIP3    H117787   2.309   4.474   3.480 -2.3089  1.2600 -0.1456
 5941TIP3    H217788   2.377   4.596   3.422 -1.3330  0.7082 -0.1716
 5942TIP3   OH217789   7.135   5.638   2.006 -0.0431 -0.5309 -0.0199
 5942TIP3    H117790   7.054   5.602   2.043 -0.0772 -0.0429  0.3842
 5942TIP3    H217791   7.164   5.703   2.070  0.3802 -0.3220 -0.4214
 5943TIP3   OH217792   6.112   4.548   0.041 -0.0561 -0.0294  0.1535
 5943TIP3    H117793   6.195   4.510   0.071  0.8573  2.3211  0.8486
 5943TIP3    H217794   6.050   4.475   0.042  1.5336 -1.4473  1.5003
 5944TIP3   OH217795   1.008   4.214   4.615 -0.0741 -0.3995 -0.1039
 5944TIP3    H117796   1.029   4.135   4.566  2.9410 -0.0960  0.4872
 5944TIP3    H217797   0.968   4.272   4.551 -1.3829 -1.9656 -0.7901
 5945TIP3   OH217798   6.100   4.988   1.022 -0.4044  0.5767  0.1273
 5945TIP3    H117799   6.039   5.053   1.056 -0.7246  1.0185 -1.2419
 5945TIP3    H217800   6.106   4.923   1.092  0.2378  2.2384  1.7156
 5946TIP3   OH217801   0.779   0.883   2.041 -0.1203  0.6075  0.4020
 5946TIP3    H117802   0.764   0.808   2.099  0.3406 -0.6835 -1.1051
 5946TIP3    H217803   0.708   0.944   2.063 -1.5300 -1.0002  0.4826
 5947TIP3   OH217804   1.522   4.564   5.676 -0.3298  0.1222 -0.0761
 5947TIP3    H117805   1.486   4.510   5.606 -1.7168  2.3506 -1.1872
 5947TIP3    H217806   1.617   4.551   5.670 -0.5055 -0.7189 -1.5176
 5948TIP3   OH217807   6.371   3.441   2.989  0.4608 -0.2782 -0.2498
 5948TIP3    H117808   6.292   3.485   3.023  0.4040  0.1515 -0.9234
 5948TIP3    H217809   6.346   3.410   2.903  1.5632  1.5141 -1.2870
 5949TIP3   OH217810   2.329   1.868   5.613 -0.5433 -0.2984  0.1726
 5949TIP3    H117811   2.252   1.904   5.569  0.4665  0.2093 -1.2634
 5949TIP3    H217812   2.403   1.899   5.561  0.4955 -3.0871 -0.1797
 5950TIP3   OH217813   2.540   6.136   5.627  0.1185 -0.2562  0.9346
 5950TIP3    H117814   2.495   6.213   5.660  0.7344  1.3447 -1.7179
 5950TIP3    H217815   2.479   6.064   5.641 -2.3963  1.4678 -0.5996
 5951TIP3   OH217816   4.444   6.342   5.618 -0.3316  0.5412 -0.5228
 5951TIP3    H117817   4.507   6.307   5.555 -0.3872  0.6731 -0.6533
 5951TIP3    H217818   4.381   6.272   5.631 -1.7466  1.3312 -2.5136
 5952TIP3   OH217819   4.028   3.337   0.771  0.3028 -0.2071  0.3155
 5952TIP3    H117820   4.053   3.287   0.693  1.5291  1.7002 -0.6110
 5952TIP3    H217821   4.055   3.283   0.845  3.1391 -0.2896 -0.6421
 5953TIP3   OH217822   6.328   3.964   0.387 -0.0562  0.6883 -0.2091
 5953TIP3    H117823   6.417   3.944   0.418 -0.1355 -0.9838 -0.9663
 5953TIP3    H217824   6.271   3.939   0.460 -0.0433 -0.5012 -0.5841
 5954TIP3   OH217825   1.807   2.824   2.404 -0.2219 -0.2237 -0.1701
 5954TIP3    H117826   1.880   2.775   2.442 -0.2632 -0.2766 -0.1574
 5954TIP3    H217827   1.792   2.897   2.464  0.8455  0.7057 -0.9993
 5955TIP3   OH217828   4.427   5.874   4.841 -0.6733  0.7836  0.6792
 5955TIP3    H117829   4.379   5.850   4.762 -0.5080  2.1952  0.1236
 5955TIP3    H217830   4.414   5.800   4.900 -0.6929 -0.3656 -0.7079
 5956TIP3   OH217831   4.332   6.299   1.155 -0.4834 -0.0019 -0.3235
 5956TIP3    H117832   4.344   6.333   1.244  0.8088  0.6229 -0.7082
 5956TIP3    H217833   4.388   6.355   1.101  1.4341 -2.4495 -1.0454
 5957TIP3   OH217834   5.202   4.306   3.480  0.3440 -0.2312 -0.2220
 5957TIP3    H117835   5.201   4.386   3.532 -2.9349 -0.2759  0.0244
 5957TIP3    H217836   5.202   4.335   3.389 -3.5464  0.3250 -0.1974
 5958TIP3   OH217837   0.169   3.522   1.603 -0.5325 -0.1524  0.2583
 5958TIP3    H117838   0.199   3.558   1.687  0.5359 -1.2935  0.3899
 5958TIP3    H217839   0.074   3.516   1.613 -0.6952  1.9397  0.4733
 5959TIP3   OH217840   1.435   3.624   0.593  0.6545 -0.1302 -0.4156
 5959TIP3    H117841   1.352   3.578   0.611  0.0103  0.0624 -2.6127
 5959TIP3    H217842   1.479   3.628   0.678 -2.8487  2.3445  1.5326
 5960TIP3   OH217843   3.338   2.493   3.777 -0.1445  0.0935 -0.5436
 5960TIP3    H117844   3.330   2.440   3.856 -0.4751  0.2218 -0.4893
 5960TIP3    H217845   3.432   2.493   3.758  0.0950  1.0115  0.5150
 5961TIP3   OH217846   4.195   1.445   4.377  0.1132  0.0200  0.4088
 5961TIP3    H117847   4.178   1.532   4.341  1.0118 -0.6086 -1.6626
 5961TIP3    H217848   4.122   1.429   4.436 -0.4177  1.8961  0.3302
 5962TIP3   OH217849   6.186   1.256   1.966  0.6479 -0.7583 -0.0475
 5962TIP3    H117850   6.277   1.232   1.949  1.2608 -0.1002  2.0315
 5962TIP3    H217851   6.191   1.317   2.040 -1.5383 -1.2548  0.5681
 5963TIP3   OH217852   5.633   4.760   5.049 -0.8216 -0.1369  0.0820
 5963TIP3    H117853   5.696   4.734   4.982 -0.8100 -3.7108  1.2602
 5963TIP3    H217854   5.557   4.792   5.000  0.7822  1.6357 -1.4212
 5964TIP3   OH217855   4.873   1.061   3.788 -0.2143 -0.9272 -0.2889
 5964TIP3    H117856   4.841   1.149   3.809  0.8692 -0.2056 -1.4828
 5964TIP3    H217857   4.808   1.026   3.727  0.1160 -0.3393 -0.9936
 5965TIP3   OH217858   1.708   3.151   3.901  0.6499  0.5553 -0.2297
 5965TIP3    H117859   1.709   3.245   3.917 -1.3450  0.3616  1.3920
 5965TIP3    H217860   1.704   3.111   3.988 -0.2649 -0.9467 -0.9158
 5966TIP3   OH217861   7.080   2.282   5.309 -0.2288  0.2268  0.1695
 5966TIP3    H117862   7.064   2.245   5.395 -1.7359 -0.7815 -0.5092
 5966TIP3    H217863   7.083   2.206   5.250 -2.1855  1.0298 -1.0729
 5967TIP3   OH217864   3.058   5.528   2.176  0.2904  0.5333  0.1017
 5967TIP3    H117865   2.999   5.603   2.172  0.4861  0.6462 -2.7259
 5967TIP3    H217866   3.002   5.452   2.156  0.9509  0.6246 -2.4466
 5968TIP3   OH217867   1.660   0.863   0.444 -0.4533 -0.0541 -0.2671
 5968TIP3    H117868   1.578   0.879   0.491  1.0466  1.8414  1.9027
 5968TIP3    H217869   1.683   0.773   0.466 -0.6724  0.2366  1.2445
 5969TIP3   OH217870   4.750   6.350   5.679  0.0864  0.2621  0.2231
 5969TIP3    H117871   4.811   6.373   5.750  0.6225  0.3769 -0.2676
 5969TIP3    H217872   4.807   6.327   5.605 -0.4327 -1.3261  0.2746
 5970TIP3   OH217873   2.913   3.316   1.378  0.0442  0.5549  0.1367
 5970TIP3    H117874   2.824   3.351   1.372 -0.3824 -0.3332  1.0360
 5970TIP3    H217875   2.901   3.222   1.386  1.0600  0.4489  0.4960
 5971TIP3   OH217876   5.202   4.863   4.494 -0.4404 -0.0718  0.2019
 5971TIP3    H117877   5.205   4.902   4.581  0.9882 -2.4069  1.2695
 5971TIP3    H217878   5.109   4.842   4.481 -0.4133 -1.5820  2.0845
 5972TIP3   OH217879   4.825   2.674   5.228  0.4063  0.1120  0.0357
 5972TIP3    H117880   4.766   2.625   5.286  2.0438 -0.2302  1.4909
 5972TIP3    H217881   4.911   2.667   5.269  1.7152 -0.2671 -2.5371
 5973TIP3   OH217882   5.250   4.830   2.062  0.8126  0.1865 -0.2855
 5973TIP3    H117883   5.243   4.865   1.973 -1.4871  2.1593  0.5566
 5973TIP3    H217884   5.337   4.858   2.092  0.6677  1.6454 -1.1149
 5974TIP3   OH217885   2.782   4.505   1.561  0.1357 -0.3756  0.2383
 5974TIP3    H117886   2.727   4.429   1.580 -0.0845 -0.6588 -1.3647
 5974TIP3    H217887   2.734   4.552   1.493  1.7290 -0.4753 -1.0081
 5975TIP3   OH217888   3.444   1.763   0.782 -0.0616 -0.4035  0.4316
 5975TIP3    H117889   3.409   1.682   0.746  1.0945 -0.4329 -0.6938
 5975TIP3    H217890   3.531   1.740   0.815 -0.7190 -0.1749  2.5212
 5976TIP3   OH217891   2.632   3.714   4.662  0.3779 -0.3094  0.5272
 5976TIP3    H117892   2.576   3.752   4.731  0.4912  1.7067 -0.4027
 5976TIP3    H217893   2.706   3.775   4.655  0.8270 -0.9639 -0.7379
 5977TIP3   OH217894   3.601   1.338   1.727 -0.4931 -0.2663 -0.0508
 5977TIP3    H117895   3.521   1.286   1.727 -2.2711  2.2917  0.3755
 5977TIP3    H217896   3.599   1.385   1.644 -0.1050  0.7599  0.5027
 5978TIP3   OH217897   7.033   6.782   1.548  0.3409  0.0238 -0.0212
 5978TIP3    H117898   6.943   6.794   1.579  0.7164  1.2487  0.6479
 5978TIP3    H217899   7.067   6.709   1.600 -0.5380 -1.0460 -0.9110
 5979TIP3   OH217900   4.098   1.755   3.284  0.5144 -1.2217 -0.2171
 5979TIP3    H117901   4.075   1.839   3.246 -0.6528 -0.0712  2.7606
 5979TIP3    H217902   4.177   1.772   3.336  1.2354 -2.3939 -0.8608
 5980TIP3   OH217903   0.481   0.391   5.580 -0.1846 -0.7702 -0.2378
 5980TIP3    H117904   0.519   0.394   5.492  1.8221 -1.8525  0.5185
 5980TIP3    H217905   0.445   0.302   5.587 -0.9556 -0.4620 -0.1787
 5981TIP3   OH217906   2.654   5.839   0.805 -0.0648  0.1926  0.0337
 5981TIP3    H117907   2.629   5.819   0.895  0.3872 -0.4362  0.0248
 5981TIP3    H217908   2.585   5.898   0.773  0.7602  2.0363  1.4288
 5982TIP3   OH217909   4.761   0.974   5.612 -0.3972 -0.7564  0.7570
 5982TIP3    H117910   4.793   0.887   5.590  1.0549 -0.1886  0.5068
 5982TIP3    H217911   4.675   0.959   5.652 -0.4408 -2.2419  0.1615
 5983TIP3   OH217912   3.909   5.211   1.262 -0.1409  0.3956  0.6026
 5983TIP3    H117913   3.876   5.205   1.351  0.9973 -2.2524  0.9443
 5983TIP3    H217914   3.831   5.222   1.208 -1.5060 -3.1061  1.5847
 5984TIP3   OH217915   0.614   1.492   4.542  0.1970  0.1903  0.0108
 5984TIP3    H117916   0.644   1.556   4.606  0.1869  1.0610 -0.8322
 5984TIP3    H217917   0.539   1.534   4.499 -0.3256 -0.7223  0.0022
 5985TIP3   OH217918   3.627   5.746   0.825  0.3903  0.4514 -0.0010
 5985TIP3    H117919   3.703   5.687   0.826  0.9269  1.1434  0.2366
 5985TIP3    H217920   3.654   5.822   0.876 -1.1139 -0.0711  1.6887
 5986TIP3   OH217921   4.852   6.645   1.691 -0.2379 -0.7607  0.7747
 5986TIP3    H117922   4.834   6.614   1.602 -0.6290 -1.9143  1.2303
 5986TIP3    H217923   4.944   6.673   1.689 -0.4098 -0.2466 -0.1287
 5987TIP3   OH217924   1.546   2.883   3.901  0.0287 -0.4948 -0.0651
 5987TIP3    H117925   1.527   2.976   3.913 -1.1892 -0.7290 -0.0288
 5987TIP3    H217926   1.625   2.881   3.847  0.9364  0.5538  1.1761
 5988TIP3   OH217927   0.576   6.241   5.283 -0.1720  0.4672  0.3566
 5988TIP3    H117928   0.539   6.179   5.346  0.5830 -1.8673 -1.3859
 5988TIP3    H217929   0.663   6.262   5.318  0.4216 -1.1632 -0.0482
 5989TIP3   OH217930   4.635   0.196   0.037  0.0437  0.2958 -0.1502
 5989TIP3    H117931   4.649   0.288   0.013  0.0246  0.5482  0.7501
 5989TIP3    H217932   4.645   0.195   0.133  1.0276 -0.8154 -0.2507
 5990TIP3   OH217933   0.758   1.490   3.704  0.4551  0.6734  0.0768
 5990TIP3    H117934   0.698   1.545   3.653 -0.0244  0.4714  0.4217
 5990TIP3    H217935   0.771   1.413   3.649 -0.8335  0.0092  0.6636
 5991TIP3   OH217936   3.385   1.243   3.281  0.0794  0.0856  0.1286
 5991TIP3    H117937   3.404   1.236   3.187 -1.5033  1.4700 -0.3491
 5991TIP3    H217938   3.429   1.323   3.309 -1.0708  0.7576  0.0801
 5992TIP3   OH217939   3.164   6.137   1.181 -0.4038  0.2174  0.0316
 5992TIP3    H117940   3.090   6.134   1.120 -1.3343  1.0073  1.0820
 5992TIP3    H217941   3.180   6.230   1.195 -0.8669  0.0659  1.7474
 5993TIP3   OH217942   3.877   1.341   4.783 -0.0914 -0.3186  0.1125
 5993TIP3    H117943   3.800   1.285   4.770 -0.1633 -0.6819  1.8098
 5993TIP3    H217944   3.915   1.309   4.865 -0.3496  2.3671  1.3666
 5994TIP3   OH217945   6.207   1.904   2.918 -0.0295  0.1495  0.1328
 5994TIP3    H117946   6.177   1.945   2.999 -2.0649 -1.6480  0.3946
 5994TIP3    H217947   6.241   1.819   2.945 -0.1467 -0.2157 -0.8058
 5995TIP3   OH217948   3.561   5.199   3.770 -0.4200  0.5865 -0.7522
 5995TIP3    H117949   3.516   5.281   3.754 -0.1255  1.5261  2.4761
 5995TIP3    H217950   3.496   5.144   3.815  0.4021  0.4404  0.3135
 5996TIP3   OH217951   3.746   2.691   0.529 -0.5995  0.1374 -0.1752
 5996TIP3    H117952   3.827   2.644   0.550 -2.5431 -2.9948  1.1382
 5996TIP3    H217953   3.710   2.644   0.454 -2.4403 -0.2952  0.9141
 5997TIP3   OH217954   6.081   1.681   4.045 -0.5470 -0.2118 -0.2942
 5997TIP3    H117955   6.058   1.773   4.059 -0.0946  0.1737 -1.8097
 5997TIP3    H217956   6.174   1.684   4.022 -0.4483 -1.0908 -0.0187
 5998TIP3   OH217957   5.306   5.827   5.505 -0.3823  0.5874  0.5800
 5998TIP3    H117958   5.327   5.734   5.497 -0.2843  0.5042  1.7113
 5998TIP3    H217959   5.213   5.833   5.484  0.1906  0.6747 -2.4630
 5999TIP3   OH217960   4.541   3.676   5.629 -0.2980  0.2492  0.2398
 5999TIP3    H117961   4.590   3.752   5.657  0.7591 -0.3390  0.0465
 5999TIP3    H217962   4.450   3.698   5.647  0.1665  0.6488  2.2987
 6000TIP3   OH217963   2.857   4.545   2.776  0.3869 -0.0824 -0.1442
 6000TIP3    H117964   2.789   4.606   2.748  0.9129 -0.2098 -1.7648
 6000TIP3    H217965   2.809   4.463   2.793 -0.1285  0.3869  0.7398
 6001TIP3   OH217966   4.004   6.589   1.675  0.7274 -0.7231  0.9014
 6001TIP3    H117967   3.960   6.545   1.602  1.2578  1.4384 -0.8340
 6001TIP3    H217968   3.955   6.562   1.752 -1.4285 -1.1681 -0.5188
 6002TIP3   OH217969   5.527   3.463   3.721 -0.6618 -0.6549  0.0929
 6002TIP3    H117970   5.524   3.408   3.800 -0.1425 -1.1576 -0.2244
 6002TIP3    H217971   5.439   3.458   3.685 -0.3616 -2.2086 -0.5282
 6003TIP3   OH217972   2.864   0.408   4.741  0.0982  0.7560  0.2052
 6003TIP3    H117973   2.843   0.419   4.648  1.3340  2.3436  0.0685
 6003TIP3    H217974   2.891   0.317   4.749 -1.1067  0.2929 -0.7512
 6004TIP3   OH217975   6.098   4.908   5.049  0.4000 -0.2842 -0.2275
 6004TIP3    H117976   6.007   4.937   5.053  0.2540 -0.8629  0.8240
 6004TIP3    H217977   6.095   4.815   5.068  1.1863 -0.3812 -0.5263
 6005TIP3   OH217978   0.068   3.428   4.997 -0.0595 -0.4651 -0.1414
 6005TIP3    H117979   0.067   3.345   4.950 -1.4703 -1.1456  1.0158
 6005TIP3    H217980   0.053   3.405   5.088 -0.1211  1.0344  0.2642
 6006TIP3   OH217981   6.116   4.763   3.109 -0.3378  0.0505 -0.0426
 6006TIP3    H117982   6.123   4.817   3.188  2.8028  1.2528 -1.0100
 6006TIP3    H217983   6.136   4.823   3.037  2.6981 -2.1366 -1.2386
 6007TIP3   OH217984   6.044   2.430   2.004 -0.6671  0.1550  0.2958
 6007TIP3    H117985   6.077   2.497   1.943  1.8604 -1.0849  0.1698
 6007TIP3    H217986   6.039   2.350   1.951 -0.9576 -0.3780  1.1039
 6008TIP3   OH217987   1.422   4.649   0.528 -0.6976  0.6019 -0.2416
 6008TIP3    H117988   1.387   4.736   0.551 -2.1751 -0.0369  0.0329
 6008TIP3    H217989   1.372   4.624   0.450 -1.4509 -0.6933  0.6347
 6009TIP3   OH217990   1.564   3.260   1.933 -0.3959 -0.3712 -0.4776
 6009TIP3    H117991   1.570   3.336   1.991  0.5770  1.0060 -2.2679
 6009TIP3    H217992   1.525   3.192   1.987  0.5320  0.7848  1.8082
 6010TIP3   OH217993   4.884   1.868   3.043 -0.2213  0.0078  0.7305
 6010TIP3    H117994   4.890   1.836   3.133  0.5215 -0.7327  0.4316
 6010TIP3    H217995   4.876   1.963   3.051 -1.1206 -0.1301  1.5990
 6011TIP3   OH217996   3.868   5.396   0.310 -0.0404  0.1729 -0.1353
 6011TIP3    H117997   3.868   5.491   0.305  2.2104  0.1937 -0.7139
 6011TIP3    H217998   3.879   5.377   0.403  1.9058  0.5551 -0.2533
 6012TIP3   OH217999   6.433   2.821   2.897 -0.2354  0.3001  0.2269
 6012TIP3    H118000   6.460   2.808   2.806 -0.3574  0.9865  0.0827
 6012TIP3    H218001   6.514   2.843   2.943 -0.4148  1.7049 -0.0758
 6013TIP3   OH218002   2.041   5.035   1.940 -0.0205  0.0048  0.3428
 6013TIP3    H118003   2.004   5.060   1.856  0.4933 -0.9589 -0.1961
 6013TIP3    H218004   1.990   4.959   1.967  0.5019 -0.3485  0.3686
 6014TIP3   OH218005   6.258   1.018   5.108 -0.1754  0.3315  0.6688
 6014TIP3    H118006   6.255   1.102   5.063  0.1296 -0.1754 -0.3194
 6014TIP3    H218007   6.285   0.955   5.041 -1.3982 -0.7342  1.1148
 6015TIP3   OH218008   1.946   5.551   3.908 -0.1390 -0.5523  0.2683
 6015TIP3    H118009   2.031   5.540   3.952 -0.6823  1.3656  2.0004
 6015TIP3    H218010   1.943   5.645   3.888 -2.0535 -0.4741  0.7626
 6016TIP3   OH218011   6.115   5.365   3.522  0.2308 -0.7446  0.1984
 6016TIP3    H118012   6.138   5.447   3.566  0.4845  0.0812 -1.3928
 6016TIP3    H218013   6.092   5.392   3.433  0.5574 -2.4307 -0.4267
 6017TIP3   OH218014   3.234   2.294   3.628 -0.0138  0.1391 -0.0174
 6017TIP3    H118015   3.259   2.378   3.665  1.8861  1.1758 -3.2733
 6017TIP3    H218016   3.286   2.230   3.676  0.5816  1.1012  0.6558
 6018TIP3   OH218017   7.073   4.251   4.189 -0.3605  0.0011  0.2829
 6018TIP3    H118018   7.114   4.311   4.252 -1.6850  1.5306 -0.2538
 6018TIP3    H218019   7.133   4.250   4.114 -1.0996  1.9731 -0.3727
 6019TIP3   OH218020   1.349   3.156   4.245 -0.1696  0.3154  0.0333
 6019TIP3    H118021   1.361   3.199   4.330 -1.2435 -0.1884  0.4653
 6019TIP3    H218022   1.434   3.163   4.202  0.9161 -0.9106  1.8431
 6020TIP3   OH218023   5.237   1.349   1.682  0.3265  0.1427 -0.7345
 6020TIP3    H118024   5.284   1.412   1.737  0.9353 -1.2075  0.3769
 6020TIP3    H218025   5.275   1.264   1.706 -1.8578 -0.8747 -0.6809
 6021TIP3   OH218026   2.652   1.161   0.366  0.3935 -0.3605  0.6697
 6021TIP3    H118027   2.611   1.124   0.445  1.4714 -0.6183  1.1284
 6021TIP3    H218028   2.619   1.250   0.361 -1.5386 -1.0472  0.0693
 6022TIP3   OH218029   1.884   2.492   5.532  0.3095 -0.4025 -0.1748
 6022TIP3    H118030   1.915   2.535   5.453  0.2561  0.9753  0.5177
 6022TIP3    H218031   1.872   2.563   5.595  0.8192 -1.5050  1.2317
 6023TIP3   OH218032   6.376   5.918   3.742 -0.0924  0.3706  0.7204
 6023TIP3    H118033   6.466   5.948   3.756  0.4218 -0.2807 -0.9003
 6023TIP3    H218034   6.353   5.952   3.655 -0.9693 -0.4742  0.6056
 6024TIP3   OH218035   3.960   4.578   1.149 -0.2176 -0.3115 -0.2933
 6024TIP3    H118036   4.052   4.606   1.148  0.2107 -1.6047  0.1038
 6024TIP3    H218037   3.937   4.576   1.242  0.1143 -2.2454 -0.2143
 6025TIP3   OH218038   1.546   5.217   3.192  0.0573 -0.6958  0.0337
 6025TIP3    H118039   1.633   5.240   3.158  0.0712 -1.4175 -0.4592
 6025TIP3    H218040   1.510   5.158   3.125 -1.8015  1.4366 -0.9968
 6026TIP3   OH218041   4.082   6.336   2.889  0.3578  0.2908 -0.2327
 6026TIP3    H118042   3.998   6.292   2.896  0.3248  0.2763 -0.7324
 6026TIP3    H218043   4.076   6.388   2.809  0.8938  0.1395 -0.3740
 6027TIP3   OH218044   7.036   2.253   3.392  0.5924  0.1034 -0.0078
 6027TIP3    H118045   7.041   2.159   3.404 -0.5383 -0.4612 -3.1598
 6027TIP3    H218046   7.018   2.287   3.480  1.7892 -2.4890  1.3404
 6028TIP3   OH218047   5.004   0.890   3.233 -0.5715 -0.0330  0.0522
 6028TIP3    H118048   4.941   0.823   3.207 -0.6497 -0.7370  1.9416
 6028TIP3    H218049   5.044   0.856   3.313  2.3381  0.2995 -1.1368
 6029TIP3   OH218050   2.883   5.302   3.984 -0.6420  0.2953  0.2709
 6029TIP3    H118051   2.867   5.396   3.995 -0.6759  0.2819  0.3365
 6029TIP3    H218052   2.958   5.285   4.040 -2.0614 -0.1806  2.1199
 6030TIP3   OH218053   5.476   5.925   2.943  0.1716  0.2024  0.0130
 6030TIP3    H118054   5.558   5.959   2.908 -0.3208 -0.2893 -1.6787
 6030TIP3    H218055   5.434   6.001   2.983 -0.3300  1.3696 -2.5802
 6031TIP3   OH218056   2.724   4.269   4.248 -0.0062 -0.0397 -0.0129
 6031TIP3    H118057   2.678   4.207   4.305 -0.2347  0.7353  0.6583
 6031TIP3    H218058   2.697   4.355   4.279  0.8133  0.4101 -0.5166
 6032TIP3   OH218059   0.675   6.751   4.123  0.4280  0.1620 -0.2845
 6032TIP3    H118060   0.626   6.819   4.170  0.3961  0.0578 -0.1681
 6032TIP3    H218061   0.758   6.794   4.100  0.4563  0.2047 -0.1076
 6033TIP3   OH218062   1.758   2.527   3.039  0.0465  0.0907 -0.4633
 6033TIP3    H118063   1.666   2.535   3.065  0.2360 -0.9731  0.6380
 6033TIP3    H218064   1.759   2.549   2.946 -0.8305  3.1726  0.1291
 6034TIP3   OH218065   2.722   1.239   4.914 -0.1885  0.1251  0.6961
 6034TIP3    H118066   2.706   1.298   4.840 -0.6959 -1.2703 -0.3649
 6034TIP3    H218067   2.634   1.211   4.941  0.0350  0.0366  1.3437
 6035TIP3   OH218068   2.956   4.537   2.095 -0.1782 -0.8599  0.1890
 6035TIP3    H118069   2.912   4.610   2.051  0.2631 -1.9885 -2.2855
 6035TIP3    H218070   3.044   4.569   2.113 -0.2824 -0.4590  0.0033
 6036TIP3   OH218071   0.501   5.571   3.609  0.5592  0.1286 -0.0451
 6036TIP3    H118072   0.460   5.510   3.549 -2.6381  1.0012  1.0196
 6036TIP3    H218073   0.550   5.516   3.670  1.1038 -1.0051 -1.4723
 6037TIP3   OH218074   5.452   1.434   3.558 -0.5603 -0.4087  0.0182
 6037TIP3    H118075   5.436   1.507   3.619  1.3367 -0.5940  0.7989
 6037TIP3    H218076   5.386   1.369   3.581 -0.4909 -0.0688  1.2355
 6038TIP3   OH218077   7.165   6.538   5.288  0.0766  0.0113 -0.0852
 6038TIP3    H118078   7.150   6.532   5.194  0.5877 -0.3213 -0.1451
 6038TIP3    H218079   7.086   6.500   5.327 -0.4560  0.8022 -0.3611
 6039TIP3   OH218080   1.322   2.638   0.548  0.4254 -0.1770  0.2404
 6039TIP3    H118081   1.231   2.617   0.566 -0.9921  4.4151 -0.2026
 6039TIP3    H218082   1.371   2.596   0.618 -2.3264 -0.7990  1.9337
 6040TIP3   OH218083   3.150   4.875   3.782  0.1244 -0.3210 -0.7598
 6040TIP3    H118084   3.087   4.817   3.738  0.7383 -2.1756  0.6585
 6040TIP3    H218085   3.097   4.947   3.815 -0.9036 -0.7439 -1.4190
 6041TIP3   OH218086   2.607   3.865   4.303 -0.0971  0.8969  0.3428
 6041TIP3    H118087   2.551   3.894   4.231 -0.1356  3.4624  1.2913
 6041TIP3    H218088   2.569   3.907   4.381 -0.0133 -1.7064  1.8909
 6042TIP3   OH218089   1.841   4.605   1.622 -0.0953 -0.3072  0.0614
 6042TIP3    H118090   1.772   4.596   1.556 -0.2325 -1.2045  0.3183
 6042TIP3    H218091   1.878   4.518   1.631  1.2265  0.1989 -0.2137
 6043TIP3   OH218092   6.719   2.712   2.826  0.4792 -0.3206 -0.1440
 6043TIP3    H118093   6.691   2.627   2.792  0.0690 -1.1823  2.1793
 6043TIP3    H218094   6.700   2.773   2.755 -1.8984 -1.7266 -0.8428
 6044TIP3   OH218095   6.511   4.205   2.232  0.3155  0.4823 -0.2873
 6044TIP3    H118096   6.418   4.221   2.251 -0.3537 -2.8581 -0.0587
 6044TIP3    H218097   6.558   4.254   2.299 -1.0390  4.2294 -1.8233
 6045TIP3   OH218098   2.570   2.637   2.803 -0.3519 -0.1451  0.1791
 6045TIP3    H118099   2.555   2.567   2.866  0.2795 -2.5092 -2.1269
 6045TIP3    H218100   2.665   2.637   2.791 -0.3301  1.2428  0.2165
 6046TIP3   OH218101   5.467   5.809   1.090 -0.4691 -0.3001  0.0894
 6046TIP3    H118102   5.506   5.831   1.174  1.4567 -2.5645 -0.1333
 6046TIP3    H218103   5.523   5.852   1.026  0.5082 -1.9112 -0.1609
 6047TIP3   OH218104   4.541   1.115   1.148 -0.0087  0.9172  0.1416
 6047TIP3    H118105   4.544   1.198   1.100  1.4651  0.9349  0.2286
 6047TIP3    H218106   4.625   1.073   1.129 -1.0815 -1.0177 -0.6889
 6048TIP3   OH218107   0.355   5.342   3.858  0.3196  0.6507  0.0594
 6048TIP3    H118108   0.445   5.344   3.823  0.2599  1.0620 -0.0682
 6048TIP3    H218109   0.304   5.394   3.796 -0.1367 -0.1260 -0.2271
 6049TIP3   OH218110   4.501   5.511   1.377 -0.5582 -0.1582 -0.4093
 6049TIP3    H118111   4.530   5.477   1.292  0.0248 -1.3277  0.2377
 6049TIP3    H218112   4.575   5.496   1.436 -0.7500  1.1485  0.1995
 6050TIP3   OH218113   1.003   4.555   2.003  0.1229  0.0833  0.1428
 6050TIP3    H118114   0.955   4.491   2.056 -0.7090  0.4217 -0.1779
 6050TIP3    H218115   0.934   4.613   1.968  0.9723  2.4036  2.0348
 6051TIP3   OH218116   0.230   4.329   2.161  0.2362 -0.1682  0.6149
 6051TIP3    H118117   0.298   4.262   2.167  1.6381  0.9427 -1.4612
 6051TIP3    H218118   0.274   4.411   2.185 -0.0179  0.7169 -1.6453
 6052TIP3   OH218119   7.124   2.327   0.842 -0.2567  0.0994  0.2698
 6052TIP3    H118120   7.111   2.389   0.770 -2.7797  0.3050  0.8082
 6052TIP3    H218121   7.188   2.368   0.899  0.7195  0.5737 -1.1428
 6053TIP3   OH218122   4.795   6.036   4.740 -0.2074  0.4296 -0.0443
 6053TIP3    H118123   4.842   6.118   4.727  0.1523  0.2850  0.2984
 6053TIP3    H218124   4.708   6.062   4.771  0.6350  0.6708  2.3551
 6054TIP3   OH218125   5.324   3.748   4.956  0.3037 -0.1775 -0.4658
 6054TIP3    H118126   5.294   3.837   4.973 -0.8187 -0.4298 -0.9819
 6054TIP3    H218127   5.416   3.758   4.932 -0.0687  0.9726 -1.5307
 6055TIP3   OH218128   5.258   1.152   1.955 -0.0401 -0.5784  0.1662
 6055TIP3    H118129   5.217   1.085   2.009  1.1574 -0.2979  1.4617
 6055TIP3    H218130   5.250   1.233   2.006 -0.1256 -0.0267 -0.7005
 6056TIP3   OH218131   0.836   5.089   4.955  0.4115  0.0844 -0.0748
 6056TIP3    H118132   0.882   5.143   4.891  0.6743 -0.1023 -0.0455
 6056TIP3    H218133   0.890   5.095   5.034 -0.0925  0.5936  0.2373
 6057TIP3   OH218134   6.585   6.316   2.702 -0.5583 -0.1803  0.5483
 6057TIP3    H118135   6.526   6.311   2.627 -0.3031  0.4454  0.2997
 6057TIP3    H218136   6.564   6.239   2.754  1.1044 -2.1377 -1.5061
 6058TIP3   OH218137   5.213   2.584   4.019 -0.2292 -0.3401  0.0035
 6058TIP3    H118138   5.193   2.648   3.951 -0.0917 -0.3388 -0.0364
 6058TIP3    H218139   5.276   2.628   4.076 -0.5804 -0.2287  0.3089
 6059TIP3   OH218140   6.287   3.819   0.668  0.2530 -0.1834 -0.3125
 6059TIP3    H118141   6.225   3.866   0.723  0.5922  0.5480 -0.5492
 6059TIP3    H218142   6.259   3.727   0.675  0.0423 -0.0570  0.7364
 6060TIP3   OH218143   4.707   3.745   4.426  0.8594  1.0289  0.2280
 6060TIP3    H118144   4.623   3.733   4.382  1.5842  0.1468 -0.9926
 6060TIP3    H218145   4.772   3.721   4.360  2.0043 -0.5147  1.8271
 6061TIP3   OH218146   3.286   4.647   5.598 -0.1613  0.1928  0.3954
 6061TIP3    H118147   3.348   4.588   5.555 -1.0260  1.4091 -2.8704
 6061TIP3    H218148   3.321   4.659   5.686  1.1003 -3.5290  0.5523
 6062TIP3   OH218149   6.558   4.900   4.961 -0.0676 -0.1422  0.0556
 6062TIP3    H118150   6.561   4.955   5.039  0.5233  2.8285 -1.9096
 6062TIP3    H218151   6.650   4.887   4.937 -0.2606 -0.2758 -0.6295
 6063TIP3   OH218152   5.555   1.066   0.430  0.2749 -0.6288  0.3491
 6063TIP3    H118153   5.519   0.982   0.404 -0.3635 -0.1310 -0.4214
 6063TIP3    H218154   5.482   1.127   0.424  1.0068  0.2154 -0.2902
 6064TIP3   OH218155   4.818   4.180   5.824 -0.1448 -0.4478 -0.0576
 6064TIP3    H118156   4.739   4.229   5.805  0.9194  0.8759 -1.2890
 6064TIP3    H218157   4.868   4.236   5.883  0.7255 -0.3937 -0.8278
 6065TIP3   OH218158   1.336   4.238   2.068  0.5437  0.0235 -0.4078
 6065TIP3    H118159   1.358   4.241   2.161 -1.0502  0.7373 -0.0300
 6065TIP3    H218160   1.241   4.239   2.065  0.5492  1.3417 -2.0933
 6066TIP3   OH218161   0.074   3.203   0.496  0.5932 -0.2078 -0.5029
 6066TIP3    H118162   0.089   3.193   0.590  0.5543 -0.0814 -0.4828
 6066TIP3    H218163  -0.021   3.216   0.489  0.5614 -0.4908 -0.5829
 6067TIP3   OH218164   2.666   0.205   4.360  0.3123 -0.0766  0.6286
 6067TIP3    H118165   2.661   0.109   4.361  1.8895 -0.2253  3.3059
 6067TIP3    H218166   2.729   0.225   4.292  1.0191 -1.0519  0.9749
 6068TIP3   OH218167   5.416   4.667   4.848  0.6655  0.2274  0.2221
 6068TIP3    H118168   5.338   4.618   4.875 -0.0067  1.3064  0.2642
 6068TIP3    H218169   5.461   4.608   4.787  0.4557 -0.8884  1.1193
 6069TIP3   OH218170   0.413   3.429   3.723  0.2531 -0.0399 -0.7845
 6069TIP3    H118171   0.464   3.509   3.734  1.4482 -0.5877 -2.0892
 6069TIP3    H218172   0.478   3.359   3.730 -0.8765 -0.9795  1.1119
 6070TIP3   OH218173   0.990   2.469   0.106 -0.0361  0.3215 -0.5214
 6070TIP3    H118174   0.915   2.529   0.112 -0.6454 -0.5006  0.5909
 6070TIP3    H218175   0.989   2.438   0.016 -1.5149 -0.2592 -0.3292
 6071TIP3   OH218176   3.383   5.033   5.494 -0.4818  0.4436 -0.0304
 6071TIP3    H118177   3.357   5.078   5.574  1.3400  0.3192  0.6722
 6071TIP3    H218178   3.385   5.101   5.427  1.4523  1.3146  0.8434
 6072TIP3   OH218179   6.635   4.919   4.508 -0.2376  0.0616 -0.3275
 6072TIP3    H118180   6.606   4.875   4.588  1.2701 -0.1479  0.1290
 6072TIP3    H218181   6.587   5.001   4.508  1.7357  1.3751  2.3283
 6073TIP3   OH218182   1.564   3.540   5.251  0.0586 -0.2247  0.0233
 6073TIP3    H118183   1.620   3.601   5.300  0.0965 -1.1023  1.1178
 6073TIP3    H218184   1.486   3.592   5.229 -0.2551  0.0392  1.6089
 6074TIP3   OH218185   1.438   0.359   0.745  0.3506 -0.1007  0.4278
 6074TIP3    H118186   1.377   0.286   0.730 -0.1558  0.5748 -0.9557
 6074TIP3    H218187   1.409   0.398   0.826  0.9985 -1.7788  1.5292
 6075TIP3   OH218188   3.362   0.317   5.542  0.4992 -0.1149  0.1244
 6075TIP3    H118189   3.422   0.287   5.474 -0.6457 -0.0546 -0.9512
 6075TIP3    H218190   3.281   0.337   5.496 -0.2558  0.1297  1.4846
 6076TIP3   OH218191   4.321   1.398   0.802 -0.4059 -0.1745 -0.5208
 6076TIP3    H118192   4.369   1.317   0.788 -0.3803 -0.3082  0.3160
 6076TIP3    H218193   4.238   1.370   0.841  0.4174  0.3263  1.7094
 6077TIP3   OH218194   2.765   2.070   3.446  0.9720 -0.4142 -0.0991
 6077TIP3    H118195   2.856   2.050   3.468  0.4779 -2.3267  0.3879
 6077TIP3    H218196   2.714   2.001   3.489 -0.7162  0.6111 -0.3713
 6078TIP3   OH218197   3.491   3.821   4.252 -0.1332  0.0954  0.1258
 6078TIP3    H118198   3.506   3.778   4.168 -2.7832 -2.1646  0.6617
 6078TIP3    H218199   3.565   3.794   4.307  0.4154 -0.2824 -0.7837
 6079TIP3   OH218200   1.676   4.319   1.085  0.3816  0.0084 -0.0072
 6079TIP3    H118201   1.703   4.394   1.031  3.3262 -0.4818  0.5944
 6079TIP3    H218202   1.726   4.245   1.049  0.9005 -0.7223  2.0984
 6080TIP3   OH218203   1.690   4.364   0.183  0.3062  0.2072 -0.5560
 6080TIP3    H118204   1.721   4.452   0.161 -0.2773  0.5667  0.0079
 6080TIP3    H218205   1.674   4.367   0.277 -1.2912  0.0125 -0.7883
 6081TIP3   OH218206   4.135   0.219   5.011 -0.0157  0.2675 -0.0699
 6081TIP3    H118207   4.202   0.185   4.952 -1.2556 -1.3107 -0.6555
 6081TIP3    H218208   4.085   0.142   5.036 -2.2600  1.5094 -0.4994
 6082TIP3   OH218209   2.761   2.578   0.261  0.4154 -0.2047  0.0377
 6082TIP3    H118210   2.731   2.491   0.234  2.5869 -1.1729  0.5456
 6082TIP3    H218211   2.821   2.605   0.191 -0.2446  0.9313 -0.1221
 6083TIP3   OH218212   2.902   1.892   5.010 -0.1191  0.0127 -0.0752
 6083TIP3    H118213   2.870   1.974   5.049 -1.5110 -0.6882  0.3189
 6083TIP3    H218214   2.990   1.913   4.981 -0.6855  1.8682 -0.6182
 6084TIP3   OH218215   4.657   2.135   4.235  0.5719 -0.6576  0.6245
 6084TIP3    H118216   4.709   2.215   4.222  1.3594 -1.0586  1.1762
 6084TIP3    H218217   4.601   2.155   4.310 -2.5758  0.9681 -1.9415
 6085TIP3   OH218218   3.446   5.064   4.801  0.4923  0.3858  0.3621
 6085TIP3    H118219   3.431   5.093   4.712  0.4078  0.7363  0.4885
 6085TIP3    H218220   3.377   5.107   4.852  0.3784 -0.0172  0.5571
 6086TIP3   OH218221   0.153   5.193   3.975 -0.6382  0.4317  0.2600
 6086TIP3    H118222   0.240   5.230   3.961 -0.0138  0.1591  2.8568
 6086TIP3    H218223   0.133   5.146   3.894  1.5625  0.6463 -0.4646
 6087TIP3   OH218224   0.450   1.943   1.445  0.3503  0.0951 -0.7806
 6087TIP3    H118225   0.484   1.856   1.426  0.8241  0.0843  0.0839
 6087TIP3    H218226   0.378   1.955   1.382 -0.6595 -1.4927  0.0127
 6088TIP3   OH218227   0.147   5.413   2.748  0.2670  0.4511  0.4809
 6088TIP3    H118228   0.191   5.428   2.665 -1.8110  3.1766 -0.2847
 6088TIP3    H218229   0.217   5.391   2.809  2.1706  0.8180 -1.4553
 6089TIP3   OH218230   4.715   4.790   3.070  0.3773  0.1682 -0.5492
 6089TIP3    H118231   4.621   4.791   3.087  0.4997  2.9246  0.4491
 6089TIP3    H218232   4.740   4.698   3.081 -1.7504 -0.2397  1.8534
 6090TIP3   OH218233   1.323   1.545   1.271  0.2219 -0.3931  0.8738
 6090TIP3    H118234   1.400   1.583   1.228  0.7354  0.5593  2.5396
 6090TIP3    H218235   1.311   1.599   1.349 -0.2194 -2.4715  2.3188
 6091TIP3   OH218236   5.523   3.667   5.814  0.2312  0.1537  0.2003
 6091TIP3    H118237   5.522   3.665   5.719 -0.0409 -1.2004  0.2113
 6091TIP3    H218238   5.483   3.584   5.841 -1.3406  1.2692  1.5210
 6092TIP3   OH218239   1.873   1.211   1.644 -0.2884  0.1676  0.4451
 6092TIP3    H118240   1.839   1.200   1.555 -1.0392  1.3224  0.5716
 6092TIP3    H218241   1.926   1.133   1.659  0.4009  0.2755 -1.2550
 6093TIP3   OH218242   1.085   5.498   3.075  0.5928 -0.3780 -0.0293
 6093TIP3    H118243   1.016   5.449   3.030  0.6805 -0.3749 -0.1663
 6093TIP3    H218244   1.151   5.515   3.008  1.2495 -1.3395  0.3419
 6094TIP3   OH218245   1.668   4.590   1.388  0.3329  0.4057  0.6262
 6094TIP3    H118246   1.663   4.624   1.298 -0.7179  0.4530  0.6903
 6094TIP3    H218247   1.667   4.495   1.377 -1.7341  0.3740  0.6291
 6095TIP3   OH218248   1.315   3.287   2.613  1.2101 -0.3457 -0.0908
 6095TIP3    H118249   1.255   3.325   2.549 -0.0551 -1.1339  0.5665
 6095TIP3    H218250   1.358   3.362   2.653 -1.4616  0.5490  1.3957
 6096TIP3   OH218251   0.915   4.062   5.678 -0.0651  0.1943  0.1043
 6096TIP3    H118252   0.833   4.013   5.679  0.4749 -0.7255  1.4395
 6096TIP3    H218253   0.900   4.137   5.735 -0.0722  0.1886  0.1100
 6097TIP3   OH218254   2.194   5.727   5.332  0.2847  0.2705 -0.2770
 6097TIP3    H118255   2.166   5.698   5.419 -0.8938 -0.9659 -1.0211
 6097TIP3    H218256   2.141   5.804   5.314  0.5410  0.5383  0.0906
 6098TIP3   OH218257   2.456   4.395   4.246  0.4084  0.3289 -0.8233
 6098TIP3    H118258   2.517   4.441   4.190  0.4719  1.3641  0.0670
 6098TIP3    H218259   2.471   4.432   4.333 -1.2772  0.4015 -0.5344
 6099TIP3   OH218260   6.482   2.439   3.231  0.9089 -0.3816  0.3030
 6099TIP3    H118261   6.425   2.479   3.297 -0.7035 -0.7759 -0.7796
 6099TIP3    H218262   6.455   2.480   3.149  1.9890 -0.8313 -0.2953
 6100TIP3   OH218263   4.203   1.464   5.674  0.0927 -0.2644 -0.5356
 6100TIP3    H118264   4.198   1.512   5.592  1.4042  1.2007  0.1894
 6100TIP3    H218265   4.293   1.432   5.679  0.3309  0.4993  0.7367
 6101TIP3   OH218266   4.500   2.484   5.513  0.5424  0.0134  0.0337
 6101TIP3    H118267   4.431   2.425   5.542  0.5903  0.3936  0.9351
 6101TIP3    H218268   4.487   2.490   5.418 -0.6105  0.0259  0.1772
 6102TIP3   OH218269   3.444   4.631   4.494 -0.3967  0.5000 -0.3712
 6102TIP3    H118270   3.362   4.582   4.499  0.5555 -1.3208 -1.3661
 6102TIP3    H218271   3.508   4.574   4.537  0.2587  2.1549  0.9339
 6103TIP3   OH218272   6.765   2.548   0.640 -0.0594  0.5263  0.4963
 6103TIP3    H118273   6.783   2.606   0.714  0.5161  0.2275  0.5932
 6103TIP3    H218274   6.710   2.601   0.582 -0.3566  0.8291  1.0410
 6104TIP3   OH218275   3.157   5.200   2.586 -0.3955 -0.6679  0.0185
 6104TIP3    H118276   3.096   5.263   2.548 -0.6735 -0.6509  0.4856
 6104TIP3    H218277   3.129   5.191   2.677 -0.6354 -1.7795 -0.1461
 6105TIP3   OH218278   7.078   2.223   5.563  0.3364  0.3169 -0.3346
 6105TIP3    H118279   7.163   2.212   5.606 -0.0537  0.3161  0.4675
 6105TIP3    H218280   7.047   2.308   5.595  0.7036  1.0364 -1.8205
 6106TIP3   OH218281   5.515   0.216   2.011 -0.0338  0.2103 -0.1151
 6106TIP3    H118282   5.568   0.295   1.999 -1.8725  1.7411  1.1445
 6106TIP3    H218283   5.568   0.159   2.065  1.4420  0.4435 -1.2615
 6107TIP3   OH218284   0.168   4.393   1.329 -0.1517  0.1185  0.5993
 6107TIP3    H118285   0.211   4.448   1.394 -1.8114  0.5739  1.3658
 6107TIP3    H218286   0.240   4.359   1.275  1.0026  2.3971  0.5646
 6108TIP3   OH218287   5.736   3.480   3.540  0.7062  0.2318 -0.0814
 6108TIP3    H118288   5.672   3.492   3.610  1.5870  1.1927  0.5892
 6108TIP3    H218289   5.707   3.402   3.494  0.0038 -0.3201  1.2450
 6109TIP3   OH218290   1.894   0.618   4.351  0.6509 -0.2345 -0.2884
 6109TIP3    H118291   1.909   0.606   4.445  1.4614  1.0750 -0.2279
 6109TIP3    H218292   1.847   0.701   4.345  0.0563 -0.6160 -1.0133
 6110TIP3   OH218293   0.807   4.338   3.634 -0.0540 -0.1979 -0.2641
 6110TIP3    H118294   0.831   4.399   3.704  0.6544 -0.0692 -0.6189
 6110TIP3    H218295   0.841   4.378   3.554  0.2910 -0.9834 -0.5181
 6111TIP3   OH218296   3.443   6.326   4.657 -0.0329 -0.3825  0.0976
 6111TIP3    H118297   3.411   6.372   4.734 -0.6905 -1.1127  0.2803
 6111TIP3    H218298   3.512   6.382   4.621 -0.4238  0.4479  0.6301
 6112TIP3   OH218299   5.962   6.194   0.437 -0.3648  0.2290  0.1614
 6112TIP3    H118300   6.041   6.178   0.489 -0.9593  0.7610  1.2721
 6112TIP3    H218301   5.892   6.153   0.489 -0.6497 -1.5928 -1.5431
 6113TIP3   OH218302   7.054   6.301   0.285  0.9160 -0.5573 -0.8696
 6113TIP3    H118303   7.113   6.367   0.321 -1.2585  1.4481 -0.7254
 6113TIP3    H218304   7.045   6.323   0.193 -1.1795  0.5249 -0.4602
 6114TIP3   OH218305   6.362   2.373   0.452 -0.2563 -0.0134 -0.4145
 6114TIP3    H118306   6.418   2.370   0.530 -0.0929  0.2650 -0.5180
 6114TIP3    H218307   6.411   2.326   0.385 -0.5694 -0.5872 -0.2439
 6115TIP3   OH218308   6.672   6.470   0.480 -0.1881 -0.5447 -0.2979
 6115TIP3    H118309   6.661   6.393   0.424 -0.6680 -1.0843  0.5285
 6115TIP3    H218310   6.593   6.522   0.465  0.1595 -0.1691 -0.8951
 6116TIP3   OH218311   1.665   2.254   2.883  0.4937 -0.3194 -0.7090
 6116TIP3    H118312   1.757   2.279   2.883  0.3875  0.2319  0.9746
 6116TIP3    H218313   1.665   2.159   2.890  0.9574 -0.2740  0.0560
 6117TIP3   OH218314   0.807   2.818   5.646  0.5932 -0.2204  0.3330
 6117TIP3    H118315   0.872   2.871   5.693 -1.5945  1.6924  1.4181
 6117TIP3    H218316   0.790   2.867   5.566  1.2993 -1.3292 -0.5138
 6118TIP3   OH218317   6.692   6.585   2.629 -0.4290 -0.1671  0.2803
 6118TIP3    H118318   6.666   6.509   2.679  0.0895  0.9523  2.3510
 6118TIP3    H218319   6.787   6.588   2.636 -0.3614  0.1428 -0.6002
 6119TIP3   OH218320   3.912   5.335   5.337 -0.4082 -0.7302  0.2298
 6119TIP3    H118321   3.871   5.416   5.305  1.9704  0.5151  0.1036
 6119TIP3    H218322   3.916   5.278   5.261 -0.7528 -0.3863 -0.0493
 6120TIP3   OH218323   2.104   0.892   2.428 -0.6322  0.1537  0.2362
 6120TIP3    H118324   2.046   0.967   2.416  1.6364  2.0655  0.6073
 6120TIP3    H218325   2.192   0.929   2.432  0.5948 -2.5283  0.5879
 6121TIP3   OH218326   3.428   1.069   0.398 -0.3996 -0.0670  0.2801
 6121TIP3    H118327   3.461   0.985   0.430  0.5360 -0.8084 -2.4304
 6121TIP3    H218328   3.505   1.126   0.399 -0.7325  0.3831  0.8442
 6122TIP3   OH218329   2.159   1.437   0.377  0.0650 -0.5260 -0.3150
 6122TIP3    H118330   2.205   1.418   0.295 -1.5148 -1.0294 -1.1210
 6122TIP3    H218331   2.075   1.475   0.349  0.4027  1.4743  1.1221
 6123TIP3   OH218332   5.513   2.513   1.138  0.0425  0.0028  0.2921
 6123TIP3    H118333   5.573   2.447   1.174  1.1597  0.5457 -0.4918
 6123TIP3    H218334   5.437   2.510   1.195 -0.6880 -3.1167 -0.6516
 6124TIP3   OH218335   6.513   2.269   4.164 -0.1652 -0.1658 -0.1994
 6124TIP3    H118336   6.499   2.312   4.248 -1.8683 -0.2540 -0.4045
 6124TIP3    H218337   6.577   2.324   4.119  0.2788  0.2291  0.9021
 6125TIP3   OH218338   1.989   4.209   5.531  0.1976  0.7000 -0.4317
 6125TIP3    H118339   2.070   4.260   5.534  0.1607  0.6977  1.4598
 6125TIP3    H218340   1.942   4.244   5.455  1.8661  0.8332 -1.4388
 6126TIP3   OH218341   0.085   3.891   0.125 -0.1160  0.4531  0.6134
 6126TIP3    H118342   0.140   3.923   0.053 -0.2458 -0.1535  0.2346
 6126TIP3    H218343   0.029   3.825   0.084 -0.2989  0.2142  1.2426
 6127TIP3   OH218344   6.119   4.170   3.980  0.2832 -1.1762 -0.8691
 6127TIP3    H118345   6.067   4.227   4.037  1.1174 -0.4817 -0.7805
 6127TIP3    H218346   6.111   4.210   3.893  0.5822 -1.1279 -0.8752
 6128TIP3   OH218347   5.237   5.167   1.876 -0.0614  0.2973  0.3820
 6128TIP3    H118348   5.250   5.072   1.875 -1.6030  0.0244  1.9932
 6128TIP3    H218349   5.147   5.179   1.905 -0.1688  2.2645 -0.5726
 6129TIP3   OH218350   5.602   6.540   4.611 -0.4681 -0.3806 -0.0566
 6129TIP3    H118351   5.652   6.468   4.573 -1.2591 -0.3206 -1.2793
 6129TIP3    H218352   5.596   6.519   4.704  0.1674 -1.3691 -0.2218
 6130TIP3   OH218353   0.578   0.900   2.651 -0.2725 -0.3803 -0.0023
 6130TIP3    H118354   0.588   0.806   2.663  3.0239 -0.2467 -0.7336
 6130TIP3    H218355   0.627   0.939   2.724 -1.7211  0.8191  0.3873
 6131TIP3   OH218356   4.182   2.431   4.694  0.5836 -0.0201  0.0898
 6131TIP3    H118357   4.155   2.364   4.631 -2.0762 -0.6345  1.7274
 6131TIP3    H218358   4.149   2.400   4.778  0.9234  2.4584  1.2271
 6132TIP3   OH218359   5.830   3.710   3.451 -0.5483 -0.2807  0.1391
 6132TIP3    H118360   5.783   3.633   3.483 -0.0897 -0.9165 -0.6884
 6132TIP3    H218361   5.833   3.769   3.527 -0.8974 -1.0773  0.7892
 6133TIP3   OH218362   0.457   4.056   1.200 -0.2914  1.1707  0.2173
 6133TIP3    H118363   0.445   3.988   1.266  0.8336 -0.4375 -1.1540
 6133TIP3    H218364   0.552   4.067   1.194 -0.3459  1.0807 -1.2778
 6134TIP3   OH218365   5.293   4.273   5.717  1.0501  0.8450 -0.2231
 6134TIP3    H118366   5.256   4.291   5.631 -0.0790 -1.7219 -0.3697
 6134TIP3    H218367   5.308   4.179   5.717  1.4354  0.8443  2.2470
 6135TIP3   OH218368   6.565   5.775   4.874 -0.3159 -0.0999  0.0300
 6135TIP3    H118369   6.563   5.871   4.870 -0.2308 -0.0303  1.2883
 6135TIP3    H218370   6.589   5.748   4.786  0.9422  1.0834 -0.0152
 6136TIP3   OH218371   0.018   2.776   1.830  0.1773 -0.0290 -0.6049
 6136TIP3    H118372   0.028   2.682   1.844 -1.2069  0.1240  1.8753
 6136TIP3    H218373   0.107   2.810   1.838  0.6104 -1.0506 -0.8949
 6137TIP3   OH218374   3.882   1.498   4.223 -0.0583  0.3140 -0.1714
 6137TIP3    H118375   3.808   1.438   4.219 -1.1565  1.6864 -2.1909
 6137TIP3    H218376   3.956   1.447   4.190 -0.3921 -0.6367  0.4979
 6138TIP3   OH218377   0.599   6.654   1.452 -0.3329 -0.7920 -0.0756
 6138TIP3    H118378   0.569   6.744   1.454  1.8936  0.0525 -1.4020
 6138TIP3    H218379   0.522   6.604   1.422 -1.4461  0.6927  0.2069
 6139TIP3   OH218380   1.461   4.222   3.273 -0.3208 -0.3067 -0.5456
 6139TIP3    H118381   1.414   4.261   3.199  0.0627  0.3990 -0.4304
 6139TIP3    H218382   1.523   4.290   3.300 -0.0160 -0.8001  0.0181
 6140TIP3   OH218383   5.654   0.689   1.654  0.2452  0.2146 -0.6716
 6140TIP3    H118384   5.743   0.667   1.625  0.3197  0.1011 -0.3558
 6140TIP3    H218385   5.666   0.765   1.711  0.3443 -0.8900  0.8221
 6141TIP3   OH218386   6.302   2.549   4.738 -0.4338 -0.0008 -0.6896
 6141TIP3    H118387   6.222   2.544   4.790 -0.1072 -0.2489 -0.1944
 6141TIP3    H218388   6.284   2.615   4.671 -1.3736 -0.7140 -1.1585
 6142TIP3   OH218389   7.025   2.166   2.761 -0.0273 -0.4677  0.0989
 6142TIP3    H118390   7.077   2.158   2.841  3.9989 -0.7586 -2.2580
 6142TIP3    H218391   7.025   2.077   2.725 -1.0557 -0.1753 -0.6483
 6143TIP3   OH218392   0.198   0.430   4.811  0.0785  0.0492  0.2384
 6143TIP3    H118393   0.184   0.336   4.824  2.2028 -0.2610  0.6834
 6143TIP3    H218394   0.249   0.457   4.887  1.1091  1.1561 -0.8034
 6144TIP3   OH218395   1.210   5.419   0.886 -0.2045 -0.0294 -0.0092
 6144TIP3    H118396   1.205   5.400   0.980  1.0712 -0.5264 -0.0165
 6144TIP3    H218397   1.134   5.475   0.869 -0.1987  0.4642  1.4116
 6145TIP3   OH218398   0.134   5.478   1.859  0.3955  0.4973 -0.0953
 6145TIP3    H118399   0.213   5.532   1.865 -0.6266  1.8573  1.8577
 6145TIP3    H218400   0.069   5.523   1.911 -1.9159 -0.2938 -2.0973
 6146TIP3   OH218401   0.709   3.962   1.533 -0.3452  0.0387  0.1140
 6146TIP3    H118402   0.665   3.881   1.559 -0.5267  0.2325  0.4171
 6146TIP3    H218403   0.655   4.032   1.571  0.1955  0.2797  0.4538
 6147TIP3   OH218404   6.602   4.113   3.785  0.4449 -0.3533 -0.1458
 6147TIP3    H118405   6.547   4.080   3.714  0.7847 -1.4075  0.0639
 6147TIP3    H218406   6.644   4.191   3.749  0.9896 -1.1501 -1.2881
 6148TIP3   OH218407   1.817   3.739   4.609  0.2330 -0.2064 -0.1117
 6148TIP3    H118408   1.745   3.761   4.550 -0.7130  1.9253  1.7132
 6148TIP3    H218409   1.779   3.677   4.671  0.0071  0.7196  0.6951
 6149TIP3   OH218410   7.118   4.632   3.205  0.7317 -0.4892  0.2989
 6149TIP3    H118411   7.201   4.586   3.214  0.5187 -0.8710  0.3501
 6149TIP3    H218412   7.076   4.591   3.129 -1.1671 -3.1015  2.5469
 6150TIP3   OH218413   5.063   1.450   1.440  0.1451 -0.3190  0.0058
 6150TIP3    H118414   5.110   1.533   1.433  0.7342 -0.7494 -2.0516
 6150TIP3    H218415   5.088   1.415   1.525  0.1787  1.4095  0.7612
 6151TIP3   OH218416   0.213   6.028   1.216  0.2749 -0.6554  0.3072
 6151TIP3    H118417   0.180   6.086   1.284  0.6719 -0.1134  0.0401
 6151TIP3    H218418   0.288   5.983   1.256 -0.3441 -1.3772  0.6844
 6152TIP3   OH218419   3.333   2.352   1.112 -0.9236  0.1211 -0.0880
 6152TIP3    H118420   3.297   2.283   1.056 -0.5584 -0.6259  0.5773
 6152TIP3    H218421   3.318   2.433   1.063 -1.7338 -0.3819 -0.6958
 6153TIP3   OH218422   5.867   3.137   5.590 -0.4224  0.4518 -0.1690
 6153TIP3    H118423   5.783   3.091   5.593 -0.8184  1.1962  0.4299
 6153TIP3    H218424   5.858   3.208   5.653  0.6109  0.6311 -0.2021
 6154TIP3   OH218425   3.793   6.261   4.401 -0.0038 -0.1783  0.4308
 6154TIP3    H118426   3.813   6.354   4.404  0.1196 -0.2109  0.6230
 6154TIP3    H218427   3.703   6.255   4.435 -0.5279  0.0162 -0.8685
 6155TIP3   OH218428   2.251   3.015   2.455  0.4078 -0.5752  0.3681
 6155TIP3    H118429   2.180   3.056   2.503  0.0264 -0.6486 -0.1216
 6155TIP3    H218430   2.323   3.078   2.458  0.0072 -0.1024  0.0778
 6156TIP3   OH218431   4.158   5.849   2.301  0.0891 -0.1171  0.0132
 6156TIP3    H118432   4.068   5.818   2.293  0.2913 -0.5133 -0.8253
 6156TIP3    H218433   4.150   5.942   2.321 -0.4998  0.1673 -1.4827
 6157TIP3   OH218434   0.737   1.154   1.656  0.3953  0.2416  0.1500
 6157TIP3    H118435   0.729   1.195   1.742  1.6953  1.1422 -0.1381
 6157TIP3    H218436   0.701   1.219   1.595 -0.2774 -0.2837 -0.0242
 6158TIP3   OH218437   0.808   1.888   0.304 -0.1831  0.1634 -0.2574
 6158TIP3    H118438   0.866   1.956   0.270  0.9646 -0.3900  0.5253
 6158TIP3    H218439   0.864   1.834   0.361 -1.2032 -1.0599 -0.3572
 6159TIP3   OH218440   7.155   4.287   0.374  0.0139 -0.2939  0.0148
 6159TIP3    H118441   7.071   4.327   0.399 -0.4020 -0.7216 -0.6719
 6159TIP3    H218442   7.206   4.286   0.455 -1.3667 -1.8353  0.9412
 6160TIP3   OH218443   3.617   2.951   5.664  0.1592 -0.2939  0.1291
 6160TIP3    H118444   3.584   2.886   5.725  0.6457  0.5489  1.3166
 6160TIP3    H218445   3.692   2.908   5.622 -0.3776 -0.9934 -0.1289
 6161TIP3   OH218446   1.242   0.127   0.086 -0.6312 -0.0108  0.6702
 6161TIP3    H118447   1.293   0.137   0.006  0.0132  0.6591  1.1484
 6161TIP3    H218448   1.194   0.209   0.094 -0.1991  0.1880  1.3011
 6162TIP3   OH218449   1.894   0.656   1.232 -0.3143  0.7434 -0.0649
 6162TIP3    H118450   1.984   0.659   1.199 -1.2224  1.5991 -2.7473
 6162TIP3    H218451   1.852   0.587   1.181 -1.4874  1.1863  0.2774
 6163TIP3   OH218452   0.717   4.955   0.085 -0.4879 -0.0104 -0.0431
 6163TIP3    H118453   0.699   4.869   0.123  0.5994 -1.4572 -2.6083
 6163TIP3    H218454   0.800   4.944   0.039 -0.1907  2.5106 -0.2335
 6164TIP3   OH218455   5.146   0.920   2.081  0.8563 -0.4720  0.1265
 6164TIP3    H118456   5.072   0.867   2.110  0.5065 -0.1110 -0.0873
 6164TIP3    H218457   5.142   0.916   1.985  1.0986 -0.4288  0.1139
 6165TIP3   OH218458   2.447   0.464   1.761 -0.0432  0.4201 -0.0228
 6165TIP3    H118459   2.367   0.428   1.720  0.8631  0.6307 -2.1143
 6165TIP3    H218460   2.415   0.512   1.837 -2.0105  1.0597 -1.1678
 6166TIP3   OH218461   3.590   3.049   5.299 -0.5805  0.3553 -0.0439
 6166TIP3    H118462   3.670   3.045   5.247 -0.6835  0.3878 -0.2038
 6166TIP3    H218463   3.614   3.101   5.376  0.0416 -1.0476  0.7523
 6167TIP3   OH218464   6.298   3.490   3.916 -0.6733 -0.0288 -0.2344
 6167TIP3    H118465   6.203   3.491   3.929 -0.6545 -3.9219  1.6877
 6167TIP3    H218466   6.330   3.563   3.969 -2.4609 -0.0864  1.0193
 6168TIP3   OH218467   3.780   1.594   0.353  0.1719 -0.2983 -0.4268
 6168TIP3    H118468   3.760   1.687   0.344 -0.5928 -0.5366 -1.3029
 6168TIP3    H218469   3.830   1.572   0.274 -1.5950 -1.1143 -1.3839
 6169TIP3   OH218470   3.095   4.129   3.117 -0.4933 -0.3636  0.2797
 6169TIP3    H118471   3.040   4.207   3.104  1.3946  1.3587  1.8033
 6169TIP3    H218472   3.053   4.082   3.188 -1.0463 -0.1085  0.1282
 6170TIP3   OH218473   1.499   3.069   2.100 -0.1894  0.2390  0.0572
 6170TIP3    H118474   1.451   3.049   2.180 -1.1208 -1.2521 -0.8234
 6170TIP3    H218475   1.584   3.027   2.112 -0.5992 -0.6277 -0.0282
 6171TIP3   OH218476   5.430   5.118   1.158 -0.8886  0.6643  0.2105
 6171TIP3    H118477   5.449   5.206   1.124  2.6851  0.1070  0.3730
 6171TIP3    H218478   5.423   5.130   1.252  0.5680  0.6950  0.3336
 6172TIP3   OH218479   1.915   3.483   4.184 -0.2589  0.4863 -0.7424
 6172TIP3    H118480   1.929   3.578   4.188 -0.6838  0.5245  1.5683
 6172TIP3    H218481   1.997   3.449   4.149  0.8172  1.5768  0.5677
 6173TIP3   OH218482   5.256   0.493   5.233  0.0322 -0.5914 -0.4437
 6173TIP3    H118483   5.284   0.548   5.160 -2.1530 -1.0051 -1.6924
 6173TIP3    H218484   5.302   0.528   5.309  1.7028  0.4199 -1.8551
 6174TIP3   OH218485   0.559   5.776   0.388  0.1076  0.1229  0.4683
 6174TIP3    H118486   0.537   5.834   0.461  1.0565 -0.1597  0.9939
 6174TIP3    H218487   0.585   5.693   0.430  0.5139 -0.0926 -0.1927
 6175TIP3   OH218488   4.972   1.226   1.789 -0.3682 -0.6984 -0.4944
 6175TIP3    H118489   4.943   1.312   1.820 -0.5372 -0.3220 -1.6445
 6175TIP3    H218490   5.048   1.244   1.734  1.1816 -1.5438  1.2756
 6176TIP3   OH218491   4.310   1.274   4.845  0.5860  0.0521  0.1894
 6176TIP3    H118492   4.239   1.294   4.905  1.2094  3.7595 -0.0510
 6176TIP3    H218493   4.390   1.302   4.891  1.6573 -1.6394 -0.5189
 6177TIP3   OH218494   6.483   2.242   5.026 -0.5358  0.4803 -0.0370
 6177TIP3    H118495   6.428   2.166   5.003 -0.4285 -0.6296  2.9552
 6177TIP3    H218496   6.435   2.317   4.991 -0.7140 -0.8540 -3.0105
 6178TIP3   OH218497   6.057   0.761   5.611 -0.8686 -0.5260 -0.1112
 6178TIP3    H118498   6.071   0.856   5.615  2.4446 -0.9499  1.0490
 6178TIP3    H218499   6.107   0.732   5.535  0.8835 -1.6554  1.4008
 6179TIP3   OH218500   2.419   5.773   0.979 -0.6056 -0.1740  0.2500
 6179TIP3    H118501   2.377   5.859   0.987 -0.9174 -0.3718  0.8366
 6179TIP3    H218502   2.378   5.733   0.902 -1.0290 -0.1015  0.4349
 6180TIP3   OH218503   5.136   2.178   5.624  0.5970 -0.7883 -0.1141
 6180TIP3    H118504   5.048   2.193   5.660  0.4523  0.6506 -0.9723
 6180TIP3    H218505   5.134   2.087   5.593 -1.0777 -0.3777 -1.3700
 6181TIP3   OH218506   5.163   2.736   0.496 -0.1163  0.6096 -0.1156
 6181TIP3    H118507   5.094   2.802   0.486  0.2481  1.4929  2.4767
 6181TIP3    H218508   5.162   2.715   0.589 -0.0216 -2.9300 -0.7935
 6182TIP3   OH218509   4.794   6.642   4.542  0.1809 -0.0676 -0.1004
 6182TIP3    H118510   4.851   6.677   4.610  1.6615  0.3411 -1.5040
 6182TIP3    H218511   4.719   6.605   4.590  0.7332  1.0057  1.6714
 6183TIP3   OH218512   6.663   0.591   1.832  0.2145 -0.3580 -0.2339
 6183TIP3    H118513   6.752   0.616   1.805  0.4193 -0.9779 -0.1658
 6183TIP3    H218514   6.635   0.660   1.891  0.6861 -0.1989 -0.1921
 6184TIP3   OH218515   1.538   3.442   5.655  0.4125  0.2854  0.2283
 6184TIP3    H118516   1.446   3.422   5.635 -0.5973  1.8748  2.7434
 6184TIP3    H218517   1.556   3.522   5.606 -0.8363  2.0453  2.4251
 6185TIP3   OH218518   1.948   4.626   4.034 -0.1721 -0.2241 -0.2239
 6185TIP3    H118519   1.969   4.557   4.097 -2.2340  1.9424  3.1806
 6185TIP3    H218520   1.901   4.582   3.964 -2.6565 -2.2578  2.4685
 6186TIP3   OH218521   6.058   4.750   3.638  0.0931 -0.3985  0.1440
 6186TIP3    H118522   6.049   4.668   3.590  0.1212  0.1466 -0.8179
 6186TIP3    H218523   5.989   4.746   3.705  2.2052 -2.6677  2.3818
 6187TIP3   OH218524   2.561   6.611   4.018  1.0036 -0.4190  0.2838
 6187TIP3    H118525   2.545   6.605   4.112  0.2399  1.7621  0.3566
 6187TIP3    H218526   2.474   6.601   3.978  0.8372  1.5857  0.0407
 6188TIP3   OH218527   3.534   6.628   3.621  0.2786 -0.4254  0.1987
 6188TIP3    H118528   3.602   6.649   3.686  0.9306 -0.3008 -0.5007
 6188TIP3    H218529   3.452   6.636   3.669  0.7371 -0.2110  0.9766
 6189TIP3   OH218530   0.559   0.460   2.938  0.1540 -0.2769  0.0809
 6189TIP3    H118531   0.544   0.412   3.019 -0.2684 -0.4071 -0.0707
 6189TIP3    H218532   0.488   0.525   2.934 -1.6718 -2.2109 -1.6293
 6190TIP3   OH218533   2.599   3.684   0.030  0.4661 -0.2528 -0.7298
 6190TIP3    H118534   2.657   3.611   0.006  0.6478 -1.4669  2.8323
 6190TIP3    H218535   2.589   3.677   0.125 -1.7196  2.8111 -0.5761
 6191TIP3   OH218536   3.886   6.323   3.661 -0.2978 -0.3502  0.0306
 6191TIP3    H118537   3.813   6.313   3.600 -1.2123  0.5995  0.9238
 6191TIP3    H218538   3.961   6.346   3.606 -0.9995  0.0801 -0.7723
 6192TIP3   OH218539   4.816   5.753   3.402 -0.5245 -0.1711 -1.0400
 6192TIP3    H118540   4.890   5.757   3.462 -2.6048  1.7618  1.6705
 6192TIP3    H218541   4.796   5.660   3.395  0.2512 -0.5105  0.7455
 6193TIP3   OH218542   6.244   4.293   5.061 -0.0761  0.4617 -0.4439
 6193TIP3    H118543   6.206   4.335   5.138  1.1578  0.5741  0.1290
 6193TIP3    H218544   6.337   4.285   5.082 -0.1127 -1.7843 -0.8888
 6194TIP3   OH218545   6.102   0.229   3.157  0.4116  0.2053 -0.0440
 6194TIP3    H118546   6.044   0.305   3.147  0.5237  0.6956  2.3973
 6194TIP3    H218547   6.071   0.166   3.092 -2.6439  0.6030  0.8716
 6195TIP3   OH218548   5.569   5.866   2.424  0.6718  0.1269  0.5211
 6195TIP3    H118549   5.483   5.905   2.439 -0.5627 -1.6788 -1.3501
 6195TIP3    H218550   5.619   5.934   2.379 -0.0025  0.9623  1.0186
 6196TIP3   OH218551   3.872   1.068   1.605  0.6483 -0.2993  0.4825
 6196TIP3    H118552   3.878   0.974   1.592  0.1016  0.0235 -2.9030
 6196TIP3    H218553   3.791   1.094   1.560  1.1570  1.8793  0.6817
 6197TIP3   OH218554   0.219   2.097   1.026  0.5822 -0.2189  0.5575
 6197TIP3    H118555   0.174   2.073   0.945  2.4414  0.7691 -0.8372
 6197TIP3    H218556   0.243   2.013   1.065 -0.6897 -0.7150  0.3155
 6198TIP3   OH218557   3.596   4.348   5.530 -1.0069 -0.0918  0.5010
 6198TIP3    H118558   3.573   4.286   5.600 -2.2922  0.9564  1.0470
 6198TIP3    H218559   3.635   4.293   5.462 -1.0296 -1.3344  1.4424
 6199TIP3   OH218560   5.636   0.747   5.714 -0.3558 -0.2698 -0.4012
 6199TIP3    H118561   5.597   0.829   5.684 -1.1766 -0.2444  0.6630
 6199TIP3    H218562   5.578   0.718   5.785  0.6761 -1.0750  0.1322
 6200TIP3   OH218563   0.839   1.060   4.018 -0.0129  0.0671 -0.5676
 6200TIP3    H118564   0.839   1.152   3.991  1.7317 -0.3547 -2.2597
 6200TIP3    H218565   0.859   1.011   3.937 -0.3118 -1.7567  0.3990
 6201TIP3   OH218566   0.739   6.674   5.698 -0.1937 -0.2272 -0.2524
 6201TIP3    H118567   0.721   6.641   5.786  1.3774  1.0528  0.6166
 6201TIP3    H218568   0.770   6.764   5.713  1.6137 -0.5071 -1.9520
 6202TIP3   OH218569   5.784   1.125   3.722 -0.2662  0.4785 -0.0075
 6202TIP3    H118570   5.716   1.191   3.733 -0.8840 -0.3481  1.5111
 6202TIP3    H218571   5.856   1.155   3.778 -0.8264 -0.4352  1.2630
 6203TIP3   OH218572   0.895   6.215   5.058 -0.0381 -0.7628 -0.3380
 6203TIP3    H118573   0.940   6.156   5.119 -1.4285  0.3497  1.9500
 6203TIP3    H218574   0.956   6.228   4.986  2.3260 -1.0666  1.5021
 6204TIP3   OH218575   4.582   0.499   1.249 -0.2966  0.1998 -0.1011
 6204TIP3    H118576   4.656   0.487   1.190  0.4469 -0.5343  0.9314
 6204TIP3    H218577   4.581   0.419   1.302  1.3719  2.2721  3.3652
 6205TIP3   OH218578   4.806   2.352   3.605 -0.0105  0.5237 -0.1288
 6205TIP3    H118579   4.790   2.325   3.695  0.9580  0.2743 -0.0245
 6205TIP3    H218580   4.733   2.314   3.556 -0.3389  0.3447  0.4884
 6206TIP3   OH218581   7.088   2.004   0.195  0.4015 -0.7120  0.4038
 6206TIP3    H118582   7.102   2.064   0.268 -0.7429 -0.3719  0.3758
 6206TIP3    H218583   7.138   1.925   0.218  0.4743 -0.4168  1.3024
 6207TIP3   OH218584   4.143   4.664   2.859 -0.1442 -0.3509 -0.2254
 6207TIP3    H118585   4.203   4.635   2.791  1.2720 -0.7966  1.1514
 6207TIP3    H218586   4.188   4.643   2.941 -2.0223 -0.3348  0.8655
 6208TIP3   OH218587   5.215   1.193   2.413 -0.5492 -0.3981  0.5525
 6208TIP3    H118588   5.282   1.246   2.370  2.0004 -2.1266  2.1104
 6208TIP3    H218589   5.163   1.257   2.463  0.0488  0.9897 -0.5362
 6209TIP3   OH218590   4.283   2.488   3.883 -0.2377 -0.0401  0.4250
 6209TIP3    H118591   4.278   2.510   3.790  0.9375  0.6452  0.5028
 6209TIP3    H218592   4.203   2.525   3.921 -0.5734 -0.0546 -0.2592
 6210TIP3   OH218593   3.525   6.693   5.651 -0.8329 -0.0315  0.0366
 6210TIP3    H118594   3.504   6.659   5.738 -0.2844  0.1679  0.2594
 6210TIP3    H218595   3.492   6.783   5.652 -1.4140 -0.2406 -0.2004
 6211TIP3   OH218596   4.409   2.792   3.669 -0.4925 -0.1121  0.8051
 6211TIP3    H118597   4.314   2.780   3.676 -0.4815 -0.6590  0.0629
 6211TIP3    H218598   4.445   2.707   3.693 -0.2599 -0.4356 -0.6216
 6212TIP3   OH218599   5.670   2.424   4.709  0.0383  0.5460  0.2910
 6212TIP3    H118600   5.632   2.414   4.622  0.6353 -0.2319  0.0998
 6212TIP3    H218601   5.709   2.511   4.709 -0.6518  0.8595  0.0651
 6213TIP3   OH218602   5.069   1.258   5.685  0.0411  0.2390  0.3219
 6213TIP3    H118603   5.061   1.208   5.767  2.0374 -0.5816  0.0829
 6213TIP3    H218604   5.164   1.267   5.672 -0.1353 -1.1778 -2.7892
 6214TIP3   OH218605   4.537   3.266   3.697  0.2619  0.3651 -0.0291
 6214TIP3    H118606   4.502   3.187   3.737  0.5340 -0.4480 -1.3468
 6214TIP3    H218607   4.460   3.311   3.662  0.2695 -0.1547 -0.7247
 6215TIP3   OH218608   6.970   5.875   4.586 -0.2671 -0.0796  0.5326
 6215TIP3    H118609   6.983   5.809   4.517 -0.9433  0.0982  0.2277
 6215TIP3    H218610   6.982   5.959   4.542 -0.4074  0.0256  0.6924
 6216TIP3   OH218611   4.235   5.085   0.420 -0.3786  0.3928 -0.3018
 6216TIP3    H118612   4.178   5.035   0.478 -0.4124 -0.5976 -1.1527
 6216TIP3    H218613   4.175   5.120   0.353 -0.5695  2.7096  0.9661
 6217TIP3   OH218614   2.869   5.955  -0.005  0.2070 -0.2226  0.0001
 6217TIP3    H118615   2.898   5.976   0.084 -1.2414 -0.4075  0.5452
 6217TIP3    H218616   2.845   5.863  -0.001 -1.7813  0.2436  0.0010
 6218TIP3   OH218617   2.086   1.468   2.051 -0.4206 -0.3747  1.0462
 6218TIP3    H118618   2.096   1.417   2.131  2.1719 -1.8610 -0.1089
 6218TIP3    H218619   2.009   1.430   2.008  0.8057 -2.6364  0.7485
 6219TIP3   OH218620   6.059   2.610   4.874 -0.1025 -0.4699 -0.3128
 6219TIP3    H118621   6.090   2.692   4.836 -0.2898 -0.3962 -0.3077
 6219TIP3    H218622   6.074   2.619   4.968 -3.0404  0.8916  0.1464
 6220TIP3   OH218623   7.144   2.037   0.515 -0.2787  0.0768  0.3194
 6220TIP3    H118624   7.187   1.960   0.551  1.5099  0.7367 -0.3202
 6220TIP3    H218625   7.059   2.039   0.559 -0.1516 -1.9296  0.7469
 6221TIP3   OH218626   2.079   4.195   0.403  0.0236 -0.3720  0.6103
 6221TIP3    H118627   2.077   4.285   0.372  1.7688 -1.3653 -3.0150
 6221TIP3    H218628   2.020   4.148   0.345  1.0641 -1.9209  0.7328
 6222TIP3   OH218629   4.090   0.844   0.542  0.2033  0.5118 -0.4756
 6222TIP3    H118630   4.026   0.777   0.520  0.0622  0.7296 -0.7297
 6222TIP3    H218631   4.156   0.798   0.594 -1.6812  0.8778  2.4842
 6223TIP3   OH218632   7.125   5.774   1.165  0.1262  1.0845  0.4181
 6223TIP3    H118633   7.139   5.835   1.237  1.1397  0.7344  0.5347
 6223TIP3    H218634   7.204   5.780   1.112  0.4489 -0.4078  0.6628
 6224TIP3   OH218635   1.349   4.204   2.605  0.1219 -0.2826 -0.1917
 6224TIP3    H118636   1.401   4.257   2.667 -0.3279  0.3776 -0.3671
 6224TIP3    H218637   1.260   4.210   2.638  0.0036 -0.5908 -0.4580
 6225TIP3   OH218638   1.775   4.597   3.804  0.7062  0.1116 -0.3070
 6225TIP3    H118639   1.710   4.568   3.740 -0.1056  0.1730  0.4615
 6225TIP3    H218640   1.731   4.588   3.888  2.3739 -1.7811  0.4633
 6226TIP3   OH218641   4.028   3.643   4.978  0.1089  0.1856  0.4412
 6226TIP3    H118642   3.964   3.586   5.021 -0.9896  1.4551  0.5618
 6226TIP3    H218643   4.022   3.726   5.027  1.3297  0.5531 -0.0133
 6227TIP3   OH218644   2.522   6.372   4.573  0.3464  0.6297 -0.0720
 6227TIP3    H118645   2.492   6.430   4.503  1.7468  0.7277 -0.6283
 6227TIP3    H218646   2.584   6.424   4.623  1.5642 -0.3321 -0.5312
 6228TIP3   OH218647   5.049   5.073   5.426 -0.0094 -0.4360  0.0431
 6228TIP3    H118648   5.039   5.105   5.516 -1.0992 -0.5685 -0.0135
 6228TIP3    H218649   5.138   5.097   5.402 -0.6633  2.4213  0.0925
 6229TIP3   OH218650   6.084   1.753   2.574  0.3962  0.6472  0.4578
 6229TIP3    H118651   6.111   1.712   2.491 -0.1109 -0.3936  0.7895
 6229TIP3    H218652   6.014   1.813   2.549 -0.0519  0.0229  0.1581
 6230TIP3   OH218653   1.270   2.956   0.926  0.0096  0.1814 -0.0439
 6230TIP3    H118654   1.227   2.921   0.848  0.3753 -0.2606 -0.0494
 6230TIP3    H218655   1.361   2.970   0.899  0.0252  0.4926  0.1606
 6231TIP3   OH218656   2.827   4.857   3.155 -0.7783 -0.4061 -0.7479
 6231TIP3    H118657   2.735   4.831   3.154 -0.5155 -1.5085  0.7705
 6231TIP3    H218658   2.830   4.935   3.209 -0.6184 -1.3962  0.7357
 6232TIP3   OH218659   5.863   4.944   1.543  0.5430 -0.1390  0.1855
 6232TIP3    H118660   5.898   4.917   1.628 -2.4305 -1.1530  1.2186
 6232TIP3    H218661   5.770   4.922   1.548 -0.2122  1.9733 -2.4677
 6233TIP3   OH218662   1.340   4.495   3.770 -0.1955 -0.2886 -0.5562
 6233TIP3    H118663   1.277   4.423   3.773 -0.4465 -0.0375  0.7361
 6233TIP3    H218664   1.295   4.568   3.813  0.8773 -0.0363  0.1781
 6234TIP3   OH218665   1.179   2.305   1.059  0.5122 -0.1090  0.0687
 6234TIP3    H118666   1.229   2.365   1.002  1.2642  0.1346  0.9690
 6234TIP3    H218667   1.233   2.295   1.137 -0.4834 -0.4911  0.7260
 6235TIP3   OH218668   5.867   4.264   4.216 -0.1372 -0.3419 -0.2020
 6235TIP3    H118669   5.857   4.353   4.182 -1.4197  0.3114  1.7304
 6235TIP3    H218670   5.800   4.213   4.171  0.6126 -0.3884 -1.3263
 6236TIP3   OH218671   3.787   5.806   2.514  0.3316  0.2548  0.6960
 6236TIP3    H118672   3.817   5.894   2.488 -1.3171  0.3826 -0.9648
 6236TIP3    H218673   3.697   5.819   2.542  0.4437 -0.7543  1.5554
 6237TIP3   OH218674   0.612   5.225   4.615  0.0116 -0.2787 -0.9778
 6237TIP3    H118675   0.559   5.208   4.693  0.6045  1.2032 -0.2009
 6237TIP3    H218676   0.609   5.143   4.565  0.1509 -1.5118  0.9230
 6238TIP3   OH218677   5.647   3.885   2.272  0.1974  0.6267 -0.7087
 6238TIP3    H118678   5.554   3.910   2.274 -0.9389 -2.9029 -1.0155
 6238TIP3    H218679   5.656   3.833   2.192  1.4929 -1.9156  0.9400
 6239TIP3   OH218680   4.953   4.279   3.870  0.3096  0.0584  0.4123
 6239TIP3    H118681   4.979   4.276   3.778 -1.2396  1.3766 -0.1028
 6239TIP3    H218682   4.878   4.220   3.875  2.0297 -2.2224  1.4915
 6240TIP3   OH218683   0.190   2.834   1.012 -0.0807  0.3418  0.0943
 6240TIP3    H118684   0.193   2.747   0.972  0.0541  0.3131  0.1660
 6240TIP3    H218685   0.239   2.889   0.951 -1.1257  0.6084 -0.5346
 6241TIP3   OH218686   5.897   3.651   1.967  0.1750 -0.2821 -0.3283
 6241TIP3    H118687   5.977   3.698   1.990  0.6536 -1.6833  1.0012
 6241TIP3    H218688   5.831   3.720   1.957  0.8485  0.7054  1.5368
 6242TIP3   OH218689   1.816   2.790   0.182 -0.3949 -0.0091 -0.7495
 6242TIP3    H118690   1.740   2.785   0.239 -1.3077  0.9907 -1.8178
 6242TIP3    H218691   1.854   2.701   0.184  0.2024  0.2206  2.0962
 6243TIP3   OH218692   5.735   1.900   3.089 -0.4684 -0.3431 -0.1338
 6243TIP3    H118693   5.730   1.898   2.994 -1.8868 -1.5216 -0.0680
 6243TIP3    H218694   5.829   1.909   3.108 -0.3757  4.7900 -1.6199
 6244TIP3   OH218695   0.862   6.214   3.038  0.0238  0.0153  0.0527
 6244TIP3    H118696   0.800   6.286   3.049  2.0289  1.9298 -0.4247
 6244TIP3    H218697   0.889   6.192   3.127 -0.1068  0.3315  0.1742
 6245TIP3   OH218698   3.073   5.605   1.880  0.3119  0.3216 -0.0885
 6245TIP3    H118699   3.092   5.600   1.974  2.8460  2.3514 -0.3916
 6245TIP3    H218700   3.147   5.653   1.843 -0.5781 -0.4726 -3.1699
 6246TIP3   OH218701   6.363   2.990   2.515  0.2840 -0.2828  0.1195
 6246TIP3    H118702   6.380   3.082   2.498  1.2189 -0.5526 -0.4683
 6246TIP3    H218703   6.269   2.979   2.499 -0.0401  0.7588  1.1656
 6247TIP3   OH218704   5.982   1.759   3.158 -0.0231 -0.4447 -0.3734
 6247TIP3    H118705   6.015   1.848   3.148  0.3573 -0.4716  0.4827
 6247TIP3    H218706   5.962   1.730   3.069  1.1103  0.0281 -0.8101
 6248TIP3   OH218707   2.754   4.114   4.042  0.3583  0.1748 -0.3678
 6248TIP3    H118708   2.664   4.120   4.009 -1.2565 -3.2776  2.6361
 6248TIP3    H218709   2.758   4.179   4.112 -0.1245 -0.1696 -0.0074
 6249TIP3   OH218710   4.532   0.828   3.103 -0.7075  0.0350  0.2193
 6249TIP3    H118711   4.542   0.917   3.070 -2.1320 -0.1915 -0.9172
 6249TIP3    H218712   4.440   0.822   3.130 -0.8554 -1.3172 -0.4841
 6250TIP3   OH218713   5.207   5.783   1.863  0.2791 -0.4993 -0.3876
 6250TIP3    H118714   5.201   5.863   1.916 -2.3069 -1.3724  0.8535
 6250TIP3    H218715   5.189   5.712   1.926 -1.4853 -1.7043 -2.1335
 6251TIP3   OH218716   5.843   5.791   2.600 -0.2585  0.8198 -0.3916
 6251TIP3    H118717   5.879   5.816   2.515 -0.4494  0.0201 -0.7149
 6251TIP3    H218718   5.750   5.776   2.584 -0.1778  0.0599 -0.1853
 6252TIP3   OH218719   3.126   3.616   4.271 -1.0326 -0.7743 -0.7446
 6252TIP3    H118720   3.138   3.561   4.349  1.5750  1.0194  0.2661
 6252TIP3    H218721   3.071   3.688   4.301  0.7362  0.4216 -0.1585
 6253TIP3   OH218722   0.469   2.596   3.528  0.6197  0.4981 -0.3933
 6253TIP3    H118723   0.410   2.524   3.507  0.1150  0.8718 -0.2706
 6253TIP3    H218724   0.546   2.554   3.565 -0.2377  0.0989  0.9963
 6254TIP3   OH218725   6.588   6.381   5.292  0.1983  0.2698  0.3809
 6254TIP3    H118726   6.630   6.299   5.265  1.2409  0.7860  0.3555
 6254TIP3    H218727   6.496   6.359   5.303 -0.0605 -0.3114 -2.2478
 6255TIP3   OH218728   5.750   1.114   2.468 -0.1723 -0.6099  0.0485
 6255TIP3    H118729   5.728   1.118   2.375  0.0168  0.2734  0.0373
 6255TIP3    H218730   5.825   1.055   2.473 -1.3164 -2.1649 -0.1294
 6256TIP3   OH218731   4.903   2.909   4.931 -0.0764  0.0825  0.1198
 6256TIP3    H118732   4.934   2.965   4.860  0.1037 -1.6643 -1.2419
 6256TIP3    H218733   4.978   2.902   4.990  0.6463 -0.4522 -0.8291
 6257TIP3   OH218734   1.433   5.135   4.714 -0.0711 -1.1590 -0.2104
 6257TIP3    H118735   1.355   5.174   4.754  1.1748  0.6414  0.5729
 6257TIP3    H218736   1.405   5.046   4.690 -2.4119 -0.5058 -0.1787
 6258TIP3   OH218737   6.303   3.375   4.816  0.3726 -0.5825  0.1877
 6258TIP3    H118738   6.296   3.375   4.721  2.2447  1.7672 -0.0377
 6258TIP3    H218739   6.397   3.378   4.833  0.0638  1.8904  1.9934
 6259TIP3   OH218740   3.555   1.456   1.155 -0.1100  0.0535 -0.2840
 6259TIP3    H118741   3.572   1.416   1.240  2.6284 -2.1577 -1.7133
 6259TIP3    H218742   3.638   1.498   1.131 -1.1404  1.5467 -1.4547
 6260TIP3   OH218743   1.540   2.407   3.394  0.0112  0.2567  0.4429
 6260TIP3    H118744   1.618   2.354   3.379  0.8487  1.6819 -0.4029
 6260TIP3    H218745   1.481   2.385   3.321 -0.0036 -0.1267  0.5679
 6261TIP3   OH218746   0.980   0.684   2.828 -0.3217 -0.5000 -0.5388
 6261TIP3    H118747   0.950   0.742   2.898 -0.2058  1.4782 -2.0324
 6261TIP3    H218748   1.075   0.681   2.838 -0.0104  1.8251 -1.9790
 6262TIP3   OH218749   4.833   0.207   0.626  0.8648 -0.2835 -0.2021
 6262TIP3    H118750   4.838   0.113   0.610 -0.3788 -0.4119  0.0507
 6262TIP3    H218751   4.739   0.226   0.625  1.0964  0.9210 -0.0503
 6263TIP3   OH218752   4.800   2.804   3.963  0.0808 -0.0075 -0.8991
 6263TIP3    H118753   4.857   2.774   4.034 -2.0252 -0.4407  0.7149
 6263TIP3    H218754   4.818   2.743   3.891 -0.1192 -1.7615  0.4483
 6264TIP3   OH218755   1.419   4.247   1.436  0.5680  0.6546 -0.7166
 6264TIP3    H118756   1.497   4.302   1.425  0.0050  1.6935  0.2483
 6264TIP3    H218757   1.400   4.251   1.529  0.0340 -0.5601 -0.7585
 6265TIP3   OH218758   2.440   0.320   0.978 -0.0256 -0.1649 -0.6442
 6265TIP3    H118759   2.474   0.232   0.966 -0.2601 -0.3956  0.3443
 6265TIP3    H218760   2.372   0.311   1.045  1.2526  1.0593  0.8798
 6266TIP3   OH218761   3.091   6.469   4.242 -0.2961 -0.2077 -0.1645
 6266TIP3    H118762   3.098   6.454   4.336 -0.1587 -0.5129 -0.2193
 6266TIP3    H218763   3.115   6.384   4.203  0.4713  0.1524 -0.4929
 6267TIP3   OH218764   1.126   3.583   5.368 -0.5979  0.1397 -0.6465
 6267TIP3    H118765   1.141   3.510   5.308 -1.0446  0.0402 -0.6414
 6267TIP3    H218766   1.214   3.616   5.389 -0.4701  1.3052 -2.7404
 6268TIP3   OH218767   1.881   1.687   1.575 -0.1594 -0.1590  0.1511
 6268TIP3    H118768   1.910   1.756   1.515 -0.5344 -0.2703 -0.1612
 6268TIP3    H218769   1.869   1.610   1.520  0.2331 -0.4705  0.4951
 6269TIP3   OH218770   4.368   2.745   5.600  0.3652  0.4727  0.2006
 6269TIP3    H118771   4.281   2.705   5.587  0.7207  0.0477 -0.9733
 6269TIP3    H218772   4.427   2.691   5.547  1.3461  0.8089  0.9221
 6270TIP3   OH218773   1.285   2.519   4.354 -0.1032  0.0335 -0.4878
 6270TIP3    H118774   1.297   2.482   4.267 -0.5689  0.2428 -0.6442
 6270TIP3    H218775   1.267   2.611   4.339  0.2076  0.1532 -0.1465
 6271TIP3   OH218776   3.780   0.762   4.035 -0.4479 -0.2105  0.3333
 6271TIP3    H118777   3.816   0.726   4.116 -1.2360 -1.6309  0.0740
 6271TIP3    H218778   3.756   0.686   3.983  0.0567  0.6722 -1.2684
 6272TIP3   OH218779   5.264   2.248   4.809 -0.6465  0.0476  0.2930
 6272TIP3    H118780   5.306   2.303   4.876  1.0829 -0.6563 -0.1872
 6272TIP3    H218781   5.182   2.220   4.851  0.0305  0.2411  1.8322
 6273TIP3   OH218782   3.908   5.800   1.081  0.4982  0.2441  0.2493
 6273TIP3    H118783   3.934   5.883   1.041 -0.5076  0.1206 -0.7105
 6273TIP3    H218784   3.990   5.753   1.094  0.9577  0.8271 -0.4697
 6274TIP3   OH218785   1.862   2.045   0.188 -0.5226  0.3190  0.1312
 6274TIP3    H118786   1.810   1.968   0.164 -1.7246  1.3358 -0.6710
 6274TIP3    H218787   1.855   2.048   0.284 -1.0768 -0.1654  0.1180
 6275TIP3   OH218788   4.476   1.624   1.546  0.3356  0.2780  0.4603
 6275TIP3    H118789   4.440   1.537   1.564  1.3164 -0.6942 -1.9225
 6275TIP3    H218790   4.403   1.672   1.507 -0.2380  0.6137  1.8760
 6276TIP3   OH218791   5.189   5.655   4.732  0.7148 -0.3292  0.5896
 6276TIP3    H118792   5.150   5.733   4.694  1.0436  0.3532  1.6105
 6276TIP3    H218793   5.205   5.597   4.657 -0.8364 -0.0156 -0.0090
 6277TIP3   OH218794   1.560   3.280   4.387 -0.1979  0.2268 -0.3279
 6277TIP3    H118795   1.618   3.288   4.463  0.8381 -1.8508 -0.7955
 6277TIP3    H218796   1.599   3.336   4.320 -0.3459  1.0123  0.2360
 6278TIP3   OH218797   0.415   1.082   1.730 -0.2736 -0.2636 -0.2094
 6278TIP3    H118798   0.449   1.147   1.669  0.6132  2.0678  2.5593
 6278TIP3    H218799   0.493   1.037   1.763 -0.7599 -1.6756 -0.8930
 6279TIP3   OH218800   0.835   1.811   1.134 -0.8234  0.4204 -0.2645
 6279TIP3    H118801   0.853   1.806   1.040  2.6634  0.1458  0.2907
 6279TIP3    H218802   0.815   1.721   1.159  1.6106 -0.1982 -0.2811
 6280TIP3   OH218803   4.463   4.314   1.002  0.1799  0.4325 -0.6516
 6280TIP3    H118804   4.406   4.258   1.054  0.4052  0.6803 -0.1270
 6280TIP3    H218805   4.435   4.300   0.912  0.4476 -0.7592 -0.5661
 6281TIP3   OH218806   2.754   2.834   4.018  0.6709 -0.4486  0.0898
 6281TIP3    H118807   2.810   2.765   4.053  1.0828 -1.2341 -2.0010
 6281TIP3    H218808   2.675   2.832   4.073  0.7722 -2.4318  0.2076
 6282TIP3   OH218809   0.222   3.426   5.834  0.0940 -0.0452  0.1582
 6282TIP3    H118810   0.185   3.475   5.760 -0.1430  0.6585  0.7320
 6282TIP3    H218811   0.316   3.444   5.830  0.2719 -1.1055 -0.7676
 6283TIP3   OH218812   1.815   4.138   0.721 -0.1745 -0.0381 -0.0724
 6283TIP3    H118813   1.851   4.174   0.802 -1.8595 -0.1495  0.7720
 6283TIP3    H218814   1.852   4.193   0.652  1.1162  0.1996  0.7611
 6284TIP3   OH218815   7.125   4.917   2.178  0.4455  0.2008  0.6407
 6284TIP3    H118816   7.167   4.841   2.219 -0.8676  0.5390  2.7689
 6284TIP3    H218817   7.166   4.992   2.221  0.5879  0.6637 -0.2824
 6285TIP3   OH218818   4.356   2.525   3.562  1.2350 -0.0223  0.4762
 6285TIP3    H118819   4.282   2.579   3.533  0.2284 -1.2540  0.6358
 6285TIP3    H218820   4.349   2.445   3.510  1.8616 -0.5610  1.2038
 6286TIP3   OH218821   0.704   4.716   0.210 -0.2578  0.1751 -0.3884
 6286TIP3    H118822   0.691   4.623   0.189  1.4268 -0.0426 -0.5981
 6286TIP3    H218823   0.731   4.717   0.301  1.4289  0.2560 -0.8479
 6287TIP3   OH218824   6.772   1.170   5.078 -0.5164  0.6062  0.0715
 6287TIP3    H118825   6.804   1.228   5.009  1.2032 -0.5231 -0.1465
 6287TIP3    H218826   6.688   1.139   5.047  0.0969  0.3557 -1.4087
 6288TIP3   OH218827   2.657   3.510   3.457 -0.2998 -0.2587  0.1528
 6288TIP3    H118828   2.715   3.534   3.530 -0.9296 -0.2556  0.6619
 6288TIP3    H218829   2.710   3.523   3.379 -0.0096  0.9832  0.5317
 6289TIP3   OH218830   1.845   2.234   0.524 -0.3680 -0.0055 -0.2241
 6289TIP3    H118831   1.917   2.296   0.532 -0.9645  0.7704 -0.7570
 6289TIP3    H218832   1.780   2.278   0.469 -0.2154 -1.6354 -1.8337
 6290TIP3   OH218833   1.589   0.288   4.887 -0.3874  0.0266 -0.3822
 6290TIP3    H118834   1.502   0.251   4.897 -0.2319 -0.6968 -1.5910
 6290TIP3    H218835   1.619   0.258   4.802  0.5838  1.2344 -0.4987
 6291TIP3   OH218836   1.123   0.214   3.303  0.4601 -0.2682 -0.3933
 6291TIP3    H118837   1.058   0.144   3.307  0.5679 -0.4270 -1.2625
 6291TIP3    H218838   1.089   0.276   3.239  0.4063  0.4414  0.3143
 6292TIP3   OH218839   4.113   2.535   3.329  0.0735  0.2054  0.1512
 6292TIP3    H118840   4.081   2.456   3.287  0.6952  0.0105  0.0319
 6292TIP3    H218841   4.097   2.605   3.266  2.3152 -0.2917 -1.0823
 6293TIP3   OH218842   2.647   6.676   3.540 -0.2772 -0.1394 -0.2141
 6293TIP3    H118843   2.633   6.752   3.484  1.5003  0.5002  0.1468
 6293TIP3    H218844   2.664   6.604   3.479 -1.3911 -0.1369 -0.5409
 6294TIP3   OH218845   4.810   6.634   1.388 -0.1508  0.2150  0.2529
 6294TIP3    H118846   4.812   6.730   1.388  1.6293  0.2208  0.7084
 6294TIP3    H218847   4.724   6.611   1.353 -0.0302  1.9755 -1.3629
 6295TIP3   OH218848   3.902   2.448   0.605  0.7479  0.3061 -0.0975
 6295TIP3    H118849   3.963   2.380   0.576  0.4172  0.1774 -0.4972
 6295TIP3    H218850   3.826   2.439   0.547 -0.3312 -0.5657  1.3888
 6296TIP3   OH218851   4.531   5.398   4.476 -1.0355  0.4214  0.5617
 6296TIP3    H118852   4.518   5.413   4.570 -0.5411 -0.4969  0.7832
 6296TIP3    H218853   4.619   5.433   4.458 -1.0908  0.5073  0.4551
 6297TIP3   OH218854   2.440   6.272   4.175 -0.7525  0.5173  0.2850
 6297TIP3    H118855   2.445   6.360   4.214 -1.6729  0.0331  1.5607
 6297TIP3    H218856   2.431   6.213   4.250 -0.7222 -0.6274 -0.5832
 6298TIP3   OH218857   1.138   4.032   5.337 -0.3106  0.5604 -0.3743
 6298TIP3    H118858   1.111   3.965   5.401 -0.5957  0.2204 -0.8450
 6298TIP3    H218859   1.110   3.997   5.252 -1.5466  1.8291 -0.5176
 6299TIP3   OH218860   6.694   2.720   3.463 -0.0752  0.0634  0.4585
 6299TIP3    H118861   6.762   2.697   3.401 -0.4708 -1.0339  0.3960
 6299TIP3    H218862   6.708   2.812   3.483  1.7508 -0.2668  0.8558
 6300TIP3   OH218863   6.048   6.205   3.405  0.1138  0.2108  0.5619
 6300TIP3    H118864   6.063   6.277   3.344  0.7532 -0.7658 -0.4743
 6300TIP3    H218865   5.954   6.188   3.400  0.3569 -0.8220 -1.3216
 6301TIP3   OH218866   5.345   1.092   3.383 -0.5662  0.1098  0.2251
 6301TIP3    H118867   5.370   1.181   3.408  1.9624 -0.2106 -0.8545
 6301TIP3    H218868   5.393   1.035   3.443 -0.1108 -0.5444 -0.7295
 6302TIP3   OH218869   1.499   5.053   3.426 -0.5822  0.4427  0.2384
 6302TIP3    H118870   1.580   5.075   3.472  0.9601 -1.9353 -1.1234
 6302TIP3    H218871   1.504   5.101   3.344  0.1861 -0.7737 -0.4511
 6303TIP3   OH218872   0.556   0.069   4.588  0.0871 -0.0242  0.1258
 6303TIP3    H118873   0.537   0.163   4.585 -1.2622 -0.1538  2.6444
 6303TIP3    H218874   0.500   0.031   4.520  0.3257  0.9193 -0.6213
 6304TIP3   OH218875   1.425   4.244   4.825  0.3578  0.6958  0.1178
 6304TIP3    H118876   1.436   4.186   4.751 -0.8333 -1.0306  1.2264
 6304TIP3    H218877   1.347   4.295   4.805 -1.0056 -0.9912  0.8686
 6305TIP3   OH218878   0.586   5.911   1.968 -0.1676 -0.2377 -0.2605
 6305TIP3    H118879   0.546   5.972   1.907 -1.2298 -1.6559 -1.0382
 6305TIP3    H218880   0.513   5.872   2.015  0.4334 -1.2695 -0.1413
 6306TIP3   OH218881   7.073   1.953   5.367  0.8747  0.2792 -0.2540
 6306TIP3    H118882   6.997   1.975   5.314  2.1818  1.1932 -1.8363
 6306TIP3    H218883   7.043   1.962   5.457 -0.6760  1.3974 -0.8400
 6307TIP3   OH218884   1.690   0.369   2.439 -0.3547  0.0006 -0.2541
 6307TIP3    H118885   1.688   0.333   2.527  1.1781  0.7321  0.1098
 6307TIP3    H218886   1.721   0.297   2.384  0.4084  0.0627  0.0925
 6308TIP3   OH218887   2.752   1.547   0.851  0.5887  0.3480  0.0460
 6308TIP3    H118888   2.741   1.517   0.941  0.7791  1.2193  0.3644
 6308TIP3    H218889   2.670   1.521   0.807  1.6914 -2.8779 -0.3668
 6309TIP3   OH218890   0.596   6.429   0.050 -0.1689 -0.0423 -0.0896
 6309TIP3    H118891   0.566   6.360   0.109  2.8057 -0.5310  0.9937
 6309TIP3    H218892   0.610   6.385  -0.034 -3.7217  0.5224 -1.1875
 6310TIP3   OH218893   6.911   5.449   0.522 -0.8322  0.4159 -0.5101
 6310TIP3    H118894   6.912   5.374   0.581  0.7132  0.8066  0.0206
 6310TIP3    H218895   6.884   5.414   0.437 -0.0534 -0.7603 -0.2885
 6311TIP3   OH218896   6.197   0.138   3.395  0.2496 -0.0324  0.1859
 6311TIP3    H118897   6.134   0.172   3.331 -1.4439 -1.2283  1.1481
 6311TIP3    H218898   6.173   0.046   3.406  1.1004 -0.0953  1.8134
 6312TIP3   OH218899   2.892   4.238   3.364  0.0453  0.3449 -0.1733
 6312TIP3    H118900   2.896   4.145   3.341  1.4158  0.2620  0.2777
 6312TIP3    H218901   2.817   4.272   3.315 -0.2697 -0.9212 -0.6124
 6313TIP3   OH218902   5.577   2.638   1.815  0.0741 -0.6567  0.0826
 6313TIP3    H118903   5.589   2.578   1.740 -2.0516 -1.4542  0.3031
 6313TIP3    H218904   5.631   2.713   1.794  0.5158 -1.4051 -1.6686
 6314TIP3   OH218905   7.134   2.532   5.213 -0.1188 -0.1983 -0.5322
 6314TIP3    H118906   7.191   2.553   5.288 -0.0681 -2.7462  0.2223
 6314TIP3    H218907   7.112   2.440   5.224 -2.1600 -0.0136 -2.3470
 6315TIP3   OH218908   6.456   2.625   4.975  0.7660 -0.3926 -0.3442
 6315TIP3    H118909   6.425   2.597   4.888  1.8254  0.1853 -0.9305
 6315TIP3    H218910   6.406   2.705   4.992  0.2180 -0.7573 -0.2040
 6316TIP3   OH218911   5.109   1.807   0.178  0.4700  0.4054 -0.3878
 6316TIP3    H118912   5.040   1.857   0.135 -0.5091 -1.0333 -0.5548
 6316TIP3    H218913   5.136   1.742   0.113  0.1093 -0.7365  0.5545
 6317TIP3   OH218914   1.225   4.303   1.258 -0.5193 -0.1823 -0.4823
 6317TIP3    H118915   1.258   4.368   1.196 -0.8431  0.8551  0.4075
 6317TIP3    H218916   1.297   4.292   1.320 -0.5708 -0.4883 -0.4754
 6318TIP3   OH218917   4.380   4.834   3.924  0.0797  0.2995  0.3913
 6318TIP3    H118918   4.370   4.805   4.015  0.7917 -0.2025  0.3203
 6318TIP3    H218919   4.356   4.927   3.925 -2.9868 -0.3900  0.4972
 6319TIP3   OH218920   2.473   2.290   3.707  0.2559 -0.0979  0.7155
 6319TIP3    H118921   2.519   2.206   3.707 -0.4517 -0.5375 -1.2409
 6319TIP3    H218922   2.542   2.356   3.694  0.7801 -0.3868  1.9788
 6320TIP3   OH218923   6.216   5.154   0.797  0.8406 -0.3816 -0.2695
 6320TIP3    H118924   6.222   5.078   0.738  4.3879 -1.2867  1.0053
 6320TIP3    H218925   6.175   5.119   0.876  2.2793 -0.9915  0.2374
 6321TIP3   OH218926   0.908   6.593   3.699 -0.1467 -0.2299  0.3350
 6321TIP3    H118927   0.876   6.559   3.783  0.0288  0.2787  0.6144
 6321TIP3    H218928   0.831   6.633   3.659 -0.6894 -2.1250 -0.6255
 6322TIP3   OH218929   5.313   3.039   5.414  0.0940 -0.6998  0.1429
 6322TIP3    H118930   5.225   3.051   5.377  0.3677  2.3548  0.2370
 6322TIP3    H218931   5.307   3.078   5.502  1.1209 -2.0680  0.8618
 6323TIP3   OH218932   4.875   2.586   3.822  0.2127  0.1877  0.3366
 6323TIP3    H118933   4.936   2.531   3.871  1.0451  0.0162 -0.8395
 6323TIP3    H218934   4.925   2.615   3.745 -1.4001 -0.5658 -1.0712
 6324TIP3   OH218935   3.941   2.668   4.298 -0.3586 -0.0364  0.2269
 6324TIP3    H118936   3.884   2.685   4.374  0.7214 -1.2578  1.3704
 6324TIP3    H218937   3.920   2.738   4.237 -1.9112  0.4898  1.2769
 6325TIP3   OH218938   3.335   2.477   4.312 -0.2657 -0.2589  0.0743
 6325TIP3    H118939   3.272   2.425   4.262 -0.0051 -0.7044  0.2080
 6325TIP3    H218940   3.284   2.511   4.385 -0.1344 -1.4122  0.7208
 6326TIP3   OH218941   2.845   1.103   4.268  0.0141 -0.1918 -0.4484
 6326TIP3    H118942   2.891   1.161   4.207 -0.1349 -0.4039 -0.7600
 6326TIP3    H218943   2.909   1.037   4.292 -0.0736 -0.3823 -0.7418
 6327TIP3   OH218944   6.260   1.245   2.716 -0.0879 -0.1209 -0.4521
 6327TIP3    H118945   6.197   1.313   2.691  1.2092  0.3273 -2.8396
 6327TIP3    H218946   6.277   1.261   2.809 -1.8253  1.1031 -0.3004
 6328TIP3   OH218947   0.550   2.120   0.239 -0.0903  0.1144  0.0819
 6328TIP3    H118948   0.508   2.178   0.303 -0.0093 -0.2793  0.4935
 6328TIP3    H218949   0.608   2.178   0.190 -0.3256  0.4637  0.2105
 6329TIP3   OH218950   6.794   6.003   4.397  0.0201 -0.4249  0.1105
 6329TIP3    H118951   6.880   6.021   4.360 -0.6205  1.4040 -0.5700
 6329TIP3    H218952   6.800   6.034   4.487 -0.3036  1.0257 -0.3331
 6330TIP3   OH218953   0.461   2.994   2.330 -0.6250 -0.2101 -0.4311
 6330TIP3    H118954   0.504   2.988   2.415  0.0533 -3.0150 -0.8863
 6330TIP3    H218955   0.368   2.992   2.350 -0.4701 -0.9357  0.2634
 6331TIP3   OH218956   3.108   3.144   2.445 -0.1557 -0.1166  0.3148
 6331TIP3    H118957   3.158   3.183   2.373  1.5938 -0.3568  1.3357
 6331TIP3    H218958   3.140   3.054   2.451 -0.8935 -0.3526  0.8653
 6332TIP3   OH218959   5.441   6.564   2.672  0.4239  0.1626 -0.2094
 6332TIP3    H118960   5.486   6.616   2.738  1.2486 -1.0556  0.2391
 6332TIP3    H218961   5.354   6.601   2.667  0.6609  0.9117  0.8481
 6333TIP3   OH218962   0.512   1.383   3.974 -0.0995  0.6483 -0.2160
 6333TIP3    H118963   0.447   1.314   3.984  0.2384  0.6231  3.1207
 6333TIP3    H218964   0.461   1.463   3.960 -0.7479  0.2897  0.0456
 6334TIP3   OH218965   2.979   0.254   1.766  0.1577 -0.4760 -0.3657
 6334TIP3    H118966   3.070   0.260   1.794  0.0788 -0.1552 -0.1780
 6334TIP3    H218967   2.963   0.336   1.718 -0.1898 -0.2942  0.0605
 6335TIP3   OH218968   3.079   1.297   1.682 -0.4899 -0.5412 -0.2530
 6335TIP3    H118969   3.119   1.382   1.702 -1.0764 -0.5772  1.2490
 6335TIP3    H218970   3.054   1.303   1.590  1.0298  0.2594 -0.6496
 6336TIP3   OH218971   4.505   5.900   2.127 -0.5229 -0.5378  0.3886
 6336TIP3    H118972   4.539   5.862   2.207 -1.1824 -0.7071  0.5997
 6336TIP3    H218973   4.468   5.826   2.079 -0.0006 -0.4605 -0.1404
 6337TIP3   OH218974   6.933   0.940   5.143  0.8725 -0.6182  0.1037
 6337TIP3    H118975   6.967   0.893   5.067 -0.2583 -0.6911 -0.3623
 6337TIP3    H218976   6.865   0.997   5.108 -0.2383 -1.2482  1.1646
 6338TIP3   OH218977   6.162   0.398   0.975 -0.2345  0.1808  0.0752
 6338TIP3    H118978   6.254   0.407   1.001 -0.7056  0.4037  1.8434
 6338TIP3    H218979   6.122   0.481   1.001 -0.9786 -0.0010 -0.4668
 6339TIP3   OH218980   0.130   4.077   5.182  0.1453  0.1840  0.6056
 6339TIP3    H118981   0.060   4.058   5.120 -0.0912 -1.1702  1.2384
 6339TIP3    H218982   0.162   4.163   5.157 -1.4694  0.6530  0.0486
 6340TIP3   OH218983   2.325   6.341   0.562  0.6852 -0.1167  0.4710
 6340TIP3    H118984   2.327   6.359   0.656  0.5535 -1.2699  0.7168
 6340TIP3    H218985   2.270   6.263   0.554 -0.9590  1.0843 -0.7639
 6341TIP3   OH218986   4.854   5.033   3.054  0.0743 -0.0432 -0.5533
 6341TIP3    H118987   4.811   4.947   3.051 -0.3668  0.0604  1.3333
 6341TIP3    H218988   4.856   5.062   2.963 -1.8206 -1.0637 -0.9678
 6342TIP3   OH218989   5.861   0.710   3.417  0.6570 -0.2654  0.1549
 6342TIP3    H118990   5.776   0.738   3.384  1.2675 -0.5079 -1.7626
 6342TIP3    H218991   5.898   0.788   3.458 -0.8030 -0.3776  1.8140
 6343TIP3   OH218992   5.930   1.746   5.261 -0.5963  0.1847 -0.3731
 6343TIP3    H118993   5.918   1.787   5.346 -1.5572 -0.6836 -0.0674
 6343TIP3    H218994   5.969   1.814   5.206 -0.2829  0.8551  0.6627
 6344TIP3   OH218995   3.175   2.957   2.673  0.4375  0.4778 -0.0539
 6344TIP3    H118996   3.244   3.023   2.672 -0.2454  1.2117  0.0772
 6344TIP3    H218997   3.192   2.905   2.752  1.6066 -0.1960 -0.7342
 6345TIP3   OH218998   5.436   1.596   4.639 -0.2773  0.1805  0.6028
 6345TIP3    H118999   5.453   1.690   4.630 -0.9278  0.2235 -0.2437
 6345TIP3    H219000   5.359   1.580   4.585  0.8927 -1.1776 -0.7690
 6346TIP3   OH219001   5.305   1.346   5.562 -0.3533 -0.1760  0.3019
 6346TIP3    H119002   5.400   1.332   5.559 -0.4820 -0.9393 -0.9124
 6346TIP3    H219003   5.291   1.420   5.502 -0.6004 -0.5565 -0.1120
 6347TIP3   OH219004   1.597   3.476   4.178  0.4218 -0.0789  0.1088
 6347TIP3    H119005   1.644   3.557   4.196 -0.3161  0.1785  0.9825
 6347TIP3    H219006   1.514   3.504   4.140 -0.6468 -0.2653  2.1367
 6348TIP3   OH219007   1.836   6.391   4.403 -0.5016 -0.1871 -0.1057
 6348TIP3    H119008   1.831   6.469   4.459 -0.1493  0.5059 -1.0073
 6348TIP3    H219009   1.925   6.393   4.367 -0.5190 -0.9619 -0.2114
 6349TIP3   OH219010   3.834   1.652   4.616  0.0170  0.0138 -0.6051
 6349TIP3    H119011   3.792   1.612   4.692 -1.0122  0.9059 -0.6809
 6349TIP3    H219012   3.873   1.578   4.569  0.7523 -0.5408  0.8212
 6350TIP3   OH219013   4.939   3.524   4.818  0.1498 -0.0548 -0.1110
 6350TIP3    H119014   4.865   3.509   4.760  0.4465  0.3803 -0.6091
 6350TIP3    H219015   4.928   3.614   4.849  1.1567  0.4658 -1.2048
 6351TIP3   OH219016   6.156   5.241   0.241  0.4030 -0.3795  0.1018
 6351TIP3    H119017   6.079   5.252   0.185 -0.2948 -1.2975  0.8449
 6351TIP3    H219018   6.198   5.161   0.208  0.7970 -0.1225 -0.0243
 6352TIP3   OH219019   3.265   1.608   4.487 -0.0595  0.3042 -0.0574
 6352TIP3    H119020   3.198   1.550   4.523  1.2137 -1.4389 -0.3417
 6352TIP3    H219021   3.271   1.680   4.549 -1.5250  0.0117  0.4476
 6353TIP3   OH219022   0.723   3.668   3.077  0.1507  0.2128  0.8026
 6353TIP3    H119023   0.781   3.599   3.046 -1.6273 -2.3096  2.6582
 6353TIP3    H219024   0.663   3.684   3.005 -0.7234 -1.7996  1.0265
 6354TIP3   OH219025   0.976   4.367   1.414 -0.2007  0.1949 -0.3342
 6354TIP3    H119026   1.072   4.368   1.417 -0.1667 -1.5004  1.7889
 6354TIP3    H219027   0.954   4.281   1.379 -0.9637  0.5844 -0.8319
 6355TIP3   OH219028   4.463   5.827   0.064  0.1889  0.3554 -0.5398
 6355TIP3    H119029   4.465   5.732   0.056  0.7872  0.4017 -1.0473
 6355TIP3    H219030   4.508   5.845   0.147 -2.3307  0.0810  0.9830
 6356TIP3   OH219031   1.010   3.136   5.405 -0.2116 -0.4332  0.6381
 6356TIP3    H119032   1.053   3.059   5.443 -0.9275 -1.4368 -0.5049
 6356TIP3    H219033   1.069   3.165   5.335  1.0989  1.4036  2.3870
 6357TIP3   OH219034   2.857   5.446   1.370 -0.4921  0.2674  0.1189
 6357TIP3    H119035   2.825   5.491   1.291 -1.1627  0.7510  0.6558
 6357TIP3    H219036   2.890   5.517   1.425  0.4150 -0.1165  0.0838
 6358TIP3   OH219037   5.075   0.564   0.738 -0.4279 -0.1191  0.1472
 6358TIP3    H119038   5.118   0.508   0.673  2.9281  1.4846  0.7854
 6358TIP3    H219039   5.056   0.506   0.812  2.3812 -0.6671  0.5416
 6359TIP3   OH219040   6.209   6.548   0.366  0.2319 -0.4725 -0.5678
 6359TIP3    H119041   6.197   6.643   0.359  0.8466 -0.3433  0.0117
 6359TIP3    H219042   6.131   6.517   0.413 -0.5415 -0.4256 -1.7804
 6360TIP3   OH219043   1.219   3.590   1.040  0.1120 -0.6606  0.0953
 6360TIP3    H119044   1.264   3.639   0.971 -0.9234  1.2893  0.7183
 6360TIP3    H219045   1.161   3.530   0.993  0.5317 -0.4252 -0.7327
 6361TIP3   OH219046   2.136   4.501   0.434 -0.4043  0.2135 -0.5620
 6361TIP3    H119047   2.048   4.526   0.462 -0.1127  2.4679 -1.4440
 6361TIP3    H219048   2.194   4.539   0.500 -0.0607 -2.4303  0.7953
 6362TIP3   OH219049   1.950   6.185   5.033 -0.6913 -0.4707 -0.2909
 6362TIP3    H119050   1.972   6.225   4.949  2.5814 -1.8016 -0.2193
 6362TIP3    H219051   1.954   6.257   5.096 -0.6467  0.0974 -0.9315
 6363TIP3   OH219052   3.536   3.468   2.324 -0.7469 -0.9620 -0.4738
 6363TIP3    H119053   3.516   3.533   2.257  0.2529  1.9846  1.8547
 6363TIP3    H219054   3.621   3.432   2.297  0.0955  0.8526 -0.4448
 6364TIP3   OH219055   4.453   4.512   2.450 -0.3079  0.3355 -0.4355
 6364TIP3    H119056   4.451   4.442   2.385 -0.4881  0.1402 -0.2212
 6364TIP3    H219057   4.530   4.564   2.427  0.9160 -0.9863  0.4963
 6365TIP3   OH219058   6.395   5.059   1.644  0.4440 -0.4747  0.3603
 6365TIP3    H119059   6.331   5.127   1.667  1.0912  0.3387 -0.1711
 6365TIP3    H219060   6.419   5.079   1.553  0.9662 -1.1553  0.3423
 6366TIP3   OH219061   6.037   3.384   5.380 -0.2297  0.3791  0.6744
 6366TIP3    H119062   6.040   3.327   5.303 -2.2822  1.6427 -0.4295
 6366TIP3    H219063   5.963   3.351   5.432 -0.4049  1.0380  0.8484
 6367TIP3   OH219064   0.356   1.114   3.991  0.3059  0.1830 -0.6314
 6367TIP3    H119065   0.417   1.094   3.920 -0.1870 -1.2287 -0.6870
 6367TIP3    H219066   0.314   1.030   4.010  1.5145  0.1341  2.3614
 6368TIP3   OH219067   6.433   4.785   3.876 -0.4491 -0.1687 -0.0196
 6368TIP3    H119068   6.350   4.831   3.869  0.0562  1.1016  1.7742
 6368TIP3    H219069   6.493   4.848   3.916  0.5350 -2.0183  1.6019
 6369TIP3   OH219070   0.212   6.466   4.305  0.3466  0.4003 -0.5472
 6369TIP3    H119071   0.300   6.429   4.319  0.5355  0.8069 -0.6458
 6369TIP3    H219072   0.167   6.452   4.388 -0.0585 -1.3123 -1.0134
 6370TIP3   OH219073   2.278   2.712   5.333  0.4700  0.0386 -0.1349
 6370TIP3    H119074   2.334   2.784   5.304  0.2822  0.5318  0.6978
 6370TIP3    H219075   2.303   2.697   5.424 -2.3789  1.8964  1.0529
 6371TIP3   OH219076   3.509   1.683   5.365  0.0363  0.0151 -0.1110
 6371TIP3    H119077   3.538   1.709   5.277  0.0964 -0.9012 -0.3676
 6371TIP3    H219078   3.460   1.602   5.351  1.1457 -0.8536  0.8436
 6372TIP3   OH219079   2.304   2.295   5.394 -0.0651 -0.0845 -0.0860
 6372TIP3    H119080   2.291   2.210   5.352  0.3934  0.6037 -1.7071
 6372TIP3    H219081   2.216   2.325   5.415 -0.5816  0.5738 -2.7906
 6373TIP3   OH219082   0.300   4.441   3.761  0.0159 -0.3253 -0.1284
 6373TIP3    H119083   0.358   4.386   3.707  0.8718 -0.9889  1.3860
 6373TIP3    H219084   0.279   4.386   3.836 -2.5108 -0.0319 -0.5399
 6374TIP3   OH219085   6.794   3.353   0.235  0.1075  0.4544  0.6855
 6374TIP3    H119086   6.822   3.445   0.240 -0.0970  0.6154 -0.6469
 6374TIP3    H219087   6.702   3.357   0.211  0.3979 -0.0717 -0.6360
 6375TIP3   OH219088   6.700   3.633   4.928  0.0369  0.1775 -0.0545
 6375TIP3    H119089   6.765   3.690   4.969  1.4012 -1.7225  0.5999
 6375TIP3    H219090   6.617   3.659   4.968  0.9478  0.2128  1.9433
 6376TIP3   OH219091   6.081   1.293   0.513 -0.0617 -0.4444  0.3759
 6376TIP3    H119092   5.986   1.282   0.500 -0.0860 -0.1259  0.2654
 6376TIP3    H219093   6.101   1.377   0.471  0.2265 -0.3887  0.6226
 6377TIP3   OH219094   3.556   3.823   3.898 -0.6878  0.1492 -0.0464
 6377TIP3    H119095   3.470   3.830   3.856 -0.7429  1.0117  0.2020
 6377TIP3    H219096   3.604   3.760   3.844 -1.1707  0.3330 -0.7026
 6378TIP3   OH219097   3.072   3.365   5.299 -0.7182  0.2951  0.4491
 6378TIP3    H119098   3.089   3.274   5.322 -1.9272  0.0638  0.5135
 6378TIP3    H219099   3.061   3.409   5.383  0.1279  0.5605  0.4243
 6379TIP3   OH219100   4.172   5.678   4.160  0.5825 -0.3357 -0.1824
 6379TIP3    H119101   4.243   5.618   4.184  1.5159 -0.4546 -2.8161
 6379TIP3    H219102   4.217   5.758   4.134 -0.4878  0.6005  0.7687
 6380TIP3   OH219103   2.593   4.964   0.649 -0.0834  0.2223  0.0556
 6380TIP3    H119104   2.526   4.960   0.718 -1.4763  0.2359 -1.2359
 6380TIP3    H219105   2.624   4.874   0.640 -1.1074 -0.1056 -0.4024
 6381TIP3   OH219106   3.386   5.007   3.898  0.3525  0.3559 -0.6442
 6381TIP3    H119107   3.305   4.991   3.850 -0.1427 -1.4303  0.6533
 6381TIP3    H219108   3.424   4.919   3.909  1.4292  0.9408  0.5054
 6382TIP3   OH219109   5.203   4.474   2.554 -0.0673 -0.2230  0.0457
 6382TIP3    H119110   5.248   4.452   2.636 -2.0856 -0.9581  1.0481
 6382TIP3    H219111   5.177   4.565   2.565  0.6485  0.0229 -0.2778
 6383TIP3   OH219112   2.022   5.881   2.063  0.0349 -0.1773  0.3343
 6383TIP3    H119113   1.988   5.863   2.151  0.9772  0.1774  0.7916
 6383TIP3    H219114   2.115   5.859   2.069 -0.3581 -2.7109 -1.3255
 6384TIP3   OH219115   2.153   4.946   5.340  0.0383  0.2797 -0.0864
 6384TIP3    H119116   2.171   4.893   5.262 -0.3410  0.8853 -0.5938
 6384TIP3    H219117   2.235   4.945   5.389 -0.1850 -1.4156  0.3102
 6385TIP3   OH219118   0.341   5.576   5.644  0.8470  0.2550  0.0873
 6385TIP3    H119119   0.250   5.580   5.671 -0.4851 -0.6713 -3.6324
 6385TIP3    H219120   0.350   5.490   5.603  3.7493 -0.0929  1.1871
 6386TIP3   OH219121   4.816   1.349   1.016  0.0573 -0.2854  0.3354
 6386TIP3    H119122   4.721   1.335   1.020  0.0028  0.3471  1.5410
 6386TIP3    H219123   4.827   1.432   0.969  0.0159 -0.2763  0.3422
 6387TIP3   OH219124   7.059   5.537   2.421 -0.3351 -0.3587 -0.2783
 6387TIP3    H119125   7.145   5.575   2.407 -0.6509 -0.5007 -3.2728
 6387TIP3    H219126   7.077   5.445   2.443  0.2799  0.2329  1.9085
 6388TIP3   OH219127   2.298   0.869   3.019 -0.0977  0.5430  0.0582
 6388TIP3    H119128   2.231   0.800   3.018  0.1951  0.2600 -0.4066
 6388TIP3    H219129   2.317   0.883   3.112  0.0421 -0.2040  0.1476
 6389TIP3   OH219130   4.554   0.224   3.156 -0.2593  0.3253  0.0289
 6389TIP3    H119131   4.649   0.237   3.149 -0.5550  3.1749  0.3233
 6389TIP3    H219132   4.543   0.129   3.149  2.5304 -0.0370 -0.8649
 6390TIP3   OH219133   4.093   4.957   3.151  0.0261 -0.6181  0.2136
 6390TIP3    H119134   4.013   4.907   3.168 -1.5794  1.5755 -0.4388
 6390TIP3    H219135   4.097   4.965   3.055  0.7647 -0.2735  0.2609
 6391TIP3   OH219136   4.657   3.395   3.334 -0.5802 -0.2573  0.2542
 6391TIP3    H119137   4.744   3.380   3.295  0.1472 -1.3163  2.0948
 6391TIP3    H219138   4.610   3.313   3.319 -0.7778 -0.1672  0.3768
 6392TIP3   OH219139   4.191   5.983   2.891 -0.5002  0.2370 -0.2167
 6392TIP3    H119140   4.227   6.070   2.909 -0.1545  0.0502  0.0127
 6392TIP3    H219141   4.155   5.990   2.803  2.2294 -0.2185 -1.4828
 6393TIP3   OH219142   2.671   3.804   2.341  0.5122  0.3994  0.4679
 6393TIP3    H119143   2.724   3.773   2.415  1.5639 -1.3256 -0.9245
 6393TIP3    H219144   2.727   3.867   2.296  0.6777 -0.0609  0.0218
 6394TIP3   OH219145   1.949   2.222   3.988  0.4634 -0.3548  0.0916
 6394TIP3    H119146   1.951   2.315   3.965 -0.8608  0.1570  1.8370
 6394TIP3    H219147   1.860   2.194   3.964  0.2138 -0.6544  1.2944
 6395TIP3   OH219148   3.216   0.704   5.880  0.1897 -0.0021  0.4127
 6395TIP3    H119149   3.157   0.729   5.951 -2.0070  0.8045 -1.5688
 6395TIP3    H219150   3.198   0.766   5.810  1.3996 -1.4525 -1.2994
 6396TIP3   OH219151   4.078   0.660   3.334 -0.2428  0.2802  0.4626
 6396TIP3    H119152   4.073   0.682   3.241  1.0608  0.5207  0.4378
 6396TIP3    H219153   4.055   0.741   3.379 -0.5761  0.2461  0.3575
 6397TIP3   OH219154   3.377   3.408   2.011 -0.1275  0.2142 -0.1498
 6397TIP3    H119155   3.311   3.394   1.943 -0.9138 -0.1822  0.6733
 6397TIP3    H219156   3.438   3.335   2.002 -1.1626 -0.7620  0.6299
 6398TIP3   OH219157   1.663   5.768   1.710 -0.4119 -0.5243  0.0012
 6398TIP3    H119158   1.606   5.737   1.639  1.6339 -0.8241 -1.6283
 6398TIP3    H219159   1.713   5.840   1.670  0.7639 -0.6751  1.1374
 6399TIP3   OH219160   6.577   2.075   1.465  0.3001 -0.2678 -0.0264
 6399TIP3    H119161   6.601   2.054   1.556 -1.2040  1.5366  0.8596
 6399TIP3    H219162   6.656   2.115   1.429  0.3688  0.6601  1.0898
 6400TIP3   OH219163   4.641   1.471   4.494  0.5866 -0.1331 -0.5599
 6400TIP3    H119164   4.586   1.501   4.567  1.9503 -0.0486  0.4594
 6400TIP3    H219165   4.616   1.528   4.421 -0.3352  0.2207  0.0133
 6401TIP3   OH219166   6.977   0.209   0.234 -0.2974  0.2731  0.0840
 6401TIP3    H119167   6.925   0.143   0.279 -0.0181 -0.5888 -0.8223
 6401TIP3    H219168   7.056   0.218   0.288  0.4003 -1.3411 -0.6277
 6402TIP3   OH219169   1.360   0.472   4.696  0.3899  0.0626  0.0278
 6402TIP3    H119170   1.276   0.444   4.731  0.4771 -0.2538 -0.0075
 6402TIP3    H219171   1.408   0.390   4.680  1.1986  0.2676  1.2628
 6403TIP3   OH219172   4.824   1.467   0.271  0.2727  0.4410 -0.2507
 6403TIP3    H119173   4.740   1.480   0.315  0.4549  0.0813  0.2126
 6403TIP3    H219174   4.890   1.486   0.338  0.5522 -1.4063  0.0595
 6404TIP3   OH219175   4.755   3.125   1.218  0.1119  0.2796  0.1519
 6404TIP3    H119176   4.724   3.194   1.277 -0.0364  0.0768  0.3114
 6404TIP3    H219177   4.676   3.075   1.197  0.1712  0.3272 -0.1869
 6405TIP3   OH219178   0.997   0.364   2.192  0.0141 -0.2528 -0.1740
 6405TIP3    H119179   0.933   0.417   2.239  0.1971 -1.1141  1.1175
 6405TIP3    H219180   0.967   0.274   2.203  1.0319 -0.6129 -0.1786
 6406TIP3   OH219181   4.919   2.473   1.601 -0.3607 -0.0305 -0.4360
 6406TIP3    H119182   4.881   2.557   1.576 -0.2739  0.6037  1.4453
 6406TIP3    H219183   4.851   2.430   1.652  0.4376 -0.0377  0.6591
 6407TIP3   OH219184   2.174   3.395   1.108 -0.1330  0.0703  0.5425
 6407TIP3    H119185   2.198   3.389   1.015 -1.0587  1.9577  0.1333
 6407TIP3    H219186   2.116   3.320   1.123  0.5780 -0.6527 -0.1961
 6408TIP3   OH219187   1.803   0.220   3.222  0.3709  0.1020  0.2506
 6408TIP3    H119188   1.762   0.150   3.272  2.7298 -1.2765  0.4134
 6408TIP3    H219189   1.894   0.191   3.211  0.7827  1.9588 -1.9060
 6409TIP3   OH219190   2.711   3.608   5.495 -0.1346  0.2181  0.3539
 6409TIP3    H119191   2.765   3.631   5.420 -1.2300 -1.0391 -0.8840
 6409TIP3    H219192   2.701   3.513   5.489 -2.3611  0.3747  0.5532
 6410TIP3   OH219193   3.117   5.184   2.872 -0.0439 -0.6607  0.1248
 6410TIP3    H119194   3.088   5.097   2.844 -1.2902 -0.2586  0.1242
 6410TIP3    H219195   3.069   5.200   2.953  0.5020 -0.1409  0.3529
 6411TIP3   OH219196   4.292   3.454   3.961 -0.0585 -0.0127 -0.2123
 6411TIP3    H119197   4.267   3.399   3.887  0.3941  0.2769 -0.5890
 6411TIP3    H219198   4.268   3.543   3.933  1.2309  0.2558 -0.5255
 6412TIP3   OH219199   3.643   1.137   1.465  0.3007  0.2698 -0.1693
 6412TIP3    H119200   3.584   1.093   1.526 -0.9234  0.4188 -1.1805
 6412TIP3    H219201   3.599   1.129   1.380  1.8371  0.2644 -0.9990
 6413TIP3   OH219202   1.526   3.527   3.911 -0.7516 -0.1424 -0.2837
 6413TIP3    H119203   1.538   3.614   3.874  0.0861 -0.0105  0.2836
 6413TIP3    H219204   1.610   3.506   3.951 -0.7979 -1.4009 -0.7921
 6414TIP3   OH219205   5.232   4.117   2.006 -0.2239 -0.0774  0.1537
 6414TIP3    H119206   5.180   4.104   2.085 -2.1068  0.0289 -0.9885
 6414TIP3    H219207   5.258   4.029   1.978 -0.2902 -0.1815  0.4238
 6415TIP3   OH219208   6.540   2.523   5.881 -0.1129  0.3763 -0.0397
 6415TIP3    H119209   6.451   2.533   5.915 -0.5494  3.0367 -1.6741
 6415TIP3    H219210   6.534   2.451   5.818 -1.8144  2.0503 -1.9433
 6416TIP3   OH219211   3.389   6.512   3.258 -0.0512 -0.1993  0.2652
 6416TIP3    H119212   3.417   6.603   3.250  0.3765 -0.3557 -0.0895
 6416TIP3    H219213   3.430   6.468   3.184 -0.9856 -0.5103 -0.0760
 6417TIP3   OH219214   7.009   0.767   2.310 -0.7177  0.3045 -0.6347
 6417TIP3    H119215   7.013   0.821   2.231 -1.7111  1.1317 -0.1296
 6417TIP3    H219216   6.925   0.721   2.304  0.4113 -1.8232 -1.4284
 6418TIP3   OH219217   5.204   2.866   1.507 -0.1194  0.2869  0.9619
 6418TIP3    H119218   5.291   2.867   1.547  0.4490  2.2442 -0.1777
 6418TIP3    H219219   5.221   2.862   1.413 -1.0337  3.4240  0.5171
 6419TIP3   OH219220   3.343   2.654   1.522  0.5100  0.0797  0.0218
 6419TIP3    H119221   3.283   2.581   1.504 -0.5619  0.8477  0.4224
 6419TIP3    H219222   3.310   2.726   1.468  0.2552  0.9002  1.2355
 6420TIP3   OH219223   2.027   1.347   3.130  0.5578  0.0902 -0.4385
 6420TIP3    H119224   1.975   1.411   3.082  1.0533  0.5432 -0.3857
 6420TIP3    H219225   2.118   1.369   3.110  0.8975  1.6041  2.2548
 6421TIP3   OH219226   4.258   3.861   1.412  0.2170 -0.0919 -0.0034
 6421TIP3    H119227   4.177   3.833   1.368 -1.1493  2.2211  0.8542
 6421TIP3    H219228   4.229   3.889   1.498  1.9425  0.9267  0.2832
 6422TIP3   OH219229   1.470   4.135   0.502  0.2863  0.3050  0.5346
 6422TIP3    H119230   1.489   4.044   0.483  1.6066  0.6902 -0.1095
 6422TIP3    H219231   1.379   4.135   0.533 -0.5633 -0.9285 -1.7091
 6423TIP3   OH219232   4.871   4.163   1.002 -0.5028  0.4852  0.7415
 6423TIP3    H119233   4.817   4.228   1.046 -2.4548 -1.5759  1.5900
 6423TIP3    H219234   4.813   4.088   0.988  2.2283 -2.2079  2.3659
 6424TIP3   OH219235   6.420   5.981   5.428 -0.1675  0.3871 -0.4999
 6424TIP3    H119236   6.496   5.984   5.486 -0.5423 -0.3758  0.0456
 6424TIP3    H219237   6.445   5.918   5.360  0.0887  0.9313 -0.9238
 6425TIP3   OH219238   6.451   0.209   3.475 -0.0866  0.3368 -0.1691
 6425TIP3    H119239   6.369   0.169   3.447  0.7081 -1.3416 -0.1799
 6425TIP3    H219240   6.456   0.290   3.424 -1.1148 -0.1726 -1.1189
 6426TIP3   OH219241   1.170   0.898   1.729  0.8317 -0.1334 -0.3487
 6426TIP3    H119242   1.108   0.967   1.755  0.3202 -0.8551  0.3856
 6426TIP3    H219243   1.130   0.817   1.761  2.9401 -0.4819  1.6293
 6427TIP3   OH219244   0.276   0.388   2.062 -0.3545  0.0570  0.1695
 6427TIP3    H119245   0.181   0.393   2.062 -0.4470 -1.0121  1.5773
 6427TIP3    H219246   0.297   0.318   2.000 -0.5016  0.0846  0.0891
 6428TIP3   OH219247   5.403   0.160   1.679  0.6458 -0.2264 -0.4708
 6428TIP3    H119248   5.416   0.140   1.772  0.7361  0.3097 -0.3688
 6428TIP3    H219249   5.454   0.239   1.664  0.2001 -0.0079 -0.8503
 6429TIP3   OH219250   6.330   2.764   0.082 -0.0977  0.0308 -0.4236
 6429TIP3    H119251   6.293   2.703   0.146  2.1235 -1.5760 -0.5270
 6429TIP3    H219252   6.424   2.744   0.083  0.7169  3.3883 -0.6176
 6430TIP3   OH219253   4.301   3.087   4.028  0.1859  0.2704 -0.7825
 6430TIP3    H119254   4.347   3.049   3.952 -0.0138 -2.4981  0.3711
 6430TIP3    H219255   4.355   3.162   4.053  1.0698  0.3580 -2.7184
 6431TIP3   OH219256   1.383   6.284   2.862 -0.5175 -0.3180  0.5387
 6431TIP3    H119257   1.332   6.346   2.914  0.8283  0.6246  0.8036
 6431TIP3    H219258   1.322   6.253   2.795 -1.3584  0.9767  0.6613
 6432TIP3   OH219259   0.073   4.855   3.982 -0.6085  0.1476  0.2444
 6432TIP3    H119260   0.147   4.797   3.965 -0.5953  0.1512  0.2907
 6432TIP3    H219261   0.087   4.929   3.923  0.6406  1.2417  1.8517
 6433TIP3   OH219262   2.659   0.472   1.951 -0.5515 -0.1545  0.0354
 6433TIP3    H119263   2.639   0.441   1.862 -1.9605 -2.3916  1.0525
 6433TIP3    H219264   2.587   0.531   1.973 -0.2628  0.3075 -0.2158
 6434TIP3   OH219265   2.456   3.705   0.561  0.0995 -0.1755  0.5886
 6434TIP3    H119266   2.483   3.681   0.650 -0.0926 -1.1337  0.3961
 6434TIP3    H219267   2.389   3.771   0.574 -1.8326 -2.1420  1.2894
 6435TIP3   OH219268   4.900   4.819   4.140  0.0578 -0.6795 -0.1584
 6435TIP3    H119269   4.826   4.768   4.173  0.4769 -1.8324 -0.9218
 6435TIP3    H219270   4.897   4.808   4.045 -0.6340  1.8825 -0.5207
 6436TIP3   OH219271   0.384   2.943   1.297 -0.1538  0.4138 -0.6476
 6436TIP3    H119272   0.392   2.984   1.383  0.7682 -0.0745 -0.4863
 6436TIP3    H219273   0.291   2.924   1.288 -1.0242  4.3485 -1.6164
 6437TIP3   OH219274   5.714   4.934   4.758  0.3478  0.5647 -0.4153
 6437TIP3    H119275   5.729   4.845   4.724  0.0949  0.3884 -0.0688
 6437TIP3    H219276   5.619   4.944   4.756  0.2348  0.1362  1.2673
 6438TIP3   OH219277   6.749   2.458   1.237 -0.0015 -0.2125 -0.2957
 6438TIP3    H119278   6.809   2.532   1.235 -0.7533  0.4493  0.7436
 6438TIP3    H219279   6.681   2.480   1.174 -0.5650  0.2964  0.4764
 6439TIP3   OH219280   0.498   5.832   0.741 -0.1370 -0.1239  0.3674
 6439TIP3    H119281   0.485   5.923   0.713  1.0444  0.2351  0.8968
 6439TIP3    H219282   0.410   5.798   0.754 -0.7722 -0.2707 -3.4297
 6440TIP3   OH219283   4.489   6.459   3.232  0.5519 -0.3446  0.2048
 6440TIP3    H119284   4.441   6.477   3.151  0.1323 -0.6754  0.3786
 6440TIP3    H219285   4.513   6.367   3.225  0.9568 -0.2399  0.2272
 6441TIP3   OH219286   4.487   5.186   1.361 -0.2883  0.0952 -0.0860
 6441TIP3    H119287   4.454   5.259   1.309  0.3200  0.7114  0.3768
 6441TIP3    H219288   4.444   5.109   1.324 -2.2154  0.8491  0.4706
 6442TIP3   OH219289   7.138   3.082   3.433  0.1915 -0.0803  0.2332
 6442TIP3    H119290   7.160   3.036   3.514 -0.1592 -0.9030 -0.1322
 6442TIP3    H219291   7.078   3.023   3.387 -1.8376  1.5422  0.6368
 6443TIP3   OH219292   1.595   2.618   4.385  0.2770  0.5197 -0.4221
 6443TIP3    H119293   1.640   2.534   4.374 -0.6391 -0.0579  0.1674
 6443TIP3    H219294   1.502   2.597   4.371  0.1089  1.5617 -0.9269
 6444TIP3   OH219295   0.603   2.551   1.139  0.3018  0.0932 -0.3402
 6444TIP3    H119296   0.658   2.584   1.211  0.5590 -1.6023  0.2768
 6444TIP3    H219297   0.597   2.457   1.155 -3.0895  0.2207 -0.1587
 6445TIP3   OH219298   3.400   5.711   0.674  0.0368 -0.2508  0.4027
 6445TIP3    H119299   3.450   5.732   0.753  0.8650  1.2252 -0.4635
 6445TIP3    H219300   3.396   5.793   0.626 -1.5554 -0.8196 -0.5053
 6446TIP3   OH219301   0.361   1.607   4.548 -0.5378  0.0904  0.5147
 6446TIP3    H119302   0.385   1.637   4.636 -1.2030 -0.9189  1.0623
 6446TIP3    H219303   0.352   1.687   4.497  1.2802  0.6242  0.9738
 6447TIP3   OH219304   0.709   3.715   5.508 -0.4109  0.1176 -0.2159
 6447TIP3    H119305   0.757   3.751   5.434 -0.3885  1.7443  0.5595
 6447TIP3    H219306   0.775   3.700   5.576 -0.5210 -0.7999 -0.2881
 6448TIP3   OH219307   0.522   5.164   3.164 -0.6260  0.1260  0.1942
 6448TIP3    H119308   0.569   5.243   3.192  0.7724 -0.5546 -0.1777
 6448TIP3    H219309   0.511   5.113   3.244 -0.7943  0.3090  0.2897
 6449TIP3   OH219310   2.520   4.496   1.405  0.4756  0.2815  0.1031
 6449TIP3    H119311   2.492   4.586   1.420 -1.4167 -0.1911 -0.2565
 6449TIP3    H219312   2.439   4.445   1.410  1.2526 -1.1863 -1.2700
 6450TIP3   OH219313   6.859   3.700   4.014  0.2313  0.5101 -0.0407
 6450TIP3    H119314   6.910   3.659   3.944 -0.3407  1.2106 -0.8818
 6450TIP3    H219315   6.783   3.738   3.970 -2.1553 -2.1961  1.4075
 6451TIP3   OH219316   6.970   4.272   5.845 -0.5200  0.0618  0.2797
 6451TIP3    H119317   6.908   4.225   5.901 -1.0740  2.2015  1.5810
 6451TIP3    H219318   7.056   4.246   5.876 -0.7677 -1.1310  0.0222
 6452TIP3   OH219319   4.066   0.192   1.955  0.4558  0.6561  0.0477
 6452TIP3    H119320   4.130   0.164   2.021 -1.1839  0.0840  1.4785
 6452TIP3    H219321   4.010   0.115   1.941  0.1487  1.0926 -1.2627
 6453TIP3   OH219322   0.743   0.628   4.430 -0.7409 -0.3944  0.4095
 6453TIP3    H119323   0.736   0.550   4.375  0.4717  0.3142 -0.8295
 6453TIP3    H219324   0.783   0.694   4.373 -2.4173  1.3884  1.1673
 6454TIP3   OH219325   1.873   4.657   5.182 -0.4169 -0.1443 -0.1019
 6454TIP3    H119326   1.876   4.751   5.198  0.6101 -0.0378 -0.8636
 6454TIP3    H219327   1.795   4.644   5.129 -0.3808  0.3186 -0.2711
 6455TIP3   OH219328   3.589   2.407   1.613 -0.0807  0.3521 -0.4958
 6455TIP3    H119329   3.559   2.325   1.651 -1.4026 -0.0254 -2.2653
 6455TIP3    H219330   3.597   2.390   1.520 -0.6097  2.2863 -0.9456
 6456TIP3   OH219331   3.896   1.005   1.273  0.0260 -0.4344  0.2207
 6456TIP3    H119332   3.862   1.076   1.218  1.2375  0.5173  0.6450
 6456TIP3    H219333   3.923   1.048   1.354 -2.0860 -1.8619  1.7820
 6457TIP3   OH219334   3.943   5.749   3.675 -0.5045  0.0674  0.1102
 6457TIP3    H119335   3.939   5.657   3.648 -2.4684 -0.3108  1.5198
 6457TIP3    H219336   3.999   5.749   3.752  1.7849  0.5418 -1.4564
 6458TIP3   OH219337   2.123   1.581   5.290 -0.2717  0.5633  0.3493
 6458TIP3    H119338   2.106   1.590   5.196  0.4963  0.5290  0.1982
 6458TIP3    H219339   2.103   1.489   5.309 -0.4709  0.5811  0.2261
 6459TIP3   OH219340   0.583   6.594   2.864 -0.0052 -0.7526 -0.3166
 6459TIP3    H119341   0.540   6.678   2.849  0.3321 -0.6492 -0.7170
 6459TIP3    H219342   0.676   6.615   2.865  0.0302 -0.6720  2.3725
 6460TIP3   OH219343   4.279   1.898   4.012 -0.2155 -0.7669 -0.4073
 6460TIP3    H119344   4.359   1.920   3.965  0.6663 -1.4897  0.7028
 6460TIP3    H219345   4.309   1.872   4.099 -1.5529 -2.2488 -0.3454
 6461TIP3   OH219346   5.337   3.041   0.655  0.0114 -0.1104  0.0253
 6461TIP3    H119347   5.426   3.011   0.638 -0.4415 -0.3360 -2.2357
 6461TIP3    H219348   5.294   2.967   0.698  1.0824  0.2909  1.8983
 6462TIP3   OH219349   2.021   6.324   4.061 -0.0602  0.3417  0.4892
 6462TIP3    H119350   1.964   6.391   4.099 -1.2963  0.5541 -1.5737
 6462TIP3    H219351   1.979   6.241   4.086  0.6161  0.3496  1.7454
 6463TIP3   OH219352   4.832   1.200   0.339 -0.3478 -0.2432  0.4516
 6463TIP3    H119353   4.787   1.275   0.299  0.2493  0.1751  0.5512
 6463TIP3    H219354   4.765   1.132   0.346 -0.8263  0.1909  0.1071
 6464TIP3   OH219355   3.736   3.284   1.273 -0.4258  0.1555  0.4807
 6464TIP3    H119356   3.797   3.305   1.344 -1.9182 -0.1611  1.9063
 6464TIP3    H219357   3.678   3.360   1.267 -2.1944 -1.0064  1.7219
 6465TIP3   OH219358   6.754   3.303   1.040  0.9824 -0.2803 -0.2413
 6465TIP3    H119359   6.680   3.345   1.085  1.2752  0.2905 -0.2791
 6465TIP3    H219360   6.760   3.349   0.957  0.2818 -1.5019 -1.0013
 6466TIP3   OH219361   2.251   5.612   2.735  0.3805  0.0139  0.1354
 6466TIP3    H119362   2.277   5.540   2.678  0.1375 -0.1602  0.2435
 6466TIP3    H219363   2.261   5.691   2.681 -2.1514 -0.3340 -0.9999
 6467TIP3   OH219364   3.421   6.394   2.812  0.1203 -0.3286  0.5427
 6467TIP3    H119365   3.498   6.428   2.857  0.5141 -0.7310  0.1918
 6467TIP3    H219366   3.411   6.305   2.846  0.8427 -0.8954 -0.6323
 6468TIP3   OH219367   3.116   2.368   5.621 -0.5862  0.2741 -0.0056
 6468TIP3    H119368   3.137   2.277   5.643 -1.2630 -0.0117 -0.4882
 6468TIP3    H219369   3.106   2.368   5.526  1.5463  1.3329 -0.2904
 6469TIP3   OH219370   4.815   3.382   2.370  0.1486 -0.0297 -0.2640
 6469TIP3    H119371   4.741   3.321   2.368 -0.8795  1.0753  1.2292
 6469TIP3    H219372   4.829   3.407   2.279 -1.0981 -0.5377 -0.6158
 6470TIP3   OH219373   1.647   0.063   4.525  1.0163 -0.1074  0.1914
 6470TIP3    H119374   1.667   0.042   4.434 -2.1140  0.7339 -0.8353
 6470TIP3    H219375   1.711   0.130   4.549  2.5257 -1.0492 -1.0050
 6471TIP3   OH219376   2.591   3.462   4.068  0.0592  0.0664  0.3650
 6471TIP3    H119377   2.686   3.473   4.060  0.0048 -0.3247 -1.0824
 6471TIP3    H219378   2.569   3.507   4.149  1.5082 -0.0085  0.8325
 6472TIP3   OH219379   6.343   4.577   4.516  0.0321 -0.0235 -0.2938
 6472TIP3    H119380   6.323   4.655   4.567  1.4423  0.0383  0.2135
 6472TIP3    H219381   6.439   4.573   4.514 -0.0021 -1.4881 -0.6966
 6473TIP3   OH219382   6.155   2.437   4.210 -0.4768  0.2934  0.5461
 6473TIP3    H119383   6.237   2.466   4.251  0.3874  0.6549 -1.3052
 6473TIP3    H219384   6.181   2.409   4.122 -2.3242  0.2912 -0.0461
 6474TIP3   OH219385   5.826   5.357   3.543 -0.4894  0.0650  0.0889
 6474TIP3    H119386   5.870   5.382   3.624 -0.3760 -0.6093  0.2382
 6474TIP3    H219387   5.798   5.267   3.557 -1.3259  0.2534 -0.2587
 6475TIP3   OH219388   1.655   6.755   4.679 -0.2458 -0.4061  0.2288
 6475TIP3    H119389   1.629   6.840   4.644 -0.6132 -0.8077 -0.4992
 6475TIP3    H219390   1.668   6.770   4.773 -1.3571  0.2208  0.2985
 6476TIP3   OH219391   2.307   1.560   1.798  0.6560 -0.0295 -0.3953
 6476TIP3    H119392   2.392   1.531   1.831  0.5568  0.4075  0.2682
 6476TIP3    H219393   2.259   1.588   1.876  0.0843  0.1912 -0.8155
 6477TIP3   OH219394   1.995   2.935   0.364 -0.0060  0.1528  0.3901
 6477TIP3    H119395   1.999   2.847   0.402  0.7560 -0.2087 -0.4501
 6477TIP3    H219396   1.948   2.922   0.281 -2.9221  1.1744  1.7810
 6478TIP3   OH219397   6.044   2.176   3.908  0.5290  0.6752  0.2977
 6478TIP3    H119398   6.118   2.237   3.903  0.1916  1.0390 -0.3543
 6478TIP3    H219399   5.966   2.232   3.904  0.2006  0.3501  1.6319
 6479TIP3   OH219400   6.452   3.095   1.002 -0.1369  0.2959 -0.3678
 6479TIP3    H119401   6.435   3.075   1.094 -0.8485 -1.5407 -0.8639
 6479TIP3    H219402   6.483   3.013   0.964  0.5131  1.1190 -1.7045
 6480TIP3   OH219403   4.725   3.554   3.044 -0.9826 -0.1361  0.1078
 6480TIP3    H119404   4.640   3.521   3.072 -0.9062 -1.4839 -1.0949
 6480TIP3    H219405   4.771   3.476   3.011  0.1323  0.8037 -0.6481
 6481TIP3   OH219406   0.287   0.642   3.145  0.6196  0.0345 -0.2783
 6481TIP3    H119407   0.320   0.646   3.055 -0.0703  0.4490 -0.5226
 6481TIP3    H219408   0.194   0.622   3.135 -0.0052  2.3954  0.2116
 6482TIP3   OH219409   0.218   5.713   3.787 -0.0998 -0.0421  0.0362
 6482TIP3    H119410   0.190   5.796   3.826  1.0718  1.0205 -1.2231
 6482TIP3    H219411   0.248   5.738   3.699  0.9374 -1.6921 -0.1253
 6483TIP3   OH219412   2.328   0.977   3.303  0.1275 -0.0200  0.5153
 6483TIP3    H119413   2.369   0.902   3.347 -1.3078 -0.6205  0.8906
 6483TIP3    H219414   2.382   1.052   3.329  0.6532 -0.6973  1.4565
 6484TIP3   OH219415   0.252   4.982   4.948  0.1368 -0.6265 -0.3148
 6484TIP3    H119416   0.299   4.903   4.972  2.5298 -0.5459 -3.9572
 6484TIP3    H219417   0.186   4.953   4.885 -1.5329 -0.0917  1.1052
 6485TIP3   OH219418   2.936   5.753   2.115  0.1252 -0.2460 -0.3948
 6485TIP3    H119419   2.890   5.794   2.042 -0.1334 -1.3023 -0.8506
 6485TIP3    H219420   2.962   5.826   2.171 -2.6526  0.3614  0.2364
 6486TIP3   OH219421   4.098   4.893   3.523 -0.0175  0.3223 -0.9704
 6486TIP3    H119422   4.155   4.831   3.569  2.3115  2.1908 -1.1118
 6486TIP3    H219423   4.042   4.838   3.469  0.6981 -1.7151  0.2423
 6487TIP3   OH219424   3.051   5.518   1.072  0.0253  0.3505  0.2470
 6487TIP3    H119425   2.960   5.537   1.094 -0.1644 -1.1665  0.8776
 6487TIP3    H219426   3.077   5.590   1.014 -1.4514  0.9954  0.3373
 6488TIP3   OH219427   1.348   6.717   1.157  0.1180  0.4528 -0.3250
 6488TIP3    H119428   1.427   6.710   1.210 -0.1940  0.4413  0.1430
 6488TIP3    H219429   1.277   6.690   1.216 -0.1988  0.1639 -0.8298
 6489TIP3   OH219430   3.866   3.665   4.045  0.2951 -0.0051 -0.0758
 6489TIP3    H119431   3.888   3.595   4.106 -0.9217 -1.5738 -1.3367
 6489TIP3    H219432   3.896   3.632   3.960 -1.8142  0.2173 -0.9615
 6490TIP3   OH219433   4.649   3.789   2.774  0.3679 -0.0511 -0.1003
 6490TIP3    H119434   4.574   3.848   2.771  0.7787  0.5383  0.8342
 6490TIP3    H219435   4.695   3.812   2.855  2.4050  0.6747 -1.3751
 6491TIP3   OH219436   1.684   6.410   3.854 -0.5380 -0.4791  0.2860
 6491TIP3    H119437   1.745   6.422   3.782 -1.2880 -1.3021 -0.5030
 6491TIP3    H219438   1.734   6.437   3.932 -0.6346  3.2022 -0.7848
 6492TIP3   OH219439   6.731   1.149   2.206  0.2300 -0.0759  0.2911
 6492TIP3    H119440   6.749   1.156   2.300 -1.2022 -0.0180  0.5748
 6492TIP3    H219441   6.816   1.167   2.164  1.3280 -1.8862  1.5978
 6493TIP3   OH219442   3.787   3.393   2.926  0.0272  1.0379 -0.4279
 6493TIP3    H119443   3.710   3.337   2.913 -0.0025  0.9240  0.2392
 6493TIP3    H219444   3.861   3.333   2.919  0.0573  1.1292 -0.9575
 6494TIP3   OH219445   1.482   0.536   0.532 -0.2024 -0.2630 -0.4859
 6494TIP3    H119446   1.577   0.530   0.517  0.1575  0.2458  1.4067
 6494TIP3    H219447   1.461   0.461   0.587 -0.5425  0.6905  0.7111
 6495TIP3   OH219448   0.731   3.537   4.066 -0.6105  0.0523  0.3033
 6495TIP3    H119449   0.650   3.516   4.113 -0.2932  1.4661  1.5624
 6495TIP3    H219450   0.763   3.452   4.035 -2.3483 -0.5844  0.1231
 6496TIP3   OH219451   2.366   6.730   2.526 -0.1961  0.5386 -0.6353
 6496TIP3    H119452   2.452   6.772   2.534  0.3863 -0.5887 -0.7747
 6496TIP3    H219453   2.308   6.799   2.495  0.8457  1.1157 -1.3376
 6497TIP3   OH219454   5.905   2.934   5.246  0.2381  0.6594 -0.2141
 6497TIP3    H119455   5.857   3.000   5.196 -1.7271 -0.5778 -0.1078
 6497TIP3    H219456   5.940   2.874   5.179  0.8396  1.0426 -0.2487
 6498TIP3   OH219457   0.463   3.058   5.878  0.7247 -0.6225  0.3556
 6498TIP3    H119458   0.470   2.963   5.884  1.7558 -0.5081  1.2070
 6498TIP3    H219459   0.549   3.087   5.849  0.7451  0.1234  1.1142
 6499TIP3   OH219460   5.226   5.480   3.472  0.0554 -0.1167 -0.0531
 6499TIP3    H119461   5.222   5.403   3.414  1.0392 -1.1410  1.1658
 6499TIP3    H219462   5.170   5.457   3.546 -0.9180  1.0397 -0.3992
 6500TIP3   OH219463   6.114   0.236   4.027  0.2758 -0.2824  0.3986
 6500TIP3    H119464   6.139   0.291   3.953  0.9220 -1.6838 -0.4632
 6500TIP3    H219465   6.182   0.251   4.093  1.5733 -1.4811 -0.6002
 6501TIP3   OH219466   5.290   0.960   1.268 -0.2499  0.4998 -0.4311
 6501TIP3    H119467   5.355   0.971   1.337 -0.9992  0.2475  0.3343
 6501TIP3    H219468   5.320   1.018   1.197  0.3289  1.0601  0.2545
 6502TIP3   OH219469   6.235   5.285   2.584 -0.3604  0.3494  0.2302
 6502TIP3    H119470   6.235   5.252   2.673 -1.1999  0.4764  0.2802
 6502TIP3    H219471   6.228   5.206   2.529 -0.1941  0.2971  0.2834
 6503TIP3   OH219472   2.225   6.210   2.681  0.0283  0.0695  0.0879
 6503TIP3    H119473   2.180   6.245   2.605 -0.5661 -1.2489 -0.1925
 6503TIP3    H219474   2.283   6.281   2.709  0.7415  0.3766 -1.9649
 6504TIP3   OH219475   5.711   6.789   4.681  0.3261 -0.0614  0.1643
 6504TIP3    H119476   5.687   6.706   4.642  0.6118  0.0654 -0.2816
 6504TIP3    H219477   5.644   6.850   4.651  1.1050  0.2638 -0.9752
 6505TIP3   OH219478   1.339   5.276   0.396  0.1631 -0.1602 -0.0499
 6505TIP3    H119479   1.434   5.286   0.392  0.1429  0.5969  0.9990
 6505TIP3    H219480   1.314   5.253   0.306  1.4995 -1.9777 -0.0244
 6506TIP3   OH219481   3.994   6.595   5.531  0.6842 -0.5815 -0.4175
 6506TIP3    H119482   3.917   6.540   5.546  0.8701 -1.0926 -1.2316
 6506TIP3    H219483   4.062   6.555   5.585  0.9125 -1.3864 -1.2783
 6507TIP3   OH219484   0.527   4.774   1.992 -0.1181  0.8978 -1.0031
 6507TIP3    H119485   0.491   4.689   1.967 -1.1747  1.1544 -0.3990
 6507TIP3    H219486   0.529   4.773   2.087 -0.8251  1.8117 -0.9626
 6508TIP3   OH219487   6.802   1.185   5.429 -0.7548 -0.9773 -0.3230
 6508TIP3    H119488   6.824   1.095   5.405  2.3732  0.4882 -4.0890
 6508TIP3    H219489   6.722   1.204   5.380 -1.1074 -1.5006  0.0369
 6509TIP3   OH219490   4.460   0.551   4.159  0.1703 -0.4368 -0.0675
 6509TIP3    H119491   4.496   0.589   4.078  0.5761 -0.4368  0.1144
 6509TIP3    H219492   4.483   0.614   4.227  1.6079 -1.4041  0.3877
 6510TIP3   OH219493   3.912   6.430   2.693 -0.2517 -0.1733 -0.2253
 6510TIP3    H119494   3.939   6.411   2.603  0.1105  0.5255 -0.2694
 6510TIP3    H219495   3.958   6.511   2.715 -1.3770  0.3804  0.1296
 6511TIP3   OH219496   4.307   0.938   3.915  0.4238 -0.0363  0.3809
 6511TIP3    H119497   4.264   1.020   3.894  2.7003  1.3446  0.6728
 6511TIP3    H219498   4.381   0.933   3.854  1.2476 -1.0377  1.4032
 6512TIP3   OH219499   4.136   3.015   2.646 -0.0028  0.2776  0.1803
 6512TIP3    H119500   4.101   2.929   2.669  0.1675  0.7324  2.2920
 6512TIP3    H219501   4.061   3.063   2.611  0.3497 -1.3897 -3.3430
 6513TIP3   OH219502   7.060   6.310   3.534 -0.3859  0.1708  0.0462
 6513TIP3    H119503   7.096   6.387   3.579 -2.1805  0.3584  1.3109
 6513TIP3    H219504   7.133   6.274   3.485  2.1087 -0.6289  3.9077
 6514TIP3   OH219505   7.160   1.419   5.136 -0.1828 -0.5641 -0.0075
 6514TIP3    H119506   7.160   1.501   5.086 -1.7440 -1.1516 -1.0438
 6514TIP3    H219507   7.222   1.434   5.207 -0.4023  1.4965 -0.2044
 6515TIP3   OH219508   0.249   0.697   0.880  0.5975 -0.1220  0.0562
 6515TIP3    H119509   0.161   0.666   0.900  0.5294 -0.1465 -0.2791
 6515TIP3    H219510   0.236   0.767   0.815  0.8460 -0.3487 -0.2411
 6516TIP3   OH219511   7.103   5.106   5.040 -0.3293 -1.0039  0.4027
 6516TIP3    H119512   7.030   5.083   4.983  1.3085 -0.0036 -2.2566
 6516TIP3    H219513   7.165   5.034   5.030  0.5101 -0.2323 -0.0922
 6517TIP3   OH219514   0.141   5.456   3.732 -0.1187  0.7779 -0.4158
 6517TIP3    H119515   0.165   5.539   3.773  0.9579  0.4865 -0.4326
 6517TIP3    H219516   0.052   5.470   3.700 -0.6733  1.3092  1.2474
 6518TIP3   OH219517   6.077   0.497   1.456 -0.6348  0.3030  0.1033
 6518TIP3    H119518   6.075   0.513   1.550 -0.5921 -0.4848  0.2459
 6518TIP3    H219519   5.995   0.535   1.424 -1.2831 -0.5796  0.6640
 6519TIP3   OH219520   0.171   6.154   2.197 -0.4880 -0.0079  0.4280
 6519TIP3    H119521   0.188   6.063   2.222  2.4887  0.5756  0.9029
 6519TIP3    H219522   0.177   6.203   2.279  1.4375  0.9743 -0.2380
 6520TIP3   OH219523   2.279   5.637   3.322  0.5142 -0.3608  0.1659
 6520TIP3    H119524   2.326   5.604   3.398  2.3284  3.4787  0.9621
 6520TIP3    H219525   2.201   5.679   3.357  0.8895  0.6411 -0.1710
 6521TIP3   OH219526   6.342   3.788   0.984 -0.1574 -0.3066  0.3526
 6521TIP3    H119527   6.384   3.727   0.922  2.5110  1.4642  0.2643
 6521TIP3    H219528   6.323   3.866   0.932 -1.2799 -0.1387  0.9919
 6522TIP3   OH219529   3.021   0.808   5.022 -0.0546  0.6941 -0.5033
 6522TIP3    H119530   2.954   0.861   4.978  0.1131  1.6618  0.3509
 6522TIP3    H219531   2.999   0.718   4.999 -1.1030  1.0489 -0.9868
 6523TIP3   OH219532   4.580   2.407   2.540  0.1202 -0.0453 -0.5577
 6523TIP3    H119533   4.612   2.447   2.621  0.7465  0.6254 -1.1283
 6523TIP3    H219534   4.485   2.404   2.550  0.2594 -1.3648  0.8410
 6524TIP3   OH219535   6.562   3.568   0.152  0.0836 -0.4541  0.0870
 6524TIP3    H119536   6.595   3.658   0.151 -0.1391 -0.3729 -0.4365
 6524TIP3    H219537   6.467   3.577   0.141 -0.1093 -0.6921  1.4554
 6525TIP3   OH219538   2.829   6.407   3.650 -0.1247  0.1702  0.1590
 6525TIP3    H119539   2.790   6.334   3.696  1.3157 -1.6959 -1.4074
 6525TIP3    H219540   2.780   6.414   3.569  0.9801 -0.4257 -0.5954
 6526TIP3   OH219541   5.376   0.890   5.206 -0.1273  0.3190  0.0275
 6526TIP3    H119542   5.460   0.912   5.246 -0.9363  0.7157  1.5978
 6526TIP3    H219543   5.344   0.973   5.170  0.1394  0.1735 -0.5480
 6527TIP3   OH219544   3.805   1.757   2.299  0.0917 -0.4832 -0.6480
 6527TIP3    H119545   3.847   1.682   2.257  0.1489 -1.3397  0.8379
 6527TIP3    H219546   3.714   1.728   2.314 -0.1801  0.1613 -1.0217
 6528TIP3   OH219547   4.418   6.042   5.794 -0.3187 -0.3256  0.1989
 6528TIP3    H119548   4.342   6.094   5.768 -0.9964 -1.1676  0.4329
 6528TIP3    H219549   4.454   6.008   5.712 -0.9208 -0.9067  0.1735
 6529TIP3   OH219550   1.415   4.275   2.331 -0.4866  0.2395  0.3503
 6529TIP3    H119551   1.397   4.227   2.412 -0.3686  1.7156  1.2920
 6529TIP3    H219552   1.507   4.303   2.340 -0.5678  0.6839 -0.1353
 6530TIP3   OH219553   5.691   5.607   0.470 -0.3543 -0.5201  0.7566
 6530TIP3    H119554   5.778   5.646   0.476  0.8574 -2.8315 -0.4387
 6530TIP3    H219555   5.694   5.553   0.391 -2.8015 -0.8927  0.8324
 6531TIP3   OH219556   3.333   4.433   3.174  0.3655  0.6222  0.3314
 6531TIP3    H119557   3.390   4.365   3.137 -0.3342  0.4357 -0.4394
 6531TIP3    H219558   3.288   4.471   3.098 -1.2894  0.0761  0.9907
 6532TIP3   OH219559   3.527   1.387   2.157 -0.7421  0.7009 -0.1546
 6532TIP3    H119560   3.567   1.348   2.235  1.1290 -0.6768 -1.6960
 6532TIP3    H219561   3.439   1.350   2.153  0.1184 -1.4956 -0.1885
 6533TIP3   OH219562   4.364   1.381   1.574 -0.2111  0.3966  0.5305
 6533TIP3    H119563   4.351   1.302   1.522  0.1813  0.8410 -0.2583
 6533TIP3    H219564   4.275   1.409   1.598 -0.3757 -0.0095  0.3949
 6534TIP3   OH219565   5.352   0.394   2.829 -0.8503 -0.5611 -0.5525
 6534TIP3    H119566   5.319   0.324   2.886  0.1021  0.3615  1.1805
 6534TIP3    H219567   5.445   0.375   2.820 -0.5022  0.6679  0.2526
 6535TIP3   OH219568   5.796   2.626   0.923  0.0125 -0.2669 -0.3409
 6535TIP3    H119569   5.856   2.651   0.852  2.0634  0.8346  1.6446
 6535TIP3    H219570   5.795   2.701   0.982 -0.4118 -1.6703  1.5538
 6536TIP3   OH219571   1.267   5.713   0.875  0.6957  0.3660 -0.1081
 6536TIP3    H119572   1.360   5.728   0.859  1.7856 -1.5262  3.3910
 6536TIP3    H219573   1.261   5.701   0.970 -2.8489 -1.4076 -0.3904
 6537TIP3   OH219574   1.567   0.435   1.016  0.4022 -0.3953  0.2083
 6537TIP3    H119575   1.533   0.503   1.075  0.5650  0.6829 -0.8977
 6537TIP3    H219576   1.662   0.439   1.028  0.4749  0.1987 -0.4939
 6538TIP3   OH219577   3.585   0.969   4.003  0.4274  0.1224 -0.1476
 6538TIP3    H119578   3.651   0.899   4.008 -1.0717 -1.2508  1.6067
 6538TIP3    H219579   3.512   0.930   3.955  0.2193  1.0748 -0.6279
 6539TIP3   OH219580   3.021   3.355   1.604  0.0988  0.4543 -0.5208
 6539TIP3    H119581   2.968   3.343   1.526 -0.9938 -3.4521  0.5824
 6539TIP3    H219582   3.105   3.314   1.583 -0.2012 -0.6156  0.3094
 6540TIP3   OH219583   5.195   5.929   0.057  0.2776 -0.2647  0.4928
 6540TIP3    H119584   5.197   5.846   0.105 -1.9243 -0.6108  0.0701
 6540TIP3    H219585   5.127   5.981   0.101  1.7551  1.4513  0.8857
 6541TIP3   OH219586   6.904   4.792   0.441 -0.5622  0.0468  0.4673
 6541TIP3    H119587   6.947   4.723   0.492 -1.2857 -0.8667 -0.1351
 6541TIP3    H219588   6.813   4.790   0.470 -1.3012 -1.3599 -1.6851
 6542TIP3   OH219589   6.929   3.235   4.976  0.2996  0.4019  0.0577
 6542TIP3    H119590   6.878   3.244   5.056  0.8314  0.7656  0.3620
 6542TIP3    H219591   6.914   3.317   4.928 -0.8570 -0.2397 -0.7227
 6543TIP3   OH219592   6.294   0.022   4.391  0.4442  0.8768  0.4762
 6543TIP3    H119593   6.330   0.097   4.438 -1.1660  1.0137  1.5619
 6543TIP3    H219594   6.235   0.060   4.326  1.2894  0.6001 -0.5009
 6544TIP3   OH219595   4.464   4.184   3.211  0.5995 -0.3000  0.5160
 6544TIP3    H119596   4.541   4.231   3.179 -0.5665  0.8737 -0.6600
 6544TIP3    H219597   4.409   4.172   3.133 -1.8258  1.6610  1.7936
 6545TIP3   OH219598   5.221   4.908   5.644 -0.3690  0.2673  0.3402
 6545TIP3    H119599   5.144   4.858   5.617 -0.4285  0.5890 -0.0988
 6545TIP3    H219600   5.187   4.975   5.702 -0.3954  0.3073  0.2781
 6546TIP3   OH219601   6.423   5.125   4.581  0.4993  0.8950 -0.0402
 6546TIP3    H119602   6.355   5.058   4.587  1.1683  0.2612  0.8020
 6546TIP3    H219603   6.475   5.113   4.660  0.7682  2.2844  0.0276
 6547TIP3   OH219604   0.699   6.506   4.298 -0.3459  0.1727  0.0842
 6547TIP3    H119605   0.675   6.575   4.236 -0.9059  1.1410  1.3248
 6547TIP3    H219606   0.768   6.545   4.352  0.7438 -0.9557 -0.4491
 6548TIP3   OH219607   3.669   1.376   4.529 -0.0711 -0.7512 -0.4087
 6548TIP3    H119608   3.642   1.467   4.546  0.9247 -0.5023 -0.0713
 6548TIP3    H219609   3.664   1.334   4.615 -0.2496 -0.9375 -0.5104
 6549TIP3   OH219610   1.357   6.577   2.611  0.1778  0.0561 -0.0613
 6549TIP3    H119611   1.320   6.504   2.659  0.7979  0.8282  1.6532
 6549TIP3    H219612   1.424   6.537   2.555  0.8965 -0.6511  1.2553
 6550TIP3   OH219613   0.983   2.079   5.538  0.2790 -0.1184  0.5124
 6550TIP3    H119614   0.974   2.026   5.617  1.0388 -0.4359  0.3968
 6550TIP3    H219615   1.067   2.052   5.500 -0.3996 -0.4819 -0.7893
 6551TIP3   OH219616   4.443   3.263   5.122  0.3990 -0.2040  0.0625
 6551TIP3    H119617   4.505   3.336   5.118  1.9002 -1.4236  0.1880
 6551TIP3    H219618   4.483   3.195   5.069 -0.9466 -0.9696 -0.0077
 6552TIP3   OH219619   6.542   2.814   2.593  0.6449 -0.0966 -0.3907
 6552TIP3    H119620   6.483   2.747   2.559  0.5997 -0.5686  0.5872
 6552TIP3    H219621   6.496   2.897   2.578  0.5880 -0.2929 -1.3722
 6553TIP3   OH219622   2.976   3.115   0.055 -0.1392  0.8098 -0.0223
 6553TIP3    H119623   2.974   3.069   0.139  0.2260  0.8340  0.0014
 6553TIP3    H219624   2.969   3.045  -0.010  1.1898  0.6289 -0.0051
 6554TIP3   OH219625   0.192   5.289   4.754 -0.0786 -0.6713  0.2743
 6554TIP3    H119626   0.202   5.249   4.668 -0.0262 -0.0983  0.0110
 6554TIP3    H219627   0.276   5.330   4.771  0.2036 -1.4995  0.9801
 6555TIP3   OH219628   5.105   1.840   1.535 -0.0155  0.0138 -0.3273
 6555TIP3    H119629   5.016   1.857   1.503 -0.9348 -0.8224  1.6174
 6555TIP3    H219630   5.150   1.800   1.461 -1.0142  1.1018 -1.5878
 6556TIP3   OH219631   2.861   3.488   4.068  0.0219  0.4448 -0.4252
 6556TIP3    H119632   2.892   3.574   4.097  1.4931 -0.3865  0.6059
 6556TIP3    H219633   2.939   3.432   4.072 -1.1479 -1.2252  0.0545
 6557TIP3   OH219634   5.892   3.487   2.629  0.4288 -0.3785 -0.9479
 6557TIP3    H119635   5.967   3.486   2.688  1.4097  2.3739 -2.0109
 6557TIP3    H219636   5.840   3.562   2.657  0.8641  0.9475 -3.4237
 6558TIP3   OH219637   4.841   0.264   5.411  0.0660 -0.3750  0.1697
 6558TIP3    H119638   4.897   0.329   5.369  0.6685 -0.4512  0.8365
 6558TIP3    H219639   4.765   0.257   5.353  1.1768 -0.9973 -1.2929
 6559TIP3   OH219640   6.304   0.482   0.094  0.1759 -0.5522 -0.0442
 6559TIP3    H119641   6.326   0.565   0.136 -0.2889 -1.9628  3.2557
 6559TIP3    H219642   6.217   0.496   0.057  1.3292  1.2846 -2.3342
 6560TIP3   OH219643   3.818   6.293   5.867  0.5405 -0.3125  0.2081
 6560TIP3    H119644   3.746   6.238   5.896  1.6027 -1.3354  1.0272
 6560TIP3    H219645   3.782   6.344   5.794 -1.0096 -0.7240  0.6478
 6561TIP3   OH219646   4.085   1.359   0.220  0.0685 -0.3740  0.1338
 6561TIP3    H119647   4.167   1.407   0.216  0.4925 -0.8770  2.0798
 6561TIP3    H219648   4.017   1.426   0.208  0.7110  0.2893  0.1866
 6562TIP3   OH219649   2.438   2.851   0.882 -0.1823  0.3925  0.1375
 6562TIP3    H119650   2.498   2.789   0.922  1.7750  2.7682  1.1089
 6562TIP3    H219651   2.425   2.819   0.792  1.2145 -1.0581  0.4280
 6563TIP3   OH219652   6.425   4.735   1.058 -0.0645  0.1455 -0.4795
 6563TIP3    H119653   6.330   4.746   1.062 -0.0642 -0.1997  1.2411
 6563TIP3    H219654   6.459   4.816   1.096  0.3380  0.3391 -1.2518
 6564TIP3   OH219655   7.144   5.994   5.317 -0.0904  0.0736  0.0113
 6564TIP3    H119656   7.217   6.038   5.274 -0.2161  0.7232  0.4433
 6564TIP3    H219657   7.110   5.933   5.252 -0.0484  0.7755 -0.6742
 6565TIP3   OH219658   2.568   6.558   2.627  0.0171 -0.0351  0.3833
 6565TIP3    H119659   2.492   6.602   2.589  0.2100  0.5942  0.6928
 6565TIP3    H219660   2.638   6.624   2.623  0.3027 -0.2958  0.8969
 6566TIP3   OH219661   4.521   0.978   5.768  0.0690 -0.2568 -0.4015
 6566TIP3    H119662   4.433   0.940   5.773 -0.4309  0.8339 -0.6420
 6566TIP3    H219663   4.537   1.010   5.857 -1.0162  2.1715 -1.0109
 6567TIP3   OH219664   0.675   4.845   1.176 -0.6733 -0.3860 -0.5188
 6567TIP3    H119665   0.613   4.782   1.212 -0.6302  0.1810  0.6009
 6567TIP3    H219666   0.637   4.873   1.093 -2.1503  0.2821  0.3506
 6568TIP3   OH219667   0.775   2.304   2.595  1.0597 -0.1677 -0.6841
 6568TIP3    H119668   0.807   2.381   2.642  2.4729 -0.4866 -1.1003
 6568TIP3    H219669   0.825   2.231   2.630 -0.0407 -0.8776 -0.5273
 6569TIP3   OH219670   4.509   5.509   4.733  0.3260 -0.5094  0.5379
 6569TIP3    H119671   4.488   5.531   4.823 -0.2354  0.7568  0.1117
 6569TIP3    H219672   4.604   5.506   4.730  0.3711  0.2785  0.9855
 6570TIP3   OH219673   6.557   6.404   1.449 -0.2622  0.2147  0.0028
 6570TIP3    H119674   6.588   6.368   1.532 -0.6394  1.8301  0.8735
 6570TIP3    H219675   6.467   6.373   1.442 -1.1132  2.1488  1.5176
 6571TIP3   OH219676   0.256   1.781   0.384 -0.0392 -0.2313 -0.3988
 6571TIP3    H119677   0.257   1.782   0.288  0.2803 -0.0886 -0.3950
 6571TIP3    H219678   0.324   1.717   0.408 -0.3942 -0.5671 -0.2710
 6572TIP3   OH219679   5.864   4.445   0.128  0.2926 -0.0288 -0.6406
 6572TIP3    H119680   5.778   4.472   0.160  0.5841  1.4867 -1.0675
 6572TIP3    H219681   5.924   4.464   0.200 -0.0245 -3.8887  0.8928
 6573TIP3   OH219682   7.136   6.109   5.835  0.0022  0.0633  0.1294
 6573TIP3    H119683   7.151   6.172   5.765 -1.0958  0.4076  0.1809
 6573TIP3    H219684   7.185   6.031   5.809 -3.0587 -1.1393 -2.8733
 6574TIP3   OH219685   2.261   4.813   2.146  0.3041  0.2009 -0.3443
 6574TIP3    H119686   2.228   4.740   2.093  1.3753 -0.2665 -0.3932
 6574TIP3    H219687   2.282   4.881   2.082 -1.4568  0.9058 -0.2416
 6575TIP3   OH219688   3.107   4.848   4.045  0.2585 -0.5695 -0.4159
 6575TIP3    H119689   3.141   4.849   3.955 -0.0482  0.3575 -0.5312
 6575TIP3    H219690   3.185   4.859   4.100  0.3189  0.0388 -0.6190
 6576TIP3   OH219691   4.593   3.302   0.648  0.4264 -0.1553  0.3795
 6576TIP3    H119692   4.505   3.334   0.666  0.3582  0.0983 -0.3617
 6576TIP3    H219693   4.634   3.294   0.734  0.1085  0.9543  0.6492
 6577TIP3   OH219694   1.652   5.596   0.112 -0.0496 -0.1427 -0.0378
 6577TIP3    H119695   1.643   5.519   0.168  2.9435  0.3278  1.2630
 6577TIP3    H219696   1.705   5.566   0.038  0.9000  0.5479  0.3380
 6578TIP3   OH219697   2.033   0.328   2.821 -0.0095 -0.0296 -0.0792
 6578TIP3    H119698   2.100   0.356   2.758 -0.6051 -1.9872 -1.7195
 6578TIP3    H219699   2.078   0.264   2.877  0.5897  1.9040  1.7532
 6579TIP3   OH219700   4.226   4.125   1.925 -0.4156  0.2310 -0.1259
 6579TIP3    H119701   4.274   4.101   1.846  2.5367  2.9324  0.6348
 6579TIP3    H219702   4.182   4.207   1.903 -0.3192  0.5223  0.7361
 6580TIP3   OH219703   6.322   1.057   5.439  0.1355  0.6534 -0.0780
 6580TIP3    H119704   6.256   1.017   5.495 -0.9297  0.4347 -1.4181
 6580TIP3    H219705   6.275   1.078   5.358  1.7078  0.4766 -1.0864
 6581TIP3   OH219706   0.002   2.232   0.328 -0.1697  0.5740 -1.0212
 6581TIP3    H119707   0.080   2.188   0.293  0.3952  0.6844  0.0556
 6581TIP3    H219708  -0.033   2.172   0.393 -0.4664  0.9113 -0.8629
 6582TIP3   OH219709   3.266   0.123   5.720 -0.5106  0.1328 -0.0011
 6582TIP3    H119710   3.265   0.206   5.674 -0.9597  0.5299  0.6957
 6582TIP3    H219711   3.358   0.101   5.731 -0.3911 -0.3569 -1.7363
 6583TIP3   OH219712   0.210   1.096   0.935 -0.0429  0.0895 -0.0246
 6583TIP3    H119713   0.248   1.109   1.021 -0.6743  1.4604  0.0910
 6583TIP3    H219714   0.192   1.185   0.904 -2.3290 -0.4351 -0.4000
 6584TIP3   OH219715   5.769   3.251   0.995  0.3361  0.2502  0.2524
 6584TIP3    H119716   5.677   3.226   0.998 -0.0988  1.8711  0.9273
 6584TIP3    H219717   5.793   3.265   1.086  1.3123 -0.2846  0.0965
 6585TIP3   OH219718   1.031   3.778  -0.004 -0.5799  0.2792 -0.2101
 6585TIP3    H119719   1.041   3.819   0.082 -1.1967  1.1428 -0.5385
 6585TIP3    H219720   1.079   3.835  -0.064 -1.1719  0.3541 -0.6216
 6586TIP3   OH219721   6.205   1.149   3.275 -0.0384  0.3841  0.1313
 6586TIP3    H119722   6.113   1.148   3.298  0.2136  0.4879  1.2054
 6586TIP3    H219723   6.250   1.170   3.357  0.9531  0.0941 -0.3222
 6587TIP3   OH219724   5.546   5.853   5.313  0.3601 -0.0909  0.2466
 6587TIP3    H119725   5.474   5.901   5.352  0.7312  0.4905  0.2282
 6587TIP3    H219726   5.563   5.897   5.229  0.3883 -0.5495  0.0075
 6588TIP3   OH219727   2.072   2.338   5.124 -0.0967 -0.4141 -0.5033
 6588TIP3    H119728   1.994   2.283   5.115 -0.2554 -0.9846  2.8438
 6588TIP3    H219729   2.144   2.277   5.135  0.3648  0.0932 -0.6819
 6589TIP3   OH219730   6.850   4.262   3.951 -0.5071 -0.2805 -0.0702
 6589TIP3    H119731   6.775   4.256   4.010 -0.1139  2.1233  0.7673
 6589TIP3    H219732   6.811   4.283   3.865 -0.8447  0.5303  0.2684
 6590TIP3   OH219733   2.675   0.632   5.580 -0.5061  0.2662 -0.0347
 6590TIP3    H119734   2.732   0.611   5.654 -0.6230  0.5035  0.1241
 6590TIP3    H219735   2.678   0.728   5.575 -0.1046  0.2279 -0.6462
 6591TIP3   OH219736   6.137   2.899   4.741  0.0330  0.0147 -0.1661
 6591TIP3    H119737   6.043   2.915   4.732  0.1278  0.7972  0.1238
 6591TIP3    H219738   6.173   2.914   4.654 -0.0999 -0.2048 -0.2582
 6592TIP3   OH219739   3.479   4.360   3.797 -0.4343  0.0290 -0.0455
 6592TIP3    H119740   3.453   4.275   3.833 -1.6010 -0.7914 -2.5814
 6592TIP3    H219741   3.397   4.410   3.794 -0.5346 -0.1619 -1.9613
 6593TIP3   OH219742   7.009   5.539   1.749 -0.0889 -0.3464 -0.0385
 6593TIP3    H119743   6.983   5.451   1.777 -1.3784  0.2779  0.8524
 6593TIP3    H219744   7.060   5.573   1.823 -0.0082 -0.1723 -0.1749
 6594TIP3   OH219745   5.603   2.889   5.359 -0.6705  0.3510 -0.4940
 6594TIP3    H119746   5.537   2.844   5.305 -0.2824 -1.2764  0.3365
 6594TIP3    H219747   5.685   2.878   5.311 -0.1929 -1.7163  0.6903
 6595TIP3   OH219748   4.586   3.450   4.848  0.0763 -0.1911 -0.0546
 6595TIP3    H119749   4.657   3.388   4.867  1.7739  1.8839  0.6783
 6595TIP3    H219750   4.569   3.494   4.931  0.0439  1.4431 -0.8894
 6596TIP3   OH219751   0.037   0.635   2.125 -0.2436 -0.3839  0.4092
 6596TIP3    H119752   0.095   0.631   2.201 -1.1820 -1.1459  1.1282
 6596TIP3    H219753   0.067   0.710   2.075  1.2965 -0.7184  0.7965
 6597TIP3   OH219754   5.560   3.802   2.540 -0.3487 -0.2202  0.4252
 6597TIP3    H119755   5.475   3.769   2.509 -0.4618  0.5489 -0.1223
 6597TIP3    H219756   5.600   3.841   2.462  0.0880  0.2918  0.8996
 6598TIP3   OH219757   6.522   2.510   3.825  0.3909  0.1120 -0.3339
 6598TIP3    H119758   6.511   2.415   3.821 -0.1806  0.2064 -1.7551
 6598TIP3    H219759   6.444   2.544   3.782  1.8163  1.1456 -2.2315
 6599TIP3   OH219760   0.282   6.203   4.808 -0.1120  0.1565  0.3570
 6599TIP3    H119761   0.360   6.230   4.759 -0.9533 -1.1838 -1.8461
 6599TIP3    H219762   0.229   6.283   4.815  0.1576  0.4304 -0.6777
 6600TIP3   OH219763   1.933   0.277   3.536  0.8405 -0.6782 -0.0226
 6600TIP3    H119764   1.849   0.233   3.525  0.6852 -0.4695  0.3156
 6600TIP3    H219765   1.994   0.225   3.484  0.1444  0.2772 -1.8832
 6601TIP3   OH219766   7.078   6.591   0.598  0.2619  0.6912 -0.2362
 6601TIP3    H119767   7.122   6.660   0.648  0.5761  0.0922  0.3240
 6601TIP3    H219768   6.993   6.581   0.640 -0.2803  1.5773 -1.0778
 6602TIP3   OH219769   5.953   3.067   0.982  0.1413 -0.5311  0.3830
 6602TIP3    H119770   5.890   3.139   0.974  0.6284 -0.1816 -0.4100
 6602TIP3    H219771   5.988   3.075   1.071  0.2618  0.2598  0.2638
 6603TIP3   OH219772   4.449   6.755   3.752 -0.5423 -0.2504 -0.1841
 6603TIP3    H119773   4.480   6.674   3.711  1.9536  0.1678  0.6886
 6603TIP3    H219774   4.467   6.823   3.686  2.1548  0.2229  0.9127
 6604TIP3   OH219775   7.178   4.198   2.467 -0.4923  0.4250  0.2590
 6604TIP3    H119776   7.121   4.267   2.433 -0.0337  1.6253  1.7871
 6604TIP3    H219777   7.149   4.185   2.557  1.1330  0.5602  0.8461
 6605TIP3   OH219778   0.977   2.418   3.567 -0.3920 -0.7142  0.3578
 6605TIP3    H119779   1.057   2.461   3.598 -0.2734 -1.7621  1.5948
 6605TIP3    H219780   0.906   2.466   3.610 -0.9547  3.0975 -3.9566
 6606TIP3   OH219781   5.371   5.400   0.539  0.4372 -0.0406 -0.2540
 6606TIP3    H119782   5.300   5.347   0.502  0.5326  0.1170 -0.6761
 6606TIP3    H219783   5.327   5.476   0.577  0.3507 -0.1089 -0.2182
 6607TIP3   OH219784   1.835   5.640   1.034  0.0400 -0.4591 -0.0842
 6607TIP3    H119785   1.892   5.711   1.064 -2.2833  0.9193  1.3575
 6607TIP3    H219786   1.864   5.623   0.944  0.8377  2.1850 -0.4060
 6608TIP3   OH219787   6.092   3.285   3.709 -0.3082  0.8439  0.2388
 6608TIP3    H119788   6.138   3.202   3.701 -2.6212 -0.5276  0.1077
 6608TIP3    H219789   6.145   3.347   3.660  0.0902 -1.2047 -2.1238
 6609TIP3   OH219790   0.894   0.085   3.341 -0.6844 -0.2795 -0.3692
 6609TIP3    H119791   0.843   0.005   3.331  0.2059 -0.9301  0.2039
 6609TIP3    H219792   0.882   0.131   3.258 -2.0177 -0.5189 -0.3267
 6610TIP3   OH219793   5.560   5.187   4.592 -0.4191  0.0426  0.2159
 6610TIP3    H119794   5.469   5.187   4.621 -1.2863  2.0254 -2.1727
 6610TIP3    H219795   5.555   5.162   4.500  1.5390 -0.4117  0.2037
 6611TIP3   OH219796   4.460   2.048   2.004  0.2335 -0.1953 -0.4453
 6611TIP3    H119797   4.399   2.115   1.972  0.5620  0.6038  0.5551
 6611TIP3    H219798   4.419   2.015   2.084 -0.0221 -1.3558 -1.0369
 6612TIP3   OH219799   6.319   5.796   1.536 -0.1036 -0.3268 -0.1678
 6612TIP3    H119800   6.237   5.752   1.514 -0.3467 -0.3087  0.6870
 6612TIP3    H219801   6.342   5.763   1.623  1.0072 -0.6374 -0.5596
 6613TIP3   OH219802   4.978   0.996   1.311 -0.4856 -0.1450 -0.3115
 6613TIP3    H119803   4.972   1.036   1.224 -0.9061 -0.3839 -0.3940
 6613TIP3    H219804   5.071   0.972   1.320  0.3147  2.7814  0.6149
 6614TIP3   OH219805   3.095   0.518   2.185 -0.7416  0.2946  0.3876
 6614TIP3    H119806   3.030   0.572   2.139 -2.5404 -0.7681  1.5568
 6614TIP3    H219807   3.053   0.433   2.195  1.0331 -0.5877  0.8207
 6615TIP3   OH219808   3.363   5.546   0.303 -0.4702 -0.0612 -0.0200
 6615TIP3    H119809   3.307   5.568   0.378  0.2785 -0.9596  0.8268
 6615TIP3    H219810   3.402   5.462   0.326  0.8174  0.2868 -0.8301
 6616TIP3   OH219811   4.898   6.646   4.075  0.8321  0.6232  0.2463
 6616TIP3    H119812   4.848   6.704   4.016  0.1097 -1.6423 -1.5079
 6616TIP3    H219813   4.876   6.677   4.163 -0.4558  2.2576 -0.5861
 6617TIP3   OH219814   3.470   4.093   5.608  0.1411 -0.0311 -0.2930
 6617TIP3    H119815   3.527   4.044   5.668  0.0074  0.4323  0.2246
 6617TIP3    H219816   3.443   4.029   5.543  0.2011 -0.5722  0.2061
 6618TIP3   OH219817   4.639   5.970   4.512 -0.1342 -0.5630 -0.4071
 6618TIP3    H119818   4.554   5.957   4.554  0.0000  0.3512  0.1820
 6618TIP3    H219819   4.701   5.976   4.585 -0.1327  2.9665 -0.5288
 6619TIP3   OH219820   5.358   1.542   2.932  0.9486  0.2246 -0.3657
 6619TIP3    H119821   5.293   1.527   3.000  0.7348 -0.4959 -0.7162
 6619TIP3    H219822   5.437   1.499   2.964  1.2585  1.0758  0.0475
 6620TIP3   OH219823   2.449   6.022   1.223 -0.3177 -0.2439 -0.1041
 6620TIP3    H119824   2.543   6.019   1.242  0.2308  1.3398 -2.2025
 6620TIP3    H219825   2.435   5.948   1.163  0.0341  0.6989 -1.3780
 6621TIP3   OH219826   1.548   1.191   3.803  0.2908 -0.0991  0.1398
 6621TIP3    H119827   1.638   1.160   3.791  1.0321  2.1927 -0.9902
 6621TIP3    H219828   1.531   1.244   3.725 -1.0358  1.7027  1.5515
 6622TIP3   OH219829   1.345   6.448   1.824  0.0382  0.3401 -0.2815
 6622TIP3    H119830   1.271   6.390   1.803  0.1118  0.1871 -0.1202
 6622TIP3    H219831   1.383   6.469   1.739  0.7767 -0.8664 -0.2736
 6623TIP3   OH219832   6.708   0.127   3.376  0.0128  0.3640  0.0994
 6623TIP3    H119833   6.625   0.175   3.377  0.1135  0.7438 -2.5790
 6623TIP3    H219834   6.683   0.036   3.357  0.1709  0.3267  0.0670
 6624TIP3   OH219835   2.288   1.204   2.500  0.3977  0.1776 -0.0765
 6624TIP3    H119836   2.294   1.120   2.547  1.2187  0.4459  0.2997
 6624TIP3    H219837   2.283   1.270   2.569 -0.1230  0.4561 -0.3737
 6625TIP3   OH219838   1.680   6.536   5.209  0.3741  0.2684  0.5967
 6625TIP3    H119839   1.643   6.624   5.205 -1.7397 -0.5216  0.9398
 6625TIP3    H219840   1.702   6.515   5.119  1.3914  1.3195  0.5813
 6626TIP3   OH219841   4.022   6.599   2.299 -0.4934  0.5991 -0.2007
 6626TIP3    H119842   3.976   6.651   2.364 -1.3416  0.4348 -0.6619
 6626TIP3    H219843   4.068   6.664   2.245  0.1224  0.7409  0.4714
 6627TIP3   OH219844   7.121   0.189   5.916 -0.0845  0.2302  0.0267
 6627TIP3    H119845   7.206   0.145   5.908 -0.8089 -1.4644  1.1098
 6627TIP3    H219846   7.089   0.195   5.826  1.5427  1.7023 -0.4956
 6628TIP3   OH219847   6.494   0.788   2.708 -0.2897 -0.2251  0.0832
 6628TIP3    H119848   6.530   0.829   2.629  0.6389 -0.0320  0.6048
 6628TIP3    H219849   6.472   0.861   2.766 -1.3317 -0.3464 -0.1250
 6629TIP3   OH219850   1.972   4.022   0.020 -0.2602 -0.2029 -0.6682
 6629TIP3    H119851   1.965   3.927   0.035 -0.7281 -0.0308  0.2250
 6629TIP3    H219852   1.952   4.062   0.104  2.7545  0.6429 -0.2342
 6630TIP3   OH219853   4.366   0.279   1.247 -0.5315 -0.6315 -0.1490
 6630TIP3    H119854   4.340   0.301   1.337 -0.3556  0.8347 -0.4334
 6630TIP3    H219855   4.456   0.247   1.256 -0.4647 -0.3578  0.1844
 6631TIP3   OH219856   5.496   3.817   1.149 -0.9270 -0.2540 -0.2715
 6631TIP3    H119857   5.437   3.764   1.202 -2.6057  1.0825 -0.7056
 6631TIP3    H219858   5.582   3.804   1.189 -1.8109 -0.7893  1.5867
 6632TIP3   OH219859   4.323   3.877   3.609  0.1197  0.3327  0.2632
 6632TIP3    H119860   4.286   3.801   3.563 -0.6748 -0.1206  1.6112
 6632TIP3    H219861   4.248   3.934   3.625  0.2329  0.0941  1.7270
 6633TIP3   OH219862   0.838   1.162   1.347 -0.3443  0.1972  0.0211
 6633TIP3    H119863   0.811   1.074   1.372  2.0973 -0.3855  0.9157
 6633TIP3    H219864   0.766   1.196   1.294 -1.9235 -1.8111  0.7889
 6634TIP3   OH219865   6.434   5.571   2.196  0.5065 -0.0607  0.1942
 6634TIP3    H119866   6.399   5.549   2.110 -0.9719  1.1019  0.4607
 6634TIP3    H219867   6.356   5.590   2.249  1.2968 -1.7883  2.1097
 6635TIP3   OH219868   6.485   3.547   2.274 -0.0735 -0.3202  0.0659
 6635TIP3    H119869   6.524   3.494   2.204 -2.0877 -0.6836 -0.8571
 6635TIP3    H219870   6.475   3.486   2.347  1.6999 -0.0315  0.5948
 6636TIP3   OH219871   5.637   4.394   3.000  0.1591 -0.0529 -0.0609
 6636TIP3    H119872   5.655   4.381   2.906  0.1077  0.2856 -0.1168
 6636TIP3    H219873   5.724   4.398   3.040  0.1916 -1.5454  0.0996
 6637TIP3   OH219874   5.581   0.704   3.980  0.0569  0.0434  0.0792
 6637TIP3    H119875   5.529   0.782   4.001  1.1252  0.5308  1.0023
 6637TIP3    H219876   5.591   0.707   3.885 -0.7926  0.4539 -0.0064
 6638TIP3   OH219877   6.267   6.756   0.997  0.5565 -0.0429 -0.1446
 6638TIP3    H119878   6.257   6.737   0.904  3.2599  2.0148 -0.9756
 6638TIP3    H219879   6.192   6.811   1.019 -0.0399 -0.4357 -1.1085
 6639TIP3   OH219880   6.834  -0.020   4.040 -0.0774  0.0683  0.0703
 6639TIP3    H119881   6.784   0.047   4.088  1.0531  0.3332  0.9085
 6639TIP3    H219882   6.807  -0.008   3.948  0.1925  1.7821  0.1670
 6640TIP3   OH219883   1.947   5.842   0.522 -0.1634 -0.4406 -1.1483
 6640TIP3    H119884   1.910   5.796   0.446 -1.9597 -0.4588 -0.3371
 6640TIP3    H219885   1.874   5.896   0.554  1.1117  0.9583 -0.5049
 6641TIP3   OH219886   1.292   3.455   0.032  0.1874 -0.1184 -0.0590
 6641TIP3    H119887   1.351   3.416   0.097  0.1078 -0.7062 -0.3355
 6641TIP3    H219888   1.218   3.394   0.026  0.2263 -0.1079 -0.7492
 6642TIP3   OH219889   6.508   3.832   4.858 -0.1798 -0.0017 -0.3427
 6642TIP3    H119890   6.435   3.891   4.837 -0.4110 -0.4048 -0.6952
 6642TIP3    H219891   6.484   3.793   4.942 -1.2144 -1.3999 -1.2198
 6643TIP3   OH219892   4.177   6.669   1.889 -0.2926 -0.0101  0.0746
 6643TIP3    H119893   4.175   6.595   1.829  1.4178  0.4905 -0.6753
 6643TIP3    H219894   4.096   6.717   1.872 -1.1879 -1.4248  0.2368
 6644TIP3   OH219895   6.254   3.125   5.740 -0.0678  0.5342 -0.2496
 6644TIP3    H119896   6.176   3.166   5.703  0.1981  3.5360  2.1164
 6644TIP3    H219897   6.234   3.115   5.833  2.7082  2.6621  0.7273
 6645TIP3   OH219898   4.971   3.209   5.058  0.4657  0.0180 -0.4856
 6645TIP3    H119899   4.936   3.295   5.079 -0.2994  0.0487 -1.7678
 6645TIP3    H219900   4.895   3.159   5.026  0.4562 -1.8135  2.0896
 6646TIP3   OH219901   3.887   4.149   0.862 -0.4089  0.0052 -0.1375
 6646TIP3    H119902   3.816   4.209   0.841 -1.3408 -1.3140 -0.8922
 6646TIP3    H219903   3.847   4.062   0.856  0.6136 -0.6734  1.9867
 6647TIP3   OH219904   5.891   2.946   4.593  0.0537  0.2829  0.6434
 6647TIP3    H119905   5.850   2.860   4.582 -1.0423  0.5067  2.5476
 6647TIP3    H219906   5.836   3.005   4.542  0.8339 -0.1278 -0.7057
 6648TIP3   OH219907   5.205   2.418   4.372 -0.4429  0.1630 -0.1129
 6648TIP3    H119908   5.117   2.422   4.334 -0.0819  1.7020 -0.8626
 6648TIP3    H219909   5.259   2.379   4.303 -0.7867 -2.3309  0.9382
 6649TIP3   OH219910   3.723   6.612   2.085 -0.5801  0.4191  0.1479
 6649TIP3    H119911   3.762   6.686   2.131 -0.7487  0.7373 -0.2202
 6649TIP3    H219912   3.649   6.586   2.141  0.1536 -0.2038  0.8598
 6650TIP3   OH219913   3.295   0.290   3.548 -0.3398  0.1405  0.2999
 6650TIP3    H119914   3.360   0.220   3.552 -0.9394 -0.3672  1.5727
 6650TIP3    H219915   3.343   0.366   3.515  0.8418 -0.2938  0.9668
 6651TIP3   OH219916   1.539   0.657   1.178 -0.0750  0.2808 -0.3593
 6651TIP3    H119917   1.541   0.647   1.273 -0.2478  1.8142 -0.1646
 6651TIP3    H219918   1.520   0.750   1.165  0.7270  0.2517 -1.8967
 6652TIP3   OH219919   7.090   5.137   2.947  0.2984 -0.9900  0.1260
 6652TIP3    H119920   7.068   5.043   2.950  1.8277 -1.3517  1.4214
 6652TIP3    H219921   7.129   5.149   2.861  0.7470 -1.7137  0.2215
 6653TIP3   OH219922   7.108   0.678   4.377  0.1739 -0.1563  0.7365
 6653TIP3    H119923   7.119   0.732   4.299  0.9073  0.6674  1.3958
 6653TIP3    H219924   7.013   0.667   4.385  0.0591  0.3361  0.1297
 6654TIP3   OH219925   4.136   5.586   4.957 -0.4891  0.2439  0.0262
 6654TIP3    H119926   4.110   5.495   4.968  0.4253  0.0631  0.7533
 6654TIP3    H219927   4.080   5.618   4.886 -0.3041 -1.0902 -0.7632
 6655TIP3   OH219928   2.711   3.218   2.652  0.0238 -0.2383  0.6219
 6655TIP3    H119929   2.797   3.201   2.690  0.2567  0.1183  0.2654
 6655TIP3    H219930   2.728   3.237   2.560 -0.6252 -1.9493  0.1125
 6656TIP3   OH219931   4.592   3.642   3.472 -0.1244 -0.3718 -0.0896
 6656TIP3    H119932   4.626   3.571   3.418 -0.7151  0.5476 -1.7756
 6656TIP3    H219933   4.592   3.718   3.413 -1.0999  0.6155  1.1241
 6657TIP3   OH219934   3.884   3.222   1.045  0.0740  0.1272 -0.0202
 6657TIP3    H119935   3.836   3.244   1.125 -0.1065  0.1693 -0.1400
 6657TIP3    H219936   3.837   3.268   0.976 -0.4364 -0.8137 -0.3037
 6658TIP3   OH219937   5.255   5.238   5.735  0.0363  0.4582  0.9460
 6658TIP3    H119938   5.241   5.235   5.641 -0.4630 -1.8794  1.0271
 6658TIP3    H219939   5.350   5.240   5.745  0.1483 -1.0631  0.3629
 6659TIP3   OH219940   0.939   1.887   3.802 -0.4286 -0.4720 -0.2237
 6659TIP3    H119941   0.940   1.980   3.781 -2.2276  0.0327  1.5142
 6659TIP3    H219942   1.030   1.864   3.817 -0.0273  1.2615  0.1910
 6660TIP3   OH219943   2.088   4.179   4.584 -0.7542  0.0064  0.2999
 6660TIP3    H119944   2.153   4.163   4.515 -0.0521 -0.8157  1.1266
 6660TIP3    H219945   2.106   4.268   4.614 -0.6347  0.1275 -0.1220
 6661TIP3   OH219946   6.707   2.501   3.602 -0.3283 -0.2714  0.2949
 6661TIP3    H119947   6.673   2.521   3.689  0.3720  0.2497  0.4554
 6661TIP3    H219948   6.689   2.580   3.550 -2.2094 -1.1630 -0.5014
 6662TIP3   OH219949   4.717   2.371   5.352 -0.1434  0.0537 -0.5976
 6662TIP3    H119950   4.676   2.428   5.417  1.5280  1.8000 -0.9663
 6662TIP3    H219951   4.644   2.335   5.301 -1.3752 -0.0917  1.2068
 6663TIP3   OH219952   4.145   1.146   5.762 -0.0304  0.2105 -0.1804
 6663TIP3    H119953   4.182   1.213   5.704  1.2088  0.9525  1.3711
 6663TIP3    H219954   4.110   1.195   5.837  0.1013 -0.8063  0.5786
 6664TIP3   OH219955   4.923   2.940   1.523 -0.0602 -0.0334  0.0356
 6664TIP3    H119956   5.015   2.919   1.504 -0.3362  0.6930 -2.5452
 6664TIP3    H219957   4.884   2.856   1.547  1.3302 -0.2760  1.6654
 6665TIP3   OH219958   6.936   6.265   1.260  0.0979  0.2926 -0.1306
 6665TIP3    H119959   6.928   6.341   1.318 -0.1538  0.0724  0.1266
 6665TIP3    H219960   7.021   6.227   1.282 -0.4674 -0.4328  0.8894
 6666TIP3   OH219961   3.898   4.061   5.873 -0.0992  0.3210  0.3176
 6666TIP3    H119962   3.990   4.045   5.853 -0.4348  0.7697 -1.8598
 6666TIP3    H219963   3.895   4.153   5.899 -0.1019  0.7014 -0.9812
 6667TIP3   OH219964   2.392   3.590   3.433  0.6249 -0.0388  0.4578
 6667TIP3    H119965   2.360   3.576   3.344  1.1825  1.7956 -0.0737
 6667TIP3    H219966   2.485   3.570   3.429  0.6823  0.1969  0.5729
 6668TIP3   OH219967   0.703   1.773   1.665  0.2492 -0.5175 -0.1183
 6668TIP3    H119968   0.698   1.869   1.671 -0.0417 -0.6294  2.7834
 6668TIP3    H219969   0.671   1.753   1.577  2.1028  2.1314 -1.5504
 6669TIP3   OH219970   6.204   0.255   5.440  0.2061 -0.4390  0.3733
 6669TIP3    H119971   6.169   0.192   5.377  2.6509 -1.7762  0.2235
 6669TIP3    H219972   6.210   0.206   5.522  1.0631 -0.0659  0.5434
 6670TIP3   OH219973   3.020   1.905   3.449 -0.1004 -0.3683  0.0730
 6670TIP3    H119974   2.967   1.833   3.484 -0.3247 -0.8989 -1.3084
 6670TIP3    H219975   3.066   1.868   3.374 -0.5176  1.0046 -0.9083
 6671TIP3   OH219976   3.999   3.794   1.321  0.0147  0.4511  0.3751
 6671TIP3    H119977   3.944   3.732   1.368 -1.1530  1.8018  0.8722
 6671TIP3    H219978   3.946   3.875   1.317  1.2303  1.2354 -0.7548
 6672TIP3   OH219979   5.151   4.933   4.760  0.0191 -0.1189 -0.0826
 6672TIP3    H119980   5.156   4.931   4.856 -0.3906  0.1998 -0.0527
 6672TIP3    H219981   5.059   4.951   4.741 -0.1086 -1.1527 -0.5511
 6673TIP3   OH219982   3.507   6.210   5.554 -0.4245 -0.9047 -0.2257
 6673TIP3    H119983   3.440   6.151   5.588 -0.5377  0.1378  1.4560
 6673TIP3    H219984   3.463   6.295   5.547  0.6795 -0.2055  0.8718
 6674TIP3   OH219985   2.545   3.961   1.349 -0.2654 -0.4267 -0.5100
 6674TIP3    H119986   2.494   3.919   1.418 -3.1732  0.6601 -1.8400
 6674TIP3    H219987   2.605   3.893   1.319  1.2169 -0.9037  3.0225
 6675TIP3   OH219988   1.008   0.736   0.818 -0.3676 -0.0460 -0.2987
 6675TIP3    H119989   1.099   0.729   0.789 -0.0006  1.8557  0.2870
 6675TIP3    H219990   1.002   0.677   0.892  0.3009 -0.4222 -0.5325
 6676TIP3   OH219991   6.381   0.807   5.240 -0.1809  0.7036  0.0410
 6676TIP3    H119992   6.357   0.759   5.162 -1.6521 -0.1083  0.9544
 6676TIP3    H219993   6.355   0.898   5.222 -0.9391  0.4342 -0.2339
 6677TIP3   OH219994   0.520   2.404   5.627  0.5427 -0.1992 -0.4891
 6677TIP3    H119995   0.515   2.326   5.682  0.9828  0.9743  1.2975
 6677TIP3    H219996   0.603   2.396   5.581  0.0074 -1.3660 -1.3077
 6678TIP3   OH219997   6.340   4.947   5.509 -0.6177 -0.1933  0.0838
 6678TIP3    H119998   6.345   4.859   5.471 -0.6573 -0.6681  1.1416
 6678TIP3    H219999   6.254   4.979   5.484 -0.4127 -0.2651 -0.7169
 6679TIP3   OH220000   2.705   3.793   3.299 -0.3324 -0.0128 -0.5683
 6679TIP3    H120001   2.713   3.702   3.270  1.7722  0.0885 -0.4124
 6679TIP3    H220002   2.708   3.788   3.394  0.5759  0.2628 -0.5742
 6680TIP3   OH220003   2.745   5.537   3.146 -0.3386 -0.5151  0.1068
 6680TIP3    H120004   2.711   5.546   3.057 -0.2585 -3.7395 -0.3537
 6680TIP3    H220005   2.673   5.500   3.196  0.4012 -1.1705  0.7276
 6681TIP3   OH220006   4.681   2.501   2.786 -0.0747  0.4072 -0.2019
 6681TIP3    H120007   4.710   2.568   2.848  1.3547  0.1702 -0.5695
 6681TIP3    H220008   4.610   2.456   2.832  0.8392  0.3410  1.2400
 6682TIP3   OH220009   6.900   0.983   3.661 -0.0484 -0.0191  0.3501
 6682TIP3    H120010   6.876   1.072   3.689 -0.3293 -0.2217  0.7708
 6682TIP3    H220011   6.984   0.967   3.703 -0.7166 -0.5244  1.5714
 6683TIP3   OH220012   1.767   2.625   5.171  0.2892 -0.0558 -0.2439
 6683TIP3    H120013   1.757   2.672   5.254 -0.3733 -1.9190  0.7850
 6683TIP3    H220014   1.858   2.641   5.145  1.4009 -1.6138  2.3066
 6684TIP3   OH220015   4.114   0.878   2.858  0.0739  0.0826 -0.5745
 6684TIP3    H120016   4.051   0.885   2.929  0.1925  1.5003 -0.5829
 6684TIP3    H220017   4.062   0.875   2.779 -0.0238 -0.5261 -0.4950
 6685TIP3   OH220018   3.067   5.018   2.087 -0.0754 -0.1368  0.1464
 6685TIP3    H120019   2.997   4.952   2.086 -0.8018  0.5918  0.8208
 6685TIP3    H220020   3.138   4.979   2.037 -1.2647 -0.5826 -1.2607
 6686TIP3   OH220021   0.862   3.050   5.163  0.4178  0.6124 -0.5830
 6686TIP3    H120022   0.817   3.133   5.178 -0.4878  0.0280  0.1465
 6686TIP3    H220023   0.883   3.049   5.070 -0.0854  1.4057 -0.7069
 6687TIP3   OH220024   3.341   4.099   4.983  0.2532 -0.0126 -0.5258
 6687TIP3    H120025   3.275   4.120   5.049 -1.7652 -3.1981 -1.2645
 6687TIP3    H220026   3.425   4.110   5.027 -0.9396 -0.0152  1.8997
 6688TIP3   OH220027   7.102   2.672   1.360 -0.6168  0.4070  0.5918
 6688TIP3    H120028   7.049   2.752   1.362  0.6198  1.2484  1.2625
 6688TIP3    H220029   7.084   2.632   1.275 -0.8855  1.6659  0.0439
 6689TIP3   OH220030   4.255   3.254   0.194  0.1821 -0.2795 -0.5328
 6689TIP3    H120031   4.280   3.172   0.237 -0.7680 -0.3208 -0.0304
 6689TIP3    H220032   4.166   3.237   0.161  0.5267  0.0843 -1.6626
 6690TIP3   OH220033   0.125   1.509   5.694  0.0013 -0.0118 -0.7609
 6690TIP3    H120034   0.109   1.454   5.771  0.6327 -1.6785 -1.7609
 6690TIP3    H220035   0.069   1.472   5.626  1.9507 -0.8124 -2.0391
 6691TIP3   OH220036   5.888   3.034   1.386  0.4660 -0.3547  0.0814
 6691TIP3    H120037   5.940   3.020   1.465  0.4465 -1.3687 -0.0767
 6691TIP3    H220038   5.945   3.006   1.314  0.3883  0.3119 -0.2458
 6692TIP3   OH220039   2.842   3.197   5.154 -0.0626  0.4752 -0.1720
 6692TIP3    H120040   2.785   3.233   5.222  1.9364  0.5768  1.5403
 6692TIP3    H220041   2.866   3.273   5.101 -0.9000  0.5534 -0.4521
 6693TIP3   OH220042   3.776   4.844   2.767  0.6378  0.6429  0.2548
 6693TIP3    H120043   3.715   4.909   2.732  0.7240  0.5995  0.0261
 6693TIP3    H220044   3.833   4.822   2.694  0.3932  0.0611  0.2372
 6694TIP3   OH220045   0.649   6.349   1.756  1.0414 -0.3678 -0.8726
 6694TIP3    H120046   0.652   6.403   1.835  1.4813 -1.8720  0.1824
 6694TIP3    H220047   0.556   6.337   1.738  0.9310  1.1461 -1.4364
 6695TIP3   OH220048   2.211   6.759   2.226  0.4847  0.3048  0.1737
 6695TIP3    H120049   2.191   6.825   2.292 -0.3109 -0.7397  1.0138
 6695TIP3    H220050   2.274   6.801   2.168  1.5510  1.1119  1.8518
 6696TIP3   OH220051   1.148   4.890   3.900 -0.4448 -0.1706  0.3987
 6696TIP3    H120052   1.173   4.969   3.851 -0.5346 -0.5435 -0.2604
 6696TIP3    H220053   1.068   4.915   3.946 -1.1243 -0.2166 -0.7155
 6697TIP3   OH220054   3.385   6.537   4.803 -0.5112 -0.1980  0.5325
 6697TIP3    H120055   3.330   6.614   4.795 -0.6549 -0.1988  1.3610
 6697TIP3    H220056   3.400   6.528   4.898  2.7325  1.1011  0.2705
 6698TIP3   OH220057   3.936   3.260   4.715 -0.0802  0.8223  0.4887
 6698TIP3    H120058   3.937   3.346   4.672  0.5049  1.0661  0.9792
 6698TIP3    H220059   3.859   3.217   4.678  0.0968  1.2302 -0.3967
 6699TIP3   OH220060   0.597   4.231   5.854  0.0198  0.3942  0.1248
 6699TIP3    H120061   0.689   4.256   5.861 -0.1048  1.5041 -1.6599
 6699TIP3    H220062   0.600   4.140   5.826  0.5630  0.3492  0.3071
 6700TIP3   OH220063   1.473   1.988   1.488 -0.3697  0.4679 -0.0796
 6700TIP3    H120064   1.442   2.040   1.561  0.6255  0.4235  0.3969
 6700TIP3    H220065   1.565   2.015   1.477  0.1780 -1.1715  0.1972
 6701TIP3   OH220066   6.907   6.107   2.826  0.2784 -0.3647 -0.5134
 6701TIP3    H120067   6.841   6.044   2.796 -0.4789  1.2250 -2.4923
 6701TIP3    H220068   6.936   6.151   2.745  1.3654  1.2330  0.6806
 6702TIP3   OH220069   1.194   0.576   1.703 -0.3405 -0.0388 -0.2003
 6702TIP3    H120070   1.181   0.482   1.714  1.0469 -0.5828 -2.4444
 6702TIP3    H220071   1.259   0.599   1.769 -1.8965 -0.2442  1.4833
 6703TIP3   OH220072   2.183   5.942   0.729  0.0722 -0.2965  0.0836
 6703TIP3    H120073   2.096   5.901   0.725  0.5499 -1.2611 -1.5465
 6703TIP3    H220074   2.211   5.931   0.820 -1.1817 -0.6765  0.4440
 6704TIP3   OH220075   5.851   3.783   3.761  0.4105  0.2340  0.3259
 6704TIP3    H120076   5.895   3.712   3.808 -0.9699 -0.5396  0.5027
 6704TIP3    H220077   5.760   3.777   3.788 -0.1089  0.8233 -1.1977
 6705TIP3   OH220078   1.282   1.394   0.055 -0.2937  0.2853  0.4540
 6705TIP3    H120079   1.334   1.358   0.126  0.6196 -0.7854 -0.7072
 6705TIP3    H220080   1.319   1.481   0.039 -0.4359  0.4859  1.2005
 6706TIP3   OH220081   2.420   0.936   1.605  0.2063  0.5015  0.2735
 6706TIP3    H120082   2.368   0.859   1.628  0.1163  0.3622 -0.3838
 6706TIP3    H220083   2.358   1.009   1.606  0.1984  0.4913  0.4560
 6707TIP3   OH220084   5.070   0.296   0.537 -0.1085  0.5427 -0.0718
 6707TIP3    H120085   4.988   0.251   0.559 -0.5290  1.6767  0.7757
 6707TIP3    H220086   5.133   0.265   0.602 -0.3270  0.9536  0.3433
 6708TIP3   OH220087   6.184   0.060   2.239 -0.4076 -0.0888 -0.3216
 6708TIP3    H120088   6.192   0.060   2.335  1.3656 -0.0346 -0.4319
 6708TIP3    H220089   6.116   0.124   2.221 -2.3130 -1.6285  0.9738
 6709TIP3   OH220090   2.161   6.316   3.521 -0.3670 -0.3235 -0.5290
 6709TIP3    H120091   2.115   6.374   3.581 -0.5595 -0.3160 -0.6852
 6709TIP3    H220092   2.246   6.359   3.508  0.2386 -1.0181  0.8254
 6710TIP3   OH220093   1.623   1.321   4.020  0.2008  0.1376  0.3286
 6710TIP3    H120094   1.712   1.286   4.023  0.0700 -0.1626  0.9211
 6710TIP3    H220095   1.581   1.273   3.948  0.3930 -0.0273  0.3246
 6711TIP3   OH220096   5.944   1.758   1.930  0.4828 -0.6827 -0.2588
 6711TIP3    H120097   6.027   1.721   1.901  0.7031  0.5410 -1.2669
 6711TIP3    H220098   5.969   1.816   2.003  0.4197 -0.8540 -0.1006
 6712TIP3   OH220099   3.586   2.569   1.063 -0.1136  0.5538  0.3347
 6712TIP3    H120100   3.498   2.547   1.032 -0.2902  1.1081  0.4264
 6712TIP3    H220101   3.636   2.587   0.984  1.1917 -3.9386 -0.1573
 6713TIP3   OH220102   0.557   1.912   0.936 -0.2686 -0.1897 -0.2685
 6713TIP3    H120103   0.566   1.978   0.867  1.6232 -0.2157 -0.1044
 6713TIP3    H220104   0.558   1.962   1.018 -1.1174 -0.2632 -0.2069
 6714TIP3   OH220105   2.066   1.570   2.734  0.2861 -0.3147 -0.2656
 6714TIP3    H120106   2.074   1.615   2.651  2.3224 -1.1311 -0.5742
 6714TIP3    H220107   2.040   1.481   2.711 -0.5452 -0.1794  0.0994
 6715TIP3   OH220108   4.803   2.741   0.477  0.1328 -0.3772  0.3571
 6715TIP3    H120109   4.842   2.731   0.391 -1.8811  2.7773 -1.1123
 6715TIP3    H220110   4.823   2.831   0.502  0.3014 -1.0643  3.0742
 6716TIP3   OH220111   1.872   6.680   2.632  0.4482  0.0319 -0.5486
 6716TIP3    H120112   1.821   6.698   2.711 -1.2687 -2.2433 -1.0336
 6716TIP3    H220113   1.961   6.666   2.665  0.2017  1.1496  0.7012
 6717TIP3   OH220114   0.199   4.628   1.934  0.1208 -0.3522  0.2705
 6717TIP3    H120115   0.148   4.552   1.961  1.4812 -1.7390 -0.8697
 6717TIP3    H220116   0.283   4.592   1.905  1.5265  1.7625  1.4088
 6718TIP3   OH220117   6.727   3.699   1.734  0.2550 -0.0792  0.4945
 6718TIP3    H120118   6.693   3.610   1.749  1.4096 -0.9265 -1.4976
 6718TIP3    H220119   6.759   3.727   1.820 -1.6850 -0.8527  1.5392
 6719TIP3   OH220120   0.382   5.407   3.395  0.2091 -0.0221 -0.2142
 6719TIP3    H120121   0.408   5.435   3.307 -1.5921 -2.8836 -1.8190
 6719TIP3    H220122   0.290   5.431   3.402  0.1675 -0.3904  0.6300
 6720TIP3   OH220123   2.988   2.699   0.941  0.2532  0.4388 -0.0762
 6720TIP3    H120124   3.011   2.669   1.029 -2.5014 -0.6487  0.3879
 6720TIP3    H220125   2.988   2.619   0.888 -0.4649  0.6915 -0.4756
 6721TIP3   OH220126   0.579   2.611   4.985  0.4031 -0.1361  0.1196
 6721TIP3    H120127   0.597   2.675   4.916 -1.5534  0.9837  0.5928
 6721TIP3    H220128   0.499   2.567   4.957  1.4008 -2.0405  0.0854
 6722TIP3   OH220129   3.822   5.021   5.850  0.1539 -0.2680 -0.1451
 6722TIP3    H120130   3.804   5.110   5.820 -0.0337 -0.3463 -0.2674
 6722TIP3    H220131   3.899   5.030   5.906  0.6433 -0.1604 -0.8272
 6723TIP3   OH220132   4.631   1.776   3.528 -0.1545  0.6371 -0.4758
 6723TIP3    H120133   4.705   1.734   3.483  0.1897  0.2122  0.4730
 6723TIP3    H220134   4.666   1.860   3.557 -1.1544  2.1895 -3.3529
 6724TIP3   OH220135   2.896   4.993   2.377 -0.0522  0.3394  0.0625
 6724TIP3    H120136   2.880   4.956   2.464  0.9095 -0.5534 -0.1145
 6724TIP3    H220137   2.991   5.003   2.372  0.0172 -0.6754 -1.2910
 6725TIP3   OH220138   6.251   1.539   4.336 -0.1664 -0.9216 -0.1154
 6725TIP3    H120139   6.180   1.505   4.282  0.4623 -0.2781 -1.4057
 6725TIP3    H220140   6.246   1.634   4.323 -0.2503 -0.7195  1.3034
 6726TIP3   OH220141   1.935   4.388   5.900  0.3986 -0.0403 -0.1655
 6726TIP3    H120142   1.923   4.298   5.871  0.2829  0.3331 -1.3275
 6726TIP3    H220143   1.886   4.441   5.837  2.1200  0.9836 -0.7059
 6727TIP3   OH220144   6.889   3.527   1.327 -0.0871 -0.0186 -0.7554
 6727TIP3    H120145   6.889   3.563   1.416  2.3769 -0.0396 -0.6850
 6727TIP3    H220146   6.932   3.594   1.274  1.7546 -1.4664 -1.2020
 6728TIP3   OH220147   6.181   1.450   1.028  0.0863  0.1641  0.3472
 6728TIP3    H120148   6.246   1.381   1.043  1.5125  0.6963 -2.5455
 6728TIP3    H220149   6.215   1.525   1.077  0.0077 -0.3897  1.2759
 6729TIP3   OH220150   4.222   4.723   3.701 -0.4497  0.4324  0.3196
 6729TIP3    H120151   4.282   4.749   3.770 -0.4928  0.4498  0.3513
 6729TIP3    H220152   4.276   4.676   3.638 -0.4358  0.3003  0.4297
 6730TIP3   OH220153   6.913   4.337   2.313  0.0911 -0.2042  0.4493
 6730TIP3    H120154   6.952   4.258   2.276  1.7813  0.2872  1.0579
 6730TIP3    H220155   6.928   4.404   2.247 -0.3050 -0.1450  0.4188
 6731TIP3   OH220156   2.968   6.472   1.117  0.4609 -0.1560 -0.6031
 6731TIP3    H120157   2.932   6.448   1.032  1.3870 -0.5688 -0.9039
 6731TIP3    H220158   3.046   6.417   1.125  0.4388 -0.0445  0.4703
 6732TIP3   OH220159   2.979   4.401   3.077 -0.3647 -0.0954  0.0109
 6732TIP3    H120160   3.051   4.450   3.116  1.0034 -1.7408 -0.3342
 6732TIP3    H220161   2.909   4.466   3.068  1.4063  1.8773 -0.6506
 6733TIP3   OH220162   5.922   0.268   1.052  0.4170 -0.4142  0.1012
 6733TIP3    H120163   5.957   0.282   1.140 -0.6860  1.2862  0.3157
 6733TIP3    H220164   5.988   0.304   0.993  0.3221  0.1946  0.3565
 6734TIP3   OH220165   1.540   5.316   2.830  0.0211  0.1928  0.3864
 6734TIP3    H120166   1.546   5.407   2.858 -0.7638  0.0433  1.0708
 6734TIP3    H220167   1.514   5.321   2.738  0.3537  0.6590  0.3128
 6735TIP3   OH220168   2.452   0.655   1.981  0.2088  1.0908  0.3226
 6735TIP3    H120169   2.372   0.698   1.954  0.1777  0.1523 -1.1700
 6735TIP3    H220170   2.521   0.719   1.966  0.2273  0.5289 -2.3483
 6736TIP3   OH220171   6.300   3.704   4.356  0.1920 -0.9105 -0.3099
 6736TIP3    H120172   6.278   3.764   4.428 -0.5741 -0.9241 -0.5243
 6736TIP3    H220173   6.390   3.678   4.374 -0.0894 -1.1609  0.8236
 6737TIP3   OH220174   6.388   0.089   1.863  0.1165 -0.4572  1.0410
 6737TIP3    H120175   6.437   0.151   1.809 -0.4672  0.0538  1.0925
 6737TIP3    H220176   6.322   0.142   1.907 -1.3342 -1.3170 -0.0068
 6738TIP3   OH220177   3.015   1.499   4.542 -0.5598 -0.2371 -0.1816
 6738TIP3    H120178   3.024   1.528   4.633 -2.4830 -0.8996  0.2538
 6738TIP3    H220179   2.949   1.556   4.504 -0.3187 -0.4556 -0.9542
 6739TIP3   OH220180   1.831   2.662   3.570 -0.6208 -0.3222  0.4164
 6739TIP3    H120181   1.886   2.585   3.585 -1.6575 -1.2177 -0.2423
 6739TIP3    H220182   1.820   2.701   3.657  1.9566  0.5575  0.4316
 6740TIP3   OH220183   4.289   4.253   4.619 -0.0668 -0.8075 -0.4372
 6740TIP3    H120184   4.219   4.295   4.670  2.0239  0.8413  1.3046
 6740TIP3    H220185   4.314   4.177   4.672  0.3483 -0.6158 -0.3575
 6741TIP3   OH220186   1.960   0.854   2.947  0.5722 -0.7509 -0.4830
 6741TIP3    H120187   1.947   0.944   2.975  2.2547 -0.5237 -0.3549
 6741TIP3    H220188   1.967   0.859   2.851 -1.6128 -1.0777 -0.7161
 6742TIP3   OH220189   5.718   5.194   2.088 -0.0901  0.3397  0.0135
 6742TIP3    H120190   5.658   5.233   2.151  1.1786 -0.7435  2.0288
 6742TIP3    H220191   5.730   5.261   2.021 -3.1861  0.7118 -0.2834
 6743TIP3   OH220192   3.025   6.238   3.801  0.7288 -0.2917 -0.3046
 6743TIP3    H120193   3.034   6.324   3.760  0.4210 -0.0432  0.1331
 6743TIP3    H220194   2.931   6.219   3.796  0.4056  0.4664  1.6659
 6744TIP3   OH220195   1.561   2.115   1.180  0.5951 -0.4479  0.0214
 6744TIP3    H120196   1.479   2.163   1.168 -0.4260 -1.4140  2.4308
 6744TIP3    H220197   1.616   2.176   1.230  0.2927 -0.7775  0.7727
 6745TIP3   OH220198   2.866   6.766   1.022 -0.3185  0.1420  0.4186
 6745TIP3    H120199   2.876   6.856   0.991  1.1177  0.4389  1.6705
 6745TIP3    H220200   2.915   6.714   0.959  1.6269  0.6228  1.4558
 6746TIP3   OH220201   2.817   2.179   0.735  0.0733  0.0099 -0.6617
 6746TIP3    H120202   2.870   2.222   0.668  1.3851  0.2399  0.4638
 6746TIP3    H220203   2.757   2.247   0.766  1.5535  0.8738  0.5022
 6747TIP3   OH220204   2.478   3.091   2.677 -0.3662 -0.2473 -0.2003
 6747TIP3    H120205   2.491   3.005   2.636  0.1579  0.3297 -1.2832
 6747TIP3    H220206   2.566   3.129   2.681 -0.5770  0.1938  0.3863
 6748TIP3   OH220207   7.017   6.408   2.001  0.2114 -0.3750  0.3654
 6748TIP3    H120208   7.071   6.477   2.036  1.1709 -0.4930 -0.8075
 6748TIP3    H220209   7.025   6.336   2.063  0.7926 -0.1233  0.5815
 6749TIP3   OH220210   4.074   0.062   0.327  0.0358  0.2285  0.5406
 6749TIP3    H120211   3.983   0.037   0.340 -0.3654  1.7870  0.8870
 6749TIP3    H220212   4.100   0.104   0.409  1.3851 -1.0517  0.8145
 6750TIP3   OH220213   2.486   6.276   1.384  0.3493 -0.3918  0.0484
 6750TIP3    H120214   2.459   6.197   1.339 -1.7743 -1.6899  3.2925
 6750TIP3    H220215   2.423   6.343   1.356 -0.3489 -0.9202  0.3445
 6751TIP3   OH220216   1.872   6.471   3.660 -0.6045 -0.4538  0.0078
 6751TIP3    H120217   1.933   6.543   3.679 -1.9135  0.3678  1.3320
 6751TIP3    H220218   1.842   6.489   3.571  0.1186 -0.1611 -0.1886
 6752TIP3   OH220219   4.838   4.258   0.596  0.6355  0.5233  0.1640
 6752TIP3    H120220   4.858   4.219   0.510  1.1608 -0.8883  0.8980
 6752TIP3    H220221   4.919   4.251   0.645  0.1964  0.8605  0.9488
 6753TIP3   OH220222   1.955   0.793   0.693  0.7669  0.2624 -0.1995
 6753TIP3    H120223   2.018   0.818   0.760  0.3270 -0.4459  0.4831
 6753TIP3    H220224   2.001   0.727   0.640  1.2498  1.0955 -0.8518
 6754TIP3   OH220225   3.394   2.820   0.509  0.2263 -0.0794 -0.1092
 6754TIP3    H120226   3.344   2.854   0.435  0.0610  0.6244  0.3154
 6754TIP3    H220227   3.483   2.807   0.475  0.3129  0.8624 -0.2620
 6755TIP3   OH220228   0.508   4.638   3.018 -0.3202  0.4479 -0.1818
 6755TIP3    H120229   0.537   4.549   3.040 -1.6360  0.0593  0.0978
 6755TIP3    H220230   0.524   4.645   2.924 -0.5070 -0.2192 -0.2734
 6756TIP3   OH220231   4.001   5.482   3.649  0.3057  0.0478 -0.1339
 6756TIP3    H120232   4.024   5.419   3.581 -2.1657 -1.3871  0.2333
 6756TIP3    H220233   3.943   5.433   3.708 -1.2787  2.4994  0.4912
 6757TIP3   OH220234   4.013   1.556   3.882 -0.1466 -0.6203  0.1696
 6757TIP3    H120235   3.950   1.493   3.917  1.4812 -2.3674  0.0903
 6757TIP3    H220236   4.092   1.543   3.935  0.0824  1.8493  0.5923
 6758TIP3   OH220237   6.700   1.941   2.417 -0.6942 -0.0414 -0.0337
 6758TIP3    H120238   6.714   2.033   2.438  0.6379  0.0296 -1.0765
 6758TIP3    H220239   6.657   1.905   2.494  0.0813  1.1331  0.9955
 6759TIP3   OH220240   3.739   1.282   2.720  0.0634  0.2286 -0.3500
 6759TIP3    H120241   3.814   1.259   2.774  0.9901 -1.5094 -2.2159
 6759TIP3    H220242   3.777   1.308   2.636 -1.3803 -0.7349 -1.3505
 6760TIP3   OH220243   0.648   4.305   4.393 -0.2491 -0.3633  0.0860
 6760TIP3    H120244   0.584   4.355   4.444 -1.4608 -1.3123 -0.4621
 6760TIP3    H220245   0.602   4.281   4.313  1.4076  0.5675 -1.2318
 6761TIP3   OH220246   4.825   1.842   1.140 -0.1847 -0.0322 -0.1106
 6761TIP3    H120247   4.876   1.914   1.176 -0.5671  1.4591 -2.3403
 6761TIP3    H220248   4.749   1.835   1.198 -0.2348  1.5297  0.0515
 6762TIP3   OH220249   1.347   3.016   2.308  0.2102  0.2113 -0.5922
 6762TIP3    H120250   1.262   3.049   2.335 -0.6184 -0.8163 -1.8294
 6762TIP3    H220251   1.402   3.025   2.386 -0.7009  1.9033 -0.0913
 6763TIP3   OH220252   1.253   5.369   2.881  0.3746  0.5590 -0.2279
 6763TIP3    H120253   1.342   5.404   2.878  0.5952  0.3297  1.9442
 6763TIP3    H220254   1.244   5.318   2.800  2.2734  0.4521 -0.4106
 6764TIP3   OH220255   0.293   1.446   1.116 -0.0205 -0.1963  0.7224
 6764TIP3    H120256   0.280   1.354   1.138  0.4979 -0.9128 -1.6559
 6764TIP3    H220257   0.219   1.468   1.060  0.0579  0.7379  0.9686
 6765TIP3   OH220258   4.476   1.000   5.445  0.2882 -0.3371  0.1475
 6765TIP3    H120259   4.403   1.049   5.406  0.3921  1.5958  2.1829
 6765TIP3    H220260   4.434   0.937   5.504  0.1753  1.4447  2.0816
 6766TIP3   OH220261   1.016   3.679   3.834 -0.2605  0.5698  0.2879
 6766TIP3    H120262   1.095   3.723   3.803 -0.9632  1.9024  0.2733
 6766TIP3    H220263   0.951   3.696   3.765 -0.9465  0.7622  0.9598
 6767TIP3   OH220264   4.701   0.872   2.313 -0.4151 -0.6383 -0.1259
 6767TIP3    H120265   4.788   0.837   2.291  0.0504  0.5305 -0.2226
 6767TIP3    H220266   4.705   0.891   2.407 -0.8175 -1.2636  0.0201
 6768TIP3   OH220267   5.392   2.623   2.601  0.1138  0.4708 -0.3951
 6768TIP3    H120268   5.296   2.628   2.596  0.1999  1.3602 -1.4295
 6768TIP3    H220269   5.421   2.624   2.510  1.0538 -1.8980 -0.1921
 6769TIP3   OH220270   5.554   2.831   2.342 -0.3347  0.2039  0.3827
 6769TIP3    H120271   5.495   2.755   2.348  1.5777 -1.2773  1.9995
 6769TIP3    H220272   5.573   2.839   2.249 -0.4636 -1.4503  0.1711
 6770TIP3   OH220273   4.818   1.142   2.562 -0.2363  0.2878  1.0699
 6770TIP3    H120274   4.812   1.200   2.638 -0.3503  1.6583  0.0543
 6770TIP3    H220275   4.796   1.198   2.487  1.6332 -0.5505 -0.1850
 6771TIP3   OH220276   4.987   5.255   4.350 -0.1273  0.0447 -0.0224
 6771TIP3    H120277   5.083   5.249   4.348 -0.1130  0.4374 -0.9286
 6771TIP3    H220278   4.958   5.202   4.276 -0.6684 -0.7802  0.7499
 6772TIP3   OH220279   2.582   0.287   2.349 -0.0383 -0.3206 -0.2264
 6772TIP3    H120280   2.554   0.200   2.320  1.0190 -0.8415  0.2561
 6772TIP3    H220281   2.522   0.347   2.305 -0.6494 -1.2789 -0.7432
 6773TIP3   OH220282   1.348   1.164   4.647 -0.1096  0.0829  0.6331
 6773TIP3    H120283   1.331   1.078   4.609  1.1397  0.1807 -0.2290
 6773TIP3    H220284   1.399   1.146   4.726  0.3864  0.0346  0.3055
 6774TIP3   OH220285   3.854   6.371   5.239 -0.0367 -0.1775 -0.5806
 6774TIP3    H120286   3.854   6.315   5.162 -2.0108  0.1919 -0.9100
 6774TIP3    H220287   3.790   6.331   5.298  1.3778 -0.4036  0.8642
 6775TIP3   OH220288   2.891   3.372   0.116 -0.4710  0.2349 -0.0525
 6775TIP3    H120289   2.895   3.286   0.073  4.2072  0.1240  0.0953
 6775TIP3    H220290   2.845   3.356   0.198 -1.3526 -1.6550 -0.8566
 6776TIP3   OH220291   2.842   1.557   0.510  0.3020 -0.2671  0.3741
 6776TIP3    H120292   2.803   1.576   0.595 -0.2410  1.3358 -0.2045
 6776TIP3    H220293   2.784   1.599   0.447  1.4187 -0.3028 -0.7100
 6777TIP3   OH220294   5.887   4.310   3.693  0.0133 -0.1074  0.4113
 6777TIP3    H120295   5.943   4.381   3.725  0.3581  0.3600 -1.1425
 6777TIP3    H220296   5.799   4.347   3.691  0.4275  0.9065 -1.9978
 6778TIP3   OH220297   6.485   1.117   3.632 -0.4873 -0.2175  0.2340
 6778TIP3    H120298   6.526   1.116   3.719 -2.9928 -2.0232  1.5065
 6778TIP3    H220299   6.553   1.154   3.575  1.6133  0.1554  2.7487
 6779TIP3   OH220300   5.497   6.252   1.786  0.5909 -0.0999  0.7284
 6779TIP3    H120301   5.431   6.192   1.821 -1.7138  0.9355 -1.5201
 6779TIP3    H220302   5.452   6.337   1.781  0.9537  0.0854 -3.5248
 6780TIP3   OH220303   4.228   1.187   2.655 -0.4991 -0.3680 -1.2969
 6780TIP3    H120304   4.173   1.112   2.633  0.0243 -0.6104 -1.8251
 6780TIP3    H220305   4.310   1.148   2.687 -1.0847 -0.0214  0.7742
 6781TIP3   OH220306   0.903   5.948   4.004  0.2928  0.1799 -0.4060
 6781TIP3    H120307   0.886   5.955   4.098  1.6125  0.8845 -0.2014
 6781TIP3    H220308   0.816   5.948   3.964 -0.2702  2.4971  0.6452
 6782TIP3   OH220309   1.026   5.558   2.359 -0.3540  0.6902  0.4276
 6782TIP3    H120310   1.069   5.583   2.440  0.7183  1.7307 -0.4248
 6782TIP3    H220311   1.017   5.641   2.310  0.7883 -0.1729 -1.3339
 6783TIP3   OH220312   4.546   0.464   2.736  0.1878 -0.3803  0.0413
 6783TIP3    H120313   4.632   0.467   2.779 -0.1050  2.5246  0.6813
 6783TIP3    H220314   4.565   0.485   2.645  0.1874  0.3408  0.1979
 6784TIP3   OH220315   4.290   4.813   5.085 -0.2206  0.0947  0.6659
 6784TIP3    H120316   4.328   4.898   5.110 -1.2549  0.4579  1.0359
 6784TIP3    H220317   4.261   4.775   5.168  1.4711 -1.2693  0.6969
 6785TIP3   OH220318   4.817   1.114   1.998 -0.0876  0.0272  0.4015
 6785TIP3    H120319   4.854   1.189   2.045  0.2407  0.3276 -0.3301
 6785TIP3    H220320   4.738   1.092   2.048 -0.1792  0.8454  0.6427
 6786TIP3   OH220321   6.115   5.997   1.124 -0.4963  0.3490  0.6259
 6786TIP3    H120322   6.210   6.013   1.128 -0.5569  0.6268  0.9158
 6786TIP3    H220323   6.087   5.998   1.215 -0.1813 -3.3020  0.9135
 6787TIP3   OH220324   3.584   6.635   4.144  0.3259  0.6611  0.2442
 6787TIP3    H120325   3.567   6.724   4.177 -1.0597  0.1192  1.1096
 6787TIP3    H220326   3.504   6.587   4.166 -0.6671  0.1620 -3.7914
 6788TIP3   OH220327   6.004   0.265   1.312 -0.1121 -0.0149  1.0335
 6788TIP3    H120328   6.034   0.345   1.356 -2.8999  2.3780 -1.0249
 6788TIP3    H220329   5.932   0.233   1.367 -1.3483  1.0301  0.0903
 6789TIP3   OH220330   1.029   3.258   3.629  0.5753  0.4821  0.2831
 6789TIP3    H120331   0.948   3.299   3.599  1.1883  0.3386 -1.6950
 6789TIP3    H220332   1.079   3.243   3.549  2.7585  0.9649  1.4863
 6790TIP3   OH220333   0.272   2.872   2.939 -0.2648  0.0087  1.0019
 6790TIP3    H120334   0.288   2.925   3.017 -1.2727 -0.4138  1.5207
 6790TIP3    H220335   0.261   2.935   2.868 -0.8341  0.4757  1.4910
 6791TIP3   OH220336   6.940   3.830   5.483  0.0156  0.2894  0.2304
 6791TIP3    H120337   6.888   3.751   5.467  0.0552 -0.0093  1.4754
 6791TIP3    H220338   6.965   3.861   5.396 -1.8872  0.2050 -0.3706
 6792TIP3   OH220339   4.180   5.913   2.590 -0.0129 -0.1398 -0.8464
 6792TIP3    H120340   4.198   5.837   2.645 -1.3595  0.8372  1.0896
 6792TIP3    H220341   4.094   5.895   2.551 -0.2607  0.2756 -0.5103
 6793TIP3   OH220342   0.112   6.023   4.934  0.2159 -0.7131 -0.4283
 6793TIP3    H120343   0.173   6.084   4.893  1.2128  0.1091  2.0944
 6793TIP3    H220344   0.123   6.037   5.028 -1.5640 -2.8394  0.1893
 6794TIP3   OH220345   1.962   4.930   2.955 -0.1589  0.0182  0.3259
 6794TIP3    H120346   2.036   4.962   2.904 -0.8646 -1.7688 -2.0142
 6794TIP3    H220347   2.001   4.871   3.020  0.6047  0.7787  0.5775
 6795TIP3   OH220348   2.552   1.989   4.752  0.3628  0.3375 -0.1509
 6795TIP3    H120349   2.467   1.953   4.726  0.3574 -0.0233  0.3669
 6795TIP3    H220350   2.563   1.963   4.843  1.6615 -0.8318 -0.6019
 6796TIP3   OH220351   3.656   5.614   1.527  0.2145 -0.0686 -0.0383
 6796TIP3    H120352   3.657   5.546   1.595  1.1045 -0.0419 -0.0077
 6796TIP3    H220353   3.580   5.667   1.548 -0.1613 -0.7165  0.2819
 6797TIP3   OH220354   5.166   3.533   2.927  0.4135 -0.4521  0.1305
 6797TIP3    H120355   5.221   3.551   2.851 -0.1201 -0.0469 -0.1709
 6797TIP3    H220356   5.182   3.441   2.948  1.1834 -0.3432  0.0373
 6798TIP3   OH220357   0.409   5.339   4.128 -0.3970  0.6332  0.0111
 6798TIP3    H120358   0.404   5.305   4.038 -1.1690 -0.7461  0.5550
 6798TIP3    H220359   0.501   5.359   4.141  0.1235 -1.3838 -0.3133
 6799TIP3   OH220360   3.872   4.482   2.848  0.3509 -0.1826  0.1053
 6799TIP3    H120361   3.937   4.545   2.877  1.3141 -1.4367  0.7740
 6799TIP3    H220362   3.860   4.501   2.755 -1.0411  2.3822  0.7441
 6800TIP3   OH220363   3.806   1.076   5.329 -0.0919  0.1843 -0.5102
 6800TIP3    H120364   3.752   1.155   5.325 -0.3184  0.0251 -0.5995
 6800TIP3    H220365   3.837   1.074   5.420  1.0788  1.1428 -0.8629
 6801TIP3   OH220366   1.698   5.163   4.044  0.0099  0.1200  0.2313
 6801TIP3    H120367   1.780   5.127   4.012  0.2708  1.4958 -0.7505
 6801TIP3    H220368   1.713   5.257   4.049 -1.4944  0.4007  0.0464
 6802TIP3   OH220369   4.662   0.645   1.684  0.4344 -0.2323  0.0804
 6802TIP3    H120370   4.645   0.631   1.591 -0.0057  0.3965  0.0635
 6802TIP3    H220371   4.588   0.699   1.714  0.8217 -0.0357  0.6862
 6803TIP3   OH220372   0.512   5.177   3.547 -0.8028  0.3840  0.2732
 6803TIP3    H120373   0.606   5.194   3.540 -0.4655 -1.3840  0.0816
 6803TIP3    H220374   0.471   5.247   3.497  0.3472  1.6834  1.0622
 6804TIP3   OH220375   5.957   4.247   5.029 -0.1327  0.3497 -0.0087
 6804TIP3    H120376   5.947   4.152   5.020 -1.9147  0.6009 -1.2254
 6804TIP3    H220377   6.052   4.261   5.034  0.1088 -1.6132  2.2683
 6805TIP3   OH220378   4.529   1.358   2.839 -0.2792 -0.0093  0.0843
 6805TIP3    H120379   4.510   1.347   2.746  0.8814  0.8305 -0.2801
 6805TIP3    H220380   4.558   1.272   2.868 -0.1575 -0.1584 -0.4691
 6806TIP3   OH220381   3.016   0.527   1.733 -0.2028 -0.4485 -0.0157
 6806TIP3    H120382   3.089   0.537   1.672 -0.4694 -2.3398 -0.7241
 6806TIP3    H220383   2.950   0.588   1.701 -0.4470 -1.5957 -1.8504
 6807TIP3   OH220384   5.736   5.933   4.727 -0.1918 -0.2456  0.1222
 6807TIP3    H120385   5.716   5.923   4.820  2.7015 -0.8961  0.7718
 6807TIP3    H220386   5.783   5.853   4.704  2.0256  1.2898 -1.0086
 6808TIP3   OH220387   0.917   6.491   0.885 -0.3050 -0.4436 -0.1278
 6808TIP3    H120388   0.943   6.550   0.814  2.1027 -1.0611  0.1635
 6808TIP3    H220389   0.821   6.493   0.884 -0.3809 -0.5200 -3.4666
 6809TIP3   OH220390   5.763   2.871   2.557 -0.5805 -0.4842 -0.0706
 6809TIP3    H120391   5.733   2.867   2.647 -0.3224  0.3282  0.0667
 6809TIP3    H220392   5.686   2.899   2.507 -0.2907  0.8719  0.1768
 6810TIP3   OH220393   2.339   1.694   0.167 -0.0407  0.6603  0.3267
 6810TIP3    H120394   2.254   1.736   0.180  0.7770  2.2919  0.8053
 6810TIP3    H220395   2.384   1.751   0.105  0.7080 -0.1845  0.0755
 6811TIP3   OH220396   0.189   5.357   5.251  0.3933  0.2322 -0.1398
 6811TIP3    H120397   0.193   5.331   5.159 -1.1240  1.1747 -0.5003
 6811TIP3    H220398   0.102   5.393   5.262  0.8606  0.9614  1.4631
 6812TIP3   OH220399   5.252   5.256   4.428 -0.0697  0.0138 -0.0129
 6812TIP3    H120400   5.299   5.339   4.424  2.9002 -1.5016  0.5577
 6812TIP3    H220401   5.258   5.230   4.520  0.5849 -1.6072 -0.4807
 6813TIP3   OH220402   1.271   0.984   0.368 -0.3290  0.5415  0.0858
 6813TIP3    H120403   1.185   1.017   0.341 -0.2101  1.2562  0.5446
 6813TIP3    H220404   1.259   0.955   0.458 -0.0424  0.8327  0.2206
 6814TIP3   OH220405   3.983   5.781   3.988 -0.1335 -0.4616 -0.2913
 6814TIP3    H120406   3.894   5.747   3.991 -0.0681 -0.5676  1.6882
 6814TIP3    H220407   4.034   5.721   4.043  0.8019  0.5295 -0.0326
 6815TIP3   OH220408   3.737   0.849   0.702 -0.1877 -0.5611  0.6579
 6815TIP3    H120409   3.827   0.830   0.729 -0.1464 -0.4785  0.5804
 6815TIP3    H220410   3.744   0.932   0.655 -0.5139  0.1758  1.8786
 6816TIP3   OH220411   4.048   5.009   0.639 -0.3282  0.6685 -0.6140
 6816TIP3    H120412   3.966   4.964   0.660 -0.3557  1.1321  0.3113
 6816TIP3    H220413   4.066   5.063   0.715 -0.0997  1.9579 -1.5481
 6817TIP3   OH220414   5.701   3.358   2.335  0.1711 -0.3793 -0.2961
 6817TIP3    H120415   5.692   3.325   2.425 -0.0567  1.4042  0.3706
 6817TIP3    H220416   5.768   3.302   2.296  1.6217 -0.0591  1.5816
 6818TIP3   OH220417   1.802   2.225   4.649 -0.0703  0.1595  0.2661
 6818TIP3    H120418   1.884   2.241   4.603  0.5616 -2.8474  0.1404
 6818TIP3    H220419   1.742   2.292   4.617  1.3951  0.3973 -2.1671
 6819TIP3   OH220420   6.581   2.895   0.858  0.2862  0.2887  0.0588
 6819TIP3    H120421   6.609   2.957   0.790  1.1414  0.0043  0.1412
 6819TIP3    H220422   6.644   2.823   0.851 -0.5597 -0.4618  0.1221
 6820TIP3   OH220423   1.730   6.050   2.014 -0.5688 -0.2916 -0.0883
 6820TIP3    H120424   1.642   6.085   2.028  0.0390  0.9350  0.8835
 6820TIP3    H220425   1.748   5.999   2.094  0.1744  0.7392  0.4182
 6821TIP3   OH220426   0.694   5.241   0.094  0.4985 -0.2087  0.0268
 6821TIP3    H120427   0.672   5.149   0.080 -2.4542  0.4636 -0.3782
 6821TIP3    H220428   0.711   5.275   0.007  0.3916 -0.1191  0.0405
 6822TIP3   OH220429   5.068   0.412   3.182 -0.2172  0.3547  0.0864
 6822TIP3    H120430   5.028   0.446   3.262 -0.3280  0.1204  0.1319
 6822TIP3    H220431   5.126   0.482   3.152 -1.7212  1.2964 -0.7746
 6823TIP3   OH220432   6.270   6.204   5.441 -0.7008  0.1388 -0.0235
 6823TIP3    H120433   6.275   6.259   5.362 -0.4741  0.6892  0.3745
 6823TIP3    H220434   6.332   6.133   5.424  1.0108  1.4234  0.5654
 6824TIP3   OH220435   6.488   0.347   2.177 -0.2617 -0.2850  0.2784
 6824TIP3    H120436   6.486   0.386   2.265  0.0714 -2.3169  1.2400
 6824TIP3    H220437   6.572   0.373   2.141 -0.6114  0.9877  0.3436
 6825TIP3   OH220438   4.895   3.516   5.374 -0.6949  0.0062 -0.0006
 6825TIP3    H120439   4.922   3.493   5.285  0.4311 -0.3379  0.4113
 6825TIP3    H220440   4.856   3.436   5.408 -1.8395  0.3664 -0.4381
 6826TIP3   OH220441   6.970   1.637   5.324  0.3292 -0.2242 -0.2879
 6826TIP3    H120442   6.944   1.554   5.284 -0.9057 -0.3396  0.7001
 6826TIP3    H220443   6.890   1.672   5.362  1.3482  0.0435  1.7961
 6827TIP3   OH220444   2.811   5.344   2.924  0.3443  0.3421 -0.1007
 6827TIP3    H120445   2.837   5.259   2.959 -1.7379  0.4706  1.9301
 6827TIP3    H220446   2.858   5.408   2.978 -0.1684  0.5197  0.1320
 6828TIP3   OH220447   2.740   2.404   0.987  0.3178 -0.0369 -0.5010
 6828TIP3    H120448   2.720   2.377   1.077 -0.2490  0.1632 -0.5665
 6828TIP3    H220449   2.836   2.408   0.985  0.3247  0.9649  0.4068
 6829TIP3   OH220450   5.252   3.298   3.297  0.0813 -0.2635  0.0221
 6829TIP3    H120451   5.196   3.340   3.363 -0.2585 -0.3255 -0.2238
 6829TIP3    H220452   5.214   3.210   3.288  0.9071 -0.7008  0.6828
 6830TIP3   OH220453   3.142   0.887   0.168 -0.0502  0.3985 -0.2784
 6830TIP3    H120454   3.152   0.825   0.095  0.2220  0.1531 -0.0320
 6830TIP3    H220455   3.196   0.962   0.143 -1.2934  1.0660 -1.1383
 6831TIP3   OH220456   1.487   4.972   3.057  0.1863  0.1867 -0.6600
 6831TIP3    H120457   1.420   4.953   3.123  0.6289  0.4832 -0.1191
 6831TIP3    H220458   1.537   4.892   3.049  0.9546  0.5548  0.3349
 6832TIP3   OH220459   6.910   6.701   3.056 -0.0452  0.2881  0.2194
 6832TIP3    H120460   6.973   6.771   3.037  1.3187  0.4058  4.1875
 6832TIP3    H220461   6.885   6.717   3.147  0.2567 -4.3139  1.3087
 6833TIP3   OH220462   0.516   3.408   4.177 -0.1267 -0.1460  0.1699
 6833TIP3    H120463   0.492   3.403   4.269  1.9912  0.9522  0.8280
 6833TIP3    H220464   0.435   3.386   4.130 -0.7149 -2.7969  2.2471
 6834TIP3   OH220465   4.588   3.875   1.604 -0.0439 -0.4793  0.1075
 6834TIP3    H120466   4.663   3.852   1.659  0.4802  1.5909  0.3634
 6834TIP3    H220467   4.563   3.793   1.562  1.3205 -1.5580  1.2752
 6835TIP3   OH220468   0.062   6.409   3.267 -0.3563 -0.3654  0.2583
 6835TIP3    H120469   0.009   6.329   3.260  0.4662 -0.7820 -2.4310
 6835TIP3    H220470   0.007   6.478   3.229  0.4056 -0.5303 -1.2485
 6836TIP3   OH220471   5.261   6.109   1.853 -0.0351  0.6720 -0.3413
 6836TIP3    H120472   5.205   6.185   1.841 -0.4358  0.3469 -0.5374
 6836TIP3    H220473   5.247   6.055   1.775 -1.8428 -0.9403  1.0113
 6837TIP3   OH220474   4.414   6.594   1.573  0.2228  0.2544  0.6366
 6837TIP3    H120475   4.383   6.544   1.648 -0.4480  1.5125  1.2197
 6837TIP3    H220476   4.487   6.646   1.607 -0.6652  1.5181  0.6857
 6838TIP3   OH220477   3.254   2.040   3.955  0.2776  0.3236 -0.0583
 6838TIP3    H120478   3.255   2.028   3.860  0.9727 -2.4225  0.2239
 6838TIP3    H220479   3.177   1.992   3.985 -0.4349  1.8910  0.7523
 6839TIP3   OH220480   4.831   4.247   4.639 -0.4671 -0.3752 -0.2244
 6839TIP3    H120481   4.854   4.193   4.564  0.5654  1.2820 -1.1804
 6839TIP3    H220482   4.752   4.294   4.611 -0.6233 -0.4529  0.0903
 6840TIP3   OH220483   7.133   2.760   0.200 -0.0205 -0.0769  0.6168
 6840TIP3    H120484   7.128   2.720   0.287 -0.9516 -2.4235 -0.4343
 6840TIP3    H220485   7.045   2.794   0.185  0.1551  0.3750  0.5972
 6841TIP3   OH220486   2.609   0.086   0.343  0.6932  0.1374  0.8819
 6841TIP3    H120487   2.634  -0.006   0.330  0.2659 -0.0180  1.1356
 6841TIP3    H220488   2.661   0.134   0.279 -1.8643 -0.6727 -2.0831
 6842TIP3   OH220489   2.140   0.175   0.847 -0.7500  0.3180 -0.1867
 6842TIP3    H120490   2.082   0.184   0.772 -1.6009  0.3567  0.4560
 6842TIP3    H220491   2.225   0.205   0.816 -0.6273 -1.3654 -1.6632
 6843TIP3   OH220492   5.004   5.485   4.835 -0.5777 -0.3996 -0.0523
 6843TIP3    H120493   5.067   5.550   4.805  0.0431 -0.9084  0.1375
 6843TIP3    H220494   5.002   5.497   4.930 -1.0933 -0.0991 -0.0960
 6844TIP3   OH220495   5.740   1.608   1.991  0.3947  0.1519  0.3693
 6844TIP3    H120496   5.657   1.656   1.988  0.4385  0.1935 -0.5828
 6844TIP3    H220497   5.806   1.674   1.973  0.5859  0.0121  0.5580
 6845TIP3   OH220498   3.607   1.499   0.527  0.2948  0.4903  0.1017
 6845TIP3    H120499   3.680   1.536   0.478  1.1688 -2.0306 -0.6631
 6845TIP3    H220500   3.530   1.514   0.472  0.4881  1.6889  0.1372
 6846TIP3   OH220501   0.495   2.934   4.002 -0.1381  0.1000 -0.1927
 6846TIP3    H120502   0.415   2.986   3.990 -0.8129 -0.8290  0.2282
 6846TIP3    H220503   0.510   2.932   4.096  0.0068 -0.2878 -0.2205
 6847TIP3   OH220504   3.250   3.316   2.252 -0.3584 -0.7624 -0.5531
 6847TIP3    H120505   3.324   3.364   2.217 -0.8171 -0.2183 -0.7813
 6847TIP3    H220506   3.173   3.359   2.215 -0.8038 -1.0400  0.0276
 6848TIP3   OH220507   3.198   4.705   4.715  0.1085 -0.0222 -0.1379
 6848TIP3    H120508   3.284   4.729   4.748 -0.3859  0.3576  0.9250
 6848TIP3    H220509   3.214   4.633   4.654  1.2034  0.2753 -0.2134
 6849TIP3   OH220510   3.218   5.116   4.933 -0.3869 -0.1459 -0.4372
 6849TIP3    H120511   3.147   5.065   4.972  1.5911 -0.5305  3.0355
 6849TIP3    H220512   3.178   5.201   4.915 -2.0235 -0.7156  0.2521
 6850TIP3   OH220513   3.339   4.831   1.772 -0.3016 -0.0647 -0.0131
 6850TIP3    H120514   3.355   4.903   1.712 -1.0602 -0.2108 -0.3966
 6850TIP3    H220515   3.395   4.760   1.740  0.1588  0.2249  0.1413
 6851TIP3   OH220516   5.098   6.300   1.191  0.5134  0.8824 -0.8714
 6851TIP3    H120517   5.102   6.231   1.126 -0.8116  2.0935 -2.3225
 6851TIP3    H220518   5.134   6.377   1.147  0.7094  1.4651  0.2495
 6852TIP3   OH220519   2.006   4.509   1.393  0.8209 -0.4597  0.3948
 6852TIP3    H120520   1.944   4.576   1.366 -0.2415 -1.0231  1.3838
 6852TIP3    H220521   2.006   4.445   1.321  1.2799  0.1977 -0.2068
 6853TIP3   OH220522   2.562   1.982   5.045 -0.5950 -0.8755  0.3910
 6853TIP3    H120523   2.650   2.014   5.061 -0.7226 -0.4002  0.1734
 6853TIP3    H220524   2.560   1.894   5.083 -0.3533 -0.4743  1.3665
 6854TIP3   OH220525   1.886   0.852   2.215 -0.4426  0.3282 -0.2236
 6854TIP3    H120526   1.792   0.854   2.195 -0.3714 -1.4438 -0.9600
 6854TIP3    H220527   1.904   0.936   2.256 -2.3371  0.7343 -0.1443
 6855TIP3   OH220528   5.658   0.438   1.968 -0.4077 -0.1561 -0.4327
 6855TIP3    H120529   5.750   0.414   1.974 -0.5659 -0.4724  1.1724
 6855TIP3    H220530   5.651   0.520   2.017 -1.2929 -1.1152  1.0905
 6856TIP3   OH220531   2.638   0.281   1.264 -0.1008 -0.1894 -0.3436
 6856TIP3    H120532   2.584   0.290   1.185  1.2534 -0.4207 -1.3199
 6856TIP3    H220533   2.706   0.219   1.240 -0.8142 -1.8771  1.6639
 6857TIP3   OH220534   5.713   4.015   4.801  0.2193 -0.2455 -0.0451
 6857TIP3    H120535   5.676   4.049   4.882  0.3988 -0.4449  0.1217
 6857TIP3    H220536   5.806   4.003   4.820  0.4630  0.6879 -0.6068
 6858TIP3   OH220537   2.488   2.996   1.105 -0.0042  0.6607 -0.0495
 6858TIP3    H120538   2.475   2.950   1.022  1.0373  2.4045 -1.2444
 6858TIP3    H220539   2.408   2.978   1.155 -0.1334 -1.4200 -0.9091
 6859TIP3   OH220540   4.072   1.421   1.379 -0.6222  0.1177 -0.1726
 6859TIP3    H120541   3.980   1.394   1.379 -0.7255  0.4620 -0.1795
 6859TIP3    H220542   4.120   1.344   1.349 -0.8526 -0.2545  0.3903
 6860TIP3   OH220543   6.990   3.139   5.866  0.0537  0.4093  0.5257
 6860TIP3    H120544   7.028   3.103   5.786 -0.6069  1.3168 -0.2263
 6860TIP3    H220545   6.899   3.158   5.842 -0.6816 -0.9364  2.0206
 6861TIP3   OH220546   0.328   1.990   3.242  0.3747 -0.1610 -0.1100
 6861TIP3    H120547   0.329   1.900   3.210  2.0005 -0.3239  0.3201
 6861TIP3    H220548   0.248   1.997   3.293 -0.9741 -0.6575 -2.0574
 6862TIP3   OH220549   1.232   5.648   3.888  0.2226  0.0240 -0.8048
 6862TIP3    H120550   1.307   5.589   3.875  1.0275  0.5787  0.9907
 6862TIP3    H220551   1.270   5.736   3.887 -0.2878  0.2888  0.6957
 6863TIP3   OH220552   4.795   2.079   0.269  0.2093 -0.0707  0.7998
 6863TIP3    H120553   4.850   2.080   0.348  1.4037  1.2469 -0.0002
 6863TIP3    H220554   4.745   2.160   0.274 -0.5548 -0.5365  0.7603
 6864TIP3   OH220555   3.411   2.098   5.702  0.1502  0.2395  0.3542
 6864TIP3    H120556   3.446   2.021   5.657  0.2921  1.1905 -1.2384
 6864TIP3    H220557   3.465   2.170   5.670 -0.1971  1.0564  1.5615
 6865TIP3   OH220558   6.494   5.685   2.804 -0.1240 -0.5664 -0.0736
 6865TIP3    H120559   6.528   5.597   2.819 -0.5465 -0.7121  0.0203
 6865TIP3    H220560   6.448   5.707   2.885 -0.5132 -0.4881 -0.3132
 6866TIP3   OH220561   0.720   5.390   4.206  0.9806 -0.3208 -0.5619
 6866TIP3    H120562   0.723   5.395   4.302 -2.5626 -1.1291 -0.2609
 6866TIP3    H220563   0.683   5.474   4.179  1.0519 -0.4693 -1.1355
 6867TIP3   OH220564   1.958   0.563   5.082 -0.0996 -0.0899 -0.1530
 6867TIP3    H120565   1.976   0.472   5.104  0.3603 -0.2804 -1.2018
 6867TIP3    H220566   2.044   0.606   5.084 -0.0229 -0.1295 -1.5089
 6868TIP3   OH220567   5.881   4.968   4.496 -0.3112 -0.1589  0.2433
 6868TIP3    H120568   5.838   4.892   4.533  1.6377 -1.9524 -0.9222
 6868TIP3    H220569   5.918   5.014   4.571 -4.3790  1.7649  1.3570
 6869TIP3   OH220570   0.266   1.617   4.198  0.2503  0.5474  0.3321
 6869TIP3    H120571   0.258   1.606   4.292 -2.3525 -1.8024 -0.0320
 6869TIP3    H220572   0.198   1.681   4.175  0.8850  1.1275  0.0584
 6870TIP3   OH220573   6.476   5.273   1.852  0.0815  0.4291  0.1380
 6870TIP3    H120574   6.483   5.267   1.757 -0.5956  0.6589  0.0729
 6870TIP3    H220575   6.485   5.182   1.882 -0.7450  0.2202 -0.2198
 6871TIP3   OH220576   4.525   6.718   5.243  0.3560  0.0299  0.0402
 6871TIP3    H120577   4.524   6.753   5.154  2.0545  0.4483  0.1609
 6871TIP3    H220578   4.436   6.685   5.257 -1.2403  3.7585 -0.2621
 6872TIP3   OH220579   6.331   1.470   0.678 -0.4761  0.0676  0.7028
 6872TIP3    H120580   6.424   1.461   0.698 -0.3749 -0.7195 -0.0687
 6872TIP3    H220581   6.313   1.400   0.615 -1.3850  0.7819  0.1477
 6873TIP3   OH220582   4.227   5.843   1.880  0.3817  0.1965 -0.4979
 6873TIP3    H120583   4.309   5.876   1.918  0.7074 -0.5370 -0.5468
 6873TIP3    H220584   4.255   5.791   1.805  0.1920 -3.0471  1.4890
 6874TIP3   OH220585   7.105   4.755   0.236  0.0055  0.3569  0.3081
 6874TIP3    H120586   7.096   4.784   0.146  0.9066 -0.7356 -0.1588
 6874TIP3    H220587   7.029   4.791   0.281 -0.7527  0.4523 -1.0049
 6875TIP3   OH220588   2.962   0.876   4.013 -0.0696 -0.5119  0.1650
 6875TIP3    H120589   2.878   0.912   4.042  0.4238  0.4536  0.4130
 6875TIP3    H220590   2.947   0.781   4.009 -0.7794 -0.4851  1.5309
 6876TIP3   OH220591   3.092   0.180   0.456  0.1868 -0.0937  0.2940
 6876TIP3    H120592   3.104   0.086   0.438  0.0383  0.0047 -0.3615
 6876TIP3    H220593   3.109   0.222   0.372  0.7215  0.5161  0.6937
 6877TIP3   OH220594   5.541   4.484   1.707 -0.0487  0.2476 -0.8240
 6877TIP3    H120595   5.517   4.532   1.786 -0.5341  0.8458 -1.3110
 6877TIP3    H220596   5.611   4.536   1.668  0.2005 -0.0538 -0.7755
 6878TIP3   OH220597   3.053   0.800   2.680 -0.3195 -0.2867  0.1675
 6878TIP3    H120598   3.019   0.884   2.649 -1.4455 -1.5234 -2.2367
 6878TIP3    H220599   3.061   0.747   2.601  0.0736 -2.5411  1.6389
 6879TIP3   OH220600   3.028   1.705   5.654 -0.1627  0.1049  0.6252
 6879TIP3    H120601   2.987   1.707   5.568 -1.3715  2.8468  1.1636
 6879TIP3    H220602   3.119   1.731   5.638  0.3447 -1.9137 -0.0617
 6880TIP3   OH220603   6.690   3.125   2.542 -0.2108 -0.3472  0.4678
 6880TIP3    H120604   6.595   3.132   2.532 -0.1012  1.4290  0.4111
 6880TIP3    H220605   6.725   3.199   2.492  1.1979 -0.8004  0.7361
 6881TIP3   OH220606   6.680   5.597   5.041 -0.2356  0.0432 -1.1974
 6881TIP3    H120607   6.653   5.676   4.992 -1.1751  0.4900  0.0120
 6881TIP3    H220608   6.606   5.537   5.033 -0.3701  0.0982 -0.3669
 6882TIP3   OH220609   4.312   3.352   0.672  0.5248 -0.3707  0.2339
 6882TIP3    H120610   4.224   3.338   0.638  0.2136 -1.2772  1.3563
 6882TIP3    H220611   4.302   3.419   0.739  0.6384 -0.6350  0.5203
 6883TIP3   OH220612   6.401   3.986   1.522  0.4511 -0.2615  0.1896
 6883TIP3    H120613   6.396   4.079   1.497  1.6183 -0.1302  0.3703
 6883TIP3    H220614   6.316   3.950   1.499 -0.3795  1.0770  1.0372
 6884TIP3   OH220615   6.729   4.160   2.608  0.6103  0.0519  0.2820
 6884TIP3    H120616   6.782   4.095   2.561  1.7428  1.6000 -0.6629
 6884TIP3    H220617   6.740   4.137   2.700  0.8534 -1.1815 -0.0270
 6885TIP3   OH220618   3.174   0.291   1.413  0.2001 -0.3320 -0.1170
 6885TIP3    H120619   3.128   0.341   1.345  0.5261  0.3046  0.1253
 6885TIP3    H220620   3.207   0.357   1.474  0.0630 -0.8919  0.5713
 6886TIP3   OH220621   1.098   1.213   0.244 -0.4932  0.5332  0.1788
 6886TIP3    H120622   1.143   1.296   0.256 -0.6424  0.6481 -0.0482
 6886TIP3    H220623   1.085   1.206   0.149 -0.4931  0.2579  0.1961
 6887TIP3   OH220624   6.533   6.484   3.837  0.2330 -0.5794  0.2467
 6887TIP3    H120625   6.531   6.410   3.776 -1.4042  0.3463 -0.8891
 6887TIP3    H220626   6.578   6.553   3.789 -0.8252  0.0698  0.1612
 6888TIP3   OH220627   0.607   1.569   2.385  0.8734 -0.5730 -0.2113
 6888TIP3    H120628   0.558   1.513   2.324  1.1277 -0.3396 -0.6400
 6888TIP3    H220629   0.541   1.617   2.434  0.6359  1.2422 -2.1701
 6889TIP3   OH220630   5.399   2.146   1.114 -0.4381 -0.0326  0.0339
 6889TIP3    H120631   5.486   2.109   1.132 -0.2109  0.7475  0.5757
 6889TIP3    H220632   5.393   2.148   1.019  0.0325 -0.3232 -0.0074
 6890TIP3   OH220633   4.999   3.775   5.080 -0.1182 -0.2895  0.1088
 6890TIP3    H120634   4.910   3.741   5.079 -1.2608  2.4812 -1.0627
 6890TIP3    H220635   5.043   3.730   5.008 -0.1744 -2.4097  1.3140
 6891TIP3   OH220636   3.250   6.195   0.059  0.1762 -0.4385  0.3755
 6891TIP3    H120637   3.288   6.131  -0.001 -0.3843 -1.0021  0.6085
 6891TIP3    H220638   3.306   6.272   0.050  0.1923 -0.5582 -0.7513
 6892TIP3   OH220639   0.460   5.162   4.852 -0.2140  0.0630 -0.3087
 6892TIP3    H120640   0.525   5.111   4.899  0.3771 -0.1116 -1.2729
 6892TIP3    H220641   0.376   5.132   4.887  0.2181  0.7160  1.3691
 6893TIP3   OH220642   1.240   3.428   1.554 -0.1175 -0.0820  0.1857
 6893TIP3    H120643   1.195   3.377   1.621 -1.4037  0.8353  0.0439
 6893TIP3    H220644   1.217   3.386   1.471 -0.6568  0.3418  0.1189
 6894TIP3   OH220645   4.835   2.692   2.950  0.0236 -0.5191  0.3140
 6894TIP3    H120646   4.883   2.663   2.872  0.1099 -0.6736  0.4255
 6894TIP3    H220647   4.890   2.665   3.024 -0.4564 -1.1120  0.4614
 6895TIP3   OH220648   4.936   1.040   0.832 -0.0905  0.5035  0.1554
 6895TIP3    H120649   4.868   1.092   0.790 -1.3284 -0.4286  0.9112
 6895TIP3    H220650   4.965   0.978   0.765 -1.5970 -0.5534  0.4221
 6896TIP3   OH220651   1.338   0.243   5.511  0.2812  0.2364  0.2890
 6896TIP3    H120652   1.297   0.305   5.570  0.4343 -0.3921  1.0733
 6896TIP3    H220653   1.284   0.164   5.518 -0.7301  0.6779 -1.7347
 6897TIP3   OH220654   5.584   1.834   3.760  0.2601 -0.5911  0.6316
 6897TIP3    H120655   5.577   1.867   3.849 -2.1782 -0.5170  0.4727
 6897TIP3    H220656   5.511   1.773   3.751  1.5592 -2.0300 -0.7613
 6898TIP3   OH220657   4.971   5.523   5.117 -0.0833 -0.1051 -0.0489
 6898TIP3    H120658   4.946   5.450   5.174  1.1932 -0.7216 -0.2321
 6898TIP3    H220659   4.987   5.596   5.176 -2.3754  0.3877  0.0708
 6899TIP3   OH220660   2.469   2.917   3.650  0.1132  0.3756  0.0626
 6899TIP3    H120661   2.398   2.979   3.661 -0.8242 -0.5433 -0.6047
 6899TIP3    H220662   2.542   2.954   3.700 -0.6543  1.6047  0.3016
 6900TIP3   OH220663   5.867   4.581   1.773 -0.1853  0.6231  0.0116
 6900TIP3    H120664   5.835   4.610   1.687  0.0643  0.2169 -0.2244
 6900TIP3    H220665   5.911   4.498   1.755  0.0191  0.6196  0.5094
 6901TIP3   OH220666   1.493   1.135   5.860  0.4558 -0.2987  0.0184
 6901TIP3    H120667   1.513   1.066   5.923  0.3203 -0.4636 -0.1167
 6901TIP3    H220668   1.471   1.088   5.779 -0.0706 -0.1134  0.0454
 6902TIP3   OH220669   1.707   0.151   2.956 -0.1069  0.4464  0.5708
 6902TIP3    H120670   1.781   0.101   2.921 -0.6046  0.2949 -0.3080
 6902TIP3    H220671   1.730   0.167   3.047  1.3726  1.0869  0.1192
 6903TIP3   OH220672   5.129   6.694   3.892 -0.2092  0.2840  0.1332
 6903TIP3    H120673   5.158   6.771   3.843  1.4721 -0.6994 -0.4658
 6903TIP3    H220674   5.046   6.721   3.931 -2.8766  0.5105 -4.8863
 6904TIP3   OH220675   5.600   1.001   5.571 -0.4763 -0.1270 -0.1229
 6904TIP3    H120676   5.570   0.961   5.489 -0.0330 -0.1497 -0.2779
 6904TIP3    H220677   5.679   1.049   5.546 -0.7795  0.5106  0.1458
 6905TIP3   OH220678   2.898   5.733   4.519  0.5906 -0.3896  0.2582
 6905TIP3    H120679   2.898   5.819   4.477  0.7132  0.6854  2.3027
 6905TIP3    H220680   2.986   5.723   4.555  0.3151 -0.9508  0.8131
 6906TIP3   OH220681   1.737   0.912   5.553 -0.4457 -0.1835  0.0715
 6906TIP3    H120682   1.816   0.959   5.581 -0.3009 -0.5761  0.3346
 6906TIP3    H220683   1.696   0.883   5.635 -1.5706  1.1408 -0.0046
 6907TIP3   OH220684   2.473   6.666   0.718 -0.2361  0.2546 -0.1563
 6907TIP3    H120685   2.429   6.598   0.768 -1.0007  1.7887  1.3437
 6907TIP3    H220686   2.526   6.714   0.782  0.8443  0.6644 -1.3000
 6908TIP3   OH220687   1.717   4.992   4.683 -0.3003  0.4007  0.8968
 6908TIP3    H120688   1.649   4.993   4.616 -1.0174 -0.2955  1.5932
 6908TIP3    H220689   1.781   4.927   4.652  0.6022  1.7940 -0.2643
 6909TIP3   OH220690   2.199   5.419   2.231  0.3413 -0.1860  0.5244
 6909TIP3    H120691   2.143   5.473   2.287 -0.1611 -0.7213  0.5464
 6909TIP3    H220692   2.288   5.453   2.245  0.0123  0.7265  0.4209
 6910TIP3   OH220693   5.756   3.103   4.955  0.6630  0.2709  0.3462
 6910TIP3    H120694   5.664   3.077   4.954  0.0515  2.2114 -2.0045
 6910TIP3    H220695   5.768   3.145   5.041 -1.5326  2.6399 -0.3725
 6911TIP3   OH220696   3.466   4.367   2.530 -0.3350 -0.0668 -0.5008
 6911TIP3    H120697   3.516   4.285   2.526 -0.6196 -0.2154 -1.3560
 6911TIP3    H220698   3.482   4.400   2.618  0.5873 -0.5406 -0.4675
 6912TIP3   OH220699   0.744   2.556   3.601  0.5300 -0.2725  0.2386
 6912TIP3    H120700   0.719   2.555   3.693  2.4619 -0.7983  0.8097
 6912TIP3    H220701   0.791   2.639   3.589 -0.1784  0.0441 -0.4203
 6913TIP3   OH220702   5.298   4.352   5.364  0.1737  0.7464  0.4476
 6913TIP3    H120703   5.228   4.391   5.416  0.5030  1.1272  0.6175
 6913TIP3    H220704   5.378   4.393   5.397  0.6778 -0.9797  1.4784
 6914TIP3   OH220705   0.515   0.670   4.542 -0.2675  0.3294  0.3300
 6914TIP3    H120706   0.609   0.659   4.527 -0.6678  0.0683 -2.5443
 6914TIP3    H220707   0.509   0.751   4.593  1.5112  0.2165  0.8025
 6915TIP3   OH220708   1.298   6.637   2.017  0.3424 -0.4614 -0.1199
 6915TIP3    H120709   1.228   6.672   1.961  0.5390  1.1017  0.5505
 6915TIP3    H220710   1.322   6.554   1.977 -0.6450 -0.1473 -1.4206
 6916TIP3   OH220711   1.979   0.953   4.205  0.0458  0.0129  0.9027
 6916TIP3    H120712   2.050   1.015   4.216 -0.2314  0.4059  0.5428
 6916TIP3    H220713   1.979   0.901   4.285  0.6260  0.1178  0.9755
 6917TIP3   OH220714   3.410   5.439   0.735 -0.3899 -0.3503  0.1593
 6917TIP3    H120715   3.412   5.429   0.831  1.1415 -1.6820  0.0408
 6917TIP3    H220716   3.379   5.528   0.721 -1.3393 -0.3678  1.8779
 6918TIP3   OH220717   3.356   3.732   2.802  0.7246  0.1108 -0.4754
 6918TIP3    H120718   3.420   3.663   2.790  1.4431  0.5855  0.5059
 6918TIP3    H220719   3.296   3.699   2.869 -0.2458 -0.4337 -1.5611
 6919TIP3   OH220720   5.970   0.028   5.102  0.6894 -0.0251 -0.6935
 6919TIP3    H120721   5.913   0.043   5.027  1.3935 -1.1522 -1.4784
 6919TIP3    H220722   5.919   0.060   5.177 -0.6242 -0.2017 -1.4729
 6920TIP3   OH220723   2.759   6.314   1.365 -0.5855  0.2249  0.3267
 6920TIP3    H120724   2.773   6.220   1.350 -1.0133  0.1622  0.3007
 6920TIP3    H220725   2.666   6.321   1.384 -0.8288  0.8011 -0.9772
 6921TIP3   OH220726   2.981   3.905   4.985  0.5092 -0.3445 -0.6978
 6921TIP3    H120727   2.985   3.932   5.077 -0.4386  1.4525 -1.1410
 6921TIP3    H220728   3.073   3.898   4.959  0.7996 -1.2064  0.4429
 6922TIP3   OH220729   1.331   0.509   2.485 -0.0801  0.0671  0.0297
 6922TIP3    H120730   1.267   0.565   2.529 -0.9545 -0.7692 -0.1311
 6922TIP3    H220731   1.313   0.421   2.518  0.8722 -0.2149 -0.1644
 6923TIP3   OH220732   7.201   4.041   5.457 -0.0211  0.9691 -0.1369
 6923TIP3    H120733   7.231   4.087   5.379  2.1383  0.2229  0.1722
 6923TIP3    H220734   7.136   4.100   5.496  0.1892  2.1772 -1.5176
 6924TIP3   OH220735   1.839   2.823   3.804 -0.6387  0.1268  0.1222
 6924TIP3    H120736   1.824   2.783   3.889 -0.3012 -0.7432 -0.2214
 6924TIP3    H220737   1.911   2.884   3.818 -1.4437  0.9619  0.7468
 6925TIP3   OH220738   4.210   6.530   5.705 -0.3130  0.0981  0.1698
 6925TIP3    H120739   4.210   6.495   5.795 -0.1244  0.1313  0.1847
 6925TIP3    H220740   4.271   6.472   5.658 -0.4362  0.0612  0.0549
 6926TIP3   OH220741   2.452   4.834   5.642  0.2001  0.0102  0.1238
 6926TIP3    H120742   2.460   4.903   5.576  1.4622  1.7012  1.9152
 6926TIP3    H220743   2.538   4.829   5.682  0.1644 -2.7293  0.0523
 6927TIP3   OH220744   5.914   2.073   5.403  0.0157  0.1037 -0.2129
 6927TIP3    H120745   5.836   2.060   5.350 -0.9330  1.4903  0.7764
 6927TIP3    H220746   5.913   2.002   5.467  0.0041 -0.3239 -0.6802
 6928TIP3   OH220747   6.544   3.424   4.595 -1.0210 -0.0532 -0.0185
 6928TIP3    H120748   6.509   3.336   4.609 -0.9244 -0.0485  0.2646
 6928TIP3    H220749   6.621   3.411   4.540  0.8027 -0.5114  2.4571
 6929TIP3   OH220750   1.164   2.584   5.823  0.2076 -0.4023 -0.0588
 6929TIP3    H120751   1.226   2.511   5.817 -0.3825 -0.9038 -0.1986
 6929TIP3    H220752   1.096   2.563   5.759 -0.8272 -0.5856  1.0560
 6930TIP3   OH220753   5.556   3.115   2.161 -0.5279 -0.0192 -0.1052
 6930TIP3    H120754   5.540   3.142   2.070  0.1067 -2.1294 -0.8937
 6930TIP3    H220755   5.626   3.051   2.155  0.1681  0.4617  2.0114
 6931TIP3   OH220756   3.959   6.532   1.135  0.2226  0.0786  0.0046
 6931TIP3    H120757   4.033   6.553   1.191 -1.4448  1.5907  1.7546
 6931TIP3    H220758   3.975   6.580   1.054  1.3787 -0.0094  0.1752
 6932TIP3   OH220759   6.818   1.199   1.674  0.3529  0.2001  0.0757
 6932TIP3    H120760   6.790   1.170   1.587  0.3372  2.5865 -0.7830
 6932TIP3    H220761   6.831   1.293   1.665  0.1464  0.5614  2.7340
 6933TIP3   OH220762   0.891   2.171   1.906 -0.0608 -0.1258  0.3781
 6933TIP3    H120763   0.809   2.217   1.921 -1.7711 -2.6027 -0.6922
 6933TIP3    H220764   0.882   2.090   1.956 -0.0980 -2.2855 -2.8243
 6934TIP3   OH220765   3.663   0.015   1.629  0.2565 -0.8595 -0.6119
 6934TIP3    H120766   3.568   0.000   1.633  0.1621 -0.3444 -0.8459
 6934TIP3    H220767   3.677   0.051   1.541  0.6949 -1.1188 -0.6465
 6935TIP3   OH220768   0.502   0.390   5.258 -0.0834 -0.5969 -0.8836
 6935TIP3    H120769   0.499   0.294   5.258 -0.1056 -0.5971 -1.2861
 6935TIP3    H220770   0.421   0.416   5.213  0.1725 -0.3976 -1.2296
 6936TIP3   OH220771   6.175   3.199   2.508  0.4935 -0.0099  0.0740
 6936TIP3    H120772   6.095   3.147   2.522  2.0512 -2.4428  0.5076
 6936TIP3    H220773   6.172   3.265   2.578  0.4988 -2.2444  2.3308
 6937TIP3   OH220774   5.899   0.973   0.397 -0.0485 -0.2074 -0.5341
 6937TIP3    H120775   5.861   1.039   0.455  0.0350 -1.3813  0.9322
 6937TIP3    H220776   5.930   1.022   0.322 -1.2068  1.2467 -0.1225
 6938TIP3   OH220777   1.521   1.528   0.343 -0.3902  0.2610 -0.9401
 6938TIP3    H120778   1.575   1.488   0.274  1.2691  0.0348  0.4226
 6938TIP3    H220779   1.581   1.537   0.417 -2.2181  0.1697  0.6047
 6939TIP3   OH220780   4.430   6.709   5.663  0.9099 -0.7282 -0.1491
 6939TIP3    H120781   4.442   6.653   5.739 -0.2060 -0.4395  0.2633
 6939TIP3    H220782   4.431   6.798   5.698 -3.3565 -0.6039  0.2570
 6940TIP3   OH220783   0.312   5.175  -0.013  0.2524 -0.1716  0.0974
 6940TIP3    H120784   0.310   5.171   0.082  1.9154 -0.7434  0.1432
 6940TIP3    H220785   0.364   5.098  -0.039  0.8632  0.6475 -1.2005
 6941TIP3   OH220786   6.152   5.602   1.421  0.6434  0.3663  0.0307
 6941TIP3    H120787   6.119   5.575   1.335  0.5301 -1.2222  0.5428
 6941TIP3    H220788   6.084   5.577   1.483  0.6239  1.7030  0.5993
 6942TIP3   OH220789   3.129   3.476   1.236  0.6301 -0.1120  0.5889
 6942TIP3    H120790   3.183   3.397   1.247 -0.3317 -0.7848  0.6837
 6942TIP3    H220791   3.048   3.455   1.283 -0.7698 -0.1938 -1.7475
 6943TIP3   OH220792   0.511   6.588   2.350 -0.3679  0.3403  0.0764
 6943TIP3    H120793   0.490   6.678   2.323  1.0796  0.2708 -1.3858
 6943TIP3    H220794   0.452   6.533   2.298  0.9170  0.3237 -1.4417
 6944TIP3   OH220795   6.281   5.470   1.117 -0.0798  0.4651  0.8722
 6944TIP3    H120796   6.351   5.505   1.062 -0.2620  0.8235  0.8690
 6944TIP3    H220797   6.225   5.545   1.135 -1.6787 -0.2077 -0.9271
 6945TIP3   OH220798   3.316   1.755   3.543  0.1759 -0.2987  0.0717
 6945TIP3    H120799   3.402   1.714   3.554 -0.1046 -1.0435 -0.4214
 6945TIP3    H220800   3.302   1.757   3.448 -1.0636 -1.7382  0.1895
 6946TIP3   OH220801   1.995   6.615   4.822  0.2715  0.4406  0.4199
 6946TIP3    H120802   1.967   6.627   4.731 -0.5305 -3.4076  0.0140
 6946TIP3    H220803   2.078   6.568   4.816  0.0005 -0.2295  1.6860
 6947TIP3   OH220804   0.395   0.239   1.258 -0.1326  0.7000  0.1668
 6947TIP3    H120805   0.483   0.255   1.224 -0.1017  0.3637  0.0904
 6947TIP3    H220806   0.406   0.233   1.353 -0.1086  0.8938  0.1761
 6948TIP3   OH220807   5.444   3.809   0.408  0.2728 -0.5649  0.0664
 6948TIP3    H120808   5.450   3.735   0.348  0.4585 -0.6201  0.1532
 6948TIP3    H220809   5.383   3.869   0.365  1.4778  0.0342 -0.8626
 6949TIP3   OH220810   4.791   4.131   2.414 -0.2821 -0.2542 -0.6375
 6949TIP3    H120811   4.727   4.192   2.450 -0.5674  0.3409 -2.0463
 6949TIP3    H220812   4.870   4.145   2.466 -0.4286  1.1347 -0.7476
 6950TIP3   OH220813   5.191   6.018   4.849 -0.6367 -0.0900 -0.4944
 6950TIP3    H120814   5.283   6.007   4.872 -0.6362  1.2380  0.1844
 6950TIP3    H220815   5.184   6.107   4.815 -1.9843  0.4504  1.0808
 6951TIP3   OH220816   3.300   5.742   4.284  0.5107  0.5714 -0.1980
 6951TIP3    H120817   3.248   5.661   4.279  0.4406  0.6473 -0.8040
 6951TIP3    H220818   3.329   5.746   4.375 -1.1418  0.8880  0.3552
 6952TIP3   OH220819   4.944   1.654   3.704 -0.1827 -0.1586 -0.3816
 6952TIP3    H120820   5.012   1.598   3.666  1.5110  1.9760 -0.6518
 6952TIP3    H220821   4.932   1.619   3.792  0.9241 -0.8757 -0.4917
 6953TIP3   OH220822   0.718   4.793   5.464  0.1114 -0.0617  0.2250
 6953TIP3    H120823   0.669   4.809   5.544  1.0915 -1.4012  1.1350
 6953TIP3    H220824   0.655   4.754   5.404 -0.2045 -0.7443  0.9855
 6954TIP3   OH220825   4.705   5.704   4.804 -0.6666  0.3870 -0.1204
 6954TIP3    H120826   4.618   5.737   4.782 -1.5698 -1.2104  0.8646
 6954TIP3    H220827   4.747   5.688   4.720 -1.1872  1.4645 -0.6087
 6955TIP3   OH220828   0.260   2.255   4.802 -0.0126  0.5577 -0.4387
 6955TIP3    H120829   0.200   2.275   4.730 -0.0249  1.4814 -0.1828
 6955TIP3    H220830   0.291   2.166   4.783 -1.4092  0.0777 -0.6031
 6956TIP3   OH220831   3.198   4.843   5.405 -0.5448 -0.1011  0.0192
 6956TIP3    H120832   3.221   4.753   5.428  0.7090  0.1709 -0.1317
 6956TIP3    H220833   3.270   4.896   5.439 -1.1774  0.8339 -0.0601
 6957TIP3   OH220834   2.975   5.890   0.271  0.3097  0.5174  0.0593
 6957TIP3    H120835   3.006   5.841   0.347  0.0629 -0.1575 -0.2615
 6957TIP3    H220836   3.006   5.979   0.285  0.4627  0.3499  0.8374
 6958TIP3   OH220837   1.412   2.335   2.272 -0.4613 -0.0088  0.0941
 6958TIP3    H120838   1.462   2.406   2.231 -0.3354  0.1448  0.5048
 6958TIP3    H220839   1.435   2.340   2.365 -0.6261 -0.4470  0.1618
 6959TIP3   OH220840   6.504   5.240   0.051  0.2342  0.1648  0.2817
 6959TIP3    H120841   6.480   5.154   0.016  0.8013  1.0784 -2.5497
 6959TIP3    H220842   6.422   5.289   0.052  0.1590  0.0350  0.5655
 6960TIP3   OH220843   6.038   3.594   3.910  0.0849 -0.0821 -0.4098
 6960TIP3    H120844   6.067   3.599   4.001  0.0437 -2.2796 -0.2181
 6960TIP3    H220845   5.950   3.555   3.916  0.0258 -0.1100 -1.3788
 6961TIP3   OH220846   0.111   5.764   4.471 -0.2297  0.2346  0.0635
 6961TIP3    H120847   0.105   5.741   4.564 -0.4260 -0.6864 -0.1642
 6961TIP3    H220848   0.111   5.859   4.470 -1.9981  0.2830  0.9029
 6962TIP3   OH220849   1.980   6.143   2.223 -0.2461 -0.2242  0.0988
 6962TIP3    H120850   1.897   6.163   2.180 -0.2606 -0.5185 -0.0147
 6962TIP3    H220851   2.014   6.067   2.176  0.5159  0.4239 -0.4283
 6963TIP3   OH220852   1.774   2.327   3.567 -0.2954 -0.8623  0.1100
 6963TIP3    H120853   1.784   2.350   3.474  0.8343  0.1918  0.4795
 6963TIP3    H220854   1.734   2.240   3.565  0.2974 -1.1352 -1.3822
 6964TIP3   OH220855   0.237   2.930   2.085  0.1336 -0.5681  0.0311
 6964TIP3    H120856   0.223   2.920   2.179  0.0151  0.8095  0.1848
 6964TIP3    H220857   0.214   2.845   2.047 -2.5435 -0.3192  0.9496
 6965TIP3   OH220858   4.180   3.768   0.259  0.1139 -0.1152 -0.3910
 6965TIP3    H120859   4.245   3.790   0.325  1.8097 -1.7185 -1.4143
 6965TIP3    H220860   4.175   3.845   0.203  1.1041  0.0686 -0.2471
 6966TIP3   OH220861   5.170   4.825   2.953 -0.9188  0.1419  0.0223
 6966TIP3    H120862   5.154   4.775   3.033 -1.8951 -1.2562 -0.9888
 6966TIP3    H220863   5.120   4.906   2.965 -1.1699 -0.1115  0.7525
 6967TIP3   OH220864   3.733   6.017   3.298 -0.4129  0.1216 -0.3246
 6967TIP3    H120865   3.792   6.091   3.284 -1.6498  1.2367  0.1292
 6967TIP3    H220866   3.646   6.056   3.299 -0.9615 -0.9790  2.2912
 6968TIP3   OH220867   1.077   4.123   0.109  0.3190 -0.6636 -0.2389
 6968TIP3    H120868   1.102   4.037   0.143  1.2483 -0.0164  0.8234
 6968TIP3    H220869   1.156   4.176   0.119 -0.9096  1.0028  1.5601
 6969TIP3   OH220870   1.617   4.658   5.044 -0.0235  0.5341  0.1265
 6969TIP3    H120871   1.588   4.749   5.049  2.1674  1.3301 -0.5582
 6969TIP3    H220872   1.602   4.632   4.953 -0.8658  0.1073  0.3768
 6970TIP3   OH220873   1.472   5.459   0.748 -0.4636  0.1481 -0.1441
 6970TIP3    H120874   1.477   5.507   0.665 -0.1010 -1.9176 -1.3819
 6970TIP3    H220875   1.395   5.495   0.792 -1.0701  0.8229 -1.6834
 6971TIP3   OH220876   6.682   3.965   3.184 -0.2248 -0.5295 -0.0154
 6971TIP3    H120877   6.590   3.971   3.208 -0.2695  0.3167 -0.3823
 6971TIP3    H220878   6.712   4.055   3.180 -0.1826 -0.5790 -3.0068
 6972TIP3   OH220879   5.669   3.809  -0.013  0.1689 -0.1132 -0.1177
 6972TIP3    H120880   5.672   3.904  -0.001 -2.2000  0.0371 -0.3047
 6972TIP3    H220881   5.742   3.776   0.040  1.4218  1.8195 -0.5438
 6973TIP3   OH220882   4.332   6.404   2.762 -0.4306 -0.3230 -0.1373
 6973TIP3    H120883   4.275   6.328   2.775 -1.9101  0.7539 -0.0822
 6973TIP3    H220884   4.407   6.369   2.713 -1.2323 -1.7417 -0.4224
 6974TIP3   OH220885   1.069   1.522   3.758  0.2773  0.4315 -0.2352
 6974TIP3    H120886   1.100   1.610   3.779  0.0034  0.6642 -0.7894
 6974TIP3    H220887   0.975   1.532   3.745  0.4703  0.3882 -1.9342
 6975TIP3   OH220888   3.736   5.597   4.573 -0.1116  0.1144  0.1764
 6975TIP3    H120889   3.645   5.577   4.596  0.2679 -1.7620  0.1995
 6975TIP3    H220890   3.730   5.661   4.502 -1.5120 -1.2234 -0.9732
 6976TIP3   OH220891   0.436   2.245   4.259 -0.1280 -0.5227 -0.0566
 6976TIP3    H120892   0.498   2.311   4.226  0.8624 -1.0736  0.6361
 6976TIP3    H220893   0.399   2.284   4.338  1.9254 -1.5176  1.4782
 6977TIP3   OH220894   0.321   1.783   3.567 -0.2795  0.5646  0.2479
 6977TIP3    H120895   0.391   1.752   3.510 -0.8905  1.9592 -1.3144
 6977TIP3    H220896   0.243   1.735   3.538 -0.5296  1.0357  0.1417
 6978TIP3   OH220897   3.592   0.988   4.348  0.3084 -0.3932 -0.0342
 6978TIP3    H120898   3.616   0.965   4.258 -0.1888  0.2480 -0.3388
 6978TIP3    H220899   3.515   1.044   4.338  0.2550 -0.3149  0.7959
 6979TIP3   OH220900   1.137   3.054   3.783  0.1872  0.2523  0.7789
 6979TIP3    H120901   1.146   3.001   3.704 -1.4054 -0.8732  1.3011
 6979TIP3    H220902   1.096   3.135   3.754  2.0308  1.0024  0.0834
 6980TIP3   OH220903   4.439   1.594   3.235  0.4486  0.0261 -0.7113
 6980TIP3    H120904   4.521   1.622   3.195 -0.6369  0.5085 -2.7409
 6980TIP3    H220905   4.454   1.502   3.258  1.2235 -0.2154 -2.0553
 6981TIP3   OH220906   4.334   2.276   5.489  0.0775  0.5189  0.5833
 6981TIP3    H120907   4.271   2.246   5.554 -0.3248 -0.3772 -0.1902
 6981TIP3    H220908   4.340   2.204   5.426  1.9910  0.5151  0.7026
 6982TIP3   OH220909   4.121   6.675   4.470  0.3570  0.3799 -0.1234
 6982TIP3    H120910   4.049   6.730   4.438  0.3673 -0.1503 -1.0672
 6982TIP3    H220911   4.082   6.589   4.483  0.4535  0.4741  0.9163
 6983TIP3   OH220912   3.359   5.351   2.511  0.4678  0.2081 -0.0622
 6983TIP3    H120913   3.295   5.279   2.520  1.3663 -0.9605 -2.3421
 6983TIP3    H220914   3.444   5.309   2.521  0.9688  1.3695  0.7326
 6984TIP3   OH220915   5.293   4.764   5.886 -0.0369 -0.1611  0.8560
 6984TIP3    H120916   5.265   4.681   5.848  0.6535 -0.6754  1.4451
 6984TIP3    H220917   5.309   4.821   5.811  0.5010 -0.8981  0.3987
 6985TIP3   OH220918   5.105   5.189   1.090 -0.4730  0.0688  0.2506
 6985TIP3    H120919   5.139   5.130   1.024  1.0593  1.4653 -0.2657
 6985TIP3    H220920   5.029   5.231   1.049 -1.1072 -0.9577  0.3529
 6986TIP3   OH220921   2.209   3.067   0.949  0.0114 -0.0307  0.4743
 6986TIP3    H120922   2.243   3.156   0.958  1.4021 -0.6431  1.7232
 6986TIP3    H220923   2.286   3.011   0.951 -0.9015 -1.3411  0.8177
 6987TIP3   OH220924   2.166   4.331   1.719 -0.5417 -0.3938  0.1413
 6987TIP3    H120925   2.229   4.319   1.789 -0.6713 -0.0114  0.3280
 6987TIP3    H220926   2.099   4.265   1.735  0.1472 -1.2690 -0.4568
 6988TIP3   OH220927   1.835   2.572   1.108 -0.5726 -0.0490 -0.1181
 6988TIP3    H120928   1.889   2.589   1.031 -0.4733 -0.1640 -0.0744
 6988TIP3    H220929   1.797   2.657   1.131  0.4834  0.2639  0.5304
 6989TIP3   OH220930   1.744   0.792   1.434  0.1877 -0.5444 -0.3209
 6989TIP3    H120931   1.656   0.778   1.398  0.1721  1.1093 -0.9957
 6989TIP3    H220932   1.802   0.748   1.371  0.1470  2.1926 -2.4619
 6990TIP3   OH220933   4.928   3.796   3.334  0.3041 -0.3878  0.2799
 6990TIP3    H120934   4.990   3.738   3.288  0.6231 -0.7553  1.1489
 6990TIP3    H220935   4.920   3.758   3.421  2.7993  2.4514  1.9275
 6991TIP3   OH220936   6.914   3.707   1.534  0.3221  0.0926  0.6177
 6991TIP3    H120937   6.904   3.795   1.499  2.4747  0.8938  1.8210
 6991TIP3    H220938   6.852   3.702   1.607  2.7430  2.1250  3.0461
 6992TIP3   OH220939   6.072   1.368   0.060 -0.2781  0.1795 -0.6542
 6992TIP3    H120940   6.116   1.375  -0.024  1.0519 -1.6657 -0.1960
 6992TIP3    H220941   5.990   1.321   0.041  0.8510 -1.8829 -0.7558
 6993TIP3   OH220942   0.886   0.375   4.971  0.1280 -0.0212 -0.2693
 6993TIP3    H120943   0.825   0.415   5.033 -0.1029 -0.3313 -0.2935
 6993TIP3    H220944   0.843   0.382   4.886  0.1325 -0.2235 -0.2894
 6994TIP3   OH220945   6.589   2.447   1.593  0.2506 -0.6540  0.2561
 6994TIP3    H120946   6.680   2.467   1.572 -0.2184  0.3694 -0.9562
 6994TIP3    H220947   6.577   2.481   1.682  1.0648 -0.8720  0.4578
 6995TIP3   OH220948   0.596   0.486   3.551  0.2718 -0.3510 -0.4120
 6995TIP3    H120949   0.551   0.535   3.482 -1.0909 -0.6440  0.2347
 6995TIP3    H220950   0.598   0.396   3.519  1.2531 -0.1798 -0.8504
 6996TIP3   OH220951   1.177   4.569   5.617  0.0778  0.0195  0.3327
 6996TIP3    H120952   1.206   4.653   5.651  0.0909  0.1571 -0.0172
 6996TIP3    H220953   1.134   4.527   5.691  0.4770  0.1398  0.6362
 6997TIP3   OH220954   3.757   3.367   0.813 -0.4427 -0.9209  0.1022
 6997TIP3    H120955   3.738   3.460   0.825  0.3831 -0.7489  0.1275
 6997TIP3    H220956   3.840   3.365   0.765 -0.7444 -1.6424 -0.4127
 6998TIP3   OH220957   3.486   4.009   4.766 -0.2261 -0.0912  0.1273
 6998TIP3    H120958   3.488   3.926   4.814 -1.0616  0.1214  0.5610
 6998TIP3    H220959   3.407   4.053   4.799 -1.0376 -0.0841 -1.6835
 6999TIP3   OH220960   6.960   1.961   3.461 -0.3512  0.7890 -0.5900
 6999TIP3    H120961   7.004   1.883   3.496 -2.5390 -0.3146 -0.1316
 6999TIP3    H220962   6.969   2.027   3.530  0.1715  0.4464 -0.3268
 7000TIP3   OH220963   5.643   0.161   4.536  0.3337  0.4085  0.1559
 7000TIP3    H120964   5.631   0.160   4.441 -1.7266  2.1284  0.3183
 7000TIP3    H220965   5.594   0.238   4.565  0.9133 -0.0849  2.6294
 7001TIP3   OH220966   4.690   2.471   4.443  0.4057  0.5616  0.5620
 7001TIP3    H120967   4.635   2.396   4.466  0.7780  0.7748  2.2680
 7001TIP3    H220968   4.630   2.534   4.404  0.1400 -0.7304 -1.2244
 7002TIP3   OH220969   2.317   3.326   0.886  0.6168 -0.7724  0.2497
 7002TIP3    H120970   2.390   3.287   0.838  0.8671 -1.3097  1.0482
 7002TIP3    H220971   2.295   3.405   0.836  1.9100 -0.4644  0.1310
 7003TIP3   OH220972   0.156   1.800   5.695  0.3962  0.2215 -0.0581
 7003TIP3    H120973   0.181   1.799   5.602 -0.0108 -0.8196 -0.1744
 7003TIP3    H220974   0.097   1.725   5.704 -0.7623  1.2009  0.7298
 7004TIP3   OH220975   2.748   6.198   3.801  0.3196 -0.8144  0.1973
 7004TIP3    H120976   2.653   6.204   3.813  0.6381 -0.6152  3.3910
 7004TIP3    H220977   2.767   6.104   3.806  0.3747 -0.7935  0.3795
 7005TIP3   OH220978   4.531   0.749   4.343 -0.2056 -0.6285 -0.2873
 7005TIP3    H120979   4.517   0.844   4.343  1.0988 -0.4143 -0.9625
 7005TIP3    H220980   4.509   0.722   4.432 -0.0483  0.3993  0.0832
 7006TIP3   OH220981   5.563   3.846   4.635 -0.3495 -0.1587  0.2268
 7006TIP3    H120982   5.598   3.874   4.550  1.4062 -2.7750 -0.0433
 7006TIP3    H220983   5.615   3.893   4.700 -1.2527  1.3489 -0.0916
 7007TIP3   OH220984   4.962   0.748   4.361 -0.0203 -0.3634 -0.0537
 7007TIP3    H120985   5.050   0.751   4.322 -0.2621 -1.6283 -0.7603
 7007TIP3    H220986   4.978   0.737   4.454  0.5697  0.4986 -0.0387
 7008TIP3   OH220987   0.370   2.810   1.737  0.0451  0.0474 -0.0892
 7008TIP3    H120988   0.463   2.805   1.715  0.2967  0.8903  0.6780
 7008TIP3    H220989   0.334   2.874   1.676  0.3695  1.0549  0.7267
 7009TIP3   OH220990   6.028   3.589   2.849  0.3480 -0.6048  0.0062
 7009TIP3    H120991   5.989   3.668   2.888  0.6748  0.4425 -1.6770
 7009TIP3    H220992   6.098   3.622   2.793  1.4587 -2.2216  0.3761
 7010TIP3   OH220993   6.867   3.361   5.588  0.1874 -0.4447 -0.4349
 7010TIP3    H120994   6.804   3.298   5.624 -0.7825  1.6509  1.8151
 7010TIP3    H220995   6.941   3.358   5.648  1.1017 -0.9484 -1.5489
 7011TIP3   OH220996   2.886   0.060   1.574 -0.4577  0.1182  0.2535
 7011TIP3    H120997   2.929   0.125   1.628 -0.6305  0.2425  0.2434
 7011TIP3    H220998   2.811   0.106   1.536  0.1559  0.2923 -0.7909
 7012TIP3   OH220999   1.612   0.045   5.861  0.3792 -0.0368  0.5193
 7012TIP3    H121000   1.524   0.042   5.822 -0.2495  0.4305  1.8561
 7012TIP3    H221001   1.653  -0.037   5.833 -0.8956 -0.8106  0.8158
 7013TIP3   OH221002   2.013   2.644   4.919  0.1297 -0.5182  0.0562
 7013TIP3    H121003   2.078   2.702   4.958  0.1558 -0.0430 -0.6685
 7013TIP3    H221004   1.973   2.696   4.850  1.2932 -1.8592 -1.7305
 7014TIP3   OH221005   6.049   2.898   2.504 -0.2675 -0.0088  0.3285
 7014TIP3    H121006   5.959   2.865   2.509 -0.0146 -0.6174  1.0218
 7014TIP3    H221007   6.056   2.959   2.578  0.7162 -2.0764  2.0273
 7015TIP3   OH221008   6.468   5.426   4.978 -0.3302 -0.1641 -0.1508
 7015TIP3    H121009   6.491   5.354   5.037 -2.5166 -2.9353 -2.3724
 7015TIP3    H221010   6.374   5.415   4.961 -0.0825  1.1992 -3.1227
 7016TIP3   OH221011   3.578   0.927   2.151 -0.4163  0.7695 -0.0910
 7016TIP3    H121012   3.516   0.995   2.126  1.0625  1.9690 -0.6225
 7016TIP3    H221013   3.579   0.867   2.077 -3.5600 -1.3108  1.3456
 7017TIP3   OH221014   6.267   0.161   0.914 -0.3315  0.9804 -0.0789
 7017TIP3    H121015   6.247   0.146   1.007  0.9518  2.5191  0.4971
 7017TIP3    H221016   6.214   0.237   0.890 -1.0681  0.2610 -0.7854
 7018TIP3   OH221017   0.374   6.442   1.484  0.2173 -0.3168 -0.1146
 7018TIP3    H121018   0.357   6.424   1.576 -1.8509 -0.0812 -0.3897
 7018TIP3    H221019   0.308   6.507   1.460  0.4586 -0.6678 -1.8564
 7019TIP3   OH221020   6.478   3.313   4.254  0.0479 -0.3520 -0.4329
 7019TIP3    H121021   6.554   3.366   4.277 -1.4038  1.6666  0.0111
 7019TIP3    H221022   6.499   3.226   4.287  1.1349  0.7260  2.0102
 7020TIP3   OH221023   1.022   2.743   1.529 -0.1272  0.0015 -0.3335
 7020TIP3    H121024   1.069   2.710   1.453  0.1504  1.6842 -0.9179
 7020TIP3    H221025   1.083   2.732   1.602  0.8557  1.3139 -0.9228
 7021TIP3   OH221026   1.292   5.319   5.268 -0.2513  0.2348  0.2138
 7021TIP3    H121027   1.317   5.408   5.290  0.7135  0.2068 -0.6798
 7021TIP3    H221028   1.251   5.285   5.347 -1.2728  1.6883  0.3486
 7022TIP3   OH221029   4.690   3.820   0.426  0.7584  0.2722 -0.3854
 7022TIP3    H121030   4.610   3.767   0.433  1.5131 -0.8229  0.4955
 7022TIP3    H221031   4.671   3.884   0.358  0.2201 -1.9653 -2.4973
 7023TIP3   OH221032   2.720   3.471   2.963  0.2856 -0.6647  0.3026
 7023TIP3    H121033   2.667   3.550   2.951  1.1755 -0.0812  0.1131
 7023TIP3    H221034   2.732   3.436   2.875 -1.7603 -2.1512  0.5562
 7024TIP3   OH221035   1.973   5.795   1.790 -0.0695  0.3395  0.4104
 7024TIP3    H121036   1.984   5.802   1.884 -0.5384  0.0951  0.4880
 7024TIP3    H221037   1.878   5.802   1.776 -0.1466 -1.0140  0.0917
 7025TIP3   OH221038   5.404   5.591   0.157  0.4647  0.1129 -0.0434
 7025TIP3    H121039   5.327   5.635   0.195  0.1049 -0.4701 -0.0866
 7025TIP3    H221040   5.427   5.645   0.081  0.3667  0.5341  0.2240
 7026TIP3   OH221041   4.585   6.343   0.786 -0.1168 -0.0331  0.3479
 7026TIP3    H121042   4.616   6.352   0.695 -0.4288  1.0649  0.3258
 7026TIP3    H221043   4.661   6.309   0.834 -0.7434 -3.3322 -0.7710
 7027TIP3   OH221044   3.583   3.447   4.499  0.3186 -0.1034 -0.0197
 7027TIP3    H121045   3.583   3.492   4.414  1.2442 -1.1077 -0.5737
 7027TIP3    H221046   3.667   3.469   4.537 -0.0377  0.2231  0.5949
 7028TIP3   OH221047   2.204   1.317   1.776  0.3141 -0.5017  0.2211
 7028TIP3    H121048   2.120   1.343   1.814 -0.8497 -2.8195 -0.6179
 7028TIP3    H221049   2.251   1.400   1.763 -1.6037  0.7989  1.1922
 7029TIP3   OH221050   5.126   0.184   2.743  0.4378 -0.4272  0.5249
 7029TIP3    H121051   5.146   0.194   2.836  0.2503 -0.8457  0.6104
 7029TIP3    H221052   5.211   0.186   2.700  0.4826  0.5189  0.6297
 7030TIP3   OH221053   0.426   3.071   3.545 -0.2805  0.0989  0.5298
 7030TIP3    H121054   0.463   3.054   3.458 -1.6991 -0.4202  0.0031
 7030TIP3    H221055   0.479   3.018   3.604  2.1611  2.1312  0.3590
 7031TIP3   OH221056   4.479   2.633   3.998 -0.1289 -0.1743  0.1184
 7031TIP3    H121057   4.391   2.598   3.983  0.4939 -1.5492 -0.5115
 7031TIP3    H221058   4.515   2.647   3.911  0.5424 -0.3478  0.3570
 7032TIP3   OH221059   1.382   2.164   3.228  0.3136  0.3475  0.3935
 7032TIP3    H121060   1.301   2.157   3.278 -0.4915  0.1300 -0.9010
 7032TIP3    H221061   1.365   2.233   3.164  0.7905 -0.3637 -0.5288
 7033TIP3   OH221062   1.623   3.744   4.238  0.3564  0.1438 -0.3022
 7033TIP3    H121063   1.617   3.782   4.326 -0.8141 -1.1496  0.2164
 7033TIP3    H221064   1.539   3.764   4.197  0.9766  0.9261 -1.2248
 7034TIP3   OH221065   1.828   4.861   4.058  0.5328  0.9859  0.0206
 7034TIP3    H121066   1.853   4.907   4.139 -0.4249 -1.6418  1.9756
 7034TIP3    H221067   1.892   4.789   4.052 -1.9091 -1.4418  1.0011
 7035TIP3   OH221068   4.560   0.108   0.692  0.3600  0.3076  0.1115
 7035TIP3    H121069   4.507   0.155   0.627  1.2706  2.7722  1.0226
 7035TIP3    H221070   4.516   0.024   0.702 -0.5192  0.3284 -2.7345
 7036TIP3   OH221071   4.079   0.992   4.816  0.8230  0.0481  0.7112
 7036TIP3    H121072   4.075   0.996   4.720  1.2193 -0.5743  0.6625
 7036TIP3    H221073   4.125   1.072   4.841  1.0594  0.0286  0.3516
 7037TIP3   OH221074   1.778   3.707   3.964  0.0211  0.4492  0.0348
 7037TIP3    H121075   1.839   3.742   4.029 -0.1355  0.0337  0.4107
 7037TIP3    H221076   1.700   3.763   3.971 -0.5354 -0.4235  1.1843
 7038TIP3   OH221077   4.780   4.250   1.281 -0.7375 -0.2621  0.4464
 7038TIP3    H121078   4.867   4.252   1.321  0.4424  2.2744 -1.9531
 7038TIP3    H221079   4.755   4.157   1.284  3.4168 -1.7134 -1.3552
 7039TIP3   OH221080   0.442   3.846   1.408  0.1712 -0.3738  0.1444
 7039TIP3    H121081   0.371   3.895   1.450  0.1516 -0.0488 -0.2560
 7039TIP3    H221082   0.422   3.755   1.427 -1.1430 -0.3901 -1.1270
 7040TIP3   OH221083   4.350   1.499   0.506 -0.5707  0.0194 -0.4193
 7040TIP3    H121084   4.300   1.486   0.587  0.3385 -1.6290 -0.0778
 7040TIP3    H221085   4.311   1.576   0.466 -1.3822  0.5714  1.3381
 7041TIP3   OH221086   5.301   3.791   4.143 -0.5206  0.4727  0.0230
 7041TIP3    H121087   5.224   3.845   4.164 -0.3840  0.4242  0.6499
 7041TIP3    H221088   5.297   3.718   4.204  0.8176  1.2232  1.0613
 7042TIP3   OH221089   1.401   6.570   1.590  0.1678 -0.1601  0.6562
 7042TIP3    H121090   1.468   6.601   1.528 -0.0589 -1.4300 -0.2636
 7042TIP3    H221091   1.342   6.645   1.600 -0.3930 -0.2456 -1.5494
 7043TIP3   OH221092   0.925   1.026   1.793 -0.3523  0.0335  0.1479
 7043TIP3    H121093   0.866   0.970   1.844  0.1193  0.5587  1.3001
 7043TIP3    H221094   0.869   1.065   1.726 -1.4152  0.8373  1.4645
 7044TIP3   OH221095   0.727   5.755   5.557 -0.0373 -0.4558  0.1489
 7044TIP3    H121096   0.798   5.786   5.500 -0.3616  0.9022  0.4544
 7044TIP3    H221097   0.654   5.739   5.498  0.0555 -0.3918  0.0166
 7045TIP3   OH221098   1.756   5.128   2.443 -0.2428  0.3422  0.1381
 7045TIP3    H121099   1.773   5.035   2.432  0.8287  0.3667  1.4713
 7045TIP3    H221100   1.835   5.164   2.482 -0.1793  2.0523 -1.3850
 7046TIP3   OH221101   7.125   1.030   3.845  0.7426 -0.5834  0.0891
 7046TIP3    H121102   7.208   1.074   3.828  0.0241  1.0393  0.5845
 7046TIP3    H221103   7.103   1.054   3.935 -0.1791 -1.1171  0.0168
 7047TIP3   OH221104   6.501   5.640   3.546 -0.4806  0.0361 -0.0718
 7047TIP3    H121105   6.565   5.649   3.617 -0.6173 -0.0022  0.0539
 7047TIP3    H221106   6.531   5.704   3.480  0.3377 -0.7602 -0.5025
 7048TIP3   OH221107   5.370   5.532   0.973 -0.2016  0.3806 -0.0926
 7048TIP3    H121108   5.278   5.518   0.950 -0.4227  0.7415  0.5407
 7048TIP3    H221109   5.367   5.592   1.048  0.6525  2.3889 -1.5981
 7049TIP3   OH221110   2.483   6.013   0.353 -0.2231  0.1678 -0.1949
 7049TIP3    H121111   2.459   6.010   0.261 -1.3213 -1.3632  0.1057
 7049TIP3    H221112   2.511   6.104   0.367 -1.2747  0.7719 -1.7240
 7050TIP3   OH221113   1.086   3.967   3.702  0.3573 -0.4028 -0.1792
 7050TIP3    H121114   0.996   3.985   3.675 -0.4163 -2.1013  1.1361
 7050TIP3    H221115   1.097   4.015   3.783  1.0316  0.6778 -0.8857
 7051TIP3   OH221116   4.642   3.084   3.493 -0.6769  0.0578  0.1245
 7051TIP3    H121117   4.552   3.101   3.467 -0.5433  1.2633  0.3905
 7051TIP3    H221118   4.645   3.106   3.587 -0.0453  0.3063  0.0542
 7052TIP3   OH221119   2.039   5.668   3.121 -0.5068 -0.0541 -0.7622
 7052TIP3    H121120   2.013   5.735   3.058 -0.1646  3.0568  2.1381
 7052TIP3    H221121   1.967   5.664   3.183  0.8942  0.1051  0.9393
 7053TIP3   OH221122   1.369   2.340   3.632  0.4193 -0.4875  0.4612
 7053TIP3    H121123   1.443   2.345   3.571  0.5069 -1.4961  0.4664
 7053TIP3    H221124   1.358   2.247   3.648  0.0423 -0.2635  1.5670
 7054TIP3   OH221125   3.963   5.555   4.296 -0.4165  0.5104  0.0904
 7054TIP3    H121126   3.980   5.617   4.367  2.1787  0.9145 -0.7531
 7054TIP3    H221127   4.031   5.574   4.232  0.2028 -2.8655 -0.4226
 7055TIP3   OH221128   4.066   1.440   2.964 -0.2100 -0.1416 -0.3831
 7055TIP3    H121129   4.152   1.398   2.962  0.6493  1.3631  1.4232
 7055TIP3    H221130   4.014   1.394   2.898  0.6449 -3.9888  1.3704
 7056TIP3   OH221131   0.946   6.698   0.646  0.2477  0.3396 -0.0476
 7056TIP3    H121132   1.040   6.715   0.635  0.7732 -1.7937  0.6100
 7056TIP3    H221133   0.934   6.608   0.615 -1.4554  0.3512  0.4681
 7057TIP3   OH221134   6.855   6.701   1.212 -0.2205  0.2177 -0.1135
 7057TIP3    H121135   6.903   6.638   1.267  1.3222  2.1554  0.9084
 7057TIP3    H221136   6.766   6.667   1.209  0.4101 -1.6971  0.8475
 7058TIP3   OH221137   6.778   4.470   0.144  0.7362 -0.6967 -0.1805
 7058TIP3    H121138   6.838   4.476   0.219  2.1934  0.7958 -1.3570
 7058TIP3    H221139   6.750   4.561   0.130 -1.3448 -1.2813 -0.0778
 7059TIP3   OH221140   2.500   3.903   5.649 -0.0163  0.3342 -0.5889
 7059TIP3    H121141   2.589   3.924   5.678  0.0790  1.1897 -1.4399
 7059TIP3    H221142   2.450   3.983   5.666 -0.5203  0.0112 -0.5238
 7060TIP3   OH221143   2.748   6.014   2.217 -0.1748  0.2889 -0.3195
 7060TIP3    H121144   2.795   5.956   2.277  0.1297  0.8922  0.0350
 7060TIP3    H221145   2.768   6.103   2.248  0.9493  0.6740 -2.0123
 7061TIP3   OH221146   4.811   5.135   0.120  0.6913 -0.5318  0.0181
 7061TIP3    H121147   4.723   5.130   0.081 -0.7343  0.7459  2.7809
 7061TIP3    H221148   4.856   5.057   0.088 -1.8402 -1.8565 -0.5755
 7062TIP3   OH221149   4.628   1.867   0.285 -0.6018 -0.0761 -0.0782
 7062TIP3    H121150   4.633   1.840   0.377 -0.7691 -0.8593 -0.2867
 7062TIP3    H221151   4.685   1.943   0.279 -0.4594 -0.1150  0.6424
 7063TIP3   OH221152   5.375   2.961   3.378  0.0277 -0.1183  0.5841
 7063TIP3    H121153   5.382   2.990   3.287 -0.3956  0.2400  0.6673
 7063TIP3    H221154   5.416   3.030   3.429  1.8030 -1.0781  0.5563
 7064TIP3   OH221155   5.545   0.434   1.704  0.3045  0.4528  0.2056
 7064TIP3    H121156   5.588   0.396   1.781 -2.6578 -1.0581  1.2942
 7064TIP3    H221157   5.587   0.519   1.693  1.9405  0.0532  2.4995
 7065TIP3   OH221158   1.103   3.679   4.954  0.5518  0.1198 -0.1679
 7065TIP3    H121159   1.081   3.586   4.944 -0.5013  0.2954  0.3058
 7065TIP3    H221160   1.068   3.721   4.875 -0.4527  0.3335  0.3709
 7066TIP3   OH221161   1.213   5.058   2.790 -0.0825  0.0334  0.1440
 7066TIP3    H121162   1.243   5.002   2.862 -0.2937 -0.1877  0.0579
 7066TIP3    H221163   1.135   5.101   2.825 -0.2975 -0.2221 -0.0245
 7067TIP3   OH221164   6.416   1.455   2.493  0.3031  0.2533  0.0327
 7067TIP3    H121165   6.450   1.368   2.512  0.0944 -0.0582 -0.9527
 7067TIP3    H221166   6.372   1.446   2.409  0.3454  1.3344 -0.1234
 7068TIP3   OH221167   3.573   4.132   1.820  0.2292  0.0010  0.4366
 7068TIP3    H121168   3.496   4.136   1.877 -0.8731 -0.8520 -0.9362
 7068TIP3    H221169   3.559   4.201   1.756 -1.5068 -2.6607 -2.2813
 7069TIP3   OH221170   0.093   1.893   5.192 -0.4049  0.2070  0.7301
 7069TIP3    H121171   0.030   1.868   5.260 -1.9298  1.1824 -0.2554
 7069TIP3    H221172   0.110   1.986   5.209  0.1922  0.1451  0.5042
 7070TIP3   OH221173   6.086   2.933   3.198 -0.3685  0.6166 -0.2390
 7070TIP3    H121174   6.052   3.009   3.244 -0.7328  0.7275 -0.6879
 7070TIP3    H221175   6.018   2.866   3.207  0.2854  0.0572  0.8475
 7071TIP3   OH221176   6.261   4.275   2.285  0.5158  0.7006 -0.4003
 7071TIP3    H121177   6.232   4.348   2.339  0.7667  0.5117 -0.0059
 7071TIP3    H221178   6.191   4.210   2.291  0.7559  0.4834  0.0844
 7072TIP3   OH221179   5.813   2.258   2.041  0.1021 -0.1241 -0.6953
 7072TIP3    H121180   5.832   2.352   2.041 -0.8532  0.0850  0.3207
 7072TIP3    H221181   5.872   2.222   2.107 -2.2553  0.4204  1.9275
 7073TIP3   OH221182   3.714   4.795   0.241  0.3569 -0.1793  0.1917
 7073TIP3    H121183   3.751   4.780   0.327 -0.4950 -0.1595  0.5709
 7073TIP3    H221184   3.626   4.757   0.245  0.6934 -1.1663 -1.0195
 7074TIP3   OH221185   3.177   0.386   3.993  0.2556  0.8224 -0.3583
 7074TIP3    H121186   3.163   0.316   3.930  0.7659 -0.0206  0.4344
 7074TIP3    H221187   3.098   0.439   3.989  0.4829  1.0803 -2.0415
 7075TIP3   OH221188   5.691   2.637   0.620  0.1826 -0.3669 -0.1724
 7075TIP3    H121189   5.700   2.600   0.707  2.0366  0.1124 -0.1251
 7075TIP3    H221190   5.602   2.613   0.593 -0.5144 -0.3396  1.9124
 7076TIP3   OH221191   1.892   3.736   2.063  0.4297  0.0198  0.1709
 7076TIP3    H121192   1.818   3.689   2.025  1.3613 -2.6715  1.3989
 7076TIP3    H221193   1.865   3.756   2.152  0.8898 -0.3364  0.3977
 7077TIP3   OH221194   6.663   2.072   1.713 -0.9177 -0.2414  0.3849
 7077TIP3    H121195   6.696   2.046   1.799  0.2837  0.4984  0.1594
 7077TIP3    H221196   6.741   2.091   1.662 -1.6674  0.8078 -0.4043
 7078TIP3   OH221197   1.355   3.895   4.273  0.1007  0.5613  0.0245
 7078TIP3    H121198   1.274   3.845   4.285 -1.4835  2.2280 -2.5928
 7078TIP3    H221199   1.353   3.961   4.342 -0.0612 -0.2141  0.7822
 7079TIP3   OH221200   1.106   3.516   2.503  0.3081  0.1649  0.2045
 7079TIP3    H121201   1.042   3.460   2.460  1.7396 -0.7649 -0.8144
 7079TIP3    H221202   1.067   3.603   2.502 -0.6695 -0.2655 -0.9369
 7080TIP3   OH221203   3.552   5.300   2.211 -0.3687 -0.4375  0.1144
 7080TIP3    H121204   3.575   5.290   2.119  0.1712  1.6071 -0.0367
 7080TIP3    H221205   3.514   5.388   2.217  2.8209  1.0174  2.3463
 7081TIP3   OH221206   4.011   2.183   3.956  0.8850 -0.1522  0.3671
 7081TIP3    H121207   4.090   2.208   3.908  2.4036 -1.7560  1.8978
 7081TIP3    H221208   4.010   2.087   3.952  0.3778 -0.2687  2.4259
 7082TIP3   OH221209   4.628   2.614   2.138  0.0708 -0.4619  0.4992
 7082TIP3    H121210   4.551   2.666   2.112  0.7753  0.7110  0.6845
 7082TIP3    H221211   4.593   2.546   2.194 -0.8643 -0.0565  0.4305
 7083TIP3   OH221212   2.742   1.076   2.343  0.4906  0.8612  0.2983
 7083TIP3    H121213   2.747   0.986   2.312  1.3001  1.3655 -1.1178
 7083TIP3    H221214   2.679   1.073   2.415 -0.1387 -0.6801 -0.2796
 7084TIP3   OH221215   4.095   2.829   0.196  0.0605  0.7320  0.1824
 7084TIP3    H121216   4.166   2.853   0.136  0.9449 -1.4788  0.2188
 7084TIP3    H221217   4.129   2.851   0.283  0.1267  0.9565  0.0995
 7085TIP3   OH221218   0.340   1.887   4.412 -0.5126 -0.2690 -0.0551
 7085TIP3    H121219   0.313   1.881   4.321 -0.5160  0.8438 -0.1326
 7085TIP3    H221220   0.294   1.963   4.446  0.8844  0.4156  0.3819
 7086TIP3   OH221221   1.830   2.807   4.419  0.1065  0.0739 -0.2801
 7086TIP3    H121222   1.755   2.747   4.413 -1.0859  1.3960  0.6192
 7086TIP3    H221223   1.891   2.763   4.478  0.3717 -1.3174 -1.5335
 7087TIP3   OH221224   0.911   4.997   2.041  0.5227  0.0133  0.0535
 7087TIP3    H121225   0.896   5.055   2.116  1.5476 -0.3972  0.5958
 7087TIP3    H221226   1.004   4.976   2.045  0.4619 -0.5234 -0.9762
 7088TIP3   OH221227   1.949   4.789   2.549 -0.0223 -0.3732 -0.3323
 7088TIP3    H121228   1.858   4.821   2.549 -0.6938 -2.1524 -0.9162
 7088TIP3    H221229   1.945   4.706   2.596  1.6878  0.3993  1.2732
 7089TIP3   OH221230   4.645   3.371   4.188 -0.2713  0.2991  0.7995
 7089TIP3    H121231   4.661   3.434   4.118 -2.0911  1.0148  0.9650
 7089TIP3    H221232   4.551   3.377   4.205  0.1468  0.5086  3.6114
 7090TIP3   OH221233   3.862   2.332   1.048  0.4889 -0.2758 -0.1635
 7090TIP3    H121234   3.893   2.393   0.982 -0.7605 -1.6427 -2.1147
 7090TIP3    H221235   3.933   2.327   1.112  2.2349  0.2370 -1.9756
 7091TIP3   OH221236   4.580   5.710   5.770 -0.1676  0.3682 -0.0448
 7091TIP3    H121237   4.497   5.736   5.728 -0.7653  1.2248  1.5909
 7091TIP3    H221238   4.635   5.788   5.763  0.2120  0.0677 -0.4100
 7092TIP3   OH221239   2.259   3.736   3.630 -0.1795 -0.0451  0.5642
 7092TIP3    H121240   2.242   3.808   3.570  0.1846  0.7121  1.3408
 7092TIP3    H221241   2.319   3.678   3.582  0.4535  0.7719  0.3446
 7093TIP3   OH221242   1.025   1.535   4.962 -0.2179 -0.3196  0.1240
 7093TIP3    H121243   1.060   1.615   4.924 -0.4475  0.1118  0.8176
 7093TIP3    H221244   1.101   1.478   4.974 -0.1129 -0.3789 -0.7647
 7094TIP3   OH221245   2.916   4.847   2.604 -0.2224 -0.0659  0.2396
 7094TIP3    H121246   2.949   4.761   2.577  0.4471  0.0747  0.5939
 7094TIP3    H221247   2.973   4.873   2.675 -0.8214  0.3984  0.5559
 7095TIP3   OH221248   3.498   0.529   1.532 -0.1489  0.3724 -0.2556
 7095TIP3    H121249   3.546   0.598   1.577  0.9148  0.1705 -1.0491
 7095TIP3    H221250   3.510   0.452   1.588  0.2536  0.3764 -0.3367
 7096TIP3   OH221251   1.232   5.014   2.506 -0.1171 -0.0577  0.1896
 7096TIP3    H121252   1.243   5.013   2.602  1.9420  1.1584  0.0205
 7096TIP3    H221253   1.294   4.948   2.475 -1.4298 -1.1100 -0.3093
 7097TIP3   OH221254   6.412   1.766   5.560  0.1975 -0.2112  0.3072
 7097TIP3    H121255   6.399   1.857   5.587  0.3034 -0.1745  0.2326
 7097TIP3    H221256   6.504   1.760   5.536  0.6398 -0.7875  2.0122
 7098TIP3   OH221257   3.298   2.352   2.342  0.3927 -0.7337 -0.1660
 7098TIP3    H121258   3.223   2.411   2.355  0.7279 -0.4785  0.6150
 7098TIP3    H221259   3.298   2.295   2.418  0.2189 -1.6016 -0.8018
 7099TIP3   OH221260   6.575   4.281   0.266  0.5312 -0.5327 -0.4463
 7099TIP3    H121261   6.615   4.353   0.218  1.0580 -1.0382 -0.7824
 7099TIP3    H221262   6.618   4.281   0.351  0.1164 -0.0927 -0.2316
 7100TIP3   OH221263   6.239   6.443   3.574  0.3959 -0.0937 -0.0332
 7100TIP3    H121264   6.318   6.410   3.532  0.4151 -1.8205  1.2482
 7100TIP3    H221265   6.167   6.411   3.519  0.4996 -0.4022  0.0128
 7101TIP3   OH221266   1.976   6.767   3.720 -0.6082  0.0397  0.0391
 7101TIP3    H121267   1.931   6.836   3.671 -0.9238  1.1278  1.7684
 7101TIP3    H221268   1.921   6.753   3.798 -0.2720 -1.8116  0.0023
 7102TIP3   OH221269   1.904   6.655   0.364 -0.6503 -0.2444  0.3041
 7102TIP3    H121270   1.890   6.560   0.356 -2.8357 -0.0229  0.6679
 7102TIP3    H221271   1.858   6.679   0.444  1.7988  0.8377  1.4553
 7103TIP3   OH221272   6.356   1.651   3.258 -0.0101  0.5565  0.1658
 7103TIP3    H121273   6.336   1.743   3.277 -0.0486  1.0291 -1.9114
 7103TIP3    H221274   6.327   1.638   3.167  0.2531 -1.4389  0.3067
 7104TIP3   OH221275   4.892   2.845   1.932  0.1006 -0.3205  0.0052
 7104TIP3    H121276   4.902   2.936   1.905 -1.8863 -0.2335 -0.5465
 7104TIP3    H221277   4.799   2.827   1.924 -0.3050 -1.1391  4.1466
 7105TIP3   OH221278   5.623   3.244   3.383 -0.1760  0.1605  0.3763
 7105TIP3    H121279   5.598   3.215   3.295 -1.0413  0.2835  0.5727
 7105TIP3    H221280   5.649   3.163   3.428  0.7281  0.1581 -0.1307
 7106TIP3   OH221281   1.770   6.666   0.115  0.0025  0.3363 -0.5347
 7106TIP3    H121282   1.736   6.578   0.133  0.6314 -0.1050 -1.4363
 7106TIP3    H221283   1.816   6.690   0.196 -3.0876  1.3286  1.0880
 7107TIP3   OH221284   0.190   4.862   2.557 -0.2977  0.2572 -0.5250
 7107TIP3    H121285   0.161   4.818   2.636  0.4327  1.3664  0.3901
 7107TIP3    H221286   0.231   4.942   2.588  0.4208  0.4916 -2.0000
 7108TIP3   OH221287   1.820   1.742   2.686 -0.6404  0.3300 -0.4608
 7108TIP3    H121288   1.907   1.703   2.691  0.3666  2.3877 -0.5216
 7108TIP3    H221289   1.770   1.685   2.628 -0.0099 -2.0174  1.1619
 7109TIP3   OH221290   4.882   3.280   3.238 -0.1063 -0.1478  0.3194
 7109TIP3    H121291   4.956   3.293   3.179 -0.2200 -0.9600 -0.0091
 7109TIP3    H221292   4.828   3.214   3.195 -0.6014 -0.1680  0.9552
 7110TIP3   OH221293   6.811   6.645   4.652 -0.1201 -0.1146  0.3214
 7110TIP3    H121294   6.744   6.623   4.717 -1.3117  0.3976 -0.6972
 7110TIP3    H221295   6.775   6.720   4.604  1.8213  1.1292  0.6746
 7111TIP3   OH221296   6.658   3.661   2.972  0.6641 -0.0791  0.7781
 7111TIP3    H121297   6.573   3.627   2.997  1.0614 -0.7531  1.2204
 7111TIP3    H221298   6.639   3.747   2.934 -0.3048 -0.6448 -0.0521
 7112TIP3   OH221299   4.966   2.068   5.298 -0.1511 -0.1448 -0.3680
 7112TIP3    H121300   5.007   2.130   5.359 -2.2051  0.4019  0.5385
 7112TIP3    H221301   4.947   1.990   5.352  0.8341 -0.9074 -1.0853
 7113TIP3   OH221302   1.672   4.311   1.353 -0.9006  0.2639  0.0182
 7113TIP3    H121303   1.687   4.299   1.259 -3.4513  2.0163 -0.7492
 7113TIP3    H221304   1.691   4.226   1.392 -0.3156 -0.6765 -2.1696
 7114TIP3   OH221305   6.388   2.081   2.812  0.3759  0.3147  0.6126
 7114TIP3    H121306   6.344   2.003   2.846  1.7278 -1.2645 -1.0993
 7114TIP3    H221307   6.448   2.049   2.745  2.2878  2.6540  1.0546
 7115TIP3   OH221308   3.625   6.608   0.591  0.1316  0.0785  0.4196
 7115TIP3    H121309   3.646   6.650   0.675 -0.1387 -0.3282  0.6936
 7115TIP3    H221310   3.608   6.681   0.532 -0.1597  0.3679  0.8503
 7116TIP3   OH221311   7.122   6.612   2.506  0.1290 -0.3076  0.0456
 7116TIP3    H121312   7.040   6.662   2.508 -1.1525 -2.1802 -1.8280
 7116TIP3    H221313   7.104   6.533   2.556  0.3168 -1.3174 -1.4099
 7117TIP3   OH221314   5.394   4.492   4.402  0.1565  0.1043  0.1113
 7117TIP3    H121315   5.454   4.425   4.369  0.7348  0.7443 -0.1530
 7117TIP3    H221316   5.376   4.464   4.492  0.6115 -0.2584  0.0969
 7118TIP3   OH221317   2.515   3.513   1.835  0.2750 -0.5126  0.0333
 7118TIP3    H121318   2.492   3.456   1.909 -0.9481 -2.1964 -1.5592
 7118TIP3    H221319   2.449   3.494   1.768  1.5947  0.6072 -1.6713
 7119TIP3   OH221320   2.242   0.043   1.867  0.1311 -0.3665 -0.3898
 7119TIP3    H121321   2.271  -0.048   1.871  0.3843 -0.2623  0.4571
 7119TIP3    H221322   2.161   0.045   1.919 -0.8911 -0.4639 -1.9387
 7120TIP3   OH221323   6.797   5.899   1.999  0.1648 -0.2023  0.5163
 7120TIP3    H121324   6.851   5.855   2.065  0.4658  0.3961  0.6767
 7120TIP3    H221325   6.707   5.885   2.029  0.3072  0.2256  1.1615
 7121TIP3   OH221326   2.651   1.906   1.670  0.3084  0.1042  0.2439
 7121TIP3    H121327   2.707   1.856   1.610 -1.3270 -0.1961 -1.1254
 7121TIP3    H221328   2.651   1.855   1.751  0.7593 -0.7046 -0.2469
 7122TIP3   OH221329   5.728   5.915   1.694  0.1403  0.5315 -0.6155
 7122TIP3    H121330   5.759   5.837   1.649  1.3810  0.2254  0.6965
 7122TIP3    H221331   5.648   5.888   1.739 -0.2619  0.4369 -1.3812
 7123TIP3   OH221332   6.350   1.293   0.081 -0.1712 -0.1159  0.4088
 7123TIP3    H121333   6.258   1.309   0.101 -0.8651  2.2161 -3.5973
 7123TIP3    H221334   6.395   1.375   0.099  0.7414 -0.5862  0.3981
 7124TIP3   OH221335   4.486   3.863   2.493  0.5637  0.1721 -0.2720
 7124TIP3    H121336   4.479   3.770   2.513  1.0943  0.3864  1.0896
 7124TIP3    H221337   4.576   3.875   2.463  0.4779  0.2373 -0.5054
 7125TIP3   OH221338   6.991   3.141   2.971  0.3389  0.4461  0.4260
 7125TIP3    H121339   6.954   3.152   2.884  2.9022 -1.0327 -0.9604
 7125TIP3    H221340   6.950   3.061   3.005 -0.3653  0.8078  0.4439
 7126TIP3   OH221341   4.018   3.930   5.087  0.3788 -0.1206 -0.0855
 7126TIP3    H121342   3.981   3.920   5.174 -1.8001  0.2644 -0.9158
 7126TIP3    H221343   4.086   3.997   5.097  0.9730 -0.9082  1.4946
 7127TIP3   OH221344   3.368   3.325   4.715  0.3739 -0.6021 -0.6602
 7127TIP3    H121345   3.460   3.335   4.738  0.3818 -1.1055 -0.4801
 7127TIP3    H221346   3.320   3.342   4.796  0.2505  0.5759 -0.9529
 7128TIP3   OH221347   6.380   0.087   3.090 -0.0342  0.7971 -0.3017
 7128TIP3    H121348   6.319   0.158   3.106  0.5645  1.3080 -0.2501
 7128TIP3    H221349   6.345   0.013   3.140 -0.9419  0.8903 -0.7760
 7129TIP3   OH221350   2.982   5.654   3.667  0.3836 -0.0887  0.0961
 7129TIP3    H121351   3.007   5.747   3.671 -1.3913  0.4505 -0.6216
 7129TIP3    H221352   2.899   5.653   3.620  0.4424 -2.0822 -0.0464
 7130TIP3   OH221353   1.458   6.111   4.114 -0.1924 -0.0247  0.2000
 7130TIP3    H121354   1.389   6.051   4.139 -0.0862  0.1793  1.0068
 7130TIP3    H221355   1.525   6.056   4.074  0.3015 -0.5755  1.7412
 7131TIP3   OH221356   2.486   6.749   5.579  0.4123  0.4499  0.4340
 7131TIP3    H121357   2.403   6.794   5.565  0.6670  1.1615  1.1339
 7131TIP3    H221358   2.462   6.658   5.597 -0.2857  0.8448  1.5870
 7132TIP3   OH221359   4.468   2.840   1.482 -0.3498 -0.0780  0.3533
 7132TIP3    H121360   4.467   2.787   1.561 -1.2971  2.3397  2.0879
 7132TIP3    H221361   4.377   2.839   1.452 -0.3635  0.4949  0.3677
 7133TIP3   OH221362   4.678   5.051   4.072  0.5471  0.2534 -0.2353
 7133TIP3    H121363   4.621   5.076   4.144 -1.7044  0.0394 -1.8067
 7133TIP3    H221364   4.668   4.956   4.066 -1.0544  0.4731 -2.0934
 7134TIP3   OH221365   4.867   3.504   2.084 -0.5508 -0.7967 -0.1260
 7134TIP3    H121366   4.961   3.497   2.104 -0.7909 -0.2468  1.2830
 7134TIP3    H221367   4.859   3.469   1.995  1.3450  1.3256 -1.2242
 7135TIP3   OH221368   0.253   1.829   3.969  0.4006  0.4033 -0.2041
 7135TIP3    H121369   0.303   1.871   4.039 -0.0273  2.5508 -1.1049
 7135TIP3    H221370   0.269   1.883   3.892  1.9331 -2.6088 -2.2083
 7136TIP3   OH221371   0.080   6.319   2.937  0.4244 -0.1406  0.8450
 7136TIP3    H121372   0.112   6.274   3.015  0.0687 -0.3341  0.8787
 7136TIP3    H221373   0.081   6.412   2.961  1.4913 -0.0895  0.6565
 7137TIP3   OH221374   4.053   5.925   0.286 -0.0527  0.0490 -0.0193
 7137TIP3    H121375   4.126   5.984   0.268  0.3407 -0.4724 -0.1748
 7137TIP3    H221376   4.070   5.848   0.231 -0.6357 -0.1487  0.0610
 7138TIP3   OH221377   2.170   6.647   0.584  0.2861 -0.6548  0.0935
 7138TIP3    H121378   2.218   6.717   0.541  0.3261 -0.9333 -0.3200
 7138TIP3    H221379   2.236   6.602   0.638  0.2594 -0.3766  0.3607
 7139TIP3   OH221380   2.684   2.893   5.117  0.2422 -0.5557 -0.2473
 7139TIP3    H121381   2.758   2.936   5.161 -0.1988 -0.1892  0.1410
 7139TIP3    H221382   2.701   2.799   5.129 -0.2885 -0.4681  1.4515
 7140TIP3   OH221383   1.943   1.090   2.332  0.0295 -0.0810 -0.6056
 7140TIP3    H121384   2.010   1.150   2.299  0.2388 -0.7805 -1.5157
 7140TIP3    H221385   1.891   1.142   2.392  1.9055  0.2709  0.7915
 7141TIP3   OH221386   3.018   2.516   0.730  0.4633 -0.1149 -0.3959
 7141TIP3    H121387   2.983   2.570   0.659  2.5235  1.0245 -0.6241
 7141TIP3    H221388   3.111   2.504   0.707  0.9998 -0.3523  1.7149
 7142TIP3   OH221389   3.937   6.686   4.884  0.2930  0.2615  0.3101
 7142TIP3    H121390   3.857   6.657   4.929 -0.1960  0.3912 -0.4708
 7142TIP3    H221391   3.955   6.617   4.820 -0.6061  1.3962 -1.2314
 7143TIP3   OH221392   0.073   2.000   0.798  0.3286 -0.3025 -0.3260
 7143TIP3    H121393   0.075   1.907   0.823  0.4832 -0.1210  0.3556
 7143TIP3    H221394   0.128   2.005   0.720  2.7277 -0.3333  1.2587
 7144TIP3   OH221395   1.614   5.085   1.027  0.1230 -0.3942  0.1778
 7144TIP3    H121396   1.561   5.103   1.105 -1.1450 -0.8484 -0.5455
 7144TIP3    H221397   1.647   5.171   1.001 -0.3214 -0.0877  0.6010
 7145TIP3   OH221398   6.064   4.430   3.899  0.1233 -0.6930 -0.2261
 7145TIP3    H121399   6.074   4.487   3.976  0.8949 -1.3289  0.1487
 7145TIP3    H221400   6.143   4.445   3.847 -0.5392 -0.0214 -1.0853
 7146TIP3   OH221401   0.980   4.988   4.548  0.3499  0.0307 -0.3303
 7146TIP3    H121402   0.922   4.914   4.563  1.0408 -0.6652 -0.9741
 7146TIP3    H221403   0.975   5.040   4.628  0.8857 -1.4397  0.7016
 7147TIP3   OH221404   1.062   5.404   4.580 -0.1068  0.1284 -0.8474
 7147TIP3    H121405   0.987   5.462   4.595 -1.3690 -0.7272 -3.2535
 7147TIP3    H221406   1.057   5.382   4.487  1.8168 -1.8019 -0.5794
 7148TIP3   OH221407   3.862   2.950   1.047 -0.7762 -0.9983 -0.4463
 7148TIP3    H121408   3.898   3.039   1.039 -3.1956 -0.0207 -1.6333
 7148TIP3    H221409   3.840   2.942   1.140 -0.9291 -0.1814 -0.4015
 7149TIP3   OH221410   0.339   2.726   4.496  0.1121 -0.5639 -0.0135
 7149TIP3    H121411   0.256   2.692   4.531  0.0509  0.4946  0.9254
 7149TIP3    H221412   0.338   2.700   4.404 -1.6964  0.1812 -0.2478
 7150TIP3   OH221413   0.929   0.276   5.516 -0.6825 -0.0660  0.7343
 7150TIP3    H121414   0.902   0.311   5.601 -1.2701  1.3311  0.0098
 7150TIP3    H221415   0.891   0.188   5.513 -0.5432 -0.1807  1.9588
 7151TIP3   OH221416   5.326   4.376   2.793 -0.8117 -0.0624 -0.1347
 7151TIP3    H121417   5.343   4.300   2.736 -2.2777 -0.5982  0.0999
 7151TIP3    H221418   5.326   4.340   2.882  0.6087  0.6186  0.1701
 7152TIP3   OH221419   1.797   5.173   2.794  0.1198 -0.2800  0.2807
 7152TIP3    H121420   1.708   5.197   2.769 -1.0246 -0.2113  3.9384
 7152TIP3    H221421   1.790   5.085   2.831  1.4498 -0.0511  1.1671
 7153TIP3   OH221422   3.227   0.633   1.923  0.0868 -0.3203  0.6957
 7153TIP3    H121423   3.158   0.569   1.906  0.5799 -0.9134  0.8974
 7153TIP3    H221424   3.309   0.585   1.909  0.4951  0.8763 -1.4710
 7154TIP3   OH221425   2.070   6.493   2.748  0.0495 -0.6300  0.7844
 7154TIP3    H121426   2.046   6.409   2.786 -0.8843 -1.3204 -1.1993
 7154TIP3    H221427   2.135   6.472   2.682 -1.4652 -0.0718 -0.9600
 7155TIP3   OH221428   0.102   1.982   3.396 -0.1695  0.6978 -0.0790
 7155TIP3    H121429   0.071   1.999   3.485 -0.3230 -0.0530  0.0256
 7155TIP3    H221430   0.078   1.890   3.380  1.0816  0.4027 -0.3872
 7156TIP3   OH221431   6.764   1.658   1.418 -0.3610  0.4308 -0.8181
 7156TIP3    H121432   6.674   1.648   1.450 -0.4229  0.9753 -0.8228
 7156TIP3    H221433   6.775   1.587   1.355 -0.6667  0.1385 -0.5435
 7157TIP3   OH221434   1.115   3.110   2.369  0.1018 -0.0687  0.2024
 7157TIP3    H121435   1.105   3.174   2.440 -0.7404 -2.8756  2.8372
 7157TIP3    H221436   1.028   3.073   2.357  1.1310 -3.1870  1.4166
 7158TIP3   OH221437   0.772   0.684   4.734  1.0765  0.5878 -0.4262
 7158TIP3    H121438   0.856   0.728   4.726  0.9241  0.7074 -1.5279
 7158TIP3    H221439   0.758   0.642   4.649  0.3598 -0.0366 -0.0190
 7159TIP3   OH221440   4.877   1.412   2.001 -0.1221  0.4356 -0.4137
 7159TIP3    H121441   4.836   1.493   2.031 -0.3013 -0.4741  2.0455
 7159TIP3    H221442   4.961   1.409   2.046 -0.1178 -0.7400 -0.4561
 7160TIP3   OH221443   5.168   1.002   0.351  0.0107 -0.3799 -0.6169
 7160TIP3    H121444   5.162   0.937   0.281 -1.3321 -1.4960  0.4811
 7160TIP3    H221445   5.077   1.025   0.369  0.3382 -0.1096  0.7653
 7161TIP3   OH221446   2.542   3.396   0.122 -0.0961  0.4120  0.1855
 7161TIP3    H121447   2.610   3.372   0.185 -1.8892  1.9069  2.8626
 7161TIP3    H221448   2.481   3.323   0.123 -0.7777  0.9803  1.2028
 7162TIP3   OH221449   2.828   6.450   0.830 -0.3495  0.4599 -0.3993
 7162TIP3    H121450   2.857   6.370   0.786 -1.6830  0.7558 -1.9007
 7162TIP3    H221451   2.902   6.510   0.824  0.2678 -0.2648 -0.2316
 7163TIP3   OH221452   3.846   0.982   2.229 -0.1543  0.4124 -0.4702
 7163TIP3    H121453   3.754   0.982   2.255 -0.9559  0.0114 -3.0176
 7163TIP3    H221454   3.852   1.051   2.162  1.6987  1.2361  0.4651
 7164TIP3   OH221455   5.570   6.187   5.630 -0.1191 -0.2984 -0.1487
 7164TIP3    H121456   5.663   6.170   5.643 -0.3121  0.2009  2.2493
 7164TIP3    H221457   5.527   6.107   5.659 -0.5129  0.2962  0.9725
 7165TIP3   OH221458   4.960   1.017   4.280 -0.1491  0.2278  0.2713
 7165TIP3    H121459   4.935   0.928   4.304 -1.8668  0.3888 -0.7205
 7165TIP3    H221460   4.891   1.072   4.316 -0.2146  0.9264 -0.8549
 7166TIP3   OH221461   4.880   5.250   4.055 -0.0070 -0.0938 -0.2001
 7166TIP3    H121462   4.813   5.186   4.078 -0.0223  0.4037  1.1955
 7166TIP3    H221463   4.915   5.219   3.971 -1.1782 -0.9858 -0.3782
 7167TIP3   OH221464   3.563   0.521   4.189 -0.3560  0.3054  0.0934
 7167TIP3    H121465   3.650   0.545   4.221  1.5694 -3.0084 -1.9950
 7167TIP3    H221466   3.531   0.458   4.253 -0.9355  1.0280  0.5193
 7168TIP3   OH221467   6.755   5.508   2.775 -0.7803 -0.2800 -0.4352
 7168TIP3    H121468   6.768   5.567   2.701 -2.1636 -0.6797 -1.0229
 7168TIP3    H221469   6.713   5.431   2.738  0.2383 -1.2949  0.4705
 7169TIP3   OH221470   0.745   6.168   2.614 -0.4277 -0.0633 -0.0291
 7169TIP3    H121471   0.781   6.245   2.658  0.6875 -0.0854 -0.8530
 7169TIP3    H221472   0.743   6.100   2.681 -2.5238  0.9399  1.0443
 7170TIP3   OH221473   0.423   6.558   5.300 -0.0521 -0.2827  0.2630
 7170TIP3    H121474   0.439   6.644   5.261  0.4338 -0.8795 -0.9172
 7170TIP3    H221475   0.497   6.544   5.358  0.3471 -0.2815 -0.2379
 7171TIP3   OH221476   0.885   4.617   3.753 -0.1954 -0.0566  0.2066
 7171TIP3    H121477   0.958   4.628   3.691  1.2956  1.4683  2.0991
 7171TIP3    H221478   0.919   4.557   3.819 -1.6630 -1.4327 -0.2258
 7172TIP3   OH221479   1.750   0.740   3.739  0.3961  0.7899  0.0069
 7172TIP3    H121480   1.746   0.745   3.834  2.3706  1.2123  0.1132
 7172TIP3    H221481   1.753   0.646   3.720  0.8570  0.7132  0.4326
 7173TIP3   OH221482   3.518   6.314   3.877  0.2363 -0.0264  0.1691
 7173TIP3    H121483   3.531   6.320   3.971 -2.1469 -1.1133  0.6625
 7173TIP3    H221484   3.472   6.394   3.853  1.8609  0.7935 -0.3312
 7174TIP3   OH221485   5.804   5.351   1.466 -1.0188 -0.0433 -0.0904
 7174TIP3    H121486   5.835   5.391   1.385  0.7953 -2.3363 -0.6555
 7174TIP3    H221487   5.712   5.333   1.451 -1.1407  1.1694 -0.9360
 7175TIP3   OH221488   5.011   3.389   0.500 -1.3398  0.1281  0.0314
 7175TIP3    H121489   4.945   3.454   0.525 -0.7009  0.7126  0.2145
 7175TIP3    H221490   4.993   3.314   0.558 -1.2358  0.6517  0.7521
 7176TIP3   OH221491   3.730   0.188   0.679  0.6315  0.0906 -0.7098
 7176TIP3    H121492   3.651   0.224   0.719  0.5153 -1.4122  0.5240
 7176TIP3    H221493   3.777   0.264   0.645 -0.7330  1.1329 -0.3362
 7177TIP3   OH221494   3.224   0.584   3.077 -0.0618  0.5485 -0.3981
 7177TIP3    H121495   3.172   0.658   3.110 -1.2334 -0.3544 -0.1648
 7177TIP3    H221496   3.189   0.567   2.990 -1.3972 -1.1819  0.4312
 7178TIP3   OH221497   2.425   6.149   2.469  0.8310 -0.0964  0.4503
 7178TIP3    H121498   2.409   6.155   2.375  0.4515 -0.4924  0.4889
 7178TIP3    H221499   2.342   6.120   2.506  0.4227  1.7529  1.1201
 7179TIP3   OH221500   0.280   6.681   1.678 -0.2152  0.5664 -0.3881
 7179TIP3    H121501   0.357   6.735   1.660  0.6356  0.0533  1.5021
 7179TIP3    H221502   0.315   6.598   1.708 -1.5070  0.2754  0.4171
 7180TIP3   OH221503   2.155   1.124   4.400 -0.7419 -0.0759  0.3829
 7180TIP3    H121504   2.154   1.219   4.389  0.3336 -0.0952  0.0064
 7180TIP3    H221505   2.075   1.105   4.448 -1.1104  0.9919  0.2172
 7181TIP3   OH221506   4.387   6.250   2.413 -0.1174 -0.1674 -0.0311
 7181TIP3    H121507   4.389   6.210   2.500  1.7358  0.5221  0.2999
 7181TIP3    H221508   4.383   6.344   2.431  0.6248 -0.0028 -0.6567
 7182TIP3   OH221509   5.821   1.287   0.448  0.0384  0.5073  0.2807
 7182TIP3    H121510   5.741   1.270   0.399  0.9635  1.2171 -1.5605
 7182TIP3    H221511   5.813   1.377   0.478 -0.0122  0.4565  0.4211
 7183TIP3   OH221512   1.729   0.336   2.736  0.1038  0.3849  0.2756
 7183TIP3    H121513   1.816   0.362   2.765  0.7476 -2.7287  1.5691
 7183TIP3    H221514   1.683   0.313   2.817 -1.1326 -0.1840 -0.5473
 7184TIP3   OH221515   6.368   2.364   2.808  0.4523  0.6237  0.6649
 7184TIP3    H121516   6.381   2.270   2.815 -0.8478  0.2756 -0.9042
 7184TIP3    H221517   6.453   2.399   2.785  1.6507  0.2543  3.9625
 7185TIP3   OH221518   5.908   5.770   3.397 -0.7144  0.5178  0.1861
 7185TIP3    H121519   6.003   5.769   3.389 -0.7051 -0.9510  0.0511
 7185TIP3    H221520   5.879   5.836   3.334  0.1282 -0.6779 -1.5380
 7186TIP3   OH221521   5.426   2.608   0.500  0.3880 -0.2999 -0.1690
 7186TIP3    H121522   5.436   2.544   0.571  0.1337  0.9148  1.0068
 7186TIP3    H221523   5.351   2.661   0.527  0.6946  0.5972 -1.0399
 7187TIP3   OH221524   1.879   6.357   2.077 -0.0002  0.3866 -0.0825
 7187TIP3    H121525   1.909   6.443   2.105  1.3139 -0.0500 -0.0637
 7187TIP3    H221526   1.888   6.358   1.982  0.2204  0.1963 -0.0638
 7188TIP3   OH221527   6.535   3.918   4.433  0.0881  0.5790  0.0212
 7188TIP3    H121528   6.545   3.823   4.427 -2.5867  0.2006  0.1758
 7188TIP3    H221529   6.578   3.942   4.514 -0.9216 -0.8416  1.0208
 7189TIP3   OH221530   3.604   6.319   2.601 -0.7194  0.1311  0.5949
 7189TIP3    H121531   3.583   6.371   2.679  0.1047  0.9902  0.2631
 7189TIP3    H221532   3.627   6.384   2.534  2.3049 -0.6582  0.7215
 7190TIP3   OH221533   0.518   5.420   1.475  0.1168  0.4543  0.3772
 7190TIP3    H121534   0.515   5.487   1.543  0.8300 -0.7400  1.6385
 7190TIP3    H221535   0.436   5.432   1.426 -0.6290  1.0777  1.7222
 7191TIP3   OH221536   3.490   0.072   3.498  0.2660 -0.2452  0.9400
 7191TIP3    H121537   3.507   0.118   3.416 -1.1784  0.6202  1.0870
 7191TIP3    H221538   3.478  -0.020   3.472  0.3230 -0.0611  0.2423
 7192TIP3   OH221539   3.876   4.063   3.423 -0.4625 -0.1253  0.6940
 7192TIP3    H121540   3.791   4.099   3.449 -0.5419  0.0925  0.1485
 7192TIP3    H221541   3.901   4.114   3.346 -1.0341 -1.8484 -0.7291
 7193TIP3   OH221542   1.562   3.891   1.949  0.3480 -0.1588 -0.4256
 7193TIP3    H121543   1.554   3.817   2.009 -0.5111 -0.3793 -0.7895
 7193TIP3    H221544   1.593   3.852   1.867  1.1305  0.0803 -0.2484
 7194TIP3   OH221545   0.816   0.146   3.068 -0.5577  0.3580  0.3697
 7194TIP3    H121546   0.723   0.123   3.070 -1.0311  2.1653  0.3631
 7194TIP3    H221547   0.826   0.200   2.990  0.5771 -0.0697  0.2048
 7195TIP3   OH221548   5.640   2.990   5.627  0.2736  0.4550  0.4984
 7195TIP3    H121549   5.637   2.954   5.539  2.3881 -2.0791  1.3167
 7195TIP3    H221550   5.565   2.950   5.672  0.4760 -0.0178  0.4203
 7196TIP3   OH221551   5.314   0.639   3.869  0.4319  0.2944  0.2838
 7196TIP3    H121552   5.294   0.574   3.936  0.4130 -0.4191 -0.3977
 7196TIP3    H221553   5.409   0.633   3.858  0.2960 -0.4019 -0.5566
 7197TIP3   OH221554   1.483   1.521   4.158 -0.3641  0.4962  0.2036
 7197TIP3    H121555   1.414   1.512   4.092 -1.1361  2.0591  0.7428
 7197TIP3    H221556   1.530   1.438   4.155 -0.9264  0.2044 -1.6904
 7198TIP3   OH221557   2.691   4.151   2.426  0.1598  0.3451  0.0791
 7198TIP3    H121558   2.724   4.112   2.345  1.1538  0.0978  0.5831
 7198TIP3    H221559   2.761   4.136   2.490 -1.3713 -1.2332  1.5206
 7199TIP3   OH221560   1.767   5.467   5.093 -0.8229 -0.0904  0.0695
 7199TIP3    H121561   1.848   5.519   5.094 -0.9852  0.2067 -0.9979
 7199TIP3    H221562   1.702   5.524   5.052 -1.8479  0.0235  1.7709
 7200TIP3   OH221563   2.049   4.085   1.816 -0.2519  0.5225  0.2263
 7200TIP3    H121564   1.987   4.138   1.865 -0.3104 -0.6061  1.4115
 7200TIP3    H221565   1.996   4.014   1.779  0.1300  0.2120  0.2676
 7201TIP3   OH221566   3.943   6.035   0.536  0.0120 -0.0669 -0.6014
 7201TIP3    H121567   4.024   6.058   0.583  0.5239  0.3266 -1.6420
 7201TIP3    H221568   3.973   6.007   0.450 -0.8376 -1.8140 -0.3624
 7202TIP3   OH221569   2.260   5.825   4.976  0.2198  0.0819  0.3119
 7202TIP3    H121570   2.248   5.920   4.973 -0.5105 -0.0375 -0.7386
 7202TIP3    H221571   2.303   5.803   4.894  3.7022 -0.1058  1.9938
 7203TIP3   OH221572   4.735   3.455   5.596  0.3858 -0.1559  0.7015
 7203TIP3    H121573   4.774   3.416   5.675  0.7356  0.3857  0.8030
 7203TIP3    H221574   4.729   3.549   5.616 -1.3447 -0.2525  0.8483
 7204TIP3   OH221575   1.703   3.561   3.151 -0.6949 -0.7206 -0.0734
 7204TIP3    H121576   1.740   3.477   3.125  0.2710 -1.4649  3.2169
 7204TIP3    H221577   1.705   3.560   3.246  1.1043  3.7650  0.2000
 7205TIP3   OH221578   5.527   2.405   2.676  0.3486 -0.1639  0.2907
 7205TIP3    H121579   5.486   2.491   2.664 -0.6421 -0.4363  1.5101
 7205TIP3    H221580   5.466   2.343   2.636 -1.7291 -0.8110  3.9902
 7206TIP3   OH221581   2.451   1.250   5.079 -0.1445  0.3666  0.1547
 7206TIP3    H121582   2.393   1.210   5.014 -0.5993  1.2776 -0.0264
 7206TIP3    H221583   2.427   1.210   5.162  0.7617 -1.1566 -0.2848
 7207TIP3   OH221584   2.642   4.452   3.346 -0.6193  0.7221 -0.1622
 7207TIP3    H121585   2.604   4.372   3.382 -0.7403 -0.1023 -1.9651
 7207TIP3    H221586   2.611   4.454   3.255 -0.0031  2.4398 -0.3787
 7208TIP3   OH221587   1.848  -0.009   5.111 -0.2108 -0.4584 -0.2764
 7208TIP3    H121588   1.926   0.014   5.161 -1.1752  1.3524  0.4988
 7208TIP3    H221589   1.840   0.059   5.045 -1.6815  0.0302  0.3465
 7209TIP3   OH221590   5.350   6.181   0.192  0.3185  0.5481 -0.2506
 7209TIP3    H121591   5.274   6.134   0.156  0.6293  0.9241 -1.4245
 7209TIP3    H221592   5.423   6.154   0.137  0.8706  0.9173  0.2896
 7210TIP3   OH221593   3.135   1.522   3.567  0.3552  0.4666 -0.1908
 7210TIP3    H121594   3.214   1.572   3.590 -0.8577  1.3885  2.3717
 7210TIP3    H221595   3.166   1.432   3.557  1.8427  0.9057  0.1437
 7211TIP3   OH221596   3.047   2.235   2.094 -0.1943  0.5637 -0.5546
 7211TIP3    H121597   2.983   2.240   2.023  1.4665  1.8007 -2.0579
 7211TIP3    H221598   3.104   2.311   2.081  2.1753 -0.9841  0.1133
 7212TIP3   OH221599   1.867   1.515   4.239  0.3306  0.1523 -0.4301
 7212TIP3    H121600   1.903   1.551   4.158 -0.2654 -0.2521 -0.8882
 7212TIP3    H221601   1.843   1.425   4.216  1.4546 -0.4289  0.5864
 7213TIP3   OH221602   2.003   0.779   0.350 -0.2724 -0.8233 -0.5057
 7213TIP3    H121603   2.055   0.774   0.430 -0.8759 -1.8074 -0.1591
 7213TIP3    H221604   2.003   0.690   0.315  0.3890 -0.3170 -1.8902
 7214TIP3   OH221605   4.189   5.474   0.025  0.3776 -0.4422  1.1629
 7214TIP3    H121606   4.226   5.484  -0.063  1.2572  0.2362  1.6027
 7214TIP3    H221607   4.263   5.488   0.084 -0.6841  1.5839  2.0884
 7215TIP3   OH221608   1.773   0.456   1.472 -0.4740 -0.4944 -0.0389
 7215TIP3    H121609   1.734   0.542   1.484 -0.2336 -0.3811 -0.0722
 7215TIP3    H221610   1.702   0.402   1.438 -1.2248 -0.8465  1.9166
 7216TIP3   OH221611   6.959   3.966   3.683  0.3205 -0.1583 -0.1453
 7216TIP3    H121612   6.999   3.879   3.692  0.9335  0.1081 -0.2120
 7216TIP3    H221613   6.969   4.006   3.769 -0.0754 -0.2037 -0.0803
 7217TIP3   OH221614   6.833   6.725   5.520 -0.1747 -0.0308  0.2565
 7217TIP3    H121615   6.827   6.765   5.433  2.7606 -0.4025 -0.2217
 7217TIP3    H221616   6.850   6.633   5.503 -0.6633 -0.3160  1.2602
 7218TIP3   OH221617   4.051   2.217   0.158  0.7311  0.0784  0.4663
 7218TIP3    H121618   4.021   2.290   0.103 -0.2178 -0.7313 -0.1310
 7218TIP3    H221619   4.089   2.155   0.097  0.4550 -0.4503  0.8256
 7219TIP3   OH221620   3.140   0.204   3.790  0.2262  0.0126  0.2668
 7219TIP3    H121621   3.203   0.202   3.718  0.1374  0.0555  0.1875
 7219TIP3    H221622   3.130   0.112   3.815 -2.0079 -0.4100 -1.7587
 7220TIP3   OH221623   3.630   3.876   4.566 -0.0396  0.2089 -0.0776
 7220TIP3    H121624   3.552   3.899   4.617 -1.1488 -1.5450 -0.9015
 7220TIP3    H221625   3.689   3.836   4.629 -0.2645  0.5003  0.3270
 7221TIP3   OH221626   5.144   5.978   4.190 -0.1762 -0.0781  0.2901
 7221TIP3    H121627   5.229   6.022   4.180 -0.0106 -0.8151 -2.0011
 7221TIP3    H221628   5.156   5.893   4.149 -2.5766  0.5800 -2.0328
 7222TIP3   OH221629   6.729   4.164   4.356  0.2606  0.3096 -0.1420
 7222TIP3    H121630   6.794   4.229   4.384  0.0339  0.7449 -0.6056
 7222TIP3    H221631   6.781   4.099   4.309  0.9059 -1.3075  2.5796
 7223TIP3   OH221632   2.309   4.969   1.923  0.2328 -0.4610  0.0303
 7223TIP3    H121633   2.219   5.002   1.927  0.2728  0.0330 -1.9340
 7223TIP3    H221634   2.362   5.047   1.904  1.7079  0.0268  4.7392
 7224TIP3   OH221635   3.196   6.132   5.188 -1.1624  0.8476  0.5416
 7224TIP3    H121636   3.157   6.214   5.217 -0.5751  0.4834  2.5476
 7224TIP3    H221637   3.123   6.071   5.181 -1.7085  1.6799 -1.7163
 7225TIP3   OH221638   4.235   4.485   0.034 -0.4401 -0.4466 -0.1456
 7225TIP3    H121639   4.215   4.504   0.125  0.1326  0.2807 -0.1628
 7225TIP3    H221640   4.177   4.542  -0.017 -1.3411 -1.4384 -0.2602
 7226TIP3   OH221641   3.823   0.218   5.263 -0.0949  0.4088  1.0849
 7226TIP3    H121642   3.851   0.298   5.308 -0.3445  0.5147  1.0588
 7226TIP3    H221643   3.736   0.201   5.298 -0.8185  1.1838 -0.2263
 7227TIP3   OH221644   4.281   0.888   3.161  0.1966  0.2142  0.5046
 7227TIP3    H121645   4.208   0.861   3.105  0.1843 -1.1233  1.1288
 7227TIP3    H221646   4.255   0.975   3.194 -0.8600 -0.0017  0.2721
 7228TIP3   OH221647   4.968   6.748   3.564  0.0075  0.5939  0.0392
 7228TIP3    H121648   4.951   6.746   3.470 -2.6266 -1.3675  0.4214
 7228TIP3    H221649   4.918   6.823   3.596  0.6283  1.0567 -0.0557
 7229TIP3   OH221650   5.568   0.393   0.845  0.2032  0.4611  0.1354
 7229TIP3    H121651   5.604   0.325   0.788 -1.7252  1.0581 -1.9289
 7229TIP3    H221652   5.602   0.475   0.809 -0.1102  0.7925  0.5747
 7230TIP3   OH221653   4.768   5.637   2.208  0.1244 -1.0764  0.8782
 7230TIP3    H121654   4.718   5.680   2.277 -0.6580 -1.2563  0.4471
 7230TIP3    H221655   4.711   5.565   2.180 -0.2617 -0.1067 -0.9821
 7231TIP3   OH221656   1.804   4.040   1.051  0.5332  0.5844  0.2276
 7231TIP3    H121657   1.894   4.028   1.082  0.6986  1.8975  0.2957
 7231TIP3    H221658   1.770   3.951   1.044  1.7907  0.0651  0.3343
 7232TIP3   OH221659   6.655   4.986   5.512  0.1436 -0.0641 -0.0271
 7232TIP3    H121660   6.709   4.961   5.587 -0.4906  0.3767  0.5940
 7232TIP3    H221661   6.567   4.996   5.548  0.1209  1.8024 -0.4731
 7233TIP3   OH221662   6.882   0.089   4.492 -0.1653 -0.1551  0.2662
 7233TIP3    H121663   6.902   0.011   4.441  0.2623  1.0083 -1.4403
 7233TIP3    H221664   6.956   0.097   4.552  1.6549  0.7912 -1.9277
 7234TIP3   OH221665   2.831   3.023   2.923  0.7932 -0.5205  0.0671
 7234TIP3    H121666   2.771   3.092   2.948 -0.3136 -1.0078 -1.1436
 7234TIP3    H221667   2.916   3.051   2.958  0.1946  0.9770  0.3861
 7235TIP3   OH221668   1.282   6.522   3.600 -0.8051 -0.0856  0.7312
 7235TIP3    H121669   1.362   6.568   3.626 -0.9574  0.1394  0.7957
 7235TIP3    H221670   1.236   6.504   3.682 -0.8380 -0.1879  0.6914
 7236TIP3   OH221671   2.975   0.686   3.360  0.2882  0.0476 -0.8080
 7236TIP3    H121672   2.975   0.711   3.268  0.1644 -1.8089 -1.3653
 7236TIP3    H221673   3.053   0.727   3.397  1.3724 -0.6510 -2.2055
 7237TIP3   OH221674   5.158   2.581   1.547 -0.1663  0.5893 -0.2925
 7237TIP3    H121675   5.076   2.546   1.582 -0.6650  0.0450 -1.9177
 7237TIP3    H221676   5.153   2.675   1.564 -0.6526  0.4248  0.5252
 7238TIP3   OH221677   5.895   2.557   4.299  0.2704 -0.3423  0.2662
 7238TIP3    H121678   5.921   2.545   4.390 -0.2322 -0.2280  0.4261
 7238TIP3    H221679   5.975   2.540   4.249  0.7034  0.1882  0.7605
 7239TIP3   OH221680   0.323   4.020   4.025  0.0240  0.2497 -0.2149
 7239TIP3    H121681   0.238   4.055   4.051 -0.1756  1.9252 -2.7950
 7239TIP3    H221682   0.357   3.979   4.104 -4.5513 -3.4895  0.2740
 7240TIP3   OH221683   4.476   4.783   0.723  0.1293  0.2722  0.4070
 7240TIP3    H121684   4.411   4.713   0.722 -1.2189  1.4808  0.2803
 7240TIP3    H221685   4.540   4.756   0.789  0.1542 -1.4996 -0.2887
 7241TIP3   OH221686   1.341   6.540   0.937  0.9937  0.2274 -0.0928
 7241TIP3    H121687   1.326   6.603   1.007 -1.3103 -0.3334 -0.0273
 7241TIP3    H221688   1.344   6.592   0.857 -0.3189  0.4960  0.0212
 7242TIP3   OH221689   2.802   2.642   4.784 -0.8053  0.1752 -0.8752
 7242TIP3    H121690   2.855   2.619   4.707  0.8264  0.7766  0.0292
 7242TIP3    H221691   2.729   2.692   4.748 -1.2371 -1.3513 -2.2406
 7243TIP3   OH221692   1.235   3.769   2.271 -0.4435  0.2976  0.4880
 7243TIP3    H121693   1.215   3.845   2.217  0.5908  1.5787  1.8391
 7243TIP3    H221694   1.230   3.801   2.361  3.0114 -0.3690  1.0725
 7244TIP3   OH221695   1.779   3.022   5.421  0.0998 -0.2501  0.0805
 7244TIP3    H121696   1.695   3.057   5.391  0.0178 -1.4789 -1.2353
 7244TIP3    H221697   1.814   3.089   5.479 -2.5031 -0.3406  1.9357
 7245TIP3   OH221698   4.179   2.305   1.510  0.2912 -0.3132  0.0099
 7245TIP3    H121699   4.197   2.242   1.441  0.1711 -0.4089  0.0669
 7245TIP3    H221700   4.106   2.268   1.559  0.7132 -0.4964  0.5054
 7246TIP3   OH221701   4.735   1.572   0.865 -0.4234  0.8467  0.0023
 7246TIP3    H121702   4.714   1.665   0.861 -1.4524  0.6065 -0.7295
 7246TIP3    H221703   4.770   1.552   0.778 -1.7106  0.2224 -0.3821
 7247TIP3   OH221704   2.668   4.502   4.039 -0.3377 -0.9131  0.1794
 7247TIP3    H121705   2.748   4.463   4.005  0.3509  0.2327  0.4370
 7247TIP3    H221706   2.642   4.565   3.972 -1.1336 -1.3928  0.0186
 7248TIP3   OH221707   1.787   1.169   3.323 -0.0451  0.1558  0.2505
 7248TIP3    H121708   1.806   1.117   3.401  0.0153  0.1199  0.2125
 7248TIP3    H221709   1.767   1.105   3.255  0.1342  0.1773  0.1757
 7249TIP3   OH221710   3.453   2.625   1.984  0.2046 -0.2606  0.0073
 7249TIP3    H121711   3.498   2.566   1.923 -0.3939 -1.2720  0.5216
 7249TIP3    H221712   3.505   2.620   2.064  1.2272  1.3826 -0.4977
 7250TIP3   OH221713   5.334   4.717   1.359 -0.0152 -0.2869  0.1209
 7250TIP3    H121714   5.300   4.643   1.409 -1.2486 -0.0129 -0.2837
 7250TIP3    H221715   5.275   4.789   1.379  1.0228  0.5383  0.3089
 7251TIP3   OH221716   3.240   6.630   5.274 -0.3716 -0.4542 -0.1858
 7251TIP3    H121717   3.191   6.571   5.331 -0.9890  1.3221  1.2100
 7251TIP3    H221718   3.179   6.702   5.255  0.3426 -0.2220 -1.8454
 7252TIP3   OH221719   0.684   5.939   1.453 -0.0711 -0.6438 -0.2805
 7252TIP3    H121720   0.695   5.931   1.548 -1.6243 -3.4349 -0.2233
 7252TIP3    H221721   0.650   6.028   1.440  2.8277  0.8708  1.3814
 7253TIP3   OH221722   2.430   5.235   1.813  0.8653  0.0372  0.1645
 7253TIP3    H121723   2.341   5.256   1.784  0.7621  0.0980  0.5254
 7253TIP3    H221724   2.476   5.211   1.732  0.0524 -1.6889  0.1644
 7254TIP3   OH221725   1.278   5.543   0.310 -0.6892 -0.4572 -0.1616
 7254TIP3    H121726   1.187   5.563   0.289 -0.7460  2.6570  2.2383
 7254TIP3    H221727   1.277   5.522   0.404  1.2406  2.5509  0.6944
 7255TIP3   OH221728   0.469   6.156   1.144  0.1302  0.2769  0.5379
 7255TIP3    H121729   0.464   6.068   1.107  0.0992  0.5153 -0.0321
 7255TIP3    H221730   0.400   6.204   1.098  1.6519  1.2187 -0.8501
 7256TIP3   OH221731   6.451   6.639   2.178 -0.0948  0.1182  0.1882
 7256TIP3    H121732   6.366   6.625   2.220 -0.4453 -0.0632 -0.5620
 7256TIP3    H221733   6.483   6.721   2.214 -0.4978  0.0876  0.6236
 7257TIP3   OH221734   3.931   6.016   3.582  0.6867 -0.4841  0.5587
 7257TIP3    H121735   3.883   6.061   3.651  1.7170  0.3252  0.7829
 7257TIP3    H221736   3.945   5.927   3.615  1.5666  0.0191  1.6233
 7258TIP3   OH221737   6.749   1.694   1.989 -0.2201 -0.2876 -0.7407
 7258TIP3    H121738   6.745   1.736   1.903 -2.3980  1.6445  0.1908
 7258TIP3    H221739   6.716   1.760   2.050 -1.4828 -2.5490  1.2111
 7259TIP3   OH221740   5.896   3.139   2.493 -0.3299 -0.0770  0.2746
 7259TIP3    H121741   5.814   3.186   2.507 -0.2484 -0.0258  0.5968
 7259TIP3    H221742   5.874   3.047   2.508 -1.0682 -0.5021 -2.7384
 7260TIP3   OH221743   6.669   6.444   0.120  0.3045 -0.0899 -0.6603
 7260TIP3    H121744   6.701   6.477   0.036  1.8677 -1.3395 -0.6188
 7260TIP3    H221745   6.712   6.358   0.130 -2.5572 -1.5735 -0.1849
 7261TIP3   OH221746   5.714   5.364   4.125 -0.6951 -0.1316 -0.3834
 7261TIP3    H121747   5.779   5.311   4.079 -0.1459  0.2881 -0.1195
 7261TIP3    H221748   5.736   5.352   4.218 -3.1133 -2.6940 -0.0302
 7262TIP3   OH221749   5.632   4.794   2.101 -0.1246  1.0578 -0.0316
 7262TIP3    H121750   5.624   4.711   2.148  2.5057  0.7664  0.0466
 7262TIP3    H221751   5.608   4.860   2.166  0.3439  0.4801  0.7507
 7263TIP3   OH221752   2.112   2.599   1.272  0.5161  0.0807 -0.3035
 7263TIP3    H121753   2.155   2.669   1.223  2.3536  0.7601  2.0786
 7263TIP3    H221754   2.042   2.643   1.321  0.3112 -0.1391 -0.3951
 7264TIP3   OH221755   0.669   5.831   3.891 -0.1888  0.3625  0.5319
 7264TIP3    H121756   0.580   5.807   3.917 -0.1586 -0.2924  0.0546
 7264TIP3    H221757   0.702   5.754   3.844  0.8765  0.3155  1.3027
 7265TIP3   OH221758   1.471   3.044   2.533  0.1757 -0.1539  0.0794
 7265TIP3    H121759   1.424   3.096   2.599 -0.9673 -0.0889 -0.7574
 7265TIP3    H221760   1.562   3.069   2.544 -0.1918  1.0644  0.5667
 7266TIP3   OH221761   4.427   3.574   2.846  0.2226  0.3801  0.6235
 7266TIP3    H121762   4.474   3.627   2.782  0.4858  0.9685  1.2786
 7266TIP3    H221763   4.416   3.633   2.921 -1.8286  0.3645  0.3873
 7267TIP3   OH221764   6.142   4.306   0.848  0.0686 -0.0025 -0.1250
 7267TIP3    H121765   6.071   4.370   0.839  0.2893  0.0225 -2.1237
 7267TIP3    H221766   6.148   4.264   0.763  2.8189  0.3970 -0.2393
 7268TIP3   OH221767   7.103   4.524   2.925  0.0988  0.1524 -0.1531
 7268TIP3    H121768   7.198   4.527   2.933  0.0295  2.7626  0.9383
 7268TIP3    H221769   7.083   4.588   2.856 -0.8743 -0.6611 -0.6575
 7269TIP3   OH221770   2.374   3.245   1.789 -0.4848  0.9663 -0.4223
 7269TIP3    H121771   2.399   3.323   1.738  0.7550  1.3959  0.7824
 7269TIP3    H221772   2.349   3.279   1.875  0.5961  0.0191  0.3041
 7270TIP3   OH221773   5.924   1.184   3.352 -0.3227  0.2142  0.2868
 7270TIP3    H121774   5.943   1.102   3.399 -0.9663 -1.2062 -1.7890
 7270TIP3    H221775   5.850   1.162   3.296 -0.2628  2.1382 -0.5969
 7271TIP3   OH221776   6.888   5.758   2.266 -0.8748  0.5212  1.0866
 7271TIP3    H121777   6.979   5.780   2.284 -0.6775  0.7604 -0.1025
 7271TIP3    H221778   6.890   5.667   2.236 -1.2211  0.0595  2.3966
 7272TIP3   OH221779   1.291   3.708   1.920 -1.2002 -0.1117 -0.5089
 7272TIP3    H121780   1.259   3.737   1.835 -0.3334  1.2576 -0.3996
 7272TIP3    H221781   1.311   3.789   1.967  0.5231 -0.8694  0.1384
 7273TIP3   OH221782   5.895   3.880   1.267  0.2775  0.3146  0.2622
 7273TIP3    H121783   5.850   3.807   1.225  0.3831  1.3208 -1.7469
 7273TIP3    H221784   5.846   3.958   1.239  0.0176  1.0358  2.5414
 7274TIP3   OH221785   3.721   4.780   0.522  0.2675  0.1335  1.0933
 7274TIP3    H121786   3.627   4.790   0.534  0.0614 -2.0655  1.7360
 7274TIP3    H221787   3.740   4.691   0.553  2.5603  0.5322  1.0065
 7275TIP3   OH221788   3.119   1.131   1.901 -0.2665 -0.0653 -0.2904
 7275TIP3    H121789   3.075   1.048   1.885 -1.4019  0.5890 -0.7071
 7275TIP3    H221790   3.080   1.191   1.838  2.1018  0.2960 -1.5260
 7276TIP3   OH221791   3.881   5.858   1.930 -0.2868  0.4142  0.0726
 7276TIP3    H121792   3.956   5.906   1.894  1.4082 -2.0813 -0.0545
 7276TIP3    H221793   3.861   5.902   2.012 -0.1624  2.4752 -0.9468
 7277TIP3   OH221794   2.236   2.090   1.961 -0.0692  0.6015 -0.0800
 7277TIP3    H121795   2.311   2.040   1.929 -0.6843 -0.6305  0.3512
 7277TIP3    H221796   2.162   2.058   1.909 -0.7863 -0.2435  1.4219
 7278TIP3   OH221797   2.651   1.406   5.192  0.3165  0.4542  1.0148
 7278TIP3    H121798   2.617   1.415   5.281  0.7347 -2.3779  1.5664
 7278TIP3    H221799   2.573   1.403   5.136 -0.1368 -0.7434  1.6706
 7279TIP3   OH221800   6.079   5.730   2.706  0.6337 -0.2754 -0.0596
 7279TIP3    H121801   6.107   5.645   2.672  0.1250  0.3987 -2.3541
 7279TIP3    H221802   5.985   5.733   2.689  0.7474  0.9671 -0.5760
 7280TIP3   OH221803   0.198   0.889   3.986 -0.2443  0.1549 -0.2621
 7280TIP3    H121804   0.104   0.909   3.992 -0.2806  0.6728 -2.0114
 7280TIP3    H221805   0.214   0.829   4.058 -2.1840 -0.8901 -0.6227
 7281TIP3   OH221806   2.518   1.629   0.404 -0.0451 -0.3919 -0.0858
 7281TIP3    H121807   2.545   1.634   0.312 -2.2365  1.3552 -0.6966
 7281TIP3    H221808   2.507   1.720   0.430  0.2485 -0.8841  1.8534
 7282TIP3   OH221809   3.642   3.045   1.333  0.5867  0.2326 -0.0211
 7282TIP3    H121810   3.582   3.025   1.261  0.1752  1.3574 -0.0081
 7282TIP3    H221811   3.686   3.126   1.305  4.2854 -1.9828 -1.4010
 7283TIP3   OH221812   0.044   1.872   1.435 -0.4065  0.3720 -0.2616
 7283TIP3    H121813  -0.050   1.863   1.422 -0.3449  0.5086 -0.8538
 7283TIP3    H221814   0.063   1.963   1.412 -0.2031  0.4900  0.3501
 7284TIP3   OH221815   1.867   4.620   2.762  0.3627  0.0359  0.0350
 7284TIP3    H121816   1.865   4.527   2.784  3.5857  0.0066  0.6185
 7284TIP3    H221817   1.862   4.665   2.847 -2.6536  0.5628 -0.3045
 7285TIP3   OH221818   2.923   5.067   3.823  0.1857 -0.2028 -0.3298
 7285TIP3    H121819   2.907   5.137   3.886 -0.1906 -1.6339  1.2422
 7285TIP3    H221820   2.844   5.064   3.769  0.5259  1.0580 -0.9341
 7286TIP3   OH221821   0.606   4.965   4.965  0.1359 -0.1600  0.0684
 7286TIP3    H121822   0.688   5.011   4.952 -0.4245  0.8126 -0.1120
 7286TIP3    H221823   0.621   4.908   5.041  0.1445  2.0452  1.8094
 7287TIP3   OH221824   4.913   3.914   3.732  0.7011 -0.2565 -0.8366
 7287TIP3    H121825   4.966   3.916   3.653  1.2333  0.0333 -0.4796
 7287TIP3    H221826   4.970   3.950   3.800 -0.2844  1.0234 -0.6545
 7288TIP3   OH221827   4.781   2.021   5.017  0.0758  0.5129 -0.1311
 7288TIP3    H121828   4.859   1.998   4.968  0.6002  1.2893  0.3156
 7288TIP3    H221829   4.721   1.947   5.004  0.6657  0.1667 -0.9291
 7289TIP3   OH221830   5.043   1.021   2.544  0.3244 -0.2649 -0.0081
 7289TIP3    H121831   5.096   1.075   2.485  1.0523 -0.6796  0.2555
 7289TIP3    H221832   4.956   1.061   2.542  1.1163  1.5967  1.0330
 7290TIP3   OH221833   5.696   4.334   0.842 -0.3854 -0.4345  0.1883
 7290TIP3    H121834   5.739   4.403   0.893 -0.5093 -0.9226  0.9849
 7290TIP3    H221835   5.603   4.346   0.859 -0.6135  0.7465 -1.6988
 7291TIP3   OH221836   0.771   4.607   1.308  0.0976  0.0600  0.3110
 7291TIP3    H121837   0.840   4.671   1.292 -0.3265 -0.1432 -2.8730
 7291TIP3    H221838   0.815   4.535   1.353  1.8225  0.2837 -0.9299
 7292TIP3   OH221839   2.475   1.495   0.838  0.2726  0.1468 -0.0924
 7292TIP3    H121840   2.426   1.418   0.868 -0.9740  1.4419  1.4322
 7292TIP3    H221841   2.413   1.544   0.785  0.7812  0.5320 -0.3404
 7293TIP3   OH221842   1.643   6.735   4.203 -0.1663  0.2754 -0.1860
 7293TIP3    H121843   1.566   6.687   4.233  0.7893 -0.2022  1.6257
 7293TIP3    H221844   1.627   6.826   4.229 -0.3922  0.2906 -0.3781
 7294TIP3   OH221845   3.739   0.629   3.333  0.3349  0.3683  0.2985
 7294TIP3    H121846   3.736   0.626   3.237  1.7679  1.7316  0.1641
 7294TIP3    H221847   3.812   0.572   3.356 -0.0499 -0.0088  0.5853
 7295TIP3   OH221848   0.775   5.614   3.748 -0.1128  0.1268 -0.1876
 7295TIP3    H121849   0.869   5.600   3.751 -0.1865 -0.2493  0.6412
 7295TIP3    H221850   0.737   5.528   3.763 -0.5871  0.3952  0.1959
 7296TIP3   OH221851   1.797   1.262   2.496 -0.2167  0.1428  0.2975
 7296TIP3    H121852   1.815   1.314   2.574 -2.1326  0.7314  0.3957
 7296TIP3    H221853   1.706   1.233   2.506 -0.1115 -0.8126 -1.1330
 7297TIP3   OH221854   5.409   4.289   2.189  0.5065 -0.0054  0.2631
 7297TIP3    H121855   5.369   4.226   2.129  0.8139  0.9657 -0.9849
 7297TIP3    H221856   5.334   4.334   2.229  0.3079  0.0808 -0.1978
 7298TIP3   OH221857   2.049   0.081   5.275 -0.2766  0.1829  0.2060
 7298TIP3    H121858   2.003   0.164   5.261 -0.3867  0.7221  3.1178
 7298TIP3    H221859   2.131   0.106   5.318  0.6942 -1.0975 -0.8254
 7299TIP3   OH221860   2.929   5.597   4.110 -0.2537 -0.0227  0.0258
 7299TIP3    H121861   3.019   5.588   4.141 -0.1453  1.5415  0.2354
 7299TIP3    H221862   2.924   5.687   4.079 -1.6593 -0.2026 -0.3064
 7300TIP3   OH221863   5.820   5.897   1.342  0.2960  0.4150 -0.1403
 7300TIP3    H121864   5.802   5.957   1.270  0.4499  0.3876 -0.2013
 7300TIP3    H221865   5.910   5.917   1.368  0.4124  0.0838 -0.2826
 7301TIP3   OH221866   5.047   1.192   0.135  0.1887 -0.4245 -0.1792
 7301TIP3    H121867   5.126   1.219   0.181 -0.1314 -1.3964  0.9917
 7301TIP3    H221868   5.023   1.109   0.176 -1.8579  0.2072  0.0106
 7302TIP3   OH221869   2.502   4.831   3.892  0.4757  0.0448 -0.2717
 7302TIP3    H121870   2.424   4.791   3.930  1.2982 -0.7047  0.6795
 7302TIP3    H221871   2.555   4.758   3.861  2.8633  0.0675  3.1347
 7303TIP3   OH221872   5.624   6.628   1.062 -0.9743  0.3735  0.1802
 7303TIP3    H121873   5.705   6.590   1.096 -1.0970 -2.2151 -2.0789
 7303TIP3    H221874   5.652   6.707   1.016  0.2692 -0.3820 -0.4030
 7304TIP3   OH221875   0.952   0.968   3.787 -0.1821 -0.3734 -0.3824
 7304TIP3    H121876   1.020   0.902   3.799  1.7410  1.7999  1.6645
 7304TIP3    H221877   0.998   1.045   3.754 -2.0386  0.4878 -1.1017
 7305TIP3   OH221878   5.423   1.031   0.803 -0.6302  0.4274 -0.0208
 7305TIP3    H121879   5.497   0.991   0.758 -0.3831  1.1755 -0.2838
 7305TIP3    H221880   5.366   1.062   0.733 -0.5010  1.1272  0.1812
 7306TIP3   OH221881   7.145   5.372   1.053 -0.2397 -0.1873  0.1494
 7306TIP3    H121882   7.095   5.334   0.980  0.0949  0.0983 -0.2319
 7306TIP3    H221883   7.079   5.392   1.119 -0.6107  0.0513 -0.2892
 7307TIP3   OH221884   3.709   6.544   1.266 -0.0213  0.2984  0.0956
 7307TIP3    H121885   3.793   6.522   1.226 -0.2944 -0.4340 -0.0805
 7307TIP3    H221886   3.733   6.593   1.345  0.5585  0.4441 -0.1676
 7308TIP3   OH221887   5.034   2.612   2.775 -0.1481 -0.2513 -0.0710
 7308TIP3    H121888   5.020   2.550   2.703  1.9332  0.0667 -0.8176
 7308TIP3    H221889   5.078   2.560   2.842 -0.6909 -0.1761  0.3470
 7309TIP3   OH221890   1.130   0.548   4.348  0.7564 -0.4175 -0.1496
 7309TIP3    H121891   1.051   0.593   4.380  0.7429 -0.1280 -0.5902
 7309TIP3    H221892   1.196   0.566   4.415  0.0516 -1.9629  1.0449
 7310TIP3   OH221893   1.278   2.047   0.991  0.1316 -0.3766  0.2662
 7310TIP3    H121894   1.194   2.011   0.964  0.5888 -0.0467 -1.7768
 7310TIP3    H221895   1.258   2.139   1.013 -0.0200 -0.2515 -0.3771
 7311TIP3   OH221896   0.219   1.776   5.402  0.1364 -0.0437  0.3476
 7311TIP3    H121897   0.307   1.805   5.428  1.5074 -2.8396 -0.7942
 7311TIP3    H221898   0.205   1.818   5.317  2.2179 -2.5952 -1.4291
 7312TIP3   OH221899   6.441   4.849   3.201  0.5724  0.0230 -0.1868
 7312TIP3    H121900   6.441   4.902   3.121 -0.3193  0.9015  0.3839
 7312TIP3    H221901   6.349   4.838   3.223  0.8149  1.7972  2.0128
 7313TIP3   OH221902   1.495   3.280   3.270  0.1375 -0.2060 -0.1746
 7313TIP3    H121903   1.422   3.343   3.267 -0.1828 -0.4052  1.6851
 7313TIP3    H221904   1.536   3.286   3.185 -3.2486 -1.5116 -2.1131
 7314TIP3   OH221905   4.601   5.124   3.812  0.1560  0.1123 -0.2524
 7314TIP3    H121906   4.603   5.076   3.894 -2.1269  1.7987  0.9152
 7314TIP3    H221907   4.508   5.133   3.792  0.5794  1.8546 -1.7071
 7315TIP3   OH221908   5.258   0.232   3.010  0.0596  0.4164  0.1043
 7315TIP3    H121909   5.293   0.152   3.049  0.7147 -0.4528 -2.1205
 7315TIP3    H221910   5.189   0.259   3.070  0.6853 -1.0847  1.5873
 7316TIP3   OH221911   0.229   3.754   5.774  0.3875 -0.4803  0.1803
 7316TIP3    H121912   0.321   3.729   5.764  1.2873  2.0421  1.4146
 7316TIP3    H221913   0.195   3.758   5.685  1.1421 -2.3759 -0.2523
 7317TIP3   OH221914   2.294   3.492   1.665 -0.2148  0.1249  0.3363
 7317TIP3    H121915   2.198   3.484   1.662 -0.2783 -0.8351  2.4648
 7317TIP3    H221916   2.319   3.525   1.579 -2.0532 -4.0690 -2.1625
 7318TIP3   OH221917   5.587   0.061   2.792 -0.6018 -0.4558  0.4100
 7318TIP3    H121918   5.588   0.157   2.801 -0.0467 -0.2082 -1.6686
 7318TIP3    H221919   5.502   0.042   2.753  0.4368 -0.3747 -2.1576
 7319TIP3   OH221920   5.070   5.873   5.856 -0.0069 -0.3787 -0.7019
 7319TIP3    H121921   5.094   5.963   5.876 -1.4837 -0.0930 -0.1397
 7319TIP3    H221922   5.012   5.847   5.927 -1.1070 -1.1431 -1.8360
 7320TIP3   OH221923   6.687   1.786   1.725  0.0414 -0.6086  0.3394
 7320TIP3    H121924   6.632   1.864   1.720 -0.4075 -0.9462 -0.0420
 7320TIP3    H221925   6.634   1.716   1.687  0.3161 -1.1733  0.9787
 7321TIP3   OH221926   5.102   3.005   4.131  0.5932 -0.3001 -0.0709
 7321TIP3    H121927   5.069   3.050   4.209  1.7823  0.2055  0.1754
 7321TIP3    H221928   5.046   2.928   4.121  0.8096 -0.7349  1.6851
 7322TIP3   OH221929   7.189   1.647   5.474  0.2340 -0.1682  0.1148
 7322TIP3    H121930   7.121   1.672   5.411 -0.5032 -0.6749  0.6913
 7322TIP3    H221931   7.271   1.671   5.431 -0.2188 -0.8797 -1.2368
 7323TIP3   OH221932   0.061   1.118   3.598 -0.0455  0.1742 -0.5016
 7323TIP3    H121933   0.027   1.184   3.538 -1.4003  0.9193  1.0039
 7323TIP3    H221934   0.101   1.167   3.669  0.9496 -0.6732 -0.4513
 7324TIP3   OH221935   5.434   1.600   1.544 -0.5260 -0.0239 -0.3475
 7324TIP3    H121936   5.426   1.511   1.511  3.0051  0.5854 -3.4837
 7324TIP3    H221937   5.360   1.647   1.506 -2.0437 -1.3818  0.8136
 7325TIP3   OH221938   2.311   5.016   3.134  0.2357  0.1817  0.0958
 7325TIP3    H121939   2.331   5.110   3.137 -0.4922  0.3197  2.3485
 7325TIP3    H221940   2.301   4.991   3.226  2.4967 -2.6029 -0.2780
 7326TIP3   OH221941   0.713   4.864   0.686  0.3397  0.2677  0.1906
 7326TIP3    H121942   0.726   4.845   0.594 -0.5938 -2.2053  0.5039
 7326TIP3    H221943   0.737   4.957   0.695  2.4449  0.0399 -2.0927
 7327TIP3   OH221944   5.724   1.273   5.838  0.1564  0.3908  0.6613
 7327TIP3    H121945   5.652   1.281   5.900 -2.0058 -1.9385 -1.2773
 7327TIP3    H221946   5.746   1.180   5.839  1.8510  0.7360 -0.2080
 7328TIP3   OH221947   3.653   0.564   2.660  0.1580  0.2218  0.1177
 7328TIP3    H121948   3.701   0.506   2.600 -1.2175 -0.6187 -0.2007
 7328TIP3    H221949   3.566   0.572   2.622 -0.7751 -0.3529  1.9989
 7329TIP3   OH221950   5.707   2.093   5.233  0.6444  0.5755  0.1627
 7329TIP3    H121951   5.699   2.005   5.196 -0.2862  0.3348  0.8920
 7329TIP3    H221952   5.627   2.138   5.205  0.2819  0.6226  1.2234
 7330TIP3   OH221953   0.055   6.398   4.516  0.6926  0.5841 -0.1656
 7330TIP3    H121954   0.000   6.379   4.440 -0.8853  2.9856  0.2506
 7330TIP3    H221955  -0.004   6.390   4.591  1.8650 -0.3467  0.6917
 7331TIP3   OH221956   1.789   6.211   1.645  0.7320  0.3990 -0.3547
 7331TIP3    H121957   1.695   6.224   1.660  0.7256 -0.2214  0.1673
 7331TIP3    H221958   1.831   6.253   1.720  0.8403  0.0949 -0.2447
 7332TIP3   OH221959   4.608   6.216   4.384 -0.1345 -0.1639 -0.5621
 7332TIP3    H121960   4.595   6.251   4.472 -0.1009  0.7729 -0.9133
 7332TIP3    H221961   4.623   6.122   4.397 -2.1909 -0.4212  0.2570
 7333TIP3   OH221962   5.256   6.471   5.506  0.6798  0.6276 -0.4293
 7333TIP3    H121963   5.202   6.544   5.475 -1.7177 -0.8614  0.0026
 7333TIP3    H221964   5.346   6.503   5.499 -0.1960  3.0362 -1.7174
 7334TIP3   OH221965   5.122   6.069   0.513  0.3058 -0.2006  0.1357
 7334TIP3    H121966   5.188   6.031   0.571  2.1632 -0.3816 -1.9875
 7334TIP3    H221967   5.100   6.153   0.554  1.6904 -0.2406  1.0100
 7335TIP3   OH221968   1.485   3.307   1.572 -0.4185  0.0302  0.3721
 7335TIP3    H121969   1.527   3.382   1.615  0.2910  1.6960 -2.9210
 7335TIP3    H221970   1.401   3.341   1.540 -0.8897 -1.1188  0.3268
 7336TIP3   OH221971   6.432   1.315   1.019  0.3745 -0.4132  0.5409
 7336TIP3    H121972   6.516   1.326   1.064  1.7274  0.9877 -2.0815
 7336TIP3    H221973   6.456   1.279   0.933 -1.5821  0.9259 -0.6472
 7337TIP3   OH221974   2.663   0.956   3.977  0.8626  0.2978  0.3020
 7337TIP3    H121975   2.604   0.963   4.052 -0.2690 -0.2790 -0.4935
 7337TIP3    H221976   2.682   1.046   3.952  1.3877  0.4994  1.3581
 7338TIP3   OH221977   3.815   1.267   3.062 -0.4161 -0.1214  0.0176
 7338TIP3    H121978   3.724   1.295   3.051  0.2594  1.7913 -1.4322
 7338TIP3    H221979   3.866   1.346   3.043  1.5487 -0.3094  3.5963
 7339TIP3   OH221980   1.582   2.467   1.093  0.0332 -0.2210  0.1531
 7339TIP3    H121981   1.528   2.489   1.017  1.3251 -1.7116 -1.2748
 7339TIP3    H221982   1.668   2.505   1.073  0.0613  0.5424  1.5449
 7340TIP3   OH221983   0.498   3.974   3.471  0.2207  0.3934  0.1193
 7340TIP3    H121984   0.409   3.982   3.504  0.7428 -0.2400  1.7904
 7340TIP3    H221985   0.493   3.909   3.402 -0.8591  1.5113 -0.8858
 7341TIP3   OH221986   6.732   0.471   1.014 -0.1558 -0.0667 -0.0575
 7341TIP3    H121987   6.638   0.454   1.015  0.2640 -2.8250  0.2767
 7341TIP3    H221988   6.765   0.417   0.942  1.4636 -1.4740  1.6182
 7342TIP3   OH221989   0.030   3.342   4.130 -0.3261 -0.0337 -0.0612
 7342TIP3    H121990   0.060   3.362   4.041 -0.5893 -0.3101 -0.2145
 7342TIP3    H221991  -0.022   3.262   4.120  1.8143 -1.6157  0.7108
 7343TIP3   OH221992   5.290   1.324   4.064 -0.1909  0.1071 -0.3728
 7343TIP3    H121993   5.251   1.247   4.107 -0.3307 -0.0964 -0.8602
 7343TIP3    H221994   5.379   1.327   4.099 -0.1040 -0.4205 -0.5338
 7344TIP3   OH221995   6.535   5.563   3.167 -0.2597 -0.1317  0.1730
 7344TIP3    H121996   6.587   5.621   3.223 -1.0638  0.9555 -0.1597
 7344TIP3    H221997   6.490   5.504   3.228 -0.3205  0.3549  0.6029
 7345TIP3   OH221998   0.563   5.382   2.506 -0.2445  0.3590 -0.1958
 7345TIP3    H121999   0.629   5.429   2.456  1.1168  0.8814  1.9628
 7345TIP3    H222000   0.542   5.306   2.451  1.6875  0.5056 -1.2488
 7346TIP3   OH222001   1.570   0.529   1.665  0.3251  0.0563  0.1189
 7346TIP3    H122002   1.554   0.453   1.721  0.9842 -0.1420  0.0479
 7346TIP3    H222003   1.655   0.563   1.696  1.9032 -1.4323 -2.2300
 7347TIP3   OH222004   5.907   1.330   3.109 -0.7334 -0.4825  0.1537
 7347TIP3    H122005   5.868   1.417   3.114  0.3586  0.0116  0.1628
 7347TIP3    H222006   5.917   1.303   3.201  2.2619  0.9180  0.3302
 7348TIP3   OH222007   4.443   4.745   3.083 -0.2161  0.1648  0.0153
 7348TIP3    H122008   4.424   4.664   3.132 -1.0010 -0.0098 -0.5502
 7348TIP3    H222009   4.377   4.807   3.114 -1.6755 -0.3803 -1.8223
 7349TIP3   OH222010   1.294   0.763   3.478 -0.0576  0.2880 -0.6105
 7349TIP3    H122011   1.238   0.705   3.531 -2.1496  1.0975 -1.8024
 7349TIP3    H222012   1.311   0.838   3.535 -0.1526  0.0190 -0.2174
 7350TIP3   OH222013   2.094   5.010   4.071  0.2785 -0.4126  0.6137
 7350TIP3    H122014   2.180   4.975   4.092  0.3702  0.7768  2.4417
 7350TIP3    H222015   2.053   5.025   4.156 -1.5023 -0.3779 -0.2141
 7351TIP3   OH222016   1.116   2.654   4.158  0.3009  0.2830 -0.2285
 7351TIP3    H122017   1.201   2.692   4.133  0.9940 -0.2579  1.1901
 7351TIP3    H222018   1.100   2.586   4.093 -0.0868  1.7550 -1.7462
 7352TIP3   OH222019   5.143   4.168   4.532  0.0273  0.2560 -0.0723
 7352TIP3    H122020   5.071   4.130   4.581 -0.0630  0.6578  0.1117
 7352TIP3    H222021   5.150   4.258   4.565 -0.0259  0.5259 -0.7856
 7353TIP3   OH222022   2.689   3.166   1.068 -0.4374 -0.4110  0.7273
 7353TIP3    H122023   2.707   3.153   0.975  0.2834  0.3969  0.7434
 7353TIP3    H222024   2.609   3.116   1.084 -0.2883 -0.9714 -0.2094
 7354TIP3   OH222025   2.683   5.376   2.673 -0.2433 -0.5057 -0.6791
 7354TIP3    H122026   2.719   5.303   2.623  0.9187 -0.8297  0.5830
 7354TIP3    H222027   2.702   5.355   2.764 -3.3655 -0.5310  0.0746
 7355TIP3   OH222028   3.470   1.217   2.813 -0.0290 -0.3109 -0.2986
 7355TIP3    H122029   3.559   1.240   2.785  0.4277 -1.4099  0.1757
 7355TIP3    H222030   3.440   1.153   2.749 -0.1250 -0.6196  0.0526
 7356TIP3   OH222031   1.928   3.229   1.591  0.5073 -0.1783 -0.0650
 7356TIP3    H122032   1.900   3.181   1.669  1.4026 -0.3338  0.1725
 7356TIP3    H222033   2.015   3.195   1.572  0.5673  0.3314 -0.7476
 7357TIP3   OH222034   4.629   6.007   3.977 -0.4164 -0.6084  0.1190
 7357TIP3    H122035   4.592   6.078   3.924  0.0026 -0.1980  0.3680
 7357TIP3    H222036   4.580   5.929   3.950 -2.4262  0.1185  1.3861
 7358TIP3   OH222037   0.256   2.777   5.161 -0.0483  0.5104 -0.3662
 7358TIP3    H122038   0.209   2.738   5.087  0.2863 -1.0735  0.2210
 7358TIP3    H222039   0.285   2.702   5.213  0.7107  1.5600  0.7687
 7359TIP3   OH222040   7.193   6.202   5.567 -0.4932 -0.1372 -0.3159
 7359TIP3    H122041   7.214   6.184   5.476 -0.9776 -1.4102 -0.1970
 7359TIP3    H222042   7.105   6.167   5.579 -0.1483 -0.6655  0.8155
 7360TIP3   OH222043   4.320   0.390   2.847 -0.6285  0.4986 -0.3575
 7360TIP3    H122044   4.393   0.414   2.790 -0.4922 -0.9364 -0.8194
 7360TIP3    H222045   4.345   0.422   2.934  0.6696 -0.1794 -0.4676
 7361TIP3   OH222046   5.376   4.049   4.717  0.4798 -0.1100 -0.0110
 7361TIP3    H122047   5.322   4.045   4.796  1.0550  0.7009  0.4365
 7361TIP3    H222048   5.446   3.987   4.733  0.6784  0.1633  0.1788
 7362TIP3   OH222049   3.878   1.113   0.850 -0.2349 -0.1293 -0.2619
 7362TIP3    H122050   3.829   1.118   0.769  0.6953 -1.6496 -0.9676
 7362TIP3    H222051   3.929   1.031   0.843  1.6183  0.8457  0.8279
 7363TIP3   OH222052   4.357   4.834   1.005  0.6422  0.4896 -0.7821
 7363TIP3    H122053   4.291   4.774   0.970 -0.5877  1.1554  0.2999
 7363TIP3    H222054   4.420   4.846   0.933 -0.3512 -0.2587 -1.8034
 7364TIP3   OH222055   5.262   3.308   3.014  0.1545 -0.0509 -0.2313
 7364TIP3    H122056   5.262   3.306   3.109  0.3295 -0.7739 -0.2421
 7364TIP3    H222057   5.346   3.269   2.989 -0.0825 -0.2794 -0.6842
 7365TIP3   OH222058   6.417   1.165   2.518  0.2043  0.0386 -0.5502
 7365TIP3    H122059   6.370   1.198   2.595 -1.2120 -0.5448 -1.1426
 7365TIP3    H222060   6.448   1.078   2.545 -1.1019 -0.5613 -0.9297
 7366TIP3   OH222061   6.876   5.736   5.676  0.5576 -0.0177 -0.3724
 7366TIP3    H122062   6.872   5.689   5.593  0.0774  0.0107 -0.3673
 7366TIP3    H222063   6.887   5.827   5.651  1.9951 -0.1676 -0.3764
 7367TIP3   OH222064   3.226   4.225   0.474 -0.0297  0.2418 -0.2656
 7367TIP3    H122065   3.227   4.299   0.413  0.1533 -0.1992 -0.8136
 7367TIP3    H222066   3.249   4.149   0.419  2.0899  0.1074  0.7155
 7368TIP3   OH222067   3.859   2.498   3.119  0.3146 -0.1551  0.0352
 7368TIP3    H122068   3.910   2.428   3.079 -0.6780 -1.8623  1.6080
 7368TIP3    H222069   3.824   2.460   3.200 -2.6706  1.1769 -0.4723
 7369TIP3   OH222070   4.775   5.439   3.583 -0.3474 -0.1990 -0.1632
 7369TIP3    H122071   4.810   5.351   3.566 -0.7118 -0.2348 -0.7753
 7369TIP3    H222072   4.705   5.424   3.647 -2.0117 -0.7150 -1.9907
 7370TIP3   OH222073   1.393   5.096   3.676  0.2252  0.5184  0.3730
 7370TIP3    H122074   1.449   5.109   3.599  0.5458 -0.9853  0.3223
 7370TIP3    H222075   1.310   5.137   3.652 -0.3417 -1.5711 -1.5971
 7371TIP3   OH222076   0.392   0.322   2.309  0.0893 -0.8218 -0.2438
 7371TIP3    H122077   0.333   0.261   2.354  0.4655 -0.6212  0.5401
 7371TIP3    H222078   0.359   0.325   2.219 -1.0197 -0.8086  0.1420
 7372TIP3   OH222079   1.525   6.386   5.811 -0.2944 -0.0048  0.5678
 7372TIP3    H122080   1.612   6.413   5.841 -0.2946  0.5021  0.1360
 7372TIP3    H222081   1.501   6.313   5.868  1.6024 -2.0778 -1.1196
 7373TIP3   OH222082   4.161   3.294   5.564 -0.3715  0.0635  0.6530
 7373TIP3    H122083   4.221   3.254   5.627 -0.0362 -0.0929  0.2415
 7373TIP3    H222084   4.074   3.285   5.604 -0.3268 -1.2121  0.5160
 7374TIP3   OH222085   4.176   1.857   4.663 -0.4363  0.3340 -0.6066
 7374TIP3    H122086   4.226   1.775   4.667  0.9403  1.1545  0.1775
 7374TIP3    H222087   4.140   1.859   4.575  2.0918  0.3053 -1.7419
 7375TIP3   OH222088   4.078   0.657   3.054  0.1127 -0.4629  0.0539
 7375TIP3    H122089   4.081   0.659   2.958 -2.2001  2.0809 -0.1134
 7375TIP3    H222090   4.066   0.565   3.076 -0.4893 -0.9829 -2.2035
 7376TIP3   OH222091   0.689   2.250   3.727 -0.1636 -0.1780 -0.1068
 7376TIP3    H122092   0.617   2.224   3.670  0.3460 -1.7795 -0.0819
 7376TIP3    H222093   0.657   2.327   3.774 -2.1382 -1.3159  0.4884
 7377TIP3   OH222094   4.518   4.291   1.643  0.2349  0.0207  0.1448
 7377TIP3    H122095   4.596   4.345   1.629  1.9946 -2.8807 -3.1639
 7377TIP3    H222096   4.463   4.310   1.567  0.4802 -1.9638 -0.5931
 7378TIP3   OH222097   2.905   4.338   5.336 -0.2676 -0.1266 -0.3702
 7378TIP3    H122098   2.948   4.279   5.398  0.4437 -0.1839 -0.9043
 7378TIP3    H222099   2.839   4.384   5.389 -0.9330 -1.4860  0.0102
 7379TIP3   OH222100   7.217   5.702   0.394 -0.4468 -0.3795  0.0317
 7379TIP3    H122101   7.183   5.688   0.483 -1.0170 -0.8868 -0.2638
 7379TIP3    H222102   7.207   5.617   0.351 -0.7534  0.0282 -0.7170
 7380TIP3   OH222103   1.932   1.417   3.852  0.1475 -0.3983 -0.0244
 7380TIP3    H122104   1.911   1.328   3.824  2.3895 -1.4010  1.1766
 7380TIP3    H222105   2.019   1.409   3.893 -0.2379  2.0687  1.4713
 7381TIP3   OH222106   4.094   3.067   5.391 -0.0032  0.5394 -0.1293
 7381TIP3    H122107   4.111   3.099   5.303  0.5478  0.6505  0.0165
 7381TIP3    H222108   4.100   3.144   5.447  2.8477  0.0056  0.4307
 7382TIP3   OH222109   6.075   3.479   2.393 -0.0083  0.5943 -0.4905
 7382TIP3    H122110   6.023   3.476   2.473 -0.6343 -3.2869 -0.8133
 7382TIP3    H222111   6.015   3.510   2.326 -1.1528 -1.1025 -0.3167
 7383TIP3   OH222112   1.838   3.118   1.352 -0.2252  0.2931 -0.3563
 7383TIP3    H122113   1.856   3.167   1.432 -0.1416  0.2376 -0.3412
 7383TIP3    H222114   1.742   3.117   1.346 -0.2490 -0.1629  0.0292
 7384TIP3   OH222115   4.499   4.570   5.561  0.2320 -0.6054  0.1221
 7384TIP3    H122116   4.409   4.597   5.575  0.9647  1.9841  0.3498
 7384TIP3    H222117   4.544   4.649   5.530  2.6930 -1.4480  1.2387
 7385TIP3   OH222118   2.169   0.376   0.616 -0.2590 -0.0102  0.3196
 7385TIP3    H122119   2.122   0.294   0.598  0.8710 -0.6778  0.2829
 7385TIP3    H222120   2.255   0.348   0.646  0.1020  1.1794  0.4514
 7386TIP3   OH222121   1.699   4.221   5.095 -0.5049 -0.2581  0.3736
 7386TIP3    H122122   1.628   4.163   5.064  0.4079 -0.1404 -2.1462
 7386TIP3    H222123   1.655   4.303   5.115 -1.0100  0.3206 -2.6255
 7387TIP3   OH222124   5.565   4.031   0.589  0.3434  0.1593 -0.1506
 7387TIP3    H122125   5.599   3.996   0.671 -1.0170 -1.1478 -0.1016
 7387TIP3    H222126   5.485   3.980   0.572 -0.0555  1.2102 -1.6689
 7388TIP3   OH222127   4.060   0.221   4.210 -0.0952  0.0262 -0.0021
 7388TIP3    H122128   4.095   0.277   4.141 -0.1089  0.3766  0.2713
 7388TIP3    H222129   4.016   0.281   4.269 -0.9902 -0.3898 -0.2364
 7389TIP3   OH222130   6.152   5.857   4.712  0.2837  0.1829 -0.4347
 7389TIP3    H122131   6.116   5.805   4.641 -1.3762  0.8264 -0.1276
 7389TIP3    H222132   6.212   5.918   4.670 -1.9329  1.6978 -1.5765
 7390TIP3   OH222133   6.763   0.231   2.761 -0.0353 -0.2163 -0.0429
 7390TIP3    H122134   6.681   0.267   2.794 -0.0029  1.2205 -1.4137
 7390TIP3    H222135   6.739   0.148   2.720 -0.7387  0.0198 -0.1113
 7391TIP3   OH222136   3.804   5.266   2.328  0.1238  0.2752  0.2376
 7391TIP3    H122137   3.832   5.357   2.329 -1.8720  0.9975 -1.6052
 7391TIP3    H222138   3.709   5.270   2.318  0.2271 -1.9284 -3.2856
 7392TIP3   OH222139   0.987   1.680   5.641 -0.2324 -0.3664  0.4921
 7392TIP3    H122140   1.007   1.717   5.727  2.3160 -0.1048 -0.1359
 7392TIP3    H222141   1.009   1.587   5.650  1.0263 -0.1467 -0.1233
 7393TIP3   OH222142   2.679   1.005   0.639  0.3177 -0.1341  0.3502
 7393TIP3    H122143   2.664   1.095   0.668 -0.9790 -0.3990  0.5403
 7393TIP3    H222144   2.742   0.970   0.702  1.3146  0.8169 -0.0834
 7394TIP3   OH222145   5.954   0.307   4.720 -0.0849  0.1804  0.0460
 7394TIP3    H122146   5.949   0.274   4.630  1.0197  1.7002 -0.6107
 7394TIP3    H222147   6.013   0.246   4.765 -0.8814 -0.7661 -0.1405
 7395TIP3   OH222148   4.412   4.048   0.531  0.4161 -0.2791  0.3766
 7395TIP3    H122149   4.500   4.033   0.565  1.3343 -1.0692 -2.1176
 7395TIP3    H222150   4.373   3.960   0.525  0.4111 -0.2019 -0.8590
 7396TIP3   OH222151   3.785   1.683   2.614  0.2299  0.2059 -0.1931
 7396TIP3    H122152   3.764   1.594   2.585 -0.5749  0.1108  0.6089
 7396TIP3    H222153   3.868   1.703   2.572  0.2696 -0.8096 -0.6383
 7397TIP3   OH222154   5.664   3.314   2.603  0.5158 -0.5369  0.1061
 7397TIP3    H122155   5.723   3.389   2.611 -0.1540  0.0267 -0.1748
 7397TIP3    H222156   5.707   3.245   2.654  2.3187 -0.7076 -1.5151
 7398TIP3   OH222157   1.113   4.590   4.016 -0.3137  0.5381 -0.7073
 7398TIP3    H122158   1.204   4.576   4.042 -0.6362 -0.1002  0.1468
 7398TIP3    H222159   1.102   4.685   4.019  0.5005  0.6691 -1.4764
 7399TIP3   OH222160   6.526   3.290   3.680 -0.2295 -0.1778  0.0030
 7399TIP3    H122161   6.531   3.300   3.585 -2.0125 -0.3324 -0.1344
 7399TIP3    H222162   6.574   3.210   3.699  0.2264 -0.0851 -0.7533
 7400TIP3   OH222163   1.614   2.083   2.218 -0.2786 -0.8346 -0.2923
 7400TIP3    H122164   1.599   2.144   2.289 -1.0236 -2.3790  0.9529
 7400TIP3    H222165   1.546   2.103   2.154 -0.2559 -0.0994 -0.0880
 7401TIP3   OH222166   0.174   4.568   2.904  0.4243  0.3670 -0.5508
 7401TIP3    H122167   0.192   4.564   2.997 -0.7384 -0.9253 -0.3453
 7401TIP3    H222168   0.218   4.648   2.874  3.8013 -0.9288  0.4092
 7402TIP3   OH222169   3.742   3.901   4.084  0.0374  0.0671 -0.3507
 7402TIP3    H122170   3.680   3.899   4.011  0.8584  0.9259 -1.1010
 7402TIP3    H222171   3.784   3.815   4.082 -1.4721 -0.7330  0.5091
 7403TIP3   OH222172   0.684   5.820   4.766 -0.5085 -0.2912 -0.1745
 7403TIP3    H122173   0.589   5.831   4.770 -0.2999  1.4926  3.2097
 7403TIP3    H222174   0.720   5.905   4.789  1.8826 -1.4310  0.7629
 7404TIP3   OH222175   0.943   0.764   3.366  0.2054 -0.2116  0.3190
 7404TIP3    H122176   0.889   0.772   3.445 -0.6200  1.5614 -0.3864
 7404TIP3    H222177   0.998   0.842   3.366 -0.2086  0.1043 -1.1328
 7405TIP3   OH222178   6.666   4.891   2.430  0.3907 -0.0989  0.1449
 7405TIP3    H122179   6.686   4.798   2.434 -1.4837 -0.6064 -1.1745
 7405TIP3    H222180   6.588   4.902   2.484  1.5300  1.0519  1.6576
 7406TIP3   OH222181   4.509   1.715   1.075 -0.4872 -0.5082  0.0595
 7406TIP3    H122182   4.433   1.766   1.103  0.3014  0.9981 -0.4383
 7406TIP3    H222183   4.541   1.673   1.155 -1.0602 -0.0804  0.5159
 7407TIP3   OH222184   2.160   3.071   1.530 -0.8086  0.4369  0.3137
 7407TIP3    H122185   2.172   2.996   1.587  0.1124  0.7036  0.4990
 7407TIP3    H222186   2.250   3.099   1.508 -1.0647  2.3574  1.4352
 7408TIP3   OH222187   4.222   1.334   2.104 -0.1032 -0.2616  0.2895
 7408TIP3    H122188   4.268   1.361   2.025 -0.6241  0.6571  0.2900
 7408TIP3    H222189   4.280   1.269   2.144  0.1341 -0.7805 -0.8653
 7409TIP3   OH222190   0.484   5.011   1.887 -0.1095 -0.2259  0.0019
 7409TIP3    H122191   0.463   4.943   1.951 -0.2604  0.3723  0.6018
 7409TIP3    H222192   0.551   4.972   1.831  0.3823 -0.5892  0.8340
 7410TIP3   OH222193   1.455   2.520   3.131  0.3309 -0.4041 -0.3155
 7410TIP3    H122194   1.455   2.447   3.069  0.5608  1.6207 -2.8621
 7410TIP3    H222195   1.363   2.535   3.151 -0.0597  0.9128 -2.7791
 7411TIP3   OH222196   3.731   4.667   2.993 -0.4803 -0.3490 -0.7710
 7411TIP3    H122197   3.772   4.588   2.957  0.8613 -0.3308  0.6336
 7411TIP3    H222198   3.735   4.730   2.921  3.0326  0.0117 -0.4423
 7412TIP3   OH222199   4.760   3.654   1.677 -0.9853  0.2042  0.5661
 7412TIP3    H122200   4.715   3.615   1.603 -0.5095 -0.9109  0.8548
 7412TIP3    H222201   4.788   3.580   1.731 -0.7152  0.9642  1.5058
 7413TIP3   OH222202   1.225   0.928   4.541 -0.3972 -0.1860  0.4938
 7413TIP3    H122203   1.231   0.974   4.457 -0.5213  0.3535  0.7727
 7413TIP3    H222204   1.261   0.841   4.523 -1.3491 -0.4268 -0.3587
 7414TIP3   OH222205   5.729   5.497   2.781  0.1171  0.4430  0.0498
 7414TIP3    H122206   5.745   5.577   2.831 -0.6110  0.9144 -0.4573
 7414TIP3    H222207   5.814   5.475   2.743  0.3775  0.8315  0.3968
 7415TIP3   OH222208   5.460   6.187   5.338 -0.2898 -0.3923 -0.8840
 7415TIP3    H122209   5.386   6.160   5.392 -0.2180 -0.4332 -0.8045
 7415TIP3    H222210   5.516   6.237   5.398 -0.1918 -0.4696 -0.9103
 7416TIP3   OH222211   2.665   2.688   0.663  0.2562 -0.2249  0.0066
 7416TIP3    H122212   2.582   2.668   0.705 -0.0993 -0.4658 -0.7888
 7416TIP3    H222213   2.731   2.670   0.730 -0.1489 -2.5962 -0.1710
 7417TIP3   OH222214   4.216   4.112   5.030 -0.2583 -0.2323 -0.2857
 7417TIP3    H122215   4.166   4.144   4.955  0.2697  0.0758 -0.5106
 7417TIP3    H222216   4.186   4.165   5.103 -1.7641 -1.4222  0.0297
 7418TIP3   OH222217   1.005   2.998   5.819  0.0340  0.1617  0.3614
 7418TIP3    H122218   1.051   3.057   5.879 -1.6833  0.0060  1.8977
 7418TIP3    H222219   0.964   3.056   5.756  0.3829  0.4424  0.3874
 7419TIP3   OH222220   0.517   0.044   1.750 -0.1984 -0.1091  0.2360
 7419TIP3    H122221   0.589   0.008   1.801  1.3432  0.7217 -1.2316
 7419TIP3    H222222   0.469  -0.033   1.719 -0.0088 -0.6771  1.3236
 7420TIP3   OH222223   5.469   1.566   2.435  0.0117  0.5345 -0.5213
 7420TIP3    H122224   5.434   1.557   2.524  0.0877  0.4271 -0.5016
 7420TIP3    H222225   5.447   1.483   2.393  0.1515  0.5073 -0.5411
 7421TIP3   OH222226   2.686   4.833   2.763  0.0835  0.0434 -0.5750
 7421TIP3    H122227   2.755   4.841   2.698 -1.0425  0.7056 -1.7320
 7421TIP3    H222228   2.608   4.870   2.721 -1.1273 -1.1764  0.4656
 7422TIP3   OH222229   3.639   5.462   4.275  0.1273  0.3160  1.1730
 7422TIP3    H122230   3.714   5.522   4.268  1.8717 -1.7071  1.6235
 7422TIP3    H222231   3.625   5.431   4.186  1.4943 -1.1829  1.4455
 7423TIP3   OH222232   3.288   5.530   5.202 -0.1815  0.3563  0.2502
 7423TIP3    H122233   3.380   5.558   5.208  0.7588 -2.1988 -0.9677
 7423TIP3    H222234   3.255   5.542   5.291  2.0147 -0.7121  1.3100
 7424TIP3   OH222235   5.842   1.536   5.882  0.0372 -0.0754  0.7330
 7424TIP3    H122236   5.848   1.450   5.842  0.4141  0.2620  0.0369
 7424TIP3    H222237   5.817   1.594   5.810  0.0087  0.4295  1.1432
 7425TIP3   OH222238   2.761   4.651   5.028  0.2972 -0.2272 -0.1736
 7425TIP3    H122239   2.681   4.682   5.070 -0.8317 -0.8881 -1.7341
 7425TIP3    H222240   2.832   4.680   5.086 -0.6482  4.3614 -0.9060
 7426TIP3   OH222241   1.523   0.568   2.753  0.0793  0.0726 -0.3832
 7426TIP3    H122242   1.512   0.650   2.705  0.3390  0.4617  0.2171
 7426TIP3    H222243   1.559   0.507   2.688 -2.5080 -0.3443 -1.5638
 7427TIP3   OH222244   6.073   2.675   3.505  0.2630 -0.1648  0.1097
 7427TIP3    H122245   5.995   2.642   3.550  0.4107 -1.4492 -0.5390
 7427TIP3    H222246   6.039   2.726   3.431  0.0193  1.8921  1.5552
 7428TIP3   OH222247   5.303   6.172   4.069  0.1329 -0.5691  0.3026
 7428TIP3    H122248   5.370   6.139   4.009 -1.0136 -2.6900  0.1021
 7428TIP3    H222249   5.232   6.200   4.012 -0.8814 -2.4123  0.5877
 7429TIP3   OH222250   3.585   4.829   2.136  0.3093  0.4208 -0.1574
 7429TIP3    H122251   3.653   4.795   2.195  0.3126  1.1224  0.2557
 7429TIP3    H222252   3.627   4.830   2.050  0.2749 -0.6916 -0.1976
 7430TIP3   OH222253   2.821   1.037   3.323  0.5635  0.2716  0.2284
 7430TIP3    H122254   2.805   0.986   3.403  1.4418 -0.8642 -0.2880
 7430TIP3    H222255   2.908   1.009   3.294  0.6624  1.3860 -0.6080
 7431TIP3   OH222256   0.126   4.791   1.522 -0.1443  0.0033 -0.5401
 7431TIP3    H122257   0.201   4.821   1.470  0.4154 -0.8552 -0.2439
 7431TIP3    H222258   0.090   4.871   1.560  2.8669  0.2407  2.3488
 7432TIP3   OH222259   1.691   1.283   2.238 -0.1341  0.0243 -0.2250
 7432TIP3    H122260   1.725   1.276   2.327  0.0156 -1.7714 -0.3758
 7432TIP3    H222261   1.657   1.372   2.232  0.6047  0.4563  1.3440
 7433TIP3   OH222262   1.252   4.338   0.071  0.5697 -0.0331  0.3195
 7433TIP3    H122263   1.184   4.352   0.005  1.3811 -2.1352 -1.0969
 7433TIP3    H222264   1.283   4.426   0.093 -2.1363  0.9399  0.5608
 7434TIP3   OH222265   2.000   4.394   4.189 -0.0102  0.0167  0.6101
 7434TIP3    H122266   2.079   4.405   4.243  0.7918 -1.6594 -0.1326
 7434TIP3    H222267   2.006   4.303   4.158 -0.9563  0.6238 -1.4785
 7435TIP3   OH222268   1.210   5.413   1.479  0.3891  0.3290  0.0656
 7435TIP3    H122269   1.137   5.468   1.450 -0.6495 -0.9013  0.2404
 7435TIP3    H222270   1.199   5.408   1.574  1.1877  0.7806  0.1889
 7436TIP3   OH222271   2.401   5.766   0.472  0.1039  0.4590  0.1682
 7436TIP3    H122272   2.418   5.825   0.399  0.3543 -1.3279 -1.2947
 7436TIP3    H222273   2.482   5.715   0.481  0.4223  1.2577  2.3360
 7437TIP3   OH222274   4.942   5.733   5.657  0.4582  0.2940  0.7628
 7437TIP3    H122275   4.872   5.797   5.665 -0.5374 -0.4863 -1.0564
 7437TIP3    H222276   5.014   5.768   5.710  0.0368  3.0073 -0.3378
 7438TIP3   OH222277   0.531   4.089   4.839  0.5907  0.3391  0.2726
 7438TIP3    H122278   0.496   4.108   4.926  1.4077  0.5509  0.5626
 7438TIP3    H222279   0.599   4.024   4.854  1.6455  1.3385 -0.0382
 7439TIP3   OH222280   0.139   5.674   5.246  0.3688 -0.0718 -0.1111
 7439TIP3    H122281   0.091   5.593   5.262  0.9133 -0.2949  0.4370
 7439TIP3    H222282   0.160   5.672   5.153 -1.1181  0.2800 -0.4767
 7440TIP3   OH222283   2.474   2.625   3.667 -0.1316  0.0039 -0.4802
 7440TIP3    H122284   2.480   2.617   3.762  0.0171 -0.5570 -0.5358
 7440TIP3    H222285   2.462   2.719   3.652 -0.7794  0.0274  0.1191
 7441TIP3   OH222286   4.420   4.086   4.846 -0.2805  0.3754  0.2586
 7441TIP3    H122287   4.486   4.141   4.887  0.1467  1.3891 -1.6716
 7441TIP3    H222288   4.345   4.089   4.905  0.9760  0.1419  1.9140
 7442TIP3   OH222289   1.865   2.017   2.766  0.0330  0.0828 -0.0968
 7442TIP3    H122290   1.951   2.000   2.728 -0.6752 -0.2909 -1.5862
 7442TIP3    H222291   1.856   2.112   2.762  0.6597  0.1946  0.7530
 7443TIP3   OH222292   1.717   5.218   5.610 -0.4097 -0.5906 -0.0791
 7443TIP3    H122293   1.714   5.301   5.563 -1.1133 -0.8243 -0.4705
 7443TIP3    H222294   1.667   5.158   5.555  0.4747 -1.3961 -0.0331
 7444TIP3   OH222295   0.719   1.325   1.867 -0.3972 -0.1297  0.5247
 7444TIP3    H122296   0.647   1.324   1.931 -0.8095  1.2776  0.1087
 7444TIP3    H222297   0.718   1.413   1.830 -0.5417 -1.0591 -1.8666
 7445TIP3   OH222298   3.718   3.133   5.840  0.1810 -0.0186  0.2224
 7445TIP3    H122299   3.691   3.065   5.778 -1.7821 -0.3033  1.3072
 7445TIP3    H222300   3.704   3.093   5.926  0.8092  1.1081  0.8686
 7446TIP3   OH222301   7.019   1.844   3.218  0.7106  0.3492 -0.2445
 7446TIP3    H122302   6.935   1.798   3.228  0.1732  1.1712 -0.9215
 7446TIP3    H222303   7.025   1.900   3.295  0.8023  0.0426 -0.0266
 7447TIP3   OH222304   1.527   5.046   4.248  0.2200  0.2050  0.9433
 7447TIP3    H122305   1.582   5.080   4.177 -1.9175  0.2366 -0.8014
 7447TIP3    H222306   1.467   5.118   4.268 -1.3066 -0.8984  0.4751
 7448TIP3   OH222307   1.396   4.823   2.387 -0.1019 -0.7688  0.2019
 7448TIP3    H122308   1.456   4.866   2.326 -1.5201 -0.9258 -1.3981
 7448TIP3    H222309   1.447   4.752   2.425  2.0217  1.6649  2.2336
 7449TIP3   OH222310   3.453   3.238   5.822 -0.1168  0.3601  0.4541
 7449TIP3    H122311   3.420   3.283   5.900 -0.9170 -1.1612  1.0464
 7449TIP3    H222312   3.531   3.190   5.854 -0.3580 -0.1432  0.2964
 7450TIP3   OH222313   5.269   5.215   4.701  0.0609 -0.8855  0.5889
 7450TIP3    H122314   5.262   5.280   4.770  1.6170  0.8386 -0.7782
 7450TIP3    H222315   5.179   5.184   4.688 -0.3656 -0.8080  2.8902
 7451TIP3   OH222316   6.927   2.482   2.429  0.5000 -0.8928  0.2602
 7451TIP3    H122317   6.966   2.395   2.434  1.1142 -0.6102  0.5813
 7451TIP3    H222318   6.926   2.513   2.519  0.0700 -0.6539  0.1778
 7452TIP3   OH222319   3.979   1.441   4.533  0.2500 -0.3949  0.4023
 7452TIP3    H122320   3.929   1.382   4.476  0.1836 -1.3380  1.4088
 7452TIP3    H222321   3.946   1.422   4.621  1.9848 -0.6459  1.0369
 7453TIP3   OH222322   1.342   4.781   5.679  0.4146  0.1598 -0.6191
 7453TIP3    H122323   1.397   4.833   5.620 -0.1514 -0.8374 -2.0812
 7453TIP3    H222324   1.398   4.708   5.706 -0.3001 -1.2534 -2.6741
 7454TIP3   OH222325   6.589   1.758   4.959 -0.2152 -0.1940 -0.1919
 7454TIP3    H122326   6.601   1.849   4.930 -2.0942  0.4325  0.8172
 7454TIP3    H222327   6.496   1.742   4.948 -0.7426 -0.5370  3.5323
 7455TIP3   OH222328   4.337   4.027   1.049  0.0642 -0.0632 -0.5978
 7455TIP3    H122329   4.360   4.032   1.142 -2.4823 -1.0180  0.1536
 7455TIP3    H222330   4.315   3.935   1.034  3.0353 -0.5564 -2.9120
 7456TIP3   OH222331   6.695   1.372   2.735 -0.4888 -0.1719  0.2009
 7456TIP3    H122332   6.629   1.406   2.796  0.4847 -0.0238  1.2015
 7456TIP3    H222333   6.673   1.279   2.725 -1.7752  0.2055 -0.7212
 7457TIP3   OH222334   4.985   1.560   0.041 -0.4449  0.1853  0.0122
 7457TIP3    H122335   4.927   1.630   0.011 -1.2411 -0.0534  0.9264
 7457TIP3    H222336   4.949   1.534   0.126  0.9910 -0.0026  0.5942
 7458TIP3   OH222337   4.648   5.408   2.132  0.6664  0.1283  1.1624
 7458TIP3    H122338   4.700   5.395   2.053  0.3904 -1.3201  1.1815
 7458TIP3    H222339   4.691   5.355   2.199 -0.0240  0.0321  1.5476
 7459TIP3   OH222340   5.393   6.729   0.856  0.1075  0.2102  0.1813
 7459TIP3    H122341   5.478   6.744   0.815  1.9677 -0.0854  3.5632
 7459TIP3    H222342   5.381   6.634   0.854 -0.6659  0.3203 -1.1680
 7460TIP3   OH222343   0.571   0.590   2.688  0.3173 -0.1392 -0.1833
 7460TIP3    H122344   0.485   0.550   2.673  0.6895 -0.9845 -0.1371
 7460TIP3    H222345   0.605   0.545   2.765  1.9027 -1.6907 -1.7050
 7461TIP3   OH222346   4.232   2.419   4.252  0.3820  0.8191 -0.1014
 7461TIP3    H122347   4.138   2.406   4.239  0.3844 -0.0844  0.6776
 7461TIP3    H222348   4.238   2.485   4.321  0.3042  0.0446  0.6523
 7462TIP3   OH222349   4.824   2.014   0.722  0.1736 -0.1170  0.1010
 7462TIP3    H122350   4.766   1.945   0.755  0.2710 -0.0722  0.3693
 7462TIP3    H222351   4.791   2.094   0.763 -0.0111  0.0137 -0.3005
 7463TIP3   OH222352   4.274   0.853   4.182 -0.4249 -0.1663  0.0315
 7463TIP3    H122353   4.332   0.781   4.208 -1.2861 -0.9170 -0.0723
 7463TIP3    H222354   4.304   0.876   4.094  0.2005 -0.0304  0.2736
 7464TIP3   OH222355   4.506   3.740   4.235  0.1537  0.0891 -0.1982
 7464TIP3    H122356   4.490   3.826   4.196  0.8409  0.1546 -0.3577
 7464TIP3    H222357   4.498   3.679   4.162  2.0860  0.2755 -0.6272
 7465TIP3   OH222358   2.633   1.102   1.882  0.4056  0.1148 -0.2851
 7465TIP3    H122359   2.648   1.191   1.851  1.2285 -0.4507 -1.6023
 7465TIP3    H222360   2.624   1.050   1.802 -0.5827 -0.9139  0.4626
 7466TIP3   OH222361   0.639   1.257   4.352  0.1698  0.2462  0.7494
 7466TIP3    H122362   0.670   1.236   4.441 -0.1282  0.0912  0.8169
 7466TIP3    H222363   0.629   1.352   4.352 -0.6189  0.1715  1.1433
 7467TIP3   OH222364   4.012   6.343   3.916  0.2421  0.0435  0.1019
 7467TIP3    H122365   3.982   6.365   3.828  2.4806  0.8214 -0.5334
 7467TIP3    H222366   3.983   6.253   3.930 -0.0301 -0.1423 -1.4860
 7468TIP3   OH222367   4.163   6.720   0.620 -0.1883 -0.6939  0.0447
 7468TIP3    H122368   4.088   6.767   0.657  0.5108 -0.2792  0.9760
 7468TIP3    H222369   4.157   6.632   0.657 -0.3866 -0.7646 -0.1464
 7469TIP3   OH222370   5.403   0.071   4.041  0.2958 -0.2155  0.0779
 7469TIP3    H122371   5.394   0.043   3.950  0.0483  1.8023 -0.5602
 7469TIP3    H222372   5.387  -0.009   4.092  2.1255 -1.8053 -1.6285
 7470TIP3   OH222373   0.878   4.897   3.522  0.3845 -0.0416 -0.1001
 7470TIP3    H122374   0.816   4.944   3.578 -3.4873 -1.4573 -2.7508
 7470TIP3    H222375   0.918   4.965   3.467 -0.1332  0.7520  0.4904
 7471TIP3   OH222376   5.683   1.202   1.758 -0.1686  0.1182 -0.0245
 7471TIP3    H122377   5.748   1.132   1.766 -1.3047 -0.8580  1.1122
 7471TIP3    H222378   5.734   1.280   1.735  1.1891 -0.9626 -0.8441
 7472TIP3   OH222379   3.689   2.161   0.093  0.1456  0.7231  0.5097
 7472TIP3    H122380   3.754   2.187   0.027 -0.3765 -0.0528 -0.3280
 7472TIP3    H222381   3.650   2.081   0.059 -1.7345  1.5237  0.6640
 7473TIP3   OH222382   1.788   3.414   3.926  0.1900 -0.4218 -0.3056
 7473TIP3    H122383   1.820   3.501   3.902 -0.2426 -0.6924 -2.0307
 7473TIP3    H222384   1.800   3.409   4.021  0.5266  1.3825 -0.2164
 7474TIP3   OH222385   5.541   1.178   4.699 -0.0512  0.7632  0.3667
 7474TIP3    H122386   5.619   1.165   4.645  0.4468  1.0663  0.9961
 7474TIP3    H222387   5.494   1.094   4.694 -1.2264  1.4728 -2.3688
 7475TIP3   OH222388   5.518   4.473   5.679  1.0557 -0.3218 -0.6364
 7475TIP3    H122389   5.503   4.436   5.592 -2.5924  1.8870 -1.1666
 7475TIP3    H222390   5.436   4.457   5.727  0.1861  4.3391 -0.0666
 7476TIP3   OH222391   6.482   3.021   4.351  0.0036 -0.0221 -0.5150
 7476TIP3    H122392   6.511   2.939   4.310 -0.1287 -0.3909  0.1121
 7476TIP3    H222393   6.396   3.037   4.314 -0.4329 -0.7508  0.1485
 7477TIP3   OH222394   4.014   4.049   2.441  0.5456 -0.1178 -0.2018
 7477TIP3    H122395   4.004   4.080   2.350  0.8405 -1.0987 -0.5718
 7477TIP3    H222396   4.105   4.021   2.448  0.7064  0.5471  0.6027
 7478TIP3   OH222397   0.334   3.604   5.348 -0.1044  0.2243 -0.3004
 7478TIP3    H122398   0.379   3.583   5.266  0.0986 -0.8787  0.0827
 7478TIP3    H222399   0.400   3.591   5.416 -0.2961  1.0519  0.0543
 7479TIP3   OH222400   6.087   3.717   0.315 -0.0771  0.3281 -0.0016
 7479TIP3    H122401   6.059   3.785   0.376  0.6764  0.6240  0.0327
 7479TIP3    H222402   6.132   3.765   0.245 -0.4008 -0.0564 -0.4839
 7480TIP3   OH222403   3.562   4.528   1.805  0.1608 -0.3749 -0.5213
 7480TIP3    H122404   3.598   4.616   1.815  1.7517 -0.9255 -1.1711
 7480TIP3    H222405   3.498   4.521   1.876  1.0941  0.7529  0.4823
 7481TIP3   OH222406   4.579   4.007   1.334 -0.5428  0.5005 -0.2553
 7481TIP3    H122407   4.554   3.926   1.289  0.0340 -0.0883  0.4512
 7481TIP3    H222408   4.605   3.978   1.422 -0.9665  1.5351  0.2271
 7482TIP3   OH222409   3.140   3.872   0.461 -0.5789 -0.1350 -0.0618
 7482TIP3    H122410   3.142   3.866   0.365 -0.8610  0.4063 -0.1066
 7482TIP3    H222411   3.228   3.850   0.488 -0.1786  0.8313 -0.5187
 7483TIP3   OH222412   1.441   2.369   5.709  0.2589  0.4837  0.2464
 7483TIP3    H122413   1.411   2.297   5.765 -1.4547  1.5199  0.7263
 7483TIP3    H222414   1.484   2.326   5.636  0.2994 -0.9916  1.0963
 7484TIP3   OH222415   4.225   1.494   2.361  1.0000  0.1971  0.3367
 7484TIP3    H122416   4.174   1.575   2.359 -2.3825 -1.7241  0.7360
 7484TIP3    H222417   4.244   1.476   2.269 -1.3221 -0.2358 -0.1342
 7485TIP3   OH222418   2.561   6.436   2.276  0.2319  0.4345 -0.4242
 7485TIP3    H122419   2.555   6.424   2.181  1.0039  0.4599 -0.4802
 7485TIP3    H222420   2.626   6.372   2.304  0.3646  0.7623  0.0210
 7486TIP3   OH222421   2.390   0.712   5.850  0.1065  0.5774 -0.3918
 7486TIP3    H122422   2.478   0.738   5.878  0.1597  3.3287 -2.6697
 7486TIP3    H222423   2.339   0.793   5.854 -1.8270 -0.5509 -1.0109
 7487TIP3   OH222424   5.762   5.927   0.415 -0.9045  0.0370  0.5375
 7487TIP3    H122425   5.770   6.012   0.373 -0.9791  0.5963  1.6230
 7487TIP3    H222426   5.701   5.878   0.360 -0.5810  0.5538 -0.2909
 7488TIP3   OH222427   0.157   3.541   1.891 -0.1909  0.1454 -0.6700
 7488TIP3    H122428   0.216   3.568   1.961 -0.2877 -0.1611 -0.4689
 7488TIP3    H222429   0.151   3.446   1.900 -0.3600  0.1282 -0.9695
 7489TIP3   OH222430   4.338   0.638   3.640 -0.2225 -0.3713 -0.0805
 7489TIP3    H122431   4.415   0.587   3.664  0.1354 -0.0714 -0.5736
 7489TIP3    H222432   4.361   0.679   3.557 -1.0319 -0.5229 -0.3920
 7490TIP3   OH222433   2.611   1.260   1.493 -0.3517  0.2948 -0.2433
 7490TIP3    H122434   2.541   1.269   1.557 -0.1049  0.7298 -0.0288
 7490TIP3    H222435   2.602   1.337   1.436  0.5210  0.8507  0.3559
 7491TIP3   OH222436   1.043   2.410   0.736 -0.4742  0.7508 -0.5190
 7491TIP3    H122437   1.105   2.350   0.777 -0.1241  0.6300 -1.2071
 7491TIP3    H222438   1.013   2.466   0.807  1.3117  1.5900 -0.3576
 7492TIP3   OH222439   5.452   2.164   5.165 -0.0690 -0.5847  0.2794
 7492TIP3    H122440   5.381   2.217   5.203 -0.1643  0.4221 -1.2131
 7492TIP3    H222441   5.476   2.211   5.085  0.0840 -2.6366 -0.9352
 7493TIP3   OH222442   5.773   6.743   0.164  0.0920 -0.6181 -0.2085
 7493TIP3    H122443   5.810   6.782   0.243  0.5332 -0.7294 -0.3563
 7493TIP3    H222444   5.679   6.735   0.182 -0.4911  2.7320 -1.0543
 7494TIP3   OH222445   4.915   1.431   5.184  0.1707 -0.0380 -0.5160
 7494TIP3    H122446   4.846   1.421   5.250  1.2294 -0.4499  0.5668
 7494TIP3    H222447   4.904   1.521   5.152 -0.6125  0.0361 -0.0790
 7495TIP3   OH222448   2.134   0.640   0.570  0.3246  0.5296 -0.5190
 7495TIP3    H122449   2.229   0.643   0.559  0.3091 -1.3755 -1.4413
 7495TIP3    H222450   2.116   0.551   0.600 -0.9346  1.6800  2.5370
 7496TIP3   OH222451   0.749   3.870   0.234  0.3411  0.3535  0.5107
 7496TIP3    H122452   0.702   3.919   0.166 -0.5663  0.9614  1.5433
 7496TIP3    H222453   0.787   3.795   0.188 -0.0114  0.9031 -0.7146
 7497TIP3   OH222454   5.216   6.614   1.596  0.1308  0.1746 -0.3820
 7497TIP3    H122455   5.159   6.596   1.522  0.4013  0.9177 -0.7785
 7497TIP3    H222456   5.303   6.628   1.557  0.7717 -1.6459  0.2653
 7498TIP3   OH222457   6.301   5.933   0.149  0.7323  0.7206 -0.8120
 7498TIP3    H122458   6.395   5.944   0.165  0.9300 -1.5869  0.0782
 7498TIP3    H222459   6.288   5.838   0.154 -2.1569  1.1016  2.1368
 7499TIP3   OH222460   3.109   4.033   5.770 -0.1552 -0.4616 -0.0544
 7499TIP3    H122461   3.095   4.126   5.753  1.1221 -0.2936 -0.2984
 7499TIP3    H222462   3.184   4.030   5.829 -0.9643 -1.2987  0.9746
 7500TIP3   OH222463   4.011   4.493   5.268 -0.4117  0.1240 -0.2871
 7500TIP3    H122464   4.022   4.526   5.179  0.0922 -2.0893 -1.1083
 7500TIP3    H222465   4.084   4.531   5.317  0.0332  0.3815 -1.1269
 7501TIP3   OH222466   3.204   4.667   2.218 -0.4555  0.3037  0.3524
 7501TIP3    H122467   3.217   4.754   2.181 -0.6935  0.3577  0.3946
 7501TIP3    H222468   3.282   4.651   2.271 -0.4826  0.5533  0.4662
 7502TIP3   OH222469   1.160   5.393   1.158 -0.1564  0.1363  0.1278
 7502TIP3    H122470   1.224   5.461   1.179  1.2538 -1.1099  0.0050
 7502TIP3    H222471   1.183   5.319   1.214 -0.9761 -0.6350 -0.5215
 7503TIP3   OH222472   0.836   3.615   1.070  0.3512  0.2647 -0.4677
 7503TIP3    H122473   0.842   3.710   1.055  0.9431  0.2210 -0.5454
 7503TIP3    H222474   0.911   3.579   1.023 -0.7426 -0.4093 -1.7374
 7504TIP3   OH222475   6.068   4.438   0.337  0.0411 -0.3760  0.3611
 7504TIP3    H122476   6.116   4.356   0.325 -0.2921 -0.7275  1.3350
 7504TIP3    H222477   6.081   4.461   0.429  1.3735  1.4850 -0.2521
 7505TIP3   OH222478   2.464   5.089   1.234 -0.1116 -0.5946 -0.3533
 7505TIP3    H122479   2.479   4.997   1.253  0.8841 -0.6203 -1.2149
 7505TIP3    H222480   2.551   5.129   1.238 -0.4826  0.2404 -0.3560
 7506TIP3   OH222481   4.646   4.071   2.021 -0.6289  0.0683  0.4306
 7506TIP3    H122482   4.604   4.106   2.099  0.0692 -0.7264  1.1923
 7506TIP3    H222483   4.590   3.998   1.994  0.6724 -1.6288  2.0243
 7507TIP3   OH222484   3.956   3.245   5.737 -0.0848 -0.4131 -0.3908
 7507TIP3    H122485   3.870   3.212   5.763 -0.0706 -0.8275 -0.8472
 7507TIP3    H222486   4.009   3.239   5.816 -0.5052 -0.0532 -0.0799
 7508TIP3   OH222487   5.028   3.166   0.722  0.0721 -0.1617 -0.3938
 7508TIP3    H122488   4.981   3.173   0.805 -0.0758 -0.8118 -0.4233
 7508TIP3    H222489   5.119   3.188   0.745 -0.0410  0.0523 -0.1388
 7509TIP3   OH222490   6.075   1.153   4.853  0.3136  0.0476 -0.2945
 7509TIP3    H122491   6.105   1.173   4.942  0.4802  2.7890 -0.8587
 7509TIP3    H222492   6.153   1.126   4.806  0.7409  1.0704 -0.2002
 7510TIP3   OH222493   4.490   1.508   2.032 -0.8149 -0.2941 -0.2983
 7510TIP3    H122494   4.412   1.472   1.988  0.5775 -2.6802 -0.9822
 7510TIP3    H222495   4.529   1.567   1.968 -1.3062 -0.1601 -0.4780
 7511TIP3   OH222496   1.620   3.426   0.735  0.0779  0.1819 -0.0896
 7511TIP3    H122497   1.684   3.355   0.738  0.5333  0.4086 -2.6083
 7511TIP3    H222498   1.625   3.466   0.822  0.8096 -1.9664  0.9174
 7512TIP3   OH222499   4.335   3.730   4.806  0.1464 -0.1181  0.2318
 7512TIP3    H122500   4.408   3.723   4.743  1.7605  0.2597  1.9516
 7512TIP3    H222501   4.350   3.658   4.868  0.2224  1.1156  1.7043
 7513TIP3   OH222502   0.567   6.185   5.020  0.1671 -0.3581  0.2879
 7513TIP3    H122503   0.497   6.247   5.000  1.0668  0.7963  0.6247
 7513TIP3    H222504   0.584   6.197   5.114  3.3719  2.2006 -0.4419
 7514TIP3   OH222505   1.335   4.818   3.546 -0.6819 -0.5189 -0.0970
 7514TIP3    H122506   1.327   4.911   3.527 -1.8841 -0.5046  0.3796
 7514TIP3    H222507   1.401   4.814   3.616 -0.3535 -0.0708 -0.3734
 7515TIP3   OH222508   5.849   5.675   4.706 -0.1697 -0.4302  0.3638
 7515TIP3    H122509   5.819   5.596   4.752  1.2255 -0.5005  1.1866
 7515TIP3    H222510   5.871   5.644   4.617  0.8047 -1.0766  0.8134
 7516TIP3   OH222511   2.982   3.558   2.998 -0.0901 -0.1449  0.0015
 7516TIP3    H122512   2.933   3.497   2.944  1.2702 -0.3800 -1.0355
 7516TIP3    H222513   2.949   3.644   2.974  1.3661 -0.1345 -2.2527
 7517TIP3   OH222514   4.165   3.069   4.777 -0.0552 -0.1631 -0.0038
 7517TIP3    H122515   4.223   3.145   4.785  0.3790 -0.5935  1.1447
 7517TIP3    H222516   4.083   3.106   4.744  0.2995  0.7420  0.0838
 7518TIP3   OH222517   1.091   2.847   3.081 -0.6597  0.1267  0.1294
 7518TIP3    H122518   1.167   2.899   3.105  0.0072 -0.5578 -0.4276
 7518TIP3    H222519   1.074   2.792   3.158 -2.2954  2.1307  1.3198
 7519TIP3   OH222520   1.604   2.121   5.403  0.2482  0.1002  0.1775
 7519TIP3    H122521   1.647   2.206   5.393  0.4166  0.0466  0.4130
 7519TIP3    H222522   1.545   2.114   5.329 -0.2738  0.7197  0.5248
 7520TIP3   OH222523   6.202   3.552   5.010  0.7480  0.0295 -0.0392
 7520TIP3    H122524   6.285   3.598   5.021  1.2053 -0.8334  0.2215
 7520TIP3    H222525   6.219   3.490   4.938 -0.2741  1.2023 -1.3485
 7521TIP3   OH222526   5.278   6.578   0.148 -0.9771 -0.2527 -0.3116
 7521TIP3    H122527   5.279   6.505   0.087 -1.1827 -0.7390  0.2640
 7521TIP3    H222528   5.245   6.541   0.230 -2.1544  0.7202 -0.3190
 7522TIP3   OH222529   1.612   1.647   1.631  0.0302  0.0206 -0.3405
 7522TIP3    H122530   1.694   1.696   1.621 -0.1856  0.6484  0.7674
 7522TIP3    H222531   1.627   1.592   1.708  0.8286 -2.8786 -2.4009
 7523TIP3   OH222532   6.938   5.476   4.975 -0.5401  0.0177 -0.0268
 7523TIP3    H122533   6.856   5.510   5.009 -0.4894  1.7529 -1.4941
 7523TIP3    H222534   6.975   5.425   5.047 -1.8367  1.0367  1.4169
 7524TIP3   OH222535   1.518   5.952   4.444 -0.2968  0.4310  0.5797
 7524TIP3    H122536   1.560   6.037   4.430 -0.5287  0.3258 -0.9618
 7524TIP3    H222537   1.579   5.889   4.406 -1.3053  0.1745 -0.6748
 7525TIP3   OH222538   1.508   5.347   1.031 -1.0428  0.5879 -0.4878
 7525TIP3    H122539   1.458   5.425   1.052 -0.1088  1.4110 -1.2032
 7525TIP3    H222540   1.553   5.368   0.949 -0.8036 -0.7136 -0.7222
 7526TIP3   OH222541   6.197   5.681   5.550  0.0098 -0.0670 -0.5384
 7526TIP3    H122542   6.159   5.769   5.546 -0.3363 -0.1395  0.7789
 7526TIP3    H222543   6.128   5.623   5.517 -0.3409  0.0043  0.0504
 7527TIP3   OH222544   4.343   1.747   3.442 -0.2794 -0.5022 -0.7702
 7527TIP3    H122545   4.397   1.711   3.372  0.1818  2.1399 -1.9015
 7527TIP3    H222546   4.404   1.765   3.514 -0.1328 -0.1086 -0.9891
 7528TIP3   OH222547   4.301   2.463   2.165 -0.2222  0.6352 -0.1163
 7528TIP3    H122548   4.315   2.495   2.076  0.7927  0.3710 -0.0617
 7528TIP3    H222549   4.385   2.424   2.190 -1.0596 -1.0253  0.2400
 7529TIP3   OH222550   6.031   1.480   4.871 -0.4743 -0.8298 -0.3311
 7529TIP3    H122551   6.061   1.484   4.962 -0.4096  0.9837 -0.4071
 7529TIP3    H222552   5.936   1.491   4.877 -0.6082 -1.8274 -0.4261
 7530TIP3   OH222553   6.214   0.420   2.273 -0.5997 -0.5710 -0.3055
 7530TIP3    H122554   6.288   0.361   2.281  3.1524  3.8377  3.0261
 7530TIP3    H222555   6.172   0.418   2.359 -1.6982  0.0417 -0.8027
 7531TIP3   OH222556   4.514   0.929   3.725  0.3930  0.0916  0.0475
 7531TIP3    H122557   4.518   0.855   3.664  1.8723 -0.6051  0.9321
 7531TIP3    H222558   4.574   0.994   3.688 -0.5954  0.7183 -0.5115
 7532TIP3   OH222559   0.453   3.658   2.930 -0.1565 -0.0102  0.0775
 7532TIP3    H122560   0.360   3.666   2.951 -0.5533  0.1255 -1.6081
 7532TIP3    H222561   0.481   3.579   2.977 -0.8116  0.5968  1.5503
 7533TIP3   OH222562   0.004   0.855   1.943  0.3677  0.0446  0.7354
 7533TIP3    H122563  -0.070   0.915   1.951  0.9068  0.7135  0.8692
 7533TIP3    H222564   0.081   0.911   1.956  0.8575 -0.8100  1.5642
 7534TIP3   OH222565   5.263   5.719   4.055  0.0044 -0.4649 -0.4802
 7534TIP3    H122566   5.288   5.630   4.031 -1.8151 -1.2284  0.3263
 7534TIP3    H222567   5.343   5.770   4.042  1.2308 -2.2934 -0.4605
 7535TIP3   OH222568   4.428   4.055   3.851  0.6849 -0.2524 -0.1241
 7535TIP3    H122569   4.494   4.066   3.783 -1.2772 -1.2150 -2.3459
 7535TIP3    H222570   4.351   4.021   3.804 -0.7224 -1.1625  2.6396
 7536TIP3   OH222571   3.915   5.544   1.404  0.3491 -0.2149 -0.3382
 7536TIP3    H122572   3.978   5.483   1.444 -0.2594  0.0606  1.1300
 7536TIP3    H222573   3.834   5.529   1.452 -0.9119 -0.9862 -2.6184
 7537TIP3   OH222574   5.160   1.306   3.632  0.0231  0.0908 -0.2872
 7537TIP3    H122575   5.167   1.213   3.653  0.1114 -0.0455 -0.9121
 7537TIP3    H222576   5.162   1.349   3.717 -0.6730 -0.5128  0.0476
 7538TIP3   OH222577   3.107   3.092   4.582  0.2991  0.3798 -0.2059
 7538TIP3    H122578   3.107   3.182   4.615 -0.3458  0.1265  0.4997
 7538TIP3    H222579   3.168   3.046   4.638 -0.8150 -0.0570  0.6721
 7539TIP3   OH222580   3.509   2.978   4.848  0.5157 -0.3051  0.1220
 7539TIP3    H122581   3.423   2.966   4.809 -0.8033  1.9336  2.0538
 7539TIP3    H222582   3.494   2.967   4.942  2.2796  0.4185  0.5257
 7540TIP3   OH222583   3.138   3.044   5.869 -0.0031 -0.9612  0.0420
 7540TIP3    H122584   3.198   3.067   5.799 -0.4512 -0.4162 -0.1741
 7540TIP3    H222585   3.154   2.951   5.886  0.5546 -0.9358 -0.3386
 7541TIP3   OH222586   4.307   5.128   0.036  0.2267 -0.0895  0.2793
 7541TIP3    H122587   4.304   5.055   0.098 -0.4399  1.2281  1.8879
 7541TIP3    H222588   4.218   5.133   0.001  0.5684 -0.7470 -0.7219
 7542TIP3   OH222589   4.092   5.182   1.726  1.1841  0.9674 -0.1131
 7542TIP3    H122590   4.169   5.183   1.668 -0.0972  1.9880 -1.8919
 7542TIP3    H222591   4.059   5.272   1.723 -0.8421  0.2444 -0.4750
 7543TIP3   OH222592   1.564   1.598   3.022 -0.4162 -0.1358 -0.2449
 7543TIP3    H122593   1.577   1.663   2.953 -0.6648  0.4988  0.2866
 7543TIP3    H222594   1.559   1.650   3.103  2.2919 -1.0068  0.6015
 7544TIP3   OH222595   3.445   2.968   1.168  0.1109  0.6353  0.1236
 7544TIP3    H122596   3.396   2.930   1.095  0.3851 -0.1463  0.3265
 7544TIP3    H222597   3.383   2.970   1.240  0.7647 -1.9294  0.8682
 7545TIP3   OH222598   3.593   6.152   1.840 -0.2788 -0.2905 -0.5819
 7545TIP3    H122599   3.618   6.059   1.842 -0.3113 -0.3138 -1.2465
 7545TIP3    H222600   3.536   6.160   1.764 -0.7750  0.1539 -0.1714
 7546TIP3   OH222601   4.801   4.140   4.883 -0.1615  0.2789 -0.2996
 7546TIP3    H122602   4.840   4.157   4.797 -1.3425 -0.1182 -0.9360
 7546TIP3    H222603   4.776   4.227   4.915  0.9036  0.5005 -0.0315
 7547TIP3   OH222604   0.513   0.001   1.122 -0.1693 -0.0301 -0.0546
 7547TIP3    H122605   0.542   0.093   1.118  0.9240 -0.3634 -0.0634
 7547TIP3    H222606   0.535  -0.034   1.036  0.2946 -0.5415  0.2639
 7548TIP3   OH222607   0.388   6.032   3.695  0.3465  0.5410  0.2490
 7548TIP3    H122608   0.423   5.953   3.654 -0.8413  0.9472 -1.7049
 7548TIP3    H222609   0.293   6.024   3.686  0.1909  2.0905  0.1653
 7549TIP3   OH222610   2.015   2.160   3.684  0.0179  0.1819  0.2030
 7549TIP3    H122611   1.954   2.224   3.648  1.5914  1.2403 -0.6954
 7549TIP3    H222612   1.991   2.152   3.776 -2.5032 -0.7023 -0.4561
 7550TIP3   OH222613   5.863   5.052   5.705  0.0605 -0.4309 -0.3147
 7550TIP3    H122614   5.828   4.992   5.639 -1.4220  0.9758 -0.8722
 7550TIP3    H222615   5.851   5.006   5.788 -0.5618 -1.1026 -0.7666
 7551TIP3   OH222616   2.425   2.282   3.347 -0.1492 -0.3767 -0.3137
 7551TIP3    H122617   2.382   2.214   3.295  1.9310 -1.3881 -0.8455
 7551TIP3    H222618   2.359   2.309   3.411 -1.4571 -2.0009 -0.8903
 7552TIP3   OH222619   4.968   1.020   2.960  0.5609 -0.2001 -0.3826
 7552TIP3    H122620   4.949   1.005   3.053 -1.5119  0.0452 -0.7122
 7552TIP3    H222621   5.063   1.012   2.953  0.7303 -0.5403  1.6962
 7553TIP3   OH222622   4.205   6.784   1.596 -0.0603 -0.3078 -0.3438
 7553TIP3    H122623   4.142   6.735   1.648 -0.1232 -0.6125 -0.7067
 7553TIP3    H222624   4.276   6.722   1.580 -0.2482 -0.3580 -1.0028
 7554TIP3   OH222625   6.029   2.205   2.923 -0.2358 -0.6693 -0.0524
 7554TIP3    H122626   6.013   2.292   2.885  1.7456 -0.5575 -0.7311
 7554TIP3    H222627   6.046   2.148   2.848 -0.2321 -1.3527  0.4596
 7555TIP3   OH222628   4.098   3.848   4.506 -0.0625 -0.2112 -0.0407
 7555TIP3    H122629   4.080   3.766   4.459  0.9982 -0.9494  0.7652
 7555TIP3    H222630   4.047   3.914   4.460  0.7596 -0.9172 -2.1186
 7556TIP3   OH222631   5.789   2.115   0.432 -0.1095 -0.5459 -0.0786
 7556TIP3    H122632   5.726   2.046   0.407  1.2719 -1.5362 -0.9519
 7556TIP3    H222633   5.788   2.114   0.528 -1.9309 -0.0402 -0.0541
 7557TIP3   OH222634   4.959   5.696   4.294  0.0673 -0.1095 -0.1450
 7557TIP3    H122635   5.054   5.694   4.297  0.2153  2.2025 -1.0802
 7557TIP3    H222636   4.935   5.630   4.229  1.0036 -0.7820  0.1821
 7558TIP3   OH222637   4.200   2.377   5.207  0.2037  0.1994 -0.8252
 7558TIP3    H122638   4.150   2.431   5.145  0.2415 -0.1734 -1.1814
 7558TIP3    H222639   4.158   2.393   5.291 -1.5855 -1.3779 -1.3548
 7559TIP3   OH222640   4.404   2.559   5.144  0.4403 -0.6873 -0.2160
 7559TIP3    H122641   4.349   2.488   5.178 -0.7269 -0.1881 -0.9809
 7559TIP3    H222642   4.379   2.567   5.052  2.5796 -1.1235 -0.8922
 7560TIP3   OH222643   6.820   3.045   0.978  0.2177 -0.2588  0.5994
 7560TIP3    H122644   6.734   3.003   0.979 -0.1626  0.4816  0.0695
 7560TIP3    H222645   6.802   3.136   1.002  0.5785  0.3660 -1.3014
 7561TIP3   OH222646   6.910   6.423   3.212 -0.2835  0.3330 -0.3134
 7561TIP3    H122647   6.981   6.363   3.235 -2.7512 -1.9325  2.1036
 7561TIP3    H222648   6.874   6.389   3.130 -0.4727 -0.3943  0.0636
 7562TIP3   OH222649   7.099   0.167   5.615  0.3079 -0.0052 -0.1728
 7562TIP3    H122650   7.025   0.185   5.558  0.5012 -0.0639 -0.4423
 7562TIP3    H222651   7.159   0.241   5.600  0.3741 -0.0372 -0.0689
 7563TIP3   OH222652   1.558   4.123   3.855  0.4804  0.2325 -0.1692
 7563TIP3    H122653   1.499   4.107   3.929 -1.0657  0.7501 -1.2320
 7563TIP3    H222654   1.578   4.217   3.861 -0.2843  0.4488 -0.8237
 7564TIP3   OH222655   5.802   0.736   5.503  0.3257  0.2597 -0.0648
 7564TIP3    H122656   5.743   0.696   5.566 -0.2278  1.1661  0.0130
 7564TIP3    H222657   5.889   0.724   5.540  0.2229 -1.2756 -0.2875
 7565TIP3   OH222658   1.112   5.758   5.818 -0.0720 -0.7222  0.2650
 7565TIP3    H122659   1.143   5.673   5.850  0.7643 -0.3918  0.3413
 7565TIP3    H222660   1.123   5.753   5.723  1.3019 -0.2005  0.3708
 7566TIP3   OH222661   3.911   1.418   5.197  0.4833 -0.0049  0.9369
 7566TIP3    H122662   3.923   1.510   5.220 -0.8361  0.5829 -0.5094
 7566TIP3    H222663   3.823   1.397   5.228  0.0751 -0.2226 -0.3225
 7567TIP3   OH222664   4.797   5.117   0.901  0.3461  0.3488  0.5424
 7567TIP3    H122665   4.771   5.031   0.869  1.9608  0.0465 -0.0758
 7567TIP3    H222666   4.798   5.172   0.822 -1.7150  1.2407  1.0931
 7568TIP3   OH222667   2.305   5.495   3.706 -0.7624 -0.5740 -0.6242
 7568TIP3    H122668   2.251   5.574   3.705  0.0569  0.0112 -2.1232
 7568TIP3    H222669   2.245   5.424   3.728 -1.9186  0.1993 -1.2494
 7569TIP3   OH222670   6.997   4.083   3.130 -0.0874 -0.1512 -0.4459
 7569TIP3    H122671   7.021   4.150   3.195 -0.5540 -1.1737  0.8386
 7569TIP3    H222672   6.910   4.109   3.100  0.9082  1.4192 -2.2100
 7570TIP3   OH222673   6.658   5.118   0.631  0.1177  0.5909  0.1717
 7570TIP3    H122674   6.583   5.144   0.577  0.4139  0.4807 -0.2951
 7570TIP3    H222675   6.679   5.196   0.682 -2.7102 -0.3513  3.2076
 7571TIP3   OH222676   5.510   3.464   5.381 -0.2435  0.0636 -0.1215
 7571TIP3    H122677   5.573   3.410   5.335 -0.5918  0.4020 -1.0134
 7571TIP3    H222678   5.442   3.483   5.316 -0.0423  1.7177  0.1189
 7572TIP3   OH222679   2.854   1.058   0.009  0.1291 -0.0230  0.2428
 7572TIP3    H122680   2.877   1.012   0.090 -1.9572  0.1915  1.0049
 7572TIP3    H222681   2.844   0.989  -0.056  1.9442 -0.1881  0.0709
 7573TIP3   OH222682   0.482   2.502   1.571 -0.2926  0.0923  0.0173
 7573TIP3    H122683   0.571   2.498   1.606 -0.2098 -2.2413 -0.2705
 7573TIP3    H222684   0.482   2.576   1.511  1.1069  0.8377  0.8927
 7574TIP3   OH222685   5.376   0.694   5.015 -0.1659  0.4017  0.0653
 7574TIP3    H122686   5.471   0.695   5.003 -0.3971  1.1692 -2.3042
 7574TIP3    H222687   5.360   0.758   5.084  0.9162  2.4226 -1.4370
 7575TIP3   OH222688   4.065   6.625   4.029  0.6967 -0.0765  0.0932
 7575TIP3    H122689   4.065   6.719   4.049 -0.1638 -0.2860  1.2070
 7575TIP3    H222690   3.978   6.608   3.994  1.1782 -0.2940 -1.0255
 7576TIP3   OH222691   6.104   1.973   4.094  0.5521  0.0487  0.4593
 7576TIP3    H122692   6.043   2.011   4.031  0.4069  0.4474  0.8342
 7576TIP3    H222693   6.190   1.979   4.051  0.2661 -0.9828 -0.2797
 7577TIP3   OH222694   2.896   2.107   2.286 -0.5517 -0.0445  0.0478
 7577TIP3    H122695   2.919   2.172   2.219 -1.1531  0.8638  0.7124
 7577TIP3    H222696   2.826   2.148   2.336 -1.6505 -1.6245 -0.1446
 7578TIP3   OH222697   5.414   5.067   0.589  0.1447  0.2024  0.9804
 7578TIP3    H122698   5.358   5.130   0.543 -0.1000 -0.4101  0.4349
 7578TIP3    H222699   5.429   5.108   0.674 -0.4836  0.7419  0.8486
 7579TIP3   OH222700   5.014   3.649   4.444 -0.8840  0.2574  0.2378
 7579TIP3    H122701   5.031   3.579   4.381 -1.8369 -0.2173  0.4866
 7579TIP3    H222702   5.024   3.730   4.393  0.9417 -0.0186  0.1264
 7580TIP3   OH222703   3.039   0.599   2.872  0.3960  0.2654  0.4992
 7580TIP3    H122704   3.054   0.678   2.821 -1.0419  0.1894 -0.0964
 7580TIP3    H222705   2.966   0.621   2.930  1.1225 -0.0815  1.5833
 7581TIP3   OH222706   3.177   3.704   5.411  0.1603 -0.0384 -0.0609
 7581TIP3    H122707   3.168   3.693   5.317 -4.3653  1.6985 -0.1103
 7581TIP3    H222708   3.161   3.616   5.447 -1.2913 -0.1571 -0.9155
 7582TIP3   OH222709   5.813   2.131   1.730 -0.3100  0.0451  0.2900
 7582TIP3    H122710   5.814   2.055   1.672  1.3105  0.7346 -0.6659
 7582TIP3    H222711   5.747   2.111   1.795 -1.4543 -1.2309 -1.1923
 7583TIP3   OH222712   2.787   2.596   3.343  1.4562  0.4809  0.0598
 7583TIP3    H122713   2.772   2.502   3.353  0.7617  0.6710  0.8526
 7583TIP3    H222714   2.701   2.632   3.322  1.7481  0.9283 -0.3961
 7584TIP3   OH222715   6.171   3.964   4.494  0.8083 -0.0523 -0.2711
 7584TIP3    H122716   6.183   4.031   4.427  2.8897 -0.8220 -0.7646
 7584TIP3    H222717   6.115   3.898   4.452  0.2705  0.5083 -0.4444
 7585TIP3   OH222718   4.394   1.916   4.262  0.3449 -0.1103 -0.3882
 7585TIP3    H122719   4.342   1.869   4.328  0.6923 -0.8185 -0.6089
 7585TIP3    H222720   4.357   2.004   4.262 -0.8073 -0.5730 -0.4827
 7586TIP3   OH222721   5.943   2.028   4.414  0.3260  0.2015 -0.2206
 7586TIP3    H122722   5.883   1.976   4.361  0.6094 -0.3237 -0.0295
 7586TIP3    H222723   5.954   2.109   4.365 -0.3231  0.1923 -0.3907
 7587TIP3   OH222724   4.864   5.958   4.354  0.2765  0.1264  0.4317
 7587TIP3    H122725   4.897   5.870   4.372 -2.3739 -0.9178  0.7085
 7587TIP3    H222726   4.786   5.966   4.409 -1.0326  1.6481 -1.4942
 7588TIP3   OH222727   6.807   0.693   0.742  0.1474 -0.3995 -0.1430
 7588TIP3    H122728   6.876   0.715   0.679  1.1554 -2.6040  0.0949
 7588TIP3    H222729   6.761   0.619   0.703 -2.3430  1.1652 -0.4061
 7589TIP3   OH222730   5.024   5.324   5.828 -0.4933 -0.2046 -0.2982
 7589TIP3    H122731   5.113   5.298   5.802  0.1173  0.2126  1.2734
 7589TIP3    H222732   5.026   5.419   5.831 -1.3360 -0.1414 -1.3431
 7590TIP3   OH222733   4.704   2.906   0.878  0.1431 -0.3812 -0.1514
 7590TIP3    H122734   4.676   2.958   0.953  1.7020  0.3366 -0.0220
 7590TIP3    H222735   4.656   2.942   0.804  0.1956  0.3512  0.1652
 7591TIP3   OH222736   3.856   4.266   0.594  0.5596  0.3039 -0.3226
 7591TIP3    H122737   3.834   4.317   0.515  0.8979 -1.1263 -1.3780
 7591TIP3    H222738   3.814   4.181   0.579 -1.7810  0.8407  2.3394
 7592TIP3   OH222739   4.479   5.215   5.504 -0.0402  0.4936  0.5878
 7592TIP3    H122740   4.465   5.159   5.428 -2.1419  1.5063  0.1713
 7592TIP3    H222741   4.515   5.296   5.468 -3.0029  1.8000  0.2708
 7593TIP3   OH222742   1.514   1.707   5.236  0.2578 -0.5929 -0.1406
 7593TIP3    H122743   1.503   1.770   5.307 -0.3160 -0.4663 -0.3416
 7593TIP3    H222744   1.602   1.670   5.250 -0.3949 -1.6419  1.4960
 7594TIP3   OH222745   0.518   4.493   4.511 -0.2741 -0.5389  0.0071
 7594TIP3    H122746   0.459   4.534   4.448  0.0283  1.0164  0.6840
 7594TIP3    H222747   0.489   4.526   4.596  1.2753 -0.0517  0.3951
 7595TIP3   OH222748   0.158   4.327   3.444 -0.6696  0.0558  0.2645
 7595TIP3    H122749   0.096   4.273   3.492  0.3970 -1.1514  0.3366
 7595TIP3    H222750   0.244   4.302   3.478 -0.0319  0.6702 -0.8193
 7596TIP3   OH222751   5.819   4.413   5.541 -0.3280  0.1202 -0.3947
 7596TIP3    H122752   5.824   4.508   5.539  0.3707  0.0775 -1.5382
 7596TIP3    H222753   5.893   4.384   5.487  0.4135 -1.0996  1.1926
 7597TIP3   OH222754   0.816   3.359   4.999 -0.2027  0.3458 -0.4808
 7597TIP3    H122755   0.853   3.412   4.929  0.7698 -0.1380 -0.3406
 7597TIP3    H222756   0.823   3.414   5.077  2.0761 -0.4460 -0.0552
 7598TIP3   OH222757   4.778   2.067   2.280  0.2213  0.4996  0.4982
 7598TIP3    H122758   4.752   2.001   2.217  0.2958 -1.2115  2.1523
 7598TIP3    H222759   4.724   2.144   2.260 -0.4076 -0.3152 -1.0082
 7599TIP3   OH222760   5.666   1.104   3.211 -0.7090 -0.2331  0.8287
 7599TIP3    H122761   5.637   1.190   3.240  0.0335  0.2510  0.1475
 7599TIP3    H222762   5.587   1.050   3.214 -1.6094  0.9417 -0.5745
 7600TIP3   OH222763   6.214   2.530   3.334  0.1094 -0.5438 -0.1234
 7600TIP3    H122764   6.150   2.578   3.386  0.2306 -1.7848  1.2621
 7600TIP3    H222765   6.181   2.534   3.244 -1.2336 -0.0877  0.3702
 7601TIP3   OH222766   4.977   4.645   3.506 -0.1739 -0.5121  0.3821
 7601TIP3    H122767   4.918   4.624   3.579  0.5756 -2.5340  0.4607
 7601TIP3    H222768   4.957   4.736   3.485 -4.0307 -1.3200 -0.2168
 7602TIP3   OH222769   3.085   2.433   2.703 -0.0178  0.3317  0.3000
 7602TIP3    H122770   3.171   2.462   2.734  0.4851  0.1043 -0.8511
 7602TIP3    H222771   3.101   2.350   2.658 -1.0779 -0.4966  1.3698
 7603TIP3   OH222772   2.121   2.852   5.596  0.3694 -0.2704 -0.3314
 7603TIP3    H122773   2.061   2.834   5.668  0.5513 -0.9220 -0.3355
 7603TIP3    H222774   2.195   2.899   5.636 -0.0446  0.3689 -0.2960
 7604TIP3   OH222775   0.298   1.487   1.494 -0.4038  0.1728  0.0759
 7604TIP3    H122776   0.298   1.497   1.399 -1.5280  0.6594  0.1160
 7604TIP3    H222777   0.206   1.476   1.517 -0.3742  2.0455  1.3006
 7605TIP3   OH222778   1.231   2.110   2.723  0.1163 -0.1819  0.1364
 7605TIP3    H122779   1.186   2.117   2.639 -3.2995 -2.6959  1.5049
 7605TIP3    H222780   1.215   2.193   2.766 -0.4020  0.1604 -0.6864
 7606TIP3   OH222781   5.283   4.215   1.559 -0.9681 -0.0722 -0.0597
 7606TIP3    H122782   5.202   4.177   1.593 -0.0835 -3.1479 -1.0129
 7606TIP3    H222783   5.350   4.150   1.580  0.8764  1.3315 -1.2728
 7607TIP3   OH222784   5.181   3.097   0.120 -0.3366  0.1635  0.3199
 7607TIP3    H122785   5.146   3.075   0.034 -0.3478 -0.3511  0.4530
 7607TIP3    H222786   5.138   3.179   0.144 -1.9914 -0.8053  0.7953
 7608TIP3   OH222787   6.335   0.323   4.189 -0.2458  0.6487  0.1421
 7608TIP3    H122788   6.360   0.322   4.281 -0.0366  1.7916  0.1061
 7608TIP3    H222789   6.398   0.381   4.147 -1.7786  2.0905 -0.2885
 7609TIP3   OH222790   5.364   0.400   0.655 -0.4796 -0.1136  0.4684
 7609TIP3    H122791   5.431   0.448   0.703  0.3930 -1.5577  0.7503
 7609TIP3    H222792   5.322   0.466   0.600 -0.8012  1.3830  2.4195
 7610TIP3   OH222793   3.708   1.866   0.239 -0.0683 -0.8487  0.6307
 7610TIP3    H122794   3.644   1.877   0.310 -0.6599  1.6444 -0.2001
 7610TIP3    H222795   3.777   1.928   0.259 -1.1642  1.3738 -1.8568
 7611TIP3   OH222796   5.872   5.313   2.318  0.4171  0.6636  0.3031
 7611TIP3    H122797   5.949   5.349   2.361 -0.2511  1.2883  0.9924
 7611TIP3    H222798   5.833   5.387   2.271  0.2871  0.3304 -0.1277
 7612TIP3   OH222799   1.632   1.122   0.660  0.6236 -0.2948  0.0364
 7612TIP3    H122800   1.698   1.078   0.608  0.0823 -1.5022  0.3315
 7612TIP3    H222801   1.672   1.130   0.747  0.4449 -0.8952  0.1778
 7613TIP3   OH222802   3.966   1.846   4.479  0.0099 -0.1830  0.1004
 7613TIP3    H122803   3.909   1.883   4.411  0.0804  0.3973  0.3585
 7613TIP3    H222804   3.932   1.757   4.492 -1.2256  0.3434  0.6779
 7614TIP3   OH222805   5.219   3.628   2.262  0.2502 -0.1500  0.1477
 7614TIP3    H122806   5.311   3.615   2.284  0.3686  0.6606  0.1705
 7614TIP3    H222807   5.172   3.580   2.331  0.6227  2.1562  2.1456
 7615TIP3   OH222808   4.320   5.444   4.297 -0.3212  0.3169 -0.0646
 7615TIP3    H122809   4.394   5.429   4.356  0.8302  1.6486 -1.0912
 7615TIP3    H222810   4.246   5.458   4.355  0.7894  1.6927  1.1210
 7616TIP3   OH222811   6.793   1.308   3.027 -0.0364 -0.2187 -0.4931
 7616TIP3    H122812   6.792   1.233   2.967  1.4309  0.3769 -1.3379
 7616TIP3    H222813   6.881   1.344   3.017 -0.2563  0.7767  0.9613
 7617TIP3   OH222814   6.981   2.524   5.518 -0.1576  0.0121 -0.4445
 7617TIP3    H122815   7.060   2.569   5.546  0.5193 -1.2839 -0.2018
 7617TIP3    H222816   6.925   2.594   5.484  1.3693  0.8737 -1.3055
 7618TIP3   OH222817   6.976   2.702   0.456 -0.5224 -0.0525 -0.3789
 7618TIP3    H122818   6.947   2.616   0.486 -0.3904 -0.1447 -0.5144
 7618TIP3    H222819   6.945   2.763   0.524  0.2876 -0.3323  0.2688
 7619TIP3   OH222820   2.866   6.782   0.287 -0.1938  0.6560  0.3025
 7619TIP3    H122821   2.799   6.741   0.232 -1.3730 -0.4253  2.3865
 7619TIP3    H222822   2.941   6.724   0.282 -0.5267  0.2207  0.3255
 7620TIP3   OH222823   6.191  -0.029   1.423  0.5605 -0.4641 -0.3740
 7620TIP3    H122824   6.274   0.008   1.394  1.2442  0.2157  2.2014
 7620TIP3    H222825   6.158   0.034   1.488 -1.2182 -1.4855 -0.2228
 7621TIP3   OH222826   6.558   6.139   2.060  0.4479 -0.3028  0.3044
 7621TIP3    H122827   6.605   6.154   2.142 -0.3694 -0.1643  0.7599
 7621TIP3    H222828   6.592   6.207   2.001  0.0111  0.5373  0.9824
 7622TIP3   OH222829   1.494   3.936   5.670  0.1802  0.1783 -0.2642
 7622TIP3    H122830   1.462   3.995   5.603 -0.1953 -0.5460 -0.7302
 7622TIP3    H222831   1.565   3.985   5.713 -0.8545  1.3960  0.1220
 7623TIP3   OH222832   1.777   4.750   4.801 -0.3969 -0.1779  1.0005
 7623TIP3    H122833   1.715   4.810   4.759  1.8595  1.7577  0.2089
 7623TIP3    H222834   1.729   4.668   4.810 -2.3100  0.5141 -1.7180
 7624TIP3   OH222835   0.855   1.543   0.098  0.3505  0.9071 -0.1240
 7624TIP3    H122836   0.942   1.577   0.119  0.0733  0.8998  1.1403
 7624TIP3    H222837   0.796   1.590   0.158 -0.3874  0.2077 -0.2813
 7625TIP3   OH222838   5.451   1.377   0.633  0.1575 -0.0364 -0.2287
 7625TIP3    H122839   5.408   1.427   0.703  0.7792 -0.9164  0.8333
 7625TIP3    H222840   5.526   1.430   0.608  1.9942 -1.2194  2.3058
 7626TIP3   OH222841   0.798   4.030   4.400 -0.2493  0.1295  0.1214
 7626TIP3    H122842   0.890   4.002   4.408 -0.3322 -0.3922 -0.7103
 7626TIP3    H222843   0.804   4.124   4.380  0.0690  0.3328  1.0938
 7627TIP3   OH222844   4.647   4.016   3.654 -0.2751 -0.0953  0.3985
 7627TIP3    H122845   4.714   3.949   3.642  0.7909  0.8400  0.9518
 7627TIP3    H222846   4.645   4.063   3.570  0.9013  0.8600  0.8769
 7628TIP3   OH222847   2.767   5.893   1.103 -0.4450  0.3284 -0.2434
 7628TIP3    H122848   2.806   5.953   1.039  0.1353 -0.0088 -0.2073
 7628TIP3    H222849   2.736   5.950   1.173 -1.3127  0.7309 -0.9267
 7629TIP3   OH222850   3.837   0.724   0.435  0.1126 -0.1706 -0.0354
 7629TIP3    H122851   3.742   0.722   0.439  0.0419  2.0162  0.4949
 7629TIP3    H222852   3.857   0.763   0.350  0.5228 -0.4453 -0.0674
 7630TIP3   OH222853   3.259   5.119   0.607  0.0200 -0.5263  0.1812
 7630TIP3    H122854   3.321   5.177   0.562  0.8611 -0.6983  1.0675
 7630TIP3    H222855   3.212   5.178   0.667  0.0817 -0.5668  0.2703
 7631TIP3   OH222856   6.059   3.030   1.597  0.1705 -0.2197  0.2057
 7631TIP3    H122857   6.149   3.061   1.610  0.1563 -0.5023  1.0445
 7631TIP3    H222858   6.006   3.092   1.647 -0.3955  1.4900 -2.3122
 7632TIP3   OH222859   0.859   2.058   2.707 -0.1519  0.8047  0.9151
 7632TIP3    H122860   0.880   1.965   2.714 -0.9359  0.6027  0.6843
 7632TIP3    H222861   0.867   2.092   2.796 -1.8741  0.0624  1.3965
 7633TIP3   OH222862   0.361   5.020   3.346 -0.0404  0.2052 -0.2068
 7633TIP3    H122863   0.278   5.063   3.367 -0.6835 -1.5381  1.1128
 7633TIP3    H222864   0.390   4.982   3.429 -0.1968 -2.8909 -1.4102
 7634TIP3   OH222865   5.648   3.406   2.034  0.3911 -0.1405  0.2039
 7634TIP3    H122866   5.558   3.391   2.005  0.7888  0.4048 -1.3744
 7634TIP3    H222867   5.644   3.392   2.129 -1.1374 -1.1297  0.0454
 7635TIP3   OH222868   2.209   0.265   1.107 -0.5267 -0.3776 -0.3576
 7635TIP3    H122869   2.131   0.243   1.159 -1.8721  2.6105 -0.8639
 7635TIP3    H222870   2.208   0.204   1.034 -1.1230 -1.7812  0.7706
 7636TIP3   OH222871   6.882   6.282   3.920 -0.4874  0.4191  0.5284
 7636TIP3    H122872   6.954   6.345   3.921  0.9884 -1.1779  1.6061
 7636TIP3    H222873   6.842   6.290   4.007  0.2664 -0.7020  0.9936
 7637TIP3   OH222874   6.201   4.774   1.200  0.5419 -0.3060  0.0686
 7637TIP3    H122875   6.189   4.813   1.287  0.0797  0.6828 -0.4211
 7637TIP3    H222876   6.233   4.685   1.218 -0.1958 -0.3529  1.2620
 7638TIP3   OH222877   5.020   3.571   3.144 -0.5123  0.3533 -0.2986
 7638TIP3    H122878   5.079   3.576   3.069  0.8505 -0.2788  0.6761
 7638TIP3    H222879   4.933   3.559   3.106  0.4335 -2.9559 -1.8300
 7639TIP3   OH222880   5.289   5.340   0.173  0.5526  0.1982 -0.2131
 7639TIP3    H122881   5.326   5.427   0.159  0.4827  0.3348  0.4106
 7639TIP3    H222882   5.259   5.312   0.086 -0.1985  1.1595 -0.2831
 7640TIP3   OH222883   6.655   6.164   3.475 -0.1237 -0.2517  0.7084
 7640TIP3    H122884   6.672   6.109   3.399 -0.5236 -0.9061  1.0796
 7640TIP3    H222885   6.742   6.194   3.502 -0.0310  0.5079 -0.3686
 7641TIP3   OH222886   2.648   5.967   4.685 -0.2515 -0.0763  0.0191
 7641TIP3    H122887   2.641   6.057   4.716  1.1166  0.4127 -1.0519
 7641TIP3    H222888   2.676   5.974   4.594 -2.8042 -1.5234 -1.0107
 7642TIP3   OH222889   1.535   4.903   5.086  0.0671 -0.2061 -0.1462
 7642TIP3    H122890   1.590   4.971   5.047 -0.8287  0.7179  0.1583
 7642TIP3    H222891   1.451   4.946   5.102 -0.3056 -1.1916  0.6924
 7643TIP3   OH222892   5.779   5.348   3.249  0.0727 -0.3654  0.3283
 7643TIP3    H122893   5.687   5.372   3.241  0.2511  0.7660  1.3593
 7643TIP3    H222894   5.797   5.355   3.343  0.8732 -1.8982  0.3091
 7644TIP3   OH222895   2.010   0.669   1.518  0.0363  0.4635 -0.4094
 7644TIP3    H122896   2.030   0.640   1.429  0.5278 -3.7427  0.8394
 7644TIP3    H222897   1.933   0.618   1.544 -0.1958  1.6890  1.5308
 7645TIP3   OH222898   3.956   0.739   2.268  0.1747 -0.0312  0.0998
 7645TIP3    H122899   3.915   0.823   2.250  1.1739  0.2201 -1.1478
 7645TIP3    H222900   3.892   0.674   2.237  0.3165  0.3381 -1.0280
 7646TIP3   OH222901   5.596   0.256   3.851 -0.2483 -0.4548 -0.1356
 7646TIP3    H122902   5.680   0.278   3.811  0.7387 -0.6893  1.7054
 7646TIP3    H222903   5.608   0.168   3.886 -1.3251 -0.5510  0.0421
 7647TIP3   OH222904   4.869   1.650   5.026 -0.2479 -0.4364 -0.6090
 7647TIP3    H122905   4.963   1.660   5.039 -0.3902 -0.7237  0.8079
 7647TIP3    H222906   4.859   1.634   4.932  1.0734 -0.0043 -0.8375
 7648TIP3   OH222907   2.641   6.646   1.585  0.1513 -0.0111 -0.3596
 7648TIP3    H122908   2.689   6.729   1.584  0.4525 -0.1864 -0.4941
 7648TIP3    H222909   2.639   6.619   1.493 -1.0348  0.4701 -0.4939
 7649TIP3   OH222910   4.973   6.344   5.469  0.0507 -0.0777 -0.2712
 7649TIP3    H122911   4.941   6.375   5.385  0.2537 -0.2740 -0.4197
 7649TIP3    H222912   5.047   6.401   5.489 -1.4468  1.6000  0.9335
 7650TIP3   OH222913   0.950   1.146   4.660 -0.0292 -0.1380  0.2051
 7650TIP3    H122914   1.012   1.202   4.707  0.0454  0.6127 -0.7438
 7650TIP3    H222915   0.961   1.170   4.568 -2.0843  0.4041  0.0348
 7651TIP3   OH222916   0.933   4.402   3.899 -0.8600  0.1373  0.1531
 7651TIP3    H122917   0.925   4.323   3.952  0.9065  0.5014  1.0121
 7651TIP3    H222918   0.953   4.471   3.962 -1.1335  1.0427 -0.7267
 7652TIP3   OH222919   3.770   3.063   0.026  0.3045 -0.1927 -0.4042
 7652TIP3    H122920   3.731   3.010  -0.043  1.6230 -1.0256 -0.5416
 7652TIP3    H222921   3.752   3.015   0.107  0.1932 -0.0575 -0.3468
 7653TIP3   OH222922   0.254   1.007   1.994 -0.5071 -0.0608 -0.1515
 7653TIP3    H122923   0.315   0.958   2.049 -1.3399 -0.0315  0.8270
 7653TIP3    H222924   0.307   1.038   1.921  0.4783 -0.6778  0.2844
 7654TIP3   OH222925   0.923   3.742   2.305  0.2729 -0.4416  0.2121
 7654TIP3    H122926   0.833   3.712   2.291  0.5393 -0.6214 -1.2526
 7654TIP3    H222927   0.965   3.731   2.220  1.4396  0.4866  0.6500
 7655TIP3   OH222928   6.008   2.223   2.220  0.0367 -0.2107 -0.4622
 7655TIP3    H122929   6.092   2.182   2.200 -0.6942 -1.6949 -0.6426
 7655TIP3    H222930   5.998   2.211   2.315  0.0943  0.0828 -0.4199
 7656TIP3   OH222931   1.496   5.791   5.737  0.8176  0.4377 -0.0713
 7656TIP3    H122932   1.444   5.870   5.744  2.5971  1.5384  1.8985
 7656TIP3    H222933   1.506   5.777   5.643 -3.0905 -0.0022 -0.5658
 7657TIP3   OH222934   4.201   0.695   5.391 -0.0323  0.5274  0.2280
 7657TIP3    H122935   4.123   0.741   5.422  0.7682  2.2616 -0.2534
 7657TIP3    H222936   4.196   0.701   5.296  0.5403  0.3764  0.1857
 7658TIP3   OH222937   3.587   1.508   5.644 -0.0102 -0.7772 -0.4641
 7658TIP3    H122938   3.505   1.552   5.667 -0.0896 -1.5469  0.7585
 7658TIP3    H222939   3.564   1.415   5.639  0.5422 -0.8845 -1.3002
 7659TIP3   OH222940   3.485   3.519   3.285  0.0434 -0.1979 -0.4051
 7659TIP3    H122941   3.543   3.595   3.280  0.0073 -0.1645 -0.3293
 7659TIP3    H222942   3.453   3.520   3.376 -0.2767 -0.0683 -0.5199
 7660TIP3   OH222943   0.211   4.116   5.621  0.3878  0.2083  0.4239
 7660TIP3    H122944   0.126   4.078   5.598  1.3667 -1.1197 -1.2181
 7660TIP3    H222945   0.190   4.186   5.682 -1.8189 -0.5998  0.6866
 7661TIP3   OH222946   5.461   5.119   5.032 -0.4045  0.1722  0.5276
 7661TIP3    H122947   5.448   5.078   4.947  0.5546 -0.9477  0.8839
 7661TIP3    H222948   5.386   5.178   5.043 -0.1497  0.9410 -1.4138
 7662TIP3   OH222949   3.799   2.530   2.735 -0.5208  0.0619 -0.3798
 7662TIP3    H122950   3.738   2.486   2.795  0.2485  0.6067  0.8559
 7662TIP3    H222951   3.757   2.523   2.649 -4.0763  3.2385  0.7729
 7663TIP3   OH222952   2.537   1.369   0.504  0.1188  0.0660  0.1819
 7663TIP3    H122953   2.537   1.460   0.475  0.1231  0.2170  0.6431
 7663TIP3    H222954   2.607   1.365   0.570 -0.7231  0.0409  1.1045
 7664TIP3   OH222955   1.868   1.204   4.122  0.5645  0.0298  0.0879
 7664TIP3    H122956   1.906   1.120   4.150  0.4432 -0.0159  0.1164
 7664TIP3    H222957   1.933   1.241   4.062  1.3070  0.6148  1.2142
 7665TIP3   OH222958   4.815   3.606   4.127  0.1587 -0.2151  0.9292
 7665TIP3    H122959   4.734   3.654   4.113  0.3840  0.1152  0.7375
 7665TIP3    H222960   4.862   3.612   4.044  1.2452  1.2646  1.6058
 7666TIP3   OH222961   0.020   1.776   0.520  0.4202  0.2145 -0.1947
 7666TIP3    H122962   0.093   1.783   0.457  0.3598 -1.0023 -0.4409
 7666TIP3    H222963   0.063   1.757   0.603  0.4075 -0.4533 -0.3304
 7667TIP3   OH222964   0.423   2.834   3.733  0.0893  0.5010 -0.0555
 7667TIP3    H122965   0.461   2.817   3.819  0.5514 -0.3253 -0.4087
 7667TIP3    H222966   0.496   2.821   3.672 -0.4957 -0.0262 -0.6571
 7668TIP3   OH222967   6.163   3.079   2.005 -0.3186  0.0532 -0.5910
 7668TIP3    H122968   6.110   3.003   2.032  0.0123 -0.0785 -0.3041
 7668TIP3    H222969   6.156   3.140   2.078 -1.4682  0.7685 -1.2780
 7669TIP3   OH222970   4.062   2.544   5.028  0.1728  0.4615 -0.0863
 7669TIP3    H122971   3.975   2.578   5.007 -0.0031  0.4559  0.5919
 7669TIP3    H222972   4.068   2.461   4.981 -1.4581 -1.1310  2.2845
 7670TIP3   OH222973   0.786   2.461   3.336  0.2882 -0.5486  0.0322
 7670TIP3    H122974   0.800   2.468   3.430 -0.1807  1.0631  0.0097
 7670TIP3    H222975   0.850   2.522   3.298  0.0424 -0.7150 -0.6599
 7671TIP3   OH222976   0.648   0.910   5.392  0.3509  0.1237 -0.3998
 7671TIP3    H122977   0.593   0.982   5.423 -1.2558 -0.2362 -2.2218
 7671TIP3    H222978   0.683   0.941   5.308  0.0410 -0.9840 -0.9617
 7672TIP3   OH222979   3.726   2.121   1.412  0.1233 -0.6404  0.1489
 7672TIP3    H122980   3.712   2.179   1.338  0.0982 -0.6566  0.1412
 7672TIP3    H222981   3.792   2.058   1.382 -0.2818 -0.9788 -0.0413
 7673TIP3   OH222982   4.616   0.169   1.287  0.0340 -0.0420  0.6607
 7673TIP3    H122983   4.697   0.181   1.239  0.6578  0.2560  1.7618
 7673TIP3    H222984   4.643   0.161   1.379 -1.0913 -0.9565  0.9367
 7674TIP3   OH222985   1.015   3.585   0.626  0.1400  0.3687 -0.2961
 7674TIP3    H122986   1.056   3.593   0.540  1.3228  1.2960  0.3239
 7674TIP3    H222987   0.921   3.578   0.607  0.4592 -0.5361 -1.6928
 7675TIP3   OH222988   0.247   2.032   0.563 -0.3377 -0.1980 -0.2623
 7675TIP3    H122989   0.250   2.128   0.563  0.0089 -0.1705  1.4263
 7675TIP3    H222990   0.338   2.005   0.555 -0.2499 -0.3222  0.8717
 7676TIP3   OH222991   4.617   4.654   5.795  0.1312  0.2889  0.0784
 7676TIP3    H122992   4.558   4.714   5.840 -0.6576 -0.5216  0.1546
 7676TIP3    H222993   4.561   4.606   5.735  0.9104  0.2539 -0.6319
 7677TIP3   OH222994   1.402   3.598   3.448  0.4503 -0.3360 -0.2843
 7677TIP3    H122995   1.428   3.524   3.502 -0.9148 -1.1838 -0.7559
 7677TIP3    H222996   1.328   3.566   3.396 -0.2648  1.3903 -0.3967
 7678TIP3   OH222997   1.657   6.393   0.089 -0.6780  0.0005  0.2139
 7678TIP3    H122998   1.736   6.342   0.073 -0.5941  0.4107 -0.7760
 7678TIP3    H222999   1.589   6.328   0.105  0.0021 -0.3394  1.8717
 7679TIP3   OH223000   6.993   2.060   0.888 -0.2637 -0.4292  0.3863
 7679TIP3    H123001   7.019   2.152   0.891 -1.0413 -0.2149  2.0325
 7679TIP3    H223002   7.074   2.012   0.873  0.3936  0.4553  1.0099
 7680TIP3   OH223003   1.936   0.597   2.595 -0.0975 -0.1285 -0.2610
 7680TIP3    H123004   1.943   0.507   2.561  0.5721 -0.1239 -0.1405
 7680TIP3    H223005   1.856   0.631   2.555  0.2509 -0.3963 -1.2022
 7681TIP3   OH223006   2.602   6.300   1.647 -0.0246 -0.0644  0.0172
 7681TIP3    H123007   2.554   6.342   1.575 -0.4325  1.2155  1.0129
 7681TIP3    H223008   2.537   6.288   1.716  0.2877 -1.5840  0.1005
 7682TIP3   OH223009   0.440   0.923   5.126  0.2962  0.1929  0.7646
 7682TIP3    H123010   0.461   0.840   5.168  2.1311 -0.3237 -1.0150
 7682TIP3    H223011   0.406   0.898   5.039 -0.2107  1.2812  0.6300
 7683TIP3   OH223012   5.132   4.602   1.990 -0.5841 -0.3594  0.2482
 7683TIP3    H123013   5.054   4.630   1.943 -0.9246 -1.0685  0.3704
 7683TIP3    H223014   5.182   4.682   2.004 -0.4793 -0.1182 -1.2924
 7684TIP3   OH223015   5.843   5.060   0.826  0.2619  0.3145 -0.2581
 7684TIP3    H123016   5.887   5.139   0.857  0.2212  0.2403 -0.0040
 7684TIP3    H223017   5.761   5.057   0.876  0.7082 -0.4044  0.4545
 7685TIP3   OH223018   4.369   3.613   2.223 -0.3033  0.3649  0.2820
 7685TIP3    H123019   4.464   3.618   2.236 -0.4325  0.5358  1.3094
 7685TIP3    H223020   4.358   3.597   2.130  0.6807  2.6572 -0.2965
 7686TIP3   OH223021   1.418   3.276   0.899  0.2124 -0.2434  0.1839
 7686TIP3    H123022   1.417   3.344   0.831 -0.7551 -1.8454 -1.4906
 7686TIP3    H223023   1.439   3.196   0.851 -1.8551 -1.6625  1.5351
 7687TIP3   OH223024   6.791   5.143   1.991 -0.0784  0.5173 -0.3164
 7687TIP3    H123025   6.759   5.096   2.068  0.9975 -0.5075 -0.4685
 7687TIP3    H223026   6.773   5.235   2.010  0.8629  0.3658  1.5317
 7688TIP3   OH223027   1.219   0.156   2.211  0.2281  0.5534 -0.1251
 7688TIP3    H123028   1.171   0.074   2.213  0.8573  0.1219 -1.4882
 7688TIP3    H223029   1.153   0.222   2.192 -0.1582  0.2717  0.2102
 7689TIP3   OH223030   1.249   2.514   1.997  0.1564 -0.5495  0.3012
 7689TIP3    H123031   1.320   2.510   2.062  0.6097 -1.0584 -0.2090
 7689TIP3    H223032   1.171   2.484   2.044  1.0081 -3.7618 -0.0500
 7690TIP3   OH223033   2.616   2.925   2.506  0.4788  0.4281 -0.2865
 7690TIP3    H123034   2.688   2.904   2.564  2.5400  2.9132 -1.7015
 7690TIP3    H223035   2.616   2.856   2.440 -0.8720 -1.5444  1.6565
 7691TIP3   OH223036   6.656   4.033   4.676  0.3625  0.1495  0.0808
 7691TIP3    H123037   6.625   3.954   4.721  0.0095 -0.3848 -1.0823
 7691TIP3    H223038   6.604   4.103   4.715  0.3270 -0.2438  0.7735
 7692TIP3   OH223039   2.899   2.312   1.870  0.4023 -0.1912  0.2404
 7692TIP3    H123040   2.861   2.387   1.914  1.0955  1.2106 -1.4495
 7692TIP3    H223041   2.824   2.267   1.830  0.2104  0.9562 -0.7253
 7693TIP3   OH223042   1.157   5.824   0.623  0.4369  0.0441  0.7973
 7693TIP3    H123043   1.208   5.904   0.610  0.5200  0.0834  1.3172
 7693TIP3    H223044   1.172   5.801   0.715  3.0689 -2.3825 -0.1030
 7694TIP3   OH223045   4.792   4.849   5.651  0.5002  0.3981  0.2866
 7694TIP3    H123046   4.719   4.883   5.600 -0.4725 -0.7749  0.8334
 7694TIP3    H223047   4.751   4.792   5.716  1.9100 -0.3314  0.5840
 7695TIP3   OH223048   4.748   3.039   2.576 -0.0868  0.8337 -0.3698
 7695TIP3    H123049   4.688   2.969   2.604  0.0668  1.1836  0.8813
 7695TIP3    H223050   4.693   3.096   2.520 -0.9031  1.0738  0.6429
 7696TIP3   OH223051   2.282   0.744   4.092  0.2290 -0.0289  0.4177
 7696TIP3    H123052   2.300   0.828   4.136 -0.1029 -0.5306  1.5548
 7696TIP3    H223053   2.360   0.691   4.108  0.1340 -0.1946  0.3396
 7697TIP3   OH223054   4.826   0.807   0.097  0.3792 -0.4438  0.2176
 7697TIP3    H123055   4.837   0.712   0.109  1.9578 -0.3801 -0.4288
 7697TIP3    H223056   4.847   0.844   0.182 -0.4028 -0.6691  0.5190
 7698TIP3   OH223057   3.462   6.393   0.745 -0.4752 -0.3840 -0.0162
 7698TIP3    H123058   3.440   6.428   0.659  1.9967  0.6421 -0.3117
 7698TIP3    H223059   3.546   6.434   0.767  0.1293 -2.4232  1.8432
 7699TIP3   OH223060   6.174   5.676   4.514  0.0968 -0.1861 -0.4054
 7699TIP3    H123061   6.257   5.716   4.541 -0.9147  1.5540  0.2527
 7699TIP3    H223062   6.172   5.686   4.419 -0.1223  1.4044 -0.2656
 7700TIP3   OH223063   3.428   4.869   1.484 -0.1852  0.2202  0.5083
 7700TIP3    H123064   3.376   4.942   1.516 -0.1187  0.0114  1.0958
 7700TIP3    H223065   3.463   4.900   1.400 -0.0875  0.8963  0.7910
 7701TIP3   OH223066   6.196   1.836   4.351 -0.5263  0.0133 -0.5403
 7701TIP3    H123067   6.135   1.879   4.292 -1.4647  1.4978  1.3928
 7701TIP3    H223068   6.215   1.902   4.418  2.0515 -0.9057 -0.2454
 7702TIP3   OH223069   3.054   6.149   2.019  0.0484 -0.3732 -0.8525
 7702TIP3    H123070   2.967   6.184   2.004 -0.7390 -1.1158  1.4339
 7702TIP3    H223071   3.100   6.159   1.936 -2.0429  0.5042 -1.9598
 7703TIP3   OH223072   0.329   0.298   0.102  0.6104 -0.0777 -0.3301
 7703TIP3    H123073   0.271   0.311   0.178 -0.8158 -1.7259 -1.0635
 7703TIP3    H223074   0.411   0.266   0.140  0.3049  0.1918  0.5951
 7704TIP3   OH223075   3.022   6.220   2.764 -0.0204  0.1859  0.3211
 7704TIP3    H123076   2.934   6.235   2.799  0.0434  1.0808  0.1138
 7704TIP3    H223077   3.052   6.141   2.809 -1.5058 -1.0351 -0.6915
 7705TIP3   OH223078   4.985   2.743   4.139  0.6332  0.0027  0.6983
 7705TIP3    H123079   5.080   2.730   4.135  1.4015  4.1332  1.2724
 7705TIP3    H223080   4.963   2.729   4.231  0.1959 -2.8741  0.2502
 7706TIP3   OH223081   1.190   0.245   2.818  0.4253  0.3082  0.0733
 7706TIP3    H123082   1.113   0.297   2.842 -1.0329 -1.6629 -0.0672
 7706TIP3    H223083   1.198   0.257   2.723 -0.1488 -0.0078 -0.0207
 7707TIP3   OH223084   1.807   5.939   3.600  0.0444  0.0613 -1.2629
 7707TIP3    H123085   1.762   6.021   3.618 -1.1857 -0.6229 -1.1182
 7707TIP3    H223086   1.872   5.962   3.533  0.4523  1.3526 -0.4469
 7708TIP3   OH223087   5.816   4.976   4.119 -0.2003  0.3915 -0.0653
 7708TIP3    H123088   5.759   4.926   4.178  0.3420 -1.8200 -1.3143
 7708TIP3    H223089   5.779   4.961   4.032  0.3338  1.7526 -0.5616
 7709TIP3   OH223090   0.154   4.538   3.259 -0.6865  0.3475  0.6940
 7709TIP3    H123091   0.178   4.462   3.312 -1.0153  0.5254  1.0992
 7709TIP3    H223092   0.206   4.610   3.295  0.8332  0.0258 -0.6819
 7710TIP3   OH223093   0.702   6.495   3.227  0.1782 -0.1381  0.6630
 7710TIP3    H123094   0.651   6.465   3.152 -0.6789 -1.5999  1.7749
 7710TIP3    H223095   0.659   6.455   3.303  1.1985  1.0382  1.9134
 7711TIP3   OH223096   2.683   3.863   5.027  0.0934 -0.5945  0.3727
 7711TIP3    H123097   2.776   3.886   5.032  0.2635 -1.3055  0.5671
 7711TIP3    H223098   2.648   3.887   5.113 -0.3050  1.3104 -0.2716
 7712TIP3   OH223099   4.043   1.573   5.851 -0.0889 -0.8414 -0.2474
 7712TIP3    H123100   4.103   1.527   5.793  0.0923  0.0791 -0.8194
 7712TIP3    H223101   3.963   1.583   5.800 -0.1417 -0.5710 -0.1122
 7713TIP3   OH223102   2.880   4.307   1.951  0.2074 -0.6544 -0.0531
 7713TIP3    H123103   2.924   4.378   1.997 -3.0690  0.4587  1.7230
 7713TIP3    H223104   2.834   4.350   1.879  2.3811 -1.8745 -2.2986
 7714TIP3   OH223105   0.243   3.959   3.580  0.6639 -0.0743 -0.1504
 7714TIP3    H123106   0.174   3.896   3.558  0.2623  0.4930 -0.5308
 7714TIP3    H223107   0.199   4.025   3.633  0.9505  0.2128 -0.2668
 7715TIP3   OH223108   0.387   3.040   3.132 -0.1615  0.0402 -0.3728
 7715TIP3    H123109   0.463   3.096   3.115  0.3363 -0.3568  0.4220
 7715TIP3    H223110   0.334   3.090   3.194  1.6859 -1.3942  2.6260
 7716TIP3   OH223111   3.258   3.611   5.183 -0.3501  0.2801  0.3718
 7716TIP3    H123112   3.232   3.633   5.094 -0.1968 -0.0334  0.2459
 7716TIP3    H223113   3.225   3.521   5.196  1.6207 -0.5668 -0.1911
 7717TIP3   OH223114   7.083   6.619   5.760  0.4121  0.3563 -0.0830
 7717TIP3    H123115   7.119   6.690   5.706 -0.3908  0.7729 -0.0842
 7717TIP3    H223116   7.014   6.661   5.811 -0.0581 -0.4240 -0.0695
 7718TIP3   OH223117   5.661   0.678   5.013  0.0052  0.5125 -0.1585
 7718TIP3    H123118   5.710   0.753   4.980 -0.5747 -0.8344 -4.7685
 7718TIP3    H223119   5.706   0.602   4.978  0.0090 -1.4313  3.5409
 7719TIP3   OH223120   0.497   6.476   3.838 -0.2518  0.1366  0.0532
 7719TIP3    H123121   0.438   6.528   3.784  1.7300  1.2605 -1.1277
 7719TIP3    H223122   0.490   6.515   3.925 -0.5826  0.8490 -0.2850
 7720TIP3   OH223123   6.900   6.008   3.893 -0.3397  0.1064  0.0320
 7720TIP3    H123124   6.836   5.984   3.960  1.6754 -1.0675  1.6637
 7720TIP3    H223125   6.899   6.104   3.890 -1.4342  0.1202  0.7434
 7721TIP3   OH223126   2.540   3.472   4.606  0.8711  0.5063 -0.0643
 7721TIP3    H123127   2.624   3.425   4.605 -0.0163 -1.3093  2.0863
 7721TIP3    H223128   2.564   3.562   4.630  2.1521 -0.3837  2.4417
 7722TIP3   OH223129   4.371   0.002   1.599  0.0952 -0.0892  0.3591
 7722TIP3    H123130   4.302  -0.061   1.619 -1.0805  1.1611  0.3374
 7722TIP3    H223131   4.328   0.087   1.600  1.8831  0.8855  1.6916
 7723TIP3   OH223132   0.779   4.177   0.959  0.4238  0.8882  0.0422
 7723TIP3    H123133   0.713   4.228   0.913  0.6169  0.3565 -0.8416
 7723TIP3    H223134   0.858   4.184   0.905  0.2208 -1.0363 -0.5670
 7724TIP3   OH223135   6.305   4.645   2.654  0.5341 -0.3558 -0.0401
 7724TIP3    H123136   6.241   4.639   2.725 -0.3191  2.1167 -0.5087
 7724TIP3    H223137   6.375   4.701   2.690 -0.6903  2.3471 -1.5517
 7725TIP3   OH223138   0.172   5.453   4.227 -0.1203  0.4760  0.0339
 7725TIP3    H123139   0.246   5.419   4.176  0.1445  1.5864 -0.3549
 7725TIP3    H223140   0.161   5.543   4.196 -1.6708  0.3252  0.0550
 7726TIP3   OH223141   1.526   1.186   4.956 -0.2046 -0.2741  0.0131
 7726TIP3    H123142   1.481   1.103   4.973 -0.1184 -0.2889  0.1606
 7726TIP3    H223143   1.605   1.182   5.009 -0.9240  0.5355  1.1985
 7727TIP3   OH223144   7.001   3.653   3.737 -0.1020  0.3546 -0.3429
 7727TIP3    H123145   6.934   3.629   3.674 -0.1399  1.5708 -0.7911
 7727TIP3    H223146   7.070   3.586   3.725 -1.0636 -0.7090 -0.0983
 7728TIP3   OH223147   2.745   5.979   4.375 -0.4367 -0.5440  0.3752
 7728TIP3    H123148   2.774   6.067   4.350 -0.0508 -0.9379 -0.6075
 7728TIP3    H223149   2.665   5.965   4.324 -2.0167  0.2480  2.5180
 7729TIP3   OH223150   5.616   1.599   5.151  0.3888  0.1071  0.3145
 7729TIP3    H123151   5.642   1.689   5.171 -0.7654  0.4730  0.2338
 7729TIP3    H223152   5.550   1.577   5.216 -0.2407 -0.2330 -0.4206
 7730TIP3   OH223153   4.799   3.463   1.279 -0.0156 -0.6736  0.0480
 7730TIP3    H123154   4.804   3.428   1.189  1.3419 -0.5946  0.0748
 7730TIP3    H223155   4.886   3.498   1.296 -0.1510 -1.0112  1.5456
 7731TIP3   OH223156   1.188   1.759   3.820  0.3237 -0.0695  0.4665
 7731TIP3    H123157   1.264   1.805   3.855  0.2870  0.0103  0.4433
 7731TIP3    H223158   1.205   1.751   3.727  0.3805 -0.2014  0.4887
 7732TIP3   OH223159   0.061   3.080   2.592  0.2723  0.2902 -0.1386
 7732TIP3    H123160  -0.008   3.037   2.643  0.2798  0.6570  0.1816
 7732TIP3    H223161   0.014   3.128   2.524 -0.1403  3.7403  2.3398
 7733TIP3   OH223162   6.800   3.157   1.813 -0.2241  0.6551 -0.1390
 7733TIP3    H123163   6.791   3.074   1.859 -1.2091 -0.0570 -1.5386
 7733TIP3    H223164   6.810   3.133   1.721 -0.8005  2.0758 -0.6099
 7734TIP3   OH223165   1.419   1.308   0.624  0.9574  0.3362 -0.0639
 7734TIP3    H123166   1.491   1.245   0.619 -0.6026 -1.6720  1.1269
 7734TIP3    H223167   1.346   1.265   0.579  0.0808  1.6797  0.0165
 7735TIP3   OH223168   0.651   0.246   1.147  0.5733 -0.0115  1.1683
 7735TIP3    H123169   0.683   0.307   1.213  0.3960  1.9842 -0.4753
 7735TIP3    H223170   0.725   0.231   1.089 -0.2431  1.3242 -0.2991
 7736TIP3   OH223171   2.326   0.372   1.458  0.0600 -0.3445 -0.2194
 7736TIP3    H123172   2.354   0.430   1.387 -0.9545  0.5610  0.0929
 7736TIP3    H223173   2.230   0.368   1.449 -0.0817 -0.2487  1.0536
 7737TIP3   OH223174   1.964   0.867   2.671  0.1788 -0.2989  0.8159
 7737TIP3    H123175   1.960   0.776   2.642 -0.3766 -0.5784  1.7574
 7737TIP3    H223176   2.051   0.897   2.643 -1.0805  0.2081 -3.3057
 7738TIP3   OH223177   5.346   0.240   2.249  0.5975 -0.4586  0.3634
 7738TIP3    H123178   5.318   0.297   2.178 -0.6366 -0.0962  1.1027
 7738TIP3    H223179   5.350   0.153   2.211 -0.0808 -0.2733 -0.1466
 7739TIP3   OH223180   6.041   6.242   1.919  0.1704  0.3406 -0.3951
 7739TIP3    H123181   5.949   6.254   1.943  0.8255  0.4689  2.4498
 7739TIP3    H223182   6.086   6.233   2.003  2.3049 -3.4058 -1.7320
 7740TIP3   OH223183   3.552   5.796   2.150 -0.4267 -0.7231  0.5873
 7740TIP3    H123184   3.494   5.777   2.224  1.1116 -1.9049  1.5473
 7740TIP3    H223185   3.595   5.713   2.131  0.1435 -0.1312 -0.8262
 7741TIP3   OH223186   0.611   4.757   5.177 -0.9449  0.2425 -0.8939
 7741TIP3    H123187   0.700   4.722   5.173 -0.3458  1.6465 -0.6212
 7741TIP3    H223188   0.567   4.701   5.242  0.0823  0.2254 -0.1716
 7742TIP3   OH223189   3.780   0.163   2.277 -0.5418  0.2065 -0.1587
 7742TIP3    H123190   3.791   0.210   2.359  0.1995  1.8369 -1.1392
 7742TIP3    H223191   3.834   0.085   2.286 -0.3678  0.4388  0.8465
 7743TIP3   OH223192   3.990   6.183   1.255 -0.4296 -0.1935  0.1101
 7743TIP3    H123193   3.906   6.152   1.290  0.3271 -0.2530  1.9499
 7743TIP3    H223194   4.056   6.129   1.298  0.6284  0.6211 -0.4525
 7744TIP3   OH223195   4.531   4.843   1.479 -0.6360  0.1145  0.6012
 7744TIP3    H123196   4.537   4.758   1.523  3.6433 -0.5275 -0.7328
 7744TIP3    H223197   4.515   4.822   1.388 -0.7602  0.8385  0.4488
 7745TIP3   OH223198   0.498   3.439   5.844  0.7423 -0.8395  0.2259
 7745TIP3    H123199   0.585   3.404   5.822  2.1323  1.4191  1.6980
 7745TIP3    H223200   0.506   3.466   5.935 -2.4644 -3.1137  1.3772
 7746TIP3   OH223201   3.298   0.456   2.752 -0.2590  0.0514 -0.4857
 7746TIP3    H123202   3.310   0.546   2.720 -2.8199  0.5525 -0.2116
 7746TIP3    H223203   3.236   0.417   2.691  0.4505 -1.4271 -0.3184
 7747TIP3   OH223204   1.169   5.682   4.413 -0.1973 -0.0400 -0.2102
 7747TIP3    H123205   1.244   5.625   4.433  0.5725  1.3065  0.9256
 7747TIP3    H223206   1.179   5.703   4.320  1.4560  0.9284  0.1468
 7748TIP3   OH223207   3.676   4.783   1.867  0.2896 -0.0905  0.1763
 7748TIP3    H123208   3.649   4.857   1.812  0.4138 -0.7464 -0.7955
 7748TIP3    H223209   3.772   4.784   1.862  0.3042 -0.1168  0.4382
 7749TIP3   OH223210   5.872   6.694   3.458 -0.4960 -0.2351  0.8380
 7749TIP3    H123211   5.935   6.738   3.516 -0.3063 -0.8327  1.0990
 7749TIP3    H223212   5.806   6.761   3.439 -0.5309 -0.0069  1.7021
 7750TIP3   OH223213   6.538   5.770   0.757 -0.2636 -0.4261  0.0294
 7750TIP3    H123214   6.564   5.842   0.699 -0.8301  0.8848  1.3368
 7750TIP3    H223215   6.598   5.699   0.736  0.7598  0.6621 -0.8397
 7751TIP3   OH223216   2.392   4.157   5.661 -0.2589 -0.9208 -0.1678
 7751TIP3    H123217   2.312   4.196   5.624 -0.7915 -0.9907  0.8815
 7751TIP3    H223218   2.461   4.221   5.641 -0.6538 -0.6540 -0.7060
 7752TIP3   OH223219   1.813   1.749   1.857 -0.1751  0.0631 -0.5236
 7752TIP3    H123220   1.777   1.669   1.896  2.5468 -1.3639 -0.6551
 7752TIP3    H223221   1.846   1.721   1.771 -1.0979  1.8812 -1.5362
 7753TIP3   OH223222   5.969   6.789   5.493 -0.3577 -0.5393  0.3948
 7753TIP3    H123223   5.986   6.708   5.542 -0.2498 -1.0040 -0.4075
 7753TIP3    H223224   5.879   6.812   5.516  0.2121  0.1735  2.1186
 7754TIP3   OH223225   6.292   3.299   2.767  0.3367  0.3169  0.1651
 7754TIP3    H123226   6.266   3.215   2.730  1.0446  0.3723 -0.4889
 7754TIP3    H223227   6.321   3.350   2.692  0.0307  1.1103  0.5714
 7755TIP3   OH223228   3.045   3.115   2.047  0.3693  0.0123  0.3958
 7755TIP3    H123229   2.995   3.190   2.077  1.1211 -0.0745  1.9468
 7755TIP3    H223230   3.028   3.047   2.113  1.3131 -0.5062  0.1182
 7756TIP3   OH223231   0.692   1.685   4.735 -0.3617  0.6525 -0.0405
 7756TIP3    H123232   0.701   1.771   4.695 -1.0646  0.1238 -1.3837
 7756TIP3    H223233   0.766   1.679   4.796 -0.1349  2.0684 -0.1409
 7757TIP3   OH223234   5.975   1.840   0.705 -0.3050 -0.0643 -0.5939
 7757TIP3    H123235   5.904   1.790   0.746  0.0373  0.3643  0.5693
 7757TIP3    H223236   6.055   1.791   0.726  0.0750  1.1160  0.8703
 7758TIP3   OH223237   5.009   5.523   1.793  0.5024 -0.2584 -0.0917
 7758TIP3    H123238   5.081   5.571   1.834  2.4579 -2.1480 -1.1217
 7758TIP3    H223239   5.036   5.512   1.702 -1.7473  0.0940 -0.8539
 7759TIP3   OH223240   0.967   2.055   4.611 -0.2786 -0.2846 -0.0831
 7759TIP3    H123241   0.996   2.145   4.598 -1.6691  0.6738  2.7249
 7759TIP3    H223242   1.043   2.001   4.585  1.7257  1.8056  1.0982
 7760TIP3   OH223243   7.072   6.361   4.266 -0.4556 -0.6209  0.4070
 7760TIP3    H123244   6.984   6.347   4.232  0.0290 -1.1460 -0.6739
 7760TIP3    H223245   7.117   6.409   4.197 -0.6183  2.0040  2.0047
 7761TIP3   OH223246   2.574   1.360   2.734  0.4088 -0.0446 -0.2902
 7761TIP3    H123247   2.622   1.388   2.656 -0.8094  0.4644 -0.8855
 7761TIP3    H223248   2.641   1.357   2.803  1.3279  0.4472 -1.1243
 7762TIP3   OH223249   3.424   2.402   3.101  0.1710  0.0919  0.0698
 7762TIP3    H123250   3.435   2.324   3.157 -0.3706  0.6232  0.9410
 7762TIP3    H223251   3.507   2.410   3.054  0.4246 -0.7065  0.3653
 7763TIP3   OH223252   3.085   6.470   5.469 -0.5685  0.3379 -0.3996
 7763TIP3    H123253   3.052   6.380   5.469 -1.4302  0.6306  0.7930
 7763TIP3    H223254   3.122   6.482   5.556 -1.9842  1.6530  0.0650
 7764TIP3   OH223255   0.766   4.686   3.375 -0.0255 -0.4165 -0.2972
 7764TIP3    H123256   0.837   4.625   3.396  0.4460  0.2110 -0.0714
 7764TIP3    H223257   0.789   4.767   3.418  0.8641  0.8494 -2.9434
 7765TIP3   OH223258   3.513   0.205   3.262 -0.0090  0.4277  0.2553
 7765TIP3    H123259   3.433   0.214   3.210 -1.3386  0.0611  2.1269
 7765TIP3    H223260   3.562   0.136   3.218 -1.3427 -0.2536 -0.2445
 7766TIP3   OH223261   0.335   6.342   5.157 -0.0673  0.8665  0.3104
 7766TIP3    H123262   0.360   6.429   5.188 -0.5847  0.8076  0.8913
 7766TIP3    H223263   0.401   6.284   5.195  0.9452  1.1106 -0.9715
 7767TIP3   OH223264   5.513   3.615   2.923  0.0974  0.4240  0.1382
 7767TIP3    H123265   5.421   3.627   2.898  0.3471  1.0703 -0.5054
 7767TIP3    H223266   5.535   3.695   2.970  0.3438  0.2926  0.2436
 7768TIP3   OH223267   6.312   0.654   0.844  0.3086 -0.5134 -0.2145
 7768TIP3    H123268   6.220   0.628   0.836 -0.7509  2.5498  0.7307
 7768TIP3    H223269   6.340   0.673   0.754 -0.8691  1.0581 -0.2882
 7769TIP3   OH223270   1.359   2.327   1.252  0.4958 -0.3925  0.0323
 7769TIP3    H123271   1.424   2.378   1.204  1.1473 -1.3971 -0.1850
 7769TIP3    H223272   1.382   2.340   1.344  0.0000  0.5416  0.0399
 7770TIP3   OH223273   0.497   4.706   0.668  0.0042 -0.2295  0.2917
 7770TIP3    H123274   0.563   4.774   0.677 -0.2174 -0.0659  0.7374
 7770TIP3    H223275   0.470   4.687   0.758 -0.3901 -0.4527  0.1305
 7771TIP3   OH223276   5.550   1.838   2.234 -0.5761 -0.5778  0.2451
 7771TIP3    H123277   5.524   1.799   2.151 -0.7797 -1.6355  0.7781
 7771TIP3    H223278   5.470   1.838   2.287  0.0271 -2.0861  1.2342
 7772TIP3   OH223279   4.564   6.572   4.751 -0.0918  0.7565  0.0769
 7772TIP3    H123280   4.603   6.605   4.832  0.4061  0.9755 -0.2423
 7772TIP3    H223281   4.475   6.607   4.751 -0.0390  0.8998  0.4415
 7773TIP3   OH223282   4.640   0.357   1.909  0.2958  0.1214 -0.3534
 7773TIP3    H123283   4.582   0.417   1.860 -0.7440 -0.4166  0.1841
 7773TIP3    H223284   4.678   0.412   1.977 -0.3725  0.2664 -0.0871
 7774TIP3   OH223285   1.530   4.449   2.022  0.0221 -0.3709 -0.1780
 7774TIP3    H123286   1.468   4.376   2.031 -0.9329  0.3822 -0.4726
 7774TIP3    H223287   1.474   4.526   2.015  1.0189  0.5235  1.2634
 7775TIP3   OH223288   2.470   1.535   5.392 -0.0782 -0.1612  0.1712
 7775TIP3    H123289   2.412   1.465   5.360  1.3724 -0.8520 -1.1092
 7775TIP3    H223290   2.449   1.543   5.485 -1.8614 -0.7168 -0.1357
 7776TIP3   OH223291   1.457   4.142   1.025  0.3673  0.4264 -0.2536
 7776TIP3    H123292   1.482   4.101   0.942 -0.5943  1.9608 -1.3556
 7776TIP3    H223293   1.535   4.188   1.054  0.3871  0.7943 -0.8848
 7777TIP3   OH223294   4.375   3.712   0.494  0.5023  0.3048 -0.1048
 7777TIP3    H123295   4.309   3.725   0.562 -0.5162 -0.7179 -0.8622
 7777TIP3    H223296   4.348   3.633   0.449  1.9009  0.2234 -0.8676
 7778TIP3   OH223297   0.657   1.149   4.946  0.5208  0.1965  0.4982
 7778TIP3    H123298   0.716   1.215   4.907 -0.2776 -0.5675 -2.1885
 7778TIP3    H223299   0.574   1.195   4.958  0.9800  0.6635  2.2517
 7779TIP3   OH223300   6.973   2.894   3.331  0.4150  0.2811 -0.2350
 7779TIP3    H123301   6.945   2.888   3.239 -2.1036  0.2024  0.4789
 7779TIP3    H223302   7.019   2.812   3.347  0.8989  0.2940 -1.4009
 7780TIP3   OH223303   0.760   1.309   2.177  0.4535  0.1473  0.4748
 7780TIP3    H123304   0.781   1.314   2.084 -0.3626  0.0189  0.2723
 7780TIP3    H223305   0.782   1.219   2.203  0.5792  0.1512  0.3783
 7781TIP3   OH223306   6.803  -0.008   1.244  0.0368 -0.4315 -0.0045
 7781TIP3    H123307   6.826   0.076   1.284 -1.4987  0.2274 -0.4301
 7781TIP3    H223308   6.886  -0.055   1.236  0.9035  0.9968  0.3426
 7782TIP3   OH223309   6.783   3.503   3.583 -0.3556 -0.3315  0.0239
 7782TIP3    H123310   6.821   3.423   3.546  0.7765  0.4918 -0.6753
 7782TIP3    H223311   6.718   3.531   3.518 -0.0049 -0.1318 -0.2478
 7783TIP3   OH223312   2.472   0.153   2.608  0.0045  0.0159  0.0188
 7783TIP3    H123313   2.547   0.168   2.550 -0.3898  0.5575 -0.3634
 7783TIP3    H223314   2.503   0.178   2.694 -0.0950  1.4061 -0.3293
 7784TIP3   OH223315   3.703   3.531   0.136  0.6798  0.6440 -0.0022
 7784TIP3    H123316   3.767   3.603   0.135  1.5895 -0.1577 -0.6143
 7784TIP3    H223317   3.724   3.482   0.215  0.8253  0.3800 -0.2035
 7785TIP3   OH223318   7.230   0.611   3.200  0.3100  0.1592 -0.0405
 7785TIP3    H123319   7.153   0.587   3.148  0.3348 -1.0930  0.4742
 7785TIP3    H223320   7.201   0.687   3.251 -0.7782 -0.6475  0.5822
 7786TIP3   OH223321   6.214   1.393   4.044  0.2699  0.1766  0.2764
 7786TIP3    H123322   6.239   1.440   3.964 -3.1982  0.1358 -1.0190
 7786TIP3    H223323   6.261   1.310   4.040  0.0553  0.1021 -1.8795
 7787TIP3   OH223324   2.506   3.630   2.538  0.2561 -0.8687  0.5069
 7787TIP3    H123325   2.421   3.601   2.506  0.8078 -0.7406 -1.1555
 7787TIP3    H223326   2.549   3.667   2.462  0.7559  1.6069  1.8920
 7788TIP3   OH223327   2.396   1.008   4.475 -0.0542  0.7658 -0.3180
 7788TIP3    H123328   2.309   1.038   4.446  0.0485  2.4633  0.9287
 7788TIP3    H223329   2.404   0.919   4.440 -1.5024  1.2455 -2.0689
 7789TIP3   OH223330   3.026   6.630   0.826 -0.0326 -0.1642  0.0540
 7789TIP3    H123331   3.115   6.623   0.861 -0.0459 -0.2238  0.0765
 7789TIP3    H223332   3.039   6.639   0.732 -0.0303 -1.3217 -0.0769
 7790TIP3   OH223333   6.163   2.099   1.988  0.1186 -0.0968 -0.2986
 7790TIP3    H123334   6.122   2.028   2.037 -0.3087 -0.6467 -1.4064
 7790TIP3    H223335   6.231   2.133   2.046 -1.2697  0.2193  1.2159
 7791TIP3   OH223336   4.904   2.557   4.624 -0.1898 -0.5170 -0.7909
 7791TIP3    H123337   4.834   2.578   4.562  1.1418  0.1386 -2.1208
 7791TIP3    H223338   4.862   2.500   4.689 -1.5499 -1.5559 -2.4907
 7792TIP3   OH223339   2.809   0.466   4.485  0.0657  0.1453  0.1801
 7792TIP3    H123340   2.826   0.534   4.421 -0.2189  1.0883  1.0792
 7792TIP3    H223341   2.808   0.385   4.434  1.2178  0.7059 -0.7872
 7793TIP3   OH223342   2.182   2.864   1.745  0.3557  0.6422  0.7996
 7793TIP3    H123343   2.144   2.805   1.811  2.4224  0.3952  1.8314
 7793TIP3    H223344   2.245   2.811   1.698  0.0353  1.2505 -0.3511
 7794TIP3   OH223345   5.456   1.407   4.829  0.8922  0.2801  0.2126
 7794TIP3    H123346   5.457   1.475   4.761 -1.4209 -0.2348 -0.4270
 7794TIP3    H223347   5.471   1.326   4.781  0.6293  0.0410  0.5401
 7795TIP3   OH223348   3.432   3.931   0.830  0.1081  0.1956  0.1572
 7795TIP3    H123349   3.468   3.870   0.895 -1.1201  1.2482  1.9204
 7795TIP3    H223350   3.486   4.009   0.839  0.0061  0.3034 -0.1732
 7796TIP3   OH223351   6.616   4.490   5.348  0.0260 -0.3638 -0.1345
 7796TIP3    H123352   6.572   4.405   5.335 -3.3448  1.4374 -1.9091
 7796TIP3    H223353   6.551   4.543   5.395  1.1480  1.8674 -0.9895
 7797TIP3   OH223354   1.196   2.370   2.816  0.7304  0.6314 -0.0487
 7797TIP3    H123355   1.130   2.352   2.883  1.2373  0.2266  0.3534
 7797TIP3    H223356   1.177   2.459   2.786 -0.4161  0.2861 -0.4274
 7798TIP3   OH223357   4.666   6.441   1.693  0.2865  0.1052 -0.1658
 7798TIP3    H123358   4.656   6.408   1.782  0.7473  0.3864 -0.0030
 7798TIP3    H223359   4.727   6.515   1.702 -0.3826  0.7188 -0.5822
 7799TIP3   OH223360   5.956   6.048   3.021  0.0221 -0.0816 -0.7283
 7799TIP3    H123361   5.886   6.013   2.966  0.8663 -1.6154 -0.8895
 7799TIP3    H223362   5.984   6.128   2.977 -0.7665 -0.1371 -1.3438
 7800TIP3   OH223363   0.328   1.870   0.118  0.4970  0.1816 -0.3356
 7800TIP3    H123364   0.286   1.815   0.051 -0.8837  0.9603 -0.1465
 7800TIP3    H223365   0.422   1.863   0.099  0.1342  0.8389 -2.7383
 7801TIP3   OH223366   1.273   1.080   4.909 -0.2462  0.1742 -0.2595
 7801TIP3    H123367   1.178   1.084   4.909 -0.3393 -0.9970 -1.6865
 7801TIP3    H223368   1.293   0.987   4.892  1.1160  0.6247 -1.3459
 7802TIP3   OH223369   4.314   2.615   2.385  0.2305 -0.1307 -0.3685
 7802TIP3    H123370   4.284   2.557   2.315 -1.2446  0.2709 -0.1037
 7802TIP3    H223371   4.305   2.562   2.465 -1.2490  0.4484 -0.1086
 7803TIP3   OH223372   5.011   3.679   3.590 -0.1015  0.0894 -0.4007
 7803TIP3    H123373   5.002   3.587   3.615  1.6895 -0.0334 -0.0868
 7803TIP3    H223374   5.014   3.726   3.673 -0.8181  0.4299 -0.5580
 7804TIP3   OH223375   2.214   1.040   2.114  0.2054  0.1488 -0.4258
 7804TIP3    H123376   2.273   1.002   2.178 -0.9670 -0.7474  0.1518
 7804TIP3    H223377   2.265   1.043   2.033 -0.0533 -4.2684 -1.0105
 7805TIP3   OH223378   7.058   5.040   3.998 -0.1578 -0.8005 -0.2691
 7805TIP3    H123379   7.029   4.954   4.030 -1.3217 -1.7758 -3.5956
 7805TIP3    H223380   7.145   5.023   3.961  0.5684  0.0083  0.9771
 7806TIP3   OH223381   4.945   6.263   1.755 -0.5096  0.3503  0.1684
 7806TIP3    H123382   4.911   6.187   1.803 -0.3469 -0.2079 -0.5778
 7806TIP3    H223383   4.869   6.320   1.745 -0.3912  0.8049  1.6834
 7807TIP3   OH223384   4.281   6.332   0.561  0.5633 -0.2205  0.0800
 7807TIP3    H123385   4.252   6.384   0.635  0.4806 -0.9693  0.5880
 7807TIP3    H223386   4.203   6.321   0.507  0.6924  0.5713 -0.2726
 7808TIP3   OH223387   1.183   3.987   4.757  0.9574  0.1407 -0.1854
 7808TIP3    H123388   1.166   3.899   4.723  1.5383  0.0564 -0.2627
 7808TIP3    H223389   1.127   4.044   4.704  1.3891 -0.0598 -0.8626
 7809TIP3   OH223390   4.357   0.954   0.470 -0.0588  0.7669 -0.2838
 7809TIP3    H123391   4.290   1.020   0.490  2.0924  3.3386 -1.0658
 7809TIP3    H223392   4.316   0.898   0.403 -1.0820  2.9139 -1.5602
 7810TIP3   OH223393   0.104   5.144   3.414  0.0366 -0.1124 -0.5579
 7810TIP3    H123394   0.121   5.229   3.375  1.1320 -0.0323  0.0367
 7810TIP3    H223395   0.010   5.143   3.430  0.0460  1.0893 -0.3397
 7811TIP3   OH223396   6.901   0.234   1.328  0.6711  0.0327  0.4405
 7811TIP3    H123397   6.857   0.290   1.393 -2.5629  0.1364 -1.6021
 7811TIP3    H223398   6.967   0.292   1.288 -0.6584  1.5655  0.3324
 7812TIP3   OH223399   5.950   1.821   0.061 -0.3934 -0.4779 -0.4213
 7812TIP3    H123400   5.862   1.835   0.026  0.4045  2.1500 -1.6033
 7812TIP3    H223401   5.988   1.753   0.005 -0.0850  1.7598 -3.1054
 7813TIP3   OH223402   3.296   3.260   1.525  0.0352  0.1776 -0.2415
 7813TIP3    H123403   3.329   3.256   1.435  0.5702 -0.7098 -0.0211
 7813TIP3    H223404   3.336   3.185   1.568 -1.7603 -0.5665  0.2308
 7814TIP3   OH223405   4.736   5.347   4.802 -0.0157 -0.5322  0.1013
 7814TIP3    H123406   4.803   5.407   4.835 -0.8925 -0.3969  1.7003
 7814TIP3    H223407   4.786   5.277   4.759  1.2528 -1.0117  2.1991
 7815TIP3   OH223408   7.010   4.597   5.099  0.5381 -0.7022  0.4347
 7815TIP3    H123409   7.084   4.626   5.153  0.4999 -0.1780  0.2092
 7815TIP3    H223410   6.940   4.579   5.162 -0.3407  2.2899  0.4665
 7816TIP3   OH223411   1.798   6.174   4.247 -0.1000  0.1727 -0.4515
 7816TIP3    H123412   1.791   6.237   4.319  1.2919 -0.1545  0.0022
 7816TIP3    H223413   1.808   6.089   4.291  1.3200  0.0328 -0.9985
 7817TIP3   OH223414   5.472   1.623   5.378  0.7904 -0.1271 -0.0026
 7817TIP3    H123415   5.434   1.711   5.371  1.8196  0.5340  2.1001
 7817TIP3    H223416   5.547   1.633   5.436  0.1126 -2.6709  1.4624
 7818TIP3   OH223417   4.152   1.655   1.115  0.3040  0.3018 -0.2289
 7818TIP3    H123418   4.190   1.736   1.080 -2.0277  1.4587 -0.2284
 7818TIP3    H223419   4.194   1.644   1.200  0.1825  1.8879  0.0576
 7819TIP3   OH223420   4.203   0.273   1.029  0.1096  0.5371  0.1626
 7819TIP3    H123421   4.269   0.279   1.098  0.8467 -0.5948 -0.4236
 7819TIP3    H223422   4.251   0.246   0.951 -1.2168 -1.8661  0.0805
 7820TIP3   OH223423   1.802   3.321   3.066 -0.0026  0.0441  0.8885
 7820TIP3    H123424   1.778   3.235   3.031  0.7051  0.1756  0.0422
 7820TIP3    H223425   1.879   3.347   3.014  0.0149  1.0190  1.3887
 7821TIP3   OH223426   2.304   5.835   4.524  0.4297 -0.6875 -0.1821
 7821TIP3    H123427   2.378   5.824   4.583  0.5869 -0.7280 -0.3866
 7821TIP3    H223428   2.244   5.764   4.547  0.3102 -0.4619  0.1994
 7822TIP3   OH223429   2.902   6.610   3.844  0.5323 -0.1225 -0.0964
 7822TIP3    H123430   2.884   6.539   3.783 -1.5327 -0.6256  1.0009
 7822TIP3    H223431   2.824   6.665   3.841 -0.3312 -0.9589  3.0388
 7823TIP3   OH223432   7.065   5.455   1.479  0.2058 -0.3274  0.0897
 7823TIP3    H123433   7.039   5.405   1.402  0.5022 -1.2495  0.5705
 7823TIP3    H223434   7.158   5.433   1.491  0.2725  0.1452  0.4554
 7824TIP3   OH223435   0.376   5.116   5.169  0.1827 -0.0517 -1.1759
 7824TIP3    H123436   0.306   5.111   5.105 -1.2728  0.9029  0.2758
 7824TIP3    H223437   0.387   5.026   5.200  0.1974 -0.3445 -2.0177
 7825TIP3   OH223438   1.899   1.999   4.759 -0.2224 -0.9950 -0.0302
 7825TIP3    H123439   1.826   1.939   4.771  1.1545 -2.4700  1.5806
 7825TIP3    H223440   1.862   2.073   4.711 -2.6648 -1.7998  0.4734
 7826TIP3   OH223441   4.373   3.120   5.770  0.4288 -0.0641 -0.1693
 7826TIP3    H123442   4.444   3.060   5.748 -0.6377 -1.0628 -0.9555
 7826TIP3    H223443   4.407   3.206   5.744  1.9239 -0.2971  0.8559
 7827TIP3   OH223444   2.312   2.808   0.313  0.4831  0.1114 -0.4240
 7827TIP3    H123445   2.241   2.819   0.249 -0.4126 -0.1492  0.4952
 7827TIP3    H223446   2.392   2.826   0.264  0.0130 -2.2535 -2.1969
 7828TIP3   OH223447   3.501   6.334   3.086  0.1298 -0.1930 -0.1446
 7828TIP3    H123448   3.581   6.293   3.116 -0.3356 -0.4867  0.7295
 7828TIP3    H223449   3.462   6.270   3.026  0.7711  0.1522 -0.9516
 7829TIP3   OH223450   6.677   4.664   3.781 -0.0443 -0.3530  0.0385
 7829TIP3    H123451   6.751   4.652   3.841  1.3270  1.6326 -1.1211
 7829TIP3    H223452   6.603   4.686   3.837  0.3968 -1.6411  1.1873
 7830TIP3   OH223453   7.019   0.694   3.382 -0.2384  0.1797 -0.1403
 7830TIP3    H123454   7.052   0.747   3.454  2.0274 -1.5556  0.1796
 7830TIP3    H223455   6.931   0.667   3.411  0.1568  0.4865  1.4436
 7831TIP3   OH223456   3.244   1.005   5.405  0.4014  0.3040 -0.2058
 7831TIP3    H123457   3.311   0.942   5.431  0.9210  0.7739 -0.3845
 7831TIP3    H223458   3.164   0.954   5.397  0.4831 -0.0674  1.1608
 7832TIP3   OH223459   6.823   3.659   1.983  0.2184  0.4470 -0.3178
 7832TIP3    H123460   6.847   3.707   2.061  0.3388 -1.2239  0.7237
 7832TIP3    H223461   6.904   3.649   1.934  0.6715 -0.6897  0.6236
 7833TIP3   OH223462   4.681   0.915   2.605 -0.3850 -0.4532 -0.3859
 7833TIP3    H123463   4.727   0.999   2.601 -0.1980 -0.6010 -1.8303
 7833TIP3    H223464   4.589   0.939   2.618 -0.1835 -0.0774  0.4012
 7834TIP3   OH223465   1.469   2.878   5.509 -0.0269 -0.1489  0.0229
 7834TIP3    H123466   1.531   2.937   5.552  0.9347 -2.2963  1.7760
 7834TIP3    H223467   1.415   2.843   5.580 -0.6339 -1.2964 -0.9633
 7835TIP3   OH223468   3.361   2.726   0.786  0.2105 -0.5968 -0.5910
 7835TIP3    H123469   3.341   2.818   0.803  1.4799 -0.4176  0.0863
 7835TIP3    H223470   3.454   2.726   0.764  0.6505 -1.8864  1.0336
 7836TIP3   OH223471   4.537   0.806   0.660  0.2716  0.3276  0.2863
 7836TIP3    H123472   4.468   0.836   0.601  0.7086 -0.0874 -0.4459
 7836TIP3    H223473   4.555   0.716   0.632 -0.3658 -0.3346  1.8439
 7837TIP3   OH223474   4.663   6.262   2.928 -0.1344 -0.2273  0.1582
 7837TIP3    H123475   4.618   6.256   3.012  2.4122 -0.3530  1.6129
 7837TIP3    H223476   4.626   6.340   2.887 -2.2981 -0.8483  0.7950
 7838TIP3   OH223477   6.081   3.877   3.184  0.2961 -0.1821 -0.3116
 7838TIP3    H123478   6.130   3.840   3.257  1.0322 -2.1406 -1.7400
 7838TIP3    H223479   6.141   3.875   3.110  0.5999  4.4557 -0.4876
 7839TIP3   OH223480   3.224   6.639   1.562 -0.0419 -0.0895  0.6093
 7839TIP3    H123481   3.301   6.681   1.600  0.3391 -0.2755  0.0598
 7839TIP3    H223482   3.150   6.682   1.604  0.3485  0.7074  0.5039
 7840TIP3   OH223483   6.561   3.365   3.968  0.0622  0.3684  0.2287
 7840TIP3    H123484   6.654   3.350   3.984 -0.2860 -2.5027  0.1659
 7840TIP3    H223485   6.522   3.370   4.055 -0.1783 -2.6883  0.4230
 7841TIP3   OH223486   3.956   2.187   1.623  0.3391 -0.0755  0.2791
 7841TIP3    H123487   3.880   2.217   1.674 -0.2421 -0.2304 -0.4875
 7841TIP3    H223488   3.919   2.132   1.554  1.0905  0.3771 -0.5009
 7842TIP3   OH223489   0.867   6.192   1.724  0.3092 -0.2843  0.0837
 7842TIP3    H123490   0.791   6.247   1.709  1.2758  1.5302  1.3799
 7842TIP3    H223491   0.831   6.107   1.750 -1.2355  0.1874 -0.4162
 7843TIP3   OH223492   2.155   1.994   4.355  0.1514 -0.6855  0.0636
 7843TIP3    H123493   2.166   2.041   4.272 -0.6217  1.1022  0.9105
 7843TIP3    H223494   2.112   1.912   4.331  0.4445 -0.4471 -1.3497
 7844TIP3   OH223495   1.114   5.307   2.635  0.4506 -0.2717 -0.1484
 7844TIP3    H123496   1.029   5.276   2.603  0.4144 -0.4978  0.1649
 7844TIP3    H223497   1.092   5.386   2.685  0.2133 -1.2704  1.3767
 7845TIP3   OH223498   2.306   5.370   5.803 -0.5285 -0.4458 -0.0098
 7845TIP3    H123499   2.311   5.339   5.894  2.1423 -0.2689 -0.0021
 7845TIP3    H223500   2.305   5.290   5.751 -0.3354 -0.5650  0.1645
 7846TIP3   OH223501   7.013   5.910   2.570  0.3537  0.1732 -0.0083
 7846TIP3    H123502   6.968   5.967   2.507 -0.5056 -0.7668 -0.2649
 7846TIP3    H223503   6.944   5.877   2.626  1.0401  0.5054  1.0562
 7847TIP3   OH223504   5.728   6.242   0.895 -0.1598  0.4531  0.0573
 7847TIP3    H123505   5.818   6.275   0.885 -1.1279  2.9930 -1.3365
 7847TIP3    H223506   5.730   6.192   0.977  2.4660  0.5483  0.1519
 7848TIP3   OH223507   3.751   5.336   2.853 -0.1366 -0.1093 -0.1287
 7848TIP3    H123508   3.768   5.263   2.913  0.2379  0.0673 -0.0202
 7848TIP3    H223509   3.830   5.343   2.800 -0.5288 -0.3709 -0.7643
 7849TIP3   OH223510   6.725   1.684   3.081 -0.8836 -0.4785  0.9257
 7849TIP3    H123511   6.747   1.695   2.989 -2.1625 -1.9926  0.3935
 7849TIP3    H223512   6.658   1.751   3.098  0.8198  1.1814  1.3588
 7850TIP3   OH223513   3.303   2.312   3.336  0.5624  0.5057  0.5142
 7850TIP3    H123514   3.294   2.380   3.403 -1.1671 -0.6690  1.5394
 7850TIP3    H223515   3.217   2.308   3.295  1.4496  0.8604 -1.5198
 7851TIP3   OH223516   6.776   1.436   1.257  0.3282 -0.4813  0.5313
 7851TIP3    H123517   6.804   1.367   1.317 -0.4940 -1.5605 -0.2949
 7851TIP3    H223518   6.786   1.398   1.170  1.6213  1.0974 -0.0706
 7852TIP3   OH223519   1.624   1.128   1.770 -0.6478 -0.3040  0.4312
 7852TIP3    H123520   1.546   1.178   1.747 -0.3801  0.0811  0.3339
 7852TIP3    H223521   1.692   1.162   1.712 -0.3994 -0.6090  0.5394
 7853TIP3   OH223522   1.432   4.972   1.834 -0.4078  0.0553  0.0107
 7853TIP3    H123523   1.409   4.890   1.877  1.2073  0.1177  1.0669
 7853TIP3    H223524   1.407   4.958   1.742 -1.4284 -1.0802  0.4319
 7854TIP3   OH223525   1.583   3.964   3.290 -0.0231 -0.4539 -0.0718
 7854TIP3    H123526   1.537   3.906   3.351 -0.3275 -0.7500 -0.5801
 7854TIP3    H223527   1.528   4.042   3.285  0.5607  0.0411  0.8810
 7855TIP3   OH223528   3.988   3.209   2.960  0.6723  0.0383 -0.4431
 7855TIP3    H123529   4.069   3.257   2.945  0.7943 -0.4132 -1.2888
 7855TIP3    H223530   4.007   3.120   2.929  0.1509 -0.3144  0.2154
 7856TIP3   OH223531   2.390   6.558   1.059 -0.0893 -0.5348 -0.2777
 7856TIP3    H123532   2.373   6.648   1.029  1.1339 -0.2602 -0.1791
 7856TIP3    H223533   2.470   6.532   1.014  2.1030  0.0540  2.9715
 7857TIP3   OH223534   0.132   5.927   3.933 -0.2534  0.0569 -0.3132
 7857TIP3    H123535   0.071   5.892   3.997 -0.3340 -0.0070 -0.4253
 7857TIP3    H223536   0.173   6.001   3.977 -0.1046 -0.1581 -0.0871
 7858TIP3   OH223537   4.686   0.369   1.492 -0.0075  0.0110 -0.4431
 7858TIP3    H123538   4.758   0.390   1.433 -0.1776 -1.8650 -1.3710
 7858TIP3    H223539   4.729   0.349   1.576  0.2721  2.0907 -0.0285
 7859TIP3   OH223540   6.280   5.361   5.797  0.4068  0.1486  0.2788
 7859TIP3    H123541   6.246   5.296   5.858  1.8389 -0.6890  0.2217
 7859TIP3    H223542   6.264   5.325   5.710  0.3446  0.3205  0.2170
 7860TIP3   OH223543   3.394   0.051   0.403  0.5390 -0.3858  0.1928
 7860TIP3    H123544   3.481   0.017   0.383  0.2396 -1.5710  0.8655
 7860TIP3    H223545   3.372   0.015   0.488 -0.4272  0.2824  0.2488
 7861TIP3   OH223546   6.478   6.676   0.101 -0.6763 -0.2090 -0.5094
 7861TIP3    H123547   6.439   6.733   0.168 -0.6840 -0.1071 -0.6010
 7861TIP3    H223548   6.561   6.648   0.140 -0.3023  0.4938 -0.7855
 7862TIP3   OH223549   3.006   2.143   3.564 -0.0305 -0.1759 -0.0270
 7862TIP3    H123550   3.029   2.090   3.488  1.1692 -0.5229  0.5575
 7862TIP3    H223551   3.068   2.216   3.561 -0.2839  0.0570  0.3557
 7863TIP3   OH223552   1.800   2.773   4.142  0.0607  0.5767 -0.4268
 7863TIP3    H123553   1.705   2.763   4.133  0.1140  0.9593 -1.5572
 7863TIP3    H223554   1.811   2.821   4.223 -0.8080  1.8173 -1.0106
 7864TIP3   OH223555   3.563   1.222   5.670 -0.0039 -0.3210  0.2902
 7864TIP3    H123556   3.639   1.231   5.728 -1.0520  0.9046  1.5666
 7864TIP3    H223557   3.534   1.131   5.683  0.5834 -0.4642  0.6511
 7865TIP3   OH223558   4.488   5.928   4.244  0.2791  0.7805 -0.6045
 7865TIP3    H123559   4.563   5.883   4.204  0.0477  0.4163 -0.6305
 7865TIP3    H223560   4.426   5.938   4.172 -0.4679 -0.5788 -0.1816
 7866TIP3   OH223561   2.213   4.492   3.137  1.1390  0.6012  0.4047
 7866TIP3    H123562   2.258   4.509   3.220  2.7392 -1.4310  0.0471
 7866TIP3    H223563   2.238   4.402   3.115 -3.0946 -0.7273  0.1108
 7867TIP3   OH223564   2.417   3.575   1.440  0.5765  0.2839  0.3951
 7867TIP3    H123565   2.409   3.555   1.347  1.4570 -1.1914  0.6108
 7867TIP3    H223566   2.504   3.613   1.450  1.1622 -1.1323  0.8537
 7868TIP3   OH223567   2.166   6.616   3.626  1.0736  0.2815 -0.2558
 7868TIP3    H123568   2.190   6.634   3.535 -0.5897 -0.6312 -0.9039
 7868TIP3    H223569   2.097   6.679   3.645  0.9624  0.0319  0.1663
 7869TIP3   OH223570   2.387   3.892   3.207  0.2236  0.1330  0.0427
 7869TIP3    H123571   2.383   3.801   3.177  0.0866 -0.0271  0.5469
 7869TIP3    H223572   2.446   3.935   3.144  1.5033 -0.6373  0.6729
 7870TIP3   OH223573   6.565   3.620   3.777 -0.1998  0.2576  0.0829
 7870TIP3    H123574   6.627   3.624   3.703  0.6013 -1.9479  0.5754
 7870TIP3    H223575   6.575   3.705   3.820  1.1411  0.6604 -0.9424
 7871TIP3   OH223576   2.748   1.810   4.686 -0.7693 -0.1647 -0.6960
 7871TIP3    H123577   2.680   1.872   4.714 -0.5009  0.0520 -0.5138
 7871TIP3    H223578   2.751   1.744   4.755  2.2011  2.1217  1.6627
 7872TIP3   OH223579   5.545   5.306   5.756  0.0937  0.1843  0.2545
 7872TIP3    H123580   5.515   5.276   5.670 -0.3815 -0.4479  0.6317
 7872TIP3    H223581   5.608   5.375   5.737 -0.1745  0.2026 -0.5994
 7873TIP3   OH223582   1.568   6.532   0.587  0.0584  0.2921  0.0054
 7873TIP3    H123583   1.503   6.574   0.643  0.4268  1.0982 -0.1674
 7873TIP3    H223584   1.640   6.594   0.581 -0.3281  0.6235 -2.0559
 7874TIP3   OH223585   3.479   4.603   3.435 -0.0559 -0.0022 -0.3127
 7874TIP3    H123586   3.385   4.615   3.420  0.2886  1.3411 -1.6437
 7874TIP3    H223587   3.500   4.668   3.502 -0.1551 -0.6781  0.3894
 7875TIP3   OH223588   2.068   2.392   2.512  0.2150 -0.2950  0.5338
 7875TIP3    H123589   2.134   2.326   2.534 -0.5521 -1.2191  0.1123
 7875TIP3    H223590   2.022   2.356   2.437 -0.0318  0.8679  0.1094
 7876TIP3   OH223591   1.593   3.973   0.794  0.4381  0.1571 -0.0851
 7876TIP3    H123592   1.575   3.924   0.714 -0.5661 -0.2759  0.3856
 7876TIP3    H223593   1.672   4.022   0.775 -0.4352  0.9822 -1.7461
 7877TIP3   OH223594   4.860   2.634   2.442  0.3849 -0.5906 -0.3325
 7877TIP3    H123595   4.877   2.692   2.368  0.3452 -0.2482 -0.0721
 7877TIP3    H223596   4.766   2.642   2.458  0.6365  0.4772  0.7071
 7878TIP3   OH223597   2.117   1.922   3.024  0.4860  0.0695 -0.2274
 7878TIP3    H123598   2.021   1.922   3.021  0.5030  0.3000 -1.1233
 7878TIP3    H223599   2.141   1.829   3.029  0.2509 -0.2021 -2.8163
 7879TIP3   OH223600   5.077   1.880   5.624 -0.6823  0.1322 -0.3757
 7879TIP3    H123601   5.045   1.807   5.572  0.2965 -0.9669  0.5042
 7879TIP3    H223602   5.115   1.839   5.702 -0.4021  1.6041  0.2966
 7880TIP3   OH223603   4.250   6.261   4.395 -0.3799 -0.0149 -0.0877
 7880TIP3    H123604   4.326   6.271   4.339  0.6465 -0.2495  1.2285
 7880TIP3    H223605   4.264   6.179   4.441 -0.6255  0.7038  1.3340
 7881TIP3   OH223606   6.827   3.620   4.270 -0.0041 -0.8421  0.5280
 7881TIP3    H123607   6.849   3.663   4.188 -1.5724 -1.1990 -0.1034
 7881TIP3    H223608   6.836   3.526   4.252  1.7339 -0.8952  1.4127
 7882TIP3   OH223609   1.386   3.101   3.903 -0.3058 -0.4347  0.1402
 7882TIP3    H123610   1.295   3.083   3.881 -0.3795 -1.9067  1.4891
 7882TIP3    H223611   1.383   3.184   3.951 -1.1334 -1.1095  1.3065
 7883TIP3   OH223612   4.621   3.276   5.860  0.3010 -0.8556 -0.3159
 7883TIP3    H123613   4.674   3.356   5.854  1.1914 -1.4447 -0.5515
 7883TIP3    H223614   4.562   3.292   5.933  1.2630 -0.4280  0.3943
 7884TIP3   OH223615   2.885   3.758   0.036  0.1154 -0.1979  0.0681
 7884TIP3    H123616   2.828   3.708  -0.022  1.4037  0.9066 -2.2995
 7884TIP3    H223617   2.853   3.848   0.029  0.6749  0.0468  0.5883
 7885TIP3   OH223618   4.249   2.134   4.522  0.2607  0.1069  0.3800
 7885TIP3    H123619   4.230   2.075   4.595  2.2867 -2.1841 -0.7863
 7885TIP3    H223620   4.165   2.177   4.503 -1.5345 -2.8670  0.9554
 7886TIP3   OH223621   1.099   3.940   1.824  0.2797 -0.5223 -0.1061
 7886TIP3    H123622   1.115   3.923   1.731 -0.3541 -1.3289 -0.0839
 7886TIP3    H223623   1.004   3.932   1.833  0.3841 -0.9261  0.6946
 7887TIP3   OH223624   2.611   2.987   3.392 -0.0380 -0.5685 -0.4245
 7887TIP3    H123625   2.646   3.076   3.389 -0.9110 -0.1984 -0.0368
 7887TIP3    H223626   2.589   2.973   3.484 -0.8724 -0.7933 -0.6504
 7888TIP3   OH223627   4.516   3.965   3.383  0.5234 -0.1498 -0.3848
 7888TIP3    H123628   4.456   3.965   3.458  0.6328  1.7997 -0.2557
 7888TIP3    H223629   4.498   4.046   3.337  2.1337 -0.1574 -1.1126
 7889TIP3   OH223630   3.493   1.531   4.669  0.3067  0.2623  0.1886
 7889TIP3    H123631   3.512   1.490   4.754  1.5825  0.3902 -0.0124
 7889TIP3    H223632   3.398   1.525   4.660 -0.4837  3.7543  3.4346
 7890TIP3   OH223633   1.206   6.003   1.684  0.0730 -0.1700  0.1306
 7890TIP3    H123634   1.236   5.948   1.612 -1.4929  0.1682 -0.8414
 7890TIP3    H223635   1.283   6.015   1.739  1.4232 -0.1262 -1.6763
 7891TIP3   OH223636   5.781   3.143   2.788 -0.2846 -0.3728  0.0279
 7891TIP3    H123637   5.726   3.075   2.826 -0.1929  0.1774  1.2137
 7891TIP3    H223638   5.798   3.203   2.861  0.7683  0.1829 -0.6480
 7892TIP3   OH223639   0.744   5.613   5.815  0.5190 -0.1423 -0.2106
 7892TIP3    H123640   0.736   5.633   5.722  0.5485  0.8529 -0.0103
 7892TIP3    H223641   0.742   5.699   5.858  0.1770 -0.6058  0.7264
 7893TIP3   OH223642   0.830   3.349   4.539  0.0068  0.5235 -0.2384
 7893TIP3    H123643   0.824   3.432   4.492  0.9244  0.0587 -1.1954
 7893TIP3    H223644   0.881   3.291   4.482 -0.6854 -0.7366  0.3664
 7894TIP3   OH223645   4.373   1.357   5.424  0.1291  0.0979 -0.3748
 7894TIP3    H123646   4.369   1.404   5.341  0.6820 -0.2566 -0.6061
 7894TIP3    H223647   4.340   1.270   5.404  0.3971 -0.0322 -0.2598
 7895TIP3   OH223648   5.033   1.148   2.214 -0.2995 -0.0457 -0.0133
 7895TIP3    H123649   5.064   1.058   2.203  0.0473  0.0709  0.0083
 7895TIP3    H223650   5.104   1.193   2.260 -1.0076 -0.0954  1.1799
 7896TIP3   OH223651   1.631   1.487   4.495 -0.7239  0.1940  0.2952
 7896TIP3    H123652   1.662   1.416   4.438 -0.2637  1.8961 -1.7038
 7896TIP3    H223653   1.660   1.461   4.583  1.0948 -1.1977 -0.6343
 7897TIP3   OH223654   5.816   0.539   4.821  0.2444 -0.5840  0.2488
 7897TIP3    H123655   5.848   0.501   4.739 -1.0974 -0.0224 -0.5734
 7897TIP3    H223656   5.892   0.539   4.879  1.7178  0.6112 -1.5727
 7898TIP3   OH223657   2.700   1.860   4.386  0.0167 -0.0248  0.2459
 7898TIP3    H123658   2.685   1.941   4.436 -1.1390 -0.6163  0.8885
 7898TIP3    H223659   2.613   1.834   4.357 -0.4295 -3.5509  3.9683
 7899TIP3   OH223660   3.342   3.526   1.519 -0.0142  0.5836  0.0406
 7899TIP3    H123661   3.422   3.488   1.555 -0.1786  0.4593  0.2770
 7899TIP3    H223662   3.295   3.452   1.481 -0.1247  0.6200  0.1067
 7900TIP3   OH223663   3.609   0.034   2.567  0.6119 -0.0407 -0.3689
 7900TIP3    H123664   3.688   0.083   2.544  1.6158 -1.6177 -0.3595
 7900TIP3    H223665   3.640  -0.050   2.598 -0.9438  0.2274  2.1918
 7901TIP3   OH223666   1.571   4.823   0.207  0.0135 -0.0299 -0.0416
 7901TIP3    H123667   1.629   4.890   0.171 -1.0116  0.6171 -0.5563
 7901TIP3    H223668   1.507   4.871   0.259  0.3716 -0.7964  1.1451
 7902TIP3   OH223669   3.734   0.706   1.140  0.0379  0.0196 -0.4937
 7902TIP3    H123670   3.659   0.674   1.189  0.6213  0.7673  0.9361
 7902TIP3    H223671   3.702   0.715   1.050 -1.1858 -0.9304 -0.1763
 7903TIP3   OH223672   4.333   5.643   2.329 -0.2756  0.5196 -0.2018
 7903TIP3    H123673   4.298   5.725   2.294  0.9999  1.3500  0.3960
 7903TIP3    H223674   4.276   5.623   2.403  0.4944  1.8950  0.8122
 7904TIP3   OH223675   2.779   0.254   5.449  0.0666  0.4921  0.2165
 7904TIP3    H123676   2.775   0.237   5.543 -0.2595 -0.3166  0.0637
 7904TIP3    H223677   2.869   0.282   5.434  1.1309 -2.5321  0.2913
 7905TIP3   OH223678   3.437   5.885   2.852  0.1386  0.3415  0.0139
 7905TIP3    H123679   3.524   5.901   2.818  0.8101 -0.3466  1.3309
 7905TIP3    H223680   3.450   5.869   2.946 -1.0800 -2.1456 -0.1614
 7906TIP3   OH223681   1.590   0.577   4.952 -0.1856 -0.0845 -0.1830
 7906TIP3    H123682   1.583   0.483   4.933  2.1771 -0.2340 -0.6265
 7906TIP3    H223683   1.605   0.582   5.046  1.5876 -0.3534 -0.4066
 7907TIP3   OH223684   6.811   4.879   3.162  0.0131 -0.1547 -0.1933
 7907TIP3    H123685   6.764   4.834   3.092 -1.0114  2.3953 -1.2540
 7907TIP3    H223686   6.767   4.850   3.242 -1.1231 -0.4250 -0.8869
 7908TIP3   OH223687   5.316   2.041   0.776 -0.0065  0.1778 -0.1541
 7908TIP3    H123688   5.407   2.045   0.745 -0.3364 -0.5022 -1.2657
 7908TIP3    H223689   5.283   2.130   0.763  0.4182  0.3624  0.0064
 7909TIP3   OH223690   0.940   4.208   0.740 -0.0727 -0.1740  0.2526
 7909TIP3    H123691   1.035   4.220   0.738  0.0873 -1.0442  1.4260
 7909TIP3    H223692   0.908   4.249   0.659  1.2279  0.6910  0.1564
 7910TIP3   OH223693   4.596   1.743   4.389  0.6262 -0.2551  0.3208
 7910TIP3    H123694   4.572   1.798   4.314  1.4027  1.7117  1.4240
 7910TIP3    H223695   4.539   1.773   4.460  1.0709 -0.8781  0.9494
 7911TIP3   OH223696   2.498   1.550   3.225  0.0582  0.3205  0.7206
 7911TIP3    H123697   2.586   1.516   3.244 -1.2324 -3.2705  0.8460
 7911TIP3    H223698   2.497   1.563   3.130  0.8902  1.0884  0.7985
 7912TIP3   OH223699   4.877   5.523   4.085 -0.5130  0.4434  0.2729
 7912TIP3    H123700   4.866   5.428   4.081 -1.9054  0.6109 -0.1303
 7912TIP3    H223701   4.848   5.554   4.000  0.4608  1.1988  0.2017
 7913TIP3   OH223702   5.092   1.910   2.837  0.0753 -0.3148 -0.1905
 7913TIP3    H123703   5.054   1.985   2.793  0.9028  1.3152  1.6957
 7913TIP3    H223704   5.036   1.896   2.914  0.9111 -0.4849  0.4034
 7914TIP3   OH223705   6.522   0.589   1.505  0.7181  0.8997 -0.4632
 7914TIP3    H123706   6.445   0.614   1.556  0.4845 -0.0559 -0.3279
 7914TIP3    H223707   6.586   0.657   1.524  0.1944  1.2516  0.0918
 7915TIP3   OH223708   1.591   2.856   1.418 -0.5313 -0.4354  0.3137
 7915TIP3    H123709   1.580   2.922   1.487 -1.0518  0.5422 -0.6635
 7915TIP3    H223710   1.585   2.906   1.336  0.6420 -1.4779 -0.4440
 7916TIP3   OH223711   3.009   3.539   2.430 -0.4674  0.4398  0.2726
 7916TIP3    H123712   3.083   3.600   2.425 -1.1565  1.1971 -1.4060
 7916TIP3    H223713   3.002   3.503   2.342 -0.2766 -1.8980  1.1341
 7917TIP3   OH223714   3.253   5.348   1.058 -0.4315  0.0570 -0.1481
 7917TIP3    H123715   3.175   5.404   1.056 -0.1683  0.4459  0.2938
 7917TIP3    H223716   3.230   5.277   1.118  0.0276  0.9082  1.0891
 7918TIP3   OH223717   5.562   3.393   0.670  0.2751  0.6485  0.0173
 7918TIP3    H123718   5.495   3.395   0.603  0.6039 -0.5390 -0.3722
 7918TIP3    H223719   5.561   3.481   0.709 -1.5893  0.6035  0.1302
 7919TIP3   OH223720   3.979   5.704   2.716 -0.2029  0.0382  0.3010
 7919TIP3    H123721   3.904   5.690   2.657  0.4421 -0.8245 -0.3226
 7919TIP3    H223722   3.950   5.668   2.799 -0.3701 -0.5866 -0.0198
 7920TIP3   OH223723   2.090   1.596   0.777 -0.5360  0.3983 -0.2405
 7920TIP3    H123724   2.122   1.519   0.825  0.1930  2.1858  2.3650
 7920TIP3    H223725   2.154   1.608   0.707  1.6033  0.7455  1.6309
 7921TIP3   OH223726   4.802   5.430   0.139  0.2066 -0.1412  0.3459
 7921TIP3    H123727   4.877   5.415   0.197 -0.0382 -0.4723  0.5762
 7921TIP3    H223728   4.765   5.343   0.124 -0.4416  0.0726  0.6551
 7922TIP3   OH223729   3.158   5.979   4.138  0.6289 -0.2397 -0.1744
 7922TIP3    H123730   3.178   6.004   4.228 -0.5137 -2.9009  0.9143
 7922TIP3    H223731   3.210   5.900   4.123  0.0481 -0.3952 -1.5211
 7923TIP3   OH223732   6.083   0.591   0.418 -0.1624  0.7340  0.3423
 7923TIP3    H123733   6.144   0.521   0.442  0.7295  0.8881 -1.3374
 7923TIP3    H223734   6.120   0.670   0.457  1.1845  0.9553 -1.2527
 7924TIP3   OH223735   0.471   4.604   5.393  0.4800 -0.5432  0.4101
 7924TIP3    H123736   0.382   4.602   5.428  0.1367 -3.1930 -0.4058
 7924TIP3    H223737   0.518   4.537   5.444  1.3857 -0.7326 -0.6377
 7925TIP3   OH223738   7.193   1.754   4.605  0.5716  0.2148  0.2410
 7925TIP3    H123739   7.159   1.686   4.547  0.7744 -0.6575  1.1054
 7925TIP3    H223740   7.209   1.829   4.548 -0.3153 -0.2253 -0.6218
 7926TIP3   OH223741   0.734   5.510   0.763  0.6057 -0.3979 -0.8918
 7926TIP3    H123742   0.700   5.585   0.812  0.5688  1.0768 -3.0516
 7926TIP3    H223743   0.667   5.442   0.774 -0.0492  0.3558 -0.0731
 7927TIP3   OH223744   3.472   4.694   0.241  0.2890 -0.0436 -0.0511
 7927TIP3    H123745   3.407   4.714   0.308  0.5007 -0.0754  0.1676
 7927TIP3    H223746   3.421   4.675   0.162 -0.1515 -2.9225  0.7922
 7928TIP3   OH223747   3.514   2.075   4.049  0.0520  0.5846 -0.3165
 7928TIP3    H123748   3.573   2.044   3.980 -0.4146 -0.6486 -0.1898
 7928TIP3    H223749   3.428   2.075   4.008 -0.2396 -0.2342  0.2797
 7929TIP3   OH223750   2.151   1.804   3.927 -0.2129 -0.4498 -0.0039
 7929TIP3    H123751   2.121   1.862   3.997 -0.6397  0.8827 -1.2350
 7929TIP3    H223752   2.147   1.716   3.965 -0.7044  0.2041  1.5391
 7930TIP3   OH223753   3.869   4.607   1.582  0.1535 -0.7475 -0.4099
 7930TIP3    H123754   3.883   4.539   1.517  0.3960 -0.0267 -1.1184
 7930TIP3    H223755   3.813   4.671   1.539 -1.0315 -1.0325  0.6303
 7931TIP3   OH223756   5.406   4.324   4.653  0.0323 -0.3948  0.0064
 7931TIP3    H123757   5.377   4.239   4.622  2.8762 -1.0725 -1.1887
 7931TIP3    H223758   5.406   4.317   4.748 -2.3863 -0.6915  0.0358
 7932TIP3   OH223759   3.395   5.880   3.884  0.0429 -1.2017  0.3998
 7932TIP3    H123760   3.446   5.915   3.957 -1.5874 -0.8231  1.3970
 7932TIP3    H223761   3.359   5.958   3.841 -0.4869 -1.5012  0.2953
 7933TIP3   OH223762   4.432   1.728   2.502  0.6606  0.4889 -0.4648
 7933TIP3    H123763   4.518   1.750   2.466  0.6144 -1.8560 -2.2021
 7933TIP3    H223764   4.374   1.727   2.426 -0.5224  0.2122  0.4096
 7934TIP3   OH223765   1.253   1.072   2.972 -0.2424 -0.5935  0.5110
 7934TIP3    H123766   1.324   1.035   2.919 -0.5134  2.2169 -2.0854
 7934TIP3    H223767   1.298   1.120   3.042  0.2458 -1.6222  0.9248
 7935TIP3   OH223768   1.431   0.085   4.976 -0.4734  0.3417 -0.6272
 7935TIP3    H123769   1.471   0.020   5.034 -0.1333  1.2054  0.1234
 7935TIP3    H223770   1.438   0.047   4.888  0.7788 -0.1098 -0.3452
 7936TIP3   OH223771   4.905   1.328   4.915 -0.3138  0.4754  0.1634
 7936TIP3    H123772   4.814   1.307   4.895  0.1377 -0.8972 -0.6410
 7936TIP3    H223773   4.908   1.337   5.010 -1.2579  0.4087  0.2038
 7937TIP3   OH223774   4.993   4.506   0.981 -0.0550  0.1050  0.2657
 7937TIP3    H123775   4.925   4.454   1.024  0.3019  0.7367  1.6432
 7937TIP3    H223776   5.074   4.460   1.003  0.0807  0.1239 -0.2020
 7938TIP3   OH223777   0.732   5.450   2.068 -0.6985  0.2452  0.3450
 7938TIP3    H123778   0.665   5.398   2.113 -0.1369  0.2736  1.2376
 7938TIP3    H223779   0.698   5.461   1.979 -2.3104  1.0455  1.0153
 7939TIP3   OH223780   0.775   3.149   0.918  0.1137  0.2794  0.2788
 7939TIP3    H123781   0.727   3.070   0.892  0.3299  0.2676 -0.0845
 7939TIP3    H223782   0.747   3.215   0.855 -0.8495  0.7761  1.1865
 7940TIP3   OH223783   7.084   5.292   4.106  0.0734  0.8416 -0.2560
 7940TIP3    H123784   7.035   5.227   4.055  0.0343  0.1179  0.6828
 7940TIP3    H223785   7.173   5.288   4.072 -0.1611  1.0627 -0.9176
 7941TIP3   OH223786   0.672   1.003   4.220 -0.1039  0.4472 -0.5499
 7941TIP3    H123787   0.650   1.091   4.250 -2.9571 -0.1941 -0.4211
 7941TIP3    H223788   0.725   1.017   4.141  1.5823  2.2042  0.8066
 7942TIP3   OH223789   5.957   3.344   0.707  0.0879 -0.1780 -0.5222
 7942TIP3    H123790   5.876   3.299   0.685 -1.3320  2.2470 -0.6093
 7942TIP3    H223791   6.013   3.334   0.629 -0.4143 -1.2138 -0.7573
 7943TIP3   OH223792   5.920   3.278   0.046 -0.2834 -0.2295 -0.4750
 7943TIP3    H123793   5.972   3.304   0.122  1.2641 -0.6987 -1.3282
 7943TIP3    H223794   5.857   3.216   0.081  1.7175 -2.0423  0.1766
 7944TIP3   OH223795   4.067   2.951   2.928  0.0603 -0.2118  0.3442
 7944TIP3    H123796   4.004   2.910   2.988 -2.0893  0.0324 -1.5909
 7944TIP3    H223797   4.068   2.895   2.851  3.5951 -1.1151  0.8774
 7945TIP3   OH223798   2.601   2.338   0.196 -0.4870  0.1763  0.1662
 7945TIP3    H123799   2.652   2.266   0.158 -2.0736 -0.8970 -0.0214
 7945TIP3    H223800   2.567   2.302   0.278 -2.9634 -0.0533 -0.8790
 7946TIP3   OH223801   3.667   2.223   0.482 -0.0833 -0.7318  0.1681
 7946TIP3    H123802   3.599   2.291   0.484 -1.4719 -2.0655  2.1191
 7946TIP3    H223803   3.675   2.195   0.573  1.4268 -2.2695 -0.3877
 7947TIP3   OH223804   3.854   3.858   4.756 -0.4084  0.2353  0.0125
 7947TIP3    H123805   3.881   3.950   4.746  0.4102  0.0811  0.6989
 7947TIP3    H223806   3.913   3.810   4.699 -0.0031  0.0134  0.6131
 7948TIP3   OH223807   1.375   6.051   5.156 -0.1947 -0.3318 -0.2740
 7948TIP3    H123808   1.383   6.065   5.251  0.5673 -0.9639 -0.2355
 7948TIP3    H223809   1.362   5.956   5.147  2.1202 -0.6570 -0.9074
 7949TIP3   OH223810   4.750   3.108   2.893  0.2820 -0.3601 -0.2615
 7949TIP3    H123811   4.689   3.181   2.887 -0.3616 -0.8320  0.4577
 7949TIP3    H223812   4.697   3.030   2.879  0.7780 -0.7600  0.0399
 7950TIP3   OH223813   5.750   3.900   2.005  0.3706 -0.1039  0.4283
 7950TIP3    H123814   5.791   3.984   2.022  0.2609  0.1889 -0.6507
 7950TIP3    H223815   5.658   3.921   1.986  0.9008 -0.0588 -2.6997
 7951TIP3   OH223816   0.648   2.927   1.718  0.5434 -0.2605 -0.0819
 7951TIP3    H123817   0.679   2.871   1.647  1.3783  0.2352 -0.1168
 7951TIP3    H223818   0.726   2.942   1.772  0.1416  0.2042  0.3770
 7952TIP3   OH223819   1.996   2.384   0.722 -0.8465 -0.5477  0.1588
 7952TIP3    H123820   1.965   2.300   0.756 -1.8527 -0.7303 -1.1272
 7952TIP3    H223821   1.957   2.450   0.779 -0.8264 -0.9166  0.5998
 7953TIP3   OH223822   3.610   3.139   2.863 -0.1354 -0.2804  0.1076
 7953TIP3    H123823   3.608   3.184   2.778 -1.7443  0.4222  0.4719
 7953TIP3    H223824   3.578   3.051   2.843  0.0851 -0.3105 -0.1195
 7954TIP3   OH223825   0.680   5.446   4.471 -0.3585  0.2027  0.2082
 7954TIP3    H123826   0.595   5.483   4.492  0.0092  0.4537  1.3659
 7954TIP3    H223827   0.700   5.388   4.544  1.6039  2.1719  1.3591
 7955TIP3   OH223828   5.172   0.211   4.791 -0.2275 -0.0856 -0.0249
 7955TIP3    H123829   5.253   0.187   4.836  0.3569  2.3721  0.3977
 7955TIP3    H223830   5.106   0.151   4.826  0.8753 -0.4087  1.6162
 7956TIP3   OH223831   1.678   4.158   4.418 -0.0477 -0.0896 -0.0971
 7956TIP3    H123832   1.588   4.129   4.431 -0.0374 -0.1359 -0.1300
 7956TIP3    H223833   1.678   4.249   4.448 -0.4335  0.3621 -1.4120
 7957TIP3   OH223834   4.804   1.583   3.433 -0.0235 -0.0014  0.3974
 7957TIP3    H123835   4.747   1.509   3.412  0.4913 -0.2736 -0.0371
 7957TIP3    H223836   4.853   1.554   3.511  1.0417 -0.5968 -0.4686
 7958TIP3   OH223837   0.428   6.017   3.052 -0.1229 -0.1769 -0.8635
 7958TIP3    H123838   0.408   5.929   3.081  1.4798  0.4256  2.5919
 7958TIP3    H223839   0.367   6.073   3.101  1.5692  0.8137  0.2177
 7959TIP3   OH223840   6.030   0.918   1.647  0.3875 -0.2330  0.1069
 7959TIP3    H123841   6.099   0.976   1.616 -1.7967  1.6285 -1.6658
 7959TIP3    H223842   5.986   0.967   1.717  0.8968 -1.4697  1.3532
 7960TIP3   OH223843   5.317   1.554   1.845  0.1456 -0.3144  0.4615
 7960TIP3    H123844   5.270   1.631   1.876 -0.0225 -0.0794 -0.3768
 7960TIP3    H223845   5.365   1.584   1.768 -0.6650 -1.2581 -0.4388
 7961TIP3   OH223846   2.507   6.736   1.359  0.9128 -0.0279 -0.6630
 7961TIP3    H123847   2.430   6.703   1.313  0.8684 -0.3716 -0.3356
 7961TIP3    H223848   2.472   6.784   1.434  1.0610 -1.3857  0.2896
 7962TIP3   OH223849   3.734   1.318   1.994  0.2333  0.2449 -0.0060
 7962TIP3    H123850   3.678   1.326   1.916 -1.5296 -1.5497  0.9702
 7962TIP3    H223851   3.672   1.318   2.067  1.2874 -3.0400  1.0701
 7963TIP3   OH223852   2.940   4.658   3.328  0.3840 -0.2845  0.1618
 7963TIP3    H123853   2.862   4.603   3.328 -0.2339  0.5634 -0.3504
 7963TIP3    H223854   2.928   4.718   3.254  0.5929  1.1410  1.2328
 7964TIP3   OH223855   7.130   2.879   2.075 -0.1620 -0.2165 -0.3540
 7964TIP3    H123856   7.137   2.846   1.986  2.0968 -1.4287  0.1974
 7964TIP3    H223857   7.208   2.932   2.088  1.7957 -3.3134  2.0584
 7965TIP3   OH223858   3.556   2.306   5.581  0.3901 -0.1068 -0.0875
 7965TIP3    H123859   3.642   2.324   5.543 -0.2789  0.5425 -1.3626
 7965TIP3    H223860   3.501   2.282   5.506 -0.1924 -1.9962  0.8793
 7966TIP3   OH223861   4.897   4.038   5.124 -0.0474  0.3930  0.0816
 7966TIP3    H123862   4.879   4.070   5.035 -1.4885  1.1933  0.6210
 7966TIP3    H223863   4.945   3.956   5.110 -1.5307 -0.2866 -1.4960
 7967TIP3   OH223864   5.797   4.030   2.680  0.6173  0.2821 -0.3365
 7967TIP3    H123865   5.874   3.977   2.696 -1.0074 -2.7071 -1.6026
 7967TIP3    H223866   5.806   4.059   2.589  0.3207  0.0137 -0.4540
 7968TIP3   OH223867   6.276   5.141   3.444  0.1188  0.3022  0.5665
 7968TIP3    H123868   6.218   5.202   3.489  0.7256  1.1043  0.2949
 7968TIP3    H223869   6.364   5.164   3.474  0.2457 -1.7547  1.9868
 7969TIP3   OH223870   2.944   5.347   4.486  0.2421 -0.0628  0.0350
 7969TIP3    H123871   2.906   5.402   4.555  2.4064  1.4551  0.1173
 7969TIP3    H223872   3.003   5.287   4.533  0.3562 -0.2394 -0.3280
 7970TIP3   OH223873   0.888   6.771   0.140 -0.1724  0.2743  0.1146
 7970TIP3    H123874   0.925   6.687   0.165  1.2530  0.1571 -2.1223
 7970TIP3    H223875   0.898   6.826   0.218  0.2143 -1.1810  1.1316
 7971TIP3   OH223876   5.172   4.096   3.189  0.1440  0.1891  0.1452
 7971TIP3    H123877   5.110   4.147   3.241 -0.0370  0.2928 -0.1663
 7971TIP3    H223878   5.237   4.064   3.252 -0.9604 -1.0406  0.6906
 7972TIP3   OH223879   1.196   2.581   3.597  0.1211  0.0674  0.1571
 7972TIP3    H123880   1.270   2.521   3.582  0.3303  0.3140  0.2132
 7972TIP3    H223881   1.232   2.653   3.647 -0.0054  0.5209 -0.3929
 7973TIP3   OH223882   4.353   3.898   4.574 -0.2181  0.2447 -0.1296
 7973TIP3    H123883   4.355   3.923   4.666  0.2223  0.3062 -0.1522
 7973TIP3    H223884   4.260   3.890   4.553 -0.3488 -1.8890  0.9109
 7974TIP3   OH223885   2.181   1.643   5.881  0.1444  0.0791 -0.0398
 7974TIP3    H123886   2.094   1.663   5.914 -1.6277 -3.6481 -1.8679
 7974TIP3    H223887   2.191   1.696   5.802  0.6183  2.2060  1.3602
 7975TIP3   OH223888   3.461   5.344   0.476  0.1130 -0.3348  0.0261
 7975TIP3    H123889   3.435   5.374   0.563 -0.4022  0.3712 -0.3573
 7975TIP3    H223890   3.556   5.339   0.479  0.3885  2.8031 -0.3072
 7976TIP3   OH223891   6.551   5.967   5.662 -0.3026 -0.2669  0.1332
 7976TIP3    H123892   6.577   5.880   5.691 -1.0561 -0.8079 -0.7403
 7976TIP3    H223893   6.489   5.998   5.728 -0.6416 -0.7314  0.0337
 7977TIP3   OH223894   6.085   3.916   4.120 -0.1961 -0.5735 -0.2584
 7977TIP3    H123895   6.173   3.879   4.109 -0.6956 -1.3256 -1.9588
 7977TIP3    H223896   6.099   3.994   4.174  1.4407 -0.9895 -0.0305
 7978TIP3   OH223897   0.463   1.372   0.784  0.2786 -0.3737 -0.0105
 7978TIP3    H123898   0.454   1.280   0.757 -0.5776 -0.6091  1.0356
 7978TIP3    H223899   0.506   1.368   0.869 -1.2524  0.0756  0.8214
 7979TIP3   OH223900   2.255   2.297   3.891  0.3446  0.0490  0.1098
 7979TIP3    H123901   2.248   2.392   3.899  0.4074  0.0240  0.4571
 7979TIP3    H223902   2.333   2.283   3.837 -0.3215  0.2266 -0.9295
 7980TIP3   OH223903   3.416   6.462   5.538 -0.0754 -0.0295  0.2475
 7980TIP3    H123904   3.342   6.459   5.599 -1.2486 -0.8478 -1.1519
 7980TIP3    H223905   3.473   6.531   5.573 -0.9959 -0.0401  1.9044
 7981TIP3   OH223906   5.382   1.934   5.021 -0.1580  0.0208  0.3541
 7981TIP3    H123907   5.418   1.997   5.083 -0.0403  1.5595 -1.1765
 7981TIP3    H223908   5.289   1.931   5.041 -0.0086 -0.0386  1.0474
 7982TIP3   OH223909   6.645   0.498   3.707  0.3795 -0.3394 -0.0169
 7982TIP3    H123910   6.572   0.506   3.646  1.3380  0.6700 -1.0845
 7982TIP3    H223911   6.664   0.404   3.710 -1.1465 -0.6617  0.5540
 7983TIP3   OH223912   2.570   4.172   1.193  0.2006  0.3171  0.0433
 7983TIP3    H123913   2.538   4.152   1.105 -1.3457  2.9128 -0.0708
 7983TIP3    H223914   2.566   4.088   1.240 -2.6083 -0.4075 -1.2861
 7984TIP3   OH223915   2.775   2.998   5.817 -0.4824 -0.0154  0.0716
 7984TIP3    H123916   2.681   3.014   5.808 -0.4721 -0.7780 -2.1349
 7984TIP3    H223917   2.794   2.932   5.750  1.5455 -0.2404  0.8080
 7985TIP3   OH223918   2.292   4.096   0.795  0.5762  0.4450 -0.4123
 7985TIP3    H123919   2.296   4.012   0.750  1.7626  0.1667  0.1682
 7985TIP3    H223920   2.262   4.075   0.883  0.4856  0.6759 -0.3862
 7986TIP3   OH223921   6.404   5.244   1.033  0.7519  0.1953  0.2184
 7986TIP3    H123922   6.354   5.233   0.952 -1.0945  0.8162  1.2146
 7986TIP3    H223923   6.358   5.314   1.079  3.0513  1.3627  0.8598
 7987TIP3   OH223924   4.158   2.907   1.533  0.5780  0.0017 -0.2059
 7987TIP3    H123925   4.221   2.975   1.554  0.3138 -0.1839  1.3218
 7987TIP3    H223926   4.122   2.881   1.618 -2.1325  0.6524 -1.0566
 7988TIP3   OH223927   6.616   1.613   4.054 -0.0368  0.0599  0.4869
 7988TIP3    H123928   6.695   1.564   4.030 -0.2198  0.8530 -2.0507
 7988TIP3    H223929   6.645   1.676   4.119  1.2000 -0.3094  0.3211
 7989TIP3   OH223930   6.280   1.483   3.782 -0.2244 -0.1531  0.3812
 7989TIP3    H123931   6.304   1.574   3.799  1.0618 -0.3406 -0.3894
 7989TIP3    H223932   6.322   1.461   3.699 -0.9380 -1.3047  0.3002
 7990TIP3   OH223933   6.302   2.135   2.230 -0.2900  0.2055 -0.5559
 7990TIP3    H123934   6.331   2.125   2.320 -0.4596 -1.3500 -0.6366
 7990TIP3    H223935   6.373   2.182   2.186  0.5483 -0.4962  0.0249
 7991TIP3   OH223936   6.188   6.744   3.509  0.1185  0.0843 -0.1090
 7991TIP3    H123937   6.214   6.773   3.422  3.0027 -1.6352  0.0391
 7991TIP3    H223938   6.204   6.650   3.509 -1.2612 -0.2232  1.8435
 7992TIP3   OH223939   6.052   1.891   1.335 -0.0678  0.0552 -0.8981
 7992TIP3    H123940   6.046   1.810   1.386 -0.3732  1.7358  1.9292
 7992TIP3    H223941   6.144   1.914   1.337  0.0277 -0.2273 -1.7493
 7993TIP3   OH223942   4.239   5.140   2.285 -0.4221 -0.0712  0.1891
 7993TIP3    H123943   4.287   5.223   2.276  2.0040 -1.2897  0.9127
 7993TIP3    H223944   4.187   5.134   2.205  1.0411  1.1519 -0.9319
 7994TIP3   OH223945   4.494   0.715   0.311  0.4840 -0.3638  0.7256
 7994TIP3    H123946   4.497   0.679   0.223 -2.5711 -0.1662  0.4608
 7994TIP3    H223947   4.464   0.643   0.366  0.4677  0.0519  1.2781
 7995TIP3   OH223948   4.867   6.395   4.411  0.2049 -1.0404  0.1762
 7995TIP3    H123949   4.797   6.404   4.347 -0.0798 -1.5517  0.4156
 7995TIP3    H223950   4.857   6.471   4.468 -1.2027 -1.9513  1.2151
 7996TIP3   OH223951   6.635   5.768   4.366  0.1951 -0.3130  0.1759
 7996TIP3    H123952   6.696   5.835   4.398  0.8830 -0.5613 -0.5968
 7996TIP3    H223953   6.592   5.809   4.291  0.3684 -0.6170 -0.0875
 7997TIP3   OH223954   0.362   5.736   2.648  0.2083 -0.1603 -0.1319
 7997TIP3    H123955   0.333   5.795   2.578  0.1896 -1.4783 -1.2749
 7997TIP3    H223956   0.382   5.794   2.721 -1.6262  1.1254 -0.5693
 7998TIP3   OH223957   4.303   3.086   2.875 -0.5457  0.1216 -0.3282
 7998TIP3    H123958   4.372   3.048   2.820  0.2270 -1.9720  1.8746
 7998TIP3    H223959   4.235   3.018   2.878 -0.6587  0.2634  1.0515
 7999TIP3   OH223960   5.014   3.689   5.807 -0.4143  0.4069 -0.1138
 7999TIP3    H123961   5.050   3.656   5.724 -1.4448 -0.6794 -0.1544
 7999TIP3    H223962   4.960   3.763   5.783  0.2863  0.8822 -0.2586
 8000TIP3   OH223963   2.333   1.626   4.330  0.0721  0.0987 -0.6965
 8000TIP3    H123964   2.242   1.650   4.311 -0.4789 -0.2178  1.2870
 8000TIP3    H223965   2.374   1.708   4.356 -0.5476 -0.1825  1.4465
 8001TIP3   OH223966   5.519   4.515   2.427 -0.1308  0.4604 -0.2114
 8001TIP3    H123967   5.533   4.586   2.489 -0.0954  1.0509 -0.8872
 8001TIP3    H223968   5.426   4.494   2.434  0.2855 -0.9574  1.6049
 8002TIP3   OH223969   3.531   1.908   0.024  0.1065  0.4713 -0.3703
 8002TIP3    H123970   3.578   1.880   0.103  2.2865  2.5254 -0.8472
 8002TIP3    H223971   3.563   1.850  -0.045 -0.2975 -0.0276 -0.1449
 8003TIP3   OH223972   3.175   1.891   1.227 -0.4762  0.4343  0.1137
 8003TIP3    H123973   3.267   1.906   1.247  0.0890 -0.8607 -1.3444
 8003TIP3    H223974   3.176   1.828   1.156 -2.5378 -0.9680  1.2336
 8004TIP3   OH223975   2.504   2.035   5.468  0.4715  0.2059  0.0562
 8004TIP3    H123976   2.534   2.047   5.378  0.9581 -0.0827  0.1779
 8004TIP3    H223977   2.539   2.111   5.515 -0.2998  0.6837 -0.1164
 8005TIP3   OH223978   3.298   4.924   4.481 -0.5493  0.2427 -0.7088
 8005TIP3    H123979   3.276   4.862   4.551 -1.3736 -0.7393 -1.7941
 8005TIP3    H223980   3.394   4.926   4.480 -0.3446  3.2065  2.9200
 8006TIP3   OH223981   4.941   2.423   4.205 -0.0858  0.2879  0.1268
 8006TIP3    H123982   4.935   2.518   4.214  0.2145  0.5663 -2.0802
 8006TIP3    H223983   4.850   2.394   4.198 -0.1778  0.4091  0.7621
 8007TIP3   OH223984   2.670   1.725   2.337  0.1298 -0.3845 -0.3911
 8007TIP3    H123985   2.629   1.702   2.420 -0.9317  2.2380 -0.0858
 8007TIP3    H223986   2.675   1.642   2.289 -3.1399 -1.3379  0.6292
 8008TIP3   OH223987   2.164   0.298   4.600  0.3177  0.3388 -0.4263
 8008TIP3    H123988   2.095   0.234   4.615 -0.4778  1.5340  1.5082
 8008TIP3    H223989   2.245   0.253   4.624 -0.4637  0.6902  3.4625
 8009TIP3   OH223990   1.396   2.301   2.978  0.0263 -0.3413 -0.5678
 8009TIP3    H123991   1.477   2.286   2.930  0.2946 -0.0021 -0.2204
 8009TIP3    H223992   1.328   2.302   2.910  0.2068 -1.4140 -0.7801
 8010TIP3   OH223993   5.385   2.708   4.212 -0.6130  0.3541  0.1471
 8010TIP3    H123994   5.456   2.763   4.177  0.2049 -0.7672 -0.0084
 8010TIP3    H223995   5.396   2.711   4.307  0.8532 -1.3319  0.0677
 8011TIP3   OH223996   4.075   2.483   2.787 -0.2796  0.4065  0.0159
 8011TIP3    H123997   3.986   2.464   2.758 -0.1429 -0.1433 -0.0563
 8011TIP3    H223998   4.082   2.442   2.873  0.2061 -0.4244 -0.3971
 8012TIP3   OH223999   4.923   2.102   3.505  0.2963  0.0237  0.7638
 8012TIP3    H124000   4.854   2.142   3.558 -0.5067 -0.8810  0.4275
 8012TIP3    H224001   4.935   2.015   3.542  0.8504 -0.0388  0.4502
 8013TIP3   OH224002   5.339   1.167   5.198  0.2166  0.1156 -0.1741
 8013TIP3    H124003   5.323   1.226   5.124  2.2109  0.3905 -0.4517
 8013TIP3    H224004   5.404   1.212   5.251  0.8487 -1.2745  0.2853
 8014TIP3   OH224005   5.820   3.365   1.671 -0.2274  0.5249  0.3311
 8014TIP3    H124006   5.777   3.281   1.656  0.8870  0.0420 -0.3503
 8014TIP3    H224007   5.799   3.387   1.762 -0.8127 -0.3246  0.4178
 8015TIP3   OH224008   1.442   5.829   5.467  0.2761  0.0313 -0.2971
 8015TIP3    H124009   1.473   5.916   5.440  0.8866  0.4432  1.5851
 8015TIP3    H224010   1.466   5.772   5.394  2.4957  0.9458 -0.3809
 8016TIP3   OH224011   2.062   3.469   2.033 -0.1878 -0.4357 -0.2598
 8016TIP3    H124012   2.002   3.543   2.041  0.1835 -0.2529  0.9956
 8016TIP3    H224013   2.005   3.392   2.035 -0.5787 -0.2154 -1.6028
 8017TIP3   OH224014   5.624   2.001   1.137 -0.3879  0.1405  0.2253
 8017TIP3    H124015   5.711   2.032   1.164 -0.0652  2.4504 -2.8932
 8017TIP3    H224016   5.640   1.917   1.096  0.1824  0.0365  0.6481
 8018TIP3   OH224017   6.678   4.349   2.414  0.2781 -0.0291  0.4842
 8018TIP3    H124018   6.681   4.291   2.489 -0.2398  2.3749  2.4776
 8018TIP3    H224019   6.764   4.340   2.372  0.8623 -0.8333  1.8245
 8019TIP3   OH224020   0.763   6.795   3.333  0.1596 -0.0044 -0.1764
 8019TIP3    H124021   0.847   6.754   3.349  1.3254  2.7006  1.3793
 8019TIP3    H224022   0.701   6.746   3.388  1.3402 -0.1308  1.0797
 8020TIP3   OH224023   6.736   4.416   0.683 -0.4112  0.0790  0.1244
 8020TIP3    H124024   6.676   4.409   0.757  0.3250  0.4041  0.7614
 8020TIP3    H224025   6.823   4.413   0.722  0.1455 -3.4991 -0.9754
 8021TIP3   OH224026   3.525   2.907   1.989 -0.1377 -0.3976  0.3668
 8021TIP3    H124027   3.620   2.900   1.972  0.1445  0.1367  1.6541
 8021TIP3    H224028   3.492   2.819   1.972  0.1150 -0.0078 -2.7307
 8022TIP3   OH224029   1.114   2.109   2.469 -0.5179  0.1259 -0.1777
 8022TIP3    H124030   1.043   2.055   2.503 -0.8633  1.2876  1.0231
 8022TIP3    H224031   1.133   2.072   2.383 -2.2772 -0.4819 -0.3400
 8023TIP3   OH224032   0.199   0.833   2.437 -0.0384 -0.9180  0.5923
 8023TIP3    H124033   0.220   0.742   2.418 -2.5625 -1.6649  1.0199
 8023TIP3    H224034   0.103   0.836   2.441 -0.0307  0.9922  4.1044
 8024TIP3   OH224035   2.022   1.010   3.247  0.5448  0.0842  0.3270
 8024TIP3    H124036   2.070   1.076   3.298  0.9180  1.5601 -1.8148
 8024TIP3    H224037   1.988   1.058   3.172 -2.5437 -1.3886  0.6485
 8025TIP3   OH224038   0.859   4.345   1.663  0.1117  0.0790  0.5801
 8025TIP3    H124039   0.927   4.303   1.715 -0.8623 -0.7953  1.1855
 8025TIP3    H224040   0.895   4.348   1.574  1.0707 -0.0516  0.9549
 8026TIP3   OH224041   5.483   3.913   3.979  0.0936 -0.1323 -0.5076
 8026TIP3    H124042   5.438   3.984   3.934 -0.4091  0.9595  1.5677
 8026TIP3    H224043   5.425   3.889   4.051 -0.0576 -3.1646 -1.4919
 8027TIP3   OH224044   6.762   4.888   5.770 -0.4848 -0.4924 -0.2776
 8027TIP3    H124045   6.857   4.898   5.764 -0.6246  0.3671 -1.4265
 8027TIP3    H224046   6.741   4.918   5.858  0.3550 -1.1681  0.1714
 8028TIP3   OH224047   2.411   4.224   0.212  0.0911 -0.0465  0.2895
 8028TIP3    H124048   2.434   4.131   0.219 -2.6553 -0.7447  1.2045
 8028TIP3    H224049   2.426   4.259   0.300  0.2300  0.1430  0.1901
 8029TIP3   OH224050   0.910   0.958   2.472 -0.1265  0.6120 -0.2449
 8029TIP3    H124051   0.880   0.878   2.513 -0.1615 -0.8301 -2.8488
 8029TIP3    H224052   0.835   0.989   2.421  0.4538  1.2465 -0.7373
 8030TIP3   OH224053   5.802   4.058   2.396 -0.0823  0.6084 -0.0795
 8030TIP3    H124054   5.741   4.131   2.405  0.7432  1.4856 -1.3634
 8030TIP3    H224055   5.755   3.995   2.342 -1.3651 -0.5234  2.1946
 8031TIP3   OH224056   4.160   6.633   1.265  0.1064 -0.1267  0.4991
 8031TIP3    H124057   4.133   6.711   1.313  1.0000 -0.6777  1.9441
 8031TIP3    H224058   4.253   6.646   1.248  0.3480 -1.0371  1.0819
 8032TIP3   OH224059   4.240   2.212   3.814 -0.6158  0.0105 -0.0234
 8032TIP3    H124060   4.284   2.296   3.824  0.5295 -0.5785 -0.0071
 8032TIP3    H224061   4.308   2.147   3.832 -1.6457 -0.9189  0.6332
 8033TIP3   OH224062   5.350   2.322   5.753 -0.1333  0.1961 -0.3779
 8033TIP3    H124063   5.266   2.295   5.716  0.3354 -0.8613 -0.6820
 8033TIP3    H224064   5.358   2.272   5.834  0.5452 -0.2764 -0.7319
 8034TIP3   OH224065   2.039   0.538   2.996  0.2329  0.2416 -0.4124
 8034TIP3    H124066   2.029   0.449   2.962 -0.3091  0.8402 -1.9278
 8034TIP3    H224067   2.133   0.556   2.989  0.5323 -0.6202  1.0600
 8035TIP3   OH224068   2.319   2.804   2.870 -0.5501  0.3600 -0.3242
 8035TIP3    H124069   2.329   2.753   2.789  1.5613  0.4335 -0.1855
 8035TIP3    H224070   2.276   2.885   2.842  1.0627  0.8287 -1.6157
 8036TIP3   OH224071   2.575   2.801   0.200  0.2207 -0.3162 -0.3266
 8036TIP3    H124072   2.603   2.709   0.203  2.5925  0.2737 -1.5204
 8036TIP3    H224073   2.616   2.841   0.276 -1.7534 -0.4082  0.8491
 8037TIP3   OH224074   3.713   5.675   4.944  0.0109  0.1394  0.1543
 8037TIP3    H124075   3.804   5.692   4.972  0.0181  0.0589  0.1813
 8037TIP3    H224076   3.701   5.729   4.867  0.3243 -0.4110 -0.2883
 8038TIP3   OH224077   5.542   5.919   4.528  0.3511  0.0690  0.2815
 8038TIP3    H124078   5.608   5.945   4.592 -0.9845  1.8341  1.0310
 8038TIP3    H224079   5.557   5.975   4.453 -0.4724  0.7536  0.6013
 8039TIP3   OH224080   1.133   1.047   4.045 -0.2252  0.0802 -0.1434
 8039TIP3    H124081   1.087   0.963   4.035 -0.6303 -0.0158  2.0290
 8039TIP3    H224082   1.069   1.112   4.018 -0.0437 -0.2557 -1.4666
 8040TIP3   OH224083   4.913   1.425   3.108 -0.1286 -0.0101  0.1712
 8040TIP3    H124084   4.887   1.379   3.188  0.8110  0.3969  0.7316
 8040TIP3    H224085   4.931   1.355   3.045 -0.5983 -0.3442  0.3977
 8041TIP3   OH224086   1.185   4.128   0.551 -0.0454 -0.3142 -0.3458
 8041TIP3    H124087   1.147   4.106   0.465 -0.3685 -0.3828 -0.1859
 8041TIP3    H224088   1.159   4.055   0.607 -2.8020  1.3282  0.7082
 8042TIP3   OH224089   3.302   6.734   3.786  0.5068  0.0325 -0.2757
 8042TIP3    H124090   3.248   6.669   3.830  0.7268  0.2635  0.3511
 8042TIP3    H224091   3.252   6.759   3.708  0.4170 -0.8730 -0.5254
 8043TIP3   OH224092   5.018   6.628   0.658  0.1829 -0.1341  0.0739
 8043TIP3    H124093   4.938   6.652   0.611 -0.7281 -2.1121  0.5145
 8043TIP3    H224094   5.028   6.696   0.725 -1.5335 -0.2326  0.4719
 8044TIP3   OH224095   5.870   0.978   3.070  1.1919 -0.1416  0.3689
 8044TIP3    H124096   5.842   1.018   2.987  1.6103 -1.4638 -0.4496
 8044TIP3    H224097   5.800   1.000   3.131  0.1353 -0.3571 -0.7154
 8045TIP3   OH224098   5.180   6.565   4.976 -0.3277  0.2537  0.4627
 8045TIP3    H124099   5.085   6.559   4.964 -0.3019  0.9260 -0.1651
 8045TIP3    H224100   5.198   6.511   5.053 -0.9164 -1.7419 -0.7238
 8046TIP3   OH224101   4.787   6.624   1.950  0.0388  0.2778 -0.4320
 8046TIP3    H124102   4.805   6.615   1.857  0.3584  0.5280 -0.3950
 8046TIP3    H224103   4.827   6.547   1.990 -1.5636 -0.7415 -0.6847
 8047TIP3   OH224104   3.591   1.498   1.502 -0.4981 -0.1285  0.4132
 8047TIP3    H124105   3.505   1.473   1.468  0.5077 -1.6159 -1.2298
 8047TIP3    H224106   3.576   1.580   1.548 -2.6108  0.1470 -0.6557
 8048TIP3   OH224107   2.825   3.997   0.378 -0.1117  0.7038  0.1070
 8048TIP3    H124108   2.817   3.917   0.430  1.6002  0.0941 -0.5165
 8048TIP3    H224109   2.858   4.062   0.440  1.2582  0.1563 -0.0100
 8049TIP3   OH224110   1.813   1.790   5.538  0.5328  0.0206  0.2125
 8049TIP3    H124111   1.757   1.713   5.539 -2.7913  2.1920  0.8585
 8049TIP3    H224112   1.804   1.824   5.449  1.3264  0.0787  0.1533
 8050TIP3   OH224113   5.071   2.269   1.867  0.0705 -0.0700  0.2430
 8050TIP3    H124114   5.028   2.205   1.923  1.1934 -1.5379 -0.5031
 8050TIP3    H224115   5.015   2.346   1.871 -1.9490 -1.4580  0.2872
 8051TIP3   OH224116   0.070   5.875   2.656 -0.4959  0.1594 -0.4775
 8051TIP3    H124117  -0.012   5.886   2.607 -0.2930  1.0907 -0.6363
 8051TIP3    H224118   0.051   5.807   2.720 -1.7843  1.2061  0.3031
 8052TIP3   OH224119   2.830   3.706   2.544 -0.1481 -0.1906 -0.2934
 8052TIP3    H124120   2.891   3.646   2.501  1.2623  1.4398 -0.6355
 8052TIP3    H224121   2.794   3.655   2.617  0.2935 -1.7455 -1.1216
 8053TIP3   OH224122   4.851   0.248   0.903 -0.4489  0.0513 -0.5445
 8053TIP3    H124123   4.849   0.268   0.809 -0.7907  1.2737 -0.2937
 8053TIP3    H224124   4.864   0.153   0.907 -1.3020 -0.1458 -1.8431
 8054TIP3   OH224125   3.520   4.686   3.158  0.3330  0.2618 -0.0888
 8054TIP3    H124126   3.610   4.688   3.125  0.8404 -1.2996  1.0767
 8054TIP3    H224127   3.511   4.600   3.199 -1.0572  1.1317  1.5670
 8055TIP3   OH224128   6.107   2.752   1.585 -0.1205 -0.1478 -0.2681
 8055TIP3    H124129   6.054   2.827   1.615 -1.0857  0.2619 -2.7262
 8055TIP3    H224130   6.105   2.690   1.658 -3.9004 -0.0690 -0.1115
 8056TIP3   OH224131   6.596   4.756   1.841 -0.3200  0.2150 -0.3507
 8056TIP3    H124132   6.563   4.666   1.843 -0.0766  0.1301  1.4652
 8056TIP3    H224133   6.636   4.769   1.926  0.3166  1.8206 -0.8535
 8057TIP3   OH224134   4.998   4.271   1.929  0.0195 -0.2169 -0.3197
 8057TIP3    H124135   4.986   4.342   1.992 -0.8587  1.3348 -2.0939
 8057TIP3    H224136   5.084   4.236   1.948  1.2332  2.4688 -0.3688
 8058TIP3   OH224137   6.275   1.378   2.250 -0.2102  0.8215 -0.5902
 8058TIP3    H124138   6.216   1.315   2.290 -0.3789  0.5307 -1.2772
 8058TIP3    H224139   6.357   1.330   2.237 -0.3949  0.6742 -1.2777
 8059TIP3   OH224140   7.151   6.099   1.716 -0.0382 -0.7714  0.4066
 8059TIP3    H124141   7.202   6.069   1.790 -1.3815 -0.8913  1.3240
 8059TIP3    H224142   7.062   6.069   1.735 -0.5272 -0.2361 -0.9356
 8060TIP3   OH224143   2.826   1.474   1.713  0.1208  0.4001 -0.1780
 8060TIP3    H124144   2.839   1.562   1.677 -1.1949  0.2788 -1.0362
 8060TIP3    H224145   2.891   1.466   1.782  0.7280  1.7860 -0.5616
 8061TIP3   OH224146   5.559   3.286   3.929 -0.2461 -0.2634  0.1227
 8061TIP3    H124147   5.479   3.238   3.946 -0.1019 -0.4439  0.3033
 8061TIP3    H224148   5.599   3.298   4.016 -0.1354 -0.0779  0.0479
 8062TIP3   OH224149   5.623   2.208   2.835 -0.0555  0.7020  0.4220
 8062TIP3    H124150   5.562   2.135   2.825  0.7248  0.0715  0.2246
 8062TIP3    H224151   5.593   2.273   2.772 -0.9052  0.6725  0.7754
 8063TIP3   OH224152   2.392   6.594   5.101  0.1614 -0.3944 -0.1712
 8063TIP3    H124153   2.462   6.540   5.139 -0.6759 -0.4610  1.3692
 8063TIP3    H224154   2.421   6.684   5.115 -0.3787 -0.4079  1.1713
 8064TIP3   OH224155   5.686   3.896   5.614 -0.5848  0.4342 -0.1587
 8064TIP3    H124156   5.634   3.821   5.586 -2.2177  1.7715 -0.9327
 8064TIP3    H224157   5.769   3.886   5.568 -0.2807 -1.5194  0.7351
 8065TIP3   OH224158   0.384   0.655   1.232  0.0323 -0.2818 -0.0633
 8065TIP3    H124159   0.420   0.624   1.149  1.2133  2.0091 -0.4761
 8065TIP3    H224160   0.437   0.732   1.254 -2.1602  0.9165  1.3243
 8066TIP3   OH224161   5.349   2.076   2.763 -0.0774 -0.2426 -0.1948
 8066TIP3    H124162   5.386   2.005   2.710  2.0125  0.9610 -0.4934
 8066TIP3    H224163   5.314   2.138   2.700 -0.7443 -0.4196  0.0009
 8067TIP3   OH224164   2.325   1.584   0.606  0.1900 -0.1550  0.1678
 8067TIP3    H124165   2.242   1.599   0.561 -0.5882 -1.7936  0.9364
 8067TIP3    H224166   2.381   1.542   0.541 -0.1075 -0.3797  0.0563
 8068TIP3   OH224167   5.015   3.928   0.119  0.0732 -0.1008 -1.0217
 8068TIP3    H124168   5.046   4.018   0.131 -0.7915 -0.0774  1.5573
 8068TIP3    H224169   4.920   3.933   0.134 -0.0181 -1.4093 -1.0671
 8069TIP3   OH224170   4.479   0.258   2.106  0.1190  0.0849 -0.3859
 8069TIP3    H124171   4.492   0.308   2.026 -0.9068  3.3109  1.2779
 8069TIP3    H224172   4.526   0.307   2.173  0.3409 -2.0944  1.1636
 8070TIP3   OH224173   0.021   0.018   3.870 -0.5653  0.4948  0.1409
 8070TIP3    H124174   0.044   0.109   3.890 -2.5044  0.8486  0.9969
 8070TIP3    H224175   0.006   0.018   3.775 -1.0286  1.1921  0.2037
 8071TIP3   OH224176   2.061   1.290   2.771  0.0649 -0.2308 -0.1933
 8071TIP3    H124177   2.057   1.208   2.822  0.8530 -0.5493 -0.6397
 8071TIP3    H224178   2.153   1.302   2.752 -0.0720  0.6702 -0.3077
 8072TIP3   OH224179   7.199   6.624   0.896  0.4576  0.3391  0.7880
 8072TIP3    H124180   7.108   6.597   0.904  0.7671 -1.2617 -0.4908
 8072TIP3    H224181   7.241   6.591   0.975 -0.1972  1.9070  1.8512
 8073TIP3   OH224182   1.873   4.936   5.277  0.0895  0.0744  0.5990
 8073TIP3    H124183   1.959   4.967   5.307  0.5935 -1.6368  1.0654
 8073TIP3    H224184   1.830   5.014   5.241  1.9188  0.9413  0.1538
 8074TIP3   OH224185   6.485   6.277   3.655  0.1741  0.3499 -0.6388
 8074TIP3    H124186   6.424   6.208   3.681 -1.4513  2.0532  0.3278
 8074TIP3    H224187   6.541   6.236   3.589 -2.6041 -1.0791 -2.3162
 8075TIP3   OH224188   1.525   3.597   4.821 -0.1124  0.5842 -0.2462
 8075TIP3    H124189   1.527   3.658   4.894 -0.5769 -1.8322  1.9499
 8075TIP3    H224190   1.613   3.599   4.785  0.3195  1.3473  0.8231
 8076TIP3   OH224191   3.220   2.928   3.690 -0.1999  0.3183  0.2151
 8076TIP3    H124192   3.163   2.868   3.739  0.2538 -1.2757 -1.1351
 8076TIP3    H224193   3.161   2.996   3.657 -0.9518 -0.1330  0.6090
 8077TIP3   OH224194   4.110   0.808   3.673  0.8423 -0.5976 -0.4563
 8077TIP3    H124195   4.095   0.830   3.582  0.0798 -2.3053 -0.7866
 8077TIP3    H224196   4.181   0.743   3.670  0.8434 -0.6304  0.1625
 8078TIP3   OH224197   2.236   5.962   1.015  0.2612 -0.5966 -0.3766
 8078TIP3    H124198   2.175   5.915   1.071 -0.2133 -0.1414 -0.5023
 8078TIP3    H224199   2.216   6.054   1.029  0.7581 -0.4478 -0.6029
 8079TIP3   OH224200   7.015   2.238   4.437  0.3881  0.3780  0.0453
 8079TIP3    H124201   6.940   2.185   4.462 -0.7920  1.4149 -1.1583
 8079TIP3    H224202   7.091   2.186   4.463 -0.7315 -0.9141  0.8336
 8080TIP3   OH224203   5.103   2.588   0.000 -0.2725 -0.0584 -0.5057
 8080TIP3    H124204   5.139   2.513  -0.046 -0.3672  1.1122 -2.6516
 8080TIP3    H224205   5.139   2.583   0.088  2.1641 -0.9361 -1.4844
 8081TIP3   OH224206   0.648   6.008   3.214 -0.3604  0.0772  0.1040
 8081TIP3    H124207   0.736   5.991   3.181 -0.1325 -0.0745  0.7679
 8081TIP3    H224208   0.598   6.036   3.137  0.2757  0.2015 -0.2725
 8082TIP3   OH224209   6.977   3.948   1.413 -0.3127  0.2612 -0.2119
 8082TIP3    H124210   7.029   4.012   1.365  0.8771 -1.3543 -1.1668
 8082TIP3    H224211   6.888   3.983   1.412  0.6727  3.2040  1.6127
 8083TIP3   OH224212   2.773   5.952   5.762  0.9070  0.1392 -0.0958
 8083TIP3    H124213   2.736   5.901   5.690  0.1836  0.4264  0.0640
 8083TIP3    H224214   2.817   6.026   5.719  2.1161 -0.6824 -0.3395
 8084TIP3   OH224215   6.522   0.912   1.735  0.3266 -1.0374 -0.2147
 8084TIP3    H124216   6.451   0.851   1.714 -0.1844 -0.5371  0.0228
 8084TIP3    H224217   6.595   0.883   1.680 -0.5225 -0.6688 -1.5878
 8085TIP3   OH224218   7.115   1.163   5.404  0.0176 -0.7012 -0.1847
 8085TIP3    H124219   7.161   1.107   5.467  0.0531 -0.1010  0.3349
 8085TIP3    H224220   7.023   1.157   5.429  0.2114  1.0053  1.1594
 8086TIP3   OH224221   2.919   3.398   3.576 -0.1511 -0.3189  0.8126
 8086TIP3    H124222   2.936   3.319   3.627  0.5667 -0.2972  0.6166
 8086TIP3    H224223   2.929   3.470   3.638  1.0516 -0.2718  0.5738
 8087TIP3   OH224224   2.801   2.436   4.289  0.2264  0.0640  0.0191
 8087TIP3    H124225   2.776   2.353   4.249  1.8139 -0.6923  0.5161
 8087TIP3    H224226   2.840   2.412   4.373 -1.0262  1.4621  1.0681
 8088TIP3   OH224227   3.483   6.192   1.572 -0.1757 -0.3471  0.2456
 8088TIP3    H124228   3.547   6.213   1.504 -0.3391  0.1833  0.2491
 8088TIP3    H224229   3.413   6.256   1.559 -0.5859 -0.7605  0.4046
 8089TIP3   OH224230   0.075   2.296   4.204  0.2492  0.0111 -0.3177
 8089TIP3    H124231   0.150   2.276   4.149 -0.7930 -0.9230 -1.4599
 8089TIP3    H224232   0.069   2.222   4.264 -0.1836 -0.2921 -0.7247
 8090TIP3   OH224233   4.976   5.710   2.576  0.0647 -0.5752 -0.7319
 8090TIP3    H124234   5.011   5.740   2.492  0.3642  0.3310 -0.3043
 8090TIP3    H224235   5.035   5.749   2.641 -2.1704  1.7466  0.0604
 8091TIP3   OH224236   7.177   2.909   4.644  0.6437 -0.0360 -0.4839
 8091TIP3    H124237   7.221   2.890   4.727 -0.4448 -2.1929 -0.3343
 8091TIP3    H224238   7.108   2.843   4.638 -0.5202  1.2681 -2.2226
 8092TIP3   OH224239   5.042   0.684   5.515 -0.5241 -0.3653 -0.2057
 8092TIP3    H124240   5.053   0.745   5.443  1.9597  0.8339  1.0322
 8092TIP3    H224241   5.071   0.733   5.592 -2.7059 -1.6991  1.5883
 8093TIP3   OH224242   0.195   4.878   5.639  0.7294 -0.1475  0.1524
 8093TIP3    H124243   0.184   4.953   5.581 -0.2541 -0.1396  0.3386
 8093TIP3    H224244   0.196   4.915   5.727  0.8030 -0.3023  0.2174
 8094TIP3   OH224245   5.882   2.990   0.721 -0.3527  0.0449 -0.3417
 8094TIP3    H124246   5.832   3.065   0.688 -1.4064 -0.7480 -0.5894
 8094TIP3    H224247   5.914   3.019   0.806 -0.4826  0.8935 -0.5728
 8095TIP3   OH224248   1.181   4.725   2.922 -0.1176 -0.0141  0.5797
 8095TIP3    H124249   1.192   4.733   3.017 -1.7952 -0.9687  0.8806
 8095TIP3    H224250   1.121   4.796   2.898 -1.7931 -1.3538  0.6731
 8096TIP3   OH224251   6.015   2.756   0.806  0.3461 -0.1699  0.3673
 8096TIP3    H124252   6.008   2.835   0.752  0.5236 -0.8242 -0.6354
 8096TIP3    H224253   6.091   2.772   0.862 -0.9792  1.3418  1.8627
 8097TIP3   OH224254   2.977   0.758   4.564 -0.1621  0.7663  0.7500
 8097TIP3    H124255   2.886   0.774   4.587 -0.1376  0.1433  1.3177
 8097TIP3    H224256   2.976   0.675   4.517  0.3206 -0.2711  2.4708
 8098TIP3   OH224257   6.333   2.062   1.207  0.2659 -0.3156 -0.2581
 8098TIP3    H124258   6.364   1.997   1.144 -2.1122 -1.4282 -0.4138
 8098TIP3    H224259   6.345   2.020   1.292  1.3086  0.2078 -0.1467
 8099TIP3   OH224260   3.414   3.026   1.615  0.2322  0.1316 -0.5644
 8099TIP3    H124261   3.364   2.982   1.684 -1.3038  1.9098 -0.4665
 8099TIP3    H224262   3.505   2.999   1.630 -0.4388 -1.8764  0.2882
 8100TIP3   OH224263   3.046   6.321   2.409  0.0058  0.2187  0.4939
 8100TIP3    H124264   3.079   6.356   2.491  0.5017 -0.4007  0.5634
 8100TIP3    H224265   3.116   6.265   2.376 -0.7785 -0.7482  0.4120
 8101TIP3   OH224266   2.057   5.766   3.415 -0.6965 -0.4630 -0.2655
 8101TIP3    H124267   2.101   5.852   3.414 -0.2045 -0.7078  0.0701
 8101TIP3    H224268   1.975   5.781   3.368 -2.2182  1.0596  2.6003
 8102TIP3   OH224269   4.271   1.728   0.070  0.3055 -0.3831  0.3775
 8102TIP3    H124270   4.318   1.805   0.104  3.1191 -1.7962  0.0171
 8102TIP3    H224271   4.267   1.742  -0.024 -0.2067 -0.1566  0.4335
 8103TIP3   OH224272   4.921   1.751   4.403 -0.6034 -0.4513 -0.0759
 8103TIP3    H124273   4.868   1.678   4.435 -1.0383  0.5731  1.6934
 8103TIP3    H224274   4.901   1.823   4.463 -0.6512  1.3293 -2.1064
 8104TIP3   OH224275   3.470   5.439   1.890  0.6997  0.5555  0.2990
 8104TIP3    H124276   3.443   5.514   1.942  0.8228  0.4323  0.5417
 8104TIP3    H224277   3.431   5.364   1.934  2.3379  0.2518  1.2987
 8105TIP3   OH224278   3.988   4.571   3.279  0.1858  0.4288 -0.1382
 8105TIP3    H124279   3.908   4.533   3.243 -1.0947  1.0455  1.9216
 8105TIP3    H224280   3.981   4.664   3.260 -0.1915  0.6609  1.0948
 8106TIP3   OH224281   4.366   0.991   1.314  0.1440 -0.1383  0.2538
 8106TIP3    H124282   4.409   1.055   1.257  0.4092 -1.1343 -0.6990
 8106TIP3    H224283   4.366   0.910   1.263 -0.9940 -0.6819  1.0744
 8107TIP3   OH224284   3.675   1.314   4.258 -0.2260  0.1640 -0.8761
 8107TIP3    H124285   3.709   1.294   4.345 -0.8623  1.4997 -0.2863
 8107TIP3    H224286   3.594   1.363   4.275  0.3141  1.5950 -2.1824
 8108TIP3   OH224287   6.065   2.481   3.079 -0.5690 -0.2116 -0.3132
 8108TIP3    H124288   6.151   2.509   3.050 -0.4722 -0.4022 -0.2123
 8108TIP3    H224289   6.008   2.495   3.004 -0.3814 -0.4169 -0.4943
 8109TIP3   OH224290   3.441   3.990   2.803  0.0357  0.4428 -0.6503
 8109TIP3    H124291   3.422   3.897   2.812 -0.4366  0.3884 -1.9117
 8109TIP3    H224292   3.473   4.018   2.889  1.2881 -1.1296 -0.5669
 8110TIP3   OH224293   3.758   0.843   5.658  0.0601 -0.4801  0.0802
 8110TIP3    H124294   3.686   0.878   5.711  0.0064  0.8331 -0.8169
 8110TIP3    H224295   3.717   0.821   5.574  0.6649  0.1842 -0.4006
 8111TIP3   OH224296   1.047   0.807   1.340 -0.7955 -0.2332 -0.2885
 8111TIP3    H124297   1.082   0.721   1.364 -0.2965 -0.4275 -1.6515
 8111TIP3    H224298   1.040   0.805   1.245  0.1005  1.5580 -0.4381
 8112TIP3   OH224299   2.315   1.685   4.867  0.3117 -0.1558 -0.2028
 8112TIP3    H124300   2.329   1.647   4.781 -2.2811 -0.0083 -0.7797
 8112TIP3    H224301   2.272   1.769   4.849 -1.8468 -0.8797  1.2243
 8113TIP3   OH224302   1.415   3.068   3.425 -0.5473 -0.1717 -0.1948
 8113TIP3    H124303   1.460   3.147   3.393  1.5406 -1.5876 -0.9066
 8113TIP3    H224304   1.433   3.067   3.519 -0.6859  0.2555 -0.1600
 8114TIP3   OH224305   4.716   2.984   3.772  0.2889  0.0126 -0.3326
 8114TIP3    H124306   4.797   3.005   3.725  0.0942 -0.4121 -0.8671
 8114TIP3    H224307   4.746   2.943   3.854  0.6371  1.0718  0.0942
 8115TIP3   OH224308   2.704   0.586   2.550  0.3895  0.4317 -0.2790
 8115TIP3    H124309   2.777   0.537   2.513  1.0425  1.1509  0.0389
 8115TIP3    H224310   2.679   0.537   2.629 -0.0785 -0.3128 -0.8728
 8116TIP3   OH224311   5.473   5.674   5.812  0.3191  0.1431 -0.1752
 8116TIP3    H124312   5.551   5.719   5.843 -1.5854  3.6402  0.1127
 8116TIP3    H224313   5.454   5.609   5.880  1.2618  1.4028  1.3757
 8117TIP3   OH224314   6.743   4.094   1.423  0.2215  0.3226  0.9743
 8117TIP3    H124315   6.661   4.139   1.401 -0.2432 -0.6372  0.7087
 8117TIP3    H224316   6.732   4.068   1.515 -0.8930 -2.1053  0.2202
 8118TIP3   OH224317   0.146   3.504   3.728  0.4859  0.0456  0.2790
 8118TIP3    H124318   0.129   3.545   3.813  1.0566  1.1655 -0.1200
 8118TIP3    H224319   0.241   3.515   3.715  0.5081 -0.6840 -0.2146
 8119TIP3   OH224320   1.617   2.757   1.987 -0.7050 -0.0522  0.1423
 8119TIP3    H124321   1.695   2.800   1.950 -1.0000  0.2984 -0.0818
 8119TIP3    H224322   1.569   2.828   2.030  0.6329 -0.7490  3.0278
 8120TIP3   OH224323   3.302   1.599   1.146  0.1325  0.1701 -0.5302
 8120TIP3    H124324   3.377   1.556   1.188 -2.0168 -0.9132  2.6454
 8120TIP3    H224325   3.321   1.596   1.052  2.8865 -2.3379 -0.0375
 8121TIP3   OH224326   0.413   1.701   1.635  0.0428  0.3234  0.2735
 8121TIP3    H124327   0.481   1.717   1.569  0.1407 -2.2706 -0.3844
 8121TIP3    H224328   0.370   1.621   1.606 -0.1827 -0.7258  3.1256
 8122TIP3   OH224329   0.345   4.251   1.895 -0.9063 -0.1689  0.4651
 8122TIP3    H124330   0.264   4.280   1.853 -0.6486  0.4370  0.3715
 8122TIP3    H224331   0.324   4.165   1.932 -1.3449 -0.3823 -0.2730
 8123TIP3   OH224332   0.557   1.686   2.132  0.5868  0.0790 -0.1578
 8123TIP3    H124333   0.542   1.780   2.141 -0.1419  0.1358 -1.6465
 8123TIP3    H224334   0.596   1.660   2.215 -0.7772  1.3744  0.9453
 8124TIP3   OH224335   6.310   0.848   4.197  0.1073  0.1758 -0.0314
 8124TIP3    H124336   6.238   0.887   4.247  0.2540 -0.0663  0.3744
 8124TIP3    H224337   6.329   0.766   4.242  0.3260  0.0147 -0.4144
 8125TIP3   OH224338   2.997   5.451   3.092 -0.1922  0.4284 -0.3383
 8125TIP3    H124339   2.924   5.494   3.136 -0.6677 -1.9402  1.3565
 8125TIP3    H224340   3.011   5.370   3.142  3.3742  0.6091 -0.7886
 8126TIP3   OH224341   5.458   4.699   0.432 -0.3070 -0.1610  0.5531
 8126TIP3    H124342   5.533   4.757   0.445 -0.3816 -0.5494  3.2558
 8126TIP3    H224343   5.382   4.757   0.432 -0.1307  0.0872 -0.6959
 8127TIP3   OH224344   4.570   1.246   0.759  0.4359  0.1193  0.0561
 8127TIP3    H124345   4.609   1.320   0.714  2.9301  0.0267  1.8552
 8127TIP3    H224346   4.592   1.170   0.706 -0.2186  0.4075 -0.6456
 8128TIP3   OH224347   6.529   3.395   5.776 -0.7233 -0.1325 -0.0614
 8128TIP3    H124348   6.615   3.435   5.787 -1.2652  0.5947  1.9243
 8128TIP3    H224349   6.513   3.347   5.857 -2.5863  0.5679  0.0392
 8129TIP3   OH224350   1.095   1.331   0.566  0.0683 -0.1526 -0.2602
 8129TIP3    H124351   1.134   1.377   0.492  0.6746  0.8146  0.6411
 8129TIP3    H224352   1.154   1.347   0.639  0.2256 -2.2576  0.1358
 8130TIP3   OH224353   1.944   1.857   4.492  0.0886 -0.1942 -0.0528
 8130TIP3    H124354   1.926   1.766   4.516  0.0579 -0.1242  0.2003
 8130TIP3    H224355   1.966   1.899   4.575 -0.0960  0.0754 -0.1388
 8131TIP3   OH224356   1.224   2.715   4.566  0.0499  0.1959  0.6282
 8131TIP3    H124357   1.302   2.745   4.613 -0.7680 -1.5401  3.2810
 8131TIP3    H224358   1.244   2.625   4.540 -0.4786  0.2908 -0.1473
 8132TIP3   OH224359   2.032   3.044   3.270  0.0686  0.3582  0.2407
 8132TIP3    H124360   1.994   3.003   3.348  0.1336 -1.4359 -0.6277
 8132TIP3    H224361   2.126   3.045   3.287  0.0480  0.3677  0.3597
 8133TIP3   OH224362   5.276   2.315   5.351 -0.0690 -0.8525  0.5375
 8133TIP3    H124363   5.337   2.327   5.423  0.9317 -1.2401 -0.2214
 8133TIP3    H224364   5.201   2.370   5.373 -0.0314 -1.3928  2.1375
 8134TIP3   OH224365   3.427   6.630   2.445  0.3751 -0.2834  0.4932
 8134TIP3    H124366   3.372   6.697   2.403 -0.6252 -1.2064  0.2856
 8134TIP3    H224367   3.441   6.564   2.377  0.4217 -0.8179  1.0131
 8135TIP3   OH224368   5.803   1.624   0.817 -0.2389  0.6137  0.4403
 8135TIP3    H124369   5.845   1.539   0.827  2.5072  1.7076 -0.8680
 8135TIP3    H224370   5.790   1.655   0.907  1.4852  0.0442  0.9338
 8136TIP3   OH224371   4.387   6.526   2.451  0.2001  0.2578 -0.1977
 8136TIP3    H124372   4.402   6.612   2.491  0.0999 -0.6689  1.9619
 8136TIP3    H224373   4.430   6.532   2.366  0.2341  2.4184 -0.1001
 8137TIP3   OH224374   4.482   4.483   4.120  0.9875  0.0386  0.5142
 8137TIP3    H124375   4.403   4.433   4.102  1.0362 -0.1291  0.7549
 8137TIP3    H224376   4.453   4.575   4.122  0.8962  0.0183  0.0848
 8138TIP3   OH224377   4.672   1.136   2.927 -0.4059 -0.1547 -0.6935
 8138TIP3    H124378   4.727   1.066   2.963 -1.9835 -1.7981 -1.3434
 8138TIP3    H224379   4.734   1.198   2.888  1.0412 -1.1743 -0.0884
 8139TIP3   OH224380   0.235   1.781   3.025 -0.6233  0.4547  0.1702
 8139TIP3    H124381   0.264   1.703   2.978 -2.3412 -0.0261 -0.1641
 8139TIP3    H224382   0.280   1.853   2.980 -1.0404 -0.1284 -1.2564
 8140TIP3   OH224383   3.481   5.626   3.278  0.5778  0.2297  0.0706
 8140TIP3    H124384   3.404   5.605   3.332  0.9776  2.0701  1.4689
 8140TIP3    H224385   3.553   5.627   3.341  1.3631  0.7567 -0.8308
 8141TIP3   OH224386   0.513   4.253   3.003  0.0913  0.6803  0.5246
 8141TIP3    H124387   0.429   4.212   3.022 -0.0831 -0.1858 -1.8617
 8141TIP3    H224388   0.577   4.181   3.011  0.0203  0.2825 -1.7806
 8142TIP3   OH224389   1.110   0.565   5.185  0.4558 -1.1916  0.0636
 8142TIP3    H124390   1.205   0.552   5.186  0.7811  0.8995  0.9192
 8142TIP3    H224391   1.096   0.634   5.121 -0.2679 -0.1483  1.3017
 8143TIP3   OH224392   0.498   4.597   0.404 -0.0315  0.0248 -0.2455
 8143TIP3    H124393   0.592   4.594   0.387 -0.1110  0.0480 -0.7260
 8143TIP3    H224394   0.489   4.643   0.488  0.2806  2.1156 -1.2805
 8144TIP3   OH224395   3.987   2.737   1.682  0.5373  0.4750 -0.0992
 8144TIP3    H124396   3.921   2.685   1.729  0.3862  1.6422  1.0480
 8144TIP3    H224397   4.012   2.682   1.608 -0.5689 -0.6670  0.3240
 8145TIP3   OH224398   0.648   3.974   5.687 -0.0250  0.1733  0.2870
 8145TIP3    H124399   0.601   3.894   5.711 -0.5079  0.6790  1.0804
 8145TIP3    H224400   0.591   4.019   5.625  0.1345  0.0267  0.0317
 8146TIP3   OH224401   1.828   6.438   1.496 -0.5044 -0.1171  0.3660
 8146TIP3    H124402   1.769   6.415   1.424  0.9779 -1.0162 -0.6355
 8146TIP3    H224403   1.847   6.354   1.539  0.1924  0.1142  0.5213
 8147TIP3   OH224404   5.149   1.038   3.711  0.3340  0.0850  0.3374
 8147TIP3    H124405   5.063   1.052   3.752  0.6411  1.9911  0.4232
 8147TIP3    H224406   5.135   0.963   3.653 -1.4347  0.4156  0.2515
 8148TIP3   OH224407   5.049   2.111   0.948 -0.4961  0.3062  0.1007
 8148TIP3    H124408   5.093   2.182   0.901 -1.2721  0.4943 -0.3545
 8148TIP3    H224409   4.965   2.148   0.974  0.5127  0.8013  3.1406
 8149TIP3   OH224410   5.046   3.402   3.775 -0.9269 -0.5129 -0.4340
 8149TIP3    H124411   4.951   3.389   3.779 -1.0544  0.2262 -0.9060
 8149TIP3    H224412   5.072   3.408   3.867 -1.0199 -2.7498 -0.2125
 8150TIP3   OH224413   3.700   6.258   2.185  0.2794 -0.0236 -0.2444
 8150TIP3    H124414   3.773   6.275   2.126  0.1899  1.7306  0.0914
 8150TIP3    H224415   3.695   6.162   2.190  1.8957 -0.1897 -1.0639
 8151TIP3   OH224416   2.662   6.363   0.191  0.2511 -0.0528  0.0416
 8151TIP3    H124417   2.688   6.450   0.162  0.5178  0.0846  0.6668
 8151TIP3    H224418   2.642   6.315   0.111  1.9150  0.0044 -0.4425
 8152TIP3   OH224419   0.120   2.672   4.912  0.0422  0.4876 -0.5049
 8152TIP3    H124420   0.130   2.635   4.824  0.4791 -0.3549 -0.1167
 8152TIP3    H224421   0.028   2.661   4.933 -0.0261  0.5223 -0.7843
 8153TIP3   OH224422   0.390   2.546   2.230  0.0380  0.1153  0.6109
 8153TIP3    H124423   0.364   2.568   2.140 -1.7858 -1.3126  0.7188
 8153TIP3    H224424   0.483   2.567   2.233  0.3321 -0.4298 -1.8515
 8154TIP3   OH224425   4.786   4.890   2.782 -0.1793  0.3567 -0.1007
 8154TIP3    H124426   4.793   4.803   2.823 -1.2506 -0.4298 -1.4892
 8154TIP3    H224427   4.697   4.919   2.803  0.1928  1.1539  0.3977
 8155TIP3   OH224428   5.222   2.637   5.225  0.0490 -0.2029  0.1654
 8155TIP3    H124429   5.185   2.548   5.218 -0.6020  0.0344  0.4785
 8155TIP3    H224430   5.316   2.624   5.221  0.0824 -1.1438  2.3324
 8156TIP3   OH224431   1.502   3.465   0.264  0.5069  0.0917 -0.0420
 8156TIP3    H124432   1.466   3.552   0.281  0.1054  0.2124 -1.3705
 8156TIP3    H224433   1.535   3.436   0.349 -0.7687  0.8801  0.7679
 8157TIP3   OH224434   5.451   3.888   0.867  0.5683  0.1074  0.3426
 8157TIP3    H124435   5.490   3.976   0.869 -0.0574  0.3761  1.4389
 8157TIP3    H224436   5.444   3.863   0.960 -0.6212 -0.4828  0.1095
 8158TIP3   OH224437   0.508   6.185   1.464 -0.3927 -0.3812 -0.0974
 8158TIP3    H124438   0.470   6.204   1.378 -0.3206 -0.3058 -0.1134
 8158TIP3    H224439   0.490   6.264   1.515  1.0173  0.2730 -0.5408
 8159TIP3   OH224440   6.883   2.838   1.133  0.4965 -0.4917 -0.1088
 8159TIP3    H124441   6.894   2.918   1.081  0.5342 -0.0411  0.5877
 8159TIP3    H224442   6.865   2.869   1.222 -2.1206 -1.2168 -0.3021
 8160TIP3   OH224443   4.162   6.187   2.632  0.0532  0.4045  0.2342
 8160TIP3    H124444   4.130   6.250   2.567 -0.8648 -0.0544  0.2280
 8160TIP3    H224445   4.180   6.108   2.582 -0.6745  0.0434  0.5331
 8161TIP3   OH224446   1.791   2.855   1.114  0.3709 -0.2107  0.0946
 8161TIP3    H124447   1.706   2.875   1.153  0.4512 -1.5824  1.0242
 8161TIP3    H224448   1.789   2.898   1.028 -0.9180  0.4809  0.4509
 8162TIP3   OH224449   5.965   5.745   0.252  0.4683  0.3775  0.4476
 8162TIP3    H124450   5.911   5.815   0.215 -0.4621  0.0390  1.1271
 8162TIP3    H224451   6.042   5.790   0.287  1.5296  0.6880 -2.0684
 8163TIP3   OH224452   5.884   3.681   0.099 -0.5018 -0.0167  0.4678
 8163TIP3    H124453   5.962   3.710   0.148 -1.0401  0.2378  1.1966
 8163TIP3    H224454   5.919   3.629   0.027  0.4388  1.4801 -0.2036
 8164TIP3   OH224455   3.486   4.678   4.207  0.3407 -0.3971 -0.3712
 8164TIP3    H124456   3.429   4.755   4.207 -0.0511 -0.6787  0.3946
 8164TIP3    H224457   3.492   4.652   4.298  1.8527 -0.2845 -0.4139
 8165TIP3   OH224458   4.283   6.437   1.768 -0.0693  0.1428  0.0657
 8165TIP3    H124459   4.341   6.363   1.748  0.0937 -0.0781  1.2562
 8165TIP3    H224460   4.309   6.464   1.856 -0.5023  1.2779 -0.1428
 8166TIP3   OH224461   3.784   6.627   0.248  0.1269 -0.1856 -0.0295
 8166TIP3    H124462   3.825   6.713   0.259  0.2550 -0.1825 -0.5172
 8166TIP3    H224463   3.857   6.569   0.227  0.0718 -0.4616  0.5171
 8167TIP3   OH224464   4.660   5.070   3.385 -0.2995  0.0601  0.5143
 8167TIP3    H124465   4.598   5.112   3.444 -1.4840 -1.4630  0.3959
 8167TIP3    H224466   4.615   4.993   3.353  1.4174 -0.7454 -0.1011
 8168TIP3   OH224467   2.151   4.104   3.127  0.7489  0.0789  0.3504
 8168TIP3    H124468   2.150   4.100   3.223  0.2170  0.6154  0.3729
 8168TIP3    H224469   2.178   4.016   3.100  0.8867 -0.0813  0.9897
 8169TIP3   OH224470   1.056   3.904   3.060  0.0121  0.1721 -0.1017
 8169TIP3    H124471   1.120   3.834   3.076 -0.5979 -0.8163 -1.7365
 8169TIP3    H224472   1.004   3.907   3.140  0.0414 -1.2984  0.0112
 8170TIP3   OH224473   0.900   5.379   1.285 -0.3335  0.4374 -0.8419
 8170TIP3    H124474   0.899   5.294   1.328  0.6054  1.4591  1.3126
 8170TIP3    H224475   0.912   5.358   1.192 -0.3458 -1.7731 -0.3959
 8171TIP3   OH224476   6.422   4.255   1.467 -0.2521  0.0475  0.3339
 8171TIP3    H124477   6.456   4.324   1.410 -0.0693  0.0811  0.4826
 8171TIP3    H224478   6.472   4.264   1.548  1.5023 -1.7816 -0.4596
 8172TIP3   OH224479   3.863   1.417   0.615 -0.6072  0.2623 -0.3696
 8172TIP3    H124480   3.777   1.454   0.595 -1.1645 -0.7433  0.0564
 8172TIP3    H224481   3.881   1.358   0.541 -0.2811  0.4781 -0.4621
 8173TIP3   OH224482   5.800   3.685   0.692 -0.0418 -0.3151  0.2263
 8173TIP3    H124483   5.847   3.662   0.612 -2.3103  1.0476 -1.6345
 8173TIP3    H224484   5.709   3.662   0.674 -0.6340  0.0451  2.4431
 8174TIP3   OH224485   2.258   3.560   2.467 -0.4040 -0.1593 -0.0560
 8174TIP3    H124486   2.246   3.586   2.559  0.4249 -2.3938  0.7534
 8174TIP3    H224487   2.173   3.579   2.426 -1.8745 -1.8363  1.9406
 8175TIP3   OH224488   3.117   4.870   1.561 -0.3697  0.0661  0.0720
 8175TIP3    H124489   3.111   4.828   1.647  2.6302  0.9171  0.7861
 8175TIP3    H224490   3.098   4.799   1.499  1.2913 -1.5964  1.3379
 8176TIP3   OH224491   0.802   6.501   1.566  0.6871 -0.1245  0.2993
 8176TIP3    H124492   0.743   6.569   1.535  0.5029 -1.3726 -2.3935
 8176TIP3    H224493   0.754   6.457   1.636 -0.5567  0.4500 -0.1648
 8177TIP3   OH224494   2.496   2.907   5.524 -0.0059 -0.8454  0.3833
 8177TIP3    H124495   2.502   2.952   5.608 -1.1315  0.0770  0.0035
 8177TIP3    H224496   2.474   2.817   5.546  0.9805 -0.9231  1.1095
 8178TIP3   OH224497   3.459   2.071   3.070  0.1500  0.2143  0.0962
 8178TIP3    H124498   3.401   2.118   3.011  0.9168  1.3007  0.1708
 8178TIP3    H224499   3.401   2.039   3.140 -0.5836 -0.1055 -0.6457
 8179TIP3   OH224500   4.651   4.668   5.294  0.2572  0.0993  0.3582
 8179TIP3    H124501   4.577   4.609   5.277  0.4094 -0.3854  1.3345
 8179TIP3    H224502   4.621   4.726   5.363  1.5759 -1.6741  2.5480
 8180TIP3   OH224503   0.529   0.479   3.828 -0.0214  0.1279 -0.3187
 8180TIP3    H124504   0.483   0.563   3.821  0.4317  0.4163  0.0975
 8180TIP3    H224505   0.542   0.451   3.737 -1.4985 -0.2393 -0.4556
 8181TIP3   OH224506   5.845   2.201   0.987  0.6872 -0.2876 -0.3459
 8181TIP3    H124507   5.929   2.181   0.946  0.4499 -1.5945 -0.2467
 8181TIP3    H224508   5.856   2.178   1.079  0.8073  1.4030  0.0996
 8182TIP3   OH224509   0.180   2.001   2.387 -0.2661  0.6173 -0.0235
 8182TIP3    H124510   0.217   2.084   2.357  1.1965 -0.4118 -1.1959
 8182TIP3    H224511   0.149   2.020   2.476  0.0169  2.4038 -0.2620
 8183TIP3   OH224512   1.760   3.336   5.803  0.1739 -0.1258  0.0599
 8183TIP3    H124513   1.804   3.307   5.724 -0.6106 -0.6335 -0.2013
 8183TIP3    H224514   1.676   3.371   5.772 -0.6351 -1.3868  0.7560
 8184TIP3   OH224515   3.100   6.611   4.494  0.0184  0.1933 -0.6287
 8184TIP3    H124516   3.116   6.680   4.429 -0.5712  0.3900 -0.5688
 8184TIP3    H224517   3.017   6.635   4.534 -0.4069 -0.7722 -0.8989
 8185TIP3   OH224518   4.989   0.715   0.480  0.1268  0.0281 -0.2042
 8185TIP3    H124519   4.914   0.660   0.503 -0.0738  0.6020  0.5803
 8185TIP3    H224520   5.000   0.773   0.556  1.5805 -0.2623 -0.1601
 8186TIP3   OH224521   1.533   5.281   2.554 -0.5347 -0.0531 -0.8546
 8186TIP3    H124522   1.583   5.206   2.523  0.4250  0.4428 -0.5495
 8186TIP3    H224523   1.458   5.286   2.495 -0.4082 -1.0123 -1.1165
 8187TIP3   OH224524   5.055   5.459   2.531  0.1635  0.1563  0.5477
 8187TIP3    H124525   5.021   5.545   2.557  2.2745  1.0788  0.4445
 8187TIP3    H224526   5.121   5.438   2.597 -1.4906 -2.2601  1.5715
 8188TIP3   OH224527   6.206   5.343   5.258 -0.2569  0.0345  0.4093
 8188TIP3    H124528   6.114   5.317   5.258 -0.0466 -0.8823  1.9491
 8188TIP3    H224529   6.205   5.436   5.282 -0.8102  0.3317 -0.7077
 8189TIP3   OH224530   2.336   1.186   5.311  0.3618  0.0518 -0.5258
 8189TIP3    H124531   2.409   1.231   5.354  1.3598  0.3141 -2.3921
 8189TIP3    H224532   2.362   1.094   5.308  0.4701  0.0934 -0.8954
 8190TIP3   OH224533   2.336   3.586   5.244  0.1421 -0.4977  0.3695
 8190TIP3    H124534   2.373   3.626   5.323 -2.8875  1.7021  0.8641
 8190TIP3    H224535   2.244   3.571   5.265 -1.2227  1.6621 -3.1661
 8191TIP3   OH224536   5.520   6.092   3.890 -0.8628  0.2261  0.5404
 8191TIP3    H124537   5.609   6.120   3.869 -0.1702 -0.9395  1.7412
 8191TIP3    H224538   5.479   6.074   3.806  0.3044  0.0125  0.0059
 8192TIP3   OH224539   3.764   0.633   0.068  0.5244  0.3619 -0.3535
 8192TIP3    H124540   3.691   0.579   0.035 -0.3782  2.3070 -1.7579
 8192TIP3    H224541   3.778   0.698  -0.001  1.3596  2.0953  1.3686
 8193TIP3   OH224542   0.315   4.811   4.169 -0.0899  0.2060 -0.2415
 8193TIP3    H124543   0.346   4.884   4.115 -0.1750  0.4055 -0.0214
 8193TIP3    H224544   0.309   4.737   4.108 -3.2156  1.1591 -1.3091
 8194TIP3   OH224545   2.563   6.284   0.432  0.7348 -0.0078 -0.0600
 8194TIP3    H124546   2.602   6.348   0.372  2.3307 -0.1628  0.7425
 8194TIP3    H224547   2.476   6.319   0.452  0.3983  0.3501 -1.9631
 8195TIP3   OH224548   3.887   4.037   3.068 -0.1933  0.0710 -0.7433
 8195TIP3    H124549   3.828   3.961   3.066  0.3868 -0.3792 -1.7968
 8195TIP3    H224550   3.917   4.046   2.978  3.0122 -1.0692  0.0478
 8196TIP3   OH224551   1.121   3.525   2.213  0.1832  0.5688  0.2983
 8196TIP3    H124552   1.026   3.530   2.221  0.3408  2.8413  1.6096
 8196TIP3    H224553   1.152   3.614   2.232  2.5263  0.1556 -1.0523
 8197TIP3   OH224554   2.235   2.149   2.542  0.7776  0.0738  0.9369
 8197TIP3    H124555   2.186   2.076   2.579 -0.2151  0.3652  0.2071
 8197TIP3    H224556   2.276   2.113   2.463  1.2994 -0.0120  1.2368
 8198TIP3   OH224557   5.332   6.498   2.011  0.1417 -0.1366 -0.1483
 8198TIP3    H124558   5.379   6.566   1.962 -0.0124  1.3368  1.6296
 8198TIP3    H224559   5.277   6.455   1.946  1.0443  0.7383 -1.5316
 8199TIP3   OH224560   0.091   0.012   3.303 -0.4937 -0.5937 -0.4238
 8199TIP3    H124561   0.007  -0.030   3.322 -0.1656 -0.4635  1.5937
 8199TIP3    H224562   0.068   0.101   3.276 -1.0830 -1.3227 -2.4659
 8200TIP3   OH224563   2.346   2.503   1.107  0.5394  0.2378  0.6358
 8200TIP3    H124564   2.369   2.556   1.183  1.5492  0.7027  0.0306
 8200TIP3    H224565   2.254   2.479   1.120  1.0540 -0.7881  2.6491
 8201TIP3   OH224566   0.724   5.209   2.726  0.2317  0.5961  0.2854
 8201TIP3    H124567   0.661   5.228   2.657  0.7412  0.8315 -0.1231
 8201TIP3    H224568   0.797   5.168   2.681  1.1620  1.9877  0.4641
 8202TIP3   OH224569   6.826   0.157   0.558 -0.6137 -0.0547 -0.2757
 8202TIP3    H124570   6.908   0.109   0.545 -1.4189 -1.1510 -1.4643
 8202TIP3    H224571   6.766   0.093   0.596 -1.3951  0.3015 -0.8913
 8203TIP3   OH224572   6.804   2.158   2.551  1.1538  0.2516  0.0068
 8203TIP3    H124573   6.876   2.213   2.581  1.2895  0.7403 -1.1656
 8203TIP3    H224574   6.779   2.107   2.628  3.3390 -0.5918  0.2224
 8204TIP3   OH224575   1.729   0.847   0.868 -0.3066  0.0952  0.4099
 8204TIP3    H124576   1.823   0.834   0.851 -0.4939  0.6177 -1.1547
 8204TIP3    H224577   1.714   0.939   0.847 -0.8831  0.4247  2.1584
 8205TIP3   OH224578   3.995   5.053   0.016 -0.1638 -0.2249  0.5506
 8205TIP3    H124579   3.988   4.959   0.028  1.4112 -0.5741 -0.9663
 8205TIP3    H224580   4.022   5.086   0.102  1.1831 -1.4123  0.6222
 8206TIP3   OH224581   0.295   2.563   5.569 -0.2266 -0.1336  0.8724
 8206TIP3    H124582   0.236   2.522   5.505 -2.4619  0.7688  2.2155
 8206TIP3    H224583   0.356   2.494   5.594 -0.7170 -1.1360 -0.5848
 8207TIP3   OH224584   6.171   3.770   5.453 -0.1836 -0.3301  0.4263
 8207TIP3    H124585   6.131   3.740   5.535 -2.1932  1.6606  0.2698
 8207TIP3    H224586   6.139   3.708   5.387 -1.1298 -0.1190  0.6781
 8208TIP3   OH224587   6.540   4.436   0.882 -0.0104  0.2720 -0.0847
 8208TIP3    H124588   6.455   4.477   0.896 -0.2171  0.8028 -2.4730
 8208TIP3    H224589   6.595   4.470   0.953 -1.5323  0.5753  1.0056
 8209TIP3   OH224590   3.399   5.417   4.402  0.6409  0.5302 -0.3874
 8209TIP3    H124591   3.483   5.415   4.356  1.0085  0.1939  0.2868
 8209TIP3    H224592   3.409   5.486   4.468  1.2283 -1.0039  1.2193
 8210TIP3   OH224593   5.735   5.656   1.278 -0.0054  0.0403  0.5357
 8210TIP3    H124594   5.724   5.699   1.194 -2.7705  1.8068  1.6716
 8210TIP3    H224595   5.776   5.723   1.334 -1.3493  0.1289  1.4631
 8211TIP3   OH224596   1.271   1.972   1.297 -0.1389  0.0499 -0.2668
 8211TIP3    H124597   1.320   2.012   1.225  0.1800 -1.6997 -1.0892
 8211TIP3    H224598   1.336   1.960   1.367 -0.3653  1.4209  0.2040
 8212TIP3   OH224599   2.036   3.404   5.101  0.4632  0.2013 -0.4556
 8212TIP3    H124600   2.081   3.365   5.177 -0.9383 -3.0841 -1.1601
 8212TIP3    H224601   1.960   3.448   5.139  1.0661  0.6998  0.2191
 8213TIP3   OH224602   4.830   0.198   3.082 -0.2150  0.1788 -0.5144
 8213TIP3    H124603   4.873   0.159   3.158 -1.2428  2.0038  1.0601
 8213TIP3    H224604   4.840   0.132   3.013 -0.8554 -2.3501  1.6593
 8214TIP3   OH224605   4.344   3.207   2.048 -0.5371 -0.8344  0.0294
 8214TIP3    H124606   4.262   3.218   2.096 -0.5615  0.2999 -0.2482
 8214TIP3    H224607   4.377   3.296   2.035  0.3072 -1.2215 -0.6111
 8215TIP3   OH224608   4.763   5.412   4.316 -0.0126  0.2585 -0.4271
 8215TIP3    H124609   4.803   5.474   4.255  0.2497 -1.2512 -1.8867
 8215TIP3    H224610   4.832   5.392   4.379  1.2460 -1.4286 -2.2302
 8216TIP3   OH224611   3.684   3.908   1.951 -0.6244  0.7944  0.0013
 8216TIP3    H124612   3.777   3.905   1.972 -0.6895  1.8645  0.4697
 8216TIP3    H224613   3.680   3.896   1.856 -0.0833 -0.2342  0.0963
 8217TIP3   OH224614   0.433   6.095   0.616 -0.7042  0.0594  1.1655
 8217TIP3    H124615   0.515   6.143   0.600  0.8241 -2.3514  1.3383
 8217TIP3    H224616   0.374   6.124   0.546  0.9421  0.4267 -0.1359
 8218TIP3   OH224617   6.169   6.235   2.180  0.0611  0.1183  0.2059
 8218TIP3    H124618   6.221   6.314   2.196 -0.2343  0.1599  1.0058
 8218TIP3    H224619   6.098   6.240   2.243 -1.2602  0.3398 -1.2207
 8219TIP3   OH224620   0.503   2.665   0.704 -1.0102 -0.1882  0.4040
 8219TIP3    H124621   0.457   2.581   0.714  0.2662 -0.9887 -0.1838
 8219TIP3    H224622   0.590   2.649   0.740 -0.2669  0.4200 -1.0157
 8220TIP3   OH224623   1.388   3.341   0.562 -0.2931 -0.0722 -0.0970
 8220TIP3    H124624   1.432   3.261   0.532 -0.3352  0.4387 -1.5984
 8220TIP3    H224625   1.459   3.399   0.588 -0.1289  0.2859 -1.3164
 8221TIP3   OH224626   6.795   6.199   0.198 -0.4868  0.4129 -0.1112
 8221TIP3    H124627   6.814   6.119   0.248  0.8281 -0.1261 -1.3698
 8221TIP3    H224628   6.867   6.259   0.221  0.5691 -0.1148 -1.8210
 8222TIP3   OH224629   2.872   2.819   5.639 -0.1519 -0.5903 -0.2358
 8222TIP3    H124630   2.938   2.821   5.570 -0.9493  1.9900 -1.0252
 8222TIP3    H224631   2.842   2.728   5.639  1.4401 -1.1808 -1.7569
 8223TIP3   OH224632   1.975   6.077   1.881 -0.2212 -0.3806  0.1495
 8223TIP3    H124633   1.902   6.124   1.922  0.3481 -1.2532  2.2941
 8223TIP3    H224634   1.982   5.996   1.931  1.3181 -0.9701 -0.9558
 8224TIP3   OH224635   0.024   5.033   1.541  0.8911 -0.0992 -0.0122
 8224TIP3    H124636   0.101   5.089   1.532  0.8785 -0.2713 -1.4078
 8224TIP3    H224637  -0.048   5.093   1.562  0.9114  0.4161 -1.3294
 8225TIP3   OH224638   2.281   4.995   5.799 -0.1108  0.2544  0.2476
 8225TIP3    H124639   2.352   4.939   5.768 -0.6686 -0.8914  0.9550
 8225TIP3    H224640   2.222   4.935   5.844  0.2278  1.6717  2.7672
 8226TIP3   OH224641   3.318   4.901   4.196 -0.2269  0.1624 -0.3112
 8226TIP3    H124642   3.351   4.988   4.171 -0.3110  0.1778 -0.3674
 8226TIP3    H224643   3.287   4.913   4.286 -0.9903  0.3915 -0.6019
 8227TIP3   OH224644   1.779   0.605   0.568 -0.0551 -0.2575  0.7730
 8227TIP3    H124645   1.796   0.521   0.610 -1.9181 -0.1524  1.8291
 8227TIP3    H224646   1.817   0.670   0.628  1.3440 -0.2998 -0.0204
 8228TIP3   OH224647   1.526   3.121   3.658  0.1435 -0.2131  0.1575
 8228TIP3    H124648   1.506   3.142   3.749 -0.2222  0.2498 -0.0244
 8228TIP3    H224649   1.620   3.102   3.658  0.4116  1.0273  0.4110
 8229TIP3   OH224650   3.204   0.243   0.871 -0.0741  0.6287 -0.2063
 8229TIP3    H124651   3.168   0.162   0.906  1.7988  0.0308  0.4716
 8229TIP3    H224652   3.135   0.278   0.815 -0.5632 -1.9280 -1.3303
 8230TIP3   OH224653   0.303   3.949   1.774 -0.6931 -0.1442  0.0479
 8230TIP3    H124654   0.220   3.918   1.812 -1.0527  0.0042 -0.5965
 8230TIP3    H224655   0.371   3.902   1.823 -1.1720 -0.6520  0.2383
 8231TIP3   OH224656   6.148   2.660   5.207  0.4090  0.1512  0.2373
 8231TIP3    H124657   6.088   2.640   5.279  0.5131 -2.2010 -0.2566
 8231TIP3    H224658   6.235   2.638   5.240  0.4137 -1.3865 -0.6954
 8232TIP3   OH224659   2.636   4.381   4.871 -0.1213  0.4450  0.0292
 8232TIP3    H124660   2.600   4.300   4.835  0.1871  0.5954 -0.6226
 8232TIP3    H224661   2.666   4.357   4.959 -0.2442 -0.0866 -0.0715
 8233TIP3   OH224662   1.796   2.093   2.469  0.1387  0.7955 -0.0206
 8233TIP3    H124663   1.798   2.016   2.525  1.3060 -0.7093 -1.9931
 8233TIP3    H224664   1.704   2.102   2.445 -0.1002  0.3885  0.7030
 8234TIP3   OH224665   3.788   3.172   0.517 -0.3771  0.1149 -0.4888
 8234TIP3    H124666   3.844   3.230   0.465  1.0912 -0.0626  0.8515
 8234TIP3    H224667   3.730   3.131   0.452 -2.1000  3.6157 -1.4430
 8235TIP3   OH224668   5.495   3.686   2.112  0.2948 -0.6335  0.0641
 8235TIP3    H124669   5.454   3.616   2.061 -0.4525  0.2360 -0.5680
 8235TIP3    H224670   5.509   3.648   2.198 -3.9621 -0.4163  1.0920
 8236TIP3   OH224671   1.372   5.159   0.126  0.1195 -0.7690  0.1568
 8236TIP3    H124672   1.466   5.168   0.143  0.2489 -2.4596  0.4977
 8236TIP3    H224673   1.351   5.070   0.153 -1.3670 -0.7897 -0.9195
 8237TIP3   OH224674   6.638   6.380   5.622 -0.2680  0.0174  0.3288
 8237TIP3    H124675   6.551   6.376   5.582 -0.3446 -1.6358  0.5776
 8237TIP3    H224676   6.689   6.315   5.574  0.8188  0.9034  0.2514
 8238TIP3   OH224677   4.067   4.029   0.208  0.6390 -0.2169  0.5240
 8238TIP3    H124678   4.063   4.074   0.293  0.8778 -0.0260  0.4369
 8238TIP3    H224679   4.047   4.098   0.144  2.2606  0.0732  0.2959
 8239TIP3   OH224680   3.304   0.594   4.128 -0.6397 -0.0050  0.1465
 8239TIP3    H124681   3.397   0.571   4.137 -0.5297  0.0327 -0.8361
 8239TIP3    H224682   3.274   0.545   4.051 -1.1872  0.7254 -0.1178
 8240TIP3   OH224683   4.553   1.455   5.897 -0.1371 -0.2451 -0.4767
 8240TIP3    H124684   4.553   1.439   5.803 -1.5837 -0.7978 -0.4170
 8240TIP3    H224685   4.484   1.398   5.931  2.6661 -2.7722  1.4714
 8241TIP3   OH224686   1.837   6.402   0.333  0.2029 -0.6954  0.1312
 8241TIP3    H124687   1.771   6.337   0.309  0.5754 -1.4956  1.2099
 8241TIP3    H224688   1.918   6.352   0.340  0.3386 -0.2955  1.8204
 8242TIP3   OH224689   5.066   0.481   3.512 -0.5068 -0.2222 -0.5048
 8242TIP3    H124690   5.046   0.390   3.490 -0.8084 -0.0534 -0.9208
 8242TIP3    H224691   5.071   0.482   3.608 -1.0364 -0.5615 -0.4744
 8243TIP3   OH224692   4.214   0.753   4.909  0.3625  0.4184 -0.0719
 8243TIP3    H124693   4.180   0.831   4.864 -0.6276  1.6222  2.5394
 8243TIP3    H224694   4.135   0.706   4.937  0.9002  0.2904  1.2961
 8244TIP3   OH224695   1.665   0.055   3.372  0.1196  0.8207  0.3281
 8244TIP3    H124696   1.667  -0.016   3.437 -0.4387 -0.3971 -0.9300
 8244TIP3    H224697   1.591   0.109   3.398  0.8559  1.2705  1.5964
 8245TIP3   OH224698   2.536   2.346   1.780  0.0437 -0.9082  0.3266
 8245TIP3    H124699   2.488   2.287   1.722  1.5468 -0.7777 -1.1101
 8245TIP3    H224700   2.521   2.311   1.868 -2.7030 -0.8328 -0.0215
 8246TIP3   OH224701   1.128   2.927   3.521  0.1269  0.5426  0.4779
 8246TIP3    H124702   1.148   3.009   3.476  0.1503 -0.0650 -0.6416
 8246TIP3    H224703   1.211   2.881   3.527  0.1523  0.6677  1.2867
 8247TIP3   OH224704   6.683   6.296   4.866  0.3834 -0.1574  0.2370
 8247TIP3    H124705   6.695   6.387   4.892 -0.9611  0.0898  0.0551
 8247TIP3    H224706   6.676   6.299   4.770 -0.4228 -0.3388  0.2816
 8248TIP3   OH224707   6.563   2.283   3.486 -0.9224 -0.6710 -0.4267
 8248TIP3    H124708   6.615   2.346   3.535 -0.7789 -0.7886 -0.4275
 8248TIP3    H224709   6.537   2.331   3.407 -4.2635  0.8048  1.3776
 8249TIP3   OH224710   5.868   4.558   2.060 -0.1430 -0.0325 -0.0575
 8249TIP3    H124711   5.778   4.536   2.083 -0.5798  1.0779 -0.6193
 8249TIP3    H224712   5.873   4.546   1.966 -0.0417  1.0011 -0.1962
 8250TIP3   OH224713   0.942   5.392   5.807 -0.6498  0.9430  0.4804
 8250TIP3    H124714   0.950   5.469   5.751 -0.9067  2.2317  2.1167
 8250TIP3    H224715   0.861   5.407   5.856  0.5247  0.8894  2.5698
 8251TIP3   OH224716   3.572   1.952   1.154  0.1129  0.1204  0.0245
 8251TIP3    H124717   3.628   2.026   1.132 -1.2273  0.6238 -1.8907
 8251TIP3    H224718   3.536   1.974   1.240  0.8428  0.9831  0.1297
 8252TIP3   OH224719   6.377   6.283   1.881 -0.6933  0.2907 -0.1254
 8252TIP3    H124720   6.378   6.192   1.909 -1.1451  0.0158 -0.9773
 8252TIP3    H224721   6.287   6.312   1.894 -0.6122  0.5372 -0.1022
 8253TIP3   OH224722   0.266   5.693   1.357 -0.5292  0.3369  0.3397
 8253TIP3    H124723   0.300   5.679   1.269  0.3570 -0.1034  0.7380
 8253TIP3    H224724   0.322   5.761   1.394 -0.4358  0.0115  0.8068
 8254TIP3   OH224725   0.571   4.387   3.976 -0.0485 -0.8705  0.0850
 8254TIP3    H124726   0.554   4.301   3.938  0.3247  0.2647 -2.9133
 8254TIP3    H224727   0.614   4.437   3.906 -0.6751  1.9143  1.5164
 8255TIP3   OH224728   1.782   2.280   3.308 -0.0124  0.3752  0.3900
 8255TIP3    H124729   1.835   2.323   3.241  0.2430  1.9388  1.5368
 8255TIP3    H224730   1.750   2.200   3.266 -0.9586  1.9213 -2.0381
 8256TIP3   OH224731   0.252   0.854   5.575 -0.4571 -0.0429 -0.9105
 8256TIP3    H124732   0.290   0.768   5.595  0.2656  0.4398 -0.1628
 8256TIP3    H224733   0.172   0.834   5.526 -0.5668 -1.1627 -0.3068
 8257TIP3   OH224734   1.541   0.487   4.046  0.1522 -0.4312  0.2148
 8257TIP3    H124735   1.620   0.541   4.052 -0.0472  0.0446 -1.2646
 8257TIP3    H224736   1.573   0.397   4.053  0.6500 -0.2029  1.0766
 8258TIP3   OH224737   6.094   3.217   2.953  0.2925  0.2628  0.2982
 8258TIP3    H124738   6.155   3.207   3.026  1.1717 -0.5439 -0.5160
 8258TIP3    H224739   6.149   3.215   2.875 -0.7133  0.1576 -0.4365
 8259TIP3   OH224740   6.765   5.055   2.697  0.2954  0.1538 -0.0902
 8259TIP3    H124741   6.742   5.142   2.664  0.1017 -0.4634 -1.7086
 8259TIP3    H224742   6.743   4.996   2.625 -0.2894 -1.3405  1.2533
 8260TIP3   OH224743   1.633   0.932   4.052  0.3265  0.2407 -0.6576
 8260TIP3    H124744   1.606   1.022   4.074 -0.1982 -0.1350  0.2957
 8260TIP3    H224745   1.582   0.911   3.973  0.0443  0.5843 -0.5731
 8261TIP3   OH224746   2.623   3.085   2.301  0.4390 -0.0630  0.2173
 8261TIP3    H124747   2.609   3.042   2.386 -3.3137  0.7875  0.2048
 8261TIP3    H224748   2.700   3.139   2.315  1.0217 -1.3267  2.4933
 8262TIP3   OH224749   5.136   3.425   2.095  0.6047 -0.3548  0.1491
 8262TIP3    H124750   5.157   3.500   2.039  1.4876 -1.3409 -0.9004
 8262TIP3    H224751   5.171   3.447   2.180 -2.3107  1.9622  0.9111
 8263TIP3   OH224752   0.550   5.567   2.852  0.1414 -0.1990  0.0208
 8263TIP3    H124753   0.514   5.655   2.852 -0.0023 -0.2080 -2.1823
 8263TIP3    H224754   0.608   5.565   2.776  0.5526 -1.8510  0.3449
 8264TIP3   OH224755   5.665   1.068   0.168  0.3121  0.6731  0.0718
 8264TIP3    H124756   5.652   1.039   0.259  1.5226  0.7542  0.2891
 8264TIP3    H224757   5.638   1.160   0.168  2.3962  1.3569  0.9333
 8265TIP3   OH224758   2.066   0.399   3.830  0.2584 -0.0676 -0.4393
 8265TIP3    H124759   2.075   0.420   3.923  0.2936  0.8357 -0.6452
 8265TIP3    H224760   2.143   0.438   3.789 -0.2670  0.4011 -0.9916
 8266TIP3   OH224761   5.745   6.313   4.488 -0.7429 -0.3932 -0.0350
 8266TIP3    H124762   5.790   6.229   4.480  0.0955  0.1168 -0.8575
 8266TIP3    H224763   5.689   6.318   4.411 -0.4473 -0.0034 -0.2274
 8267TIP3   OH224764   6.850   2.857   0.222 -0.4824 -0.0786  0.5298
 8267TIP3    H124765   6.823   2.933   0.274 -0.9809 -0.3541  0.6776
 8267TIP3    H224766   6.886   2.796   0.286 -0.8933 -0.3267  0.5283
 8268TIP3   OH224767   3.022   2.085   0.907 -0.1265  0.4442  0.3827
 8268TIP3    H124768   2.981   2.085   0.993 -2.4257 -3.4694 -0.4653
 8268TIP3    H224769   2.954   2.118   0.848 -0.0952 -0.7783 -0.3715
 8269TIP3   OH224770   7.141   2.080   4.632  0.3059  0.1027 -0.3240
 8269TIP3    H124771   7.199   2.054   4.703 -0.2883 -0.8554 -0.1754
 8269TIP3    H224772   7.055   2.088   4.673 -0.1015 -0.7644 -0.9881
 8270TIP3   OH224773   2.682   4.329   2.865 -0.3971 -0.7806 -0.8642
 8270TIP3    H124774   2.731   4.251   2.891  1.0463 -0.0455 -1.3091
 8270TIP3    H224775   2.643   4.305   2.781  1.0844 -0.6302 -1.6305
 8271TIP3   OH224776   1.189   5.619   2.594 -0.3012 -0.5034  0.1577
 8271TIP3    H124777   1.279   5.606   2.563 -0.0602  0.8510  0.2374
 8271TIP3    H224778   1.195   5.695   2.652 -1.7009  0.3243 -0.7352
 8272TIP3   OH224779   6.346   6.298   4.205  0.2739 -0.0028 -0.0398
 8272TIP3    H124780   6.282   6.348   4.256 -0.3409 -0.6452 -0.1616
 8272TIP3    H224781   6.416   6.360   4.186 -0.3249  0.7219  0.0769
 8273TIP3   OH224782   4.451   1.028   4.450  0.1249 -0.2892  0.2252
 8273TIP3    H124783   4.478   1.096   4.513  0.0761  1.1563 -1.2567
 8273TIP3    H224784   4.358   1.014   4.468 -0.1243  0.8127 -0.1225
 8274TIP3   OH224785   1.675   3.881   2.290  0.0682  0.1312  0.5804
 8274TIP3    H124786   1.616   3.943   2.332  0.4099 -0.0508  1.3297
 8274TIP3    H224787   1.621   3.804   2.273 -0.0843  0.2273  0.6257
 8275TIP3   OH224788   2.873   0.622   5.776  0.2499  0.6760 -0.5046
 8275TIP3    H124789   2.916   0.630   5.861 -0.0406 -0.1656 -0.2699
 8275TIP3    H224790   2.928   0.674   5.717  0.5307  1.1533  0.1625
 8276TIP3   OH224791   5.487   6.393   1.134  0.3898 -0.2909  0.2135
 8276TIP3    H124792   5.413   6.395   1.073  1.8068 -2.7469 -1.8061
 8276TIP3    H224793   5.536   6.472   1.113 -1.1807  0.9471  1.0150
 8277TIP3   OH224794   1.110   4.618   1.141  0.0414  0.7210 -0.0088
 8277TIP3    H124795   1.033   4.673   1.128 -2.0002 -1.4294  2.0123
 8277TIP3    H224796   1.145   4.648   1.225 -0.5834 -0.4367  0.6846
 8278TIP3   OH224797   6.114   6.082   1.714  0.0070  0.3353  0.0938
 8278TIP3    H124798   6.107   6.148   1.782 -3.0021 -1.6953  1.9680
 8278TIP3    H224799   6.130   6.000   1.761 -0.3364 -0.8886 -1.7989
 8279TIP3   OH224800   1.873   3.275   2.009 -0.2371 -0.4598  0.0469
 8279TIP3    H124801   1.797   3.303   1.959  0.6748  0.9470 -0.6207
 8279TIP3    H224802   1.913   3.207   1.955  0.6891  0.9856 -1.1587
 8280TIP3   OH224803   6.475   4.705   0.069  0.3392  0.5363  0.4014
 8280TIP3    H124804   6.479   4.703   0.165  1.1428  2.5941  0.4621
 8280TIP3    H224805   6.409   4.771   0.049 -0.8587 -0.8805 -0.5115
 8281TIP3   OH224806   2.332   5.603   3.004  0.2852  0.4829  0.2837
 8281TIP3    H124807   2.308   5.621   2.913  0.4585  1.4342  0.4104
 8281TIP3    H224808   2.428   5.599   3.003  0.4350  2.6199  0.7464
 8282TIP3   OH224809   2.840   1.559   5.471  0.1538 -0.0297  0.5281
 8282TIP3    H124810   2.884   1.487   5.427 -2.0893 -0.9691 -0.3542
 8282TIP3    H224811   2.848   1.633   5.411 -1.1896 -0.7696 -0.6302
 8283TIP3   OH224812   3.603   2.543   4.249 -0.0032  0.0163  0.4864
 8283TIP3    H124813   3.514   2.517   4.271 -0.0787  0.1022  0.2890
 8283TIP3    H224814   3.618   2.506   4.162 -0.5717  1.6570 -0.3654
 8284TIP3   OH224815   4.594   3.213   2.365  0.4162 -0.5258  0.3065
 8284TIP3    H124816   4.509   3.226   2.408  0.3670 -1.7200  0.6088
 8284TIP3    H224817   4.571   3.182   2.277  0.5356  0.1136  0.0463
 8285TIP3   OH224818   3.160   1.903   5.240  0.1660 -0.2239 -0.1225
 8285TIP3    H124819   3.159   1.927   5.147  1.3756  1.3610  0.2292
 8285TIP3    H224820   3.248   1.925   5.269 -0.6952  0.9190  1.7906
 8286TIP3   OH224821   1.878   5.868   3.004  0.4889  0.4073 -0.2992
 8286TIP3    H124822   1.876   5.938   2.939 -1.7103  0.5445 -0.1411
 8286TIP3    H224823   1.790   5.866   3.041  0.6377 -2.0832  0.1030
 8287TIP3   OH224824   4.913   6.789   4.330  0.0695  0.1245  0.6980
 8287TIP3    H124825   4.918   6.739   4.411  2.1344  0.2733  0.7283
 8287TIP3    H224826   4.820   6.792   4.308 -0.2374 -2.7403  1.2790
 8288TIP3   OH224827   5.740   5.094   3.517 -0.3572 -0.6826  0.5831
 8288TIP3    H124828   5.682   5.043   3.461 -1.1168 -1.2254  1.8189
 8288TIP3    H224829   5.823   5.046   3.515  0.5909  0.8235 -2.2730
 8289TIP3   OH224830   2.969   1.732   2.294  0.0698 -0.2909 -0.0448
 8289TIP3    H124831   2.953   1.785   2.372  0.2870 -0.8507  0.3811
 8289TIP3    H224832   2.944   1.643   2.319  0.2565 -0.4973 -0.5755
 8290TIP3   OH224833   1.953   5.938   4.080  0.5582 -0.5125  0.2452
 8290TIP3    H124834   2.022   6.003   4.093  0.8275 -0.5799 -0.7303
 8290TIP3    H224835   1.900   5.943   4.159  0.9524  0.4379  0.4676
 8291TIP3   OH224836   0.877   2.659   1.821  0.8446 -0.1004  0.4012
 8291TIP3    H124837   0.837   2.667   1.908  0.4753  2.4420  0.0670
 8291TIP3    H224838   0.965   2.694   1.832  0.1941  1.9913 -0.5807
 8292TIP3   OH224839   0.325   0.951   5.837 -0.2338  0.4507 -0.1906
 8292TIP3    H124840   0.347   0.875   5.783  0.4457  0.1645  0.4665
 8292TIP3    H224841   0.241   0.981   5.803 -0.1102 -0.0876 -1.0036
 8293TIP3   OH224842   3.078   5.912   1.643 -0.5820  0.3384  0.1248
 8293TIP3    H124843   3.145   5.961   1.595 -0.4109  0.5614  0.5858
 8293TIP3    H224844   3.073   5.955   1.728 -0.3572 -0.5124  0.5761
 8294TIP3   OH224845   1.892   3.387   3.316 -0.2598  0.2812 -0.5875
 8294TIP3    H124846   1.848   3.368   3.234  0.1719  0.9472 -0.9827
 8294TIP3    H224847   1.822   3.409   3.377 -0.9106 -3.3019  0.1765
 8295TIP3   OH224848   5.277   6.622   0.524  0.1931 -0.3148 -0.1419
 8295TIP3    H124849   5.257   6.547   0.468  1.4163 -0.6285 -0.1886
 8295TIP3    H224850   5.199   6.633   0.578 -0.7699 -0.3899 -1.4694
 8296TIP3   OH224851   6.317   1.105   4.785 -0.5090  0.1670  0.5723
 8296TIP3    H124852   6.372   1.184   4.784  1.8066 -1.3344  0.3947
 8296TIP3    H224853   6.364   1.045   4.844 -0.8364 -1.9286 -1.1868
 8297TIP3   OH224854   4.868   5.203   3.516 -0.1204  0.2077  0.4635
 8297TIP3    H124855   4.811   5.153   3.457 -0.4271 -1.4525  2.0827
 8297TIP3    H224856   4.957   5.177   3.491  0.0442  2.5520 -1.8455
 8298TIP3   OH224857   6.831   4.748   4.958 -0.2480 -0.2486 -0.1457
 8298TIP3    H124858   6.898   4.691   4.995  1.3645  1.9703  0.6043
 8298TIP3    H224859   6.824   4.721   4.867  0.3684 -1.6941  0.2107
 8299TIP3   OH224860   1.877   0.749   3.215 -0.0158 -0.0962  0.3052
 8299TIP3    H124861   1.854   0.841   3.222  2.7720  0.9461 -1.9770
 8299TIP3    H224862   1.882   0.718   3.305 -3.4897  1.1835  1.0736
 8300TIP3   OH224863   3.637   6.024   0.911  0.4230 -0.4170  0.4881
 8300TIP3    H124864   3.644   6.063   0.998 -0.3777  0.2036  0.2804
 8300TIP3    H224865   3.686   6.082   0.854  1.3922 -1.1046  0.5977
 8301TIP3   OH224866   0.535   0.277   4.883  0.0387 -0.4029  0.7232
 8301TIP3    H124867   0.459   0.222   4.865  0.8535 -0.5742 -2.8654
 8301TIP3    H224868   0.498   0.359   4.914 -1.4970 -0.9853  0.5245
 8302TIP3   OH224869   2.748   0.613   5.322 -0.5405  0.1064 -0.2605
 8302TIP3    H124870   2.719   0.594   5.411 -1.2265 -0.8138 -0.6707
 8302TIP3    H224871   2.737   0.708   5.314 -1.4580  0.0584  0.2917
 8303TIP3   OH224872   6.650   0.841   3.056  0.0562 -0.2090  0.0571
 8303TIP3    H124873   6.679   0.766   3.004 -1.2786 -1.3125  0.8226
 8303TIP3    H224874   6.729   0.871   3.101  0.8289 -0.4714 -1.0789
 8304TIP3   OH224875   0.885   2.967   3.399 -0.1679  0.0559  0.5904
 8304TIP3    H124876   0.967   2.988   3.444  0.7721 -1.4385 -0.3321
 8304TIP3    H224877   0.905   2.974   3.306 -0.8911 -0.9314  0.3351
 8305TIP3   OH224878   1.493   3.654   2.301 -0.2538  0.0572 -0.4231
 8305TIP3    H124879   1.513   3.577   2.248  0.0098 -0.3004  0.2014
 8305TIP3    H224880   1.401   3.673   2.280  0.3640  1.0621 -2.4606
 8306TIP3   OH224881   5.299   6.094   5.894 -0.1074 -0.5275  0.0707
 8306TIP3    H124882   5.212   6.118   5.862  0.3230 -0.9770 -1.5095
 8306TIP3    H224883   5.336   6.039   5.825  1.8196  0.4542  0.2479
 8307TIP3   OH224884   2.769   0.924   5.524 -0.0537 -0.1008  0.1654
 8307TIP3    H124885   2.725   0.943   5.441 -2.5645  3.0475  2.0018
 8307TIP3    H224886   2.853   0.970   5.517 -0.8966  1.4730 -0.1284
 8308TIP3   OH224887   7.102   2.917   2.767  0.7469  0.2602 -0.3951
 8308TIP3    H124888   7.132   2.853   2.832 -1.2998  0.6079  0.9893
 8308TIP3    H224889   7.011   2.933   2.790  0.6130  2.1406 -2.0016
 8309TIP3   OH224890   6.800   3.094   0.356 -0.0579 -0.0607 -0.0448
 8309TIP3    H124891   6.877   3.104   0.412  0.0477 -1.0348  0.0003
 8309TIP3    H224892   6.800   3.173   0.302  0.5017  0.3403  0.5195
 8310TIP3   OH224893   0.970   5.937   2.480  0.1291  0.7753  0.7341
 8310TIP3    H124894   0.880   5.929   2.512  0.4984 -1.3560  1.3835
 8310TIP3    H224895   1.023   5.890   2.545  1.5034  0.5707 -0.4785
 8311TIP3   OH224896   4.122   1.431   1.656 -0.3266  0.0500 -0.7736
 8311TIP3    H124897   4.073   1.378   1.719 -0.1662  1.2787  0.4313
 8311TIP3    H224898   4.068   1.431   1.577 -1.4788  0.0304 -0.0123
 8312TIP3   OH224899   4.606   1.811   4.987 -0.1840 -0.0946 -0.2087
 8312TIP3    H124900   4.584   1.804   5.080 -0.3815 -2.2840 -0.3473
 8312TIP3    H224901   4.653   1.730   4.968  0.9234  0.8655 -1.7716
 8313TIP3   OH224902   3.932   5.241   5.076  0.5330  0.3625  0.4487
 8313TIP3    H124903   4.016   5.272   5.043  0.8063 -0.2959  0.4971
 8313TIP3    H224904   3.949   5.149   5.100 -0.2905  0.1131  0.1045
 8314TIP3   OH224905   4.876   3.444   5.827 -0.3043 -0.0435 -0.4510
 8314TIP3    H124906   4.928   3.525   5.832  1.0959 -0.9663  1.0459
 8314TIP3    H224907   4.941   3.374   5.827 -1.4274 -1.2173 -3.0682
 8315TIP3   OH224908   0.001   5.177   2.711 -0.1275 -0.6750  0.4092
 8315TIP3    H124909   0.077   5.122   2.690  0.4335  1.0148 -2.4926
 8315TIP3    H224910   0.038   5.264   2.728 -1.3652  0.0634 -0.5560
 8316TIP3   OH224911   6.366   3.615   1.180 -0.2422  0.4428 -0.3350
 8316TIP3    H124912   6.377   3.689   1.120 -1.3262  0.3859 -0.6307
 8316TIP3    H224913   6.274   3.590   1.170 -0.4642  0.4657  1.3970
 8317TIP3   OH224914   1.530   1.861   2.574 -0.6237 -0.2968  0.5958
 8317TIP3    H124915   1.526   1.842   2.668 -0.8224  0.1338  0.6761
 8317TIP3    H224916   1.566   1.782   2.535 -0.0576 -0.2902  1.0956
 8318TIP3   OH224917   1.242   6.153   5.394  0.1279 -0.3552  0.1414
 8318TIP3    H124918   1.307   6.180   5.460 -1.4335  0.8069  1.2792
 8318TIP3    H224919   1.166   6.126   5.445 -1.1253  0.5408 -1.1770
 8319TIP3   OH224920   5.581   2.380   4.404  0.3284  0.6540  0.1751
 8319TIP3    H124921   5.614   2.302   4.361  0.7458  0.5649  0.6456
 8319TIP3    H224922   5.487   2.364   4.416  0.3099  0.4654 -0.2333
 8320TIP3   OH224923   5.208   0.989   2.797  0.1277 -0.2355  0.1632
 8320TIP3    H124924   5.143   1.014   2.731  0.8866  1.2496 -0.0713
 8320TIP3    H224925   5.281   0.953   2.746  0.4641  0.3402  0.2334
 8321TIP3   OH224926   2.305   3.326   2.898 -0.4509  0.1826 -0.1857
 8321TIP3    H124927   2.366   3.361   2.833 -1.3653  2.8418  0.2965
 8321TIP3    H224928   2.351   3.335   2.981 -0.7355  0.2635 -0.0403
 8322TIP3   OH224929   6.472   3.949   2.524  0.3529 -0.4818 -0.1173
 8322TIP3    H124930   6.388   3.928   2.484  0.1927 -1.7961  0.8474
 8322TIP3    H224931   6.455   4.031   2.572 -0.8492 -1.5271  1.3501
 8323TIP3   OH224932   2.970   3.616   5.815  0.7205 -0.1601 -0.1494
 8323TIP3    H124933   3.037   3.548   5.816  0.5606 -0.3459 -1.0328
 8323TIP3    H224934   2.947   3.629   5.907  2.1641  0.1210  0.1999
 8324TIP3   OH224935   5.658   3.999   1.565  0.4005 -0.0858  0.5274
 8324TIP3    H124936   5.714   4.058   1.515  0.4549 -1.3241 -0.9603
 8324TIP3    H224937   5.654   4.037   1.652  1.3652  1.4672 -0.0710
 8325TIP3   OH224938   5.684   4.252   0.389  0.0714 -0.5192  0.1712
 8325TIP3    H124939   5.601   4.273   0.348 -0.4287 -0.7401  1.0446
 8325TIP3    H224940   5.680   4.158   0.407  0.5192 -0.5378  0.1961
 8326TIP3   OH224941   0.704   4.145   1.222  0.5269 -0.0036  0.4343
 8326TIP3    H124942   0.719   4.188   1.137  2.1917 -1.1861  0.0912
 8326TIP3    H224943   0.791   4.140   1.262 -0.1313 -0.1536  1.8899
 8327TIP3   OH224944   1.835   0.220   4.971 -0.7158 -0.1456 -0.0532
 8327TIP3    H124945   1.838   0.254   5.061 -0.4234  1.9293 -0.7886
 8327TIP3    H224946   1.753   0.255   4.935  0.0201  0.5456 -1.1118
 8328TIP3   OH224947   7.184   0.126   3.619 -0.2100 -0.4331 -0.1329
 8328TIP3    H124948   7.188   0.216   3.653 -0.8245 -1.6800  3.6364
 8328TIP3    H224949   7.100   0.121   3.575 -1.4843  0.1617  2.0735
 8329TIP3   OH224950   5.742   5.504   5.776  0.4335  0.0702  0.0937
 8329TIP3    H124951   5.752   5.597   5.794  1.4990 -0.2215  1.1986
 8329TIP3    H224952   5.767   5.461   5.859 -0.7902 -1.1673 -0.1425
 8330TIP3   OH224953   0.371   3.932   2.412  0.1105 -0.4038 -0.0055
 8330TIP3    H124954   0.315   3.963   2.483 -0.6687  0.5969 -1.0068
 8330TIP3    H224955   0.369   4.003   2.348 -0.0893 -1.6971 -1.5007
 8331TIP3   OH224956   3.124   3.823   2.617 -0.2062  0.0601 -0.7632
 8331TIP3    H124957   3.129   3.919   2.622 -0.7199  0.4056 -4.1486
 8331TIP3    H224958   3.190   3.793   2.679  1.2005  2.6940 -0.8036
 8332TIP3   OH224959   1.068   4.127   1.145  0.4548 -0.8660  0.6390
 8332TIP3    H124960   1.125   4.185   1.195 -0.8157  1.5553 -0.5425
 8332TIP3    H224961   1.022   4.076   1.212 -1.1266  2.1833  2.0684
 8333TIP3   OH224962   6.185   5.583   3.994 -0.5941 -0.0543 -0.2929
 8333TIP3    H124963   6.237   5.637   3.934 -0.9649  1.0704  0.3650
 8333TIP3    H224964   6.132   5.528   3.936 -1.0723  1.1262 -1.0250
 8334TIP3   OH224965   2.078   4.622   0.964  0.1611 -0.0793  0.0826
 8334TIP3    H124966   2.152   4.564   0.981  1.4591  1.0812 -1.2942
 8334TIP3    H224967   2.030   4.579   0.893  0.4028 -0.0967 -0.0733
 8335TIP3   OH224968   4.460   3.351   5.599 -0.6561 -0.2276  0.1082
 8335TIP3    H124969   4.390   3.413   5.617 -0.3497  0.5450 -1.1723
 8335TIP3    H224970   4.541   3.400   5.618 -0.4385 -0.8782  0.9122
 8336TIP3   OH224971   5.831   4.946   5.384 -0.2361  0.4676 -0.6112
 8336TIP3    H124972   5.754   4.960   5.329 -0.5935 -0.6180 -0.4163
 8336TIP3    H224973   5.899   4.918   5.322  0.1285  1.8089 -0.8354
 8337TIP3   OH224974   5.217   4.871   0.411 -0.3912 -0.3589 -0.1887
 8337TIP3    H124975   5.209   4.845   0.503  2.2852 -0.0878  0.1789
 8337TIP3    H224976   5.160   4.947   0.404  0.5796  0.6215  1.7022
 8338TIP3   OH224977   0.171   5.303   1.189 -0.0296  0.5784 -0.0243
 8338TIP3    H124978   0.178   5.342   1.276 -2.1872 -0.3006  0.6159
 8338TIP3    H224979   0.105   5.355   1.144 -0.4376 -0.2258 -0.3815
 8339TIP3   OH224980   7.176   0.096   1.260  0.2389 -0.7510  0.3689
 8339TIP3    H124981   7.157   0.173   1.313  3.2509 -0.1653  0.8091
 8339TIP3    H224982   7.161   0.125   1.170 -1.2404 -0.5324  0.6711
 8340TIP3   OH224983   1.605   3.888   3.720 -0.3167 -0.0893  0.0496
 8340TIP3    H124984   1.607   3.983   3.713  0.8639 -0.1720 -1.2536
 8340TIP3    H224985   1.547   3.870   3.794  0.8870  1.6765  1.4832
 8341TIP3   OH224986   7.201   4.580   5.644  0.3097 -0.2714 -0.0348
 8341TIP3    H124987   7.191   4.601   5.737  2.4261 -3.9084  1.2252
 8341TIP3    H224988   7.118   4.606   5.605 -0.5088  1.8016  2.7341
 8342TIP3   OH224989   7.144   2.300   2.209  0.6030 -0.1541 -0.3792
 8342TIP3    H124990   7.207   2.245   2.254  0.3019 -0.0633  0.1616
 8342TIP3    H224991   7.183   2.388   2.211 -0.3284  0.2658  1.5541
 8343TIP3   OH224992   1.187   0.273   5.772  0.2036  0.3439  0.3218
 8343TIP3    H124993   1.094   0.281   5.752 -0.0412  0.7150  1.5648
 8343TIP3    H224994   1.192   0.203   5.836  0.9437 -0.6107 -0.7572
 8344TIP3   OH224995   0.016   5.415   4.460  0.7515 -0.3234 -0.5874
 8344TIP3    H124996   0.085   5.408   4.395 -0.0245 -0.7723 -1.3931
 8344TIP3    H224997  -0.061   5.442   4.410 -0.5342 -3.2174 -0.3896
 8345TIP3   OH224998   6.949   2.501   0.134  0.8890 -0.2847  0.1509
 8345TIP3    H124999   6.889   2.444   0.085 -0.5561  0.9233  0.4248
 8345TIP3    H225000   7.032   2.453   0.137  0.3807 -1.3391 -1.5834
 8346TIP3   OH225001   6.731   5.044   3.432  0.4655  0.1562  0.2376
 8346TIP3    H125002   6.745   5.051   3.337  0.4114 -1.2973  0.1093
 8346TIP3    H225003   6.714   4.952   3.447 -1.6503  0.6912  1.4057
 8347TIP3   OH225004   1.505   5.574   2.952 -0.4557 -0.0409 -0.3857
 8347TIP3    H125005   1.436   5.639   2.935 -0.3785  0.4435  1.0109
 8347TIP3    H225006   1.585   5.617   2.924 -0.6535 -0.3908 -1.5034
 8348TIP3   OH225007   3.135   5.400   3.363 -0.3144 -0.0261 -0.0669
 8348TIP3    H125008   3.088   5.353   3.432  0.8659  0.4550  1.0987
 8348TIP3    H225009   3.174   5.475   3.407  0.5678  0.2314 -1.2380
 8349TIP3   OH225010   3.217   6.374   1.625  0.8441  0.0896 -0.1517
 8349TIP3    H125011   3.211   6.467   1.601  1.0163  0.3498  0.7786
 8349TIP3    H225012   3.145   6.333   1.578  0.1209  0.8796  0.2271
 8350TIP3   OH225013   1.535   1.202   2.568  0.4105 -0.0955 -0.5676
 8350TIP3    H125014   1.456   1.255   2.568  0.1467 -0.4259  0.9986
 8350TIP3    H225015   1.504   1.112   2.563  0.3064 -0.5154  3.7278
 8351TIP3   OH225016   0.733   1.204   2.607  0.2059 -0.4514 -0.3521
 8351TIP3    H125017   0.688   1.180   2.527  0.0142  1.1870 -0.7643
 8351TIP3    H225018   0.725   1.127   2.663 -0.8250 -1.1316 -1.3959
 8352TIP3   OH225019   2.405   4.171   1.484 -0.5628  0.2067 -0.2785
 8352TIP3    H125020   2.321   4.130   1.504 -0.9388  0.3222 -1.5409
 8352TIP3    H225021   2.448   4.109   1.424 -0.2783  0.7038 -0.5941
 8353TIP3   OH225022   4.234   0.629   3.915 -0.0206 -0.0011 -0.0180
 8353TIP3    H125023   4.270   0.635   3.826 -1.2283  1.0845 -0.4804
 8353TIP3    H225024   4.198   0.717   3.931 -2.5717 -1.0264  0.3136
 8354TIP3   OH225025   7.064   3.796   0.422  0.0061  0.1918  0.1870
 8354TIP3    H125026   7.018   3.853   0.360 -1.5242  0.1212  1.2192
 8354TIP3    H225027   7.145   3.842   0.441 -0.0933  0.8394 -0.8521
 8355TIP3   OH225028   1.846   4.961   5.790 -0.3806 -0.5699 -0.1188
 8355TIP3    H125029   1.788   4.914   5.730  0.5199 -2.0320  0.1209
 8355TIP3    H225030   1.850   4.905   5.868  1.0615 -0.3162  0.0033
 8356TIP3   OH225031   3.485   3.688   5.287 -0.0500  0.2213 -0.1916
 8356TIP3    H125032   3.398   3.659   5.261  0.2123  1.3684 -2.5942
 8356TIP3    H225033   3.540   3.672   5.211  1.5979  0.6147  0.8540
 8357TIP3   OH225034   3.466   3.131   2.128 -0.2710  0.3765  0.6230
 8357TIP3    H125035   3.374   3.130   2.154 -0.5069 -0.0568 -0.1844
 8357TIP3    H225036   3.482   3.043   2.094 -0.1881  1.0832 -1.2964
 8358TIP3   OH225037   5.067   0.403   3.801 -0.7209 -0.2422  0.5818
 8358TIP3    H125038   5.078   0.449   3.885  0.8797  1.0164 -0.2515
 8358TIP3    H225039   5.157   0.389   3.770 -1.2907  0.2417 -1.3888
 8359TIP3   OH225040   5.942   5.314   0.553 -0.0124  0.2586  0.0743
 8359TIP3    H125041   5.921   5.365   0.475  0.5938  0.3783 -0.0221
 8359TIP3    H225042   6.028   5.347   0.580 -1.0611  1.6449  1.9916
 8360TIP3   OH225043   6.622   2.848   5.438 -0.2442 -0.3215  0.0564
 8360TIP3    H125044   6.570   2.828   5.515 -0.6981  0.0572 -0.1390
 8360TIP3    H225045   6.617   2.770   5.383 -0.7734 -0.2180 -0.0457
 8361TIP3   OH225046   2.430   5.023   4.611  0.0048 -0.1066  0.1763
 8361TIP3    H125047   2.473   5.106   4.633 -0.0673 -0.0261  0.0240
 8361TIP3    H225048   2.490   4.982   4.548  0.7430 -0.8365  1.3125
 8362TIP3   OH225049   2.788   0.390   0.427 -0.6640 -0.3471 -0.1078
 8362TIP3    H125050   2.854   0.355   0.367 -1.2023  0.2229 -1.0580
 8362TIP3    H225051   2.822   0.476   0.452 -0.3380 -0.6731  0.5844
 8363TIP3   OH225052   3.531   6.086   4.533 -0.3069  0.4098 -0.1210
 8363TIP3    H125053   3.458   6.024   4.533  0.2895 -0.3064  0.4267
 8363TIP3    H225054   3.493   6.167   4.567 -0.4690 -0.4539  1.8979
 8364TIP3   OH225055   3.817   2.810   1.955 -0.0487 -0.2320  0.0691
 8364TIP3    H125056   3.912   2.800   1.952  0.0289  0.6404 -2.1988
 8364TIP3    H225057   3.782   2.730   1.915 -0.2162 -0.0368 -0.1796
 8365TIP3   OH225058   3.435   6.466   0.385  0.0855 -0.4579  0.4271
 8365TIP3    H125059   3.499   6.402   0.352  0.0871 -0.2867  0.0997
 8365TIP3    H225060   3.485   6.546   0.399 -0.1126 -0.2413 -0.0968
 8366TIP3   OH225061   5.049   1.882   0.765 -0.3196  0.4883 -0.1103
 8366TIP3    H125062   4.983   1.951   0.774 -1.2684 -0.1578 -1.6963
 8366TIP3    H225063   5.127   1.927   0.731 -0.0214  1.2009  1.4599
 8367TIP3   OH225064   5.960   1.229   3.908 -0.2477 -0.1566  0.0755
 8367TIP3    H125065   5.945   1.155   3.967 -1.0914 -2.4602 -2.8267
 8367TIP3    H225066   6.055   1.236   3.902 -0.1597 -0.7055  0.6924
 8368TIP3   OH225067   6.347   3.321   1.626  0.4610 -0.3717  0.7047
 8368TIP3    H125068   6.433   3.303   1.588 -1.1113 -1.8967 -2.5329
 8368TIP3    H225069   6.336   3.253   1.692  1.2834 -0.9300  0.2951
 8369TIP3   OH225070   0.485   1.248   1.544  0.1722 -0.0980 -0.5838
 8369TIP3    H125071   0.409   1.306   1.544  1.2492  1.4234  0.6778
 8369TIP3    H225072   0.550   1.294   1.491  0.3916 -1.1227 -1.2103
 8370TIP3   OH225073   6.421   2.132   3.064  0.0099 -0.3644  0.0087
 8370TIP3    H125074   6.411   2.119   2.970  1.0021  1.5629 -0.4292
 8370TIP3    H225075   6.491   2.072   3.089 -0.8502 -1.5205 -0.2847
 8371TIP3   OH225076   4.542   2.622   0.393 -0.2864  0.1328 -0.3620
 8371TIP3    H125077   4.600   2.692   0.421 -1.6948  0.9390  0.6285
 8371TIP3    H225078   4.503   2.654   0.311  0.4165 -0.2855 -0.8721
 8372TIP3   OH225079   2.594   5.069   2.289 -0.1510 -0.4832  0.4478
 8372TIP3    H125080   2.514   5.058   2.341  0.6618 -1.0717  1.6221
 8372TIP3    H225081   2.633   4.982   2.287  0.9817 -0.0006  0.7680
 8373TIP3   OH225082   5.003   4.307   0.350 -0.4911  0.0050 -0.3249
 8373TIP3    H125083   5.062   4.274   0.417  1.7647 -0.9685 -2.6146
 8373TIP3    H225084   5.008   4.402   0.359 -0.4414 -0.1067  1.0151
 8374TIP3   OH225085   2.985   3.094   5.619  0.2012  0.6497  0.0116
 8374TIP3    H125086   2.984   3.041   5.698  1.0258  0.3266 -0.1784
 8374TIP3    H225087   2.898   3.082   5.581  0.6863 -1.4622 -0.5913
 8375TIP3   OH225088   4.605   1.013   0.393  0.3331 -0.2949 -0.7092
 8375TIP3    H125089   4.607   1.007   0.298 -0.1215 -0.3325 -0.7164
 8375TIP3    H225090   4.518   0.981   0.418  1.1693 -2.3155 -0.1463
 8376TIP3   OH225091   4.196   5.589   3.828  0.3303 -0.7683  0.2033
 8376TIP3    H125092   4.155   5.537   3.898  2.2030 -3.1554 -0.3460
 8376TIP3    H225093   4.161   5.552   3.747 -1.6654  1.8451 -0.2924
 8377TIP3   OH225094   2.390   2.463   3.057  0.2781  0.1812 -0.2507
 8377TIP3    H125095   2.366   2.501   3.142  1.5752  1.1561 -0.2969
 8377TIP3    H225096   2.485   2.459   3.058  0.2537 -1.6286 -0.9122
 8378TIP3   OH225097   6.608   1.861   3.546 -0.6968  0.1189 -0.5946
 8378TIP3    H125098   6.674   1.852   3.477  0.3088  1.2049  0.1788
 8378TIP3    H225099   6.604   1.773   3.585 -0.6466 -0.2834 -1.4668
 8379TIP3   OH225100   6.645   3.404   5.193  0.3623 -0.2484 -0.2451
 8379TIP3    H125101   6.729   3.437   5.225  0.7093 -2.3951  1.2617
 8379TIP3    H225102   6.624   3.331   5.250 -2.3576 -0.0770 -0.8636
 8380TIP3   OH225103   2.264   6.723   3.377 -0.3624 -0.1367  0.4658
 8380TIP3    H125104   2.350   6.754   3.350 -0.9553  1.6090  0.4396
 8380TIP3    H225105   2.229   6.678   3.300 -0.1215  0.5818 -0.0751
 8381TIP3   OH225106   5.160   0.851   0.122 -0.4741  0.0274 -0.2752
 8381TIP3    H125107   5.217   0.884   0.052  1.6152  0.0444  1.3519
 8381TIP3    H225108   5.128   0.767   0.089  1.8459 -0.7892 -0.6073
 8382TIP3   OH225109   6.996   4.590   0.610  0.3163 -0.3406  0.1790
 8382TIP3    H125110   7.013   4.537   0.687  3.1780 -0.8791 -0.7001
 8382TIP3    H225111   7.054   4.666   0.620  0.5042 -0.2641 -1.2409
 8383TIP3   OH225112   0.803   0.428   0.528 -0.4370 -0.2200 -0.1969
 8383TIP3    H125113   0.793   0.491   0.457  2.0511  0.8002  0.2815
 8383TIP3    H225114   0.897   0.424   0.545 -0.8659 -0.9305  2.5869
 8384TIP3   OH225115   4.128   2.775   3.719  0.1065  0.6592 -0.3279
 8384TIP3    H125116   4.059   2.796   3.781 -0.0645  1.1176 -0.6708
 8384TIP3    H225117   4.101   2.691   3.680  0.9267 -0.3926  1.2386
 8385TIP3   OH225118   0.194   2.940   2.376  0.5237 -0.0681 -0.0700
 8385TIP3    H125119   0.139   2.950   2.454  0.5333  1.0275 -0.1916
 8385TIP3    H225120   0.243   2.860   2.392  0.3393  0.0084  0.9449
 8386TIP3   OH225121   6.126   0.537   1.778  0.6031  0.3632  0.2701
 8386TIP3    H125122   6.103   0.521   1.869  0.5931  0.4173  0.2770
 8386TIP3    H225123   6.053   0.502   1.728  1.4055 -1.2974  0.1990
 8387TIP3   OH225124   4.345   3.299   4.771  0.0885 -0.1871 -0.5307
 8387TIP3    H125125   4.288   3.365   4.809  0.3280 -0.5035  0.3888
 8387TIP3    H225126   4.433   3.335   4.778  0.1963 -0.5018 -0.2308
 8388TIP3   OH225127   1.574   2.156   0.083  0.4702 -0.0121 -0.1599
 8388TIP3    H125128   1.581   2.145   0.178 -0.8295 -0.2854 -0.0847
 8388TIP3    H225129   1.566   2.066   0.050 -1.2028  0.1664 -0.3238
 8389TIP3   OH225130   6.253   6.273   1.202  0.1980 -0.1799  0.0758
 8389TIP3    H125131   6.315   6.209   1.165  0.6352 -0.2007  0.8045
 8389TIP3    H225132   6.267   6.266   1.297  0.7860  1.5291  0.1465
 8390TIP3   OH225133   5.959   2.487   2.816  0.0296  0.2457 -0.2911
 8390TIP3    H125134   6.027   2.466   2.753 -1.0917 -0.4165 -1.3275
 8390TIP3    H225135   5.877   2.468   2.770 -0.8205 -2.1867  1.9737
 8391TIP3   OH225136   5.770   5.287   4.770  0.0316 -0.5615  0.3542
 8391TIP3    H125137   5.701   5.235   4.730  1.2552 -0.6864 -1.7484
 8391TIP3    H225138   5.848   5.232   4.762  0.6913  0.2188  1.2413
 8392TIP3   OH225139   4.052   0.710   0.081  0.0519  0.0124 -0.4527
 8392TIP3    H125140   4.077   0.638   0.140 -0.0081 -0.5859 -1.1405
 8392TIP3    H225141   3.962   0.690   0.055 -0.8242  1.5990  1.1778
 8393TIP3   OH225142   6.594   6.104   3.984 -0.1737 -0.3367  0.2655
 8393TIP3    H125143   6.626   6.195   3.982 -1.0992 -0.0106 -1.0319
 8393TIP3    H225144   6.618   6.069   3.898 -1.8101 -0.6023 -0.1069
 8394TIP3   OH225145   1.020   0.553   1.496 -0.3635 -0.0933 -0.0620
 8394TIP3    H125146   1.042   0.568   1.588  0.2770  0.5710 -0.3114
 8394TIP3    H225147   1.096   0.507   1.461 -0.5934 -0.3161 -0.2702
 8395TIP3   OH225148   7.153   1.276   4.525  0.3227  0.5235  0.1491
 8395TIP3    H125149   7.232   1.329   4.538  1.0387 -0.8001  1.5263
 8395TIP3    H225150   7.089   1.312   4.586  0.5679  0.2641  0.5610
 8396TIP3   OH225151   4.556   0.289   4.124 -0.4929 -0.3383  0.2972
 8396TIP3    H125152   4.615   0.257   4.056  0.1394 -0.9959  1.1232
 8396TIP3    H225153   4.558   0.384   4.115  0.6007 -0.3552  0.2154
 8397TIP3   OH225154   3.957   3.302   0.341  0.5726 -0.2126 -0.0288
 8397TIP3    H125155   3.949   3.390   0.304 -1.4611 -0.0212  0.7562
 8397TIP3    H225156   3.951   3.243   0.266  0.8682  0.2678 -0.4381
 8398TIP3   OH225157   5.348   0.765   4.429 -0.2458 -0.2026 -0.0009
 8398TIP3    H125158   5.346   0.720   4.344 -1.8720 -2.3192  1.0653
 8398TIP3    H225159   5.436   0.747   4.463  0.5329  0.9157 -1.2925
 8399TIP3   OH225160   5.269   2.325   3.348 -0.2379 -0.4345  0.1312
 8399TIP3    H125161   5.324   2.393   3.308 -0.8401 -1.0193 -1.8343
 8399TIP3    H225162   5.193   2.371   3.382 -1.2138 -0.1537 -2.2238
 8400TIP3   OH225163   0.050   3.831   3.397 -0.2401 -0.6860 -1.0104
 8400TIP3    H125164   0.031   3.746   3.438 -0.5883 -0.3187 -0.3862
 8400TIP3    H225165  -0.033   3.856   3.355 -0.6640  0.1270  0.2621
 8401TIP3   OH225166   5.003   5.152   2.001 -0.2967  1.1242 -0.2738
 8401TIP3    H125167   4.969   5.208   2.071  0.9687  0.4876  0.8900
 8401TIP3    H225168   4.925   5.110   1.963 -1.1307  2.6750 -0.3216
 8402TIP3   OH225169   5.000   6.315   0.595  0.2162 -0.8334  0.3961
 8402TIP3    H125170   5.069   6.344   0.655 -0.3461 -0.6698  0.9791
 8402TIP3    H225171   4.926   6.374   0.612 -1.0144 -2.6417  1.7355
 8403TIP3   OH225172   2.441   0.284   4.185 -0.4308  0.3810  0.1675
 8403TIP3    H125173   2.493   0.275   4.265 -0.8896 -1.2923  0.3187
 8403TIP3    H225174   2.505   0.291   4.115  0.0354 -1.1154  0.4048
 8404TIP3   OH225175   1.171   4.717   0.346  0.1786  0.5576 -0.2021
 8404TIP3    H125176   1.166   4.663   0.424 -0.8230  0.3860 -0.3707
 8404TIP3    H225177   1.085   4.760   0.340  0.4255  0.9866 -0.9040
 8405TIP3   OH225178   5.802   0.167   4.937  0.0206 -0.0395  0.0932
 8405TIP3    H125179   5.846   0.239   4.892 -0.8611  0.6668  0.3129
 8405TIP3    H225180   5.760   0.208   5.013 -0.3773 -0.8121  0.3055
 8406TIP3   OH225181   0.403   5.475   4.739  0.6549 -0.0503 -0.2907
 8406TIP3    H125182   0.456   5.518   4.672  1.6786  1.7920  1.5735
 8406TIP3    H225183   0.383   5.545   4.802 -1.4953 -1.3651  0.6099
 8407TIP3   OH225184   0.348   2.488   4.940 -0.2355 -0.0045 -0.2231
 8407TIP3    H125185   0.296   2.567   4.932 -1.7281 -0.7850  1.1544
 8407TIP3    H225186   0.293   2.419   4.901 -0.6401 -0.9711  1.9002
 8408TIP3   OH225187   5.603   4.227   1.190 -0.2030  0.3045  0.4003
 8408TIP3    H125188   5.537   4.161   1.212  0.8374 -0.7942  0.2985
 8408TIP3    H225189   5.584   4.300   1.249 -1.0384 -0.2865  0.8859
 8409TIP3   OH225190   4.421   1.791   2.199 -0.2049 -0.2054 -0.1258
 8409TIP3    H125191   4.444   1.742   2.120  0.8795  0.5739 -0.3280
 8409TIP3    H225192   4.506   1.815   2.237 -0.7168 -0.4627  1.2158
 8410TIP3   OH225193   1.435   1.045   5.290  0.2482 -0.0173 -0.2096
 8410TIP3    H125194   1.386   0.968   5.319  1.9021 -0.7978  0.6321
 8410TIP3    H225195   1.450   1.029   5.197  0.2806 -0.5471 -0.1204
 8411TIP3   OH225196   4.221   2.533   0.364  0.0053  0.1774  0.1674
 8411TIP3    H125197   4.205   2.497   0.451 -1.0734 -0.8087 -0.4079
 8411TIP3    H225198   4.134   2.540   0.325  0.5877 -1.0005 -1.4336
 8412TIP3   OH225199   6.653   5.652   1.901 -0.1226 -0.8096 -0.0035
 8412TIP3    H125200   6.746   5.664   1.886 -0.1460 -0.1736  0.3523
 8412TIP3    H225201   6.626   5.729   1.952 -0.5582 -1.6469  1.0825
 8413TIP3   OH225202   6.618   3.058   3.786 -0.3982  0.6701 -0.1097
 8413TIP3    H125203   6.638   3.079   3.877 -0.1451  1.1447 -0.2755
 8413TIP3    H225204   6.551   2.990   3.792 -0.3873  0.7026  0.4312
 8414TIP3   OH225205   0.135   0.872   5.240 -0.2674 -0.5466  0.0186
 8414TIP3    H125206   0.077   0.935   5.195 -2.2632 -2.1226  0.2144
 8414TIP3    H225207   0.082   0.841   5.314  0.8187 -2.1408  0.1519
 8415TIP3   OH225208   6.081   3.627   5.232 -0.4507 -0.0486  0.1256
 8415TIP3    H125209   6.077   3.555   5.295 -1.4137  0.0977  0.2470
 8415TIP3    H225210   6.142   3.597   5.165  1.1300  0.0734  1.4664
 8416TIP3   OH225211   4.279   5.026   5.856 -0.4443  0.2691 -0.7919
 8416TIP3    H125212   4.362   5.031   5.809  0.0322 -1.3335 -0.2139
 8416TIP3    H225213   4.247   5.116   5.858  2.9142  1.6379  1.8729
 8417TIP3   OH225214   7.101   1.203   4.061 -0.0287 -0.2307  0.2210
 8417TIP3    H125215   7.052   1.148   4.121  0.7205 -0.2099  0.8686
 8417TIP3    H225216   7.173   1.238   4.114  1.2493 -1.0397 -0.9453
 8418TIP3   OH225217   7.069   2.263   2.522  0.4692 -1.0151  0.0441
 8418TIP3    H125218   7.148   2.316   2.516  0.9241 -1.4399  1.7100
 8418TIP3    H225219   7.063   2.238   2.614 -0.9313 -2.0338 -0.2742
 8419TIP3   OH225220   6.577   2.950   3.083 -0.3452 -0.1286 -0.0223
 8419TIP3    H125221   6.603   3.040   3.066 -1.0994  0.4525  1.7009
 8419TIP3    H225222   6.505   2.957   3.147 -1.8114 -1.8393 -1.3565
 8420TIP3   OH225223   5.021   2.189   2.180  0.0831 -0.1350  0.0037
 8420TIP3    H125224   4.962   2.126   2.222 -0.6941 -0.2028 -1.1504
 8420TIP3    H225225   4.987   2.274   2.207  1.6261 -0.1217  2.2507
 8421TIP3   OH225226   1.961   5.949   5.636 -0.4571 -0.1636  0.6422
 8421TIP3    H125227   1.981   6.043   5.647  0.5902 -0.5250  2.2333
 8421TIP3    H225228   2.045   5.909   5.615 -0.5502 -0.9779  1.7410
 8422TIP3   OH225229   2.024   0.749   3.622  0.0217 -0.4156  0.0076
 8422TIP3    H125230   2.066   0.729   3.706 -0.1988 -0.6074  0.0724
 8422TIP3    H225231   1.935   0.777   3.646  0.0072 -0.3267 -0.1512
 8423TIP3   OH225232   1.377   4.565   4.134 -0.0913 -0.2733  0.5352
 8423TIP3    H125233   1.463   4.557   4.095  0.3280  1.8437  0.8858
 8423TIP3    H225234   1.363   4.659   4.143 -1.3200 -0.5968  2.9105
 8424TIP3   OH225235   0.093   0.827   4.531  0.2172  0.2263 -0.0006
 8424TIP3    H125236   0.023   0.772   4.496  1.6628 -1.3579 -0.5779
 8424TIP3    H225237   0.155   0.765   4.569  0.7394  1.6552  1.6072
 8425TIP3   OH225238   4.864   1.255   5.512  0.0988 -0.4285 -1.2056
 8425TIP3    H125239   4.824   1.174   5.543  0.0093 -0.1791 -0.6592
 8425TIP3    H225240   4.926   1.279   5.581  2.9189 -1.9970 -2.9850
 8426TIP3   OH225241   6.170   1.671   0.817 -0.5632 -0.0432  0.3798
 8426TIP3    H125242   6.239   1.659   0.752 -2.7744 -0.7872 -2.0133
 8426TIP3    H225243   6.164   1.587   0.863  2.0372  0.9396  2.8459
 8427TIP3   OH225244   2.451   1.523   3.753 -0.0847  0.0584  0.4176
 8427TIP3    H125245   2.413   1.455   3.698  0.1497  0.7408 -0.6042
 8427TIP3    H225246   2.423   1.605   3.713 -0.0002  0.5726  1.3839
 8428TIP3   OH225247   6.712   5.138   0.937 -0.3365 -0.2508  0.0302
 8428TIP3    H125248   6.668   5.078   0.877 -0.2848 -0.8598  0.5837
 8428TIP3    H225249   6.781   5.178   0.885 -0.5060 -0.5164 -0.4029
 8429TIP3   OH225250   3.015   4.551   3.804 -0.4030  0.2311 -1.2383
 8429TIP3    H125251   2.982   4.463   3.819 -1.6376  1.0095  1.1823
 8429TIP3    H225252   3.003   4.566   3.711 -3.0223 -1.0869 -1.1944
 8430TIP3   OH225253   5.735   0.666   1.179 -0.8231 -0.1819 -0.2796
 8430TIP3    H125254   5.731   0.592   1.118  4.6877 -0.2824 -1.0263
 8430TIP3    H225255   5.775   0.631   1.258 -1.2120  1.3836  0.6672
 8431TIP3   OH225256   1.511   6.725   2.398  0.4306 -0.1180  0.2558
 8431TIP3    H125257   1.473   6.638   2.414  0.3930 -0.2632 -0.5994
 8431TIP3    H225258   1.585   6.730   2.460  1.0537 -1.1688 -0.3726
 8432TIP3   OH225259   1.999   2.216   2.288  0.4784 -0.3701  0.0970
 8432TIP3    H125260   1.947   2.157   2.343  1.6625 -2.4686 -0.9232
 8432TIP3    H225261   1.956   2.214   2.203  1.4832 -1.1938 -0.4216
 8433TIP3   OH225262   0.621   5.622   0.994 -0.4050  0.1405  0.2944
 8433TIP3    H125263   0.666   5.677   1.058  1.2409 -0.9209  0.1162
 8433TIP3    H225264   0.539   5.596   1.036  0.8434 -0.9160  2.2057
 8434TIP3   OH225265   4.762   2.306   5.703 -0.2239  0.0516 -0.7653
 8434TIP3    H125266   4.787   2.396   5.681  0.8118 -0.5078 -1.9928
 8434TIP3    H225267   4.828   2.278   5.767 -2.0332  0.9682  1.6944
 8435TIP3   OH225268   5.276   0.008   5.170  0.0467  0.7370 -0.0711
 8435TIP3    H125269   5.276   0.099   5.198 -0.6990  1.1626 -1.3633
 8435TIP3    H225270   5.315   0.010   5.082 -0.9103 -0.0330 -0.5257
 8436TIP3   OH225271   6.557   0.928   4.488 -0.6382 -0.3137  0.0439
 8436TIP3    H125272   6.532   0.838   4.469 -0.4365 -0.5967  1.0386
 8436TIP3    H225273   6.480   0.980   4.465 -0.7434 -0.7323 -0.5589
 8437TIP3   OH225274   6.140   1.484   1.692  0.3665  0.1922 -0.8505
 8437TIP3    H125275   6.067   1.427   1.714  0.6708  0.3110  0.6076
 8437TIP3    H225276   6.217   1.438   1.725  0.8434  0.4935 -1.5331
 8438TIP3   OH225277   2.993   4.453   4.871  0.0798  0.4265  0.0465
 8438TIP3    H125278   2.898   4.450   4.864  0.1430 -3.8201 -2.7216
 8438TIP3    H225279   3.013   4.394   4.944  0.6118  0.5730  0.0203
 8439TIP3   OH225280   6.816   5.477   4.664 -0.4528  0.1007  1.0765
 8439TIP3    H125281   6.725   5.473   4.691 -0.9258  1.0614 -0.2641
 8439TIP3    H225282   6.813   5.495   4.570  1.1161 -1.1742  0.7217
 8440TIP3   OH225283   0.436   0.897   2.204  0.4588 -0.3274 -0.4142
 8440TIP3    H125284   0.454   0.903   2.298  1.0025 -1.6206 -0.4189
 8440TIP3    H225285   0.407   0.807   2.190  1.2458 -0.4275 -1.6198
 8441TIP3   OH225286   1.291   6.779   3.186 -0.3423 -0.5507 -0.5618
 8441TIP3    H125287   1.381   6.795   3.157 -0.4847 -1.0557 -1.3227
 8441TIP3    H225288   1.299   6.711   3.252 -0.1289 -0.3192 -0.3492
 8442TIP3   OH225289   3.654   2.245   3.771  0.0776 -0.2444  0.6489
 8442TIP3    H125290   3.624   2.155   3.758  1.9144 -0.7364 -0.5287
 8442TIP3    H225291   3.709   2.240   3.850  0.2688 -0.1863  0.5198
 8443TIP3   OH225292   6.884   2.707   5.311 -0.5849  0.5438  0.4097
 8443TIP3    H125293   6.802   2.704   5.263 -0.7996  0.4118  0.7825
 8443TIP3    H225294   6.950   2.680   5.247 -0.7056  1.4825 -0.1444
 8444TIP3   OH225295   3.630   2.339   4.070  0.1822  0.1307 -0.2484
 8444TIP3    H125296   3.725   2.338   4.080  0.1886  0.6032 -0.2223
 8444TIP3    H225297   3.604   2.247   4.072  0.7277 -0.0446 -1.1727
 8445TIP3   OH225298   4.406   0.206   0.498 -0.4919  0.2178 -0.6032
 8445TIP3    H125299   4.415   0.139   0.430  1.2622 -0.4475  0.2207
 8445TIP3    H225300   4.366   0.281   0.454 -1.2108 -0.8696 -1.8765
 8446TIP3   OH225301   4.958   2.872   3.232 -0.1745  0.8114 -0.2448
 8446TIP3    H125302   4.915   2.840   3.312 -1.1226  1.6721 -0.3958
 8446TIP3    H225303   4.889   2.920   3.185 -0.6839 -2.5605 -3.3415
 8447TIP3   OH225304   6.858   3.438   1.792 -0.2161  0.2340 -0.6373
 8447TIP3    H125305   6.763   3.439   1.795 -0.2078 -0.6498  0.6337
 8447TIP3    H225306   6.881   3.345   1.792  0.6402  0.3688 -2.8110
 8448TIP3   OH225307   0.970   2.594   0.911  0.0583 -0.1391  0.2236
 8448TIP3    H125308   0.967   2.676   0.862  1.3114 -0.6670 -0.7799
 8448TIP3    H225309   1.047   2.602   0.968  0.4847 -0.8076 -0.2478
 8449TIP3   OH225310   1.536   5.481   3.206  0.1155 -0.4853  0.8352
 8449TIP3    H125311   1.531   5.386   3.198  1.1185 -0.4722 -0.1268
 8449TIP3    H225312   1.505   5.514   3.122  2.9338 -0.0905 -0.1493
 8450TIP3   OH225313   0.078   2.120   3.858 -0.6037  0.1104  0.0240
 8450TIP3    H125314   0.111   2.147   3.773 -1.9721 -0.2628 -0.6394
 8450TIP3    H225315   0.132   2.168   3.921  0.8471 -0.0959 -1.0220
 8451TIP3   OH225316   2.318   5.684   0.741 -0.1127  0.1113  0.3357
 8451TIP3    H125317   2.343   5.705   0.651 -0.5002 -0.9128 -0.0203
 8451TIP3    H225318   2.255   5.613   0.732 -1.6906  1.3270  1.3024
 8452TIP3   OH225319   3.710   2.426   5.823 -0.1316 -0.5219 -0.4081
 8452TIP3    H125320   3.653   2.417   5.747 -2.1419  0.0243  0.9621
 8452TIP3    H225321   3.651   2.422   5.899  1.6493  0.0112  1.0977
 8453TIP3   OH225322   2.906   6.799   2.123 -0.3834  0.3212 -0.0046
 8453TIP3    H125323   2.917   6.746   2.202  0.6920  0.0263 -0.3340
 8453TIP3    H225324   2.852   6.746   2.065  1.8974 -1.1469 -0.9287
 8454TIP3   OH225325   3.437   4.997   5.061  0.0072  0.2784 -0.3251
 8454TIP3    H125326   3.478   4.916   5.090  0.5980  0.5937 -0.2759
 8454TIP3    H225327   3.441   4.993   4.966 -0.2046  0.1296 -0.3287
 8455TIP3   OH225328   6.086   5.652   1.181 -0.3207  0.0670  0.1634
 8455TIP3    H125329   6.153   5.720   1.187 -0.9042  0.5885  0.8491
 8455TIP3    H225330   6.024   5.686   1.116 -0.2716 -0.1208  0.0159
 8456TIP3   OH225331   3.364   0.533   1.236 -0.1044 -0.2703  0.3032
 8456TIP3    H125332   3.392   0.445   1.211 -1.1700 -1.2963  2.4948
 8456TIP3    H225333   3.328   0.523   1.324 -0.6257  2.3023  0.4578
 8457TIP3   OH225334   1.734   6.641   1.626 -0.3979 -0.4299 -0.1063
 8457TIP3    H125335   1.734   6.620   1.719  0.1259  0.3903  0.0803
 8457TIP3    H225336   1.752   6.557   1.583 -0.0419 -0.7011  0.5516
 8458TIP3   OH225337   5.310   5.555   5.588  0.3192  0.1288 -0.0710
 8458TIP3    H125338   5.372   5.556   5.660  0.8956 -2.4499 -0.4203
 8458TIP3    H225339   5.224   5.554   5.630  0.5448  1.4126  0.4668
 8459TIP3   OH225340   3.708   4.049   0.499 -0.0080  0.0655  0.2231
 8459TIP3    H125341   3.618   4.078   0.482  0.3362  0.9155 -0.1773
 8459TIP3    H225342   3.736   4.010   0.416 -0.7675 -2.3088  0.9972
 8460TIP3   OH225343   5.517   2.651   2.913  0.1876 -0.2778 -0.2716
 8460TIP3    H125344   5.527   2.579   2.850 -1.6878 -0.0906 -0.8397
 8460TIP3    H225345   5.438   2.696   2.885  0.9264  1.5870  0.5235
 8461TIP3   OH225346   3.466   3.714   5.680 -0.4588 -0.3254 -0.1036
 8461TIP3    H125347   3.541   3.679   5.631  1.2685  1.5769  1.0373
 8461TIP3    H225348   3.426   3.776   5.619 -0.8499 -1.0109 -0.5568
 8462TIP3   OH225349   6.518   2.342   5.674 -0.1789  0.2312 -0.0981
 8462TIP3    H125350   6.567   2.261   5.660  3.3901  1.9995  0.9289
 8462TIP3    H225351   6.538   2.396   5.598  0.7811  1.5319  1.0216
 8463TIP3   OH225352   1.100   1.256   1.617  0.2511  0.6755 -0.0106
 8463TIP3    H125353   1.007   1.263   1.599  0.1175 -0.6498  0.1110
 8463TIP3    H225354   1.130   1.184   1.562  1.1097  0.7781  0.3121
 8464TIP3   OH225355   4.039   1.920   2.007 -0.1195  0.1098  0.3883
 8464TIP3    H125356   3.951   1.945   2.036 -0.2832  0.0837 -0.0652
 8464TIP3    H225357   4.060   1.984   1.938  0.6258  0.7275  1.1670
 8465TIP3   OH225358   6.095   0.538   2.056  0.3374 -0.1494  0.2536
 8465TIP3    H125359   6.030   0.601   2.085  1.7918  1.0392  1.0397
 8465TIP3    H225360   6.139   0.510   2.136  0.9709 -0.7357 -0.2866
 8466TIP3   OH225361   2.552   4.873   3.119  0.1086 -0.3385 -0.1245
 8466TIP3    H125362   2.524   4.796   3.069 -1.0127 -0.4320  0.6246
 8466TIP3    H225363   2.478   4.933   3.115  0.6772  0.3798 -0.0280
 8467TIP3   OH225364   7.096   1.286   2.292  0.3005 -0.0899  0.1865
 8467TIP3    H125365   7.176   1.257   2.249 -0.5280 -0.2729 -1.3068
 8467TIP3    H225366   7.092   1.236   2.374  1.9372  0.2813  0.5182
 8468TIP3   OH225367   2.000   6.492   2.412  0.2279 -0.0487 -0.4380
 8468TIP3    H125368   2.096   6.490   2.410  0.2819 -2.6849  0.6792
 8468TIP3    H225369   1.979   6.542   2.491  0.6958 -0.3462 -0.1204
 8469TIP3   OH225370   6.024   5.693   3.000  0.2774 -0.0505 -0.3071
 8469TIP3    H125371   6.043   5.767   2.943 -0.8064  0.1041 -0.4816
 8469TIP3    H225372   6.104   5.681   3.051  1.8615 -1.1138 -2.8220
 8470TIP3   OH225373   5.671   0.253   4.245  0.0056 -0.1913  0.2057
 8470TIP3    H125374   5.714   0.286   4.166  0.4187  1.7706  1.1952
 8470TIP3    H225375   5.579   0.277   4.234  0.0641  0.0874  0.3195
 8471TIP3   OH225376   4.230   3.444   1.030 -0.2101  0.0134  0.4231
 8471TIP3    H125377   4.206   3.505   1.100  0.5581 -0.1964  0.8798
 8471TIP3    H225378   4.225   3.496   0.950  0.3424  0.6560  0.7956
 8472TIP3   OH225379   5.195   0.874   0.879  0.0261  0.6124  0.4223
 8472TIP3    H125380   5.144   0.863   0.799  0.4302  0.2753  0.2030
 8472TIP3    H225381   5.257   0.945   0.859 -0.5464  1.2235  0.7884
 8473TIP3   OH225382   1.803   2.006   1.702 -0.1573 -0.5103  0.2094
 8473TIP3    H125383   1.726   2.056   1.729 -0.3077 -0.1974 -0.7558
 8473TIP3    H225384   1.802   1.929   1.758 -0.5774 -0.0010  0.9277
 8474TIP3   OH225385   5.787   6.247   5.401 -0.0139 -0.8836 -0.5675
 8474TIP3    H125386   5.798   6.227   5.308  0.7064 -0.3730 -0.5995
 8474TIP3    H225387   5.834   6.177   5.446  1.1868 -0.1576 -0.6440
 8475TIP3   OH225388   1.864   3.479   2.417 -0.2528  0.0413  0.4059
 8475TIP3    H125389   1.867   3.534   2.495  0.3941 -0.3378  0.6512
 8475TIP3    H225390   1.913   3.527   2.351  1.5080 -0.8341  1.0163
 8476TIP3   OH225391   4.961   2.106   0.481  0.2820  0.1368 -0.2795
 8476TIP3    H125392   5.055   2.118   0.465  0.4131  1.2796  1.0722
 8476TIP3    H225393   4.957   2.033   0.543  0.1512 -0.8861 -1.4664
 8477TIP3   OH225394   4.188   0.936   0.236  0.0870 -0.3565 -0.4862
 8477TIP3    H125395   4.175   0.891   0.153 -0.6900  0.1318 -0.6373
 8477TIP3    H225396   4.110   0.916   0.287  0.6311 -0.7908  0.2019
 8478TIP3   OH225397   4.902   1.666   0.563 -0.1956 -0.0304  0.3247
 8478TIP3    H125398   4.822   1.707   0.594 -1.5762 -0.0177 -2.8774
 8478TIP3    H225399   4.965   1.738   0.557 -0.8560  0.5455  0.1354
 8479TIP3   OH225400   4.392   4.278   2.285 -0.4001  0.5474 -0.3379
 8479TIP3    H125401   4.478   4.273   2.243 -0.6460  1.4591 -0.9979
 8479TIP3    H225402   4.365   4.187   2.295  1.1395  0.1883  0.9703
 8480TIP3   OH225403   5.957   5.163   1.181 -0.1979 -0.6567 -0.0142
 8480TIP3    H125404   5.987   5.237   1.234  0.7369 -1.5299  0.7280
 8480TIP3    H225405   5.938   5.201   1.096  0.2876  0.4409  0.3419
 8481TIP3   OH225406   5.377   0.048   5.841 -0.1178 -0.0923 -0.0552
 8481TIP3    H125407   5.302   0.017   5.891  1.3506  0.3797  2.5927
 8481TIP3    H225408   5.387   0.140   5.866  1.5668 -0.2506 -0.0106
 8482TIP3   OH225409   3.915   4.365   3.942 -0.4328  0.3869 -0.1703
 8482TIP3    H125410   3.883   4.282   3.976 -1.9944  1.5222  1.3000
 8482TIP3    H225411   3.846   4.394   3.882 -0.6640  1.3580  0.5534
 8483TIP3   OH225412   4.220   6.785   5.115  0.2479  0.1399 -0.3562
 8483TIP3    H125413   4.174   6.784   5.031  0.7946  0.0290 -0.6627
 8483TIP3    H225414   4.220   6.693   5.143  0.6777  0.0671 -0.5832
 8484TIP3   OH225415   0.779   1.022   2.813 -0.2606  0.5180 -0.1356
 8484TIP3    H125416   0.860   0.996   2.770  0.2401  3.1612 -0.9975
 8484TIP3    H225417   0.806   1.053   2.900 -0.6226 -0.2748  0.2734
 8485TIP3   OH225418   0.606   0.254   3.438 -0.4547 -0.8893 -0.2400
 8485TIP3    H125419   0.565   0.204   3.509  2.4442  1.4792  3.5061
 8485TIP3    H225420   0.674   0.196   3.404 -1.1730 -1.6748 -0.3739
 8486TIP3   OH225421   1.831   2.186   5.091 -0.0331 -0.1795  0.6600
 8486TIP3    H125422   1.748   2.217   5.055 -0.4665 -0.7706  1.1370
 8486TIP3    H225423   1.871   2.136   5.019  0.7935  1.6347 -0.2089
 8487TIP3   OH225424   0.909   0.092   1.030  0.5329  0.2774 -0.0666
 8487TIP3    H125425   0.953   0.175   1.050  0.8674  0.2595 -0.6926
 8487TIP3    H225426   0.980   0.034   1.000  0.1548  0.1138 -0.6744
 8488TIP3   OH225427   4.208   4.185   3.688 -0.2511  0.2649  0.4079
 8488TIP3    H125428   4.298   4.190   3.655 -0.2534  0.8560  0.4819
 8488TIP3    H225429   4.163   4.258   3.645 -0.4564  0.5448  1.0986
 8489TIP3   OH225430   1.745   3.093   5.141 -0.1681  0.2275  0.3221
 8489TIP3    H125431   1.657   3.130   5.136  0.1748  0.9566 -0.6231
 8489TIP3    H225432   1.747   3.048   5.225 -1.3451  0.4531  0.4898
 8490TIP3   OH225433   5.145   0.522   5.852  0.1471 -0.0542  0.4514
 8490TIP3    H125434   5.163   0.471   5.772 -2.1844 -0.9749  0.4423
 8490TIP3    H225435   5.140   0.612   5.822  1.3529 -0.1302 -0.0546
 8491TIP3   OH225436   2.732   5.586   0.721 -0.2799 -0.9100 -0.0230
 8491TIP3    H125437   2.698   5.671   0.748 -0.7245 -1.2880  0.6200
 8491TIP3    H225438   2.692   5.523   0.781  1.4623 -1.3890  0.7010
 8492TIP3   OH225439   2.288   3.828   3.891 -0.3626  0.1216 -0.3784
 8492TIP3    H125440   2.201   3.859   3.915 -0.4203 -1.0134  1.0442
 8492TIP3    H225441   2.275   3.778   3.810 -0.6054  1.9019 -1.4934
 8493TIP3   OH225442   2.654   2.323   1.265 -0.0040 -0.4919 -0.2523
 8493TIP3    H125443   2.564   2.340   1.293  0.2360 -0.1503  0.3180
 8493TIP3    H225444   2.708   2.338   1.343  0.5245 -0.9651 -0.5132
 8494TIP3   OH225445   1.350   3.451   1.974  0.1121 -0.5168 -0.5562
 8494TIP3    H125446   1.305   3.456   2.058  0.2400 -0.8996 -0.4616
 8494TIP3    H225447   1.334   3.536   1.932  0.5514 -0.0956  0.1153
 8495TIP3   OH225448   6.072   6.700   2.760  0.2782  0.7944 -0.1892
 8495TIP3    H125449   6.164   6.705   2.787  0.3000 -1.0965  0.1845
 8495TIP3    H225450   6.023   6.730   2.836  0.5465  0.8259 -0.0264
 8496TIP3   OH225451   0.843   5.548   5.060  0.0064 -0.4258  0.3372
 8496TIP3    H125452   0.932   5.575   5.037 -0.0376 -0.7560 -0.2333
 8496TIP3    H225453   0.801   5.629   5.090 -0.3657  0.3838 -2.0883
 8497TIP3   OH225454   1.083   2.012   5.097  0.0443  0.6047  0.4762
 8497TIP3    H125455   1.138   1.937   5.120 -0.4446  0.5644  1.5828
 8497TIP3    H225456   1.119   2.084   5.149  1.9226  1.7697 -2.1805
 8498TIP3   OH225457   6.306   4.789   1.842 -0.0629 -0.1414  0.2602
 8498TIP3    H125458   6.282   4.729   1.912  0.3819  0.2783  0.7894
 8498TIP3    H225459   6.296   4.738   1.762  0.1677 -0.8786  0.6867
 8499TIP3   OH225460   4.301   1.310   2.980  0.0475 -0.0079 -0.0880
 8499TIP3    H125461   4.389   1.340   2.955  1.1780 -1.1955  2.1665
 8499TIP3    H225462   4.300   1.218   2.956 -1.0398  0.2633 -1.1457
 8500TIP3   OH225463   0.139   3.509   0.823 -0.4078 -0.1214  0.1699
 8500TIP3    H125464   0.144   3.586   0.767 -0.8265 -0.8946 -0.9778
 8500TIP3    H225465   0.124   3.436   0.762  2.9003 -1.5844  0.8868
 8501TIP3   OH225466   2.266   0.625   5.089 -0.1141 -0.2951 -0.4858
 8501TIP3    H125467   2.299   0.563   5.154 -1.2588 -1.1585 -0.6953
 8501TIP3    H225468   2.298   0.710   5.119  0.2900 -0.8127  0.6021
 8502TIP3   OH225469   2.234   4.318   2.107  0.4308  0.2079 -0.3206
 8502TIP3    H125470   2.266   4.235   2.071 -0.9883 -0.3686 -0.3014
 8502TIP3    H225471   2.306   4.350   2.162  0.3763 -1.8240  0.9994
 8503TIP3   OH225472   1.076   1.243   3.747  0.0795 -0.4933 -0.6172
 8503TIP3    H125473   1.064   1.282   3.833 -0.3596 -0.3650 -0.7333
 8503TIP3    H225474   1.048   1.310   3.685  1.9831  0.0484 -0.9496
 8504TIP3   OH225475   3.969   4.970   5.139 -0.5649  0.4773 -0.1485
 8504TIP3    H125476   4.018   4.926   5.208  1.5291 -0.3274 -2.0388
 8504TIP3    H225477   3.909   4.903   5.105  0.4401 -0.0408 -0.9662
 8505TIP3   OH225478   5.137   4.005   2.486  0.3736  0.2564  0.1474
 8505TIP3    H125479   5.163   4.010   2.579 -2.4395 -0.0690  1.0445
 8505TIP3    H225480   5.089   3.922   2.480  1.0021 -0.0083 -1.7852
 8506TIP3   OH225481   4.858   6.037   2.329 -0.2105  0.0828 -0.7314
 8506TIP3    H125482   4.916   5.961   2.318 -0.7966 -0.3794 -0.6502
 8506TIP3    H225483   4.779   6.001   2.369 -0.0668  0.9158  0.3484
 8507TIP3   OH225484   4.414   0.760   2.749  0.3323  0.2855  0.1636
 8507TIP3    H125485   4.432   0.713   2.830 -0.6182  1.6689  1.2264
 8507TIP3    H225486   4.376   0.693   2.691  0.2011 -0.5425  1.1708
 8508TIP3   OH225487   1.065   6.595   5.019 -0.1702 -0.0866  0.6594
 8508TIP3    H125488   0.988   6.540   5.030 -1.4575  1.6512  0.7902
 8508TIP3    H225489   1.078   6.601   4.924 -0.7092  0.2712  0.6056
 8509TIP3   OH225490   5.971   1.022   4.098 -0.0123 -0.1681  0.3067
 8509TIP3    H125491   5.918   1.044   4.174 -0.8132 -0.1304 -0.2433
 8509TIP3    H225492   5.971   0.927   4.095  1.2943 -0.2121  1.2127
 8510TIP3   OH225493   1.263   4.632   0.090 -0.6374 -0.5288 -0.0221
 8510TIP3    H125494   1.355   4.660   0.091 -0.7289 -0.0902 -1.4137
 8510TIP3    H225495   1.225   4.673   0.168  0.3776 -0.8512  0.6596
 8511TIP3   OH225496   5.615   0.349   2.837  0.8522  0.6018  0.2399
 8511TIP3    H125497   5.651   0.430   2.803  0.8238  1.9913  3.2007
 8511TIP3    H225498   5.647   0.344   2.927 -0.5983 -1.7810  0.7232
 8512TIP3   OH225499   6.902   0.416   5.170  0.2342 -0.7980  0.0267
 8512TIP3    H125500   6.830   0.394   5.229  0.1376  0.4287  0.4128
 8512TIP3    H225501   6.869   0.490   5.119  0.4979 -1.5295 -1.2393
 8513TIP3   OH225502   4.220   4.948   1.421  0.1234 -0.1088 -0.3922
 8513TIP3    H125503   4.276   4.968   1.346 -2.1613 -1.8934 -2.7603
 8513TIP3    H225504   4.267   4.879   1.469  2.8227  2.7743  1.5320
 8514TIP3   OH225505   3.130   3.883   2.992  0.4233  0.0683 -0.0011
 8514TIP3    H125506   3.126   3.967   3.038 -1.4429  0.0565 -0.0968
 8514TIP3    H225507   3.126   3.818   3.062  0.9396  0.0414  0.0100
 8515TIP3   OH225508   4.743   0.641   4.885 -0.6862 -0.4430 -0.0374
 8515TIP3    H125509   4.820   0.678   4.929 -0.6499 -0.8439  0.2370
 8515TIP3    H225510   4.669   0.691   4.919 -0.4911  0.4049 -0.8049
 8516TIP3   OH225511   1.212   1.973   0.441  0.2700 -0.1291 -0.2006
 8516TIP3    H125512   1.292   1.945   0.487  1.5177  0.5247 -1.8810
 8516TIP3    H225513   1.199   1.906   0.374  0.0489  0.3586 -0.6477
 8517TIP3   OH225514   2.907   3.427   2.754 -0.0699  0.5290 -0.2939
 8517TIP3    H125515   2.920   3.333   2.738 -0.1196  0.5027 -0.1797
 8517TIP3    H225516   2.981   3.469   2.709  0.9412  0.3213  1.1207
 8518TIP3   OH225517   0.116   4.341   1.014  0.2334  0.3706  0.2542
 8518TIP3    H125518   0.194   4.333   1.069 -0.0256 -0.7732  0.4915
 8518TIP3    H225519   0.142   4.401   0.944  1.4197 -0.1989  0.1756
 8519TIP3   OH225520   4.104   5.427   0.772 -0.0502  0.4947 -0.4702
 8519TIP3    H125521   4.045   5.429   0.848 -0.6239  0.0156 -0.8941
 8519TIP3    H225522   4.091   5.512   0.730  0.3009  0.7794 -0.0166
 8520TIP3   OH225523   4.604   1.998   4.014  0.6482 -0.3229 -0.1336
 8520TIP3    H125524   4.588   2.056   4.089 -0.6372 -1.8919  0.8501
 8520TIP3    H225525   4.666   1.934   4.047  1.0610 -0.2888 -0.8260
 8521TIP3   OH225526   2.175   4.293   4.846  0.1387 -0.2779  0.0203
 8521TIP3    H125527   2.211   4.304   4.934  2.1921 -2.6158 -0.4275
 8521TIP3    H225528   2.164   4.198   4.837  0.1241 -0.0973 -2.3017
 8522TIP3   OH225529   1.516   1.462   3.647  0.3388 -0.6261  0.4708
 8522TIP3    H125530   1.529   1.530   3.581  2.6677 -1.3449  0.0968
 8522TIP3    H225531   1.498   1.510   3.728  1.7759  0.4562  0.1785
 8523TIP3   OH225532   2.022   3.603   3.716  0.3577  0.2329 -0.0706
 8523TIP3    H125533   2.106   3.634   3.684  0.2921 -0.8199 -1.3253
 8523TIP3    H225534   2.040   3.571   3.804  1.2665 -0.0047 -0.3370
 8524TIP3   OH225535   5.665   2.524   1.569  0.0850  0.5477 -0.0245
 8524TIP3    H125536   5.656   2.574   1.488  0.7076  0.1048 -0.3714
 8524TIP3    H225537   5.735   2.462   1.552 -0.5643 -0.3411  0.4651
 8525TIP3   OH225538   7.054   6.082   4.370  0.4148  0.2486 -0.0502
 8525TIP3    H125539   7.061   6.172   4.339 -1.9901  0.3773 -0.4147
 8525TIP3    H225540   7.144   6.051   4.374  1.1332  1.5648 -3.2014
 8526TIP3   OH225541   3.419   2.282   0.691  0.4889 -0.0649 -0.0836
 8526TIP3    H125542   3.385   2.368   0.665  1.1952  0.0659 -0.5836
 8526TIP3    H225543   3.343   2.238   0.730  0.5355  1.4561  1.9068
 8527TIP3   OH225544   6.235   2.766   2.005 -0.0068 -0.2153 -0.2984
 8527TIP3    H125545   6.258   2.780   2.097  2.4211  3.0257 -1.1968
 8527TIP3    H225546   6.140   2.776   2.002  0.0597  1.7322  1.6227
 8528TIP3   OH225547   0.652   6.190   0.877  0.2482 -0.3317 -0.1890
 8528TIP3    H125548   0.608   6.273   0.860 -0.3926 -0.4119  0.9220
 8528TIP3    H225549   0.601   6.150   0.948  0.2088 -1.9289 -1.0644
 8529TIP3   OH225550   1.920   5.251   1.465  0.2615 -0.0816  0.3376
 8529TIP3    H125551   1.954   5.178   1.516  1.5267  1.6407  2.1083
 8529TIP3    H225552   1.853   5.291   1.520 -0.2869  0.2337 -0.5262
 8530TIP3   OH225553   7.205   0.231   4.506 -0.0297  0.0203  0.0887
 8530TIP3    H125554   7.171   0.309   4.550  0.0004 -0.4365  0.9422
 8530TIP3    H225555   7.173   0.239   4.416 -0.9442  0.4710  0.4350
 8531TIP3   OH225556   2.733   5.086   5.433 -0.4554 -0.7301  0.3468
 8531TIP3    H125557   2.819   5.062   5.468  0.2918  0.1998 -0.7669
 8531TIP3    H225558   2.705   5.160   5.486  0.6363  0.6245 -0.8987
 8532TIP3   OH225559   0.480   1.637   1.141  0.0636  0.1708 -0.2261
 8532TIP3    H125560   0.543   1.633   1.069  0.4554 -1.0573  0.1660
 8532TIP3    H225561   0.431   1.555   1.135 -0.7636  0.6209  0.1525
 8533TIP3   OH225562   2.714   1.896   2.153 -0.1081  0.1967 -0.1350
 8533TIP3    H125563   2.780   1.955   2.190  1.1025 -0.2296 -1.5041
 8533TIP3    H225564   2.689   1.840   2.227 -1.1518  2.2259  1.1427
 8534TIP3   OH225565   2.559   4.005   0.278 -0.0215  0.0109  0.1238
 8534TIP3    H125566   2.644   4.023   0.318 -0.8884  2.1553  1.2001
 8534TIP3    H225567   2.500   3.994   0.353 -0.7041 -1.6051 -0.6030
 8535TIP3   OH225568   1.532   2.726   2.496 -0.2685 -0.0641  0.1571
 8535TIP3    H125569   1.553   2.641   2.535  0.2249 -0.1352 -0.2601
 8535TIP3    H225570   1.615   2.758   2.463 -0.8595 -0.5354 -1.9156
 8536TIP3   OH225571   5.638   3.160   1.649 -0.0584  0.2554  0.1914
 8536TIP3    H125572   5.599   3.179   1.563  1.7083  1.4271 -0.3958
 8536TIP3    H225573   5.674   3.072   1.639  0.2240  0.4214 -0.3147
 8537TIP3   OH225574   3.687   4.214   2.476  0.1795 -0.0531 -0.6067
 8537TIP3    H125575   3.717   4.187   2.389 -1.9520  0.8406 -1.6884
 8537TIP3    H225576   3.644   4.136   2.511 -0.3545  0.0412 -1.0389
 8538TIP3   OH225577   0.756   4.159   2.572  0.6449 -0.5473 -0.3966
 8538TIP3    H125578   0.696   4.088   2.596  0.0738 -0.3248 -1.1043
 8538TIP3    H225579   0.699   4.229   2.542  1.2421 -0.0864 -0.4785
 8539TIP3   OH225580   2.223   1.901   3.315  0.0921  0.3070 -0.0900
 8539TIP3    H125581   2.172   1.958   3.372  0.3504  1.3827 -0.9040
 8539TIP3    H225582   2.261   1.960   3.249  3.7736 -0.1297  1.3841
 8540TIP3   OH225583   1.212   0.870   5.245 -0.1511 -0.5439  0.1638
 8540TIP3    H125584   1.131   0.857   5.294 -1.4548 -1.6414 -2.1076
 8540TIP3    H225585   1.205   0.810   5.171  0.6527  2.4626 -2.5754
 8541TIP3   OH225586   0.937   2.974   3.969  0.3095 -0.1476 -0.5174
 8541TIP3    H125587   0.999   3.003   3.903 -1.2842  0.8836 -1.6445
 8541TIP3    H225588   0.934   3.045   4.033 -0.6291  0.4221 -1.1616
 8542TIP3   OH225589   2.559   4.120   0.603 -0.3875 -0.1323  0.1711
 8542TIP3    H125590   2.510   4.126   0.685 -2.1370  0.7720 -0.8581
 8542TIP3    H225591   2.540   4.203   0.558  0.6747 -0.5208 -1.0495
 8543TIP3   OH225592   1.091   0.804   2.352  0.1192 -0.2202 -0.2222
 8543TIP3    H125593   1.151   0.780   2.422  0.3635 -0.1189 -0.3932
 8543TIP3    H225594   1.019   0.849   2.396  1.0893  1.3824 -0.1898
 8544TIP3   OH225595   2.655   5.807   5.549 -0.2209  0.3474 -0.1839
 8544TIP3    H125596   2.690   5.718   5.549 -1.0112 -0.0175  1.8522
 8544TIP3    H225597   2.626   5.821   5.459 -1.3013 -1.9799 -0.2871
 8545TIP3   OH225598   5.882   3.585   2.223 -0.2250  0.1506  0.5001
 8545TIP3    H125599   5.834   3.503   2.232  1.6907 -1.1039 -0.1285
 8545TIP3    H225600   5.868   3.611   2.132  0.9575 -0.7028  0.0490
 8546TIP3   OH225601   1.913   4.286   0.924 -0.3890  0.3295  0.2910
 8546TIP3    H125602   1.942   4.362   0.874 -1.1185  0.1233 -0.4741
 8546TIP3    H225603   1.925   4.311   1.016 -3.1176  2.4501  0.1881
 8547TIP3   OH225604   2.836   5.050   3.340  0.0732 -0.7413  0.0403
 8547TIP3    H125605   2.771   5.103   3.386  1.3136  2.8428 -1.9604
 8547TIP3    H225606   2.914   5.056   3.395 -0.1196 -1.5966  0.4203
 8548TIP3   OH225607   3.088   6.176   5.822  0.2528 -0.1916  0.0813
 8548TIP3    H125608   3.100   6.211   5.911 -0.2508 -2.5847  1.1799
 8548TIP3    H225609   2.993   6.182   5.807  0.3911  0.6619 -0.5371
 8549TIP3   OH225610   0.481   0.056   2.121  0.0618 -0.1644 -0.5515
 8549TIP3    H125611   0.426   0.079   2.046 -0.7159  0.9607  0.3199
 8549TIP3    H225612   0.423   0.062   2.196  1.0874 -0.1806  0.2686
 8550TIP3   OH225613   5.663   0.091   3.187 -0.3210 -0.2833  1.2578
 8550TIP3    H125614   5.740   0.067   3.239 -0.1454 -0.1096  1.0771
 8550TIP3    H225615   5.679   0.181   3.160 -0.3992 -0.3827  0.8745
 8551TIP3   OH225616   5.395   0.502   5.640  0.3246  0.1026  0.3975
 8551TIP3    H125617   5.339   0.427   5.619  1.0294 -0.0302 -1.1598
 8551TIP3    H225618   5.474   0.464   5.677 -0.4571  0.2763  2.3461
 8552TIP3   OH225619   0.165   4.480   5.266 -0.1645 -0.1178  0.5684
 8552TIP3    H125620   0.090   4.423   5.283  0.4722 -0.7536  1.3793
 8552TIP3    H225621   0.143   4.563   5.308 -0.5575 -0.1874  0.5011
 8553TIP3   OH225622   2.272   0.686   1.604 -0.0281  0.0793 -0.0556
 8553TIP3    H125623   2.346   0.629   1.582  0.9516  0.8301  1.2246
 8553TIP3    H225624   2.200   0.652   1.550  1.1252 -0.9073 -1.0426
 8554TIP3   OH225625   5.975   0.956   3.530 -0.9145 -0.3116  0.4574
 8554TIP3    H125626   6.017   1.034   3.567 -2.5521  0.2733  1.1910
 8554TIP3    H225627   5.933   0.914   3.606 -0.6939 -1.5048 -0.0567
 8555TIP3   OH225628   2.396   2.277   4.489 -0.0320  0.4744 -0.0359
 8555TIP3    H125629   2.426   2.347   4.547 -0.2937  1.1534 -0.7060
 8555TIP3    H225630   2.401   2.314   4.401 -2.0253  0.3301 -0.2525
 8556TIP3   OH225631   0.268   0.126   4.080 -0.3984  0.5599 -0.1326
 8556TIP3    H125632   0.239   0.208   4.039 -1.0982  0.3225 -0.1299
 8556TIP3    H225633   0.226   0.126   4.166  0.2747  0.5887  0.2039
 8557TIP3   OH225634   3.808   3.631   1.462 -0.4951 -0.4109  0.7337
 8557TIP3    H125635   3.832   3.540   1.478 -1.0517 -0.6196  0.4100
 8557TIP3    H225636   3.778   3.662   1.548  0.8221 -0.1611  1.1294
 8558TIP3   OH225637   6.822   5.631   4.188 -0.3354 -0.7669  0.1153
 8558TIP3    H125638   6.797   5.724   4.191 -1.9215 -1.1092 -1.0920
 8558TIP3    H225639   6.752   5.586   4.235 -1.1065 -1.6002 -1.7686
 8559TIP3   OH225640   2.303   5.850   2.567 -0.0449  0.2981  0.2433
 8559TIP3    H125641   2.393   5.822   2.554 -0.4167 -0.9124  0.1052
 8559TIP3    H225642   2.306   5.908   2.642  1.1092  1.7899 -0.8956
 8560TIP3   OH225643   5.292   2.351   4.108 -0.1711 -0.5437 -0.1522
 8560TIP3    H125644   5.224   2.289   4.081 -1.2731  0.9595 -1.0086
 8560TIP3    H225645   5.254   2.437   4.091  1.3714  0.3854  0.8320
 8561TIP3   OH225646   0.595   1.970   3.948  0.1209 -0.1834 -0.0059
 8561TIP3    H125647   0.512   1.971   3.899 -2.2656 -2.4636  3.5320
 8561TIP3    H225648   0.632   1.883   3.930  0.5336 -0.0637  0.2550
 8562TIP3   OH225649   6.522   0.267   5.887 -0.1639 -0.1425  0.6386
 8562TIP3    H125650   6.488   0.333   5.827  3.4254  0.8064 -0.5973
 8562TIP3    H225651   6.536   0.189   5.832 -1.5072 -0.9734  1.4224
 8563TIP3   OH225652   6.246   4.445   3.684  0.0187  0.4890 -0.2906
 8563TIP3    H125653   6.257   4.506   3.612  2.8453  1.2142  0.6156
 8563TIP3    H225654   6.217   4.364   3.643  0.1338  1.2819 -2.0327
 8564TIP3   OH225655   0.949   3.706   2.037 -0.4969  0.3608 -0.4066
 8564TIP3    H125656   0.909   3.638   1.982  0.5344  0.2421 -1.0284
 8564TIP3    H225657   1.039   3.712   2.006  0.3759 -0.2792  1.7888
 8565TIP3   OH225658   0.964   5.965   1.300 -0.2573 -0.2800  0.1506
 8565TIP3    H125659   1.015   6.027   1.351  0.4313 -1.4807  0.9722
 8565TIP3    H225660   0.873   5.981   1.326  0.0279 -0.4819  1.3206
 8566TIP3   OH225661   1.842   5.761   0.258 -0.1689 -0.2432 -0.0283
 8566TIP3    H125662   1.774   5.694   0.258  1.2933 -1.7857 -0.7858
 8566TIP3    H225663   1.850   5.788   0.166  2.6631 -2.7246 -0.6321
 8567TIP3   OH225664   3.474   0.616   0.357 -0.2983 -0.3771  0.1877
 8567TIP3    H125665   3.507   0.699   0.322 -0.2487 -0.1457  0.7752
 8567TIP3    H225666   3.538   0.551   0.329 -0.4467 -0.2572 -0.4542
 8568TIP3   OH225667   1.301   1.082   2.035 -0.0022 -0.1551  0.1000
 8568TIP3    H125668   1.292   1.018   1.964 -2.2224  0.7606 -0.5114
 8568TIP3    H225669   1.343   1.033   2.106 -0.3132 -1.8848 -0.8574
 8569TIP3   OH225670   4.027   2.543   1.314  0.1657  0.3799 -0.1347
 8569TIP3    H125671   4.057   2.452   1.307  1.3796  0.8008 -0.7243
 8569TIP3    H225672   3.954   2.540   1.376  2.1062 -0.5684  2.2762
 8570TIP3   OH225673   0.976   1.228   3.387 -0.1612 -0.0638  0.5582
 8570TIP3    H125674   1.006   1.319   3.389 -0.4253  0.0569 -0.5018
 8570TIP3    H225675   0.941   1.216   3.299  1.1065 -1.5896  0.2145
 8571TIP3   OH225676   0.782   2.268   0.128 -0.1239  0.6325  0.5927
 8571TIP3    H125677   0.816   2.213   0.058  1.2947 -0.0949  1.7837
 8571TIP3    H225678   0.761   2.351   0.086 -0.3025 -0.1190 -0.8555
 8572TIP3   OH225679   5.186   4.761   0.146 -0.0597  0.1835  0.6779
 8572TIP3    H125680   5.171   4.785   0.237 -2.4605  0.2813  0.3230
 8572TIP3    H225681   5.244   4.829   0.112  0.6108  0.3198  2.0287
 8573TIP3   OH225682   2.794   4.059   2.854  0.2914 -0.0877 -0.1265
 8573TIP3    H125683   2.788   3.976   2.807 -0.1362 -0.3199  0.3322
 8573TIP3    H225684   2.887   4.084   2.847  0.0205  0.4889 -2.1006
 8574TIP3   OH225685   5.811   2.055   0.705 -0.1460  0.2325  0.4742
 8574TIP3    H125686   5.845   2.094   0.786  0.7830  0.9563 -0.2264
 8574TIP3    H225687   5.867   1.979   0.690 -0.7527 -0.2877  0.8686
 8575TIP3   OH225688   4.452   0.074   0.270  0.2050  0.2631 -0.1276
 8575TIP3    H125689   4.541   0.046   0.249  0.5722  1.4933 -0.2724
 8575TIP3    H225690   4.410  -0.005   0.305  0.9459 -0.6652 -1.2621
 8576TIP3   OH225691   4.579   5.459   5.438 -0.4856 -0.2104 -0.0457
 8576TIP3    H125692   4.579   5.528   5.371 -0.8752 -0.4079 -0.2513
 8576TIP3    H225693   4.580   5.506   5.521 -1.3750  0.0548 -0.1751
 8577TIP3   OH225694   1.782   5.870   5.840 -0.7447 -0.5391 -0.2102
 8577TIP3    H125695   1.694   5.852   5.809 -1.2160  0.2905  0.6127
 8577TIP3    H225696   1.822   5.921   5.770 -0.8308 -1.0881 -0.6721
 8578TIP3   OH225697   6.282   2.525   3.644 -0.6615 -0.3717  0.1884
 8578TIP3    H125698   6.215   2.592   3.650 -1.1434 -0.9834  2.3330
 8578TIP3    H225699   6.259   2.474   3.567 -2.7524 -0.6390  0.9456
 8579TIP3   OH225700   5.837   2.288   5.073 -0.0837  0.3068 -0.4977
 8579TIP3    H125701   5.840   2.199   5.109  0.2018  0.8334  0.8565
 8579TIP3    H225702   5.918   2.298   5.025  0.9871  0.5624  1.2563
 8580TIP3   OH225703   6.536   5.952   2.368  0.4667  0.5280 -0.1518
 8580TIP3    H125704   6.491   5.912   2.442 -1.0938  1.7824 -0.3655
 8580TIP3    H225705   6.549   6.043   2.394 -0.0148  0.9616 -1.3517
 8581TIP3   OH225706   2.969   0.431   3.674 -0.5872  0.2774  0.0956
 8581TIP3    H125707   2.965   0.461   3.765 -0.0749  1.5670 -0.2886
 8581TIP3    H225708   3.031   0.358   3.676  2.4691  2.6593  0.2270
 8582TIP3   OH225709   6.606   0.954   4.953 -0.4600  0.3680 -0.5859
 8582TIP3    H125710   6.529   0.897   4.951 -0.4943  0.4064 -0.3739
 8582TIP3    H225711   6.644   0.945   4.865  1.2131 -2.2860  0.2829
 8583TIP3   OH225712   6.541   2.716   4.441  0.3120 -0.0350  0.0894
 8583TIP3    H125713   6.602   2.732   4.370  0.5995  0.6299  0.4791
 8583TIP3    H225714   6.589   2.738   4.520  0.2196 -1.4058  0.5573
 8584TIP3   OH225715   5.054   3.991   3.498 -0.5556 -0.1335  0.5808
 8584TIP3    H125716   5.042   3.921   3.433  0.4977  0.7639 -0.6413
 8584TIP3    H225717   5.149   3.996   3.510 -0.7120  0.0445  1.8554
 8585TIP3   OH225718   2.446   3.436   1.164 -0.1637  0.0229 -0.3037
 8585TIP3    H125719   2.463   3.480   1.080 -0.2655  1.0860  0.2240
 8585TIP3    H225720   2.358   3.399   1.154  0.5049 -1.4285 -1.3053
 8586TIP3   OH225721   0.948   1.909   4.260  0.1889  0.8397 -0.1854
 8586TIP3    H125722   0.931   1.823   4.222 -1.1459  0.4061  1.3371
 8586TIP3    H225723   0.872   1.962   4.236 -1.5916  0.0543  3.2335
 8587TIP3   OH225724   3.629   0.753   3.538  0.0707  0.0275  0.4750
 8587TIP3    H125725   3.663   0.691   3.473 -1.0362 -0.3923  0.2761
 8587TIP3    H225726   3.538   0.726   3.551 -1.0400  2.7008 -0.9577
 8588TIP3   OH225727   4.975   5.861   0.432 -0.1743  0.8855  0.1225
 8588TIP3    H125728   4.896   5.845   0.484  0.0537 -0.4336  0.0783
 8588TIP3    H225729   5.025   5.924   0.484 -1.2624  1.8041  0.1249
 8589TIP3   OH225730   1.193   1.935   5.447 -0.0187  0.4732 -0.3875
 8589TIP3    H125731   1.157   1.847   5.437  1.4634 -0.1648 -0.3128
 8589TIP3    H225732   1.286   1.922   5.464  0.4098  2.0963 -1.2623
 8590TIP3   OH225733   7.037   5.071   1.244  0.5392 -0.6493  0.2313
 8590TIP3    H125734   7.032   5.164   1.223 -0.7085 -0.7125  0.1342
 8590TIP3    H225735   7.125   5.045   1.218  1.4719  0.8373  1.7464
 8591TIP3   OH225736   5.945   3.567   0.491  0.5893 -0.2060 -0.5258
 8591TIP3    H125737   6.016   3.589   0.431 -0.7145 -0.0625 -2.0970
 8591TIP3    H225738   5.921   3.477   0.467 -1.0064  0.4033 -1.3978
 8592TIP3   OH225739   6.342   5.655   0.153  0.6583  0.1355  0.7879
 8592TIP3    H125740   6.373   5.628   0.239 -0.6579 -0.7376  1.0173
 8592TIP3    H225741   6.285   5.584   0.124 -1.3574  1.7381  0.5561
 8593TIP3   OH225742   6.733   0.545   3.335  0.0777 -0.0288 -0.0577
 8593TIP3    H125743   6.692   0.515   3.416  0.5379 -1.9793 -0.4974
 8593TIP3    H225744   6.717   0.639   3.334 -0.4113 -0.0312  2.0224
 8594TIP3   OH225745   0.154   2.823   3.908 -0.5993 -0.6102 -0.5206
 8594TIP3    H125746   0.189   2.911   3.919  0.0094 -1.1320  2.5521
 8594TIP3    H225747   0.075   2.822   3.962 -0.3673 -2.0545 -0.1718
 8595TIP3   OH225748   6.410   3.509   0.576 -0.0666  0.3012 -0.4788
 8595TIP3    H125749   6.376   3.486   0.490  1.6245  2.6088 -1.9024
 8595TIP3    H225750   6.332   3.519   0.631 -1.2492 -0.4703 -1.9395
 8596TIP3   OH225751   4.317   3.226   4.406  0.3252  0.3802  0.2022
 8596TIP3    H125752   4.382   3.158   4.421 -0.9805 -1.0811 -0.4983
 8596TIP3    H225753   4.360   3.288   4.347  0.2526 -2.0495 -2.6913
 8597TIP3   OH225754   4.367   5.013   1.200 -0.1921  0.0066  0.3588
 8597TIP3    H125755   4.386   5.092   1.149  0.0040 -0.3999 -0.1957
 8597TIP3    H225756   4.369   4.942   1.137  1.0500 -0.6380  1.0998
 8598TIP3   OH225757   6.215   0.986   0.657 -0.2431  0.3285  0.3390
 8598TIP3    H125758   6.280   1.043   0.617 -0.4331  0.3087 -0.0051
 8598TIP3    H225759   6.245   0.973   0.747  0.8231 -0.5654 -0.1192
 8599TIP3   OH225760   0.829   5.067   2.941  0.2705 -0.7392 -0.7365
 8599TIP3    H125761   0.752   5.040   2.991  0.6076 -0.5673 -0.1113
 8599TIP3    H225762   0.795   5.096   2.856 -0.1944 -2.1960 -1.0741
 8600TIP3   OH225763   2.227   4.036   4.879  0.7878 -0.1555  0.6720
 8600TIP3    H125764   2.258   3.955   4.919  0.1410 -0.3559  0.7665
 8600TIP3    H225765   2.146   4.012   4.834  1.6006 -0.0029 -0.9689
 8601TIP3   OH225766   0.137   4.882   1.110 -0.1053  0.1208 -0.2358
 8601TIP3    H125767   0.185   4.822   1.168 -0.1511  0.4201  0.1103
 8601TIP3    H225768   0.049   4.844   1.105  0.1450 -0.4153 -0.8509
 8602TIP3   OH225769   0.471   5.337   0.228 -0.3520 -0.0496 -0.4811
 8602TIP3    H125770   0.437   5.248   0.233 -0.9736  0.2457  1.0350
 8602TIP3    H225771   0.559   5.327   0.192 -0.4599 -1.2598 -0.4400
 8603TIP3   OH225772   0.786   3.182   2.818  0.9059  0.7937 -0.0029
 8603TIP3    H125773   0.867   3.229   2.839  1.2118  0.0964  0.4009
 8603TIP3    H225774   0.806   3.090   2.837 -0.6081  0.8299  2.1214
 8604TIP3   OH225775   2.948   2.556   3.113  0.3112  0.5190  0.0669
 8604TIP3    H125776   2.904   2.581   3.195 -1.4207 -0.1465 -0.6115
 8604TIP3    H225777   2.938   2.632   3.056 -2.3837 -0.5070 -0.9868
 8605TIP3   OH225778   3.743   1.722   1.118  0.5590 -0.2582  0.4403
 8605TIP3    H125779   3.692   1.802   1.136  0.0285 -0.3810 -0.4637
 8605TIP3    H225780   3.786   1.703   1.201  0.3711  0.7425  0.7900
 8606TIP3   OH225781   5.039   6.600   4.667 -0.8397  0.9714  0.7590
 8606TIP3    H125782   5.034   6.696   4.666  0.0638  1.0268  0.8728
 8606TIP3    H225783   5.129   6.580   4.645 -1.3859  0.0855 -0.8155
 8607TIP3   OH225784   0.911   5.620   1.825 -0.3580  0.3963  0.6039
 8607TIP3    H125785   0.967   5.575   1.888 -0.6699 -1.0158 -0.0885
 8607TIP3    H225786   0.909   5.563   1.748 -3.4018 -0.1077  0.8991
 8608TIP3   OH225787   1.974   2.009   0.445 -0.1007 -0.5216  0.1682
 8608TIP3    H125788   1.949   2.091   0.488 -0.8582 -1.1537  0.9705
 8608TIP3    H225789   2.069   2.018   0.431 -0.3902  1.0695 -1.0931
 8609TIP3   OH225790   6.280   1.892   3.350  0.1896 -0.0896 -0.4734
 8609TIP3    H125791   6.372   1.919   3.361  0.2444 -0.4184 -0.0753
 8609TIP3    H225792   6.235   1.931   3.425  0.3899 -1.6190  0.4828
 8610TIP3   OH225793   1.719   3.090   1.773 -0.5421  0.5039 -0.6205
 8610TIP3    H125794   1.668   3.161   1.812 -1.6479  0.2582 -1.5543
 8610TIP3    H225795   1.654   3.036   1.727  0.5651  0.3156 -2.0636
 8611TIP3   OH225796   6.172   5.964   2.766 -0.2443  0.1204  0.4062
 8611TIP3    H125797   6.099   6.024   2.747 -0.4383 -0.0056  0.7452
 8611TIP3    H225798   6.131   5.878   2.770 -0.1030  0.0674  0.7469
 8612TIP3   OH225799   0.019   6.362   1.657 -0.0671  0.8019 -0.5106
 8612TIP3    H125800   0.111   6.381   1.674 -0.2680  1.1510  0.2151
 8612TIP3    H225801   0.013   6.267   1.662  0.5475  0.6359 -2.1411
 8613TIP3   OH225802   6.522   3.385   1.155  0.5128 -0.1546 -0.0597
 8613TIP3    H125803   6.467   3.464   1.153  1.6654  0.8138  2.1293
 8613TIP3    H225804   6.468   3.317   1.116 -0.6138  1.6554 -1.8530
 8614TIP3   OH225805   4.676   0.782   3.468 -0.2850  0.2354 -0.5695
 8614TIP3    H125806   4.770   0.766   3.455 -0.6476 -1.4874 -1.3232
 8614TIP3    H225807   4.651   0.724   3.539 -0.7044  1.0118 -0.0707
 8615TIP3   OH225808   2.422   1.285   4.232 -0.0591 -0.4743  0.5655
 8615TIP3    H125809   2.458   1.372   4.247 -3.3640  1.0037  1.0235
 8615TIP3    H225810   2.420   1.277   4.136  0.5385 -0.1789  0.5206
 8616TIP3   OH225811   5.260   1.270   0.324  0.3056 -0.6483 -0.1404
 8616TIP3    H125812   5.233   1.306   0.409  1.0598  0.1146 -0.2155
 8616TIP3    H225813   5.254   1.175   0.335  2.1517 -0.6402  1.3807
 8617TIP3   OH225814   6.805   1.343   3.312 -0.1251  0.0535 -0.0299
 8617TIP3    H125815   6.824   1.289   3.235 -0.0057  0.2803 -0.1615
 8617TIP3    H225816   6.720   1.382   3.293  0.1744  0.5760 -0.3134
 8618TIP3   OH225817   1.324   3.640   5.122  0.2638 -0.4959  0.5789
 8618TIP3    H125818   1.253   3.677   5.069 -0.2827  2.4106  3.0589
 8618TIP3    H225819   1.295   3.551   5.142 -0.0751 -1.2579 -2.7861
 8619TIP3   OH225820   4.132   4.114   0.464  0.4954 -0.1362 -0.0462
 8619TIP3    H125821   4.205   4.085   0.519 -0.2352 -0.1665  0.9433
 8619TIP3    H225822   4.116   4.204   0.493 -0.8302 -0.6330  0.8325
 8620TIP3   OH225823   0.970   3.990   2.672 -0.0917 -0.3515  0.4602
 8620TIP3    H125824   0.916   4.017   2.598 -1.4542 -1.6225  0.9431
 8620TIP3    H225825   0.932   4.034   2.748  0.3853 -0.2054  0.6195
 8621TIP3   OH225826   1.261   3.343   5.535  0.1958  0.3647 -0.1235
 8621TIP3    H125827   1.170   3.359   5.561  0.8506  1.6987  1.5458
 8621TIP3    H225828   1.276   3.405   5.463 -0.7384 -1.2376 -1.7870
 8622TIP3   OH225829   2.938   6.508   5.841  1.3344 -0.2323 -0.4925
 8622TIP3    H125830   2.924   6.448   5.915 -1.3533  0.2331 -0.5297
 8622TIP3    H225831   2.936   6.595   5.880 -1.8467  0.1287 -1.1697
 8623TIP3   OH225832   3.510   5.390   5.758  0.5231  0.4122 -0.2543
 8623TIP3    H125833   3.422   5.409   5.792  0.9253  0.9918  0.5039
 8623TIP3    H225834   3.561   5.468   5.781  1.8864 -0.9526  1.6101
 8624TIP3   OH225835   1.696   3.400   0.452  0.0988 -0.6687  0.0671
 8624TIP3    H125836   1.767   3.336   0.452  1.0095  0.3070 -0.6998
 8624TIP3    H225837   1.693   3.432   0.542 -1.1290 -2.5452  0.7680
 8625TIP3   OH225838   0.708   0.902   4.902  0.0521  0.6229 -0.1092
 8625TIP3    H125839   0.668   0.877   4.818  2.9208 -0.0698 -1.3966
 8625TIP3    H225840   0.688   0.996   4.911 -0.8831  0.5531 -1.2333
 8626TIP3   OH225841   0.395   1.578   5.294  0.6588  0.7277 -0.8438
 8626TIP3    H125842   0.490   1.576   5.305  0.5064 -2.7589  1.9455
 8626TIP3    H225843   0.362   1.599   5.382 -1.0244 -2.1395 -0.6724
 8627TIP3   OH225844   6.450   4.964   2.603  0.0794 -0.0813  0.2672
 8627TIP3    H125845   6.496   4.912   2.669  0.3044 -0.4472 -0.1745
 8627TIP3    H225846   6.371   4.994   2.648 -0.0768 -0.8450  0.5189
 8628TIP3   OH225847   0.341   3.534   4.930  0.2534 -0.1342 -0.6801
 8628TIP3    H125848   0.352   3.465   4.865 -2.5838 -0.5113 -0.8891
 8628TIP3    H225849   0.271   3.502   4.987  0.7712  1.3959  0.9140
 8629TIP3   OH225850   1.397   2.169   2.071 -0.0397  0.1859 -0.0714
 8629TIP3    H125851   1.317   2.179   2.019 -0.4414  0.8758  0.6449
 8629TIP3    H225852   1.389   2.236   2.139  0.1455 -1.1158  1.2872
 8630TIP3   OH225853   4.381   4.548   3.538  0.0938  0.1856  0.2350
 8630TIP3    H125854   4.392   4.562   3.444 -2.0167 -0.6066 -0.1888
 8630TIP3    H225855   4.453   4.490   3.563  1.2208  1.1468 -0.6706
 8631TIP3   OH225856   4.066   3.254   1.425  0.5070 -0.1082 -0.2865
 8631TIP3    H125857   4.090   3.161   1.432  0.2761 -0.1556 -0.0624
 8631TIP3    H225858   4.081   3.276   1.334 -0.5400 -0.6889 -0.6264
 8632TIP3   OH225859   5.169   2.713   3.305  0.4483  0.5204  0.5149
 8632TIP3    H125860   5.095   2.749   3.257  0.2379  1.2239  1.3505
 8632TIP3    H225861   5.137   2.700   3.394  1.0179 -0.1804  0.6341
 8633TIP3   OH225862   2.294   1.382   2.705 -0.0775  0.0592 -0.1897
 8633TIP3    H125863   2.293   1.466   2.659  1.5764 -0.3231 -1.0135
 8633TIP3    H225864   2.376   1.382   2.754 -1.3322  0.0280  2.0496
 8634TIP3   OH225865   1.557   0.402   2.101  0.1751 -0.0635  0.1682
 8634TIP3    H125866   1.627   0.362   2.049 -0.9913 -0.5351 -1.1053
 8634TIP3    H225867   1.602   0.468   2.155  1.3586  0.9734 -1.9501
 8635TIP3   OH225868   6.876   2.510   4.486  0.1573 -0.0515  0.0744
 8635TIP3    H125869   6.796   2.468   4.518  0.9444 -1.2507  0.5214
 8635TIP3    H225870   6.944   2.443   4.494  1.2656  1.0124 -0.0904
 8636TIP3   OH225871   0.281   1.046   4.492  0.6960 -0.2622 -0.2173
 8636TIP3    H125872   0.349   0.988   4.456 -0.0705 -1.0111 -0.4849
 8636TIP3    H225873   0.208   0.988   4.511 -0.0958  0.6261 -0.4781
 8637TIP3   OH225874   1.764   1.226   0.110 -0.4077 -0.1447 -0.5255
 8637TIP3    H125875   1.725   1.199   0.193  0.0912 -0.9522 -0.5415
 8637TIP3    H225876   1.776   1.144   0.062 -0.4392  0.2878 -1.2831
 8638TIP3   OH225877   4.871   5.374   0.991 -0.1946  0.1631 -0.5838
 8638TIP3    H125878   4.793   5.411   1.033 -0.4645  0.0742 -0.9926
 8638TIP3    H225879   4.839   5.294   0.949  0.3517 -0.4501  0.1648
 8639TIP3   OH225880   1.563   6.666   1.322 -0.2979  0.0090  0.0512
 8639TIP3    H125881   1.582   6.697   1.233 -1.5960  0.0096 -0.2382
 8639TIP3    H225882   1.611   6.583   1.328 -1.6108 -0.9024 -1.3096
 8640TIP3   OH225883   6.029   6.419   1.173 -0.1588 -0.0188  0.2210
 8640TIP3    H125884   5.986   6.431   1.258  0.3160  0.3085  0.4184
 8640TIP3    H225885   6.116   6.385   1.195  0.8005  2.1364  0.0184
 8641TIP3   OH225886   0.962   1.718   0.452  0.3945  0.3210 -0.1759
 8641TIP3    H125887   0.972   1.631   0.413 -0.8519 -0.1920  0.5789
 8641TIP3    H225888   1.046   1.735   0.495  0.5955 -0.6041 -0.1767
 8642TIP3   OH225889   1.410   3.786   0.912  0.2595  0.2355  0.0763
 8642TIP3    H125890   1.337   3.845   0.929  0.5374  0.5126  0.3130
 8642TIP3    H225891   1.484   3.843   0.890  0.3093 -0.0571 -0.5268
 8643TIP3   OH225892   0.706   3.174   2.258 -0.4618  0.4277  0.2570
 8643TIP3    H125893   0.728   3.228   2.182 -0.6220  1.0307  0.6322
 8643TIP3    H225894   0.624   3.131   2.234  0.5293 -1.0083 -0.7268
 8644TIP3   OH225895   0.208   0.572   4.590 -0.9461 -0.3848 -0.1872
 8644TIP3    H125896   0.191   0.528   4.673 -0.6055 -0.2662 -0.0522
 8644TIP3    H225897   0.303   0.572   4.581 -0.9473  0.2171 -0.2417
 8645TIP3   OH225898   3.374   6.242   4.993 -0.2392 -0.8590 -0.0474
 8645TIP3    H125899   3.375   6.338   4.999  0.6210 -0.8921  0.5466
 8645TIP3    H225900   3.316   6.215   5.064  0.9322 -0.8252  0.9590
 8646TIP3   OH225901   6.413   1.710   5.179  0.1494 -0.1154  0.0886
 8646TIP3    H125902   6.349   1.737   5.113  0.2949 -0.4281 -0.1826
 8646TIP3    H225903   6.366   1.647   5.233  0.1248 -0.0938  0.0921
 8647TIP3   OH225904   1.902   4.151   5.781 -0.0879  0.6478  0.3857
 8647TIP3    H125905   1.960   4.162   5.706 -0.3365  1.5005  0.3043
 8647TIP3    H225906   1.814   4.152   5.743 -0.2445  1.7597  0.7485
 8648TIP3   OH225907   1.031   0.145   0.373  0.2283  0.1290 -0.3133
 8648TIP3    H125908   0.940   0.171   0.387 -0.1834 -1.4511  0.2520
 8648TIP3    H225909   1.073   0.222   0.336 -0.8448  1.6040  1.3594
 8649TIP3   OH225910   0.495   6.118   1.826 -0.1348  0.1392  0.2627
 8649TIP3    H125911   0.417   6.173   1.832 -0.9678 -1.1157  1.7802
 8649TIP3    H225912   0.568   6.179   1.835 -0.9126  1.3292 -1.0851
 8650TIP3   OH225913   0.804   0.118   0.551  0.4520  0.2552  1.0528
 8650TIP3    H125914   0.813   0.052   0.619 -2.9814  2.1026  3.6453
 8650TIP3    H225915   0.819   0.201   0.596 -1.5422  1.5548 -0.4590
 8651TIP3   OH225916   1.426   5.210   2.229  0.3441  0.3863  0.3258
 8651TIP3    H125917   1.465   5.125   2.250  2.0998  0.6194 -1.6141
 8651TIP3    H225918   1.366   5.228   2.302 -0.7007 -2.8429  0.4254
 8652TIP3   OH225919   5.746   4.076   0.921  0.1982  0.1079 -0.0438
 8652TIP3    H125920   5.802   4.099   0.995 -1.3253  0.4264  1.0603
 8652TIP3    H225921   5.724   4.160   0.880 -0.8634  0.1611  0.6004
 8653TIP3   OH225922   1.911   6.767   0.892 -0.1574  0.0781 -0.3217
 8653TIP3    H125923   1.841   6.728   0.945 -1.4585  1.3351 -1.0573
 8653TIP3    H225924   1.992   6.730   0.929 -1.1528 -0.9217  0.9623
 8654TIP3   OH225925   1.205   5.822   5.184  0.8301 -0.1856  0.0109
 8654TIP3    H125926   1.131   5.852   5.133  0.9390 -0.4621 -0.3096
 8654TIP3    H225927   1.171   5.813   5.273  0.1285 -1.5721 -0.3712
 8655TIP3   OH225928   7.222   0.424   3.404  0.1634  0.3815  0.4588
 8655TIP3    H125929   7.245   0.500   3.351  1.5081 -1.1235 -1.2362
 8655TIP3    H225930   7.146   0.386   3.361  0.1274  0.1837  0.6907
 8656TIP3   OH225931   6.162   4.656   1.651  0.7874  0.6182 -0.4943
 8656TIP3    H125932   6.094   4.677   1.715 -0.0213 -1.0418 -0.7577
 8656TIP3    H225933   6.122   4.675   1.566  1.5094  1.8725 -0.5763
 8657TIP3   OH225934   1.877   1.379   5.141  0.5231 -0.3866 -0.3413
 8657TIP3    H125935   1.828   1.298   5.138  0.1721 -0.1517 -1.5059
 8657TIP3    H225936   1.953   1.360   5.197  1.1352 -1.9115 -1.6211
 8658TIP3   OH225937   4.360   4.972   3.325 -0.2511  0.0997  0.0728
 8658TIP3    H125938   4.369   5.061   3.361 -1.1324 -0.0383  0.6625
 8658TIP3    H225939   4.267   4.962   3.309 -0.1666 -0.7578  0.0818
 8659TIP3   OH225940   5.075   3.333   1.120  0.2838 -0.6010 -0.2752
 8659TIP3    H125941   5.017   3.261   1.097 -0.9219  0.3761 -0.3732
 8659TIP3    H225942   5.100   3.371   1.036 -0.1433 -0.0997 -0.1802
 8660TIP3   OH225943   5.737   4.872   2.601  0.0353 -0.1030 -0.6251
 8660TIP3    H125944   5.690   4.932   2.659 -0.9463 -1.1949 -0.2481
 8660TIP3    H225945   5.741   4.918   2.517 -1.4729  0.1396 -0.5826
 8661TIP3   OH225946   7.140   3.462   1.042 -0.3294  0.2718  0.6667
 8661TIP3    H125947   7.157   3.387   1.100  0.3263  0.5223  0.8127
 8661TIP3    H225948   7.102   3.423   0.963  0.3662 -0.2691  0.5832
 8662TIP3   OH225949   0.099   4.414   0.606  0.1597 -0.0295 -0.3567
 8662TIP3    H125950   0.128   4.454   0.687 -0.2804 -0.5308  0.0596
 8662TIP3    H225951   0.075   4.324   0.631 -1.2296  0.1978 -0.7642
 8663TIP3   OH225952   2.983   3.744   2.203  0.4567 -0.3169 -0.4283
 8663TIP3    H125953   3.018   3.691   2.131  0.8394 -1.5422  0.6254
 8663TIP3    H225954   3.060   3.788   2.240  0.2455  0.3960 -0.8012
 8664TIP3   OH225955   4.438   1.798   5.230 -0.4171 -0.2131  0.0784
 8664TIP3    H125956   4.436   1.849   5.311 -2.2971  0.1302 -0.1188
 8664TIP3    H225957   4.358   1.825   5.184 -0.0990 -1.4233 -1.2440
 8665TIP3   OH225958   5.479   5.911   4.116  0.4531  0.0186  0.1806
 8665TIP3    H125959   5.516   5.942   4.033  0.0349 -0.7093 -0.2922
 8665TIP3    H225960   5.544   5.850   4.150 -0.3619 -1.4697 -0.7836
 8666TIP3   OH225961   0.894   4.791   2.479 -0.1002  0.3111  0.0185
 8666TIP3    H125962   0.990   4.784   2.474 -0.0474  0.5656  0.5671
 8666TIP3    H225963   0.873   4.761   2.567 -0.7356 -1.8044 -0.8044
 8667TIP3   OH225964   6.121   1.280   5.104 -0.0686 -0.4504  0.1481
 8667TIP3    H125965   6.046   1.245   5.151 -0.2444 -1.0600 -0.5587
 8667TIP3    H225966   6.105   1.374   5.099 -0.4501 -0.4911  0.5814
 8668TIP3   OH225967   3.991   6.041   0.966  0.0055 -0.0148  0.6520
 8668TIP3    H125968   4.077   6.063   1.002  0.6129 -0.6711 -0.3631
 8668TIP3    H225969   3.972   6.111   0.904 -0.9504  1.0056  2.0296
 8669TIP3   OH225970   4.340   2.148   3.093 -0.5004 -0.1242 -0.4111
 8669TIP3    H125971   4.413   2.131   3.152 -2.1251  0.2885  1.8707
 8669TIP3    H225972   4.333   2.068   3.040  0.8058 -0.6866  0.2214
 8670TIP3   OH225973   6.525   3.297   0.147 -0.3539 -0.2591 -0.0742
 8670TIP3    H125974   6.529   3.393   0.145  1.7903 -0.2716  0.6183
 8670TIP3    H225975   6.458   3.277   0.212 -0.7141  0.7806 -0.1062
 8671TIP3   OH225976   6.663   2.699   3.106  0.4953  0.0811  0.2355
 8671TIP3    H125977   6.689   2.702   3.014  0.1670 -1.4302  0.0672
 8671TIP3    H225978   6.593   2.764   3.114  0.3435  0.0300 -0.6340
 8672TIP3   OH225979   5.218   2.519   2.985 -0.7667  0.2560  0.5193
 8672TIP3    H125980   5.267   2.440   3.009  1.8958  1.6178 -0.0792
 8672TIP3    H225981   5.208   2.567   3.067 -0.2497  0.3923  0.5082
 8673TIP3   OH225982   3.632   6.315   4.933 -0.5387 -0.1738  0.3742
 8673TIP3    H125983   3.564   6.247   4.938 -0.1351 -0.6927 -0.8253
 8673TIP3    H225984   3.595   6.389   4.981 -2.4637 -0.0446 -1.1565
 8674TIP3   OH225985   5.895   2.465   1.169  0.3181  0.1829  0.0625
 8674TIP3    H125986   5.843   2.404   1.221 -0.3033  1.0292  0.4516
 8674TIP3    H225987   5.839   2.485   1.094  0.1433  0.9543  0.3889
 8675TIP3   OH225988   3.751   1.559   4.890  0.7199 -0.2289  0.5479
 8675TIP3    H125989   3.671   1.529   4.933  1.3313  0.3217  2.1651
 8675TIP3    H225990   3.800   1.479   4.872 -0.3791 -0.6064 -0.9005
 8676TIP3   OH225991   6.605   2.683   0.468  0.1498 -0.1357 -0.2448
 8676TIP3    H125992   6.575   2.755   0.413  0.4068  1.1240  1.1927
 8676TIP3    H225993   6.533   2.669   0.530  0.0461 -1.2236 -0.5999
 8677TIP3   OH225994   0.702   0.235   0.844  0.5022 -0.0140 -0.6254
 8677TIP3    H125995   0.700   0.140   0.830 -1.1127 -0.1061  0.0776
 8677TIP3    H225996   0.642   0.270   0.778  0.9425  0.5299 -0.7535
 8678TIP3   OH225997   1.950   0.106   4.387 -0.9028  0.2068 -0.1741
 8678TIP3    H125998   1.910   0.058   4.315 -0.7009  0.5471 -0.5198
 8678TIP3    H225999   1.948   0.197   4.359  0.5504  0.1940 -0.4414
 8679TIP3   OH226000   2.639   0.585   4.816 -0.6618  0.3529 -0.1961
 8679TIP3    H126001   2.649   0.658   4.754 -0.5795  1.1095  0.6821
 8679TIP3    H226002   2.725   0.543   4.816 -1.2180 -0.9522 -2.1149
 8680TIP3   OH226003   2.596   5.854   3.441  0.2935 -0.5611  0.1882
 8680TIP3    H126004   2.629   5.765   3.426  0.1778 -1.1736  3.0580
 8680TIP3    H226005   2.513   5.841   3.488 -0.9258  1.0662 -1.3652
 8681TIP3   OH226006   1.493   1.316   5.365 -0.3986 -0.2918  0.4699
 8681TIP3    H126007   1.428   1.380   5.337  0.8050  0.8608  0.2235
 8681TIP3    H226008   1.464   1.233   5.326 -0.3681  0.6829 -1.7646
 8682TIP3   OH226009   1.240   0.039   5.195 -0.0594 -0.3839  0.6022
 8682TIP3    H126010   1.197  -0.030   5.145 -0.4284 -0.0796  0.4926
 8682TIP3    H226011   1.209   0.028   5.284 -1.0658  0.3724  0.3611
 8683TIP3   OH226012   4.528   4.629   1.626  0.2961  0.0608 -0.0356
 8683TIP3    H126013   4.598   4.573   1.592  0.8246  0.3407  0.5813
 8683TIP3    H226014   4.520   4.604   1.718 -0.2880  0.1609 -0.0598
 8684TIP3   OH226015   1.474   0.801   0.624 -0.0991 -0.0842 -0.0927
 8684TIP3    H126016   1.486   0.774   0.715 -0.1844  2.1229  0.6244
 8684TIP3    H226017   1.439   0.723   0.581  1.9919 -1.8685  1.2285
 8685TIP3   OH226018   6.871   3.395   4.114 -0.0291  0.1925  0.4863
 8685TIP3    H126019   6.869   3.383   4.019 -0.7310  1.6845  0.2846
 8685TIP3    H226020   6.859   3.307   4.150 -2.3758 -0.0879 -0.8231
 8686TIP3   OH226021   6.112   2.133   0.911  0.1857 -0.4510 -0.0087
 8686TIP3    H126022   6.188   2.085   0.945  1.1588  0.9514 -0.1460
 8686TIP3    H226023   6.149   2.207   0.864 -1.2885  0.6195  0.4507
 8687TIP3   OH226024   2.339   3.511   3.957  0.5827  0.5072 -0.6342
 8687TIP3    H126025   2.344   3.606   3.961 -0.2192  0.5272  1.5938
 8687TIP3    H226026   2.422   3.482   3.996 -0.9264  0.4529  2.9760
 8688TIP3   OH226027   0.378   1.995   1.724  0.7667 -0.7170 -0.6256
 8688TIP3    H126028   0.362   1.900   1.718  0.8642 -0.7252 -0.7704
 8688TIP3    H226029   0.420   2.017   1.641 -0.0172 -0.3911 -0.9432
 8689TIP3   OH226030   0.012   0.534   4.996  0.3671  0.2007  0.6707
 8689TIP3    H126031   0.069   0.482   4.938  0.5414  0.5399  0.5392
 8689TIP3    H226032  -0.073   0.532   4.953  0.8389  1.6995 -0.3860
 8690TIP3   OH226033   0.815   1.938   2.035  0.6247  0.2801  0.1820
 8690TIP3    H126034   0.729   1.958   1.998  0.5870  1.6790  0.9710
 8690TIP3    H226035   0.828   1.845   2.015 -0.2236  0.5014 -1.6203
 8691TIP3   OH226036   3.983   4.433   5.620  0.3639 -0.3346 -0.0407
 8691TIP3    H126037   3.949   4.504   5.565  2.1092 -0.0268 -0.7978
 8691TIP3    H226038   3.964   4.461   5.709 -0.2206  0.4236 -0.3904
 8692TIP3   OH226039   0.857   6.100   0.700  0.1766  0.6358  0.1026
 8692TIP3    H126040   0.861   6.008   0.726 -0.5670  0.9687  1.4536
 8692TIP3    H226041   0.782   6.135   0.747 -0.4291  1.6168 -1.4983
 8693TIP3   OH226042   6.474   4.471   3.864 -0.3830  0.3915 -0.2552
 8693TIP3    H126043   6.469   4.556   3.907 -1.7648  0.4837 -0.5357
 8693TIP3    H226044   6.385   4.456   3.831 -0.4400 -1.5926  0.6399
 8694TIP3   OH226045   0.551   2.949   2.040  0.5400 -0.4698  0.1718
 8694TIP3    H126046   0.504   2.969   1.960  0.1420 -1.4632  0.1518
 8694TIP3    H226047   0.484   2.924   2.103  0.9648 -1.0627  0.3995
 8695TIP3   OH226048   1.131   1.322   4.752  0.1672 -0.0021  0.1166
 8695TIP3    H126049   1.212   1.284   4.718  1.4455  1.2436  1.6335
 8695TIP3    H226050   1.136   1.415   4.728  0.1568  0.4903  1.8519
 8696TIP3   OH226051   1.243   5.988   4.789 -0.6694 -0.7931  0.3093
 8696TIP3    H126052   1.310   5.954   4.848 -0.2232 -0.6062 -0.0833
 8696TIP3    H226053   1.192   5.911   4.763 -0.4796 -0.9644  0.4443
 8697TIP3   OH226054   0.869   0.251   3.559  0.7931  0.0649 -0.6892
 8697TIP3    H126055   0.867   0.339   3.521  1.1277 -0.5230 -2.1498
 8697TIP3    H226056   0.888   0.194   3.485  1.1702 -1.1864  0.3365
 8698TIP3   OH226057   0.269   4.622   4.642 -0.2341  0.0380 -0.1311
 8698TIP3    H126058   0.297   4.537   4.677 -1.7347 -0.8900 -1.0151
 8698TIP3    H226059   0.179   4.606   4.611 -0.0207  1.5411 -1.7105
 8699TIP3   OH226060   6.547   5.457   5.780  0.1666 -0.1087 -0.3018
 8699TIP3    H126061   6.569   5.550   5.771  0.3478 -0.1767 -0.5478
 8699TIP3    H226062   6.457   5.457   5.810  0.8605  0.2186  1.9971
 8700TIP3   OH226063   3.854   1.967   5.011  0.1328  0.3361 -0.5631
 8700TIP3    H126064   3.875   1.879   4.979  0.3666 -0.2045  0.9490
 8700TIP3    H226065   3.916   1.980   5.084  0.3422  1.9120 -1.0002
 8701TIP3   OH226066   1.343   6.330   5.089  0.1778 -0.8089  0.1610
 8701TIP3    H126067   1.267   6.338   5.147  0.8990  1.6962  0.8900
 8701TIP3    H226068   1.396   6.261   5.128  0.8672  1.1143  2.8898
 8702TIP3   OH226069   1.987   4.481   0.747 -0.1746 -0.4120 -0.5035
 8702TIP3    H126070   1.935   4.491   0.667 -0.2265  0.4663 -0.3613
 8702TIP3    H226071   2.041   4.403   0.730 -0.3695 -0.3835 -1.2937
 8703TIP3   OH226072   0.437   0.198   1.539  0.0750 -0.0850  0.1568
 8703TIP3    H126073   0.414   0.282   1.581  2.5418  0.3339  0.8107
 8703TIP3    H226074   0.492   0.154   1.603  1.6402 -0.6821 -1.5269
 8704TIP3   OH226075   5.575   2.733   4.943 -0.6269 -0.0702  0.0945
 8704TIP3    H126076   5.571   2.828   4.951  0.3026 -0.0672  0.6779
 8704TIP3    H226077   5.636   2.717   4.871 -0.4670 -0.2267  0.2626
 8705TIP3   OH226078   3.068   5.940   3.648 -0.7491  0.1589  0.3772
 8705TIP3    H126079   3.057   6.006   3.580 -1.3556  1.6879  1.8921
 8705TIP3    H226080   3.159   5.950   3.677 -0.1461 -1.2281 -0.8679
 8706TIP3   OH226081   2.334   0.724   4.388  0.0106 -0.3786  0.6871
 8706TIP3    H126082   2.291   0.643   4.415  0.8947 -1.6225 -1.3827
 8706TIP3    H226083   2.426   0.700   4.376 -0.0755  0.3242 -2.0238
 8707TIP3   OH226084   4.983   0.757   2.797  0.1543 -0.0886 -0.3896
 8707TIP3    H126085   4.961   0.839   2.841 -2.0833 -0.8768  0.0721
 8707TIP3    H226086   4.948   0.766   2.709  1.6162  0.1568 -0.9757
 8708TIP3   OH226087   4.836   0.298   2.744 -0.1977 -0.7019 -0.0285
 8708TIP3    H126088   4.885   0.370   2.783  0.5536 -1.2821  0.1132
 8708TIP3    H226089   4.875   0.219   2.781  0.5200 -1.2812 -1.9186
 8709TIP3   OH226090   5.610   0.439   4.631  0.4228 -0.3295 -0.2604
 8709TIP3    H126091   5.519   0.410   4.641 -0.0691  0.6374 -1.6105
 8709TIP3    H226092   5.627   0.493   4.708 -0.4386  0.1601 -0.4000
 8710TIP3   OH226093   3.155   3.180   0.839 -0.3166  0.4115 -0.1594
 8710TIP3    H126094   3.138   3.245   0.771 -2.4492  1.5868  1.3648
 8710TIP3    H226095   3.089   3.199   0.906  2.0318 -0.3298  2.5019
 8711TIP3   OH226096   6.022   3.701   1.528 -0.6242  0.1667 -0.3249
 8711TIP3    H126097   6.118   3.701   1.534 -0.6174 -1.3416  0.0819
 8711TIP3    H226098   6.002   3.768   1.463  0.6555  1.1133  0.2269
 8712TIP3   OH226099   3.495   6.656   2.702 -0.2568  0.0503  0.0730
 8712TIP3    H126100   3.426   6.612   2.751 -0.0991  0.2487  0.4842
 8712TIP3    H226101   3.476   6.637   2.611 -1.8316  1.4719  0.0549
 8713TIP3   OH226102   6.701   2.591   4.232  0.2293 -0.0297 -0.4017
 8713TIP3    H126103   6.783   2.624   4.270  0.1600  0.7471 -0.9192
 8713TIP3    H226104   6.728   2.516   4.179  0.6761  0.4857 -0.9188
 8714TIP3   OH226105   2.461   3.496   2.275 -0.5985  0.0358 -0.6896
 8714TIP3    H126106   2.424   3.557   2.211 -0.6786  0.8885  0.1420
 8714TIP3    H226107   2.408   3.509   2.354  1.8694  1.8660  0.8101
 8715TIP3   OH226108   0.548   2.803   5.732  0.1528 -0.6740  0.1761
 8715TIP3    H126109   0.637   2.802   5.697 -0.4820 -0.6513 -1.5477
 8715TIP3    H226110   0.540   2.721   5.780  0.7809 -1.1385 -0.5041
 8716TIP3   OH226111   3.397   0.097   1.740  0.1366  0.0361 -0.4235
 8716TIP3    H126112   3.350   0.057   1.666 -0.1533  0.9152 -0.7234
 8716TIP3    H226113   3.329   0.139   1.792  0.1430 -1.7952  1.1867
 8717TIP3   OH226114   5.946   5.293   0.911  0.0197 -0.1662 -0.4829
 8717TIP3    H126115   5.939   5.371   0.966 -0.1799  0.0817 -0.8552
 8717TIP3    H226116   5.952   5.327   0.822 -2.4831 -0.5936 -0.8890
 8718TIP3   OH226117   3.979   0.843   5.458  0.3188  0.0688  0.3101
 8718TIP3    H126118   3.905   0.846   5.397  0.6373  1.8531 -0.0319
 8718TIP3    H226119   3.959   0.910   5.524  2.5630  2.1896 -0.9789
 8719TIP3   OH226120   5.721   0.376   5.519  0.0301 -0.1756  0.3851
 8719TIP3    H126121   5.812   0.406   5.517  0.1813 -0.6457 -0.0167
 8719TIP3    H226122   5.680   0.419   5.444  0.6043 -2.0343 -1.0662
 8720TIP3   OH226123   1.941   5.968   4.580 -0.0607 -0.4554  0.3471
 8720TIP3    H126124   2.006   6.038   4.581  0.8034 -1.2345 -0.1051
 8720TIP3    H226125   1.983   5.895   4.626 -0.5903 -0.9843  0.0097
 8721TIP3   OH226126   0.188   5.954   3.293  0.1399 -0.1657  0.1439
 8721TIP3    H126127   0.272   5.919   3.321  1.2553  1.2254 -1.2934
 8721TIP3    H226128   0.130   5.878   3.290  1.3604 -1.1648  1.0359
 8722TIP3   OH226129   2.369   2.808   0.605 -0.5186  0.2116  0.5974
 8722TIP3    H126130   2.367   2.800   0.509 -0.7158 -0.5058  0.6610
 8722TIP3    H226131   2.354   2.902   0.620  0.8216  0.5710 -0.1054
 8723TIP3   OH226132   1.588   3.589   0.945  0.3376 -0.0893  0.0978
 8723TIP3    H126133   1.518   3.655   0.938  0.7361  0.1997 -1.8487
 8723TIP3    H226134   1.572   3.546   1.029  0.1936  2.6290  1.6081
 8724TIP3   OH226135   1.912   6.385   1.802 -0.5812 -0.3305  0.6648
 8724TIP3    H126136   2.005   6.370   1.816 -1.0327 -1.6724  2.7296
 8724TIP3    H226137   1.897   6.474   1.834  0.0337  0.0218 -0.0086
 8725TIP3   OH226138   3.279   4.340   5.559 -0.4005 -0.1961  0.3593
 8725TIP3    H126139   3.337   4.267   5.540  0.0445  0.2603 -0.0498
 8725TIP3    H226140   3.300   4.406   5.493  1.2526  1.4633  2.3722
 8726TIP3   OH226141   3.131   4.350   0.067 -0.0857  0.7666 -0.8494
 8726TIP3    H126142   3.104   4.281   0.007  0.6909 -0.4359  0.1431
 8726TIP3    H226143   3.072   4.341   0.142  0.8585  0.3234 -0.1491
 8727TIP3   OH226144   4.637   6.778   0.554  0.2368 -0.2362  0.5153
 8727TIP3    H126145   4.642   6.739   0.641 -1.5785 -0.7351  0.4486
 8727TIP3    H226146   4.682   6.716   0.497 -2.4007 -2.2785  0.4505
 8728TIP3   OH226147   3.352   0.697   2.596  0.2616 -0.4279 -0.0518
 8728TIP3    H126148   3.397   0.755   2.657  1.9617 -0.2278 -1.3870
 8728TIP3    H226149   3.303   0.756   2.538  2.0052 -0.2319 -1.4212
 8729TIP3   OH226150   2.020   2.401   4.228 -0.2015 -0.2133  0.2827
 8729TIP3    H126151   2.019   2.345   4.150  0.6913 -0.2815  0.3057
 8729TIP3    H226152   2.014   2.490   4.193  1.3072 -0.1755  0.0280
 8730TIP3   OH226153   3.155   5.972   5.471  0.2392 -0.6548  0.0937
 8730TIP3    H126154   3.225   5.919   5.432 -0.4435 -1.7211  0.2804
 8730TIP3    H226155   3.075   5.923   5.452 -0.1343 -1.2252  2.7918
 8731TIP3   OH226156   6.245   5.676   2.356 -0.1217 -0.0511 -0.1218
 8731TIP3    H126157   6.304   5.725   2.413 -0.3697  1.1610 -0.8834
 8731TIP3    H226158   6.176   5.738   2.332  0.2769 -0.3395 -2.2035
 8732TIP3   OH226159   0.626   3.743   0.449  0.0254 -0.1376 -0.5801
 8732TIP3    H126160   0.540   3.707   0.425 -1.0749  0.9201  1.5315
 8732TIP3    H226161   0.647   3.804   0.378 -0.9294 -0.4517 -1.1600
 8733TIP3   OH226162   0.658   4.133   3.306  0.0408 -0.4113  0.1916
 8733TIP3    H126163   0.613   4.108   3.386 -0.7101  0.8373  0.1831
 8733TIP3    H226164   0.658   4.229   3.307  0.0788 -0.3723 -1.2592
 8734TIP3   OH226165   5.385   2.861   1.872  0.4277 -1.2501 -0.0979
 8734TIP3    H126166   5.363   2.770   1.892 -1.3094 -0.8583 -0.0770
 8734TIP3    H226167   5.414   2.860   1.781 -2.8568 -1.3952 -1.2661
 8735TIP3   OH226168   4.477   4.430   5.240 -0.0347  0.1230  0.0455
 8735TIP3    H126169   4.537   4.356   5.253  0.9521  0.6650 -1.1696
 8735TIP3    H226170   4.445   4.420   5.151  1.0806  1.7954 -0.5930
 8736TIP3   OH226171   5.740   2.279   5.695 -0.5291 -0.1283 -0.5478
 8736TIP3    H126172   5.677   2.245   5.759 -1.1563 -1.1077 -1.6503
 8736TIP3    H226173   5.785   2.202   5.662 -0.1378  0.3728 -1.2151
 8737TIP3   OH226174   3.991   3.515   5.837 -0.4588  0.1869 -0.1759
 8737TIP3    H126175   3.980   3.438   5.782  0.3897 -0.0025 -0.0832
 8737TIP3    H226176   4.003   3.479   5.925  0.8268  0.3820 -0.2617
 8738TIP3   OH226177   4.707   6.707   4.948 -0.2077 -0.5721  0.2311
 8738TIP3    H126178   4.711   6.760   5.028  0.5747 -1.1754  0.6080
 8738TIP3    H226179   4.796   6.672   4.938 -0.2798 -0.4546 -0.9467
 8739TIP3   OH226180   0.218   0.524   5.446 -0.3536 -0.2332  0.2771
 8739TIP3    H126181   0.196   0.527   5.353  1.2997  1.0544 -0.1317
 8739TIP3    H226182   0.256   0.437   5.458 -0.4356 -0.3566 -0.2958
 8740TIP3   OH226183   4.627   0.582   3.650 -0.2279 -0.2137 -0.2304
 8740TIP3    H126184   4.625   0.496   3.691  1.0204  0.4781  1.3914
 8740TIP3    H226185   4.679   0.636   3.710  0.5075  1.2228 -2.0748
 8741TIP3   OH226186   4.083   6.295   1.652 -0.3696  0.5400 -0.6984
 8741TIP3    H126187   4.154   6.348   1.687  0.4370 -0.0159 -1.4579
 8741TIP3    H226188   4.052   6.343   1.575  0.5955 -0.2124 -1.5961
 8742TIP3   OH226189   6.906   0.684   0.997  0.1899 -0.1285  0.1355
 8742TIP3    H126190   6.869   0.705   0.912 -2.4738  1.2263  1.5229
 8742TIP3    H226191   6.855   0.609   1.028 -0.2881  0.6596  1.3450
 8743TIP3   OH226192   6.866   6.749   3.643 -0.5578  0.1046 -0.3091
 8743TIP3    H126193   6.862   6.654   3.658  1.0848 -0.0298 -0.5123
 8743TIP3    H226194   6.880   6.757   3.548 -2.4049  0.6312 -0.5659
 8744TIP3   OH226195   3.200   0.572   1.505 -0.3911  0.2742 -0.8074
 8744TIP3    H126196   3.139   0.632   1.461 -0.9597  0.3955  0.1022
 8744TIP3    H226197   3.282   0.621   1.510 -0.8230  0.9587 -0.1688
 8745TIP3   OH226198   6.106   4.142   4.278 -0.1371  0.2318  0.0836
 8745TIP3    H126199   6.017   4.168   4.256  0.1466  1.1698  0.0105
 8745TIP3    H226200   6.153   4.224   4.293  1.0429 -0.1869 -1.1201
 8746TIP3   OH226201   6.042   1.902   2.196 -0.0861 -0.6175 -0.0324
 8746TIP3    H126202   6.121   1.903   2.249  1.5792 -0.4361 -2.3372
 8746TIP3    H226203   6.016   1.810   2.194  0.7773 -0.8706 -0.1944
 8747TIP3   OH226204   3.037   3.413   4.512  0.6586  0.1480  0.4429
 8747TIP3    H126205   3.035   3.389   4.419  2.0142  0.2270  0.3696
 8747TIP3    H226206   3.131   3.423   4.532  0.4857 -1.3704  2.2044
 8748TIP3   OH226207   6.401   5.513   5.516  0.5750  0.2934 -0.1661
 8748TIP3    H126208   6.426   5.541   5.603  1.5309 -0.4071 -0.2113
 8748TIP3    H226209   6.322   5.564   5.497  0.9175  1.1796  0.6998
 8749TIP3   OH226210   5.108   0.832   5.745  0.0422  0.3579 -0.6099
 8749TIP3    H126211   5.043   0.897   5.770  0.6689  1.1821 -1.0996
 8749TIP3    H226212   5.192   0.878   5.749  0.3379  0.0453 -2.5549
 8750TIP3   OH226213   0.666   0.589   4.949  0.0596  0.1666  0.1593
 8750TIP3    H126214   0.713   0.652   5.004  0.1826  0.0321  0.2103
 8750TIP3    H226215   0.700   0.605   4.861  1.1340 -0.7718  0.3813
 8751TIP3   OH226216   4.784   1.708   2.851  0.1287 -0.6870  0.5862
 8751TIP3    H126217   4.876   1.684   2.853  0.1244 -0.6811  1.7323
 8751TIP3    H226218   4.777   1.780   2.914 -0.1786  1.1822 -1.4513
 8752TIP3   OH226219   3.921   2.314   3.726  0.5295  0.3067  0.6339
 8752TIP3    H126220   3.920   2.271   3.812 -0.7916 -1.9900 -0.4343
 8752TIP3    H226221   3.830   2.310   3.697  0.9689  0.9364 -0.9129
 8753TIP3   OH226222   2.135   0.183   0.233  0.3100 -0.8062 -0.0047
 8753TIP3    H126223   2.103   0.268   0.264  0.3205 -0.5754 -0.6094
 8753TIP3    H226224   2.230   0.191   0.236  0.3108 -0.6273 -0.5140
 8754TIP3   OH226225   3.015   1.052   5.550 -0.9275 -0.1320 -0.3464
 8754TIP3    H126226   3.109   1.069   5.552 -0.9282 -0.2095  0.2869
 8754TIP3    H226227   2.974   1.135   5.576 -0.9830 -0.5395  0.9144
 8755TIP3   OH226228   4.263   3.173   1.261  0.4858 -0.2261  0.4632
 8755TIP3    H126229   4.266   3.084   1.225  1.7819  1.0242 -2.8864
 8755TIP3    H226230   4.354   3.199   1.268  0.1003  1.4364 -0.2957
 8756TIP3   OH226231   5.561   5.019   3.331  0.5784  0.2107 -0.5649
 8756TIP3    H126232   5.566   4.962   3.254  2.8243 -1.1056  0.4482
 8756TIP3    H226233   5.533   4.961   3.402  1.2726  0.7535  0.1631
 8757TIP3   OH226234   0.614   3.242   3.739  0.0582 -0.2603  0.3901
 8757TIP3    H126235   0.663   3.258   3.819 -2.2966  0.5548  1.7631
 8757TIP3    H226236   0.619   3.147   3.726  1.9935 -0.2084  0.3858
 8758TIP3   OH226237   5.931   2.192   2.496  0.0590 -0.1882  0.1378
 8758TIP3    H126238   5.874   2.263   2.524 -1.0940 -0.3054 -1.7374
 8758TIP3    H226239   6.016   2.212   2.536 -0.5643  1.5212  0.6998
 8759TIP3   OH226240   6.004   4.892   1.773  0.5847 -0.5800 -0.3127
 8759TIP3    H126241   6.076   4.947   1.806  1.3282 -0.9207 -1.3040
 8759TIP3    H226242   5.943   4.887   1.846  0.6926  1.2088 -0.0404
 8760TIP3   OH226243   1.653   4.608   4.041 -0.6648 -0.3609 -0.0545
 8760TIP3    H126244   1.668   4.701   4.053  1.4710 -0.6960  0.2262
 8760TIP3    H226245   1.688   4.567   4.121  1.0692 -1.5904 -1.3806
 8761TIP3   OH226246   3.299   4.104   0.244 -0.2158 -0.1622  0.2154
 8761TIP3    H126247   3.353   4.146   0.177  0.9176  1.8295  2.2544
 8761TIP3    H226248   3.353   4.033   0.279 -0.7282 -1.0672 -0.7505
 8762TIP3   OH226249   0.564   0.151   3.043 -0.0662  0.0573  0.0622
 8762TIP3    H126250   0.536   0.073   2.996 -1.7395 -0.9648  2.5464
 8762TIP3    H226251   0.495   0.216   3.026 -0.4613 -0.1773  0.7417
 8763TIP3   OH226252   0.447   5.642   2.089  0.2517 -0.5909  0.1881
 8763TIP3    H126253   0.524   5.644   2.145  0.9514  1.0207 -0.7645
 8763TIP3    H226254   0.410   5.554   2.101  2.7947 -1.7678 -0.1016
 8764TIP3   OH226255   4.216   6.671   3.305  0.2681 -0.5705 -0.3348
 8764TIP3    H126256   4.142   6.645   3.251 -1.1746 -0.2708  1.3846
 8764TIP3    H226257   4.274   6.594   3.305  0.2342 -0.6329 -2.0861
 8765TIP3   OH226258   3.792   0.212   4.917  0.4558  0.9091  0.4077
 8765TIP3    H126259   3.811   0.230   5.009  0.4810  1.3102  0.3270
 8765TIP3    H226260   3.809   0.119   4.906 -1.0138  0.5166  1.1724
 8766TIP3   OH226261   2.670   1.015   5.762 -0.0891  0.3156 -0.0547
 8766TIP3    H126262   2.585   1.053   5.741  0.4249  1.5046 -0.0721
 8766TIP3    H226263   2.705   0.987   5.677 -0.1133  0.5718 -0.1486
 8767TIP3   OH226264   3.974   0.158   0.879  0.0911 -0.0232 -0.1338
 8767TIP3    H126265   4.025   0.206   0.944  0.4935  1.1076 -1.2318
 8767TIP3    H226266   3.888   0.198   0.881 -0.2720 -0.8103  0.5416
 8768TIP3   OH226267   1.225   4.404   0.589 -0.3952  0.2430  0.1017
 8768TIP3    H126268   1.222   4.309   0.579  1.2662  0.3371 -1.7750
 8768TIP3    H226269   1.301   4.420   0.645  0.8296  0.5502 -1.6055
 8769TIP3   OH226270   2.648   3.068   4.922 -0.1128 -0.0851  0.4384
 8769TIP3    H126271   2.734   3.068   4.881 -1.1786 -0.1439 -1.9940
 8769TIP3    H226272   2.658   3.013   5.000  1.7755 -0.9542 -0.3583
 8770TIP3   OH226273   2.460   3.070   2.089  0.3186  0.7120  0.1242
 8770TIP3    H126274   2.378   3.028   2.117  0.1307  1.2622  0.4173
 8770TIP3    H226275   2.515   3.070   2.167  0.8229 -0.1633 -0.2179
 8771TIP3   OH226276   5.542   6.664   4.375 -0.0246 -0.3119  0.2683
 8771TIP3    H126277   5.566   6.616   4.454 -0.7694 -0.5293  0.3684
 8771TIP3    H226278   5.446   6.659   4.371  0.0633 -1.5777 -1.4493
 8772TIP3   OH226279   1.612   2.216   1.727 -0.0532  0.1524  0.0828
 8772TIP3    H126280   1.616   2.264   1.809  1.6923 -0.6844  0.5396
 8772TIP3    H226281   1.575   2.279   1.664  1.1513  1.7589  0.8927
 8773TIP3   OH226282   5.316   5.276   3.291  0.1692  0.3574  0.1118
 8773TIP3    H126283   5.345   5.244   3.377  2.1156  1.4309 -0.0935
 8773TIP3    H226284   5.397   5.292   3.243 -0.8662  0.8419 -1.5540
 8774TIP3   OH226285   6.247   2.386   5.696 -0.4403 -0.1920  0.3039
 8774TIP3    H126286   6.199   2.318   5.648 -0.2336 -1.2905  1.5844
 8774TIP3    H226287   6.338   2.357   5.694 -0.2685  0.3407  0.3803
 8775TIP3   OH226288   1.280   2.105   5.742 -0.1840  0.1644 -0.7334
 8775TIP3    H126289   1.220   2.037   5.772  0.1046  0.5605  0.8442
 8775TIP3    H226290   1.359   2.092   5.796 -0.2282  1.9056 -0.1918
 8776TIP3   OH226291   1.709   0.936   1.988 -0.3033 -0.1324  0.3498
 8776TIP3    H126292   1.664   0.935   2.073 -1.4976  4.4294 -0.0054
 8776TIP3    H226293   1.799   0.963   2.009 -0.3866  0.2249  0.2547
 8777TIP3   OH226294   0.394   2.193   2.120  0.8977  0.0659 -0.0178
 8777TIP3    H126295   0.464   2.255   2.100  0.2413  0.6360 -0.5873
 8777TIP3    H226296   0.331   2.244   2.170 -0.2174  0.2232 -1.5046
 8778TIP3   OH226297   2.458   3.941   4.092  0.2174  0.1919  0.1421
 8778TIP3    H126298   2.460   3.898   4.007  1.1976 -0.0883  0.2850
 8778TIP3    H226299   2.416   4.025   4.076  1.3261  0.5909 -0.8572
 8779TIP3   OH226300   4.782   5.389   1.894 -0.0857  0.1193 -0.4053
 8779TIP3    H126301   4.833   5.433   1.825  0.4640 -1.5037 -1.0835
 8779TIP3    H226302   4.769   5.300   1.861 -1.7955 -0.0449  0.5996
 8780TIP3   OH226303   2.145   0.429   1.970 -0.0568 -0.0023 -0.3324
 8780TIP3    H126304   2.062   0.403   1.931  0.4644 -0.6776 -1.0117
 8780TIP3    H226305   2.135   0.523   1.988 -0.6560  0.1132 -1.2116
 8781TIP3   OH226306   4.382   4.443   4.942  0.3926 -0.1872  0.0855
 8781TIP3    H126307   4.297   4.404   4.920 -0.1367  0.3385  1.1328
 8781TIP3    H226308   4.380   4.529   4.899  0.8440 -0.5908 -0.7690
 8782TIP3   OH226309   4.103   5.950   5.652 -0.1601  0.0203 -0.8568
 8782TIP3    H126310   4.069   5.978   5.567 -0.7538  1.6096 -0.1290
 8782TIP3    H226311   4.058   5.868   5.670  1.7696 -1.7043 -3.1451
 8783TIP3   OH226312   4.512   6.045   1.059 -0.3014  0.5410 -0.0277
 8783TIP3    H126313   4.420   6.070   1.070 -0.5511 -1.1483  2.4535
 8783TIP3    H226314   4.516   6.008   0.970 -2.2782 -0.3076  0.1756
 8784TIP3   OH226315   2.550   2.165   3.039 -0.1600 -0.4760 -0.2645
 8784TIP3    H126316   2.455   2.170   3.047 -0.1519 -0.9561  0.1869
 8784TIP3    H226317   2.577   2.254   3.016 -0.5432  0.1335  1.4829
 8785TIP3   OH226318   3.145   3.968   3.487 -0.4631 -0.3490  0.0906
 8785TIP3    H126319   3.167   4.043   3.542 -0.3640  0.1674 -0.6387
 8785TIP3    H226320   3.228   3.944   3.446 -0.3652 -1.2495  0.7699
 8786TIP3   OH226321   0.733   4.594   4.893 -0.1992  0.1353 -0.1824
 8786TIP3    H126322   0.660   4.656   4.891 -0.4822 -0.1965 -0.4038
 8786TIP3    H226323   0.702   4.520   4.840  1.0129  0.7895 -1.9264
 8787TIP3   OH226324   0.388   5.106   4.308 -0.1413  0.3064  0.8513
 8787TIP3    H126325   0.374   5.188   4.261 -2.1178 -0.5739 -0.2237
 8787TIP3    H226326   0.382   5.038   4.240  2.6098 -0.7266  1.4961
 8788TIP3   OH226327   2.991   5.461   5.126  0.1095 -0.4405 -0.1719
 8788TIP3    H126328   2.925   5.404   5.165  0.6809 -0.0381  1.4724
 8788TIP3    H226329   3.074   5.421   5.150  0.4987 -0.4133 -1.3990
 8789TIP3   OH226330   6.537   0.481   2.435 -0.2283  0.0112  0.0671
 8789TIP3    H126331   6.477   0.524   2.497 -1.3641 -1.2226 -0.1418
 8789TIP3    H226332   6.621   0.480   2.480  0.1705  3.3680 -0.3099
 8790TIP3   OH226333   2.496   1.850   2.633  0.1343 -0.0177  0.6972
 8790TIP3    H126334   2.550   1.908   2.687 -0.8001  1.1485  0.4231
 8790TIP3    H226335   2.454   1.908   2.570 -1.1869 -0.9259  0.6968
 8791TIP3   OH226336   2.819   5.218   4.272  0.4649  0.3837  0.7797
 8791TIP3    H126337   2.883   5.183   4.210  0.2732 -2.1611  1.9093
 8791TIP3    H226338   2.869   5.231   4.352  0.1222  0.9773  0.9029
 8792TIP3   OH226339   3.871   0.500   5.726 -0.4090  0.0491  0.6281
 8792TIP3    H126340   3.954   0.475   5.684 -0.7833  2.8736 -2.1485
 8792TIP3    H226341   3.808   0.434   5.695  0.1337 -0.1614 -0.0640
 8793TIP3   OH226342   3.766   0.507   1.801  0.2097 -0.4714  0.1894
 8793TIP3    H126343   3.855   0.488   1.831 -0.2024 -1.3002  0.9297
 8793TIP3    H226344   3.721   0.423   1.804 -0.1887 -0.3654 -1.6837
 8794TIP3   OH226345   4.270   1.804   2.718  0.0713  0.0952  0.3011
 8794TIP3    H126346   4.215   1.734   2.753 -0.5302  0.4133 -0.0111
 8794TIP3    H226347   4.315   1.764   2.644 -1.3698  0.4402 -0.7895
 8795TIP3   OH226348   6.963   1.230   2.051 -0.1153  0.0250  0.7426
 8795TIP3    H126349   7.025   1.217   2.123  0.6330 -0.5745  0.0126
 8795TIP3    H226350   6.999   1.302   1.999  0.2364 -0.6313  0.0551
 8796TIP3   OH226351  -0.014   4.889   3.304 -0.0981 -0.0103  0.4420
 8796TIP3    H126352  -0.015   4.809   3.252  1.0548 -0.5705  1.2348
 8796TIP3    H226353   0.071   4.928   3.288  0.6333 -0.6274  2.4768
 8797TIP3   OH226354   4.045   4.939   2.121  0.4258 -0.0117  0.1438
 8797TIP3    H126355   4.004   4.952   2.206 -0.5377 -2.0501  0.0524
 8797TIP3    H226356   4.040   5.025   2.078 -0.6809  0.5975  1.4395
 8798TIP3   OH226357   2.534   3.869   2.744 -0.3377  0.3331 -0.5193
 8798TIP3    H126358   2.512   3.814   2.669  1.4834 -0.1544 -0.7229
 8798TIP3    H226359   2.596   3.818   2.795 -2.1802  0.2621  1.8771
 8799TIP3   OH226360   0.232   6.129   4.067  0.3551  0.2977 -0.1521
 8799TIP3    H126361   0.226   6.117   4.161 -0.6465  0.5171 -0.1738
 8799TIP3    H226362   0.310   6.183   4.054 -0.4488  1.7246  0.7021
 8800TIP3   OH226363   3.912   2.962   3.732  0.1778  0.1704 -0.4552
 8800TIP3    H126364   3.869   2.944   3.648 -1.5977  1.5078  0.0952
 8800TIP3    H226365   3.859   2.916   3.797  0.8167  0.1407  0.0530
 8801TIP3   OH226366   4.718   1.046   0.636  0.0604 -0.0802 -0.6780
 8801TIP3    H126367   4.670   1.039   0.554 -0.2823  0.5009 -0.5269
 8801TIP3    H226368   4.697   0.966   0.684 -1.3240  0.4803 -0.3115
 8802TIP3   OH226369   1.476   2.012   1.852  0.2252  0.3249 -0.3860
 8802TIP3    H126370   1.489   2.050   1.939 -1.5477 -0.7464  0.4015
 8802TIP3    H226371   1.413   2.070   1.810 -0.1396 -0.0356 -0.3415
 8803TIP3   OH226372   4.745   0.977   1.063  0.1222  0.1064 -0.4741
 8803TIP3    H126373   4.725   0.886   1.041 -0.2375  0.6268 -2.5432
 8803TIP3    H226374   4.827   0.995   1.017  1.2182  0.3358  1.4463
 8804TIP3   OH226375   4.889   2.509   1.921 -0.0652  0.5287  0.1373
 8804TIP3    H126376   4.826   2.478   1.857 -1.2776  0.7828  1.1716
 8804TIP3    H226377   4.888   2.604   1.912 -0.4594  0.5833  0.7247
 8805TIP3   OH226378   2.994   1.328   5.363 -0.1474 -0.5768 -0.5580
 8805TIP3    H126379   3.084   1.308   5.390 -0.4274 -0.7434  0.2798
 8805TIP3    H226380   2.975   1.266   5.292  0.3442 -0.6446 -0.6312
 8806TIP3   OH226381   1.856   3.068   0.110 -0.1306  0.0614  0.0970
 8806TIP3    H126382   1.816   3.148   0.143  0.5214 -0.1168  1.3828
 8806TIP3    H226383   1.802   2.998   0.146  0.7357 -0.1442  1.0698
 8807TIP3   OH226384   4.274   6.388   4.030 -0.5582  0.0442  0.4554
 8807TIP3    H126385   4.325   6.416   3.954 -1.2262  0.3699  0.1233
 8807TIP3    H226386   4.340   6.354   4.092  0.1641  1.3799  0.4516
 8808TIP3   OH226387   1.117   0.978   2.728 -0.0825  0.0496 -0.4089
 8808TIP3    H126388   1.164   1.021   2.799  2.2524 -0.5292 -1.5168
 8808TIP3    H226389   1.112   1.043   2.659 -1.0245  0.1321 -0.2722
 8809TIP3   OH226390   5.369   1.849   1.734 -0.5455  0.2467  0.1658
 8809TIP3    H126391   5.290   1.885   1.692 -0.2907  1.0201  0.3253
 8809TIP3    H226392   5.437   1.860   1.668 -0.3987  0.3627  0.3355
 8810TIP3   OH226393   7.110   0.749   1.704 -0.0398  0.1905 -0.3028
 8810TIP3    H126394   7.156   0.670   1.729  1.8395  1.6142  1.0601
 8810TIP3    H226395   7.140   0.815   1.767 -2.5966  1.6614 -0.4861
 8811TIP3   OH226396   1.667   6.610   5.673 -0.1220  0.0582 -0.0904
 8811TIP3    H126397   1.704   6.606   5.761 -1.2641 -1.2077  0.3709
 8811TIP3    H226398   1.572   6.604   5.687 -0.3233  0.0136 -1.3927
 8812TIP3   OH226399   4.989   5.589   0.512 -0.6736 -0.8776  0.5475
 8812TIP3    H126400   4.945   5.660   0.464  0.1704  0.0268  1.0633
 8812TIP3    H226401   4.917   5.532   0.540 -1.2762 -0.8065 -0.7819
 8813TIP3   OH226402   0.077   2.615   2.592  0.0189  0.5717  0.6832
 8813TIP3    H126403   0.010   2.622   2.524  1.4743  1.1485 -0.7474
 8813TIP3    H226404   0.156   2.653   2.553  1.4527 -0.9060  1.9621
 8814TIP3   OH226405   2.061   0.086   5.730 -0.0992 -0.0729  0.2589
 8814TIP3    H126406   2.065   0.014   5.667 -0.5917 -0.9604  1.2165
 8814TIP3    H226407   1.972   0.120   5.722  0.1427  0.4581 -0.2137
 8815TIP3   OH226408   7.063   6.506   4.678 -0.2203 -0.2837 -0.0632
 8815TIP3    H126409   7.122   6.580   4.663  0.4933 -0.8930 -0.3219
 8815TIP3    H226410   6.977   6.546   4.690 -0.0664  0.5298 -1.4482
 8816TIP3   OH226411   2.972   1.059   2.585  0.1971  0.6629  1.0259
 8816TIP3    H126412   3.027   1.138   2.592 -1.3787  1.8814  0.2827
 8816TIP3    H226413   2.932   1.065   2.498  1.7329 -2.1599 -0.0089
 8817TIP3   OH226414   4.537   0.492   2.339 -0.3042  0.8596 -0.0421
 8817TIP3    H126415   4.533   0.558   2.409 -0.1387 -1.3574  2.2316
 8817TIP3    H226416   4.630   0.484   2.320 -0.2285  0.5749  0.4283
 8818TIP3   OH226417   4.273   0.569   1.947 -0.2560 -0.1003  0.0826
 8818TIP3    H126418   4.209   0.619   1.997  0.8770  0.5552  0.9371
 8818TIP3    H226419   4.316   0.634   1.892  0.7558 -0.2302  0.6941
 8819TIP3   OH226420   1.199   3.935   2.494 -0.4049  0.2866 -0.0900
 8819TIP3    H126421   1.159   3.942   2.581 -0.5145 -2.1345  0.1148
 8819TIP3    H226422   1.286   3.972   2.505 -0.5146  0.2651  0.9751
 8820TIP3   OH226423   3.710   6.598   5.029 -0.2228  0.1738 -0.1299
 8820TIP3    H126424   3.685   6.552   5.109 -0.3226  1.2366  0.4801
 8820TIP3    H226425   3.664   6.682   5.035 -0.4016  0.1784 -1.4136
 8821TIP3   OH226426   0.381   6.647   1.003  0.0185 -0.7345 -0.2086
 8821TIP3    H126427   0.386   6.728   0.951 -0.6893 -0.4930  0.0946
 8821TIP3    H226428   0.448   6.658   1.070  0.9503 -1.0483 -1.0473
 8822TIP3   OH226429   4.900   0.920   0.338 -0.5015  0.0192  0.1419
 8822TIP3    H126430   4.951   0.854   0.384 -0.6235  0.6917  1.2704
 8822TIP3    H226431   4.829   0.943   0.399 -0.9658  0.5590 -0.5798
 8823TIP3   OH226432   5.796   4.474   1.148 -0.4948 -0.2654 -0.4636
 8823TIP3    H126433   5.769   4.387   1.176  0.1523 -0.7590 -1.3360
 8823TIP3    H226434   5.716   4.526   1.151 -1.1624 -1.2234 -1.2004
 8824TIP3   OH226435   0.331   4.802   2.801  0.0604  0.1443 -0.3955
 8824TIP3    H126436   0.342   4.887   2.845 -0.7988  0.9695 -1.6724
 8824TIP3    H226437   0.418   4.763   2.801  0.4583  0.9918  0.3071
 8825TIP3   OH226438   3.991   3.569   0.935 -0.0963 -0.2657  0.7195
 8825TIP3    H126439   4.026   3.505   0.873 -0.1816  0.6636 -0.3181
 8825TIP3    H226440   3.905   3.592   0.900  0.2645  1.0086  0.6134
 8826TIP3   OH226441   2.810   2.377   0.510 -0.0678 -0.2711  0.2475
 8826TIP3    H126442   2.841   2.448   0.454 -0.9523  1.2691  1.6312
 8826TIP3    H226443   2.715   2.385   0.509 -0.1527 -1.0198  0.9442
 8827TIP3   OH226444   5.249   5.271   1.532  0.3284  0.3393 -0.0723
 8827TIP3    H126445   5.196   5.315   1.598 -1.8454 -1.0493 -0.7820
 8827TIP3    H226446   5.212   5.300   1.448 -1.0376 -2.4973 -0.5612
 8828TIP3   OH226447   1.329   2.394   4.109 -0.1091  0.4916  0.6897
 8828TIP3    H126448   1.336   2.425   4.019 -0.4742  1.0714  0.8571
 8828TIP3    H226449   1.378   2.312   4.110  0.5227  0.8519  0.1393
 8829TIP3   OH226450   1.400   1.294   1.697 -1.3046  0.2487 -0.3029
 8829TIP3    H126451   1.421   1.342   1.777 -0.4304  0.4811 -0.6599
 8829TIP3    H226452   1.305   1.291   1.695 -1.3241 -0.1397  0.9670
 8830TIP3   OH226453   1.194   1.661   4.075  0.1920 -0.4320 -0.5062
 8830TIP3    H126454   1.181   1.693   3.986 -0.3775 -0.7726 -0.5504
 8830TIP3    H226455   1.212   1.568   4.065 -0.5777 -0.6188 -0.2282
 8831TIP3   OH226456   5.693   2.643   3.113 -0.2391  0.2575 -0.4572
 8831TIP3    H126457   5.615   2.640   3.058 -1.2905 -0.6842  1.0186
 8831TIP3    H226458   5.753   2.702   3.067 -2.1299  1.6734 -1.2271
 8832TIP3   OH226459   3.462   0.134   4.284 -0.4346 -0.1764 -0.6352
 8832TIP3    H126460   3.531   0.070   4.267 -0.2385  0.4739 -2.3619
 8832TIP3    H226461   3.439   0.169   4.199 -2.6031 -0.0480 -0.0606
 8833TIP3   OH226462   2.210   4.575   2.030 -0.2234  0.0995 -0.0880
 8833TIP3    H126463   2.153   4.591   1.955  0.1018 -0.8232 -0.5446
 8833TIP3    H226464   2.204   4.481   2.046  0.8261  0.0564  0.1270
 8834TIP3   OH226465   0.339   3.998   5.862 -0.0619  0.1788 -0.0617
 8834TIP3    H126466   0.326   4.048   5.781  0.9422  0.3024 -0.1650
 8834TIP3    H226467   0.298   3.914   5.846  2.2540 -0.7474 -1.6910
 8835TIP3   OH226468   4.776   0.350   5.649 -0.1920 -0.3564  0.4483
 8835TIP3    H126469   4.705   0.396   5.605 -1.5859 -1.4632  1.4587
 8835TIP3    H226470   4.824   0.307   5.579 -2.4924 -2.2751 -0.0848
 8836TIP3   OH226471   0.596   2.278   0.511 -0.1990 -0.8492 -0.4250
 8836TIP3    H126472   0.586   2.191   0.550  0.3625 -1.4555 -1.5774
 8836TIP3    H226473   0.689   2.282   0.487  0.0468  0.5255  0.6176
 8837TIP3   OH226474   1.233   0.163   0.681  0.4807 -0.1343 -0.6713
 8837TIP3    H126475   1.230   0.073   0.713  1.8143  0.2538  0.6859
 8837TIP3    H226476   1.187   0.214   0.748  0.1449  0.2646 -1.1941
 8838TIP3   OH226477   6.434   2.346   4.595  0.0938 -0.4262 -0.1128
 8838TIP3    H126478   6.398   2.423   4.638 -0.5337  0.1011 -1.5149
 8838TIP3    H226479   6.527   2.366   4.585 -0.4736  1.4888 -2.9527
 8839TIP3   OH226480   3.959   1.611   0.144 -0.7159 -0.2089  0.0412
 8839TIP3    H126481   3.985   1.701   0.166 -1.7253 -0.1861  1.2598
 8839TIP3    H226482   3.902   1.621   0.068  1.6732 -0.1441 -1.8385
 8840TIP3   OH226483   6.679   3.970   2.316 -0.1394  0.3367  0.7387
 8840TIP3    H126484   6.637   4.033   2.257 -1.0750 -2.2139 -1.4780
 8840TIP3    H226485   6.609   3.943   2.375 -0.4621 -0.5921 -0.0565
 8841TIP3   OH226486   5.988   0.262   2.188  0.0180  0.4008 -0.1493
 8841TIP3    H126487   5.931   0.313   2.247 -1.9415 -0.2233 -1.3985
 8841TIP3    H226488   6.045   0.326   2.148  0.4923  1.0117  1.4181
 8842TIP3   OH226489   0.289   0.571   2.361 -0.3695 -0.2055  0.0255
 8842TIP3    H126490   0.263   0.549   2.450  1.4670  2.4789  1.3631
 8842TIP3    H226491   0.357   0.507   2.340  1.0012  0.6477  1.6306
 8843TIP3   OH226492   5.994   3.999   4.758 -0.3212 -0.3696 -0.7747
 8843TIP3    H126493   6.044   3.923   4.728 -1.4271 -0.7746 -1.6472
 8843TIP3    H226494   5.948   4.030   4.680  0.5611  1.5814 -0.5692
 8844TIP3   OH226495   6.127   5.899   3.946 -0.0871 -0.2199  0.2004
 8844TIP3    H126496   6.106   5.897   3.853  1.0887  0.1106 -0.0891
 8844TIP3    H226497   6.197   5.965   3.953 -0.7995  0.4407  1.4474
 8845TIP3   OH226498   2.650   4.539   4.368  0.3632 -0.3520 -0.0023
 8845TIP3    H126499   2.650   4.608   4.301  0.6545 -0.8737 -0.5414
 8845TIP3    H226500   2.732   4.553   4.416 -0.5372  0.9673  1.2553
 8846TIP3   OH226501   1.778   5.965   5.108 -0.1543 -0.8607  0.1818
 8846TIP3    H126502   1.861   6.012   5.118 -0.7983  0.1733  0.8226
 8846TIP3    H226503   1.771   5.950   5.013  0.0134  0.4467 -0.0537
 8847TIP3   OH226504   1.620   5.894   3.100  0.4836  0.0955  0.4399
 8847TIP3    H126505   1.546   5.846   3.137  1.7291 -1.6028  0.8682
 8847TIP3    H226506   1.581   5.953   3.036 -1.1130 -2.2149 -0.8799
 8848TIP3   OH226507   0.805   6.270   4.699  0.2010  0.3788  0.1499
 8848TIP3    H126508   0.818   6.199   4.637 -3.5278  0.0971 -0.5467
 8848TIP3    H226509   0.848   6.346   4.658  3.5320 -1.1171  0.5380
 8849TIP3   OH226510   3.103   0.373   2.582  0.1241 -0.1385 -1.0556
 8849TIP3    H126511   3.015   0.399   2.611 -0.4382 -0.4174 -2.4294
 8849TIP3    H226512   3.088   0.301   2.521  1.4513 -1.5567  0.2108
 8850TIP3   OH226513   6.807   6.570   1.853  0.4588 -0.4681 -0.0619
 8850TIP3    H126514   6.871   6.508   1.888 -0.0234 -1.4787 -0.9256
 8850TIP3    H226515   6.722   6.535   1.882  0.2527  0.8014  0.9903
 8851TIP3   OH226516   4.559   6.728   1.773 -0.0519 -0.1549  0.4350
 8851TIP3    H126517   4.496   6.790   1.810  0.4627  0.2608  0.6389
 8851TIP3    H226518   4.605   6.693   1.849 -0.8039 -1.3190  0.3728
 8852TIP3   OH226519   2.216   1.698   2.028 -0.5393  0.0756  0.1483
 8852TIP3    H126520   2.166   1.618   2.014 -0.1865  0.1344 -1.6680
 8852TIP3    H226521   2.152   1.759   2.067 -1.0086 -0.8108  0.8183
 8853TIP3   OH226522   5.229   4.008   5.429  0.9790 -0.2388 -0.5024
 8853TIP3    H126523   5.195   3.923   5.401 -0.2526 -0.1556  0.6084
 8853TIP3    H226524   5.177   4.072   5.380  0.0238 -0.1204  0.6149
 8854TIP3   OH226525   0.914   4.583   2.659  0.3812  0.3061 -0.2814
 8854TIP3    H126526   0.875   4.497   2.638  0.3793 -0.0965  1.2236
 8854TIP3    H226527   0.954   4.570   2.744  0.5332  1.7789 -0.1093
 8855TIP3   OH226528   0.425   6.190   2.618 -0.3516  0.2343 -0.4409
 8855TIP3    H126529   0.451   6.282   2.624 -1.6017  0.6316 -0.6966
 8855TIP3    H226530   0.498   6.141   2.656 -0.2975  1.4249  1.0762
 8856TIP3   OH226531   6.097   2.366   0.445 -0.0930  0.7166 -1.1061
 8856TIP3    H126532   6.048   2.417   0.509  0.2747 -1.7550  1.3418
 8856TIP3    H226533   6.188   2.393   0.459 -0.0487  0.4100 -0.7779
 8857TIP3   OH226534   3.751   2.598   0.247 -0.0104  0.6990  0.0696
 8857TIP3    H126535   3.750   2.509   0.282  1.8571  0.1714 -1.0717
 8857TIP3    H226536   3.706   2.591   0.163 -1.7717  1.3309  0.9042
 8858TIP3   OH226537   4.096   2.646   5.613  0.0121  0.0192  0.0611
 8858TIP3    H126538   4.062   2.575   5.668 -1.1281 -1.1360 -2.0122
 8858TIP3    H226539   4.036   2.719   5.628  0.0438 -0.0940  0.7639
 8859TIP3   OH226540   0.845   6.083   4.507  0.1633 -0.4421 -0.2996
 8859TIP3    H126541   0.891   6.005   4.538 -0.3273 -0.9008 -0.7180
 8859TIP3    H226542   0.890   6.106   4.425  1.3598  0.6799  0.6363
 8860TIP3   OH226543   5.626   6.735   3.929 -0.5389  0.2147 -0.2854
 8860TIP3    H126544   5.680   6.810   3.908 -2.0320  1.4107 -0.0352
 8860TIP3    H226545   5.665   6.698   4.008 -0.7424  1.7753  0.5898
 8861TIP3   OH226546   6.537   6.153   4.337  0.2645 -0.3115  0.2883
 8861TIP3    H126547   6.475   6.189   4.274 -0.7193 -0.0576  1.3602
 8861TIP3    H226548   6.623   6.178   4.304 -0.1932 -0.6149 -1.1940
 8862TIP3   OH226549   4.191   6.119   0.678  0.3598  0.4275  0.1544
 8862TIP3    H126550   4.220   6.187   0.618  0.4391 -0.3746 -0.7488
 8862TIP3    H226551   4.262   6.054   0.678 -0.5394 -0.5914 -0.5322
 8863TIP3   OH226552   5.761   1.979   2.185  0.1912 -0.2303 -0.5849
 8863TIP3    H126553   5.683   1.927   2.203 -0.5932  0.8604 -0.7430
 8863TIP3    H226554   5.776   2.029   2.265 -0.2198  0.7336 -1.0921
 8864TIP3   OH226555   1.398   1.512   2.640 -0.4066  0.5653 -0.4256
 8864TIP3    H126556   1.342   1.562   2.699 -0.7313  0.6812 -0.8260
 8864TIP3    H226557   1.352   1.430   2.625 -0.1852  0.4146 -0.2880
 8865TIP3   OH226558  -0.011   3.132   3.780  0.4895  0.7378  0.0002
 8865TIP3    H126559   0.060   3.093   3.730 -0.0203  1.4094 -1.2896
 8865TIP3    H226560  -0.038   3.209   3.729 -1.7420  0.0128 -0.0266
 8866TIP3   OH226561   5.779   1.413   4.654 -0.0151 -0.4163 -0.3825
 8866TIP3    H126562   5.761   1.323   4.626  1.6092 -0.7034 -0.6107
 8866TIP3    H226563   5.766   1.412   4.749  0.0252 -0.9044 -0.3807
 8867TIP3   OH226564   1.343   5.392   3.666  0.3269 -0.2264 -0.6092
 8867TIP3    H126565   1.299   5.398   3.751  0.0178  1.7732 -0.8580
 8867TIP3    H226566   1.425   5.440   3.678  1.0240 -1.2761 -1.0313
 8868TIP3   OH226567   5.307   2.771   5.503 -0.5849 -0.0932 -0.5098
 8868TIP3    H126568   5.332   2.840   5.442 -0.5588  0.5206  0.1734
 8868TIP3    H226569   5.222   2.740   5.472 -1.0672  0.9469 -0.2616
 8869TIP3   OH226570   1.375   3.620   5.454  0.2204  0.0474  0.2797
 8869TIP3    H126571   1.454   3.653   5.410  0.1675 -0.4017 -0.1586
 8869TIP3    H226572   1.380   3.657   5.542 -0.1490  1.7461 -0.3773
 8870TIP3   OH226573   2.614   6.237   3.138  0.2644  0.4317 -0.0517
 8870TIP3    H126574   2.531   6.226   3.093 -0.8650 -0.4445  2.0957
 8870TIP3    H226575   2.650   6.149   3.144  0.6770  0.6167  0.2316
 8871TIP3   OH226576   3.291   6.442   3.785  0.3831 -0.6715  0.3694
 8871TIP3    H126577   3.247   6.449   3.700  0.1429  0.8423  0.5865
 8871TIP3    H226578   3.227   6.476   3.848  1.3172  0.2349  0.8650
 8872TIP3   OH226579   4.889   1.161   5.267 -0.4202  0.0240  0.5206
 8872TIP3    H126580   4.930   1.235   5.222  0.7186 -0.6992  0.3266
 8872TIP3    H226581   4.864   1.196   5.352  1.5826  0.2532  1.0694
 8873TIP3   OH226582   0.150   1.212   3.828 -0.2919 -0.0067  0.1139
 8873TIP3    H126583   0.165   1.306   3.825  0.3657 -0.0639  1.0996
 8873TIP3    H226584   0.226   1.177   3.875  0.2680 -1.2186 -1.5803
 8874TIP3   OH226585   4.678   5.476   1.599 -0.5961 -0.0530  0.0466
 8874TIP3    H126586   4.747   5.536   1.571  0.5799 -2.0565 -1.5471
 8874TIP3    H226587   4.724   5.408   1.649 -1.7445 -0.2945  0.8234
 8875TIP3   OH226588   6.461   1.564   1.374 -0.0406  0.4392  0.1798
 8875TIP3    H126589   6.437   1.471   1.381 -1.4237  0.7858  0.2928
 8875TIP3    H226590   6.505   1.571   1.290 -0.8440 -0.1462 -0.3050
 8876TIP3   OH226591   4.992   5.759   1.090 -0.2233 -0.2651 -0.0255
 8876TIP3    H126592   5.001   5.848   1.057 -3.5346  0.7943  1.4196
 8876TIP3    H226593   4.970   5.770   1.183 -0.0507 -2.6465  0.3743
 8877TIP3   OH226594   3.446   3.525   3.971  0.3375  0.6866  0.3401
 8877TIP3    H126595   3.496   3.512   4.052  1.2911  0.7628 -0.2270
 8877TIP3    H226596   3.503   3.578   3.916 -0.4808  0.9924 -0.2256
 8878TIP3   OH226597   3.342   1.664   5.763  0.0250 -0.2504 -0.2286
 8878TIP3    H126598   3.298   1.730   5.817 -0.6279  0.6690 -1.8098
 8878TIP3    H226599   3.296   1.582   5.782  1.6850 -0.6419  2.7570
 8879TIP3   OH226600   0.172   3.965   4.630  0.2981  0.2408 -0.2918
 8879TIP3    H126601   0.113   3.902   4.589  0.1676  0.2648 -0.1429
 8879TIP3    H226602   0.246   3.972   4.570  0.2588  0.0329 -0.3641
 8880TIP3   OH226603   5.813   4.987   1.967 -0.1496  0.0251  0.7963
 8880TIP3    H126604   5.759   5.059   1.999  0.6383  1.7492 -1.4506
 8880TIP3    H226605   5.776   4.909   2.008 -3.3203  1.2819  0.6012
 8881TIP3   OH226606   0.985   0.832   5.398 -0.0511  0.0248 -0.2817
 8881TIP3    H126607   1.021   0.758   5.447 -0.4112 -1.2946 -1.9108
 8881TIP3    H226608   0.921   0.871   5.457  0.3199 -0.8099  0.7055
 8882TIP3   OH226609   2.304   6.594   3.891  0.0657 -0.6692  0.3988
 8882TIP3    H126610   2.234   6.618   3.951 -0.4883 -0.6702 -0.2283
 8882TIP3    H226611   2.262   6.594   3.805  0.8740 -0.5315 -0.0042
 8883TIP3   OH226612   3.035   1.693   4.771 -0.9268  0.0548 -0.3550
 8883TIP3    H126613   3.104   1.658   4.827 -1.7756  1.0816  1.4198
 8883TIP3    H226614   2.994   1.763   4.823 -2.3318  0.4861 -1.9260
 8884TIP3   OH226615   5.159   2.857   2.730 -0.3520 -0.1071 -0.0862
 8884TIP3    H126616   5.179   2.870   2.638  0.2806 -1.5621 -0.1834
 8884TIP3    H226617   5.083   2.799   2.730 -0.2739 -0.2148  0.3064
 8885TIP3   OH226618   6.482   0.554   3.511 -0.1738  0.2573  0.1078
 8885TIP3    H126619   6.458   0.646   3.511 -0.2330  0.2773  1.7715
 8885TIP3    H226620   6.445   0.519   3.431 -2.1691  1.1842  0.5712
 8886TIP3   OH226621   4.857   2.429   2.208 -0.3081 -0.0537  0.4270
 8886TIP3    H126622   4.812   2.506   2.243 -0.0412  0.3389 -0.0806
 8886TIP3    H226623   4.789   2.382   2.160 -0.4943 -0.1868  0.8156
 8887TIP3   OH226624   5.000   2.039   4.839  0.5707  0.4148 -0.2106
 8887TIP3    H126625   4.985   1.954   4.797  2.4640  0.1949 -0.5365
 8887TIP3    H226626   4.973   2.103   4.774  1.1204  0.0549 -0.8067
 8888TIP3   OH226627   6.281   3.253   0.638  0.1768 -0.1525  0.1715
 8888TIP3    H126628   6.359   3.281   0.686 -0.1488  0.6814  0.2340
 8888TIP3    H226629   6.241   3.188   0.695  0.3696  0.0444  0.5428
 8889TIP3   OH226630   1.431   5.545   4.410 -0.0432 -0.6103 -0.2782
 8889TIP3    H126631   1.494   5.474   4.423 -0.7541 -1.0453  1.0260
 8889TIP3    H226632   1.380   5.518   4.333  0.1952 -1.1327 -0.2583
 8890TIP3   OH226633   1.148   1.503   1.752  0.1977  0.2672 -0.1182
 8890TIP3    H126634   1.125   1.418   1.714  0.6099 -0.1423  0.5460
 8890TIP3    H226635   1.182   1.553   1.677 -1.3019  0.3305 -0.7892
 8891TIP3   OH226636   7.151   2.748   3.131  0.5948 -0.2876 -0.2191
 8891TIP3    H126637   7.102   2.720   3.053  1.9314 -0.7590 -0.9241
 8891TIP3    H226638   7.191   2.831   3.106  1.2618 -0.5816 -0.1594
 8892TIP3   OH226639   4.649   1.783   1.680  0.4219  0.1451 -0.2944
 8892TIP3    H126640   4.675   1.843   1.610  2.6015 -0.6718 -0.2765
 8892TIP3    H226641   4.578   1.731   1.642 -0.5330  1.7493 -0.7865
 8893TIP3   OH226642   6.449   5.697   3.904 -0.3006  0.2443 -0.0831
 8893TIP3    H126643   6.423   5.768   3.845 -0.3012  1.6936  1.5457
 8893TIP3    H226644   6.486   5.630   3.847 -0.2191  1.5887 -1.7012
 8894TIP3   OH226645   5.448   1.362   2.254 -0.2510 -0.7527 -0.3163
 8894TIP3    H126646   5.474   1.409   2.175 -1.9218  0.2089 -0.3461
 8894TIP3    H226647   5.469   1.270   2.236 -1.3743 -0.6719 -2.2342
 8895TIP3   OH226648   1.846   5.663   5.656  0.0811  0.6995  0.2682
 8895TIP3    H126649   1.895   5.714   5.592  0.3270  0.5616  0.3455
 8895TIP3    H226650   1.865   5.705   5.740 -0.0496  0.7344  0.2806
 8896TIP3   OH226651   6.202   4.812   0.107  0.5356  0.5293  0.6823
 8896TIP3    H126652   6.194   4.879   0.039  1.9238 -0.1051 -0.1365
 8896TIP3    H226653   6.134   4.748   0.086  0.7102  0.5254  0.1189
 8897TIP3   OH226654   4.308   4.212   5.437  0.1460 -0.6869  0.2240
 8897TIP3    H126655   4.340   4.152   5.369  0.9471  0.2736 -0.2867
 8897TIP3    H226656   4.388   4.253   5.472 -0.3608 -0.1005  0.7246
 8898TIP3   OH226657   1.152   1.717   1.524 -0.2398  0.4041 -0.3084
 8898TIP3    H126658   1.246   1.725   1.508 -0.1563  2.5584  0.9036
 8898TIP3    H226659   1.111   1.769   1.455 -0.3578  1.7184  0.7088
 8899TIP3   OH226660   1.101   3.615   0.353  0.4010  0.3328 -0.5937
 8899TIP3    H126661   1.155   3.637   0.277 -0.0436 -1.6239 -1.5385
 8899TIP3    H226662   1.014   3.598   0.317  0.3529 -1.3696  0.1907
 8900TIP3   OH226663   5.876   3.800   2.938  0.3687  0.3844 -0.4448
 8900TIP3    H126664   5.916   3.887   2.928 -3.6251  2.5860  0.2363
 8900TIP3    H226665   5.811   3.795   2.868 -2.1483 -0.2110  1.7281
 8901TIP3   OH226666   6.106   1.023   5.637 -0.3068  0.5200 -0.5148
 8901TIP3    H126667   6.171   1.031   5.707  0.0504 -0.0219 -0.7833
 8901TIP3    H226668   6.076   1.113   5.623  0.1548  0.7339 -0.1705
 8902TIP3   OH226669   0.764   3.052   2.480 -0.5888  0.0815 -0.5312
 8902TIP3    H126670   0.692   3.059   2.543 -1.4532  0.6658 -1.5579
 8902TIP3    H226671   0.731   3.095   2.401  0.9320  0.4366 -0.9962
 8903TIP3   OH226672   5.953   6.757   2.997  0.1303 -0.0032 -0.4252
 8903TIP3    H126673   5.885   6.823   2.982  0.5816  0.0383 -2.4961
 8903TIP3    H226674   5.904   6.677   3.016 -0.4225  0.6356  1.0575
 8904TIP3   OH226675   0.988   2.017   5.797  0.1084  0.7733 -0.1099
 8904TIP3    H126676   1.030   1.953   5.854 -0.7792  0.9338  0.7605
 8904TIP3    H226677   0.938   2.072   5.856 -0.8440  0.9520 -1.0456
 8905TIP3   OH226678   0.740   3.362   0.754  0.2489  0.1334 -0.1507
 8905TIP3    H126679   0.756   3.405   0.670 -0.6026 -0.9670 -0.8930
 8905TIP3    H226680   0.721   3.434   0.814 -1.2494  0.8294 -1.3886
 8906TIP3   OH226681   5.849   3.888   4.246 -0.0085 -0.4733 -0.5133
 8906TIP3    H126682   5.904   3.926   4.179 -0.8131  1.7709  0.0162
 8906TIP3    H226683   5.910   3.853   4.311  0.8343  1.2841 -0.3044
 8907TIP3   OH226684   0.039   2.977   0.674  0.2397 -0.0342  0.1491
 8907TIP3    H126685   0.033   2.897   0.727  0.9853  0.2880  0.7321
 8907TIP3    H226686   0.101   3.033   0.721 -0.0210  0.7598 -0.4262
 8908TIP3   OH226687   5.343   0.996   5.720  0.4384  0.0621 -0.2437
 8908TIP3    H126688   5.431   0.991   5.683 -0.0621 -2.8685 -1.3039
 8908TIP3    H226689   5.285   1.007   5.644 -0.1849  1.6828  0.4166
 8909TIP3   OH226690   4.148   4.661   2.055 -0.1274  0.1547 -0.3400
 8909TIP3    H126691   4.211   4.639   2.125 -0.3171 -0.3904 -0.3318
 8909TIP3    H226692   4.138   4.756   2.061 -1.5013 -0.0498  1.5720
 8910TIP3   OH226693   5.470   6.031   4.920  0.0175  0.0392  0.0643
 8910TIP3    H126694   5.432   6.039   5.008 -1.2246 -1.2463 -0.3294
 8910TIP3    H226695   5.527   5.955   4.925  2.1149  1.5350  0.4481
 8911TIP3   OH226696   0.620   6.419   3.479 -0.0801  0.0834 -1.0913
 8911TIP3    H126697   0.627   6.498   3.532 -2.3617  0.9619 -1.9896
 8911TIP3    H226698   0.693   6.364   3.509  0.6380  1.8532  0.6437
 8912TIP3   OH226699   4.112   3.152   4.226 -0.2598  0.0805 -0.1025
 8912TIP3    H126700   4.170   3.150   4.302 -1.6880 -0.6680  1.0131
 8912TIP3    H226701   4.170   3.134   4.151  1.1304  0.6078  0.8168
 8913TIP3   OH226702   6.788   5.192   5.324 -0.6314 -0.1613 -0.1039
 8913TIP3    H126703   6.715   5.234   5.279  0.9629  2.0483 -0.7605
 8913TIP3    H226704   6.748   5.117   5.369 -3.1387  0.5173 -1.0389
 8914TIP3   OH226705   4.743   2.954   5.349 -0.0660 -0.3582  0.2276
 8914TIP3    H126706   4.710   2.864   5.353 -2.7104  0.5608  1.7559
 8914TIP3    H226707   4.721   2.983   5.260 -1.6110 -0.4596  0.5434
 8915TIP3   OH226708   4.260   5.677   2.745  0.1959 -0.2144  0.4338
 8915TIP3    H126709   4.175   5.633   2.750  0.1840 -0.1884  0.4632
 8915TIP3    H226710   4.324   5.606   2.747  0.1999 -0.1988  1.1370
 8916TIP3   OH226711   1.643   6.208   5.032 -0.1101 -0.6548 -0.2736
 8916TIP3    H126712   1.598   6.244   5.108 -1.1475 -1.2686 -0.5723
 8916TIP3    H226713   1.718   6.161   5.069  2.1438  2.8271  0.0540
 8917TIP3   OH226714   3.195   5.613   0.522  0.0637  0.0464  0.1830
 8917TIP3    H126715   3.266   5.655   0.570  0.2530  0.5112 -0.4764
 8917TIP3    H226716   3.120   5.617   0.580  0.5590 -0.4171  0.8760
 8918TIP3   OH226717   4.982   3.112   4.735 -0.0818 -0.5793 -0.1790
 8918TIP3    H126718   5.074   3.115   4.761 -0.3735 -1.0141  0.9457
 8918TIP3    H226719   4.983   3.075   4.647  0.9336  0.8872 -0.8259
 8919TIP3   OH226720   3.237   3.718   1.211 -0.0835 -0.0369  0.1038
 8919TIP3    H126721   3.255   3.751   1.300  1.5747  0.5954 -0.4362
 8919TIP3    H226722   3.196   3.633   1.225  1.3905 -0.5676  1.4960
 8920TIP3   OH226723   5.594   0.006   2.451 -0.0156  0.4205  0.3123
 8920TIP3    H126724   5.557  -0.054   2.515 -0.0835 -0.1781 -0.2746
 8920TIP3    H226725   5.557   0.092   2.474  1.7171  0.6611  2.4491
 8921TIP3   OH226726   1.586   3.465   1.190 -0.0868  0.7453 -0.0618
 8921TIP3    H126727   1.637   3.486   1.269 -0.1327  3.0630 -0.5805
 8921TIP3    H226728   1.545   3.381   1.210  0.7024  0.7809  1.9836
 8922TIP3   OH226729   5.679   4.298   3.886 -0.2551 -0.0126  0.5872
 8922TIP3    H126730   5.751   4.234   3.882 -1.2772 -1.1270 -0.7236
 8922TIP3    H226731   5.623   4.277   3.812 -2.0442  0.7419  1.6510
 8923TIP3   OH226732   7.118   5.572   0.654 -0.3828 -0.3817  0.6524
 8923TIP3    H126733   7.043   5.519   0.626 -0.2459  1.0657 -3.0885
 8923TIP3    H226734   7.080   5.659   0.671  0.2778  0.2435 -0.8501
 8924TIP3   OH226735   0.252   6.427   0.573  0.3345 -0.0762 -0.0521
 8924TIP3    H126736   0.247   6.351   0.515 -2.1623  0.6186 -0.8322
 8924TIP3    H226737   0.173   6.422   0.627 -0.0692  2.1095 -0.3333
 8925TIP3   OH226738   4.032   5.455   1.704  0.2931 -0.1989  0.1052
 8925TIP3    H126739   3.984   5.481   1.783 -0.2555 -2.5472  0.6510
 8925TIP3    H226740   4.105   5.516   1.699 -1.3195  1.9087  0.6921
 8926TIP3   OH226741   6.490   1.294   5.051 -0.0789  0.4765 -0.4144
 8926TIP3    H126742   6.426   1.337   5.108  0.1711  0.7969 -0.3747
 8926TIP3    H226743   6.464   1.321   4.963 -1.0077 -0.7375 -0.5297
 8927TIP3   OH226744   6.681   4.048   1.698  0.4489 -0.1054  0.2092
 8927TIP3    H126745   6.762   4.005   1.725  0.9232 -0.4554 -1.6718
 8927TIP3    H226746   6.612   3.998   1.742  1.2088  0.0118  1.5852
 8928TIP3   OH226747   6.184   0.715   3.972  0.5798 -0.0935  0.3073
 8928TIP3    H126748   6.214   0.768   4.047  1.3333 -0.6730  0.4312
 8928TIP3    H226749   6.109   0.666   4.006 -1.2127  2.0755 -0.2714
 8929TIP3   OH226750   0.354   2.018   2.862  0.2156 -0.8295 -0.3276
 8929TIP3    H126751   0.263   2.036   2.839  0.1033  0.4483  1.0133
 8929TIP3    H226752   0.403   2.038   2.782 -0.3616  1.6406 -0.1325
 8930TIP3   OH226753   6.109   5.914   3.205 -0.1421 -0.4242 -0.6787
 8930TIP3    H126754   6.194   5.947   3.175  0.5921 -2.6459 -1.3018
 8930TIP3    H226755   6.045   5.974   3.169  1.1597  1.6472  0.2752
 8931TIP3   OH226756   4.638   4.441   0.259 -0.4534 -0.1475  0.3823
 8931TIP3    H126757   4.699   4.420   0.188 -2.5876 -0.1229 -1.5684
 8931TIP3    H226758   4.589   4.360   0.274 -1.9420  0.6159 -0.1878
 8932TIP3   OH226759   2.160   1.348   1.396 -0.0797  0.2554  0.6492
 8932TIP3    H126760   2.188   1.427   1.443 -0.1487  0.5553  0.1855
 8932TIP3    H226761   2.215   1.346   1.318 -1.7228  1.1770 -0.5982
 8933TIP3   OH226762   2.584   6.356   2.002 -0.2160  0.3419  0.4181
 8933TIP3    H126763   2.535   6.294   1.947 -2.0322  2.2356 -0.2659
 8933TIP3    H226764   2.569   6.441   1.960  3.6996  1.0987  0.2572
 8934TIP3   OH226765   4.405   0.449   3.115 -0.1601 -0.1031 -0.0451
 8934TIP3    H126766   4.434   0.518   3.175 -0.3626  0.9340 -1.0853
 8934TIP3    H226767   4.454   0.371   3.141  0.4097  0.5441  0.8799
 8935TIP3   OH226768   2.559   2.398   0.683  0.1403 -0.2660 -0.8587
 8935TIP3    H126769   2.504   2.409   0.761  0.2278 -2.2786 -0.4624
 8935TIP3    H226770   2.619   2.473   0.685  0.5641 -0.6035  1.3935
 8936TIP3   OH226771   1.535   2.609   5.822 -0.2592  0.0707 -0.0564
 8936TIP3    H126772   1.495   2.532   5.781 -1.2469 -0.4885  1.8369
 8936TIP3    H226773   1.617   2.577   5.858 -0.5947 -0.0708  0.5920
 8937TIP3   OH226774   1.756   4.628   5.814  0.0022  0.2586  0.1097
 8937TIP3    H126775   1.823   4.677   5.860  0.2203  1.0868 -1.0428
 8937TIP3    H226776   1.674   4.653   5.856 -0.2190  3.5986 -1.9163
 8938TIP3   OH226777   7.001   5.583   4.006 -0.3986 -0.3375 -0.1952
 8938TIP3    H126778   6.943   5.608   4.078  2.2763  1.6483  1.4315
 8938TIP3    H226779   7.010   5.488   4.013  0.5980 -0.1099  2.8346
 8939TIP3   OH226780   6.918   3.970   1.770  0.6282 -0.5131  0.0104
 8939TIP3    H126781   6.956   3.973   1.857  2.6240 -3.7089 -0.5774
 8939TIP3    H226782   6.978   4.020   1.715 -0.1331  0.7231  0.2774
 8940TIP3   OH226783   6.335   6.052   4.526 -0.5627 -0.2894  0.4455
 8940TIP3    H126784   6.407   6.097   4.481 -0.0261 -1.1602  0.4151
 8940TIP3    H226785   6.260   6.111   4.517 -0.0610  0.2561 -0.2339
 8941TIP3   OH226786   0.009   5.887   5.716  0.0619  0.2895 -0.2370
 8941TIP3    H126787   0.034   5.855   5.629  0.8135  1.0294 -0.3030
 8941TIP3    H226788   0.039   5.819   5.776  1.1870  0.6105 -0.4138
 8942TIP3   OH226789   6.149   4.826   4.430  0.1161 -0.0822 -0.0150
 8942TIP3    H126790   6.236   4.857   4.405  0.0251  2.4006  2.2828
 8942TIP3    H226791   6.091   4.901   4.415 -1.5547 -1.4104 -0.6973
 8943TIP3   OH226792   4.901   4.144   5.572 -0.3172  0.7673 -0.4463
 8943TIP3    H126793   4.873   4.166   5.661  0.2526  0.7886 -0.2680
 8943TIP3    H226794   4.913   4.049   5.574 -0.5202  0.7392 -0.5632
 8944TIP3   OH226795   6.201   1.236   3.562  0.6261 -0.6573 -0.0294
 8944TIP3    H126796   6.166   1.325   3.570 -0.7097 -1.0946 -0.6945
 8944TIP3    H226797   6.296   1.248   3.565  0.5320  0.9756 -1.5202
 8945TIP3   OH226798   5.581   4.842   3.136 -0.4904 -0.1232  0.3708
 8945TIP3    H126799   5.533   4.838   3.053  0.6280 -0.4691 -0.2738
 8945TIP3    H226800   5.563   4.758   3.179 -2.0539  0.5275  1.0669
 8946TIP3   OH226801   1.467   4.376   5.906  0.3902  0.2650  0.1547
 8946TIP3    H126802   1.513   4.451   5.868  0.8437 -0.1639 -0.1459
 8946TIP3    H226803   1.451   4.317   5.832  0.8256 -0.3409  0.5401
 8947TIP3   OH226804   6.438   0.273   4.473  0.2525 -0.7132 -0.2222
 8947TIP3    H126805   6.417   0.310   4.558  1.1982  0.6386 -0.5559
 8947TIP3    H226806   6.532   0.258   4.476  0.3435 -0.3443 -1.1534
 8948TIP3   OH226807   5.462   0.223   5.526  0.1246  0.1008  0.0299
 8948TIP3    H126808   5.467   0.156   5.595  3.2397  0.8958  0.7334
 8948TIP3    H226809   5.540   0.276   5.539 -2.0954  3.8480 -0.6185
 8949TIP3   OH226810   5.998   2.509   0.145  0.2400  0.3485  0.1144
 8949TIP3    H126811   5.983   2.469   0.060  2.0105  0.1713 -0.1428
 8949TIP3    H226812   5.931   2.470   0.202  0.4541 -1.2322 -0.6788
 8950TIP3   OH226813   6.895   3.823   2.206  0.0854  0.4914  0.0306
 8950TIP3    H126814   6.827   3.866   2.258  0.3366  0.2822  0.5381
 8950TIP3    H226815   6.931   3.892   2.151 -1.2268  0.4000 -0.9821
 8951TIP3   OH226816  -0.004   5.801   2.227  0.3884 -0.0969 -0.2219
 8951TIP3    H126817   0.029   5.737   2.289 -1.7686 -0.8796  0.1847
 8951TIP3    H226818   0.059   5.873   2.231  1.2056 -0.8634  1.5935
 8952TIP3   OH226819   3.645   5.236   5.090 -0.3209  0.2014  0.8433
 8952TIP3    H126820   3.738   5.237   5.066 -0.7285 -0.5669 -0.9501
 8952TIP3    H226821   3.606   5.173   5.030 -2.3107  1.8405  0.3009
 8953TIP3   OH226822   5.233   3.780   3.254 -0.3914  0.7650 -0.1845
 8953TIP3    H126823   5.242   3.790   3.159 -1.8584  0.7476 -0.3371
 8953TIP3    H226824   5.322   3.794   3.288  0.1229  0.8944 -1.5410
 8954TIP3   OH226825   1.695   3.527   3.411 -0.3343  0.2064  0.0168
 8954TIP3    H126826   1.604   3.502   3.428 -1.3115  2.0087 -2.0989
 8954TIP3    H226827   1.728   3.556   3.496 -1.9038  0.0411  0.7218
 8955TIP3   OH226828   4.232   5.651   1.621  0.0359  0.0763 -0.1091
 8955TIP3    H126829   4.280   5.572   1.647  1.8647  1.7985  2.1492
 8955TIP3    H226830   4.288   5.692   1.555 -1.3661 -0.8523 -2.0035
 8956TIP3   OH226831   1.130   1.857   3.527 -0.2736 -0.5382  0.3393
 8956TIP3    H126832   1.172   1.796   3.467 -0.2695 -0.8925  0.6963
 8956TIP3    H226833   1.037   1.834   3.524 -0.0689 -1.7756  1.8058
 8957TIP3   OH226834   1.001   5.876   4.517  0.1117  0.5295  0.0827
 8957TIP3    H126835   1.086   5.919   4.511  0.0613  0.4469 -4.4993
 8957TIP3    H226836   1.017   5.786   4.491 -1.2428  0.3091 -0.0839
 8958TIP3   OH226837   1.100   1.832   0.819 -0.2437 -0.4821 -0.1551
 8958TIP3    H126838   1.184   1.789   0.835  0.4910  1.2171  0.8192
 8958TIP3    H226839   1.077   1.806   0.730  1.9428 -0.0363 -0.9254
 8959TIP3   OH226840   3.184   4.278   3.940 -0.1823  0.4340 -0.0649
 8959TIP3    H126841   3.199   4.200   3.992  0.1589  0.1907 -0.5179
 8959TIP3    H226842   3.219   4.350   3.993 -0.1314  0.2331  0.1747
 8960TIP3   OH226843   1.644   3.630   2.007  0.1897 -0.0567 -0.3906
 8960TIP3    H126844   1.622   3.580   1.928  0.3109  0.8319 -0.9971
 8960TIP3    H226845   1.632   3.567   2.078  2.5787 -1.7022 -1.2893
 8961TIP3   OH226846   6.916   0.711   1.888 -0.0120  0.1837 -0.3039
 8961TIP3    H126847   6.972   0.705   1.811  0.2052 -1.4095 -0.0560
 8961TIP3    H226848   6.906   0.805   1.903  0.8956  0.5093 -1.5759
 8962TIP3   OH226849   3.689   5.335   3.389  0.0350  0.8101 -0.2428
 8962TIP3    H126850   3.706   5.351   3.296  0.4614  0.6281 -0.1956
 8962TIP3    H226851   3.721   5.414   3.433 -1.3805  1.4842 -0.3646
 8963TIP3   OH226852   4.868   4.636   4.849  0.0667  0.7200 -0.1454
 8963TIP3    H126853   4.840   4.679   4.768  0.1151  0.0004 -0.5492
 8963TIP3    H226854   4.846   4.699   4.918  3.3159  3.0492 -0.9286
 8964TIP3   OH226855   5.471   3.318   1.447 -0.5283 -0.3649 -0.3576
 8964TIP3    H126856   5.403   3.385   1.455 -1.9002 -1.8596  1.4169
 8964TIP3    H226857   5.429   3.246   1.400  1.3808  0.4228 -3.6803
 8965TIP3   OH226858   5.062   6.127   0.956  0.1865  0.0651 -0.4168
 8965TIP3    H126859   5.104   6.041   0.948  1.0140  0.4160 -0.0036
 8965TIP3    H226860   5.118   6.186   0.906 -1.2328  0.1103 -2.0215
 8966TIP3   OH226861   4.104   1.108   0.594  0.2972  0.5594  0.0055
 8966TIP3    H126862   4.092   1.013   0.593 -2.2642  0.7909  0.9026
 8966TIP3    H226863   4.135   1.127   0.683 -0.3312  0.6433  0.2127
 8967TIP3   OH226864   1.897   1.493   1.375  0.1748 -0.4380 -0.1652
 8967TIP3    H126865   1.984   1.454   1.383  0.3779  0.0465  0.0240
 8967TIP3    H226866   1.864   1.461   1.291  1.0321  0.3409 -0.8244
 8968TIP3   OH226867   4.998   4.673   5.274  0.5384 -0.7207 -0.1743
 8968TIP3    H126868   4.941   4.710   5.207  1.8950  0.1537 -0.8926
 8968TIP3    H226869   5.084   4.666   5.231  1.5620  0.2861  1.6024
 8969TIP3   OH226870   0.056   1.720   0.833 -0.1478 -0.0758 -0.2997
 8969TIP3    H126871   0.132   1.667   0.807 -0.4625 -1.1199  0.7927
 8969TIP3    H226872  -0.014   1.656   0.848 -0.8017  0.7335  0.1704
 8970TIP3   OH226873   2.358   3.153   4.932 -0.3966 -0.6377  0.0992
 8970TIP3    H126874   2.341   3.160   5.026 -0.0917 -0.8567  0.1725
 8970TIP3    H226875   2.380   3.242   4.905 -2.1863 -0.2120 -0.1156
 8971TIP3   OH226876   2.547   2.633   5.060  0.4040  0.2482 -0.2339
 8971TIP3    H126877   2.523   2.570   5.129  0.9740 -0.6184 -0.8007
 8971TIP3    H226878   2.601   2.582   4.999 -1.1656  0.6200 -2.0318
 8972TIP3   OH226879   3.637   3.895   1.235 -0.1163  0.1584 -0.7576
 8972TIP3    H126880   3.614   3.856   1.320  0.0069  2.5901  0.4832
 8972TIP3    H226881   3.698   3.832   1.196  0.4464 -0.6899  1.3242
 8973TIP3   OH226882   4.683   5.033   5.022 -0.5310  0.3575 -1.0301
 8973TIP3    H126883   4.682   5.106   5.084  0.3396  0.0593 -0.6462
 8973TIP3    H226884   4.768   5.042   4.978 -1.1798  0.6312 -2.2595
 8974TIP3   OH226885   4.986   3.190   2.071 -0.5090  0.1644 -0.0691
 8974TIP3    H126886   5.043   3.267   2.076 -0.8596  0.3362  1.8519
 8974TIP3    H226887   4.988   3.165   1.978  3.2237 -0.2440 -0.0310
 8975TIP3   OH226888   2.352   0.260   2.024  0.4430  0.2314  0.1804
 8975TIP3    H126889   2.359   0.171   1.990  0.0771 -0.1174  1.0030
 8975TIP3    H226890   2.270   0.293   1.987 -0.6024 -0.5888  1.6910
 8976TIP3   OH226891   0.830   4.246   0.138  0.5853  0.1659 -0.0739
 8976TIP3    H126892   0.920   4.213   0.145  0.0375 -1.6183 -0.9350
 8976TIP3    H226893   0.777   4.169   0.119 -1.3388  0.9901  1.5452
 8977TIP3   OH226894   4.816   0.579   1.901 -0.1075  0.0187 -0.2857
 8977TIP3    H126895   4.771   0.595   1.818 -1.6541 -0.1077  0.4921
 8977TIP3    H226896   4.766   0.629   1.965  0.4852 -0.6620  0.7312
 8978TIP3   OH226897   1.772   0.800   4.989  0.7036  0.2877 -0.6838
 8978TIP3    H126898   1.837   0.866   5.013  0.2214  0.9884 -1.2535
 8978TIP3    H226899   1.821   0.718   4.981  1.5188  0.8189 -1.1770
 8979TIP3   OH226900   0.113   5.576   2.372  0.0367 -0.3453 -0.5455
 8979TIP3    H126901   0.165   5.538   2.302  0.5103 -1.3896  0.3387
 8979TIP3    H226902   0.144   5.532   2.451  0.2584  1.5513  0.4733
 8980TIP3   OH226903   3.175   5.220   1.760 -0.0232  0.6072 -0.2647
 8980TIP3    H126904   3.089   5.215   1.801 -1.0347  1.4713 -2.1268
 8980TIP3    H226905   3.237   5.207   1.831 -1.6882  0.2937  1.1855
 8981TIP3   OH226906   2.983   6.693   1.740  0.2241 -0.2581 -0.5514
 8981TIP3    H126907   2.934   6.690   1.822  0.9004  0.3352 -0.1174
 8981TIP3    H226908   2.949   6.770   1.694 -0.1692 -0.6016 -0.8526
 8982TIP3   OH226909   0.298   3.043   1.563 -0.2566 -0.2216  0.3132
 8982TIP3    H126910   0.218   3.094   1.571 -0.0622  0.5176 -1.9157
 8982TIP3    H226911   0.368   3.105   1.586 -0.1417  0.0544 -0.7254
 8983TIP3   OH226912   7.029   2.476   3.826 -0.2796  0.4960  0.3856
 8983TIP3    H126913   7.006   2.502   3.736 -0.4591 -0.2964  0.2019
 8983TIP3    H226914   7.011   2.554   3.878 -0.6428  0.8057 -0.1893
 8984TIP3   OH226915   3.679   0.171   1.067  0.1094  0.1431  0.4936
 8984TIP3    H126916   3.754   0.228   1.083 -0.0021  1.0332 -1.7506
 8984TIP3    H226917   3.716   0.082   1.067  1.2494  0.5852 -0.8856
 8985TIP3   OH226918   1.321   3.996   1.211 -0.1812  0.5850  0.4489
 8985TIP3    H126919   1.355   4.039   1.132 -1.5752  0.0800 -0.4573
 8985TIP3    H226920   1.361   4.045   1.283  1.9788  0.4006 -0.5274
 8986TIP3   OH226921   2.188   3.390   4.221  0.2693  0.4108 -0.3671
 8986TIP3    H126922   2.205   3.407   4.313 -1.4949 -4.8383  1.3393
 8986TIP3    H226923   2.272   3.357   4.186  0.6007  1.1563 -0.2826
 8987TIP3   OH226924   6.203   3.875   0.103  0.3670 -0.3536 -0.2351
 8987TIP3    H126925   6.229   3.887   0.011 -0.2919 -0.5120 -0.4423
 8987TIP3    H226926   6.201   3.964   0.139 -2.0978  0.0253 -1.1199
 8988TIP3   OH226927   1.814   6.333   5.592  0.2228 -0.1317 -0.0916
 8988TIP3    H126928   1.886   6.314   5.652  0.7825 -0.4169 -0.8440
 8988TIP3    H226929   1.762   6.399   5.638  1.5601  0.8824  0.0222
 8989TIP3   OH226930   3.280   5.381   4.018 -0.1575 -0.0772  0.7328
 8989TIP3    H126931   3.244   5.301   4.057 -0.0118 -0.2131  0.5833
 8989TIP3    H226932   3.240   5.386   3.932 -0.1673  0.0130  0.7423
 8990TIP3   OH226933   3.835   6.083   4.611 -0.0102  0.1316 -0.4632
 8990TIP3    H126934   3.744   6.095   4.637  0.8166  3.0249  1.5655
 8990TIP3    H226935   3.847   6.143   4.538  0.5216  0.6302  0.0240
 8991TIP3   OH226936   4.427   0.715   5.593 -0.2442 -0.1128  0.3705
 8991TIP3    H126937   4.399   0.778   5.659 -0.5711  2.4780 -2.0914
 8991TIP3    H226938   4.347   0.693   5.546  0.5398  1.3345 -1.7610
 8992TIP3   OH226939   0.783   6.379   5.801  0.1236 -0.6506 -0.0291
 8992TIP3    H126940   0.761   6.450   5.862 -1.3795  0.1197 -1.3815
 8992TIP3    H226941   0.787   6.301   5.856 -0.6350  0.0945  1.1459
 8993TIP3   OH226942   5.965   6.450   5.376  0.2283  0.2642  0.2478
 8993TIP3    H126943   5.919   6.390   5.317  2.6291 -1.0074 -0.4716
 8993TIP3    H226944   5.984   6.396   5.454  0.3322  0.8133  0.6069
 8994TIP3   OH226945   2.184   5.613   1.274  0.1312 -0.2836 -0.1469
 8994TIP3    H126946   2.235   5.536   1.249  1.8721  0.5038  0.8010
 8994TIP3    H226947   2.227   5.646   1.353 -1.4951  0.7939  0.3245
 8995TIP3   OH226948   0.484   2.243   1.262  0.6704 -0.0994  0.0654
 8995TIP3    H126949   0.523   2.156   1.251  2.4133  0.5807  0.4530
 8995TIP3    H226950   0.475   2.277   1.173 -1.5917 -1.2768 -0.2133
 8996TIP3   OH226951   2.448   5.210   0.918 -0.0918  0.0969 -0.0921
 8996TIP3    H126952   2.380   5.272   0.943 -0.5861 -0.7349  0.6663
 8996TIP3    H226953   2.527   5.264   0.909 -0.7407  1.0046 -0.5716
 8997TIP3   OH226954   0.035   1.607   1.311 -0.4675 -0.0955 -0.2727
 8997TIP3    H126955  -0.039   1.585   1.368  0.9114 -2.0473  0.9254
 8997TIP3    H226956   0.070   1.689   1.347 -0.2400 -0.7694  1.1192
 8998TIP3   OH226957   2.781   3.204   4.268  0.2397  0.4128 -0.0538
 8998TIP3    H126958   2.810   3.294   4.250  0.1245  0.5967  0.6422
 8998TIP3    H226959   2.745   3.173   4.185  1.4665  0.5497 -0.6611
 8999TIP3   OH226960   0.965   3.794   4.715 -0.0755 -0.2375  0.3779
 8999TIP3    H126961   0.954   3.727   4.647  1.4412 -1.0183  0.8637
 8999TIP3    H226962   0.984   3.875   4.666  1.8373 -0.9638 -0.1417
 9000TIP3   OH226963   4.655   5.220   0.334 -0.5662 -0.0933 -0.1978
 9000TIP3    H126964   4.654   5.144   0.393  0.7249  1.0961  1.4659
 9000TIP3    H226965   4.713   5.193   0.263 -1.5354 -1.2891 -0.5650
 9001TIP3   OH226966   4.154   5.528   4.563 -0.0761  0.1593 -0.0166
 9001TIP3    H126967   4.178   5.454   4.618 -1.5880  0.4460  1.1189
 9001TIP3    H226968   4.059   5.520   4.552 -0.0108  0.9103 -1.4196
 9002TIP3   OH226969   4.071   1.330   4.076  0.2692 -0.0264 -0.2354
 9002TIP3    H126970   4.149   1.283   4.107 -0.3612 -0.9531 -0.0182
 9002TIP3    H226971   4.032   1.271   4.011 -0.7189  0.0343  0.2855
 9003TIP3   OH226972   6.798   0.455   2.517  0.2027 -0.6274  0.1364
 9003TIP3    H126973   6.851   0.458   2.596  0.3642  0.0397  0.0112
 9003TIP3    H226974   6.862   0.450   2.446  0.1818  1.4215 -0.0869
 9004TIP3   OH226975   5.519   3.724   1.414 -0.3499  0.6450  0.3463
 9004TIP3    H126976   5.501   3.636   1.446  1.0631  0.3464  0.4101
 9004TIP3    H226977   5.614   3.734   1.425 -0.1966  1.4618 -1.4107
 9005TIP3   OH226978   5.555   1.019   3.569  0.2071 -0.2161 -0.4609
 9005TIP3    H126979   5.502   1.011   3.648  1.7311 -0.0516  0.6119
 9005TIP3    H226980   5.635   1.061   3.598  0.3748  0.8496 -2.3087
 9006TIP3   OH226981   5.754   0.173   1.448 -0.4737  0.0753  0.1550
 9006TIP3    H126982   5.772   0.132   1.533  0.9736  0.2019 -0.0655
 9006TIP3    H226983   5.774   0.105   1.384  2.0969  1.0592 -0.2226
 9007TIP3   OH226984   3.847   2.907   3.469 -0.2927 -0.3520 -0.1961
 9007TIP3    H126985   3.821   2.826   3.425 -1.4105  0.7144 -1.5560
 9007TIP3    H226986   3.766   2.940   3.509 -0.4978  1.4805 -1.9834
 9008TIP3   OH226987   4.794   4.732   1.175  0.1468 -0.2873 -0.5960
 9008TIP3    H126988   4.864   4.685   1.220  0.9293  1.8846  0.6008
 9008TIP3    H226989   4.832   4.818   1.155 -2.1180  0.9266  0.0252
 9009TIP3   OH226990   3.421   6.751   3.395 -0.4167 -0.2903 -0.3712
 9009TIP3    H126991   3.454   6.686   3.456 -0.1972  0.5615  0.4419
 9009TIP3    H226992   3.467   6.832   3.418 -1.4599  0.4091 -0.6524
 9010TIP3   OH226993   3.033   5.463   0.304  0.2684  0.0891  0.1652
 9010TIP3    H126994   3.072   5.533   0.357 -0.1479  2.3575 -2.2753
 9010TIP3    H226995   3.046   5.492   0.214 -3.6329 -0.8460 -0.9027
 9011TIP3   OH226996   5.915   2.273   4.727  0.1615 -0.3158 -0.2674
 9011TIP3    H126997   5.841   2.333   4.718  1.0460  0.5659 -2.2331
 9011TIP3    H226998   5.879   2.188   4.700 -0.2176  0.0506 -0.9552
 9012TIP3   OH226999   1.775   5.527   4.639  0.3243  0.1040  0.7693
 9012TIP3    H127000   1.702   5.465   4.637 -1.1898  1.8046  1.2634
 9012TIP3    H227001   1.736   5.610   4.664  1.8006  1.9895 -2.5834
 9013TIP3   OH227002   1.230   0.242   2.522 -0.0533 -0.3960 -0.7193
 9013TIP3    H127003   1.277   0.158   2.518 -0.6411 -0.7820  0.0460
 9013TIP3    H227004   1.170   0.239   2.448 -2.6886 -2.3332  1.2758
 9014TIP3   OH227005   3.245   5.662   3.454  0.1758  0.0405  0.0012
 9014TIP3    H127006   3.268   5.677   3.546  1.6257  0.0565 -0.3362
 9014TIP3    H227007   3.257   5.746   3.411  1.7893 -0.4659 -0.6206
 9015TIP3   OH227008   1.291   0.569   3.909  0.0693  0.7068  0.1947
 9015TIP3    H127009   1.207   0.529   3.932  0.4315 -2.3358 -2.9685
 9015TIP3    H227010   1.356   0.515   3.954  0.4384  0.7938 -0.2338
 9016TIP3   OH227011   2.664   5.393   0.920 -0.7450 -0.3085  0.5989
 9016TIP3    H127012   2.635   5.442   0.996  0.4764  1.0407  0.2565
 9016TIP3    H227013   2.730   5.332   0.954 -2.4097 -1.9222  1.0570
 9017TIP3   OH227014   4.354   6.419   3.754 -0.6350  0.3788 -0.0218
 9017TIP3    H127015   4.269   6.439   3.715 -0.7468 -0.8668 -0.4687
 9017TIP3    H227016   4.415   6.479   3.711 -1.2623  1.2181  0.2370
 9018TIP3   OH227017   5.165   2.311   5.079  0.2954 -0.1830 -0.1928
 9018TIP3    H127018   5.195   2.289   5.168  0.8642 -0.2552 -0.3959
 9018TIP3    H227019   5.071   2.299   5.082  0.2845  0.0255  0.4649
 9019TIP3   OH227020   4.274   3.598   0.817 -0.0810  0.1940 -0.0056
 9019TIP3    H127021   4.337   3.662   0.848 -0.0160 -0.9805  2.5624
 9019TIP3    H227022   4.218   3.647   0.756 -0.4098  2.8858  2.2579
 9020TIP3   OH227023   6.730   3.703   0.924  0.1029 -0.0472 -0.0688
 9020TIP3    H127024   6.639   3.685   0.899 -0.5253  0.9277  1.3758
 9020TIP3    H227025   6.778   3.624   0.898 -1.5594 -1.5543  1.1613
 9021TIP3   OH227026   2.607   2.124   4.505 -0.0764  0.2577 -0.3664
 9021TIP3    H127027   2.521   2.164   4.489 -0.3484  0.3985  1.2761
 9021TIP3    H227028   2.611   2.114   4.600  0.7235 -1.9985 -0.5869
 9022TIP3   OH227029   0.836   2.152   3.969 -0.2866 -0.0180  0.1391
 9022TIP3    H127030   0.809   2.143   4.060 -4.4837  3.6657 -0.3895
 9022TIP3    H227031   0.773   2.099   3.920 -0.4674  0.9873 -0.7493
 9023TIP3   OH227032   4.014   2.353   5.783 -0.2577 -0.2144 -0.1812
 9023TIP3    H127033   3.921   2.357   5.761 -0.1177  0.2178 -0.7338
 9023TIP3    H227034   4.016   2.339   5.877 -0.9292  3.4270  0.5323
 9024TIP3   OH227035   2.398   5.465   2.547 -0.3087 -0.3902 -0.4466
 9024TIP3    H127036   2.480   5.426   2.574 -0.5489 -0.7053 -0.1650
 9024TIP3    H227037   2.412   5.490   2.455  0.0988 -0.4334 -0.3977
 9025TIP3   OH227038   6.192   4.526   3.218  0.3567  0.0363 -0.1510
 9025TIP3    H127039   6.212   4.463   3.149  1.6374  0.1547  0.0866
 9025TIP3    H227040   6.164   4.605   3.172  3.9675  1.1200 -0.7406
 9026TIP3   OH227041   0.082   6.598   3.033  0.1940  0.2050  0.2434
 9026TIP3    H127042   0.051   6.640   2.953  1.0995 -0.4196 -0.4619
 9026TIP3    H227043   0.041   6.647   3.104 -2.1446 -0.3854 -0.6082
 9027TIP3   OH227044   4.622   0.497   0.700  0.5724 -0.1824 -0.0026
 9027TIP3    H127045   4.578   0.474   0.781  0.8407  1.6555  0.7028
 9027TIP3    H227046   4.694   0.555   0.727  0.2392  1.0432 -1.5900
 9028TIP3   OH227047   0.033   3.310   5.255  0.4129 -0.6139  0.1964
 9028TIP3    H127048   0.091   3.348   5.322 -1.2968  2.1542  0.2682
 9028TIP3    H227049  -0.053   3.307   5.297 -0.3038 -0.6593 -1.2251
 9029TIP3   OH227050   2.871   1.903   5.763 -0.0587 -0.3865 -0.0774
 9029TIP3    H127051   2.797   1.851   5.732 -0.0954 -0.0520 -0.5600
 9029TIP3    H227052   2.948   1.848   5.744  0.1294  0.6480 -2.7565
 9030TIP3   OH227053   5.469   4.992   5.524  0.0746  0.5584 -0.1768
 9030TIP3    H127054   5.499   4.902   5.513 -0.4278  0.3421  0.1503
 9030TIP3    H227055   5.384   4.983   5.568  0.2686  1.2130  0.3470
 9031TIP3   OH227056   3.318   4.922   2.014 -0.3447 -0.3353 -0.2088
 9031TIP3    H127057   3.405   4.916   2.052 -0.5110  0.1133  0.2550
 9031TIP3    H227058   3.327   4.883   1.927  0.3734 -0.0604 -0.2638
 9032TIP3   OH227059   7.159   6.333   0.630 -0.0206 -0.0413 -0.1504
 9032TIP3    H127060   7.169   6.302   0.540  0.9265  1.1014 -0.4564
 9032TIP3    H227061   7.093   6.402   0.624  2.0101  1.9713 -0.4912
 9033TIP3   OH227062   3.882   5.411   0.033  0.0944  0.2979 -0.2607
 9033TIP3    H127063   3.971   5.445   0.032  0.5095 -0.7534 -0.6262
 9033TIP3    H227064   3.860   5.407   0.126  0.1903  1.1495 -0.1962
 9034TIP3   OH227065   6.066   3.233   4.895 -0.0250 -0.3647  0.4553
 9034TIP3    H127066   6.039   3.323   4.916  1.1556 -0.0514  0.6769
 9034TIP3    H227067   6.137   3.243   4.832 -1.2901 -1.2261 -1.1916
 9035TIP3   OH227068   6.818   1.102   0.484  0.2474  0.0700  0.2163
 9035TIP3    H127069   6.875   1.026   0.487  0.3950  0.2190  1.7881
 9035TIP3    H227070   6.783   1.102   0.395 -0.2085 -2.1500  0.3354
 9036TIP3   OH227071   2.320   0.551   2.998  0.4149 -0.5590 -0.4744
 9036TIP3    H127072   2.341   0.556   3.091 -0.4682 -2.2760 -0.1296
 9036TIP3    H227073   2.402   0.524   2.957  0.9410  0.6905 -0.2885
 9037TIP3   OH227074   1.520   1.244   1.206 -0.1778  0.1331 -0.7512
 9037TIP3    H127075   1.559   1.298   1.275  0.6715  0.7587 -1.7070
 9037TIP3    H227076   1.431   1.228   1.236  0.5008 -0.5560  1.0527
 9038TIP3   OH227077   5.244   0.987   3.160  0.1006 -0.4538 -0.0056
 9038TIP3    H127078   5.277   1.033   3.237  0.9149  2.9314 -2.1288
 9038TIP3    H227079   5.151   0.972   3.179  0.0328  1.2742  1.2958
 9039TIP3   OH227080   1.749   3.100   4.194 -0.4815  0.3715  0.1271
 9039TIP3    H127081   1.787   3.170   4.246  0.3810 -0.3861  0.5430
 9039TIP3    H227082   1.692   3.052   4.255 -0.4959  0.2687  0.0345
 9040TIP3   OH227083   5.496   5.580   5.282 -0.3471 -0.7884  0.1139
 9040TIP3    H127084   5.517   5.545   5.369  2.4919 -0.5903 -0.4045
 9040TIP3    H227085   5.501   5.675   5.293 -1.6918 -0.6901  0.0698
 9041TIP3   OH227086   2.527   3.109   2.986 -0.6752 -0.2141  0.3954
 9041TIP3    H127087   2.535   3.193   3.031  2.3611 -0.2234  0.0651
 9041TIP3    H227088   2.499   3.130   2.897 -1.1343  0.2968  0.6564
 9042TIP3   OH227089   5.013   3.850   4.249 -0.3262 -0.2888 -0.4547
 9042TIP3    H127090   4.940   3.840   4.189  0.5703 -0.7101 -1.5180
 9042TIP3    H227091   5.026   3.945   4.255 -2.3715 -0.0531  1.5719
 9043TIP3   OH227092   6.754   2.191   1.246 -0.2064  0.0673  0.0912
 9043TIP3    H127093   6.833   2.162   1.291 -0.2438 -1.9572 -1.0462
 9043TIP3    H227094   6.760   2.287   1.246  1.6433 -0.0141  1.0496
 9044TIP3   OH227095   2.203   0.145   3.735  0.2382  0.4486 -0.7970
 9044TIP3    H127096   2.218   0.144   3.830  1.2716  0.0173 -0.9500
 9044TIP3    H227097   2.140   0.074   3.720  1.7696 -1.0243 -0.6579
 9045TIP3   OH227098   6.022   2.915   3.809 -0.8413  0.0659  0.7056
 9045TIP3    H127099   5.964   2.983   3.844 -0.9819 -0.1067  0.8099
 9045TIP3    H227100   6.035   2.939   3.718 -0.7187  0.3512  0.7979
 9046TIP3   OH227101   0.705   5.390   3.211  0.0524  0.3468 -0.1335
 9046TIP3    H127102   0.744   5.356   3.131  0.3089  1.5326 -0.5425
 9046TIP3    H227103   0.654   5.466   3.182 -2.0158 -0.7367  0.4835
 9047TIP3   OH227104   5.451   1.056   1.462  0.4307  0.1028  0.2844
 9047TIP3    H127105   5.414   1.080   1.546  2.9531  0.7302  1.3148
 9047TIP3    H227106   5.452   0.960   1.463 -2.8313 -0.0667 -0.6708
 9048TIP3   OH227107   1.905   1.026   4.532  0.4871 -0.0805  0.4059
 9048TIP3    H127108   1.989   0.980   4.526  2.0829  1.9208  4.0923
 9048TIP3    H227109   1.857   0.977   4.599 -1.0504 -0.7423 -1.1209
 9049TIP3   OH227110   6.593   5.829   3.318 -0.6015  0.0301 -0.3236
 9049TIP3    H127111   6.544   5.879   3.252 -1.4719 -1.4686 -0.8609
 9049TIP3    H227112   6.674   5.878   3.330 -0.2116  0.1378 -2.8513
 9050TIP3   OH227113   0.417   3.025   5.044  0.2266 -0.2931 -0.1359
 9050TIP3    H127114   0.436   3.115   5.072  0.6730 -0.8517  1.4469
 9050TIP3    H227115   0.457   3.019   4.957  0.1822  1.0365 -0.2736
 9051TIP3   OH227116   1.290   2.231   0.735 -0.8160 -0.3586  0.8439
 9051TIP3    H127117   1.325   2.162   0.792  0.4671 -1.2886 -0.9778
 9051TIP3    H227118   1.339   2.310   0.760 -1.1861 -0.4263  1.8611
 9052TIP3   OH227119   0.587   0.855   1.794 -0.4386  0.1498 -0.6796
 9052TIP3    H127120   0.641   0.777   1.803 -1.6909 -0.7439 -0.6979
 9052TIP3    H227121   0.603   0.904   1.875  0.6121  0.0568 -0.8157
 9053TIP3   OH227122   5.581   5.409   2.558  0.2148 -0.4252  0.3673
 9053TIP3    H127123   5.594   5.479   2.494 -0.7799  0.6330  1.2937
 9053TIP3    H227124   5.635   5.434   2.633 -1.0368 -0.0113  1.1642
 9054TIP3   OH227125   0.230   1.192   5.110 -0.1452  0.0112 -0.1072
 9054TIP3    H127126   0.136   1.178   5.125 -0.2431  1.4278  0.8163
 9054TIP3    H227127   0.233   1.258   5.040  0.0898  1.4609  1.2274
 9055TIP3   OH227128   6.287   1.708   1.139 -0.3448  0.1249  0.4341
 9055TIP3    H127129   6.379   1.685   1.154 -0.2243  1.0921  1.3574
 9055TIP3    H227130   6.244   1.691   1.223 -1.0596 -0.5011 -0.0472
 9056TIP3   OH227131   4.975   4.707   1.723  0.5582 -0.0551  0.1266
 9056TIP3    H127132   4.911   4.742   1.661 -0.0601  0.0749  0.8310
 9056TIP3    H227133   4.986   4.616   1.696 -0.3724 -0.2486  0.3538
 9057TIP3   OH227134   0.403   4.703   1.228 -0.0990 -0.2236  0.1660
 9057TIP3    H127135   0.399   4.777   1.289 -1.8997  0.8382 -1.1442
 9057TIP3    H227136   0.393   4.625   1.283 -1.2790  0.6739  1.2876
 9058TIP3   OH227137   3.723   0.396   3.138  0.0714 -0.2086  0.3063
 9058TIP3    H127138   3.674   0.424   3.061 -0.9241  2.3314  1.7149
 9058TIP3    H227139   3.656   0.374   3.202  0.8821 -2.4024  0.4828
 9059TIP3   OH227140   4.121   4.083   4.102 -0.4258  0.2093 -0.0189
 9059TIP3    H127141   4.031   4.112   4.118 -0.5195  0.1531 -0.4469
 9059TIP3    H227142   4.172   4.125   4.172 -0.6601  0.8942 -0.2444
 9060TIP3   OH227143   6.551   4.814   1.578 -0.1018  0.4357 -0.0115
 9060TIP3    H127144   6.560   4.735   1.525 -1.1204  0.7888 -0.7401
 9060TIP3    H227145   6.569   4.886   1.518 -0.7293  0.8203  0.2474
 9061TIP3   OH227146   1.116   1.420   1.140  0.4962  0.0594 -0.1800
 9061TIP3    H127147   1.127   1.325   1.134 -0.9012 -0.1397  0.0861
 9061TIP3    H227148   1.201   1.452   1.170  1.2804 -0.9996 -1.1840
 9062TIP3   OH227149   3.262   5.507   5.768 -0.2772  0.5786  0.1172
 9062TIP3    H127150   3.279   5.559   5.689  0.0366 -0.4827 -0.5299
 9062TIP3    H227151   3.194   5.445   5.742  0.8945 -0.7930  0.2136
 9063TIP3   OH227152   4.847   1.883   1.453 -0.1722  0.2575 -0.0198
 9063TIP3    H127153   4.787   1.956   1.470  0.1571  0.5730 -0.1724
 9063TIP3    H227154   4.803   1.830   1.387 -0.8000 -0.1625  0.7162
 9064TIP3   OH227155   3.477   0.482   1.889  0.4351 -0.2323  0.1430
 9064TIP3    H127156   3.510   0.425   1.820 -1.5247 -0.1154 -0.9609
 9064TIP3    H227157   3.523   0.453   1.968  3.6175  0.4047 -1.3272
 9065TIP3   OH227158   0.737   4.332   5.163  0.6816 -0.4307  0.1584
 9065TIP3    H127159   0.788   4.277   5.223  0.9325 -2.1365 -1.5217
 9065TIP3    H227160   0.652   4.290   5.158  1.3239 -1.6073 -2.2472
 9066TIP3   OH227161   3.487   5.680   0.035  0.1540 -0.2892 -0.0321
 9066TIP3    H127162   3.565   5.711   0.082 -1.0007  0.9676  1.1514
 9066TIP3    H227163   3.519   5.660  -0.053  1.7546  0.5489  0.3042
 9067TIP3   OH227164   0.214   2.924   4.796  0.6378 -0.2264  0.1178
 9067TIP3    H127165   0.297   2.907   4.752 -1.2617 -1.5882 -3.3817
 9067TIP3    H227166   0.199   2.846   4.850  1.3758 -0.2174  0.3371
 9068TIP3   OH227167   2.275   0.535   5.611  0.3699  0.1548 -0.0434
 9068TIP3    H127168   2.211   0.493   5.669  1.1546 -0.0772  0.6769
 9068TIP3    H227169   2.359   0.500   5.640  1.0181  1.9182  0.2958
 9069TIP3   OH227170   3.014   6.634   0.565  0.8370  0.3724  0.2357
 9069TIP3    H127171   3.069   6.691   0.511  2.6418  0.1530  1.7336
 9069TIP3    H227172   2.961   6.585   0.502  4.0897 -1.1880 -1.5070
 9070TIP3   OH227173   6.878   5.577   3.235 -0.0352  0.1067  0.0995
 9070TIP3    H127174   6.861   5.615   3.149 -1.5670 -0.7200  0.0039
 9070TIP3    H227175   6.973   5.574   3.242  0.1274  1.7587 -0.8439
 9071TIP3   OH227176   2.413   5.271   3.087  0.4139  1.1477  0.3498
 9071TIP3    H127177   2.474   5.256   3.015 -0.8637  2.1886 -0.9965
 9071TIP3    H227178   2.469   5.286   3.163  1.8202 -2.3105  0.1767
 9072TIP3   OH227179   5.095   0.928   0.625 -0.4835 -0.0528 -0.4440
 9072TIP3    H127180   5.078   1.019   0.600 -0.9649 -0.6611 -2.5575
 9072TIP3    H227181   5.166   0.899   0.568 -1.4456 -1.4576 -1.0150
 9073TIP3   OH227182   0.557   4.845   5.700  0.1649  0.0370  0.4961
 9073TIP3    H127183   0.524   4.931   5.727 -1.8764 -0.8995  1.1870
 9073TIP3    H227184   0.502   4.782   5.746  1.4165 -1.6782 -0.2099
 9074TIP3   OH227185   1.941   6.544   3.387  0.0963  0.0542  0.4826
 9074TIP3    H127186   1.958   6.636   3.367 -1.9366  0.5070  0.5609
 9074TIP3    H227187   2.004   6.496   3.334  1.6279  1.4928  0.9248
 9075TIP3   OH227188   1.072   5.575   5.330  0.5420  0.2155  0.5987
 9075TIP3    H127189   1.099   5.527   5.252  2.2288  0.4479  1.0072
 9075TIP3    H227190   0.980   5.551   5.341  0.9541 -1.8870  0.0413
 9076TIP3   OH227191   5.926   0.369   0.053  0.1494 -0.2158  0.5408
 9076TIP3    H127192   5.987   0.433   0.017 -1.6326  0.8843 -0.6635
 9076TIP3    H227193   5.898   0.407   0.137  0.6905 -0.4728  0.8451
 9077TIP3   OH227194   0.994   2.863   0.844  0.2419 -0.1669 -0.3380
 9077TIP3    H127195   0.998   2.877   0.749 -1.5933 -0.8159 -0.5574
 9077TIP3    H227196   0.915   2.908   0.872  0.2081 -0.8360  0.7170
 9078TIP3   OH227197   6.836   5.936   3.405 -0.4648  0.2265  0.2493
 9078TIP3    H127198   6.921   5.920   3.365 -0.5284 -1.1597  0.6503
 9078TIP3    H227199   6.856   5.992   3.480  0.5951 -2.6889  2.3046
 9079TIP3   OH227200   6.673   5.591   0.347  0.0468  0.6445  0.3870
 9079TIP3    H127201   6.753   5.545   0.322  0.7814  2.0592  0.0410
 9079TIP3    H227202   6.615   5.522   0.379  1.4366 -0.3983  0.7621
 9080TIP3   OH227203   2.782   6.716   2.908  0.1091 -0.1175 -0.7159
 9080TIP3    H127204   2.838   6.781   2.951 -1.6942 -0.0781  1.8303
 9080TIP3    H227205   2.819   6.631   2.934 -0.5097 -0.0870  0.3195
 9081TIP3   OH227206   2.974   3.163   2.692 -0.2925 -0.3988 -0.3790
 9081TIP3    H127207   3.020   3.145   2.610 -1.4487 -0.1527 -1.1059
 9081TIP3    H227208   2.997   3.091   2.749  1.8171  0.2513 -0.3478
 9082TIP3   OH227209   3.439   4.373   0.943 -0.0504 -0.2444 -0.2172
 9082TIP3    H127210   3.365   4.351   0.999 -0.0451  1.5045  0.5272
 9082TIP3    H227211   3.416   4.456   0.903  2.0048  1.0276  1.0487
 9083TIP3   OH227212   0.622   1.878   0.052 -0.3533 -0.3219 -0.3782
 9083TIP3    H127213   0.603   1.785   0.061 -0.5657 -0.4419 -1.7577
 9083TIP3    H227214   0.695   1.893   0.112  2.0046 -2.1792 -2.5017
 9084TIP3   OH227215   5.892   4.704   5.198  0.1190 -0.1514 -0.4176
 9084TIP3    H127216   5.835   4.669   5.266 -2.3195 -0.7710 -2.6395
 9084TIP3    H227217   5.833   4.724   5.125  2.4087  1.7936 -1.8852
 9085TIP3   OH227218   6.743   6.830   1.648 -0.3624 -0.0305 -0.0957
 9085TIP3    H127219   6.766   6.756   1.704  2.6267  0.7408 -0.1395
 9085TIP3    H227220   6.686   6.792   1.581  0.6175 -2.1917  0.1963
 9086TIP3   OH227221   1.366   4.860   4.090 -0.0708 -0.4077 -0.0525
 9086TIP3    H127222   1.424   4.937   4.085 -1.0426  0.3996  0.6728
 9086TIP3    H227223   1.284   4.889   4.052 -0.6642 -0.8576  0.8397
 9087TIP3   OH227224   3.008   5.266   3.568 -0.6647 -0.4310 -0.0924
 9087TIP3    H127225   2.916   5.252   3.586 -1.0789 -0.7665 -2.2074
 9087TIP3    H227226   3.043   5.179   3.549 -0.4023 -0.0945 -1.2404
 9088TIP3   OH227227   3.678   0.329   5.667  0.3156 -0.2245 -0.0836
 9088TIP3    H127228   3.592   0.321   5.625  1.1750 -0.5571 -1.8753
 9088TIP3    H227229   3.707   0.238   5.678  0.1068 -0.1429  1.2967
 9089TIP3   OH227230   5.122   3.075   3.177 -0.8542 -0.0521  0.3007
 9089TIP3    H127231   5.131   3.078   3.082  0.4899  1.0918  0.4313
 9089TIP3    H227232   5.097   2.985   3.196  2.3746 -1.3861 -0.9245
 9090TIP3   OH227233   3.785   6.246   1.444 -0.4109  0.3458 -0.3834
 9090TIP3    H127234   3.790   6.265   1.537 -0.3042  0.2887 -0.3773
 9090TIP3    H227235   3.835   6.316   1.402  0.5911 -0.3078 -0.3129
 9091TIP3   OH227236   2.534   3.265   3.449  0.2578 -0.0888  0.4293
 9091TIP3    H127237   2.607   3.323   3.430  1.1866 -1.2858  0.1632
 9091TIP3    H227238   2.502   3.293   3.535  1.5264 -0.0077  0.9007
 9092TIP3   OH227239   4.843   4.463   3.340  0.1103 -0.7661  0.4555
 9092TIP3    H127240   4.915   4.514   3.377  0.8578 -1.0143 -0.6213
 9092TIP3    H227241   4.792   4.436   3.417  1.1323 -0.5438  1.2454
 9093TIP3   OH227242   3.289   1.312   5.493 -0.0137  0.6688  0.1223
 9093TIP3    H127243   3.269   1.296   5.585  3.3664  0.7106  0.9907
 9093TIP3    H227244   3.294   1.225   5.454 -1.5347  0.6536 -0.1124
 9094TIP3   OH227245   3.851   3.356   1.538  0.1538 -0.6531  0.0359
 9094TIP3    H127246   3.859   3.350   1.633 -0.8145 -1.4314  0.0869
 9094TIP3    H227247   3.932   3.318   1.504 -0.0799 -1.6499  0.5567
 9095TIP3   OH227248   2.421   6.144   1.850  0.0365  0.2823 -0.0420
 9095TIP3    H127249   2.342   6.188   1.819  0.3803  0.2205 -1.0489
 9095TIP3    H227250   2.395   6.053   1.861  0.0442  0.1903 -0.7155
 9096TIP3   OH227251   4.584   6.478   4.312 -0.5755  0.3025 -0.2299
 9096TIP3    H127252   4.525   6.510   4.380 -0.1017  1.1213 -0.1850
 9096TIP3    H227253   4.595   6.385   4.331 -1.2924  0.2914  0.1728
 9097TIP3   OH227254   6.089   1.116   1.295 -0.5507  0.0907  0.3868
 9097TIP3    H127255   6.007   1.150   1.257 -1.7146 -1.9157  0.9337
 9097TIP3    H227256   6.127   1.061   1.226 -1.5054 -1.7421  1.2398
 9098TIP3   OH227257   2.735   0.289   3.588 -0.0526 -0.0428  0.1341
 9098TIP3    H127258   2.813   0.339   3.612 -1.8841  3.6504 -0.8817
 9098TIP3    H227259   2.767   0.220   3.530  2.4520  1.2587 -0.1526
 9099TIP3   OH227260   5.504   4.725   5.529  0.4503 -0.1257 -0.2574
 9099TIP3    H127261   5.515   4.649   5.586  1.1917  0.0790 -0.1127
 9099TIP3    H227262   5.555   4.704   5.451 -0.7322 -0.4953 -0.9649
 9100TIP3   OH227263   3.447   3.732   1.049  0.0958  0.1723 -0.5517
 9100TIP3    H127264   3.456   3.640   1.025 -0.9356  0.1781 -1.0122
 9100TIP3    H227265   3.375   3.734   1.112 -0.1060  0.6980 -0.7902
 9101TIP3   OH227266   2.837   3.187   3.342 -0.2402 -0.0703 -0.2857
 9101TIP3    H127267   2.800   3.274   3.327  0.1411  0.4212  1.4381
 9101TIP3    H227268   2.907   3.179   3.276 -0.5012  0.7767 -0.6735
 9102TIP3   OH227269   6.368   5.296   3.795  0.4036 -0.4213 -0.0278
 9102TIP3    H127270   6.406   5.272   3.711  0.3088 -0.6905  0.0060
 9102TIP3    H227271   6.443   5.322   3.849  0.3174  1.6660 -0.8016
 9103TIP3   OH227272   5.082   5.823   3.118  0.2797  0.1621 -0.2736
 9103TIP3    H127273   5.172   5.794   3.132  0.4370 -0.1993 -1.8662
 9103TIP3    H227274   5.029   5.769   3.177  1.0023 -0.3549 -0.0947
 9104TIP3   OH227275   1.265   4.515   2.559  0.1718  0.2721  0.1550
 9104TIP3    H127276   1.216   4.483   2.635  0.6309 -1.6084 -0.2859
 9104TIP3    H227277   1.301   4.436   2.519  1.8691  1.4204 -0.7090
 9105TIP3   OH227278   1.329   4.807   3.231  0.5131  0.4461  0.2726
 9105TIP3    H127279   1.275   4.750   3.285  0.7261 -0.9970 -0.9558
 9105TIP3    H227280   1.365   4.872   3.292 -2.7861  1.6802  1.0800
 9106TIP3   OH227281   2.010   4.902   2.297  0.2803 -0.5044  0.2414
 9106TIP3    H127282   2.088   4.868   2.253  0.0809 -1.3099  0.4801
 9106TIP3    H227283   2.005   4.851   2.378 -0.7596 -0.8099  0.0044
 9107TIP3   OH227284   4.199   1.619   4.952 -0.2887 -0.1561  0.4760
 9107TIP3    H127285   4.238   1.595   4.867 -0.1523  0.6745  0.2976
 9107TIP3    H227286   4.111   1.648   4.930 -0.4334 -0.4336  0.6847
 9108TIP3   OH227287   2.709   3.281   0.313 -0.2931  0.6012 -0.0526
 9108TIP3    H127288   2.673   3.199   0.348  1.4671  0.5589  1.8613
 9108TIP3    H227289   2.699   3.343   0.385  0.7541  1.3644 -0.5506
 9109TIP3   OH227290   0.112   6.041   4.442 -0.5481 -0.0735 -0.1566
 9109TIP3    H127291   0.183   6.067   4.384 -0.7515  0.8961  0.0090
 9109TIP3    H227292   0.113   6.106   4.512 -2.8661  1.2268 -1.2044
 9110TIP3   OH227293   6.629   3.193   5.372  0.0764  0.0223  0.0864
 9110TIP3    H127294   6.622   3.097   5.371 -0.5117  0.0647  0.0222
 9110TIP3    H227295   6.570   3.220   5.442  0.8782  0.2924  0.6670
 9111TIP3   OH227296   0.441   6.232   3.930  0.2820  0.8133  0.3422
 9111TIP3    H127297   0.430   6.173   3.856  0.3583  0.4243  0.6394
 9111TIP3    H227298   0.444   6.319   3.891 -0.1300  0.6455 -0.0717
 9112TIP3   OH227299   6.029   6.295   2.913  0.7253 -0.0520  0.5097
 9112TIP3    H127300   6.040   6.342   2.830  0.8470  0.1145  0.6189
 9112TIP3    H227301   6.106   6.318   2.964  0.2026  0.5991  1.0278
 9113TIP3   OH227302   3.021   1.183   2.309  0.6502  0.3831  0.1806
 9113TIP3    H127303   3.056   1.098   2.284  0.2625  0.5206 -0.8444
 9113TIP3    H227304   2.926   1.172   2.309  0.3629  1.6551 -3.3355
 9114TIP3   OH227305   2.230   3.877   1.300 -0.5470 -0.1612 -0.1758
 9114TIP3    H127306   2.208   3.789   1.270 -2.2374  0.4140 -0.7166
 9114TIP3    H227307   2.275   3.864   1.383 -1.4159 -1.5099  0.1098
 9115TIP3   OH227308   2.381   6.452   5.518 -0.0514 -0.3254 -0.0390
 9115TIP3    H127309   2.428   6.416   5.442 -0.7739  0.6333 -0.9682
 9115TIP3    H227310   2.300   6.487   5.481  0.0301  1.0591  1.0383
 9116TIP3   OH227311   4.730   1.462   5.398 -0.2874  0.0865 -0.1976
 9116TIP3    H127312   4.742   1.540   5.451  1.0357  0.2612 -0.7110
 9116TIP3    H227313   4.778   1.393   5.444 -1.8243 -0.5664  0.4942
 9117TIP3   OH227314   5.442   4.748   4.456 -0.4577 -0.2130  0.4352
 9117TIP3    H127315   5.406   4.660   4.452 -0.8512 -0.0158 -0.9784
 9117TIP3    H227316   5.366   4.806   4.458 -0.2177  0.1241  0.0779
 9118TIP3   OH227317   5.696   5.738   4.172 -0.4765 -0.0091  0.1789
 9118TIP3    H127318   5.738   5.656   4.199 -0.2376 -0.5373 -1.7049
 9118TIP3    H227319   5.769   5.799   4.158 -0.6073  0.2974  0.7866
 9119TIP3   OH227320   6.281   2.182   3.309  0.1549  0.1244 -0.5918
 9119TIP3    H127321   6.257   2.272   3.328  0.7271  0.6178 -2.1122
 9119TIP3    H227322   6.335   2.187   3.230 -0.4276 -1.6259 -1.1492
 9120TIP3   OH227323   5.839   4.521   2.540  0.9697  0.1687  0.3500
 9120TIP3    H127324   5.890   4.595   2.572  0.8312  1.2833 -1.7727
 9120TIP3    H227325   5.750   4.538   2.571  0.9029  1.0220 -0.2569
 9121TIP3   OH227326   0.416   0.635   3.395 -0.0935  0.3939  0.2357
 9121TIP3    H127327   0.372   0.661   3.314  0.8120  3.3453  0.5726
 9121TIP3    H227328   0.361   0.671   3.464 -0.0989 -0.8648  0.9107
 9122TIP3   OH227329   3.817   0.590   4.272  0.7467 -0.2184 -0.3986
 9122TIP3    H127330   3.802   0.646   4.348  0.2030 -0.1870 -0.5244
 9122TIP3    H227331   3.909   0.566   4.277  1.0031  0.7464 -0.3815
 9123TIP3   OH227332   3.440   4.630   5.833 -0.6544  0.7676 -0.2936
 9123TIP3    H127333   3.433   4.725   5.841 -0.2094  0.8817 -1.0945
 9123TIP3    H227334   3.521   4.616   5.783 -0.2319 -0.0705  0.5911
 9124TIP3   OH227335   4.747   4.718   0.528  0.2190  0.4490  0.0753
 9124TIP3    H127336   4.773   4.680   0.612  1.7397 -1.5265 -1.1957
 9124TIP3    H227337   4.666   4.671   0.505 -2.2047  3.3533  1.8662
 9125TIP3   OH227338   4.041   4.866   0.984 -0.1427 -0.1876 -0.5664
 9125TIP3    H127339   4.056   4.852   1.077 -0.5534 -0.1421 -0.4914
 9125TIP3    H227340   4.101   4.806   0.940 -1.9308 -2.3165 -0.2656
 9126TIP3   OH227341   5.297   0.735   1.096  0.1328 -0.0124 -0.5515
 9126TIP3    H127342   5.259   0.763   1.013 -1.5253 -0.2848  0.0647
 9126TIP3    H227343   5.277   0.805   1.157 -0.3219 -0.6253  0.0265
 9127TIP3   OH227344   5.872   4.413   3.124 -0.2865 -0.5117  0.1326
 9127TIP3    H127345   5.872   4.344   3.190 -0.4664  0.2636  0.9579
 9127TIP3    H227346   5.964   4.441   3.118 -0.0122 -1.5734 -1.0269
 9128TIP3   OH227347   0.379   2.906   0.837 -0.0999 -0.0625  0.2919
 9128TIP3    H127348   0.392   2.830   0.780  0.7851 -0.0757  0.4962
 9128TIP3    H227349   0.467   2.930   0.866 -0.5298 -0.1013  1.7117
 9129TIP3   OH227350   5.738   5.079   2.377  0.2382 -0.9156 -0.3469
 9129TIP3    H127351   5.769   5.167   2.395  2.8494 -1.8048 -0.0164
 9129TIP3    H227352   5.735   5.073   2.282 -1.1182 -0.1215 -0.3638
 9130TIP3   OH227353   5.478   5.560   3.502 -0.9494  0.5666  0.0759
 9130TIP3    H127354   5.407   5.497   3.496  0.4933 -1.1215 -0.2104
 9130TIP3    H227355   5.534   5.526   3.573  0.1385  1.2102 -0.4424
 9131TIP3   OH227356   4.290   3.055   0.797  0.4728  0.6053  1.0305
 9131TIP3    H127357   4.223   3.083   0.858 -2.5785 -1.9076 -0.8131
 9131TIP3    H227358   4.264   3.094   0.713  0.9250 -0.8760  0.1568
 9132TIP3   OH227359   4.012   6.353   2.186 -0.2044  0.0338  0.5996
 9132TIP3    H127360   4.047   6.300   2.259  1.3870  1.2209  0.7517
 9132TIP3    H227361   4.016   6.443   2.218 -0.3473  0.4950 -0.6284
 9133TIP3   OH227362   4.098   4.400   3.480  0.3485  0.5190  0.2913
 9133TIP3    H127363   4.076   4.443   3.563  1.2622 -0.1276  0.8923
 9133TIP3    H227364   4.066   4.460   3.413 -1.8365  0.3387  1.0786
 9134TIP3   OH227365   1.445   1.022   5.587 -0.1094 -0.1031 -0.3049
 9134TIP3    H127366   1.537   0.995   5.580  1.0876  2.9402  1.8614
 9134TIP3    H227367   1.426   1.062   5.502  0.5136 -0.8458 -0.8114
 9135TIP3   OH227368   1.769   5.664   3.547  0.1261 -0.1724  0.0431
 9135TIP3    H127369   1.839   5.650   3.483 -0.3108 -0.7932 -0.3124
 9135TIP3    H227370   1.761   5.760   3.553 -0.4086 -0.0810 -1.5091
 9136TIP3   OH227371   0.645   2.305   2.001 -0.5341 -0.0213  0.5704
 9136TIP3    H127372   0.653   2.400   2.010  0.1520 -0.0583  0.4650
 9136TIP3    H227373   0.615   2.291   1.911  0.8296  0.0526  0.0813
 9137TIP3   OH227374   3.410   6.267   1.998  0.1104  0.6439  0.6537
 9137TIP3    H127375   3.365   6.193   2.039 -1.1102  0.5192 -0.7980
 9137TIP3    H227376   3.487   6.229   1.957 -1.6605 -0.3579 -2.0288
 9138TIP3   OH227377   2.778   2.580   5.562  0.3612  0.3518 -0.3547
 9138TIP3    H127378   2.842   2.508   5.562  0.5381  0.5056  0.1454
 9138TIP3    H227379   2.707   2.549   5.617  0.0780  0.2498 -0.7749
 9139TIP3   OH227380   4.866   5.047   4.806 -0.0490  0.4398 -0.2239
 9139TIP3    H127381   4.790   4.989   4.816 -0.0051  0.4373  0.1192
 9139TIP3    H227382   4.849   5.096   4.725  1.5973 -2.5710 -2.6005
 9140TIP3   OH227383   6.653   2.639   2.266  0.0163  0.2216  0.5815
 9140TIP3    H127384   6.603   2.584   2.205  1.7313 -2.2609  1.2741
 9140TIP3    H227385   6.705   2.696   2.209 -0.1114 -0.4439 -0.2194
 9141TIP3   OH227386   7.176   0.617   0.914  0.2187 -0.1609 -0.0284
 9141TIP3    H127387   7.117   0.629   0.989  1.0463  0.3055  0.5572
 9141TIP3    H227388   7.138   0.673   0.846 -0.3109 -0.2698  0.1706
 9142TIP3   OH227389   3.840   0.713   3.720 -0.6182 -0.7301  0.0355
 9142TIP3    H127390   3.770   0.747   3.664 -1.6930  2.1581  2.8530
 9142TIP3    H227391   3.919   0.759   3.691 -0.6911 -0.9622 -0.5442
 9143TIP3   OH227392   0.842   3.788   5.284 -0.5787  0.1425 -0.0182
 9143TIP3    H127393   0.776   3.785   5.215  1.4999 -0.9792 -2.0858
 9143TIP3    H227394   0.898   3.862   5.261 -1.1509  1.2268  1.8360
 9144TIP3   OH227395   1.949   1.874   1.048  0.0770  0.3961  0.4535
 9144TIP3    H127396   1.887   1.906   1.114  1.3042 -2.0281  2.9561
 9144TIP3    H227397   1.904   1.800   1.007  1.1174 -1.2553  2.1513
 9145TIP3   OH227398   2.829   2.553   2.714 -0.0880  0.2322 -0.1634
 9145TIP3    H127399   2.805   2.522   2.627  0.8066 -0.2889 -0.2239
 9145TIP3    H227400   2.916   2.518   2.730 -0.1520  0.5046  0.8570
 9146TIP3   OH227401   0.901   4.384   4.421 -0.2249 -0.1767 -0.0795
 9146TIP3    H127402   0.818   4.350   4.388 -0.0239 -0.4192 -0.3381
 9146TIP3    H227403   0.963   4.371   4.349 -0.5594  2.5631 -0.9829
 9147TIP3   OH227404   4.259   6.009   1.634 -0.2083 -0.1399  0.1814
 9147TIP3    H127405   4.278   6.103   1.641  3.7282 -0.8183  1.1015
 9147TIP3    H227406   4.182   5.996   1.689 -0.2954  2.4110  0.7972
 9148TIP3   OH227407   5.799   0.504   3.710 -0.0788 -0.0409 -0.1570
 9148TIP3    H127408   5.860   0.570   3.678 -0.3275  0.0965 -0.3562
 9148TIP3    H227409   5.846   0.421   3.702  0.9228  0.2813  1.7861
 9149TIP3   OH227410   6.869   1.306   5.662 -0.8514  0.0450 -0.1429
 9149TIP3    H127411   6.834   1.252   5.592 -1.8841  1.6127 -0.8987
 9149TIP3    H227412   6.949   1.344   5.626  0.2018 -1.3627  0.5965
 9150TIP3   OH227413   6.443   0.144   5.312  0.4442  0.3671 -0.5191
 9150TIP3    H127414   6.367   0.176   5.263  0.8211  0.7335 -0.8706
 9150TIP3    H227415   6.477   0.072   5.259  0.6219  0.5132 -0.6075
 9151TIP3   OH227416   6.083   4.237   1.111 -0.2877  0.5561  0.1403
 9151TIP3    H127417   6.101   4.256   1.019 -1.3974  0.1432 -0.1780
 9151TIP3    H227418   6.142   4.164   1.132  3.0538  3.2648  1.0111
 9152TIP3   OH227419   2.280   2.156   3.093 -0.6551 -0.1817 -0.3028
 9152TIP3    H127420   2.270   2.237   3.043  2.9179  1.1376  0.8150
 9152TIP3    H227421   2.204   2.103   3.068 -2.2723  2.8072 -2.3439
 9153TIP3   OH227422   0.220   0.648   5.115  0.5104  0.1695  0.3848
 9153TIP3    H127423   0.202   0.736   5.148 -1.6906 -0.4296  0.9042
 9153TIP3    H227424   0.141   0.624   5.068  1.7227 -0.9185 -1.2151
 9154TIP3   OH227425   3.293   1.877   4.618 -0.7667  0.2231 -0.0470
 9154TIP3    H127426   3.374   1.927   4.613  0.4640 -1.8151 -1.7024
 9154TIP3    H227427   3.267   1.884   4.710  1.4609  0.6606  0.6151
 9155TIP3   OH227428   2.302   3.504   5.563 -0.1861  0.4110 -0.3701
 9155TIP3    H127429   2.345   3.582   5.529 -0.1875  0.1033 -1.1035
 9155TIP3    H227430   2.255   3.534   5.640  0.9959  0.8430  0.2161
 9156TIP3   OH227431   4.271   5.309   3.959  0.1292  0.3580  0.0553
 9156TIP3    H127432   4.346   5.350   4.003 -1.1693  0.1038  2.6823
 9156TIP3    H227433   4.201   5.374   3.966  0.1535  0.8899 -2.9927
 9157TIP3   OH227434   4.475   6.035   5.242  0.1720  0.1433  0.3279
 9157TIP3    H127435   4.512   6.047   5.154 -0.2046 -1.1755 -0.0373
 9157TIP3    H227436   4.423   6.114   5.257  0.8608  0.7316 -0.3165
 9158TIP3   OH227437   3.047   5.164   3.167 -0.5859  0.4712  0.0953
 9158TIP3    H127438   3.114   5.226   3.197 -0.1866  0.1201 -0.0685
 9158TIP3    H227439   3.065   5.084   3.217 -0.7513  0.3081 -0.1064
 9159TIP3   OH227440   5.323   0.361   3.697  0.0498  0.6673 -0.4732
 9159TIP3    H127441   5.389   0.325   3.756 -1.2616  0.2633  0.8017
 9159TIP3    H227442   5.336   0.313   3.615 -1.3325 -2.5772  1.0168
 9160TIP3   OH227443   4.775   4.084   0.287  0.0660 -0.4442 -0.2679
 9160TIP3    H127444   4.757   4.048   0.200 -2.0049  0.0710 -0.0820
 9160TIP3    H227445   4.818   4.168   0.269 -1.6003  0.3190 -0.8580
 9161TIP3   OH227446   2.366   0.735   4.862  1.1555 -0.8227  0.2107
 9161TIP3    H127447   2.351   0.681   4.784  0.1593 -0.3672  0.0767
 9161TIP3    H227448   2.320   0.689   4.932  0.9363 -0.5390  0.2526
 9162TIP3   OH227449   5.857   0.476   0.294  0.1259 -0.0745  0.3288
 9162TIP3    H127450   5.827   0.404   0.350  0.4565 -0.5117 -0.0441
 9162TIP3    H227451   5.929   0.517   0.343  0.4162 -0.4583  0.2299
 9163TIP3   OH227452   6.477   3.132   2.210  0.1545  0.0898  0.2297
 9163TIP3    H127453   6.489   3.038   2.204  1.9902  0.3157 -0.0630
 9163TIP3    H227454   6.490   3.164   2.121 -0.1962  0.6601  0.3721
 9164TIP3   OH227455   6.563   0.127   0.910 -0.5414 -0.0041  0.5486
 9164TIP3    H127456   6.507   0.189   0.957 -0.3032  0.9085 -0.3453
 9164TIP3    H227457   6.555   0.152   0.818 -1.3327 -2.0270  0.0227
 9165TIP3   OH227458   0.481   3.289   5.168 -0.6015  0.1216  0.0336
 9165TIP3    H127459   0.526   3.251   5.244 -0.5739 -0.3247 -0.2046
 9165TIP3    H227460   0.495   3.383   5.177 -0.5653  0.0689  0.5634
 9166TIP3   OH227461   4.580   0.151   2.467 -0.4122  0.5469 -0.2199
 9166TIP3    H127462   4.626   0.211   2.408 -1.1920 -1.0140 -2.5839
 9166TIP3    H227463   4.487   0.164   2.447 -0.6186 -1.0069 -0.4244
 9167TIP3   OH227464   6.891   3.070   4.530 -0.1568  0.2942  0.1707
 9167TIP3    H127465   6.909   3.099   4.441  0.9017  1.3725  0.7046
 9167TIP3    H227466   6.847   3.144   4.571  0.5648  0.3261  0.9160
 9168TIP3   OH227467   0.398   5.913   1.458  0.0715  0.4353 -0.0211
 9168TIP3    H127468   0.373   5.908   1.550  0.4059  1.2222  0.1151
 9168TIP3    H227469   0.455   5.990   1.452  0.9641 -0.2553 -0.6725
 9169TIP3   OH227470   1.146   3.211   0.034 -0.6411 -0.5036  0.6093
 9169TIP3    H127471   1.074   3.204   0.097  0.4263  1.1539  2.0956
 9169TIP3    H227472   1.217   3.160   0.074  0.2032  0.9594  1.0289
 9170TIP3   OH227473   5.560   6.134   0.651  0.1309 -0.2184 -0.1164
 9170TIP3    H127474   5.611   6.059   0.682 -0.0975 -0.3730 -0.1169
 9170TIP3    H227475   5.597   6.208   0.699  0.9537 -0.1949 -0.7678
 9171TIP3   OH227476   0.259   3.254   5.523  0.7872  0.7847 -0.7713
 9171TIP3    H127477   0.198   3.327   5.533 -0.2784  0.0862 -1.9065
 9171TIP3    H227478   0.339   3.294   5.491  0.4046  1.5283 -0.8151
 9172TIP3   OH227479   5.776   6.791   4.962 -1.1780  0.1152 -0.3109
 9172TIP3    H127480   5.771   6.784   4.867 -0.6493  0.8118 -0.3929
 9172TIP3    H227481   5.800   6.703   4.991  0.5930  0.3355 -0.9736
 9173TIP3   OH227482   5.824   4.553   4.183  0.4279 -0.0558  0.5970
 9173TIP3    H127483   5.805   4.602   4.263  1.3000 -0.4887  1.0827
 9173TIP3    H227484   5.913   4.578   4.160  0.8228 -1.2607  0.7520
 9174TIP3   OH227485   5.003   4.592   0.380  0.1231 -0.2684 -0.5954
 9174TIP3    H127486   5.058   4.624   0.451  0.2303 -0.4548 -0.5967
 9174TIP3    H227487   4.915   4.625   0.402  0.5569  1.7442 -1.6174
 9175TIP3   OH227488   2.715   3.012   3.761  0.3343  0.2110 -0.4141
 9175TIP3    H127489   2.782   3.018   3.693  1.8664  1.0019  1.0916
 9175TIP3    H227490   2.747   2.945   3.821  0.8606  1.9415  1.3694
 9176TIP3   OH227491   2.753   0.504   2.225 -0.0667 -0.0476 -0.1518
 9176TIP3    H127492   2.727   0.493   2.134 -2.1897  0.2773  0.3665
 9176TIP3    H227493   2.693   0.447   2.274  0.4195  0.4973  1.1199
 9177TIP3   OH227494   5.401   1.129   1.721 -0.0178  0.5473 -0.2707
 9177TIP3    H127495   5.494   1.114   1.735  0.0985 -0.8765 -2.1870
 9177TIP3    H227496   5.362   1.127   1.808  1.5613 -0.1093  0.4436
 9178TIP3   OH227497   3.975   2.696   2.981  0.3560  0.8833  0.0229
 9178TIP3    H127498   4.061   2.668   3.013  0.3987 -1.1275 -1.6423
 9178TIP3    H227499   3.916   2.625   3.005 -0.0244  0.3308 -2.2664
 9179TIP3   OH227500   4.595   6.391   2.643 -0.1038  0.1840 -0.1197
 9179TIP3    H127501   4.603   6.330   2.569 -1.9381 -1.3433  0.8280
 9179TIP3    H227502   4.673   6.446   2.638  0.8232 -1.1791 -2.0076
 9180TIP3   OH227503   1.071   6.428   2.047  0.3578 -0.9536 -0.0363
 9180TIP3    H127504   1.033   6.515   2.045  0.6915 -0.7884  0.4782
 9180TIP3    H227505   1.097   6.411   1.956 -0.3079 -0.7956 -0.2631
 9181TIP3   OH227506   2.214   4.949   3.411 -0.1875  0.8709  0.2440
 9181TIP3    H127507   2.241   4.865   3.449 -1.7721  0.9852  1.7795
 9181TIP3    H227508   2.213   5.009   3.486 -0.0792  2.0160 -0.6484
 9182TIP3   OH227509   2.597   3.936   0.943 -0.0140  0.4503 -0.0089
 9182TIP3    H127510   2.616   3.905   0.854  0.7929  1.7659 -0.3275
 9182TIP3    H227511   2.638   4.022   0.947 -0.5473  0.6584  1.4601
 9183TIP3   OH227512   3.997   6.435   1.422 -0.6612  0.3160 -0.3151
 9183TIP3    H127513   4.012   6.352   1.376  0.6009  0.0301  0.5461
 9183TIP3    H227514   4.065   6.493   1.387 -1.4921  0.9827 -0.8564
 9184TIP3   OH227515   0.786   6.037   5.261 -0.2468 -0.1206 -0.3109
 9184TIP3    H127516   0.785   6.112   5.202 -2.2152  1.4291  1.5119
 9184TIP3    H227517   0.704   5.990   5.242  0.7324 -1.5762 -1.0914
 9185TIP3   OH227518   2.439   4.940   0.886  0.3633  0.2556 -0.5473
 9185TIP3    H127519   2.350   4.908   0.870  1.2246 -1.1806 -3.0396
 9185TIP3    H227520   2.429   5.034   0.897 -1.5143  0.0654 -0.2320
 9186TIP3   OH227521   3.680   3.164   4.756 -0.1803 -0.5388  0.6132
 9186TIP3    H127522   3.671   3.245   4.805  1.2290 -0.4087  0.6949
 9186TIP3    H227523   3.617   3.104   4.797 -2.3190  0.8934 -0.3869
 9187TIP3   OH227524   3.733   1.995   4.328 -0.2301  0.0705 -0.4449
 9187TIP3    H127525   3.767   1.938   4.260 -0.6154  0.4099 -0.9268
 9187TIP3    H227526   3.772   2.081   4.310  1.1562 -0.2374  0.8712
 9188TIP3   OH227527   0.256   5.726   0.773  0.2761 -0.0448 -0.8931
 9188TIP3    H127528   0.226   5.761   0.857  2.6050  1.6172 -0.6584
 9188TIP3    H227529   0.213   5.641   0.766  0.1761 -0.3543  2.1261
 9189TIP3   OH227530   6.387   5.133   0.535  0.0676  0.1008  0.5157
 9189TIP3    H127531   6.342   5.061   0.579 -0.3809  0.8797  1.3662
 9189TIP3    H227532   6.342   5.141   0.451  0.7227 -1.1962  0.0164
 9190TIP3   OH227533   1.474   3.420   3.623  0.1356  0.4319  0.6131
 9190TIP3    H127534   1.511   3.453   3.705  1.9388 -0.5174  0.2332
 9190TIP3    H227535   1.470   3.325   3.635  1.4941  0.1626 -0.7661
 9191TIP3   OH227536   3.524   5.521   4.015 -0.0227  0.4841  0.7964
 9191TIP3    H127537   3.508   5.612   4.042  0.7571  1.0655 -0.5694
 9191TIP3    H227538   3.437   5.481   4.013 -0.3809  1.2039  1.4124
 9192TIP3   OH227539   4.361   1.213   0.134 -0.2978 -0.2315 -0.8350
 9192TIP3    H127540   4.300   1.145   0.160  0.6419  0.0211  2.4760
 9192TIP3    H227541   4.314   1.295   0.150 -0.4474 -0.0471 -2.1254
 9193TIP3   OH227542   2.144   4.472   4.640  0.2060  0.1382 -0.0841
 9193TIP3    H127543   2.170   4.412   4.711 -0.2303  1.0269  0.8474
 9193TIP3    H227544   2.196   4.551   4.655  0.2582  0.2659 -0.8878
 9194TIP3   OH227545   6.805   2.726   5.048  0.1233  0.0020 -0.2033
 9194TIP3    H127546   6.794   2.816   5.017 -0.0145 -0.2672 -0.9579
 9194TIP3    H227547   6.722   2.704   5.090 -0.0810  0.0136 -0.5926
 9195TIP3   OH227548   6.573   1.456   2.979 -0.0404  0.0393 -0.7350
 9195TIP3    H127549   6.650   1.400   2.994 -0.5135 -0.8850 -1.5905
 9195TIP3    H227550   6.594   1.538   3.023  0.0347 -1.3220  1.9500
 9196TIP3   OH227551   7.085   3.829   5.210  0.3473  0.1845 -0.3840
 9196TIP3    H127552   7.047   3.783   5.135 -0.7392  1.4348 -0.6311
 9196TIP3    H227553   7.102   3.918   5.179  1.1559  0.3446  0.4618
 9197TIP3   OH227554   6.132   5.852   1.857 -0.0736  0.1418 -0.2534
 9197TIP3    H127555   6.207   5.836   1.914 -0.9172 -0.0626  0.8376
 9197TIP3    H227556   6.119   5.770   1.810 -0.3397 -0.2228  0.4451
 9198TIP3   OH227557   4.004   3.902   5.383  0.2763  0.4062  0.0997
 9198TIP3    H127558   3.909   3.917   5.386  0.1880 -0.2748  1.3527
 9198TIP3    H227559   4.040   3.965   5.445  0.6013  0.3284 -0.0084
 9199TIP3   OH227560   2.011   0.508   0.832  0.1569 -0.6420  0.0236
 9199TIP3    H127561   2.097   0.481   0.799 -0.1885 -1.3256 -0.3572
 9199TIP3    H227562   2.014   0.603   0.833  0.3988 -0.6030 -1.4634
 9200TIP3   OH227563   4.062   1.266   3.700  0.0965 -0.7203  0.3540
 9200TIP3    H127564   4.011   1.239   3.777 -0.1173 -0.0939  0.4390
 9200TIP3    H227565   3.996   1.279   3.631  0.3843 -2.3902 -0.2872
 9201TIP3   OH227566   1.036   3.413   3.877  0.2494  0.3182 -0.3323
 9201TIP3    H127567   1.039   3.380   3.787 -0.4954  0.1900 -0.3184
 9201TIP3    H227568   1.013   3.505   3.867 -0.7880  0.0808 -0.2421
 9202TIP3   OH227569   0.512   3.563   5.134 -0.6070  0.2752 -0.4297
 9202TIP3    H127570   0.451   3.580   5.063 -1.5641  1.5197  0.6290
 9202TIP3    H227571   0.561   3.644   5.144 -0.9589  0.3749  0.7380
 9203TIP3   OH227572   5.986   4.461   1.518 -0.3196 -0.9105  0.0861
 9203TIP3    H127573   6.030   4.378   1.503 -0.2928 -0.7548 -0.7445
 9203TIP3    H227574   5.995   4.508   1.435 -0.0417  0.0549  0.6460
 9204TIP3   OH227575   4.200   1.137   0.844  0.0333  0.3058 -0.1513
 9204TIP3    H127576   4.185   1.164   0.934 -1.8074 -1.2401  0.0664
 9204TIP3    H227577   4.270   1.073   0.848  0.4239  0.7440  0.0785
 9205TIP3   OH227578   5.917   6.478   1.425  0.1327  0.2759 -0.2450
 9205TIP3    H127579   5.850   6.410   1.424  0.2724  0.1244  0.2691
 9205TIP3    H227580   5.877   6.551   1.471  0.1552  0.3590 -0.3576
 9206TIP3   OH227581   1.079   6.389   5.634  0.5418 -0.2295 -0.1495
 9206TIP3    H127582   1.148   6.450   5.608  1.1697 -0.0767  1.7194
 9206TIP3    H227583   0.999   6.427   5.600  1.2048  0.3580 -1.1014
 9207TIP3   OH227584   7.184   0.414   5.257 -0.7820 -0.0183  0.0639
 9207TIP3    H127585   7.103   0.425   5.207 -0.4486  1.1704 -0.2699
 9207TIP3    H227586   7.253   0.412   5.190 -0.5753 -1.8296  0.2895
 9208TIP3   OH227587   1.980   0.966   0.042  0.5508  0.4411 -0.4118
 9208TIP3    H127588   1.956   0.945  -0.048 -1.1997  0.8171 -0.0743
 9208TIP3    H227589   1.900   0.952   0.092  0.7297  2.7742  0.6568
 9209TIP3   OH227590   1.951   4.864   4.533  0.3409 -0.2016 -0.3465
 9209TIP3    H127591   2.039   4.855   4.570 -0.2583  0.6232  1.3961
 9209TIP3    H227592   1.919   4.774   4.524  1.0653 -0.4747 -0.2292
 9210TIP3   OH227593   0.845   6.707   2.833  0.4642 -0.3380 -0.2318
 9210TIP3    H127594   0.844   6.710   2.738 -1.0939  1.2852 -0.2134
 9210TIP3    H227595   0.888   6.788   2.860  0.7151 -0.6862  0.4675
 9211TIP3   OH227596   7.130   4.200   4.602 -0.6296 -0.3220  0.3052
 9211TIP3    H127597   7.209   4.200   4.547 -1.3750  1.2415 -0.8572
 9211TIP3    H227598   7.121   4.109   4.630  2.6391 -0.2375  2.1174
 9212TIP3   OH227599   0.772   6.612   4.794 -0.5459  0.1003 -0.4434
 9212TIP3    H127600   0.757   6.559   4.873  0.5039  0.4902  0.0399
 9212TIP3    H227601   0.829   6.684   4.824  0.1791  0.0478 -1.6240
 9213TIP3   OH227602   6.199   1.094   2.372  0.2839 -0.4282 -0.2109
 9213TIP3    H127603   6.270   1.148   2.406 -0.0076 -2.3696  4.1132
 9213TIP3    H227604   6.244   1.023   2.326  1.0529 -0.5639  0.7191
 9214TIP3   OH227605   7.181   4.744   0.898 -0.8611  0.2329  0.1547
 9214TIP3    H127606   7.123   4.812   0.931 -0.3317  0.5844  0.3644
 9214TIP3    H227607   7.181   4.756   0.803 -1.5552 -0.1161  0.1013
 9215TIP3   OH227608   5.770   2.271   3.097  0.0931 -0.1769 -0.0063
 9215TIP3    H127609   5.745   2.244   3.008  2.3783  0.2040 -0.8349
 9215TIP3    H227610   5.829   2.344   3.083 -0.8345  1.0124  1.9506
 9216TIP3   OH227611   2.689   0.800   4.644  0.5115 -0.4853 -0.4082
 9216TIP3    H127612   2.662   0.779   4.555  1.3642  0.3921 -0.8825
 9216TIP3    H227613   2.662   0.891   4.657  2.4311  0.1592 -0.6149
 9217TIP3   OH227614   0.064   4.002   2.283  0.2893  0.4577 -0.4296
 9217TIP3    H127615   0.067   4.074   2.346 -1.5286  0.6887 -0.5420
 9217TIP3    H227616   0.013   3.934   2.327  0.8492 -0.2390 -0.8374
 9218TIP3   OH227617   3.302   0.051   3.990  0.0182 -0.0192 -0.4743
 9218TIP3    H127618   3.364   0.123   3.995  0.1054 -0.1267  0.1166
 9218TIP3    H227619   3.320   0.010   3.905  0.0516  0.5706 -0.7568
 9219TIP3   OH227620   0.491   3.017   4.789 -0.3272 -0.0320 -0.1038
 9219TIP3    H127621   0.482   3.091   4.730 -0.8243  0.6007  0.7388
 9219TIP3    H227622   0.566   2.968   4.756 -0.0770  0.7749 -0.7505
 9220TIP3   OH227623   2.993   3.036   4.325  0.6304  0.1111  0.2803
 9220TIP3    H127624   2.903   3.060   4.304  0.2195 -1.6247 -0.0747
 9220TIP3    H227625   3.012   3.083   4.407 -0.0346  1.7011 -0.4447
 9221TIP3   OH227626   5.926   2.181   3.414  0.0818 -0.4558 -0.0144
 9221TIP3    H127627   5.990   2.248   3.389 -1.7858  1.8409  0.9424
 9221TIP3    H227628   5.874   2.167   3.336 -1.6686  1.8773  0.6256
 9222TIP3   OH227629   4.054   0.054   5.248  0.3189  0.5215 -0.3325
 9222TIP3    H127630   4.119   0.120   5.223 -0.2610  1.5170  0.7178
 9222TIP3    H227631   3.973   0.104   5.261 -0.9504 -0.8017 -2.5411
 9223TIP3   OH227632   5.627   4.860   0.032 -0.0517 -0.4369 -0.2716
 9223TIP3    H127633   5.552   4.885   0.087  1.1689  0.6292  0.9801
 9223TIP3    H227634   5.595   4.785  -0.018 -1.9740  0.0203  0.1672
 9224TIP3   OH227635   6.994   5.247   5.741  0.1766 -0.4572 -0.3675
 9224TIP3    H127636   7.023   5.236   5.650 -1.9634 -0.3885 -1.1049
 9224TIP3    H227637   6.902   5.220   5.740 -0.3572  1.0991  1.4294
 9225TIP3   OH227638   1.454   6.586   4.313  0.2283  0.3058  0.6898
 9225TIP3    H127639   1.470   6.581   4.407 -0.0062  0.2772  0.7294
 9225TIP3    H227640   1.437   6.495   4.287 -0.4477  0.4081  0.7571
 9226TIP3   OH227641   3.829   4.386   4.618  0.4623 -0.4594 -0.0015
 9226TIP3    H127642   3.864   4.344   4.540 -0.0082 -0.4343 -0.2316
 9226TIP3    H227643   3.896   4.373   4.685  0.2813 -1.6612 -0.0429
 9227TIP3   OH227644   5.811   5.923   0.674 -0.1253  0.3482  0.3366
 9227TIP3    H127645   5.785   5.908   0.583  2.2577  0.1474 -0.3793
 9227TIP3    H227646   5.887   5.866   0.686  0.1255  1.0282  2.2027
 9228TIP3   OH227647   5.049   0.414   0.971  0.2031  0.1265 -0.3214
 9228TIP3    H127648   5.110   0.386   1.038 -1.0142  0.3807  0.9350
 9228TIP3    H227649   4.996   0.336   0.952 -1.0345  0.6671  0.7965
 9229TIP3   OH227650   2.568   1.207   3.120  0.0420 -0.2637 -0.2125
 9229TIP3    H127651   2.573   1.130   3.063  0.4563  0.1793 -0.7991
 9229TIP3    H227652   2.629   1.270   3.080  0.4628  0.0088  0.8091
 9230TIP3   OH227653   5.809   2.714   0.378  0.4082  0.4926  0.2157
 9230TIP3    H127654   5.806   2.622   0.352  1.6075  0.5063 -0.0380
 9230TIP3    H227655   5.783   2.714   0.470 -0.1005 -0.0307  0.0778
 9231TIP3   OH227656   1.265   3.427   3.233  0.1394  0.4851  0.6155
 9231TIP3    H127657   1.297   3.514   3.208 -0.2681  0.8032  1.1604
 9231TIP3    H227658   1.174   3.442   3.258  0.0316 -0.1246  0.5881
 9232TIP3   OH227659   3.715   3.675   1.111 -0.0878 -0.1563 -0.4871
 9232TIP3    H127660   3.623   3.695   1.125  0.3816  1.2258  0.8595
 9232TIP3    H227661   3.727   3.682   1.016 -1.0869  1.0456 -0.5491
 9233TIP3   OH227662   0.188   2.291   0.650  0.0365  0.0428  0.5711
 9233TIP3    H127663   0.128   2.225   0.684 -1.3459  1.6771  1.4159
 9233TIP3    H227664   0.131   2.357   0.610  1.1130  2.3748  2.6716
 9234TIP3   OH227665   6.590   4.688   5.723 -0.0810 -0.0678 -0.2235
 9234TIP3    H127666   6.656   4.619   5.724 -0.4909 -0.4691 -0.5404
 9234TIP3    H227667   6.637   4.767   5.749  0.3021 -0.5413  0.5589
 9235TIP3   OH227668   2.101   6.764   1.133 -0.4243 -0.0346  0.4909
 9235TIP3    H127669   2.136   6.837   1.185 -2.3778  1.5357 -0.2418
 9235TIP3    H227670   2.069   6.702   1.198 -0.7561  0.8195  1.1685
 9236TIP3   OH227671   3.480   2.594   4.706 -0.2288  0.2869  0.6672
 9236TIP3    H127672   3.528   2.521   4.668  1.0074  0.3026  2.0828
 9236TIP3    H227673   3.484   2.663   4.640  0.8761 -0.0511  0.3572
 9237TIP3   OH227674   1.506   2.146   2.545  0.3132  0.1162  0.0512
 9237TIP3    H127675   1.512   2.053   2.567  1.0987  0.3385  0.8257
 9237TIP3    H227676   1.413   2.167   2.558  0.7263  0.3678  3.9656
 9238TIP3   OH227677   3.539   1.465   5.031 -0.1242 -0.1940  0.1576
 9238TIP3    H127678   3.514   1.460   5.124 -1.1252  0.4565 -0.0572
 9238TIP3    H227679   3.476   1.409   4.986 -2.0400  2.2803 -0.5140
 9239TIP3   OH227680   2.423   3.585   3.141 -0.2899  0.2660  0.1578
 9239TIP3    H127681   2.449   3.499   3.174 -1.4727  0.0074  0.4729
 9239TIP3    H227682   2.483   3.603   3.069  1.8486  0.4841  1.8838
 9240TIP3   OH227683   2.893   3.052   4.794  0.2044 -0.0391 -0.5551
 9240TIP3    H127684   2.912   2.988   4.726  0.4651  0.8285 -1.3166
 9240TIP3    H227685   2.963   3.117   4.786 -0.0811  0.3704  0.1664
 9241TIP3   OH227686   3.264   2.079   2.088  0.0685 -0.1294 -0.1101
 9241TIP3    H127687   3.299   2.147   2.031 -1.2616  0.8487  0.1751
 9241TIP3    H227688   3.175   2.109   2.108 -0.7126 -2.1773 -0.3100
 9242TIP3   OH227689   2.974   0.121   4.334  0.1918 -0.6692 -0.4028
 9242TIP3    H127690   3.061   0.093   4.361  0.8234 -0.3568 -2.0305
 9242TIP3    H227691   2.916   0.052   4.366  1.3163 -2.1018 -1.3437
 9243TIP3   OH227692   5.390   2.902   3.686  0.5975  0.5666  0.7479
 9243TIP3    H127693   5.407   2.978   3.742  0.8468  1.5856 -0.6360
 9243TIP3    H227694   5.333   2.936   3.617  0.3848 -0.6153  0.3264
 9244TIP3   OH227695   4.685   0.038   5.248  0.4448 -0.1643 -0.2009
 9244TIP3    H127696   4.779   0.025   5.238  0.2193 -0.8898 -1.7962
 9244TIP3    H227697   4.657   0.075   5.164 -1.0249 -2.1948 -0.6886
 9245TIP3   OH227698   2.984   6.013   4.777  0.0524  0.2349  0.1038
 9245TIP3    H127699   3.056   5.962   4.741  0.4261  0.5597  0.3837
 9245TIP3    H227700   2.906   5.963   4.755  0.2267  0.6301 -1.5137
 9246TIP3   OH227701   5.249   2.068   3.304  0.1462 -0.1718 -0.6278
 9246TIP3    H127702   5.267   2.073   3.210 -2.5092 -0.4986 -1.2446
 9246TIP3    H227703   5.269   2.155   3.337  1.5797 -0.1949 -1.3852
 9247TIP3   OH227704   5.057   0.298   1.492 -0.6757  0.2382  0.8127
 9247TIP3    H127705   5.058   0.276   1.586  2.0471 -1.8287  0.4299
 9247TIP3    H227706   5.113   0.375   1.485 -0.5426  0.1462  0.8544
 9248TIP3   OH227707   0.962   0.133   3.781 -0.1651  0.2872  0.7474
 9248TIP3    H127708   1.054   0.147   3.802  0.3109 -1.9141  0.3489
 9248TIP3    H227709   0.943   0.198   3.713  1.2953  0.3424  0.3615
 9249TIP3   OH227710   0.396   0.420   1.733  0.0262  0.2604  0.1245
 9249TIP3    H127711   0.383   0.504   1.777  0.1048  0.5501 -0.3979
 9249TIP3    H227712   0.451   0.370   1.793 -0.9114  0.1725  0.9296
 9250TIP3   OH227713   0.334   6.710   3.767 -0.0389 -0.4536  0.6118
 9250TIP3    H127714   0.255   6.753   3.734 -0.0730 -0.1143  1.1152
 9250TIP3    H227715   0.392   6.783   3.792  0.6780 -0.6853 -0.2995
 9251TIP3   OH227716   5.784   1.410   3.815  0.5032 -0.4470  1.0487
 9251TIP3    H127717   5.709   1.393   3.872  0.9865 -1.1338  1.4982
 9251TIP3    H227718   5.852   1.350   3.846  0.2976 -2.0073 -1.2427
 9252TIP3   OH227719   3.810   0.889   4.821 -0.4400  0.0206  0.1944
 9252TIP3    H127720   3.768   0.928   4.744 -0.0566  0.1560  0.0534
 9252TIP3    H227721   3.898   0.925   4.822 -0.7612  0.8247  1.2874
 9253TIP3   OH227722   2.526   0.428   4.478 -0.3280  0.6600 -1.0569
 9253TIP3    H127723   2.613   0.466   4.468 -0.9428  2.9116  1.0944
 9253TIP3    H227724   2.540   0.334   4.481  2.0993  0.9962 -0.2052
 9254TIP3   OH227725   3.868   4.009   2.748 -0.1208 -0.2435  0.2135
 9254TIP3    H127726   3.936   4.074   2.766 -1.2570  1.2519 -0.5857
 9254TIP3    H227727   3.894   3.971   2.664  0.5723 -0.8772  0.7036
 9255TIP3   OH227728   4.524   0.341   3.730 -0.4225  0.0768 -0.0622
 9255TIP3    H127729   4.532   0.274   3.798  2.4693 -0.1324 -0.4716
 9255TIP3    H227730   4.496   0.293   3.652  0.1224 -0.4253  0.0408
 9256TIP3   OH227731   2.010   2.480   3.687 -0.3597  0.1906 -1.2652
 9256TIP3    H127732   2.104   2.476   3.705 -0.8255  0.2847  1.7273
 9256TIP3    H227733   1.994   2.408   3.626  1.4275 -0.9381 -0.4915
 9257TIP3   OH227734   1.736   1.566   0.509  0.3856 -0.2109  0.5692
 9257TIP3    H127735   1.717   1.524   0.592  0.7571 -0.3580  0.5831
 9257TIP3    H227736   1.785   1.645   0.533  1.2413 -0.6897  0.4543
 9258TIP3   OH227737   2.468   3.264   5.528 -0.1997  0.3683 -0.0585
 9258TIP3    H127738   2.544   3.275   5.472  0.7508 -1.2726  0.8252
 9258TIP3    H227739   2.439   3.353   5.549  0.4975  1.0037 -1.6755
 9259TIP3   OH227740   6.891   1.569   4.342  0.4213  0.4108  0.2488
 9259TIP3    H127741   6.842   1.635   4.293 -1.0261 -0.8163 -0.0234
 9259TIP3    H227742   6.895   1.493   4.284  0.3395 -0.4122  1.2898
 9260TIP3   OH227743   3.659   0.192   2.829  0.7457  0.3455  0.9286
 9260TIP3    H127744   3.655   0.096   2.833  0.5590  0.2486 -0.9746
 9260TIP3    H227745   3.573   0.218   2.794  1.7356  0.9966 -1.1792
 9261TIP3   OH227746   2.177   6.074   4.186  0.3323  0.2354  0.0567
 9261TIP3    H127747   2.235   5.998   4.191 -0.5438 -0.4933 -0.4742
 9261TIP3    H227748   2.226   6.138   4.133  0.6896 -0.3352 -0.3153
 9262TIP3   OH227749   4.551   3.277   1.376 -0.0864  0.3701  0.0471
 9262TIP3    H127750   4.596   3.214   1.433  0.6162  0.7301 -0.1051
 9262TIP3    H227751   4.522   3.346   1.435 -1.7405 -0.5470  0.3779
 9263TIP3   OH227752   5.078   6.161   5.767  0.1357  0.0189 -0.3288
 9263TIP3    H127753   5.037   6.246   5.783 -1.0329 -0.2822 -1.5377
 9263TIP3    H227754   5.023   6.120   5.700  1.7065 -0.9390 -1.0922
 9264TIP3   OH227755   2.328   2.564   1.849 -0.1099  0.0034  0.0389
 9264TIP3    H127756   2.397   2.506   1.817 -0.1811  1.1522 -2.4476
 9264TIP3    H227757   2.247   2.514   1.837  0.1248 -0.7602  1.4857
 9265TIP3   OH227758   3.857   2.858   4.079 -0.0450 -0.3365 -0.4621
 9265TIP3    H127759   3.803   2.806   4.020  0.8388 -2.8716  0.7803
 9265TIP3    H227760   3.824   2.947   4.071  0.0472 -0.4804 -4.7141
 9266TIP3   OH227761   4.059   2.538   3.593  0.2222  0.4379  0.0439
 9266TIP3    H127762   4.006   2.458   3.594  2.0987 -0.9296 -1.9586
 9266TIP3    H227763   4.076   2.554   3.501  2.1714  1.5859  0.5506
 9267TIP3   OH227764   2.685   0.191   2.101 -0.0313  0.6947 -0.0753
 9267TIP3    H127765   2.659   0.277   2.067 -0.3479  0.7580  0.3154
 9267TIP3    H227766   2.715   0.143   2.024  2.3925  1.9390  0.0098
 9268TIP3   OH227767   6.708   0.827   3.455 -0.2365  0.1133  0.9211
 9268TIP3    H127768   6.741   0.759   3.515  1.4161 -1.1248 -1.2447
 9268TIP3    H227769   6.777   0.893   3.454 -0.7083  0.6140  1.0988
 9269TIP3   OH227770   5.433   5.140   4.126 -0.1850  0.3276  0.3976
 9269TIP3    H127771   5.480   5.104   4.202 -1.6976  0.0656  1.2620
 9269TIP3    H227772   5.345   5.103   4.133 -0.8811  1.7267 -0.4853
 9270TIP3   OH227773   5.652   4.697   3.565  0.6664 -0.0195 -0.2802
 9270TIP3    H127774   5.646   4.602   3.575 -0.9548 -0.0714 -1.3851
 9270TIP3    H227775   5.632   4.732   3.652  1.4897 -0.6666  0.1874
 9271TIP3   OH227776   2.828   0.048   1.932  0.3956 -0.4224 -0.2182
 9271TIP3    H127777   2.845   0.118   1.869 -1.5269 -0.0311 -0.3766
 9271TIP3    H227778   2.904  -0.010   1.926  1.3250  0.8490 -1.1752
 9272TIP3   OH227779   0.846   3.007   3.117 -0.1099 -0.7676  0.5007
 9272TIP3    H127780   0.894   2.958   3.050 -0.4610 -0.7163  0.2113
 9272TIP3    H227781   0.900   3.084   3.134 -0.3134 -0.4717 -0.1638
 9273TIP3   OH227782   4.481   4.140   4.456 -0.7651  0.0501  0.0232
 9273TIP3    H127783   4.411   4.082   4.426  0.6431 -0.1512 -3.3730
 9273TIP3    H227784   4.436   4.216   4.493 -2.8111 -0.1328 -1.8844
 9274TIP3   OH227785   6.296   3.103   1.788 -0.1848 -0.1031 -0.4756
 9274TIP3    H127786   6.251   3.104   1.873 -2.8686 -0.8663 -1.7702
 9274TIP3    H227787   6.317   3.010   1.774  1.8048  0.2286  0.0515
 9275TIP3   OH227788   1.237   4.250   3.077 -1.0904 -0.6100 -0.0045
 9275TIP3    H127789   1.149   4.227   3.049 -1.4433 -0.4398  0.9011
 9275TIP3    H227790   1.255   4.333   3.033 -1.7801 -0.1521  0.5419
 9276TIP3   OH227791   7.167   0.870   3.557 -0.4878 -0.0399 -0.4138
 9276TIP3    H127792   7.216   0.866   3.474 -1.7869  1.1540 -1.2936
 9276TIP3    H227793   7.190   0.956   3.593  0.2046 -0.6276  0.5743
 9277TIP3   OH227794   1.707   4.615   3.240  0.6510 -0.3762 -0.2849
 9277TIP3    H127795   1.799   4.601   3.263  0.5939 -1.0387 -0.4402
 9277TIP3    H227796   1.706   4.701   3.198  1.0500  0.0340  0.5259
 9278TIP3   OH227797   3.703   3.696   4.369  0.2262  0.0233 -1.0508
 9278TIP3    H127798   3.793   3.712   4.339  0.5619 -0.7254 -0.4853
 9278TIP3    H227799   3.688   3.761   4.438  0.3834  0.0668 -1.0576
 9279TIP3   OH227800   2.624   6.279   2.582  0.1201  0.4021 -0.3460
 9279TIP3    H127801   2.552   6.235   2.537 -0.9796  0.0713  1.5916
 9279TIP3    H227802   2.599   6.371   2.586 -0.0727  0.3374  0.0542
 9280TIP3   OH227803   3.590   0.718   1.931  0.0390 -0.3500  0.1936
 9280TIP3    H127804   3.551   0.632   1.915  1.4625 -0.8671 -0.7839
 9280TIP3    H227805   3.544   0.777   1.872 -1.5358 -0.2251  1.4771
 9281TIP3   OH227806   1.485   5.553   2.594  0.3844  0.4626  0.0046
 9281TIP3    H127807   1.551   5.608   2.637 -0.7349  0.5932  1.6372
 9281TIP3    H227808   1.532   5.472   2.572  0.9640  0.2868  1.7500
 9282TIP3   OH227809   2.151   1.437   1.076 -0.1180  0.2404 -0.5034
 9282TIP3    H127810   2.212   1.380   1.122 -0.1421 -0.1465 -0.9461
 9282TIP3    H227811   2.163   1.523   1.116  0.0418 -0.0384  0.0485
 9283TIP3   OH227812   4.177   5.946   5.022  0.3163  0.5918 -0.2018
 9283TIP3    H127813   4.266   5.952   4.987  0.3638 -0.3335 -0.2583
 9283TIP3    H227814   4.169   5.856   5.052 -0.7061  0.5831 -0.4664
 9284TIP3   OH227815   4.237   2.538   1.862 -0.0432  0.7575  0.7122
 9284TIP3    H127816   4.150   2.498   1.864 -0.8938  2.5335  0.6520
 9284TIP3    H227817   4.224   2.627   1.894  2.0098  0.6436  2.1250
 9285TIP3   OH227818   2.701   0.367   0.832  0.0736  0.2335 -0.1679
 9285TIP3    H127819   2.621   0.330   0.870  0.6147 -2.0439 -1.1356
 9285TIP3    H227820   2.718   0.314   0.755  1.1196  2.3418 -1.4704
 9286TIP3   OH227821   2.341   3.331   4.451 -0.2579 -0.2038 -0.8426
 9286TIP3    H127822   2.400   3.379   4.509 -1.3548 -1.0052  1.0439
 9286TIP3    H227823   2.395   3.307   4.376  1.4498  0.1806  0.2085
 9287TIP3   OH227824   0.391   4.821   0.182  0.4116 -0.7494  0.0504
 9287TIP3    H127825   0.435   4.829   0.097  1.5623  0.8190  0.7291
 9287TIP3    H227826   0.428   4.742   0.221  2.9306  0.6381  0.6929
 9288TIP3   OH227827   0.704   1.056   2.299 -0.4478  0.2976 -0.1524
 9288TIP3    H127828   0.697   0.960   2.303  1.2908  0.1985  2.4025
 9288TIP3    H227829   0.618   1.087   2.328 -0.5005 -0.4969  0.5602
 9289TIP3   OH227830   2.764   5.467   5.772  0.1802  0.5953 -0.2046
 9289TIP3    H127831   2.771   5.416   5.852 -0.4411 -1.6135 -1.4611
 9289TIP3    H227832   2.674   5.497   5.770 -0.4553 -1.1774 -1.0158
 9290TIP3   OH227833   3.306   4.532   1.961 -0.6155  0.5208 -0.2349
 9290TIP3    H127834   3.285   4.578   2.042 -2.3330 -0.3082 -0.1677
 9290TIP3    H227835   3.234   4.555   1.901  0.7759  1.3896 -1.6810
 9291TIP3   OH227836   0.105   2.398   4.458  0.2553 -0.2867  0.3583
 9291TIP3    H127837   0.074   2.373   4.371 -0.0522  0.8612  0.1180
 9291TIP3    H227838   0.174   2.336   4.478 -1.3864 -2.2046  0.4100
 9292TIP3   OH227839   1.448   5.775   3.256  0.5903  0.4318  0.0872
 9292TIP3    H127840   1.358   5.780   3.225 -0.0892  1.2517  2.0427
 9292TIP3    H227841   1.461   5.683   3.280  0.3619  0.2706 -0.3994
 9293TIP3   OH227842   0.865   1.518   1.254 -0.0276 -0.6241  0.3647
 9293TIP3    H127843   0.958   1.516   1.275  0.1620  1.5294 -0.0063
 9293TIP3    H227844   0.857   1.464   1.176  1.1352  0.0267 -0.2391
 9294TIP3   OH227845   0.140   4.213   0.166  0.3512 -0.4374 -0.0880
 9294TIP3    H127846   0.106   4.278   0.104  2.6285 -0.8071 -1.8629
 9294TIP3    H227847   0.087   4.225   0.245 -1.0552  1.7354 -1.2601
 9295TIP3   OH227848   1.096   6.237   4.859  0.0027  0.0235  0.0731
 9295TIP3    H127849   1.164   6.253   4.924  0.5944  0.9845 -0.7459
 9295TIP3    H227850   1.132   6.168   4.803  0.8529  1.3140 -1.0484
 9296TIP3   OH227851   5.076   5.391   2.847  0.0135  0.1309  0.6083
 9296TIP3    H127852   4.993   5.435   2.826  1.5744  2.4344 -1.2132
 9296TIP3    H227853   5.097   5.420   2.936  0.7018  2.7779 -0.3273
 9297TIP3   OH227854   6.739   0.714   2.288  0.2302  0.1557  0.3624
 9297TIP3    H127855   6.699   0.633   2.320  0.8592  0.1900  1.2614
 9297TIP3    H227856   6.681   0.743   2.217 -0.1407 -0.9406  0.2036
 9298TIP3   OH227857   6.291   2.564   2.976 -0.0946 -0.3324 -0.1223
 9298TIP3    H127858   6.319   2.633   2.915 -1.6749 -0.1205 -0.6381
 9298TIP3    H227859   6.306   2.483   2.928 -0.1358 -0.2354 -0.3000
 9299TIP3   OH227860   4.780   2.798   3.437 -0.6570  0.0176  0.5011
 9299TIP3    H127861   4.724   2.721   3.433 -0.2946 -0.2375  0.1766
 9299TIP3    H227862   4.725   2.867   3.472 -1.2684 -0.1477 -0.1121
 9300TIP3   OH227863   1.312   1.811   1.880  0.5411  0.6058  0.4390
 9300TIP3    H127864   1.353   1.753   1.815 -0.3968 -0.7972  1.0600
 9300TIP3    H227865   1.355   1.895   1.866  2.0087 -0.2384 -0.4508
 9301TIP3   OH227866   4.618   1.102   2.204 -0.1673 -0.0133 -0.3274
 9301TIP3    H127867   4.538   1.133   2.245  0.3935  1.1112 -0.0211
 9301TIP3    H227868   4.649   1.031   2.260 -2.4295 -2.4984 -2.0141
 9302TIP3   OH227869   1.655   2.462   0.387 -0.0454 -0.0528 -0.4804
 9302TIP3    H127870   1.576   2.509   0.361  1.5895  2.2418 -1.5957
 9302TIP3    H227871   1.663   2.478   0.481 -1.4045 -1.2032 -0.1261
 9303TIP3   OH227872   5.234   4.659   3.905 -0.5187 -0.0038 -0.4164
 9303TIP3    H127873   5.270   4.605   3.975 -1.9193 -0.0145  0.3280
 9303TIP3    H227874   5.156   4.699   3.943 -0.0550  1.7853 -1.2650
 9304TIP3   OH227875   2.612   5.352   4.981  0.1681 -0.1157 -0.7960
 9304TIP3    H127876   2.562   5.333   5.060 -0.6406  1.8144 -0.7920
 9304TIP3    H227877   2.702   5.330   5.004 -0.3934 -2.0225 -0.2331
 9305TIP3   OH227878   3.643   3.834   4.947 -0.1242  0.6049  0.4919
 9305TIP3    H127879   3.607   3.902   5.005 -0.3196  0.1819  0.8694
 9305TIP3    H227880   3.732   3.863   4.929 -0.8942  2.1665 -1.2210
 9306TIP3   OH227881   2.268   4.320   5.121  0.4765 -0.3132  0.0657
 9306TIP3    H127882   2.358   4.350   5.132  0.3810 -0.4024  1.1873
 9306TIP3    H227883   2.216   4.401   5.118  0.6855 -0.1907 -1.8886
 9307TIP3   OH227884   0.383   0.124   5.796  0.8540 -0.4535 -0.2712
 9307TIP3    H127885   0.410   0.060   5.862  0.2813 -1.6561 -1.1796
 9307TIP3    H227886   0.420   0.092   5.714 -0.8748 -0.5791 -1.0418
 9308TIP3   OH227887   0.694   6.319   1.135 -0.3723 -0.2847  0.4822
 9308TIP3    H127888   0.600   6.305   1.150 -0.0748 -1.0768  1.6984
 9308TIP3    H227889   0.728   6.232   1.115  0.3362 -0.2183  1.3759
 9309TIP3   OH227890   6.859   3.043   2.348 -0.3256  0.1335 -0.0459
 9309TIP3    H127891   6.826   3.121   2.305 -0.7963  0.1737  0.3817
 9309TIP3    H227892   6.801   3.029   2.423 -0.5226 -0.8847 -0.3674
 9310TIP3   OH227893   1.114   2.138   4.325 -0.3140 -0.2595 -0.2747
 9310TIP3    H127894   1.078   2.054   4.352 -1.5183  0.1533 -0.5349
 9310TIP3    H227895   1.201   2.141   4.364 -0.1542 -1.7256 -0.4734
 9311TIP3   OH227896   3.048   0.818   5.329  0.1600 -0.0689 -0.1388
 9311TIP3    H127897   2.957   0.840   5.312  0.2533  0.6913  0.3043
 9311TIP3    H227898   3.082   0.786   5.245 -0.5081 -0.3472 -0.3048
 9312TIP3   OH227899   0.096   1.947   4.888 -0.1580  0.1715  0.3107
 9312TIP3    H127900   0.169   1.891   4.861  0.4123  1.5219 -1.1018
 9312TIP3    H227901   0.122   1.979   4.975  0.2987 -0.4103  0.3956
 9313TIP3   OH227902   6.722   5.509   4.411 -0.4374  0.2201 -0.4112
 9313TIP3    H127903   6.656   5.456   4.367 -0.2847  1.5828 -2.4062
 9313TIP3    H227904   6.679   5.592   4.428  0.2014  0.4828 -0.0228
 9314TIP3   OH227905   0.659   1.226   0.260 -0.4416  0.0658  0.3404
 9314TIP3    H127906   0.719   1.245   0.332  0.0383  2.1728 -0.5509
 9314TIP3    H227907   0.644   1.131   0.266  2.5183 -0.4728  0.9320
 9315TIP3   OH227908   1.840   5.153   0.448  0.0440  0.2589 -0.5152
 9315TIP3    H127909   1.906   5.217   0.422  0.0180  0.1820 -0.7776
 9315TIP3    H227910   1.885   5.095   0.510  0.5023 -0.3518 -1.3898
 9316TIP3   OH227911   2.969   3.625   4.656  0.7977  0.7528 -0.3025
 9316TIP3    H127912   2.970   3.682   4.578 -2.0252  0.8654 -0.3750
 9316TIP3    H227913   2.987   3.538   4.622  0.4812  0.9351 -0.9618
 9317TIP3   OH227914   2.097   0.207   3.292 -0.1656  0.6763 -0.5559
 9317TIP3    H127915   2.127   0.295   3.314 -0.1198  0.7602 -0.9473
 9317TIP3    H227916   2.175   0.162   3.259 -0.2182  0.5294 -0.4812
 9318TIP3   OH227917   1.449   0.327   1.838 -0.0147  0.2727 -0.6245
 9318TIP3    H127918   1.445   0.233   1.820 -0.3038 -0.0354  0.8970
 9318TIP3    H227919   1.458   0.332   1.933 -1.7326  1.8030 -0.4925
 9319TIP3   OH227920   2.972   5.643   1.506 -0.2389 -0.3061  0.4768
 9319TIP3    H127921   3.038   5.671   1.569  0.8488  0.0859 -0.7962
 9319TIP3    H227922   2.967   5.715   1.443 -0.7102 -1.0311 -0.3359
 9320TIP3   OH227923   0.583   1.355   5.798 -0.2503  0.3853 -0.1598
 9320TIP3    H127924   0.599   1.272   5.752  2.2796 -0.0019  1.2539
 9320TIP3    H227925   0.489   1.354   5.816 -0.1939 -2.6484  0.5804
 9321TIP3   OH227926   0.839   1.245   0.506 -0.3185  0.2546 -0.2724
 9321TIP3    H127927   0.881   1.162   0.482  0.0709  1.1097 -2.8784
 9321TIP3    H227928   0.912   1.300   0.535 -0.2376  0.4348 -0.8196
 9322TIP3   OH227929   4.645   6.584   5.552  0.0349  0.4080  0.4004
 9322TIP3    H127930   4.562   6.621   5.581 -0.7933 -0.6422 -0.5229
 9322TIP3    H227931   4.661   6.512   5.613  0.5703  0.9488  0.9143
 9323TIP3   OH227932   2.892   6.642   4.132 -0.2821  0.2852  0.4567
 9323TIP3    H127933   2.898   6.559   4.179 -1.6320 -0.5552 -0.7614
 9323TIP3    H227934   2.825   6.626   4.065 -1.7472  2.8261  1.1852
 9324TIP3   OH227935   6.750   2.396   3.126  0.2510 -0.5650  0.7949
 9324TIP3    H127936   6.785   2.346   3.199 -0.3916 -0.5278  1.1413
 9324TIP3    H227937   6.659   2.413   3.150  0.2020 -0.0191  0.2676
 9325TIP3   OH227938   6.306   5.695   3.071  0.0426 -0.5512  0.0142
 9325TIP3    H127939   6.386   5.657   3.108  1.8913  0.4960 -2.5960
 9325TIP3    H227940   6.315   5.789   3.089  1.3308  0.0983 -3.3220
 9326TIP3   OH227941   2.101   2.965   3.827  0.3195  0.4680  0.1639
 9326TIP3    H127942   2.148   3.024   3.767  0.0930 -1.0597 -1.6130
 9326TIP3    H227943   2.170   2.922   3.877  0.7776 -0.5385 -1.2609
 9327TIP3   OH227944   3.377   6.785   1.260  0.2544  0.3421  0.4031
 9327TIP3    H127945   3.400   6.698   1.226 -0.0592  0.2626  0.3906
 9327TIP3    H227946   3.321   6.823   1.192  2.4296  1.5977 -0.8397
 9328TIP3   OH227947   4.595   2.064   2.544  0.7869 -0.3147 -0.0749
 9328TIP3    H127948   4.621   2.131   2.607 -0.5879  1.0031 -0.8483
 9328TIP3    H227949   4.587   1.984   2.596  1.7603  0.2483  0.9987
 9329TIP3   OH227950   4.835   1.615   4.751  0.1837  0.0361 -0.1940
 9329TIP3    H127951   4.879   1.693   4.718 -0.6803  0.3106 -0.7328
 9329TIP3    H227952   4.885   1.541   4.715  0.2225  0.3393 -0.7652
 9330TIP3   OH227953   0.598   4.411   1.662  0.3002  0.5991  0.0218
 9330TIP3    H127954   0.564   4.384   1.576 -0.0622  0.3593  0.2331
 9330TIP3    H227955   0.692   4.396   1.656  0.5774  2.5035 -1.0277
 9331TIP3   OH227956   1.651   1.497   0.105  0.0433 -0.4944  0.2822
 9331TIP3    H127957   1.705   1.556   0.053  0.3751 -0.6109  0.4851
 9331TIP3    H227958   1.678   1.409   0.077 -1.6580 -0.5857 -1.2616
 9332TIP3   OH227959   3.141   1.557   5.170 -0.5487 -0.2226  0.2494
 9332TIP3    H127960   3.069   1.499   5.150 -0.3256  0.2763 -2.3218
 9332TIP3    H227961   3.101   1.631   5.217 -1.7527  0.0812 -1.1971
 9333TIP3   OH227962   6.174   4.413   5.329  0.2968 -0.6769 -0.4637
 9333TIP3    H127963   6.240   4.393   5.395  1.2413 -1.3792 -1.5745
 9333TIP3    H227964   6.109   4.344   5.338  0.4610 -0.8101 -0.2949
 9334TIP3   OH227965   1.139   3.050   1.187  0.1788 -0.1706  0.2908
 9334TIP3    H127966   1.135   3.018   1.097  1.4576  2.2350 -0.7315
 9334TIP3    H227967   1.053   3.090   1.203 -0.1095 -0.7557  0.2081
 9335TIP3   OH227968   3.422   4.346   5.287 -0.3121  0.5384  0.5389
 9335TIP3    H127969   3.359   4.403   5.244 -0.8712 -1.5477 -1.5874
 9335TIP3    H227970   3.504   4.360   5.239 -1.1200 -2.3696 -2.0186
 9336TIP3   OH227971   6.053   0.507   5.755  0.0498  0.1026  0.1502
 9336TIP3    H127972   6.143   0.510   5.788 -0.0842 -0.1553  0.5369
 9336TIP3    H227973   6.029   0.599   5.742  0.1672  0.1944  0.5917
 9337TIP3   OH227974   0.524   3.322   2.424  0.0038  0.6151 -0.4928
 9337TIP3    H127975   0.599   3.302   2.480  0.3035  2.0689 -0.3328
 9337TIP3    H227976   0.448   3.312   2.482  0.0626 -0.7644 -0.6299
 9338TIP3   OH227977   5.729   1.711   2.462  0.5193 -0.2642 -0.0594
 9338TIP3    H127978   5.654   1.697   2.404  0.1213  0.4917  0.2664
 9338TIP3    H227979   5.758   1.800   2.444  0.8728 -0.2923  0.3535
 9339TIP3   OH227980   0.592   6.079   2.399 -0.0972  0.1569 -0.6534
 9339TIP3    H127981   0.652   6.089   2.473 -0.1202  1.2406 -0.7524
 9339TIP3    H227982   0.526   6.148   2.412  0.0784  0.5781 -1.8254
 9340TIP3   OH227983   3.622   5.545   2.377  0.6246  0.4267  0.4109
 9340TIP3    H127984   3.561   5.587   2.437  1.2998  0.6451  0.9519
 9340TIP3    H227985   3.663   5.475   2.429 -0.9688 -1.3847 -0.6487
 9341TIP3   OH227986   5.375   3.564   1.589 -0.1204  0.1808 -0.0022
 9341TIP3    H127987   5.435   3.620   1.638 -0.4046  1.1894 -0.7708
 9341TIP3    H227988   5.318   3.526   1.656  1.1243 -0.5041  0.6976
 9342TIP3   OH227989   3.416   4.765   3.666  0.1726 -0.2015  0.4247
 9342TIP3    H127990   3.399   4.701   3.735  0.1898  0.4178  1.0221
 9342TIP3    H227991   3.505   4.797   3.685  0.8501 -1.2279 -0.8782
 9343TIP3   OH227992   2.108   1.835   0.215  0.2170 -0.2603  0.5470
 9343TIP3    H127993   2.059   1.835   0.298  2.4307  0.3346  1.9390
 9343TIP3    H227994   2.133   1.926   0.202  1.7043 -0.6595  0.3931
 9344TIP3   OH227995   0.182   5.769   5.494 -0.1735  0.1614 -0.5837
 9344TIP3    H127996   0.250   5.716   5.538 -0.2233 -0.0204 -0.7249
 9344TIP3    H227997   0.188   5.743   5.402  0.4806  1.1343 -0.8274
 9345TIP3   OH227998   2.014   4.442   3.748  0.0316 -0.6952 -0.1764
 9345TIP3    H127999   1.962   4.521   3.758  2.4849  0.9120  1.0011
 9345TIP3    H228000   1.978   4.381   3.812  1.6011  1.6136  3.1890
 9346TIP3   OH228001   4.449   1.901   5.468  0.0233 -0.4618 -0.4646
 9346TIP3    H128002   4.413   1.851   5.542 -0.3676  0.8647  0.2641
 9346TIP3    H228003   4.507   1.965   5.509  1.6096 -1.1813 -1.4828
 9347TIP3   OH228004   4.130   3.784   2.704  0.0447  0.1979 -0.0291
 9347TIP3    H128005   4.080   3.720   2.754  1.3573 -0.5122  0.4222
 9347TIP3    H228006   4.112   3.764   2.613 -0.3003 -0.2113  0.1266
 9348TIP3   OH228007   0.187   1.409   4.547  0.1110  0.6417 -0.1331
 9348TIP3    H128008   0.240   1.384   4.471  1.3539 -0.0510  0.9072
 9348TIP3    H228009   0.229   1.488   4.581  0.2868  0.2765  0.5121
 9349TIP3   OH228010   0.957   2.999   4.704  0.2552  0.1022 -0.0933
 9349TIP3    H128011   0.953   2.934   4.775 -1.4839 -0.4739 -0.6579
 9349TIP3    H228012   0.991   2.951   4.629  0.7492  0.3431 -0.0268
 9350TIP3   OH228013   4.675   2.694   1.331 -0.3990  0.3686 -0.0759
 9350TIP3    H128014   4.625   2.663   1.255  0.6299 -1.4658 -0.0751
 9350TIP3    H228015   4.629   2.773   1.359 -2.8140 -0.7391 -0.5637
 9351TIP3   OH228016   6.900   2.093   1.564  0.3429  0.0685 -0.4091
 9351TIP3    H128017   6.976   2.145   1.591  0.0691  0.6529 -0.7448
 9351TIP3    H228018   6.937   2.012   1.530  0.7168 -0.8482  1.9578
 9352TIP3   OH228019   0.776   6.032   2.845  0.1035 -0.1441 -0.2117
 9352TIP3    H128020   0.809   6.106   2.895  0.3503 -1.4613  1.6770
 9352TIP3    H228021   0.854   5.979   2.828 -0.0364  0.0968 -1.7302
 9353TIP3   OH228022   1.385   4.085   5.476 -0.1341 -0.2746  0.4332
 9353TIP3    H128023   1.317   4.065   5.411  0.8070 -2.5764  0.0544
 9353TIP3    H228024   1.467   4.079   5.427  0.4485  1.5977  1.0889
 9354TIP3   OH228025   3.336   2.224   1.559 -0.4519 -0.7007  0.2024
 9354TIP3    H128026   3.324   2.305   1.510  2.6135  1.9878  3.3117
 9354TIP3    H228027   3.254   2.211   1.606 -2.2763 -1.5697 -3.0063
 9355TIP3   OH228028   4.883   6.062   5.541  0.3311 -0.0837 -0.7069
 9355TIP3    H128029   4.915   6.150   5.522  1.7723 -0.8484 -2.0687
 9355TIP3    H228030   4.825   6.042   5.467 -0.4498 -0.0846 -0.1057
 9356TIP3   OH228031   0.996   2.094   0.842 -0.3275 -0.1292  0.8595
 9356TIP3    H128032   1.019   2.001   0.845  0.6071  0.0860  0.7906
 9356TIP3    H228033   0.996   2.115   0.748  2.7989  0.6891  0.9444
 9357TIP3   OH228034   3.823   0.423   0.885 -0.5665  0.2354 -0.9353
 9357TIP3    H128035   3.749   0.476   0.857  0.1502  1.9586  0.2397
 9357TIP3    H228036   3.818   0.423   0.980  1.2639  0.9453 -0.7924
 9358TIP3   OH228037   4.418   4.368   2.939  0.1863 -0.1280  0.1844
 9358TIP3    H128038   4.513   4.382   2.934  0.3926 -1.5739 -0.3712
 9358TIP3    H228039   4.385   4.398   2.854  0.0329  0.9797  0.6120
 9359TIP3   OH228040   3.969   5.725   5.724  0.5063 -0.2323  0.5597
 9359TIP3    H128041   3.964   5.691   5.813 -0.8263 -0.3029  0.4748
 9359TIP3    H228042   4.005   5.653   5.672 -0.5140 -0.8638  0.7095
 9360TIP3   OH228043   0.365   3.676   1.058  0.0734  0.0214  0.4072
 9360TIP3    H128044   0.379   3.669   1.153 -0.0739 -0.9785  0.3657
 9360TIP3    H228045   0.395   3.593   1.023  1.0791  0.7597 -0.5589
 9361TIP3   OH228046   1.149   4.712   4.654 -0.5510  0.7735 -0.0673
 9361TIP3    H128047   1.058   4.742   4.651 -1.5768 -1.8079  1.7113
 9361TIP3    H228048   1.158   4.674   4.741  1.8226 -0.3094 -0.7139
 9362TIP3   OH228049   6.681   4.587   2.972 -0.0896  0.3435 -0.0523
 9362TIP3    H128050   6.698   4.524   3.041  2.2408  1.3645  0.4104
 9362TIP3    H228051   6.726   4.552   2.895  0.4032  0.9420 -0.0497
 9363TIP3   OH228052   4.004   0.207   4.612 -0.4540  0.2023  0.0877
 9363TIP3    H128053   4.088   0.253   4.609 -0.3323  0.0129  0.5929
 9363TIP3    H228054   3.939   0.274   4.590 -0.0798  0.0997 -1.4307
 9364TIP3   OH228055   1.205   3.366   1.293  0.4972  0.8634  0.1416
 9364TIP3    H128056   1.261   3.322   1.229 -1.7696  1.7286 -2.6352
 9364TIP3    H228057   1.187   3.452   1.255 -1.0318  1.4054  1.9057
 9365TIP3   OH228058   3.534   2.817   4.170  0.1344 -0.3320 -0.2148
 9365TIP3    H128059   3.443   2.817   4.199  0.2359 -0.4849  0.1163
 9365TIP3    H228060   3.566   2.729   4.192  0.5362 -0.0776  0.2485
 9366TIP3   OH228061   4.955   5.895   1.362 -0.0646  0.0752  0.3790
 9366TIP3    H128062   5.047   5.915   1.380  0.1424  0.9446 -1.4054
 9366TIP3    H228063   4.907   5.966   1.404  0.0222 -0.6351  1.7213
 9367TIP3   OH228064   1.786   3.552   4.822  0.1758  0.1431 -0.0152
 9367TIP3    H128065   1.844   3.476   4.817 -0.5109 -0.3644 -0.5754
 9367TIP3    H228066   1.786   3.577   4.915  1.1981  0.0987  0.0065
 9368TIP3   OH228067   1.850   1.794   2.987  0.0626  0.0002  0.0130
 9368TIP3    H128068   1.830   1.806   3.080  0.2218 -0.8741  0.1648
 9368TIP3    H228069   1.891   1.708   2.982 -0.5653 -0.2558 -0.9621
 9369TIP3   OH228070   1.365   1.781   0.897  0.7493  0.1232 -0.2822
 9369TIP3    H128071   1.434   1.745   0.952 -0.3391  0.1746  1.1581
 9369TIP3    H228072   1.359   1.873   0.922  0.0888  0.0936 -0.2919
 9370TIP3   OH228073   0.427   1.207   4.674  0.7804 -0.0428 -0.0992
 9370TIP3    H128074   0.373   1.179   4.600  1.1601 -3.1549  0.6363
 9370TIP3    H228075   0.516   1.206   4.641  0.7410  1.4911 -0.3293
 9371TIP3   OH228076   4.369   5.495   5.814  0.3233  0.0104  0.5430
 9371TIP3    H128077   4.355   5.474   5.906  0.9521 -1.1532  0.3997
 9371TIP3    H228078   4.337   5.584   5.804 -1.1595 -0.3776  1.5518
 9372TIP3   OH228079   4.397   0.284   1.523 -0.0551 -0.2574 -0.0034
 9372TIP3    H128080   4.385   0.290   1.618 -0.8998  2.3353 -0.1996
 9372TIP3    H228081   4.490   0.301   1.509 -0.0801  0.1814  0.3304
 9373TIP3   OH228082   4.757   2.576   5.626  0.0117 -0.6927 -0.0548
 9373TIP3    H128083   4.662   2.565   5.633  0.1306 -1.3388  0.8433
 9373TIP3    H228084   4.784   2.604   5.714  0.7555 -1.4088 -0.0430
 9374TIP3   OH228085   1.751   3.536   1.443  0.2521 -0.2093  0.0025
 9374TIP3    H128086   1.716   3.528   1.532  0.7238  0.8076  0.2905
 9374TIP3    H228087   1.843   3.511   1.451 -0.3599 -2.9748 -0.7746
 9375TIP3   OH228088   5.503   5.496   3.139 -0.2292 -0.7094  0.2222
 9375TIP3    H128089   5.547   5.460   3.062 -0.6826  0.3957 -0.5744
 9375TIP3    H228090   5.561   5.565   3.171  0.7650 -2.2142  1.9041
 9376TIP3   OH228091   1.841   1.443   4.740  0.4536  0.4889 -0.1390
 9376TIP3    H128092   1.924   1.421   4.781  0.9063  3.1778  0.6030
 9376TIP3    H228093   1.802   1.359   4.718  1.5360 -1.0466  3.1141
 9377TIP3   OH228094   3.549   4.058   1.036  0.2304  0.1389  0.6495
 9377TIP3    H128095   3.590   4.137   1.072  1.4253  0.3479 -1.0599
 9377TIP3    H228096   3.551   3.995   1.108  2.0407  0.7014  1.1256
 9378TIP3   OH228097   5.406   4.985   2.915  0.2219  0.1032 -0.3606
 9378TIP3    H128098   5.333   4.939   2.957  0.3425  0.9470  0.8153
 9378TIP3    H228099   5.378   5.076   2.913  1.4411  0.5228  0.5668
 9379TIP3   OH228100   0.466   6.357   4.378 -0.3458  0.7610 -0.4416
 9379TIP3    H128101   0.484   6.398   4.462  2.8293 -2.3471  0.6217
 9379TIP3    H228102   0.528   6.397   4.318 -0.4339  0.7400 -0.5479
 9380TIP3   OH228103   0.768   3.570   2.703 -0.0379 -0.2317 -0.4756
 9380TIP3    H128104   0.726   3.642   2.751  0.1197  0.7836 -1.7793
 9380TIP3    H228105   0.835   3.613   2.651  0.1138 -1.3523 -1.2312
 9381TIP3   OH228106   2.577   6.180   4.851 -0.4699  0.4063 -0.2746
 9381TIP3    H128107   2.584   6.170   4.946  0.6901 -1.5058 -0.5117
 9381TIP3    H228108   2.665   6.207   4.824  0.0755 -1.9324 -1.0534
 9382TIP3   OH228109   6.019   5.189   1.496  0.2784 -0.4149 -0.2405
 9382TIP3    H128110   5.949   5.254   1.505  1.8724  1.2459  0.9452
 9382TIP3    H228111   5.974   5.109   1.469 -1.6974  1.2995 -2.4448
 9383TIP3   OH228112   6.322   6.485   0.621 -0.2247  0.3861  0.5863
 9383TIP3    H128113   6.363   6.471   0.535 -1.9192 -1.7830  0.0321
 9383TIP3    H228114   6.390   6.461   0.684  0.2579 -0.4672 -0.2285
 9384TIP3   OH228115   2.010   5.615   5.152 -0.5100 -1.0785 -0.2992
 9384TIP3    H128116   2.065   5.572   5.086  0.0285 -2.1573  0.8232
 9384TIP3    H228117   2.071   5.664   5.206 -1.0905  0.9601 -1.3840
 9385TIP3   OH228118   1.632   6.592   1.899  0.1354 -0.2305 -0.2717
 9385TIP3    H128119   1.562   6.643   1.860 -1.9421 -3.5197 -1.1723
 9385TIP3    H228120   1.623   6.608   1.994  1.8532  3.6077 -0.5363
 9386TIP3   OH228121   6.371   6.285   5.689  0.3887  0.0089 -0.2084
 9386TIP3    H128122   6.306   6.248   5.750  1.2387  0.2915  0.9093
 9386TIP3    H228123   6.338   6.262   5.602 -0.4010 -1.2070  0.3784
 9387TIP3   OH228124   0.493   4.145   3.840  0.2505  0.1532  0.7318
 9387TIP3    H128125   0.569   4.096   3.868 -0.0539 -0.8957 -0.2008
 9387TIP3    H228126   0.418   4.100   3.880  0.0329  0.4105  0.6214
 9388TIP3   OH228127   2.328   0.999   4.172 -0.6697  0.3732  0.4560
 9388TIP3    H128128   2.274   1.053   4.229 -1.1060  0.2124  0.2034
 9388TIP3    H228129   2.418   1.026   4.191 -0.8948  1.4616  0.0477
 9389TIP3   OH228130   1.201   2.961   4.149 -0.2915  0.1507 -0.4533
 9389TIP3    H128131   1.256   2.895   4.190 -1.6040  0.4708  1.9993
 9389TIP3    H228132   1.246   3.044   4.167 -0.0779  0.1667 -1.0517
 9390TIP3   OH228133   4.440   4.252   1.363  0.4562 -0.1499 -0.5737
 9390TIP3    H128134   4.488   4.169   1.361  0.1549 -0.5260  2.5336
 9390TIP3    H228135   4.498   4.314   1.318  1.3087 -1.7281 -1.7522
 9391TIP3   OH228136   2.704   5.048   0.200  0.5011 -0.0837  0.3169
 9391TIP3    H128137   2.617   5.011   0.182  0.5616 -0.1337  0.1206
 9391TIP3    H228138   2.700   5.137   0.164  0.2209  0.2545  1.1515
 9392TIP3   OH228139   0.176   5.132   0.537 -0.5225  0.2819 -0.4438
 9392TIP3    H128140   0.145   5.170   0.455 -0.5161 -1.4273 -1.2759
 9392TIP3    H228141   0.098   5.129   0.593 -1.0255 -0.5079 -1.1686
 9393TIP3   OH228142   2.099   1.371   4.853 -0.1562 -0.5147 -0.1141
 9393TIP3    H128143   2.058   1.409   4.931 -1.1878  0.2209 -0.9854
 9393TIP3    H228144   2.167   1.434   4.830  0.6794 -1.1265  0.6296
 9394TIP3   OH228145   5.027   4.248   2.994 -0.4173  0.2520 -0.4745
 9394TIP3    H128146   4.990   4.177   2.941  1.9465 -0.1136 -1.7653
 9394TIP3    H228147   5.068   4.203   3.068  1.8386  0.0695 -1.7356
 9395TIP3   OH228148   2.177   6.211   1.754 -0.3758 -0.0167  0.1886
 9395TIP3    H128149   2.108   6.150   1.781  1.4455 -2.1966  0.2158
 9395TIP3    H228150   2.161   6.226   1.661 -0.9625 -0.3629  0.2276
 9396TIP3   OH228151   6.980   0.838   0.389 -0.7153  0.1508  0.3835
 9396TIP3    H128152   7.032   0.880   0.320  0.4544 -1.1472  0.4219
 9396TIP3    H228153   7.036   0.840   0.466 -0.7742 -1.1069  0.4800
 9397TIP3   OH228154   4.157   1.835   3.700 -0.0518  0.0859  0.3658
 9397TIP3    H128155   4.073   1.879   3.689 -0.5875 -1.0044  0.0389
 9397TIP3    H228156   4.218   1.906   3.719 -1.0525  0.8846  0.6926
 9398TIP3   OH228157   6.727   6.014   1.109 -0.3919  0.2578  0.0891
 9398TIP3    H128158   6.764   6.011   1.197 -2.0591 -1.2803  0.7953
 9398TIP3    H228159   6.804   6.006   1.051  0.6071 -0.3571  1.4314
 9399TIP3   OH228160   0.744   2.539   5.793 -0.5813 -0.0767  0.5871
 9399TIP3    H128161   0.743   2.448   5.763 -0.4331 -0.0081  0.3679
 9399TIP3    H228162   0.657   2.572   5.771 -0.4522 -0.0084  0.1705
 9400TIP3   OH228163   2.170   1.100   2.918  0.0018 -0.1019  0.0662
 9400TIP3    H128164   2.208   1.172   2.969 -0.5386  1.5777 -1.7843
 9400TIP3    H228165   2.197   1.021   2.965  1.1785  1.2566  1.8162
 9401TIP3   OH228166   6.394   5.694   1.771  0.1910  0.0957  0.4201
 9401TIP3    H128167   6.387   5.627   1.840  1.4570 -1.4918 -0.9146
 9401TIP3    H228168   6.487   5.717   1.770  0.2352 -0.0936 -0.9113
 9402TIP3   OH228169   2.274   4.101   5.265 -0.0359  0.1078  0.3472
 9402TIP3    H128170   2.252   4.186   5.226  0.2182  0.4481  0.9257
 9402TIP3    H228171   2.202   4.044   5.240  0.6370  0.0125 -1.5329
 9403TIP3   OH228172   6.830   0.629   4.411 -0.9095  0.0323  0.3157
 9403TIP3    H128173   6.751   0.674   4.382 -1.2339 -1.5499 -1.4302
 9403TIP3    H228174   6.813   0.537   4.391  1.5000 -0.3040 -0.4104
 9404TIP3   OH228175   4.706   1.118   4.382 -0.6706 -0.2602 -0.1034
 9404TIP3    H128176   4.677   1.192   4.329  0.3190  1.1744  1.2753
 9404TIP3    H228177   4.625   1.072   4.406 -1.2623  0.1450 -1.2616
 9405TIP3   OH228178   6.433   2.115   1.840 -0.7800 -0.1421 -0.2778
 9405TIP3    H128179   6.404   2.026   1.863 -1.1531  0.1573  0.4202
 9405TIP3    H228180   6.523   2.103   1.809 -1.0639 -0.8546 -0.8667
 9406TIP3   OH228181   2.662   0.744   4.381  0.0445 -0.0625 -0.3697
 9406TIP3    H128182   2.616   0.700   4.310 -0.6630 -2.1194  1.2656
 9406TIP3    H228183   2.753   0.748   4.350 -0.3001 -0.5640 -1.5399
 9407TIP3   OH228184   6.968   3.237   3.253 -0.4569 -0.1449  0.5080
 9407TIP3    H128185   6.903   3.301   3.224  0.5891  0.7635  0.1014
 9407TIP3    H228186   6.993   3.191   3.172 -0.2447 -0.1460  0.5723
 9408TIP3   OH228187   6.202   1.686   1.866 -0.3957  0.1061  0.1054
 9408TIP3    H128188   6.184   1.601   1.826  2.5102  0.7120 -2.9514
 9408TIP3    H228189   6.273   1.669   1.928 -0.6665  0.1397  0.4293
 9409TIP3   OH228190   3.576   6.041   4.041 -0.2314 -0.2032  0.3411
 9409TIP3    H128191   3.538   6.100   4.106  0.2111  2.2567 -1.4854
 9409TIP3    H228192   3.634   6.097   3.988 -0.0540 -2.1924 -1.7401
 9410TIP3   OH228193   4.162   3.755   2.405  0.1084  0.4312  0.1660
 9410TIP3    H128194   4.170   3.699   2.327 -1.9305 -1.5064  1.2407
 9410TIP3    H228195   4.248   3.750   2.447  0.2477 -1.2202 -0.2503
 9411TIP3   OH228196   5.949   2.435   5.859  0.3340  0.2959 -0.1959
 9411TIP3    H128197   5.915   2.397   5.778  2.9354 -1.1535 -0.7008
 9411TIP3    H228198   5.988   2.519   5.831  0.6937  0.0800 -0.3490
 9412TIP3   OH228199   6.367   1.868   0.650 -0.4752  0.1481  0.0574
 9412TIP3    H128200   6.377   1.802   0.582 -2.0949 -0.5866  0.4617
 9412TIP3    H228201   6.302   1.929   0.614  1.6421  2.0846 -0.6760
 9413TIP3   OH228202   7.104   5.358   4.715  0.4722  0.0728  0.1111
 9413TIP3    H128203   7.113   5.264   4.733  1.2844  0.0485 -0.3456
 9413TIP3    H228204   7.152   5.371   4.633 -2.6496  0.2772 -1.8399
 9414TIP3   OH228205   4.110   2.786   1.959 -0.0863  0.2763 -0.4184
 9414TIP3    H128206   4.095   2.833   2.041 -0.7201 -1.5379  0.5563
 9414TIP3    H228207   4.120   2.855   1.893 -1.1581  1.7522  0.8964
 9415TIP3   OH228208   4.683   5.746   4.145  0.0742  0.3559 -0.4171
 9415TIP3    H128209   4.665   5.722   4.054 -0.4284  0.1591 -0.2730
 9415TIP3    H228210   4.778   5.751   4.150  0.1707 -0.8991 -0.6357
 9416TIP3   OH228211   3.034   4.636   0.188 -0.5369  0.5313  0.1158
 9416TIP3    H128212   2.956   4.580   0.193 -0.3824  0.3817  1.4147
 9416TIP3    H228213   3.020   4.690   0.111 -1.0616 -0.7570 -0.7282
 9417TIP3   OH228214   5.332   4.071   3.423  0.4148 -0.3727 -0.1012
 9417TIP3    H128215   5.292   4.151   3.458  2.2612  1.7096 -2.3082
 9417TIP3    H228216   5.387   4.039   3.494 -0.1269  0.5139  0.7413
 9418TIP3   OH228217   6.946   6.264   4.640  0.4331  0.1644 -0.5533
 9418TIP3    H128218   6.979   6.351   4.664 -0.1625 -0.3654  2.5858
 9418TIP3    H228219   7.025   6.209   4.635  0.5236 -0.0913  2.3040
 9419TIP3   OH228220   3.182   0.798   0.461 -0.2561  0.0832 -0.1537
 9419TIP3    H128221   3.178   0.872   0.522 -0.0185 -0.5684  0.6580
 9419TIP3    H228222   3.229   0.834   0.385 -0.5172  0.8903  0.0515
 9420TIP3   OH228223   0.562   3.979   2.012  0.0196 -0.4414 -0.5029
 9420TIP3    H128224   0.548   3.900   1.960 -0.2420 -0.6701 -0.0900
 9420TIP3    H228225   0.551   3.950   2.103  0.7318 -0.1063 -0.3028
 9421TIP3   OH228226   0.093   2.174   1.627 -0.3231 -0.1764  0.4501
 9421TIP3    H128227   0.104   2.152   1.534  0.3256  0.0714  0.4591
 9421TIP3    H228228   0.141   2.257   1.637 -0.9114  0.1119  0.8761
 9422TIP3   OH228229   2.337   5.135   4.365 -0.1461  0.0294 -0.1132
 9422TIP3    H128230   2.339   5.075   4.439 -0.8623 -0.8594 -0.8012
 9422TIP3    H228231   2.258   5.188   4.379  0.6717  1.0777  0.6781
 9423TIP3   OH228232   1.216   6.335   2.275  0.2072  0.1144  0.5033
 9423TIP3    H128233   1.150   6.357   2.209 -0.4742  0.5901  1.3085
 9423TIP3    H228234   1.168   6.281   2.338  1.1503 -1.3325  0.0069
 9424TIP3   OH228235   0.124   4.362   5.772  0.3316  0.0868  0.2466
 9424TIP3    H128236   0.084   4.317   5.847  0.0819 -0.6264 -0.2953
 9424TIP3    H228237   0.073   4.442   5.762  1.4508  1.0693  1.8874
 9425TIP3   OH228238   3.750   3.943   0.776 -0.3249  0.3822  0.2186
 9425TIP3    H128239   3.775   3.979   0.690  2.5144  2.2244  1.6617
 9425TIP3    H228240   3.678   3.999   0.805 -1.0468 -0.0080 -0.7359
 9426TIP3   OH228241   3.302   5.489   1.680  0.0908 -0.3594  0.5646
 9426TIP3    H128242   3.229   5.431   1.702 -1.2898  1.9218  2.4424
 9426TIP3    H228243   3.366   5.472   1.749 -0.3163  0.3296  1.1180
 9427TIP3   OH228244   1.281   0.756   4.797  0.4606 -0.0871  0.4075
 9427TIP3    H128245   1.248   0.666   4.799  0.6016 -0.1387  0.3827
 9427TIP3    H228246   1.228   0.798   4.729  1.8780 -0.7314 -1.1736
 9428TIP3   OH228247   4.193   1.712   0.407 -0.5325  0.4524 -0.2813
 9428TIP3    H128248   4.116   1.716   0.464 -2.6498 -0.6349 -2.8578
 9428TIP3    H228249   4.200   1.801   0.371 -1.8367  0.1365 -1.4380
 9429TIP3   OH228250   0.234   6.406   3.484 -0.0719  0.1398 -0.6093
 9429TIP3    H128251   0.215   6.337   3.548  0.4845  1.1780  0.7385
 9429TIP3    H228252   0.172   6.391   3.413  1.0085 -2.6120 -1.0713
 9430TIP3   OH228253   4.875   4.721   3.874  0.3054 -0.3607 -0.4190
 9430TIP3    H128254   4.793   4.755   3.836  1.0365  0.0364 -1.7163
 9430TIP3    H228255   4.944   4.765   3.824  1.3096 -1.2133  0.1855
 9431TIP3   OH228256   0.695   3.252   4.024 -0.0965 -0.1176 -0.2201
 9431TIP3    H128257   0.720   3.176   4.077  1.2341  1.5565  1.7066
 9431TIP3    H228258   0.620   3.289   4.070 -1.1540 -0.5680 -1.5158
 9432TIP3   OH228259   1.701   2.103   3.909 -0.4759 -0.0475 -0.2004
 9432TIP3    H128260   1.673   2.011   3.906 -2.0410  0.4287 -1.2790
 9432TIP3    H228261   1.656   2.144   3.835  0.6525  1.4795 -0.0778
 9433TIP3   OH228262   5.247   5.905   1.302  0.5724 -0.2848 -0.4019
 9433TIP3    H128263   5.238   5.984   1.249  0.2841  0.1772  0.3115
 9433TIP3    H228264   5.341   5.900   1.322  0.4282  0.6516  0.6602
 9434TIP3   OH228265   5.832   5.470   1.770  0.0883  0.4047 -0.1494
 9434TIP3    H128266   5.815   5.388   1.724 -1.9043  0.8619 -0.2935
 9434TIP3    H228267   5.783   5.462   1.852 -0.8698  1.7767 -0.5455
 9435TIP3   OH228268   4.743   4.569   3.658  0.0213  0.4580 -0.2611
 9435TIP3    H128269   4.779   4.572   3.747 -1.0957  0.6735  0.2039
 9435TIP3    H228270   4.654   4.603   3.667 -0.1449  0.3912 -1.4544
 9436TIP3   OH228271   4.770   5.618   0.321 -0.1487  0.1663  0.1433
 9436TIP3    H128272   4.765   5.595   0.228 -0.5045  1.1444 -0.0935
 9436TIP3    H228273   4.774   5.534   0.367 -1.0793 -0.3479 -0.6909
 9437TIP3   OH228274   4.767   3.370   3.771 -0.7496 -0.3552  0.1955
 9437TIP3    H128275   4.680   3.342   3.742 -0.8815 -1.1125  1.2622
 9437TIP3    H228276   4.781   3.324   3.854  1.5732 -1.9530 -0.9852
 9438TIP3   OH228277   2.418   5.598   3.940 -0.2059  0.2074 -0.5319
 9438TIP3    H128278   2.448   5.683   3.906 -0.5621  0.2154 -0.8404
 9438TIP3    H228279   2.407   5.544   3.862 -0.9165  0.1833 -0.4239
 9439TIP3   OH228280   3.931   1.948   1.370 -0.2788  0.5578  0.1141
 9439TIP3    H128281   4.024   1.960   1.350 -0.4234 -1.5285 -2.3311
 9439TIP3    H228282   3.918   1.853   1.368 -2.3809  0.7737  0.9998
 9440TIP3   OH228283   5.554   1.334   3.289  0.2387 -0.2811  0.1952
 9440TIP3    H128284   5.508   1.358   3.370 -0.3007  0.2849 -0.2671
 9440TIP3    H228285   5.553   1.414   3.237 -2.2031 -1.4018 -1.6803
 9441TIP3   OH228286   6.477   6.221   2.419  0.1073 -0.2519  0.0823
 9441TIP3    H128287   6.545   6.270   2.372  0.1461 -1.8025 -1.5604
 9441TIP3    H228288   6.399   6.275   2.412  0.6170  0.5002  0.0650
 9442TIP3   OH228289   5.855   0.139   2.667 -0.3039  0.0516 -0.0011
 9442TIP3    H128290   5.855   0.044   2.670 -1.9035  0.0384  1.7442
 9442TIP3    H228291   5.765   0.162   2.645  0.5353  1.1924 -2.5890
 9443TIP3   OH228292   0.056   5.712   3.288 -0.1057 -0.1707 -0.6222
 9443TIP3    H128293   0.013   5.656   3.224 -0.3844  0.2418 -0.7993
 9443TIP3    H228294   0.109   5.652   3.340 -0.9520 -0.6918 -0.3482
 9444TIP3   OH228295   0.800   6.774   2.303 -0.0089  0.3895 -0.5961
 9444TIP3    H128296   0.884   6.805   2.270 -0.0671  1.7366  0.4469
 9444TIP3    H228297   0.819   6.691   2.345  0.5905  0.1403 -1.3421
 9445TIP3   OH228298   6.771   4.615   4.700  0.0293 -0.3898  0.1354
 9445TIP3    H128299   6.677   4.600   4.694  0.0167 -0.6035  0.8185
 9445TIP3    H228300   6.810   4.547   4.646 -0.2090 -0.2726 -0.1841
 9446TIP3   OH228301   4.019   4.410   0.404 -0.0271 -0.4355  0.0011
 9446TIP3    H128302   4.026   4.431   0.498 -2.7219  1.7105 -0.1536
 9446TIP3    H228303   4.078   4.473   0.362  0.6860 -0.9695  0.1703
 9447TIP3   OH228304   2.762   6.807   0.536 -0.1463  0.3667 -0.5307
 9447TIP3    H128305   2.807   6.826   0.454 -0.1767  0.2944 -0.5646
 9447TIP3    H228306   2.737   6.715   0.529 -0.3840  0.4320 -0.5543
 9448TIP3   OH228307   1.753   2.926   2.699  0.0002  0.3055 -0.0898
 9448TIP3    H128308   1.782   2.964   2.616 -0.1108 -0.0220 -0.2805
 9448TIP3    H228309   1.739   3.002   2.756  0.1834  0.5263 -0.3334
 9449TIP3   OH228310   6.187   3.582   0.739 -1.0820 -0.1122 -0.0806
 9449TIP3    H128311   6.118   3.525   0.704 -1.3893 -0.4772  1.0945
 9449TIP3    H228312   6.205   3.547   0.826 -0.7344  1.1453  0.3664
 9450TIP3   OH228313   0.282   6.596   0.313  0.4053  0.2550 -0.3684
 9450TIP3    H128314   0.372   6.619   0.288  0.3454  0.1907 -0.6548
 9450TIP3    H228315   0.292   6.532   0.383  0.6466 -2.0470 -2.3865
 9451TIP3   OH228316   2.424   5.842   1.909  0.0287 -0.3164  0.5224
 9451TIP3    H128317   2.367   5.767   1.891 -1.1945  0.9793 -1.4520
 9451TIP3    H228318   2.511   5.812   1.884 -0.5848 -0.8515 -1.1821
 9452TIP3   OH228319   0.712   6.612   5.338 -0.0217  0.3257 -0.1468
 9452TIP3    H128320   0.727   6.632   5.246 -0.4284  1.6570  0.0422
 9452TIP3    H228321   0.673   6.692   5.373 -0.3118 -0.3257  1.0765
 9453TIP3   OH228322   2.144   2.430   4.817  1.2737 -0.5723  0.4574
 9453TIP3    H128323   2.086   2.496   4.855 -0.3152 -1.6046 -0.0834
 9453TIP3    H228324   2.165   2.372   4.890  0.6734 -0.8425  0.4233
 9454TIP3   OH228325   6.178   5.252   5.542 -0.2702 -0.2403 -0.2172
 9454TIP3    H128326   6.114   5.316   5.511 -1.1462 -0.7977  0.3784
 9454TIP3    H228327   6.232   5.232   5.466  0.0466  1.2257 -0.4025
 9455TIP3   OH228328   2.649   1.077   1.233 -0.4010  0.7459 -0.1167
 9455TIP3    H128329   2.577   1.021   1.261 -1.2540  1.4162 -0.9185
 9455TIP3    H228330   2.626   1.164   1.266  1.8086  0.4099  2.7712
 9456TIP3   OH228331   3.187   5.424   4.705  0.1168  0.5289  0.1375
 9456TIP3    H128332   3.219   5.335   4.690 -1.9575 -0.2461  0.0335
 9456TIP3    H228333   3.244   5.478   4.650  0.1955 -0.9461 -1.3345
 9457TIP3   OH228334   2.800   0.172   3.843 -0.4984  0.0263 -0.2750
 9457TIP3    H128335   2.815   0.219   3.761 -3.5981 -1.3211 -1.7880
 9457TIP3    H228336   2.851   0.220   3.908  1.2509  1.7943 -2.7755
 9458TIP3   OH228337   2.165   1.904   4.826 -0.4891  0.4206  0.0356
 9458TIP3    H128338   2.073   1.930   4.818 -0.2195  1.3443 -0.1966
 9458TIP3    H228339   2.212   1.969   4.774  0.5411  1.5520  2.2502
 9459TIP3   OH228340   0.288   4.725   4.980 -0.6325  0.0709  0.2541
 9459TIP3    H128341   0.317   4.634   4.978  2.1774  0.8474 -2.8624
 9459TIP3    H228342   0.214   4.728   4.919 -0.0542  0.0162 -0.4651
 9460TIP3   OH228343   2.204   5.306   4.795 -0.7703 -0.3745  0.4615
 9460TIP3    H128344   2.165   5.241   4.736 -0.7327 -0.1432  0.1740
 9460TIP3    H228345   2.263   5.356   4.739  0.5820 -1.2433  1.0793
 9461TIP3   OH228346   3.891   5.184   2.077  0.7940 -0.2212 -0.3898
 9461TIP3    H128347   3.853   5.173   2.164 -1.4458  0.5292 -1.2109
 9461TIP3    H228348   3.952   5.258   2.087  0.6155 -0.1935  0.5610
 9462TIP3   OH228349   2.313   0.838   0.719 -0.5315 -0.2396 -0.7052
 9462TIP3    H128350   2.338   0.763   0.665 -1.0044  0.3294 -1.7612
 9462TIP3    H228351   2.268   0.800   0.794  0.6022 -1.0876 -0.4161
 9463TIP3   OH228352   2.321   2.548   0.368  0.2170 -0.4173 -0.0158
 9463TIP3    H128353   2.313   2.640   0.390 -0.0571 -0.5194  0.3268
 9463TIP3    H228354   2.312   2.502   0.452  2.2770 -0.6770  0.0992
 9464TIP3   OH228355   0.776   0.635   0.346 -0.3126  0.0189 -0.0758
 9464TIP3    H128356   0.694   0.675   0.317  0.5175  0.6937 -1.5641
 9464TIP3    H228357   0.844   0.675   0.292  1.0484 -0.3741  1.2679
 9465TIP3   OH228358   2.241   5.203   0.707 -0.7349 -0.0126 -0.7864
 9465TIP3    H128359   2.331   5.224   0.735 -0.1734 -0.4681 -2.1410
 9465TIP3    H228360   2.199   5.167   0.785  0.1874  0.4320 -0.0643
 9466TIP3   OH228361   1.939   2.077   5.317  0.1871  0.1575 -0.1708
 9466TIP3    H128362   1.880   2.132   5.266  0.4351  1.0981  0.5249
 9466TIP3    H228363   1.900   1.990   5.314 -0.6775  0.5489 -0.5634
 9467TIP3   OH228364   0.079   2.321   1.120  0.0859 -0.3534  0.2085
 9467TIP3    H128365   0.158   2.375   1.130  0.5446  0.0093 -3.6483
 9467TIP3    H228366   0.110   2.241   1.078 -1.3903 -1.0355  0.3513
 9468TIP3   OH228367   3.061   5.011   3.474  0.1868  0.2036  0.1296
 9468TIP3    H128368   3.153   4.986   3.472 -0.2826 -1.6208 -1.1139
 9468TIP3    H228369   3.021   4.952   3.538 -0.7387 -1.7216 -2.0676
 9469TIP3   OH228370   4.974   6.219   0.118  0.0723  0.0856 -0.2714
 9469TIP3    H128371   4.971   6.304   0.075  2.1387  1.4252  1.9609
 9469TIP3    H228372   4.978   6.239   0.212 -0.6547 -2.5299  0.4254
 9470TIP3   OH228373   5.661   6.282   2.924 -0.6977  0.0042  0.0667
 9470TIP3    H128374   5.678   6.188   2.918 -1.0771 -0.1085  0.6600
 9470TIP3    H228375   5.596   6.290   2.993 -1.8715  0.5689 -1.0594
 9471TIP3   OH228376   0.860   4.300   3.082 -0.4899  0.9705  0.2694
 9471TIP3    H128377   0.882   4.390   3.058  0.5251  0.7458  0.3117
 9471TIP3    H228378   0.891   4.290   3.172 -1.3883  0.8348  0.5735
 9472TIP3   OH228379   4.523   2.416   0.905 -0.2738  0.1269 -0.4752
 9472TIP3    H128380   4.533   2.449   0.815  2.1109  1.9933  0.3784
 9472TIP3    H228381   4.549   2.489   0.961  0.5957 -1.7219  1.6917
 9473TIP3   OH228382   5.394   3.303   2.594  0.3324 -0.4821  0.5802
 9473TIP3    H128383   5.405   3.224   2.540  0.1912 -0.1577  0.0678
 9473TIP3    H228384   5.481   3.319   2.630  0.8424  0.2431 -0.8888
 9474TIP3   OH228385   2.203   1.592   1.507  0.1994 -0.3702  0.0737
 9474TIP3    H128386   2.126   1.649   1.514  0.4569  0.0136 -0.2010
 9474TIP3    H228387   2.233   1.583   1.597  0.2680  0.0898  0.1022
 9475TIP3   OH228388   3.624   6.118   1.183 -0.0802  0.5461  0.1951
 9475TIP3    H128389   3.604   6.039   1.234 -2.9173  2.4055  2.2375
 9475TIP3    H228390   3.659   6.179   1.247  3.4588  0.6395 -1.6252
 9476TIP3   OH228391   2.156   0.729   3.237  0.2993 -0.3163  0.1197
 9476TIP3    H128392   2.061   0.725   3.223  0.4970 -2.1239 -1.2016
 9476TIP3    H228393   2.170   0.811   3.284 -1.8180  0.4754 -0.4820
 9477TIP3   OH228394   5.809   0.666   2.007  0.1767 -0.4346 -0.3197
 9477TIP3    H128395   5.831   0.757   2.029  0.3847 -0.5722  0.0464
 9477TIP3    H228396   5.754   0.673   1.929 -1.4906  0.1200  0.8681
 9478TIP3   OH228397   4.779   5.257   5.852  0.3469 -0.1774 -0.2464
 9478TIP3    H128398   4.737   5.324   5.798  0.0144  1.6037  2.0281
 9478TIP3    H228399   4.873   5.269   5.839  0.2728  0.3638 -0.2787
 9479TIP3   OH228400   7.206   0.796   5.453  0.1195 -0.3499 -0.0707
 9479TIP3    H128401   7.158   0.716   5.430 -0.0271  0.0836 -1.3527
 9479TIP3    H228402   7.178   0.816   5.542 -2.4009  0.1156 -0.8956
 9480TIP3   OH228403   7.200   1.756   0.149 -0.1853  0.2283 -0.3777
 9480TIP3    H128404   7.227   1.715   0.067  2.2810 -0.3456  0.6056
 9480TIP3    H228405   7.196   1.684   0.212  1.7332  1.0442  0.8004
 9481TIP3   OH228406   3.577   4.385   1.314  0.1795  0.7842 -0.1208
 9481TIP3    H128407   3.573   4.299   1.355  0.8100  0.3765 -0.8830
 9481TIP3    H228408   3.579   4.447   1.387  0.0307  0.1371  0.4361
 9482TIP3   OH228409   4.104  -0.027   1.091  0.2965 -0.0236 -0.1887
 9482TIP3    H128410   4.088   0.034   1.019 -0.7572 -0.0839 -0.0204
 9482TIP3    H228411   4.157   0.023   1.153  1.0609  0.0882 -0.9098
 9483TIP3   OH228412   1.029   4.415   5.447 -0.3358  0.2725 -0.0760
 9483TIP3    H128413   0.940   4.406   5.480  0.5476 -0.2426  2.3444
 9483TIP3    H228414   1.068   4.485   5.499  1.0359 -0.3080 -0.2555
 9484TIP3   OH228415   6.888   3.169   2.713 -0.0344 -0.1103  0.5989
 9484TIP3    H128416   6.803   3.140   2.680  0.0431 -0.3018  0.5653
 9484TIP3    H228417   6.942   3.180   2.635 -0.2462  0.7187  0.5704
 9485TIP3   OH228418   6.177   2.584   1.802  0.1557 -0.4009 -0.0943
 9485TIP3    H128419   6.238   2.511   1.789  2.0740  1.2514 -1.0409
 9485TIP3    H228420   6.227   2.646   1.855 -1.2885  0.4010  0.3717
 9486TIP3   OH228421   6.313   2.083   5.669 -0.0378  1.1267 -0.4120
 9486TIP3    H128422   6.405   2.073   5.693  0.0529  0.1774 -1.0926
 9486TIP3    H228423   6.265   2.071   5.751  0.3359 -0.6959 -0.4151
 9487TIP3   OH228424   2.144   0.765   0.034 -0.2635  0.0316 -0.8898
 9487TIP3    H128425   2.220   0.792   0.087 -0.6754  0.3083 -0.4255
 9487TIP3    H228426   2.087   0.842   0.035 -0.3679 -0.0344 -1.5810
 9488TIP3   OH228427   2.507   4.507   5.796  0.1321 -0.0219  0.1952
 9488TIP3    H128428   2.461   4.549   5.723  0.1833 -1.4198 -0.6750
 9488TIP3    H228429   2.437   4.475   5.854  0.0928  2.2083  1.4786
 9489TIP3   OH228430   2.265   5.252   0.426  0.4404 -0.1680  0.2290
 9489TIP3    H128431   2.232   5.227   0.512 -0.7018  1.3007  0.2529
 9489TIP3    H228432   2.358   5.272   0.441  0.8138 -1.9745  0.6409
 9490TIP3   OH228433   1.054   3.967   0.919 -0.1807  0.2584  0.0550
 9490TIP3    H128434   1.081   4.041   0.973 -0.3155 -0.1093  0.6341
 9490TIP3    H228435   0.978   3.931   0.964  1.3961 -1.8290  1.2459
 9491TIP3   OH228436   5.302   6.049   2.108  0.1931  0.0422 -0.1708
 9491TIP3    H128437   5.340   5.961   2.115  1.9646  0.8062  0.4851
 9491TIP3    H228438   5.306   6.069   2.015 -1.2203 -0.9489 -0.4803
 9492TIP3   OH228439   0.954   0.580   0.019 -0.0536  0.1822 -0.0081
 9492TIP3    H128440   0.970   0.610  -0.071 -1.3632  2.8892  0.5495
 9492TIP3    H228441   1.025   0.618   0.070  0.9194 -1.6899  0.1052
 9493TIP3   OH228442   7.056   2.850   2.510 -0.3669  0.2288 -0.2728
 9493TIP3    H128443   7.096   2.867   2.596 -0.3913  0.9270 -0.3912
 9493TIP3    H228444   6.965   2.829   2.530  0.4418 -3.4959  0.1865
 9494TIP3   OH228445   6.336   0.593   2.596 -0.0003  0.6265 -0.2632
 9494TIP3    H128446   6.329   0.537   2.674  1.5666  1.2735  0.3998
 9494TIP3    H228447   6.387   0.668   2.626  0.7749  0.8173 -1.9586
 9495TIP3   OH228448   0.375   1.979   4.149  0.0907 -0.2081  0.1486
 9495TIP3    H128449   0.460   1.973   4.106  0.1271  0.5060  0.0935
 9495TIP3    H228450   0.381   2.061   4.200 -0.7988  0.2057 -0.3951
 9496TIP3   OH228451   5.536   4.004   2.773  0.1362  0.5861  0.3958
 9496TIP3    H128452   5.623   4.023   2.739  0.7019  1.4451  2.1944
 9496TIP3    H228453   5.551   3.961   2.857 -1.2050 -0.8198 -0.0178
 9497TIP3   OH228454   5.436   1.719   0.759 -0.0552 -0.0354  0.3344
 9497TIP3    H128455   5.377   1.759   0.823  1.3363 -0.2999  1.8549
 9497TIP3    H228456   5.481   1.793   0.718 -2.1770  0.2654 -1.7387
 9498TIP3   OH228457   3.444   0.954   3.685 -0.7367  0.3634  0.1703
 9498TIP3    H128458   3.355   0.974   3.712 -1.2991 -0.1503 -1.2378
 9498TIP3    H228459   3.479   0.900   3.756 -2.1630 -0.9607 -0.0811
 9499TIP3   OH228460   3.669   2.895   1.553 -0.5394 -1.0508 -0.5232
 9499TIP3    H128461   3.650   2.955   1.481 -1.6221  0.0770  0.6519
 9499TIP3    H228462   3.731   2.833   1.516  0.5061  0.6785 -1.8449
 9500TIP3   OH228463   0.687   0.178   5.263  0.2121 -0.3400  0.0275
 9500TIP3    H128464   0.719   0.151   5.177  0.7717  2.2978 -0.6927
 9500TIP3    H228465   0.762   0.224   5.303 -0.4546 -0.3789  1.3881
 9501TIP3   OH228466   5.896   6.777   5.864  0.3907  0.4203  0.6343
 9501TIP3    H128467   5.946   6.718   5.807 -0.3282 -1.0985  1.5142
 9501TIP3    H228468   5.830   6.815   5.806  1.4358  1.0873 -0.1511
 9502TIP3   OH228469   4.254   5.153   0.963  0.5198  0.6567 -0.1287
 9502TIP3    H128470   4.173   5.130   0.916 -0.2974  3.3098 -0.1677
 9502TIP3    H228471   4.284   5.233   0.921  2.7440  0.2029  0.4701
 9503TIP3   OH228472   3.530   2.254   2.197  0.3048  0.1309  0.0114
 9503TIP3    H128473   3.452   2.310   2.207 -1.1366 -0.7156 -4.4786
 9503TIP3    H228474   3.504   2.170   2.236  0.2090  0.7388  1.3154
 9504TIP3   OH228475   1.715   0.286   0.751  0.1585  0.2753 -0.5881
 9504TIP3    H128476   1.629   0.327   0.739 -1.4327 -2.1178  1.5821
 9504TIP3    H228477   1.745   0.317   0.836  0.8862  0.1030 -0.7749
 9505TIP3   OH228478   0.645   3.469   0.267  0.0477 -0.2055 -0.4406
 9505TIP3    H128479   0.615   3.383   0.297  0.3037  0.2821  1.3454
 9505TIP3    H228480   0.566   3.524   0.269 -0.1770 -0.4553 -1.8709
 9506TIP3   OH228481   3.390   3.452   0.267  0.1656 -0.6425 -0.2166
 9506TIP3    H128482   3.444   3.431   0.191  1.6836  0.6890  0.4315
 9506TIP3    H228483   3.363   3.543   0.253  2.0173  0.2674  1.6471
 9507TIP3   OH228484   6.218   6.378   4.760  0.1061  0.2128 -0.1052
 9507TIP3    H128485   6.228   6.284   4.779  0.4538  0.0010 -1.2232
 9507TIP3    H228486   6.297   6.401   4.712 -0.2473  0.9489 -0.3495
 9508TIP3   OH228487   0.201   2.762   5.857 -0.0896  0.7704 -0.1875
 9508TIP3    H128488   0.233   2.781   5.769 -0.2181 -1.3426 -0.7484
 9508TIP3    H228489   0.255   2.689   5.888  0.1416  1.6490  1.6248
 9509TIP3   OH228490   1.574   5.629   0.559 -0.3155 -0.1094 -0.6510
 9509TIP3    H128491   1.653   5.580   0.534 -0.1051  0.2591 -0.7190
 9509TIP3    H228492   1.560   5.690   0.486 -1.8515 -1.5517 -1.6393
 9510TIP3   OH228493   5.788   6.069   3.889  0.2886  0.5081  0.3523
 9510TIP3    H128494   5.859   6.028   3.938  1.1512  1.0146 -0.4523
 9510TIP3    H228495   5.791   6.027   3.803 -0.9293 -0.0568  0.5578
 9511TIP3   OH228496   5.876   3.477   5.057  0.0624  0.0106  0.7466
 9511TIP3    H128497   5.807   3.434   5.007  0.5392 -1.8468  1.5724
 9511TIP3    H228498   5.901   3.553   5.004 -0.4975 -1.0121 -1.0667
 9512TIP3   OH228499   3.709   5.914   5.817 -0.2213 -0.1935 -0.1253
 9512TIP3    H128500   3.654   5.977   5.772 -0.5013 -0.4630 -0.1632
 9512TIP3    H228501   3.798   5.949   5.808 -0.4752  0.6631  0.6475
 9513TIP3   OH228502   2.063   6.224   2.461 -0.5576 -0.0812  0.1676
 9513TIP3    H128503   2.042   6.188   2.375 -1.1785  2.3998 -0.7879
 9513TIP3    H228504   2.059   6.319   2.450  6.8576  0.9179  0.9161
 9514TIP3   OH228505   2.896   1.672   3.513 -0.8838 -0.2515 -0.2594
 9514TIP3    H128506   2.980   1.638   3.482  0.2965  2.8758 -0.8864
 9514TIP3    H228507   2.876   1.620   3.591 -0.0032 -3.1419 -1.8230
 9515TIP3   OH228508   2.906   5.958   0.833 -0.2634 -0.3526 -0.1148
 9515TIP3    H128509   2.823   5.913   0.816  0.7956 -1.8398 -1.6373
 9515TIP3    H228510   2.943   5.973   0.746  0.1825  2.1106  0.4163
 9516TIP3   OH228511   0.587   1.305   5.457  0.2227 -0.0477 -0.7525
 9516TIP3    H128512   0.496   1.312   5.486  0.8882  0.8675  1.3883
 9516TIP3    H228513   0.612   1.395   5.433  0.8606 -0.0675 -0.2108
 9517TIP3   OH228514   5.603   3.869   3.025 -0.3909 -0.1783  0.0938
 9517TIP3    H128515   5.676   3.816   3.057  1.5261  1.9855 -0.4439
 9517TIP3    H228516   5.595   3.940   3.089 -2.0176 -0.3111  0.0884
 9518TIP3   OH228517   5.449   0.265   0.433 -0.5443  0.3835 -0.6678
 9518TIP3    H128518   5.372   0.234   0.386 -0.0450 -1.5682 -0.3133
 9518TIP3    H228519   5.415   0.299   0.516 -1.1472  0.9026 -1.1229
 9519TIP3   OH228520   2.598   5.570   2.926 -0.6665  0.1296 -0.6083
 9519TIP3    H128521   2.653   5.636   2.883  1.0101 -1.0866 -0.4346
 9519TIP3    H228522   2.594   5.498   2.863  0.4036 -0.9821  0.5533
 9520TIP3   OH228523   2.738   6.270   2.830 -0.1168 -0.1227 -0.2627
 9520TIP3    H128524   2.684   6.232   2.899 -0.8484 -1.9903 -1.7819
 9520TIP3    H228525   2.677   6.289   2.759  0.9906 -1.1818 -1.5746
 9521TIP3   OH228526   1.169   4.380   4.763 -0.4480 -0.2569  0.0238
 9521TIP3    H128527   1.118   4.321   4.708 -1.5047  2.1921 -1.8192
 9521TIP3    H228528   1.118   4.388   4.844  0.1075 -2.3450  0.6440
 9522TIP3   OH228529   2.078   1.260   3.387  0.2960  0.4112 -0.3115
 9522TIP3    H128530   2.029   1.289   3.310 -0.0698 -0.2972 -0.3521
 9522TIP3    H228531   2.120   1.339   3.420  0.6229  0.6950 -1.3608
 9523TIP3   OH228532   3.348   1.302   4.874  0.3256  0.0339  0.1254
 9523TIP3    H128533   3.272   1.336   4.828  2.2756  0.6485 -2.9506
 9523TIP3    H228534   3.316   1.225   4.921 -2.5803  1.5824  0.9201
 9524TIP3   OH228535   0.088   0.889   1.465 -0.0104  0.4244  0.2259
 9524TIP3    H128536   0.104   0.795   1.457  0.8916  0.3002  2.6362
 9524TIP3    H228537   0.172   0.925   1.494 -0.6743  1.7843  0.5256
 9525TIP3   OH228538   1.553   6.214   3.263 -0.2213 -0.2933  0.1148
 9525TIP3    H128539   1.473   6.251   3.226 -0.3324 -1.7611 -1.2057
 9525TIP3    H228540   1.615   6.215   3.190 -0.0083 -1.9393  0.2291
 9526TIP3   OH228541   3.359   3.124   0.022  0.4197  0.1514  0.0247
 9526TIP3    H128542   3.424   3.193   0.008 -0.5233  1.3416  1.2513
 9526TIP3    H228543   3.278   3.160  -0.015 -0.2152 -0.0185  1.1946
 9527TIP3   OH228544   0.409   1.150   0.501  0.0483  0.0789  0.2320
 9527TIP3    H128545   0.488   1.117   0.458  0.0282 -2.6944  2.0886
 9527TIP3    H228546   0.345   1.158   0.430  1.4585  0.8047 -1.0385
 9528TIP3   OH228547   3.786   6.545   3.980 -0.1219  0.0598  0.2451
 9528TIP3    H128548   3.771   6.453   3.960 -0.1512 -0.0790  0.8817
 9528TIP3    H228549   3.710   6.570   4.033 -1.6357  1.2354 -2.2967
 9529TIP3   OH228550   5.723   0.936   1.352  0.3088 -0.1916  0.0390
 9529TIP3    H128551   5.680   0.902   1.274 -0.7298  0.1799  0.4386
 9529TIP3    H228552   5.706   1.030   1.349 -0.7953 -0.3289  1.3397
 9530TIP3   OH228553   0.473   2.686   1.377 -0.2785 -0.3002  0.1056
 9530TIP3    H128554   0.469   2.776   1.344 -0.6032 -0.6563 -0.8669
 9530TIP3    H228555   0.437   2.633   1.306  1.2249 -1.3509  0.0950
 9531TIP3   OH228556   3.771   6.051   0.228 -0.4552  0.2795  0.5050
 9531TIP3    H128557   3.865   6.064   0.230 -0.2441 -0.4684 -1.9387
 9531TIP3    H228558   3.739   6.115   0.165 -1.6902  0.9013  1.7038
 9532TIP3   OH228559   4.946   4.211   3.278 -0.5888 -0.4367 -0.4267
 9532TIP3    H128560   4.897   4.291   3.296  0.2567 -0.0674  0.3382
 9532TIP3    H228561   4.890   4.140   3.310 -0.9294 -0.0751 -0.2228
 9533TIP3   OH228562   6.938   2.943   0.603 -0.2654  0.7666  0.4112
 9533TIP3    H128563   6.999   2.976   0.538 -1.0757  0.3363 -0.5878
 9533TIP3    H228564   6.994   2.903   0.670  0.6895  3.1586  1.1285
 9534TIP3   OH228565   4.384   5.923   3.761  0.2345  0.2957 -0.9703
 9534TIP3    H128566   4.393   5.829   3.744  0.5753  0.5632 -2.3473
 9534TIP3    H228567   4.417   5.966   3.682 -1.6984  1.5439 -1.1775
 9535TIP3   OH228568   3.052   3.964   4.592 -0.5533 -0.0716  0.2366
 9535TIP3    H128569   2.999   3.904   4.540 -0.5046  1.3273 -1.5344
 9535TIP3    H228570   3.142   3.938   4.576 -0.4069  1.5279 -2.0998
 9536TIP3   OH228571   0.669   2.798   3.065  0.1585 -0.1633  0.1930
 9536TIP3    H128572   0.727   2.867   3.099 -1.1101  0.6698  0.7193
 9536TIP3    H228573   0.617   2.772   3.141 -1.4895  0.4785 -0.6823
 9537TIP3   OH228574   2.017   5.370   0.392 -0.6342 -0.2939 -0.5943
 9537TIP3    H128575   2.084   5.302   0.390 -0.8349 -0.4889 -0.7991
 9537TIP3    H228576   2.013   5.403   0.302 -0.8375 -0.3078 -0.5910
 9538TIP3   OH228577   3.855   4.761   4.992 -0.2579 -0.3814 -0.5985
 9538TIP3    H128578   3.798   4.720   4.927 -0.3099  0.1552 -0.8984
 9538TIP3    H228579   3.936   4.709   4.990 -0.8772 -1.4233  0.1491
 9539TIP3   OH228580   6.622   0.193   3.074 -0.1119 -0.7215 -0.7360
 9539TIP3    H128581   6.535   0.154   3.069  0.8862 -3.2717  0.4407
 9539TIP3    H228582   6.605   0.288   3.071 -2.8240 -1.1401 -1.4376
 9540TIP3   OH228583   5.332   3.471   1.180  0.5778  0.1922  0.4377
 9540TIP3    H128584   5.381   3.472   1.098 -0.8348 -0.1501 -0.4528
 9540TIP3    H228585   5.342   3.382   1.213 -0.4554 -0.2677 -0.4144
 9541TIP3   OH228586   3.324   4.482   4.096 -0.1445 -0.3002  0.2161
 9541TIP3    H128587   3.318   4.427   4.173  3.9201 -1.1194  0.1844
 9541TIP3    H228588   3.381   4.555   4.123 -1.4063  1.2656 -1.1176
 9542TIP3   OH228589   6.546   2.876   1.544  0.0638  0.1826  0.1048
 9542TIP3    H128590   6.486   2.885   1.618  0.9472  0.9802  0.7521
 9542TIP3    H228591   6.520   2.794   1.502 -0.3667 -0.3672  1.3797
 9543TIP3   OH228592   2.007   1.600   5.553  0.1799 -0.6212  0.0543
 9543TIP3    H128593   1.933   1.660   5.565 -0.3152 -1.6267  2.5127
 9543TIP3    H228594   2.061   1.643   5.486 -0.1925  2.5596  1.5873
 9544TIP3   OH228595   3.006   3.711   1.521  0.4661 -0.1275  0.2209
 9544TIP3    H128596   3.035   3.666   1.600  2.2076  0.5712  0.0294
 9544TIP3    H228597   3.087   3.733   1.475 -0.4916 -0.0034 -1.4759
 9545TIP3   OH228598   2.680   6.435   4.306  0.0072  0.1916 -0.0380
 9545TIP3    H128599   2.700   6.435   4.212 -0.2058 -0.9946 -0.0974
 9545TIP3    H228600   2.595   6.480   4.311  0.5908  1.3450 -0.2654
 9546TIP3   OH228601   4.819   0.694   0.763 -0.0034 -0.0688 -0.1913
 9546TIP3    H128602   4.817   0.699   0.859 -0.4647 -1.4606 -0.1015
 9546TIP3    H228603   4.910   0.676   0.742  0.2887  1.2010 -0.0947
 9547TIP3   OH228604   5.266   6.382   3.805 -0.0719  0.2263 -0.1488
 9547TIP3    H128605   5.360   6.395   3.822  0.2312 -2.1165  0.3585
 9547TIP3    H228606   5.249   6.435   3.727  1.5756  1.0251 -0.0238
 9548TIP3   OH228607   0.991   3.487   5.568 -0.5398 -0.2095  0.3257
 9548TIP3    H128608   0.948   3.551   5.624  0.6648  2.3372 -1.4699
 9548TIP3    H228609   1.030   3.539   5.498  0.4357 -2.9566 -1.3186
 9549TIP3   OH228610   2.021   6.216   5.740  0.4216 -0.2351 -0.2630
 9549TIP3    H128611   1.950   6.205   5.804  1.3427 -0.6831  0.6958
 9549TIP3    H228612   2.101   6.212   5.791  1.2322 -1.5607 -1.5625
 9550TIP3   OH228613   1.402   4.355   4.290  0.2011 -0.1766 -0.2991
 9550TIP3    H128614   1.377   4.429   4.234 -0.7638 -0.2211  0.0552
 9550TIP3    H228615   1.474   4.388   4.343 -0.8195  0.8336  0.5170
 9551TIP3   OH228616   1.801   0.212   5.730  1.0315  0.2947  0.3834
 9551TIP3    H128617   1.717   0.198   5.774  1.0275 -0.3330  0.1837
 9551TIP3    H228618   1.776   0.242   5.642  1.0264  0.4142  0.4245
 9552TIP3   OH228619   6.646   0.846   2.070  0.1157  0.4856  0.4663
 9552TIP3    H128620   6.562   0.843   2.024  0.3393 -0.4214  0.0835
 9552TIP3    H228621   6.685   0.929   2.043 -0.7069  0.9724  0.7498
 9553TIP3   OH228622   3.325   2.217   2.828 -0.1229 -0.3777 -0.4809
 9553TIP3    H128623   3.323   2.304   2.868  0.4916 -0.2338 -0.7599
 9553TIP3    H228624   3.353   2.232   2.738 -0.3463 -0.8305 -0.6302
 9554TIP3   OH228625   1.458   6.755   4.942 -0.1244  0.7662  0.6511
 9554TIP3    H128626   1.451   6.715   5.029 -1.7717  1.6422  0.9653
 9554TIP3    H228627   1.412   6.694   4.884  1.1739  0.0651  0.3118
 9555TIP3   OH228628   5.773   5.431   4.543 -0.0112  0.3292  0.0233
 9555TIP3    H128629   5.755   5.381   4.623 -0.6308  0.7826  0.1739
 9555TIP3    H228630   5.814   5.367   4.484 -0.9730 -0.4305  0.1410
 9556TIP3   OH228631   5.220   3.999   0.331 -0.4236 -0.0893 -0.4328
 9556TIP3    H128632   5.222   4.037   0.419  0.4321 -0.2116 -0.3907
 9556TIP3    H228633   5.140   3.947   0.330 -0.0123 -0.7877  0.5876
 9557TIP3   OH228634   3.379   2.034   2.343  0.0704 -0.7398  0.4025
 9557TIP3    H128635   3.328   1.992   2.413 -0.4177 -1.1556 -0.1900
 9557TIP3    H228636   3.316   2.045   2.272  0.0215  1.5254  0.7245
 9558TIP3   OH228637   3.774   0.314   2.018  0.3263  0.5998  0.1548
 9558TIP3    H128638   3.796   0.256   1.945 -1.0669  0.2671 -0.0291
 9558TIP3    H228639   3.782   0.259   2.096  1.2445  0.7938  0.1989
 9559TIP3   OH228640   6.660   3.845   0.188 -0.0154 -0.1669  0.4502
 9559TIP3    H128641   6.585   3.893   0.154  0.4678  0.7684  0.6734
 9559TIP3    H228642   6.681   3.889   0.271 -0.1709 -1.3888  1.1637
 9560TIP3   OH228643   6.020   1.238   4.605 -0.0705 -0.0205 -0.0222
 9560TIP3    H128644   5.975   1.323   4.609  1.2154  0.6623  0.4395
 9560TIP3    H228645   6.043   1.218   4.695  3.7453  1.4757 -0.4637
 9561TIP3   OH228646   2.819   5.671   0.031  0.4316 -0.0453  0.0684
 9561TIP3    H128647   2.907   5.642   0.054  0.6985 -0.1647 -1.0877
 9561TIP3    H228648   2.797   5.624  -0.049 -0.4857  0.3612  0.0621
 9562TIP3   OH228649   4.507   0.805   4.922  0.5970 -0.5198  0.4294
 9562TIP3    H128650   4.417   0.776   4.932  0.3074 -0.1551 -0.9501
 9562TIP3    H228651   4.515   0.878   4.984 -0.4427  0.2578 -0.3206
 9563TIP3   OH228652   6.299   2.049   5.318  0.0841  0.1520 -0.5347
 9563TIP3    H128653   6.289   2.084   5.406  1.0091  1.3640 -0.8789
 9563TIP3    H228654   6.304   2.127   5.261 -1.9930 -0.5962 -1.8664
 9564TIP3   OH228655   6.205   3.820   1.831  0.0345 -0.5052 -0.0157
 9564TIP3    H128656   6.230   3.729   1.814 -2.3986 -1.2798  0.2562
 9564TIP3    H228657   6.162   3.819   1.916 -0.2306  0.8724 -0.1010
 9565TIP3   OH228658   1.555   4.741   1.597 -0.3045 -0.3630 -0.0662
 9565TIP3    H128659   1.607   4.716   1.520 -0.1036 -0.0268 -0.0432
 9565TIP3    H228660   1.531   4.658   1.638  1.6196 -0.5239  0.8636
 9566TIP3   OH228661   4.558   0.538   3.330 -0.0538  0.6638 -0.0691
 9566TIP3    H128662   4.527   0.598   3.398  1.2936  0.4472  0.7636
 9566TIP3    H228663   4.629   0.585   3.287  0.7928 -0.1771  0.3725
 9567TIP3   OH228664   6.075   3.152   0.254  0.0105  0.1844 -0.2985
 9567TIP3    H128665   6.154   3.100   0.262  0.0207  0.3903  1.0274
 9567TIP3    H228666   6.003   3.088   0.261  0.0361  0.0337 -1.2384
 9568TIP3   OH228667   1.213   4.424   3.319  0.2222  0.3890 -0.5668
 9568TIP3    H128668   1.285   4.441   3.258  0.5103  0.4454 -0.2156
 9568TIP3    H228669   1.253   4.432   3.406 -0.2560  0.6443 -0.3667
 9569TIP3   OH228670   1.635   5.122   4.925 -0.2739  0.6958 -0.2826
 9569TIP3    H128671   1.658   5.092   4.837  0.7217  1.9704 -0.4869
 9569TIP3    H228672   1.548   5.161   4.915 -1.5781 -1.9603 -0.0168
 9570TIP3   OH228673   0.600   1.388   0.531  0.0443 -0.4603  0.3753
 9570TIP3    H128674   0.542   1.339   0.590  0.3974  0.4070  1.4781
 9570TIP3    H228675   0.682   1.339   0.531 -0.1580 -0.8040  0.0960
 9571TIP3   OH228676   5.612   5.034   4.342 -0.3198  0.0864 -0.5547
 9571TIP3    H128677   5.703   5.041   4.371 -0.3532  2.0079 -0.7630
 9571TIP3    H228678   5.595   4.940   4.339  1.8779 -0.3534 -1.2330
 9572TIP3   OH228679   3.016   0.318   0.188 -0.4966 -0.1293 -0.7764
 9572TIP3    H128680   3.067   0.315   0.107 -0.4821  1.6984 -0.8774
 9572TIP3    H228681   3.030   0.407   0.221  0.6710 -1.2560  2.0155
 9573TIP3   OH228682   3.697   1.061   2.434 -0.1302 -0.1074  0.3488
 9573TIP3    H128683   3.615   1.033   2.475 -1.2080 -0.3435 -1.7947
 9573TIP3    H228684   3.690   1.156   2.428 -0.1861 -0.1149  0.2934
 9574TIP3   OH228685   3.903   1.170   3.895  0.0367 -0.1786  0.0120
 9574TIP3    H128686   3.822   1.179   3.945  0.7999  1.9993  0.9404
 9574TIP3    H228687   3.919   1.075   3.892 -1.0374 -0.4766  2.2166
 9575TIP3   OH228688   4.850   3.260   4.024  0.0785 -0.3558  0.5081
 9575TIP3    H128689   4.800   3.294   4.098 -0.9733  1.2585 -0.8494
 9575TIP3    H228690   4.917   3.204   4.063 -0.6868  0.1169  2.6248
 9576TIP3   OH228691   6.019   5.551   5.372  0.0154 -0.2528  0.1063
 9576TIP3    H128692   6.054   5.575   5.286 -0.3215 -1.4048 -0.3786
 9576TIP3    H228693   5.924   5.552   5.361 -0.0454  0.2532  0.6594
 9577TIP3   OH228694   4.657   5.266   0.714 -0.3044  0.8165 -0.1270
 9577TIP3    H128695   4.645   5.175   0.688 -0.4110  1.0131 -0.7664
 9577TIP3    H228696   4.574   5.290   0.755 -0.2414  0.5990  0.1312
 9578TIP3   OH228697   4.706   0.619   3.919  0.0664 -0.2971  0.1801
 9578TIP3    H128698   4.750   0.536   3.902  1.2522  0.0459  1.4337
 9578TIP3    H228699   4.729   0.641   4.009 -1.6630  0.5449  0.4669
 9579TIP3   OH228700   3.904   1.565   3.143 -0.0950  0.1485  0.6768
 9579TIP3    H128701   3.965   1.515   3.089 -0.7755 -0.2793  0.2801
 9579TIP3    H228702   3.959   1.617   3.201  0.6689  1.1826 -0.9321
 9580TIP3   OH228703   3.170   4.224   3.645 -0.0879  0.2820 -0.2390
 9580TIP3    H128704   3.089   4.263   3.611  0.1390  0.3081 -0.7678
 9580TIP3    H228705   3.178   4.258   3.734 -1.1764 -0.5050  0.1857
 9581TIP3   OH228706   4.631   0.725   1.398 -0.2183 -0.2870  0.0198
 9581TIP3    H128707   4.722   0.702   1.378 -0.1787  0.2095 -0.3851
 9581TIP3    H228708   4.580   0.655   1.358 -0.0496 -0.1771 -0.3922
 9582TIP3   OH228709   2.590   2.050   0.491 -0.1300 -0.2281  0.2501
 9582TIP3    H128710   2.551   2.137   0.501  0.7028  0.2785 -0.6803
 9582TIP3    H228711   2.516   1.990   0.491 -0.7350  0.4993  0.7046
 9583TIP3   OH228712   2.836   6.343   4.060 -0.0772 -0.0965  0.3546
 9583TIP3    H128713   2.918   6.309   4.024 -0.2649 -0.5679  0.3547
 9583TIP3    H228714   2.768   6.302   4.006 -0.3871 -1.2353  1.5571
 9584TIP3   OH228715   2.667   1.219   3.974 -0.0492  0.0086  0.2809
 9584TIP3    H128716   2.600   1.287   3.988 -1.9368 -1.7944  0.5382
 9584TIP3    H228717   2.733   1.237   4.041 -2.2254 -0.3781  2.7138
 9585TIP3   OH228718   3.872   3.301   4.259 -0.4424  0.0687  0.1508
 9585TIP3    H128719   3.923   3.226   4.231  0.5832  0.0280  1.9880
 9585TIP3    H228720   3.934   3.373   4.264 -1.4535  1.1487 -1.7958
 9586TIP3   OH228721   3.390   5.635   2.561 -0.5719 -0.1585  0.3013
 9586TIP3    H128722   3.461   5.620   2.622 -0.1929 -1.6619 -0.4652
 9586TIP3    H228723   3.349   5.549   2.550  0.6833 -0.4884 -3.1012
 9587TIP3   OH228724   0.536   3.737   3.342 -0.2402 -0.7986 -0.0966
 9587TIP3    H128725   0.441   3.730   3.334 -0.6200  2.9492 -0.7443
 9587TIP3    H228726   0.569   3.722   3.253 -0.2766 -1.3284 -0.0241
 9588TIP3   OH228727   2.480   2.311   2.362 -0.7496  0.5480  0.5612
 9588TIP3    H128728   2.484   2.392   2.414 -0.6964  0.2360  1.0537
 9588TIP3    H228729   2.390   2.309   2.329 -0.6497  0.9867  0.2507
 9589TIP3   OH228730   6.514   5.217   3.535  0.2407 -0.1448  0.4873
 9589TIP3    H128731   6.576   5.192   3.466  0.2247 -0.1647  0.4799
 9589TIP3    H228732   6.566   5.214   3.615  0.5598  0.9894  0.3467
 9590TIP3   OH228733   6.839   0.909   5.397 -0.0791 -0.7538  0.3356
 9590TIP3    H128734   6.764   0.857   5.369 -1.0293  0.7792 -0.0903
 9590TIP3    H228735   6.884   0.932   5.315 -0.4063  0.1492  0.4018
 9591TIP3   OH228736   4.739   3.483   0.151 -0.1334  0.3208 -0.2679
 9591TIP3    H128737   4.684   3.451   0.223  0.0145  0.7735  0.0524
 9591TIP3    H228738   4.685   3.548   0.106 -0.8358 -1.1089 -1.5750
 9592TIP3   OH228739   3.063   3.291   4.073  0.1904  0.0413 -0.2984
 9592TIP3    H128740   3.031   3.207   4.039 -1.0208  0.2910  0.1432
 9592TIP3    H228741   3.146   3.270   4.114 -0.0720 -0.9380 -0.2331
 9593TIP3   OH228742   0.503   1.971   0.483 -0.0687  0.1491  0.3310
 9593TIP3    H128743   0.528   1.986   0.392 -1.7387  0.6521 -0.0860
 9593TIP3    H228744   0.585   1.954   0.528  0.9810  1.4958 -0.9705
 9594TIP3   OH228745   2.282   1.239   3.740  0.0781 -0.2954 -0.5652
 9594TIP3    H128746   2.263   1.153   3.777  1.0108 -0.0927  0.4587
 9594TIP3    H228747   2.304   1.221   3.648 -0.7313 -1.0175 -0.6261
 9595TIP3   OH228748   5.124   6.690   3.171  0.2490  0.5171  0.5113
 9595TIP3    H128749   5.083   6.620   3.119  0.4895  1.1563 -0.5578
 9595TIP3    H228750   5.052   6.750   3.190  0.0158 -0.0481  1.5367
 9596TIP3   OH228751   3.682   1.446   0.101 -0.1636 -0.4891 -0.2661
 9596TIP3    H128752   3.714   1.410   0.018 -0.2075 -1.6652  0.2179
 9596TIP3    H228753   3.592   1.473   0.083  0.0945  0.0345 -0.8133
 9597TIP3   OH228754   0.521   2.474   2.775 -0.5036 -0.4467  0.0816
 9597TIP3    H128755   0.435   2.501   2.808 -1.1428 -0.2286 -1.6936
 9597TIP3    H228756   0.555   2.416   2.843 -0.7199  1.7854  2.2531
 9598TIP3   OH228757   1.650   4.318   0.463 -0.0911  0.0242  0.2199
 9598TIP3    H128758   1.603   4.235   0.450 -1.0945  0.9647 -3.0613
 9598TIP3    H228759   1.584   4.377   0.499 -0.0502  0.0164  0.3068
 9599TIP3   OH228760   1.755   0.055   2.297 -0.7327  0.5711 -0.2971
 9599TIP3    H128761   1.827   0.096   2.250 -0.9336 -0.8230 -1.9085
 9599TIP3    H228762   1.678   0.106   2.273 -0.8785 -0.2839 -1.7807
 9600TIP3   OH228763   7.108   5.779   1.561  0.0985 -0.5034  0.7256
 9600TIP3    H128764   7.101   5.838   1.486 -0.6539 -0.1602  1.0593
 9600TIP3    H228765   7.179   5.817   1.614 -1.2630  0.9057  1.6204
 9601TIP3   OH228766   6.961   5.282   1.855 -0.6852  0.5451 -0.0378
 9601TIP3    H128767   6.903   5.218   1.896 -1.1939  0.8352 -0.2880
 9601TIP3    H228768   7.049   5.247   1.868 -0.9302 -0.0007  0.1786
 9602TIP3   OH228769   3.176   2.925   1.840  0.3252  0.3896 -0.2168
 9602TIP3    H128770   3.111   2.941   1.909  0.4924 -1.2605  0.3629
 9602TIP3    H228771   3.192   2.831   1.843  2.9625  0.7558 -0.1599
 9603TIP3   OH228772   3.100   4.122   2.250  0.5039  0.1874  0.2488
 9603TIP3    H128773   3.146   4.182   2.308  0.9516  0.0618  0.0275
 9603TIP3    H228774   3.159   4.048   2.240  0.3909  0.1689 -0.2964
 9604TIP3   OH228775   6.585   2.020   5.275  0.5316  0.2509  0.0382
 9604TIP3    H128776   6.501   1.981   5.300  1.4588 -2.9961 -1.4075
 9604TIP3    H228777   6.565   2.069   5.195 -0.0150 -0.6721 -0.4172
 9605TIP3   OH228778   3.365   6.148   2.923  0.2639  0.3159  0.6525
 9605TIP3    H128779   3.414   6.068   2.903 -1.9827 -1.1048  0.4954
 9605TIP3    H228780   3.285   6.117   2.965  0.3742  2.6658  2.7882
 9606TIP3   OH228781   0.084   1.497   3.705  0.1004 -0.4807  0.2168
 9606TIP3    H128782   0.090   1.454   3.619  0.7095 -0.0023  0.0146
 9606TIP3    H228783   0.175   1.510   3.731 -0.0787 -1.0690  1.1703
 9607TIP3   OH228784   7.113   0.246   0.456 -0.6841  0.8583  0.2372
 9607TIP3    H128785   7.108   0.161   0.499 -1.5588  0.1981 -1.0606
 9607TIP3    H228786   7.029   0.287   0.475 -0.1489  1.5649  1.1032
 9608TIP3   OH228787   3.897   4.327   0.165 -0.4688  0.4448  0.0885
 9608TIP3    H128788   3.805   4.349   0.180 -0.7791 -1.6933  1.8645
 9608TIP3    H228789   3.940   4.345   0.248  0.3291 -0.2946 -0.1463
 9609TIP3   OH228790   4.244   3.358   3.264 -0.2264 -0.1267  0.2431
 9609TIP3    H128791   4.196   3.294   3.211  0.8330 -1.9917  1.4432
 9609TIP3    H228792   4.175   3.410   3.306 -1.1132 -0.5922 -0.5964
 9610TIP3   OH228793   6.102   4.970   5.326 -0.1182  0.3099 -0.0506
 9610TIP3    H128794   6.080   4.885   5.363 -1.2443  0.5905 -0.0311
 9610TIP3    H228795   6.123   4.953   5.234 -0.5168  0.0343 -0.0902
 9611TIP3   OH228796   0.954   6.509   3.100  0.0063  0.0839 -0.0952
 9611TIP3    H128797   0.936   6.545   3.013  0.0216 -1.1274 -0.6136
 9611TIP3    H228798   0.868   6.492   3.138  0.0099 -0.6911 -0.4318
 9612TIP3   OH228799   4.658   4.825   0.136 -0.1387  0.0950  0.2372
 9612TIP3    H128800   4.626   4.903   0.091  0.5995  0.4330  0.2923
 9612TIP3    H228801   4.751   4.820   0.113 -0.3815 -1.3055 -0.5512
 9613TIP3   OH228802   5.032   6.347   3.971  0.6118  0.3458 -0.0062
 9613TIP3    H128803   5.075   6.361   3.887 -2.5199  0.7663 -1.6997
 9613TIP3    H228804   5.033   6.433   4.013  0.2429  0.6707 -0.6481
 9614TIP3   OH228805   3.685   1.967   5.306  0.2294 -0.0153 -0.2436
 9614TIP3    H128806   3.767   2.003   5.271 -1.2823  2.0084 -2.0108
 9614TIP3    H228807   3.666   1.892   5.249  0.2891  0.2046 -0.5561
 9615TIP3   OH228808   7.045   2.636   4.655  0.2820 -0.0840  0.0553
 9615TIP3    H128809   6.977   2.621   4.589 -0.5638  1.4472  0.5171
 9615TIP3    H228810   7.006   2.605   4.737 -0.8879  2.8572  0.7420
 9616TIP3   OH228811   7.010   1.960   5.646  0.0733 -0.0161 -0.1641
 9616TIP3    H128812   7.038   2.051   5.646  1.1113 -0.3083 -1.3002
 9616TIP3    H228813   6.915   1.964   5.662  0.1128  1.2442 -0.1486
 9617TIP3   OH228814   2.921   2.001   1.156 -0.1940  0.0862  0.4650
 9617TIP3    H128815   2.891   1.932   1.097  0.2732  0.5393 -0.3151
 9617TIP3    H228816   2.997   1.963   1.200 -1.4742 -0.8331  1.9821
 9618TIP3   OH228817   0.959   3.729   2.600  0.0249  0.2238  0.5428
 9618TIP3    H128818   0.971   3.820   2.626  0.8966  0.1646  0.3773
 9618TIP3    H228819   0.946   3.733   2.505  1.8327  0.0570  0.2544
 9619TIP3   OH228820   3.325   3.115   3.508  0.4038 -0.0361 -0.5346
 9619TIP3    H128821   3.323   3.202   3.547 -0.9019  0.4354 -1.5948
 9619TIP3    H228822   3.315   3.055   3.583 -0.3923  0.7804  0.0289
 9620TIP3   OH228823   5.160   2.196   3.661  0.6597  0.4836  0.0399
 9620TIP3    H128824   5.203   2.279   3.642 -0.5349  1.0635 -0.2600
 9620TIP3    H228825   5.093   2.188   3.592 -0.8880  0.5012  1.4813
 9621TIP3   OH228826   3.386   0.682   3.310 -0.5779  0.1328 -0.6766
 9621TIP3    H128827   3.340   0.626   3.247  1.8400 -2.1128 -0.6540
 9621TIP3    H228828   3.450   0.730   3.258 -0.6079  0.5777 -0.3095
 9622TIP3   OH228829   3.093   2.291   5.374 -0.1026  0.2751  0.0874
 9622TIP3    H128830   3.016   2.236   5.389  0.2365 -0.4592 -0.7743
 9622TIP3    H228831   3.109   2.287   5.280  1.6386 -0.5131  0.3599
 9623TIP3   OH228832   6.696   3.992   1.060 -0.3961  0.2836 -0.1877
 9623TIP3    H128833   6.606   4.026   1.067 -0.8410 -0.3402 -2.2699
 9623TIP3    H228834   6.751   4.070   1.056 -0.8600  0.6753  0.6453
 9624TIP3   OH228835   0.397   5.368   1.878  0.5042 -0.5302 -0.6424
 9624TIP3    H128836   0.387   5.291   1.935  1.5785 -0.4426 -0.3045
 9624TIP3    H228837   0.312   5.378   1.836 -0.1992 -0.8582  0.6406
 9625TIP3   OH228838   0.070   2.680   0.602  0.0582  0.1801 -0.6683
 9625TIP3    H128839   0.152   2.646   0.567  0.1888  0.4143 -0.5958
 9625TIP3    H228840   0.002   2.632   0.556  0.2364  0.0730 -0.8202
 9626TIP3   OH228841   5.012   4.227   0.082  0.3150 -0.1156  0.7019
 9626TIP3    H128842   5.034   4.266   0.167  1.0434 -0.5350  0.7152
 9626TIP3    H228843   5.043   4.291   0.018  1.7476 -0.7373  0.7173
 9627TIP3   OH228844   1.454   5.740   1.517  0.1971 -0.5258 -0.7694
 9627TIP3    H128845   1.439   5.645   1.520 -0.0663 -0.4524  0.4046
 9627TIP3    H228846   1.371   5.776   1.486  0.1066 -0.6376 -0.6593
 9628TIP3   OH228847   0.583   4.703   1.492  0.0280 -0.3073  0.3189
 9628TIP3    H128848   0.641   4.680   1.420 -0.0939 -1.5685  0.5995
 9628TIP3    H228849   0.637   4.694   1.570  0.2848  1.4843  0.3798
 9629TIP3   OH228850   5.312   1.881   3.534  0.3863 -0.1305 -0.4270
 9629TIP3    H128851   5.286   1.948   3.471 -2.8303 -2.4761 -1.8874
 9629TIP3    H228852   5.308   1.925   3.619 -0.6652  1.7439 -1.3940
 9630TIP3   OH228853   1.542   2.950   1.163  0.9251 -0.3635 -0.5896
 9630TIP3    H128854   1.493   3.030   1.177  1.5980  0.0091 -0.3052
 9630TIP3    H228855   1.510   2.916   1.079 -0.3570 -0.5440 -0.0459
 9631TIP3   OH228856   5.461   3.470   3.318 -0.5509  0.1763  0.0860
 9631TIP3    H128857   5.376   3.432   3.298 -0.0521 -0.2746 -1.3247
 9631TIP3    H228858   5.512   3.398   3.354 -0.3803  0.1395 -0.2298
 9632TIP3   OH228859   5.045   5.923   5.262 -0.1795  0.4095 -0.0967
 9632TIP3    H128860   5.014   5.907   5.173  0.2701 -0.4493 -0.1170
 9632TIP3    H228861   5.075   5.837   5.292 -2.0428  0.2797  1.5626
 9633TIP3   OH228862   2.948   0.863   1.167  0.0229 -0.2947  0.3431
 9633TIP3    H128863   2.985   0.887   1.082  0.4037 -0.1825  0.5395
 9633TIP3    H228864   2.916   0.774   1.155 -2.4605  0.6639 -0.7471
 9634TIP3   OH228865   6.739   3.744   5.204 -0.5287 -0.1331 -0.0378
 9634TIP3    H128866   6.815   3.686   5.212 -0.6134 -0.2410 -0.0197
 9634TIP3    H228867   6.669   3.699   5.252 -0.3869  0.3460  0.6349
 9635TIP3   OH228868   1.737   0.595   2.955 -0.6849 -0.2322  0.1038
 9635TIP3    H128869   1.693   0.558   3.031 -0.1132  1.2983  1.2533
 9635TIP3    H228870   1.670   0.600   2.888 -2.8566  3.3449  2.2313
 9636TIP3   OH228871   0.563   1.124   1.210  0.0264 -0.1958 -0.2695
 9636TIP3    H128872   0.472   1.153   1.205 -1.0372 -3.0996 -0.0669
 9636TIP3    H228873   0.591   1.117   1.119  0.6780  2.2349 -0.3196
 9637TIP3   OH228874   4.956   6.503   3.733  0.2352 -0.2292  0.0717
 9637TIP3    H128875   4.948   6.575   3.670 -0.1081 -1.4498 -1.3182
 9637TIP3    H228876   5.016   6.537   3.800  1.0077  0.9384 -1.1588
 9638TIP3   OH228877   6.037   5.375   2.095 -0.1924 -0.3461 -0.0743
 9638TIP3    H128878   6.035   5.314   2.169  0.2463  1.0179  1.1093
 9638TIP3    H228879   5.991   5.453   2.127  2.4308  1.3786 -0.1719
 9639TIP3   OH228880   4.372   6.388   1.416 -0.5034 -0.3443  0.0877
 9639TIP3    H128881   4.441   6.338   1.458 -0.5638 -0.7510 -0.2966
 9639TIP3    H228882   4.385   6.478   1.447  1.0923 -0.1267 -1.1068
 9640TIP3   OH228883   2.901   5.783   5.349 -0.0534  0.0356 -0.3973
 9640TIP3    H128884   2.812   5.805   5.322 -1.1965 -3.5931 -0.1532
 9640TIP3    H228885   2.948   5.765   5.268 -0.1196  0.0871 -0.4466
 9641TIP3   OH228886   5.368   0.891   4.040  0.3736 -0.2929 -0.1953
 9641TIP3    H128887   5.325   0.805   4.033  1.2786 -0.8406  0.7943
 9641TIP3    H228888   5.300   0.949   4.073 -0.5360 -0.3759 -1.8163
 9642TIP3   OH228889   6.437   0.721   0.583  0.4394 -0.2594  0.1113
 9642TIP3    H128890   6.454   0.796   0.525 -1.0003  0.8755  1.0854
 9642TIP3    H228891   6.453   0.644   0.528 -1.8309  0.7390 -2.1411
 9643TIP3   OH228892   5.798   1.453   1.423 -0.4529 -0.5911  0.0831
 9643TIP3    H128893   5.731   1.516   1.451  0.3134  0.1434  0.3274
 9643TIP3    H228894   5.822   1.480   1.335 -0.9243 -1.2403 -0.2486
 9644TIP3   OH228895   1.933   4.018   4.379 -0.0377  0.4969 -0.1914
 9644TIP3    H128896   1.841   4.041   4.368  0.2406  1.6225 -0.3111
 9644TIP3    H228897   1.952   4.042   4.470 -0.2103 -1.0413  0.2700
 9645TIP3   OH228898   3.364   3.370   5.301 -0.0894 -0.2393  0.7597
 9645TIP3    H128899   3.428   3.436   5.276 -2.2384  1.2402 -1.2136
 9645TIP3    H228900   3.367   3.369   5.397  3.4673 -0.9811  0.7920
 9646TIP3   OH228901   6.578   4.291   1.669 -0.2827  0.7252  0.6607
 9646TIP3    H128902   6.621   4.206   1.658  0.2611  1.0519  0.2392
 9646TIP3    H228903   6.548   4.291   1.760 -0.4653 -0.0011  0.6068
 9647TIP3   OH228904   1.060   1.103   0.937 -0.1581  0.3258 -0.2663
 9647TIP3    H128905   1.034   1.082   0.847 -1.4637  0.4283  0.0780
 9647TIP3    H228906   0.982   1.087   0.989  0.5978  0.2255  0.8706
 9648TIP3   OH228907   1.276   5.471   4.199 -0.0091  0.2629 -0.7711
 9648TIP3    H128908   1.249   5.380   4.208 -0.5827  0.5232  0.2818
 9648TIP3    H228909   1.200   5.516   4.162  0.1411  0.3987 -0.9226
 9649TIP3   OH228910   4.951   4.652   5.552  0.2693  0.1080 -0.2348
 9649TIP3    H128911   4.974   4.674   5.462 -0.5556  1.7721 -0.0820
 9649TIP3    H228912   4.902   4.728   5.583 -1.6488 -1.4758  0.8098
 9650TIP3   OH228913   5.030   1.342   4.290  0.1736  0.7013  0.5916
 9650TIP3    H128914   5.039   1.247   4.287 -0.0836  0.6743  0.5994
 9650TIP3    H228915   5.119   1.375   4.285  0.1821  0.5434 -3.3465
 9651TIP3   OH228916   6.827   2.815   1.499 -0.0753  0.3992  0.0367
 9651TIP3    H128917   6.834   2.729   1.540  1.2403  0.3873 -0.2009
 9651TIP3    H228918   6.735   2.839   1.511 -0.2472 -0.6281  0.9225
 9652TIP3   OH228919   4.751   1.001   3.333 -0.2273 -0.1230 -0.4675
 9652TIP3    H128920   4.704   0.921   3.356 -0.0234 -0.8492 -2.3974
 9652TIP3    H228921   4.842   0.974   3.326  0.3858  1.0051  1.9769
 9653TIP3   OH228922   3.637   1.271   0.327 -0.2285  0.0038 -0.2168
 9653TIP3    H128923   3.721   1.305   0.357  0.3281 -2.5001  1.2437
 9653TIP3    H228924   3.631   1.301   0.236  2.0826  0.4872 -0.2666
 9654TIP3   OH228925   3.130   1.267   5.726 -0.0246  0.0842 -1.1300
 9654TIP3    H128926   3.036   1.279   5.720  0.1509  0.7265 -3.7472
 9654TIP3    H228927   3.141   1.187   5.778 -1.8461  1.4242  1.5375
 9655TIP3   OH228928   5.344   0.226   2.560 -0.1093  0.3240 -0.6300
 9655TIP3    H128929   5.317   0.242   2.469  1.7193 -0.4355 -1.3609
 9655TIP3    H228930   5.433   0.260   2.565  0.9193 -2.2234  0.0000
 9656TIP3   OH228931   2.864   3.582   5.257 -0.5282 -0.0189  0.0615
 9656TIP3    H128932   2.785   3.577   5.203  0.2198  3.6888 -1.7117
 9656TIP3    H228933   2.930   3.532   5.209 -0.6441  0.8064 -1.0042
 9657TIP3   OH228934   5.115   1.327   2.858 -0.3851 -0.0115  0.1892
 9657TIP3    H128935   5.175   1.322   2.784 -0.6805 -0.4184 -0.0244
 9657TIP3    H228936   5.160   1.282   2.929  0.0434  0.6729  0.3644
 9658TIP3   OH228937   6.433   0.400   3.917 -0.4757  0.1838  0.3096
 9658TIP3    H128938   6.488   0.340   3.865  0.5714  1.8965 -0.6518
 9658TIP3    H228939   6.343   0.376   3.894 -0.1706 -2.1034  1.2408
 9659TIP3   OH228940   0.751   5.124   5.663 -0.6822  0.1554  0.2824
 9659TIP3    H128941   0.748   5.170   5.747 -1.2518 -0.0797  0.3891
 9659TIP3    H228942   0.838   5.145   5.628 -0.4466  0.2673  0.9191
 9660TIP3   OH228943   0.457   4.322   4.203  0.0198  0.2612  0.5032
 9660TIP3    H128944   0.428   4.409   4.228 -0.0075  0.3960  0.0068
 9660TIP3    H228945   0.501   4.334   4.118 -2.7105 -0.6312 -1.1552
 9661TIP3   OH228946   2.134   2.799   1.033  0.5436  0.4853  0.1612
 9661TIP3    H128947   2.149   2.786   0.939  1.2726  0.0559  0.3267
 9661TIP3    H228948   2.060   2.859   1.038  0.1368  0.0633 -0.6852
 9662TIP3   OH228949   3.603   5.820   4.749  0.2853 -0.3310  0.3720
 9662TIP3    H128950   3.621   5.897   4.695 -1.4305  1.9512  2.7877
 9662TIP3    H228951   3.534   5.773   4.701  1.1445 -0.2311 -1.0011
 9663TIP3   OH228952   1.698   5.709   2.719 -0.1993  0.1395  0.4295
 9663TIP3    H128953   1.681   5.803   2.716  0.5656  0.2667 -0.5211
 9663TIP3    H228954   1.792   5.701   2.707 -0.2788 -0.7625  0.2946
 9664TIP3   OH228955   0.868   1.856   4.936  0.0934  0.3473 -0.0046
 9664TIP3    H128956   0.957   1.853   4.900  0.1032 -0.8020  0.0595
 9664TIP3    H228957   0.880   1.847   5.030 -0.1024 -0.1929 -0.0269
 9665TIP3   OH228958   6.192   3.602   3.134 -0.5545 -0.7233 -0.5636
 9665TIP3    H128959   6.097   3.596   3.119 -0.5557 -0.8063 -0.5198
 9665TIP3    H228960   6.200   3.657   3.211 -0.5275  0.2127 -1.2113
 9666TIP3   OH228961   3.366   1.161   4.634  0.0003  0.1770 -0.0666
 9666TIP3    H128962   3.288   1.212   4.654  0.5434  0.9583  0.1006
 9666TIP3    H228963   3.371   1.160   4.539 -1.2230 -1.4544 -0.1566
 9667TIP3   OH228964   0.813   5.250   3.539  0.2680  0.4646 -0.0248
 9667TIP3    H128965   0.872   5.271   3.466  0.2325 -0.9379 -0.4749
 9667TIP3    H228966   0.871   5.216   3.607  0.3071  1.8252  0.6610
 9668TIP3   OH228967   2.932   1.572   5.879 -0.0090 -0.2736  0.5067
 9668TIP3    H128968   2.965   1.636   5.943  0.8861 -1.8456  1.7053
 9668TIP3    H228969   2.976   1.595   5.797 -1.4795  2.0231  0.2924
 9669TIP3   OH228970   2.480   4.604   1.895  0.0203  0.2659  0.2519
 9669TIP3    H128971   2.387   4.606   1.920  0.1534 -1.5758  1.0270
 9669TIP3    H228972   2.493   4.518   1.857  0.9877  1.2342 -1.7592
 9670TIP3   OH228973   7.000   5.423   4.319 -0.0477 -0.0744  0.5393
 9670TIP3    H128974   6.911   5.429   4.353 -0.2288  1.1351 -0.0872
 9670TIP3    H228975   6.991   5.370   4.239 -0.3784  0.7807 -0.0102
 9671TIP3   OH228976   2.408   3.896   1.864 -0.0436 -0.9885 -0.6468
 9671TIP3    H128977   2.394   3.801   1.861 -1.5413 -0.8669  1.0671
 9671TIP3    H228978   2.470   3.908   1.936 -1.3124 -0.5698  0.4155
 9672TIP3   OH228979   5.323   5.982   0.687 -0.4985 -0.4883 -0.2274
 9672TIP3    H128980   5.362   5.901   0.653  0.7591  0.3129 -0.7856
 9672TIP3    H228981   5.396   6.043   0.692 -1.2180  0.2946  1.2386
 9673TIP3   OH228982   6.923   4.453   0.876  0.1398 -0.5204  0.1739
 9673TIP3    H128983   6.999   4.396   0.866 -0.1877 -1.3590  2.0237
 9673TIP3    H228984   6.949   4.515   0.944 -1.6227 -2.4211  2.7598
 9674TIP3   OH228985   1.860   5.513   2.067  0.4965  0.8253  0.1387
 9674TIP3    H128986   1.910   5.585   2.106  0.1730  1.7466 -1.0912
 9674TIP3    H228987   1.791   5.494   2.132  1.1825  0.9302  0.9175
 9675TIP3   OH228988   2.565   4.461   3.072 -0.1311 -0.0031 -0.2179
 9675TIP3    H128989   2.478   4.423   3.067  1.3400 -4.7533  3.0633
 9675TIP3    H228990   2.616   4.412   3.006  0.5046  1.2681 -0.7026
 9676TIP3   OH228991   1.060   6.122   0.487 -0.4262  0.2528  0.0893
 9676TIP3    H128992   1.013   6.126   0.404  0.0417  0.4410 -0.1696
 9676TIP3    H228993   0.994   6.098   0.551 -0.8566  0.4322 -0.2868
 9677TIP3   OH228994   2.319   3.164   5.203 -0.1306 -0.6299 -0.7040
 9677TIP3    H128995   2.347   3.077   5.231 -0.8134 -0.9647 -1.0323
 9677TIP3    H228996   2.259   3.194   5.272  1.6729  0.4696  0.4650
 9678TIP3   OH228997   6.900   1.219   1.364 -0.1214 -0.5421  0.0404
 9678TIP3    H128998   6.964   1.232   1.294 -0.1366 -0.2771  0.0763
 9678TIP3    H228999   6.951   1.180   1.436  0.2689  0.7913  0.5174
 9679TIP3   OH229000   5.754   1.484   2.668 -0.0763 -0.2782  0.1129
 9679TIP3    H129001   5.719   1.531   2.744  0.8621  2.9102 -1.2675
 9679TIP3    H229002   5.741   1.545   2.595  3.3758 -1.1598 -1.4228
 9680TIP3   OH229003   5.531   1.366   1.101 -0.0473  0.4596 -0.2061
 9680TIP3    H129004   5.505   1.453   1.071 -1.2752  0.2970  0.3148
 9680TIP3    H229005   5.560   1.379   1.191  3.9753  1.0068 -1.3629
 9681TIP3   OH229006   3.449   4.897   0.013  0.1656  0.6467  0.1197
 9681TIP3    H129007   3.496   4.942   0.083 -0.6783  1.6538  0.0643
 9681TIP3    H229008   3.364   4.876   0.052  0.5917 -1.1044  0.2111
 9682TIP3   OH229009   5.115   3.746   0.435 -0.0114  0.1365  0.2294
 9682TIP3    H129010   5.071   3.663   0.419 -0.3845  0.2181  0.7956
 9682TIP3    H229011   5.196   3.741   0.384  0.3905 -0.9250  0.9328
 9683TIP3   OH229012   6.341   1.437   5.238  0.1743 -0.3459  0.3532
 9683TIP3    H129013   6.267   1.381   5.211 -0.8465  1.3186 -0.4869
 9683TIP3    H229014   6.303   1.498   5.301  0.4676  1.4011 -1.0886
 9684TIP3   OH229015   3.710   3.955   5.693 -0.4195  0.3356 -0.4354
 9684TIP3    H129016   3.720   3.871   5.738  0.9491  0.6654 -0.0861
 9684TIP3    H229017   3.770   4.014   5.737 -2.9320  2.1797  0.8037
 9685TIP3   OH229018   1.269   5.103   4.397 -0.2611 -0.1670 -0.0343
 9685TIP3    H129019   1.201   5.133   4.457 -0.8701 -1.8447  0.1657
 9685TIP3    H229020   1.304   5.023   4.437  0.4129 -0.4571 -1.1431
 9686TIP3   OH229021   1.647   1.195   2.907  0.7351  0.1487 -0.4871
 9686TIP3    H129022   1.577   1.257   2.929  1.5932  0.5823  1.1252
 9686TIP3    H229023   1.611   1.110   2.932  0.4694  0.2644 -0.4653
 9687TIP3   OH229024   4.784   4.389   5.001  0.2722  0.0343  0.0811
 9687TIP3    H129025   4.768   4.391   5.096 -0.8313 -0.9864 -0.0638
 9687TIP3    H229026   4.807   4.480   4.979 -0.7740  0.5720  1.1056
 9688TIP3   OH229027   3.664   6.283   3.489 -0.0687  0.1501 -0.3134
 9688TIP3    H129028   3.573   6.271   3.462 -0.0452 -0.6252 -0.0564
 9688TIP3    H229029   3.712   6.300   3.408 -0.4579  0.7116 -0.4338
 9689TIP3   OH229030   0.382   0.999   1.437  0.0792  0.3576 -0.2661
 9689TIP3    H129031   0.429   1.071   1.479 -1.2683  0.8622  0.4477
 9689TIP3    H229032   0.437   0.923   1.452  1.6301  1.2400 -1.1897
 9690TIP3   OH229033   1.662   6.666   2.177  0.0056  0.1760 -0.5446
 9690TIP3    H129034   1.603   6.689   2.249  0.1544 -0.7310 -0.1214
 9690TIP3    H229035   1.733   6.730   2.183 -0.6001  0.8757 -0.6586
 9691TIP3   OH229036   0.026   5.088   1.822  0.0847  0.4679 -0.0981
 9691TIP3    H129037   0.115   5.068   1.793  0.6533  0.5215  1.5051
 9691TIP3    H229038  -0.018   5.003   1.824 -0.0557  0.4983 -1.3375
 9692TIP3   OH229039   3.623   4.743   3.960 -0.0638 -0.0812  0.5103
 9692TIP3    H129040   3.570   4.698   4.026 -1.2878 -1.8006 -1.5145
 9692TIP3    H229041   3.689   4.791   4.010 -1.2039 -0.9362  2.9695
 9693TIP3   OH229042   6.269   6.116   4.889 -0.3388  0.2132 -0.1445
 9693TIP3    H129043   6.354   6.076   4.904 -0.1237  0.9905  0.8022
 9693TIP3    H229044   6.220   6.100   4.970 -0.5544  1.0888 -0.0929
 9694TIP3   OH229045   6.950   5.334   1.237 -0.3917 -0.5696 -0.3672
 9694TIP3    H129046   6.880   5.383   1.193 -1.2369 -1.1703  0.2788
 9694TIP3    H229047   6.906   5.257   1.273  0.7259 -1.2831 -0.4850
 9695TIP3   OH229048   1.911   3.271   4.734 -0.0420 -0.9507 -0.2866
 9695TIP3    H129049   1.915   3.235   4.823 -1.0950  1.4071  0.8191
 9695TIP3    H229050   2.001   3.268   4.703  1.0594  1.3009  2.2772
 9696TIP3   OH229051   4.978   6.005   3.468  0.2293 -0.2994  0.0087
 9696TIP3    H129052   5.050   6.045   3.515  0.6618 -1.6682  0.5539
 9696TIP3    H229053   4.970   5.917   3.505  0.5106 -1.4133 -2.3410
 9697TIP3   OH229054   5.571   2.915   0.648  0.3268 -0.1950 -0.2984
 9697TIP3    H129055   5.607   2.982   0.706  2.9019  0.0188 -1.9674
 9697TIP3    H229056   5.636   2.845   0.649 -1.2808 -1.7682 -0.2642
 9698TIP3   OH229057   6.203   4.772   4.696 -0.0197  0.0530  0.4571
 9698TIP3    H129058   6.149   4.792   4.620 -0.3115  2.5518  1.2227
 9698TIP3    H229059   6.149   4.714   4.750 -0.8619  0.3682 -0.0299
 9699TIP3   OH229060   6.643   4.783   3.382 -0.1429 -0.3903 -0.3297
 9699TIP3    H129061   6.609   4.716   3.441 -0.7581 -1.7003 -2.0812
 9699TIP3    H229062   6.568   4.808   3.328  0.3521  0.9173 -0.4418
 9700TIP3   OH229063   1.468   6.465   2.372  0.4410 -0.1634  0.0901
 9700TIP3    H129064   1.394   6.406   2.356 -0.6349  1.4490 -1.2200
 9700TIP3    H229065   1.538   6.430   2.317 -0.2373 -0.1309 -0.8186
 9701TIP3   OH229066   3.736   3.596   4.766 -0.1454  0.0719  0.1316
 9701TIP3    H129067   3.773   3.556   4.687  1.4725 -1.0587  1.3698
 9701TIP3    H229068   3.764   3.687   4.762  0.1498 -0.0411 -0.4708
 9702TIP3   OH229069   0.351   6.729   4.627 -0.3687  0.0408  0.4210
 9702TIP3    H129070   0.391   6.803   4.673 -0.0745  0.3108 -0.2421
 9702TIP3    H229071   0.320   6.671   4.696 -1.4483  1.2295  0.9784
 9703TIP3   OH229072   4.269   2.921   1.181 -0.4369  0.2435 -0.4158
 9703TIP3    H129073   4.275   2.867   1.102 -1.1843  0.2358 -0.4741
 9703TIP3    H229074   4.177   2.917   1.205 -0.2818  0.5684  0.2360
 9704TIP3   OH229075   1.393   1.134   4.034 -0.3508  0.6909 -0.2764
 9704TIP3    H129076   1.432   1.151   3.948 -0.4074  1.3373 -0.1754
 9704TIP3    H229077   1.302   1.114   4.015 -0.1458 -0.1508 -0.4505
 9705TIP3   OH229078   6.719   6.101   5.488 -0.3858 -0.4531  0.0376
 9705TIP3    H129079   6.671   6.050   5.553  0.7229 -0.8798  0.5466
 9705TIP3    H229080   6.808   6.065   5.489  0.2889  1.1107 -0.0047
 9706TIP3   OH229081   4.639   3.660   1.419 -0.4660 -0.1858  0.2535
 9706TIP3    H129082   4.576   3.703   1.361  1.3313  2.2069 -0.1099
 9706TIP3    H229083   4.687   3.600   1.362  0.6748  1.4838 -0.6679
 9707TIP3   OH229084   5.696   3.615   0.333  0.0232  0.0366 -0.0223
 9707TIP3    H129085   5.733   3.623   0.245 -0.4306  1.9555 -0.0789
 9707TIP3    H229086   5.772   3.603   0.390  0.3495 -0.7617 -0.6023
 9708TIP3   OH229087   6.634   5.737   5.809  0.2917  0.3244  0.0406
 9708TIP3    H129088   6.644   5.757   5.902 -0.3476  1.2081 -0.0684
 9708TIP3    H229089   6.724   5.735   5.775  0.5848 -0.7852  0.8088
 9709TIP3   OH229090   1.631   1.630   2.497 -0.1740 -0.2640 -0.0381
 9709TIP3    H129091   1.626   1.624   2.402  2.2650  0.8217 -0.3050
 9709TIP3    H229092   1.560   1.574   2.528 -0.5291 -1.2848 -2.4707
 9710TIP3   OH229093   1.508   1.928   4.119 -1.1058  0.0820 -0.4292
 9710TIP3    H129094   1.452   1.894   4.189 -0.2296  0.0965  0.2990
 9710TIP3    H229095   1.564   1.854   4.096 -0.3736  0.4988 -0.0517
 9711TIP3   OH229096   6.582   2.668   5.209  0.8628 -0.2601  0.0349
 9711TIP3    H129097   6.503   2.648   5.259  2.0174 -1.6298  1.4608
 9711TIP3    H229098   6.565   2.632   5.121 -0.3350  0.0875  0.1129
 9712TIP3   OH229099   2.831   2.073   5.207 -0.3688  0.0977 -0.3000
 9712TIP3    H129100   2.840   2.168   5.198 -1.8136  0.2363 -0.5558
 9712TIP3    H229101   2.863   2.054   5.295  0.5605  0.7172 -0.4853
 9713TIP3   OH229102   6.381   6.560   5.647  0.5459 -0.6361 -0.9835
 9713TIP3    H129103   6.463   6.605   5.669 -1.4647  2.1113  1.6934
 9713TIP3    H229104   6.390   6.473   5.687  1.7634 -0.0034  0.2192
 9714TIP3   OH229105   2.150   3.956   2.548 -0.5438  0.0034 -0.6433
 9714TIP3    H129106   2.171   4.049   2.552  2.6225 -0.5360 -1.7563
 9714TIP3    H229107   2.218   3.919   2.492 -2.7486 -2.7342 -1.7410
 9715TIP3   OH229108   6.163   5.951   4.321  0.5839  0.4848 -0.7662
 9715TIP3    H129109   6.126   6.015   4.261  0.7687  0.4432 -0.9271
 9715TIP3    H229110   6.180   6.000   4.402 -1.7292  0.0692  0.0513
 9716TIP3   OH229111   5.405   4.444   0.391  0.5744 -0.4664  0.2074
 9716TIP3    H129112   5.421   4.389   0.468  0.5718 -1.5175 -0.5214
 9716TIP3    H229113   5.435   4.531   0.417  1.4546 -1.0072  1.0793
 9717TIP3   OH229114   6.172   6.683   3.147 -0.1921  0.1965 -0.1469
 9717TIP3    H129115   6.205   6.767   3.179 -0.7877 -0.4812  2.4683
 9717TIP3    H229116   6.094   6.706   3.097  0.6542  1.3111 -1.0012
 9718TIP3   OH229117   3.973   6.244   0.155 -0.4181  0.2645  0.4364
 9718TIP3    H129118   3.882   6.252   0.124 -0.2151 -1.1036 -0.5858
 9718TIP3    H229119   4.016   6.189   0.089  0.7139 -0.5467  1.8090
 9719TIP3   OH229120   3.471   4.650   0.818  0.3722 -0.5580  0.1780
 9719TIP3    H129121   3.458   4.739   0.783 -1.2170 -0.9765 -0.4211
 9719TIP3    H229122   3.484   4.663   0.912  0.7578  0.3468  0.0117
 9720TIP3   OH229123   2.783   5.565   5.478  0.0940 -0.3306  0.3744
 9720TIP3    H129124   2.719   5.539   5.411 -1.4763  2.4362  0.6662
 9720TIP3    H229125   2.843   5.623   5.432 -0.0064  0.2632  0.9837
 9721TIP3   OH229126   5.808   6.641   1.610  0.9319 -0.1314  0.9126
 9721TIP3    H129127   5.765   6.559   1.589  0.7998  0.6385 -2.4588
 9721TIP3    H229128   5.782   6.661   1.700 -2.6965 -1.5448  0.3211
 9722TIP3   OH229129   4.501   1.537   4.219  0.5783 -0.4779 -0.4591
 9722TIP3    H129130   4.499   1.614   4.276  0.4222  0.1733 -1.3128
 9722TIP3    H229131   4.417   1.538   4.174  0.6400 -1.0588 -0.5977
 9723TIP3   OH229132   4.127   5.266   4.656  0.3150  0.4209  0.0791
 9723TIP3    H129133   4.045   5.312   4.639 -0.5625  0.2567  3.2303
 9723TIP3    H229134   4.114   5.179   4.619 -1.9159 -0.3282  2.3317
 9724TIP3   OH229135   6.633   4.119   5.547  0.1094 -0.1235 -0.1053
 9724TIP3    H129136   6.575   4.045   5.566 -0.3153 -0.2172 -1.6163
 9724TIP3    H229137   6.660   4.106   5.456 -0.1438  1.6712 -0.4914
 9725TIP3   OH229138   4.079   2.284   1.199  0.0027 -0.4252  0.1811
 9725TIP3    H129139   4.120   2.208   1.240 -0.6550 -0.6144  0.5024
 9725TIP3    H229140   4.138   2.308   1.128  2.5518  1.4920  2.7679
 9726TIP3   OH229141   4.032   3.518   4.216 -0.0605 -0.1077  0.2055
 9726TIP3    H129142   4.083   3.483   4.289 -0.2177  0.3539  0.5460
 9726TIP3    H229143   4.095   3.565   4.162  0.1126 -0.7250 -0.1354
 9727TIP3   OH229144   0.706   0.768   2.290  0.3553 -0.0569 -0.4148
 9727TIP3    H129145   0.755   0.705   2.342  2.1372  0.7684 -1.0100
 9727TIP3    H229146   0.667   0.717   2.220 -0.0668 -0.8156  0.3665
 9728TIP3   OH229147   4.847   6.609   0.433 -0.4409 -0.3289  0.2936
 9728TIP3    H129148   4.826   6.515   0.430 -0.0008 -0.4595  1.0678
 9728TIP3    H229149   4.864   6.632   0.342 -2.9273 -0.4352 -0.2817
 9729TIP3   OH229150   1.121   0.454   0.636 -0.6694 -0.8628  0.2702
 9729TIP3    H129151   1.167   0.383   0.592 -2.0560 -0.9424 -1.1602
 9729TIP3    H229152   1.125   0.431   0.729  1.4930 -1.2086  0.1346
 9730TIP3   OH229153   7.030   5.444   2.882 -0.3113  0.3676  0.1465
 9730TIP3    H129154   6.950   5.463   2.833  0.0113  2.0514  0.2018
 9730TIP3    H229155   7.024   5.351   2.902 -0.9816 -0.1496 -2.1375
 9731TIP3   OH229156   3.551   3.216   0.752  0.7591  0.6265 -0.1408
 9731TIP3    H129157   3.520   3.234   0.663  0.3546  2.6771  0.3723
 9731TIP3    H229158   3.625   3.274   0.764  1.2176 -0.1004  0.6650
 9732TIP3   OH229159   5.250   4.514   0.166 -0.4828 -0.1753  0.8505
 9732TIP3    H129160   5.299   4.499   0.248 -0.0806 -0.0113  0.6447
 9732TIP3    H229161   5.211   4.601   0.177  2.5484  1.5323 -0.5439
 9733TIP3   OH229162   4.660   1.196   4.872 -0.4133 -0.4463 -0.2072
 9733TIP3    H129163   4.608   1.216   4.794 -2.4921 -2.1801  0.6145
 9733TIP3    H229164   4.595   1.182   4.941  1.1407 -2.4950  0.9661
 9734TIP3   OH229165   4.455   2.314   4.028 -0.2812 -0.2374  0.9581
 9734TIP3    H129166   4.398   2.390   4.015 -0.9996 -0.7505  1.0054
 9734TIP3    H229167   4.412   2.265   4.098 -0.0176 -0.8680  0.6789
 9735TIP3   OH229168   4.332   4.693   4.218  0.1730  0.2106 -0.3139
 9735TIP3    H129169   4.284   4.629   4.270 -1.5258  1.7013  0.0321
 9735TIP3    H229170   4.328   4.774   4.269  3.1495  0.4311 -0.2545
 9736TIP3   OH229171   3.351   0.641   3.580  0.2226  0.9377 -0.8300
 9736TIP3    H129172   3.267   0.679   3.608 -0.0648  1.0966 -1.8422
 9736TIP3    H229173   3.348   0.647   3.484  0.9119 -0.0907 -0.9227
 9737TIP3   OH229174   2.126   5.929   1.600 -0.4052 -0.3470  0.7596
 9737TIP3    H129175   2.090   5.890   1.680  0.8943  0.3888  1.7441
 9737TIP3    H229176   2.164   5.855   1.552 -0.9989 -0.7645  0.9228
 9738TIP3   OH229177   2.807   6.038   2.624 -0.0856  0.4653  0.2869
 9738TIP3    H129178   2.729   6.048   2.678 -1.2222  1.4230 -1.4097
 9738TIP3    H229179   2.847   6.125   2.622 -1.7317  1.3111 -2.6641
 9739TIP3   OH229180   0.596   3.518   1.994  0.5836  0.0153 -0.0748
 9739TIP3    H129181   0.564   3.592   2.045  0.5470  0.6473 -1.0065
 9739TIP3    H229182   0.552   3.442   2.032 -0.3574  0.6142  0.0554
 9740TIP3   OH229183   2.756   3.030   5.461  0.0401 -0.1882  0.0700
 9740TIP3    H129184   2.811   2.951   5.460 -2.8255 -2.3321  0.0412
 9740TIP3    H229185   2.666   2.997   5.461 -1.3633  3.1148 -1.8239
 9741TIP3   OH229186   6.569   3.766   2.054  0.0314  0.1790 -0.7788
 9741TIP3    H129187   6.650   3.814   2.073  0.0269  1.4856 -3.4722
 9741TIP3    H229188   6.598   3.677   2.032  0.4541 -0.0260  0.5478
 9742TIP3   OH229189   0.554   6.529   4.619  0.2430 -0.3025  0.2835
 9742TIP3    H129190   0.610   6.567   4.687  0.9459  0.9713 -0.9213
 9742TIP3    H229191   0.488   6.597   4.602  0.9357  0.0408 -1.2449
 9743TIP3   OH229192   4.918   2.578   0.657 -0.6231 -0.3144  0.8934
 9743TIP3    H129193   4.928   2.516   0.586 -0.9845 -0.1561  0.7016
 9743TIP3    H229194   4.890   2.660   0.615 -0.0916 -0.0032  1.1344
 9744TIP3   OH229195   4.610   2.896   2.233  0.6908  0.1203 -0.3911
 9744TIP3    H129196   4.619   2.813   2.281 -0.1343  1.7288  2.8141
 9744TIP3    H229197   4.694   2.939   2.244  0.0894  1.0488  0.8539
 9745TIP3   OH229198   4.574   3.641   5.351  0.0788 -0.3058  0.7682
 9745TIP3    H129199   4.568   3.618   5.444 -1.2163  0.3763  0.8703
 9745TIP3    H229200   4.638   3.712   5.348 -0.6272  0.3624  1.2792
 9746TIP3   OH229201   5.559   0.913   4.580  0.0946  0.5746 -0.4572
 9746TIP3    H129202   5.592   0.829   4.549  1.3640  0.3619  1.3553
 9746TIP3    H229203   5.493   0.891   4.645  1.3976  0.9163  1.0337
 9747TIP3   OH229204   2.249   3.079   2.808 -0.7056  0.2661  0.7847
 9747TIP3    H129205   2.261   3.167   2.842 -1.9968  1.2605 -1.1289
 9747TIP3    H229206   2.328   3.062   2.757  1.1051 -1.1187  3.7756
 9748TIP3   OH229207   0.631   5.969   5.738  0.0011  0.3199  0.2168
 9748TIP3    H129208   0.675   5.903   5.684 -0.3809  0.7811 -0.6859
 9748TIP3    H229209   0.594   5.919   5.810  0.5738 -0.3095  0.0958
 9749TIP3   OH229210   3.120   0.222   5.115 -0.2236  0.2887  0.9403
 9749TIP3    H129211   3.181   0.245   5.044 -1.2781  0.5913  0.1142
 9749TIP3    H229212   3.044   0.277   5.100 -1.5510 -1.4896  0.7468
   7.20932   6.79702   5.88637   0.00000   0.00000  -2.40311   0.00000  -2.40311  -3.39850
