Title
68179
    1GLY      N    1   7.557   5.331   4.038
    1GLY    HT1    2   7.647   5.377   4.061
    1GLY    HT2    3   7.484   5.403   4.021
    1GLY    HT3    4   7.571   5.282   3.947
    1GLY     CA    5   7.515   5.233   4.145
    1GLY    HA1    6   7.505   5.288   4.237
    1GLY    HA2    7   7.590   5.155   4.148
    1GLY      C    8   7.382   5.169   4.115
    1GLY      O    9   7.326   5.198   4.009
    2PRO      N   10   7.326   5.085   4.201
    2PRO     CD   11   7.398   5.022   4.312
    2PRO    HD1   12   7.406   5.094   4.396
    2PRO    HD2   13   7.499   4.985   4.282
    2PRO     CA   14   7.187   5.041   4.195
    2PRO     HA   15   7.178   4.979   4.107
    2PRO     CB   16   7.168   4.962   4.326
    2PRO    HB1   17   7.091   4.882   4.315
    2PRO    HB2   18   7.138   5.029   4.409
    2PRO     CG   19   7.307   4.905   4.352
    2PRO    HG1   20   7.322   4.873   4.458
    2PRO    HG2   21   7.326   4.819   4.285
    2PRO      C   22   7.081   5.150   4.179
    2PRO      O   23   7.110   5.269   4.197
    3GLY      N   24   6.958   5.112   4.141
    3GLY     HN   25   6.938   5.016   4.126
    3GLY     CA   26   6.844   5.202   4.149
    3GLY    HA1   27   6.765   5.161   4.088
    3GLY    HA2   28   6.874   5.302   4.120
    3GLY      C   29   6.790   5.211   4.289
    3GLY      O   30   6.824   5.132   4.377
    4ASP      N   31   6.698   5.306   4.313
    4ASP     HN   32   6.667   5.367   4.240
    4ASP     CA   33   6.624   5.312   4.437
    4ASP     HA   34   6.694   5.290   4.516
    4ASP     CB   35   6.566   5.455   4.461
    4ASP    HB1   36   6.497   5.455   4.549
    4ASP    HB2   37   6.509   5.488   4.372
    4ASP     CG   38   6.674   5.558   4.490
    4ASP    OD1   39   6.790   5.519   4.521
    4ASP    OD2   40   6.643   5.680   4.493
    4ASP      C   41   6.516   5.201   4.434
    4ASP      O   42   6.468   5.166   4.325
    5PRO      N   43   6.479   5.137   4.546
    5PRO     CD   44   6.545   5.154   4.676
    5PRO    HD1   45   6.518   5.254   4.716
    5PRO    HD2   46   6.655   5.145   4.667
    5PRO     CA   47   6.368   5.043   4.555
    5PRO     HA   48   6.403   4.953   4.507
    5PRO     CB   49   6.347   5.022   4.706
    5PRO    HB1   50   6.307   4.921   4.729
    5PRO    HB2   51   6.279   5.099   4.747
    5PRO     CG   52   6.488   5.043   4.764
    5PRO    HG1   53   6.486   5.070   4.871
    5PRO    HG2   54   6.547   4.950   4.751
    5PRO      C   55   6.239   5.079   4.483
    5PRO      O   56   6.199   5.196   4.478
    6GLY      N   57   6.170   4.978   4.425
    6GLY     HN   58   6.203   4.884   4.434
    6GLY     CA   59   6.036   4.995   4.370
    6GLY    HA1   60   6.003   4.899   4.332
    6GLY    HA2   61   6.041   5.071   4.293
    6GLY      C   62   5.937   5.040   4.473
    6GLY      O   63   5.945   5.002   4.589
    7SER      N   64   5.837   5.121   4.434
    7SER     HN   65   5.831   5.155   4.340
    7SER     CA   66   5.735   5.166   4.528
    7SER     HA   67   5.787   5.214   4.609
    7SER     CB   68   5.638   5.272   4.470
    7SER    HB1   69   5.553   5.290   4.539
    7SER    HB2   70   5.597   5.236   4.373
    7SER     OG   71   5.708   5.395   4.451
    7SER    HG1   72   5.641   5.459   4.425
    7SER      C   73   5.655   5.054   4.593
    7SER      O   74   5.630   4.949   4.534
    8GLY      N   75   5.619   5.074   4.722
    8GLY     HN   76   5.642   5.160   4.766
    8GLY     CA   77   5.542   4.979   4.801
    8GLY    HA1   78   5.529   5.022   4.899
    8GLY    HA2   79   5.599   4.887   4.802
    8GLY      C   80   5.405   4.951   4.745
    8GLY      O   81   5.355   5.028   4.662
    9PRO      N   82   5.339   4.844   4.788
    9PRO     CD   83   5.386   4.756   4.897
    9PRO    HD1   84   5.437   4.813   4.978
    9PRO    HD2   85   5.456   4.681   4.853
    9PRO     CA   86   5.200   4.816   4.753
    9PRO     HA   87   5.196   4.804   4.646
    9PRO     CB   88   5.168   4.686   4.828
    9PRO    HB1   89   5.195   4.600   4.764
    9PRO    HB2   90   5.061   4.678   4.857
    9PRO     CG   91   5.260   4.688   4.950
    9PRO    HG1   92   5.214   4.751   5.029
    9PRO    HG2   93   5.280   4.587   4.991
    9PRO      C   94   5.103   4.929   4.786
    9PRO      O   95   5.126   5.008   4.878
   10GLY      N   96   4.994   4.938   4.709
   10GLY     HN   97   4.985   4.880   4.628
   10GLY     CA   98   4.878   5.018   4.744
   10GLY    HA1   99   4.805   5.003   4.666
   10GLY    HA2  100   4.909   5.121   4.755
   10GLY      C  101   4.811   4.976   4.873
   10GLY      O  102   4.822   4.862   4.917
   11ASP      N  103   4.736   5.069   4.935
   11ASP     HN  104   4.726   5.161   4.898
   11ASP     CA  105   4.655   5.040   5.051
   11ASP     HA  106   4.723   4.995   5.122
   11ASP     CB  107   4.595   5.171   5.111
   11ASP    HB1  108   4.510   5.149   5.179
   11ASP    HB2  109   4.557   5.236   5.029
   11ASP     CG  110   4.696   5.248   5.193
   11ASP    OD1  111   4.794   5.186   5.241
   11ASP    OD2  112   4.673   5.368   5.221
   11ASP      C  113   4.544   4.938   5.022
   11ASP      O  114   4.490   4.938   4.911
   12PRO      N  115   4.508   4.849   5.115
   12PRO     CD  116   4.580   4.826   5.241
   12PRO    HD1  117   4.573   4.917   5.304
   12PRO    HD2  118   4.687   4.802   5.221
   12PRO     CA  119   4.387   4.766   5.109
   12PRO     HA  120   4.410   4.685   5.041
   12PRO     CB  121   4.367   4.717   5.253
   12PRO    HB1  122   4.315   4.620   5.258
   12PRO    HB2  123   4.311   4.792   5.313
   12PRO     CG  124   4.510   4.708   5.307
   12PRO    HG1  125   4.513   4.713   5.418
   12PRO    HG2  126   4.557   4.613   5.274
   12PRO      C  127   4.262   4.832   5.052
   12PRO      O  128   4.236   4.950   5.080
   13GLY      N  129   4.184   4.759   4.970
   13GLY     HN  130   4.209   4.666   4.948
   13GLY     CA  131   4.051   4.804   4.928
   13GLY    HA1  132   4.011   4.728   4.862
   13GLY    HA2  133   4.061   4.901   4.882
   13GLY      C  134   3.956   4.817   5.044
   13GLY      O  135   3.971   4.749   5.145
   14SER      N  136   3.854   4.904   5.031
   14SER     HN  137   3.844   4.961   4.950
   14SER     CA  138   3.751   4.919   5.133
   14SER     HA  139   3.803   4.942   5.225
   14SER     CB  140   3.648   5.032   5.106
   14SER    HB1  141   3.563   5.027   5.178
   14SER    HB2  142   3.606   5.021   5.004
   14SER     OG  143   3.708   5.161   5.120
   14SER    HG1  144   3.757   5.160   5.202
   14SER      C  145   3.673   4.792   5.162
   14SER      O  146   3.645   4.713   5.072
   15GLY      N  147   3.638   4.773   5.291
   15GLY     HN  148   3.667   4.837   5.361
   15GLY     CA  149   3.550   4.665   5.335
   15GLY    HA1  150   3.534   4.679   5.440
   15GLY    HA2  151   3.600   4.573   5.310
   15GLY      C  152   3.413   4.664   5.268
   15GLY      O  153   3.371   4.763   5.208
   16PRO      N  154   3.340   4.553   5.277
   16PRO     CD  155   3.372   4.444   5.370
   16PRO    HD1  156   3.407   4.481   5.468
   16PRO    HD2  157   3.450   4.379   5.324
   16PRO     CA  158   3.202   4.546   5.230
   16PRO     HA  159   3.200   4.569   5.125
   16PRO     CB  160   3.163   4.400   5.260
   16PRO    HB1  161   3.199   4.336   5.177
   16PRO    HB2  162   3.053   4.386   5.271
   16PRO     CG  163   3.241   4.367   5.387
   16PRO    HG1  164   3.187   4.406   5.476
   16PRO    HG2  165   3.257   4.257   5.399
   16PRO      C  166   3.109   4.646   5.298
   16PRO      O  167   3.138   4.693   5.408
   17GLY      N  168   2.997   4.682   5.233
   17GLY     HN  169   2.978   4.646   5.142
   17GLY     CA  170   2.889   4.755   5.300
   17GLY    HA1  171   2.811   4.770   5.226
   17GLY    HA2  172   2.928   4.847   5.339
   17GLY      C  173   2.826   4.680   5.415
   17GLY      O  174   2.837   4.558   5.426
   18ASP      N  175   2.753   4.752   5.502
   18ASP     HN  176   2.753   4.852   5.501
   18ASP     CA  177   2.671   4.694   5.608
   18ASP     HA  178   2.739   4.640   5.672
   18ASP     CB  179   2.600   4.805   5.692
   18ASP    HB1  180   2.541   4.757   5.772
   18ASP    HB2  181   2.530   4.861   5.626
   18ASP     CG  182   2.690   4.910   5.758
   18ASP    OD1  183   2.811   4.923   5.726
   18ASP    OD2  184   2.633   4.989   5.838
   18ASP      C  185   2.564   4.599   5.549
   18ASP      O  186   2.512   4.632   5.441
   19PRO      N  187   2.530   4.484   5.608
   19PRO     CD  188   2.614   4.415   5.706
   19PRO    HD1  189   2.585   4.448   5.808
   19PRO    HD2  190   2.723   4.433   5.690
   19PRO     CA  191   2.425   4.396   5.555
   19PRO     HA  192   2.443   4.380   5.450
   19PRO     CB  193   2.438   4.267   5.638
   19PRO    HB1  194   2.413   4.178   5.577
   19PRO    HB2  195   2.370   4.270   5.726
   19PRO     CG  196   2.583   4.266   5.687
   19PRO    HG1  197   2.596   4.207   5.780
   19PRO    HG2  198   2.649   4.225   5.607
   19PRO      C  199   2.284   4.452   5.569
   19PRO    OT1  200   2.260   4.537   5.659
   19PRO    OT2  201   2.195   4.403   5.494
   20LIT    LIT  202   2.161   9.096   3.196
   21LIT    LIT  203   4.421   7.589   7.095
   22LIT    LIT  204   8.583   6.408   7.231
   23LIT    LIT  205   6.709   3.301   7.619
   24LIT    LIT  206   5.840   2.483   4.008
   25LIT    LIT  207   9.000   0.145   2.570
   26LIT    LIT  208   5.562   1.436   0.803
   27LIT    LIT  209   3.765   3.136   7.609
   28LIT    LIT  210   0.876   6.336   1.216
   29LIT    LIT  211   4.120   3.963   4.309
   30LIT    LIT  212   5.079   2.693   5.665
   31LIT    LIT  213   3.528   9.110   7.693
   32LIT    LIT  214   6.416   6.437   0.350
   33LIT    LIT  215   6.544   7.896   3.942
   34LIT    LIT  216   7.016   1.727   1.067
   35LIT    LIT  217   2.753   0.440   5.195
   36LIT    LIT  218   9.196   3.242   6.835
   37LIT    LIT  219   5.012   0.839   1.424
   38LIT    LIT  220   7.080   7.897   6.340
   39LIT    LIT  221   8.519   8.405   4.255
   40LIT    LIT  222   7.626   7.944   1.456
   41LIT    LIT  223   1.366   1.898   7.937
   42LIT    LIT  224   3.176   2.095   3.638
   43LIT    LIT  225   5.756   5.203   3.267
   44LIT    LIT  226   2.431   6.429   3.497
   45LIT    LIT  227   9.318   4.399   4.675
   46LIT    LIT  228   6.695   8.271   6.571
   47LIT    LIT  229   3.028   3.535   4.048
   48LIT    LIT  230   4.411   0.668   4.550
   49LIT    LIT  231   6.281   4.737   0.944
   50LIT    LIT  232   7.791   6.716   1.051
   51LIT    LIT  233   6.176   3.120   0.344
   52LIT    LIT  234   3.859   7.227   3.880
   53LIT    LIT  235   8.585   5.447   4.708
   54LIT    LIT  236   7.411   0.616   7.777
   55LIT    LIT  237   8.621   4.300   3.582
   56LIT    LIT  238   7.155   2.279   4.270
   57LIT    LIT  239   0.092   5.866   4.502
   58LIT    LIT  240   0.729   2.088   5.032
   59LIT    LIT  241   2.685   1.680   4.919
   60LIT    LIT  242   6.856   8.916   2.653
   61LIT    LIT  243   2.655   0.883   1.254
   62LIT    LIT  244   5.047   4.670   0.549
   63LIT    LIT  245   7.181   9.103   4.444
   64LIT    LIT  246   9.229   0.176   1.555
   65LIT    LIT  247   3.161   5.668   7.204
   66LIT    LIT  248   3.525   1.522   2.566
   67LIT    LIT  249   5.149   0.275   2.258
   68LIT    LIT  250   8.495   1.478   2.089
   69LIT    LIT  251   5.802   8.470   3.199
   70LIT    LIT  252   6.815   5.251   1.230
   71LIT    LIT  253   0.585   2.309   4.150
   72LIT    LIT  254   1.842   7.742   6.974
   73LIT    LIT  255   0.082   0.089   7.565
   74LIT    LIT  256   0.687   5.434   3.633
   75LIT    LIT  257   9.582   5.428   7.038
   76LIT    LIT  258   2.530   9.082   4.796
   77LIT    LIT  259   4.197   4.478   6.617
   78LIT    LIT  260   4.029   1.455   4.414
   79LIT    LIT  261   4.938   5.042   5.757
   80LIT    LIT  262   1.910   3.028   4.014
   81LIT    LIT  263   6.171   6.830   5.754
   82LIT    LIT  264   9.717   6.085   3.637
   83LIT    LIT  265   2.605   2.697   2.602
   84LIT    LIT  266   7.617   0.245   4.107
   85LIT    LIT  267   0.364   5.145   5.504
   86LIT    LIT  268   2.274   8.932   7.686
   87LIT    LIT  269   1.792   6.891   4.550
   88CLA    CLA  270   2.749   4.942   2.357
   89CLA    CLA  271   3.685   1.296   2.805
   90CLA    CLA  272   3.932   5.156   2.017
   91CLA    CLA  273   7.419   8.207   3.382
   92CLA    CLA  274   8.431   1.142   0.012
   93CLA    CLA  275   0.005   5.595   6.154
   94CLA    CLA  276   2.091   3.104   4.128
   95CLA    CLA  277   1.765   7.012   4.365
   96CLA    CLA  278   3.753   8.500   6.643
   97CLA    CLA  279   2.572   2.968   1.139
   98CLA    CLA  280   8.652   6.063   0.519
   99CLA    CLA  281   8.881   3.072   6.116
  100CLA    CLA  282   0.484   0.479   4.130
  101CLA    CLA  283   1.756   0.440   0.331
  102CLA    CLA  284   4.327   0.187   2.247
  103CLA    CLA  285   0.025   6.082   0.088
  104CLA    CLA  286   5.353   5.391   3.747
  105CLA    CLA  287   7.622   1.568   3.268
  106CLA    CLA  288   1.673   0.856   1.500
  107CLA    CLA  289   2.363   1.529   2.936
  108CLA    CLA  290   4.507   3.439   6.841
  109CLA    CLA  291   5.735   2.159   0.457
  110CLA    CLA  292   9.029   3.514   2.086
  111CLA    CLA  293   4.806   2.562   5.473
  112CLA    CLA  294   5.096   4.520   7.405
  113CLA    CLA  295   3.053   5.593   7.574
  114CLA    CLA  296   2.055   7.888   2.515
  115CLA    CLA  297   2.842   9.085   7.833
  116CLA    CLA  298   1.400   4.472   0.677
  117CLA    CLA  299   2.977   8.207   5.234
  118CLA    CLA  300   4.785   6.328   0.832
  119CLA    CLA  301   0.609   2.789   6.751
  120CLA    CLA  302   7.191   2.715   7.946
  121CLA    CLA  303   0.246   8.958   5.108
  122CLA    CLA  304   8.467   0.198   2.607
  123CLA    CLA  305   0.065   7.394   4.205
  124CLA    CLA  306   4.082   5.085   6.025
  125CLA    CLA  307   5.515   2.708   5.629
  126CLA    CLA  308   6.855   7.867   6.660
  127CLA    CLA  309   3.606   3.351   3.739
  128CLA    CLA  310   3.847   1.368   4.545
  129CLA    CLA  311   6.663   6.757   5.662
  130CLA    CLA  312   8.107   5.414   5.105
  131CLA    CLA  313   9.293   2.380   1.794
  132CLA    CLA  314   0.245   4.470   3.122
  133CLA    CLA  315   1.117   2.454   3.829
  134CLA    CLA  316   8.288   4.812   3.883
  135CLA    CLA  317   2.979   5.419   3.146
  136CLA    CLA  318   0.050   5.392   2.906
  137CLA    CLA  319   0.737   2.310   4.988
  138CLA    CLA  320   6.103   5.968   7.660
  139CLA    CLA  321   2.597   2.346   5.319
  140CLA    CLA  322   2.500   1.052   5.564
  141CLA    CLA  323   6.430   8.188   0.864
  142CLA    CLA  324   7.137   5.021   0.829
  143CLA    CLA  325   8.670   3.940   7.447
  144CLA    CLA  326   5.242   4.656   0.439
  145CLA    CLA  327   5.103   0.881   2.543
  146CLA    CLA  328   5.676   0.369   0.746
  147CLA    CLA  329   1.466   2.933   3.614
  148CLA    CLA  330   5.581   3.816   3.671
  149CLA    CLA  331   8.857   0.206   0.981
  150CLA    CLA  332   5.847   8.610   3.363
  151CLA    CLA  333   2.964   1.161   1.224
  152CLA    CLA  334   6.670   6.112   3.309
  153TIP3   OH2  335   1.283   9.182   1.698
  153TIP3    H1  336   1.201   9.216   1.733
  153TIP3    H2  337   1.323   9.257   1.653
  154TIP3   OH2  338   4.876   0.026   2.050
  154TIP3    H1  339   4.870  -0.012   1.962
  154TIP3    H2  340   4.791   0.069   2.063
  155TIP3   OH2  341   1.729   8.899   1.861
  155TIP3    H1  342   1.645   8.923   1.900
  155TIP3    H2  343   1.708   8.882   1.769
  156TIP3   OH2  344   1.320   8.784   2.199
  156TIP3    H1  345   1.296   8.870   2.163
  156TIP3    H2  346   1.327   8.727   2.123
  157TIP3   OH2  347   4.991   0.262   2.145
  157TIP3    H1  348   4.966   0.183   2.096
  157TIP3    H2  349   4.908   0.309   2.158
  158TIP3   OH2  350   1.620   8.780   2.318
  158TIP3    H1  351   1.545   8.840   2.327
  158TIP3    H2  352   1.615   8.748   2.228
  159TIP3   OH2  353   1.064   8.619   2.482
  159TIP3    H1  354   1.072   8.584   2.571
  159TIP3    H2  355   1.138   8.580   2.435
  160TIP3   OH2  356   4.698   0.675   2.167
  160TIP3    H1  357   4.685   0.700   2.076
  160TIP3    H2  358   4.784   0.710   2.190
  161TIP3   OH2  359   1.461   8.964   1.949
  161TIP3    H1  360   1.490   9.044   1.906
  161TIP3    H2  361   1.402   8.993   2.018
  162TIP3   OH2  362   1.032   9.119   2.258
  162TIP3    H1  363   1.044   9.092   2.348
  162TIP3    H2  364   1.033   9.214   2.261
  163TIP3   OH2  365   4.486   0.285   2.008
  163TIP3    H1  366   4.445   0.256   2.090
  163TIP3    H2  367   4.414   0.321   1.957
  164TIP3   OH2  368   4.581   0.204   1.600
  164TIP3    H1  369   4.489   0.224   1.616
  164TIP3    H2  370   4.583   0.173   1.509
  165TIP3   OH2  371   3.357   0.367   2.558
  165TIP3    H1  372   3.436   0.377   2.612
  165TIP3    H2  373   3.320   0.283   2.585
  166TIP3   OH2  374   3.819   0.307   2.587
  166TIP3    H1  375   3.895   0.254   2.608
  166TIP3    H2  376   3.828   0.325   2.493
  167TIP3   OH2  377   0.825   9.117   2.526
  167TIP3    H1  378   0.807   9.104   2.433
  167TIP3    H2  379   0.915   9.090   2.538
  168TIP3   OH2  380   1.276   9.057   2.142
  168TIP3    H1  381   1.288   9.136   2.089
  168TIP3    H2  382   1.188   9.067   2.180
  169TIP3   OH2  383   1.097   9.047   2.525
  169TIP3    H1  384   1.167   9.113   2.527
  169TIP3    H2  385   1.120   8.986   2.595
  170TIP3   OH2  386   1.397   8.562   2.588
  170TIP3    H1  387   1.349   8.508   2.525
  170TIP3    H2  388   1.368   8.651   2.570
  171TIP3   OH2  389   1.473   9.025   2.331
  171TIP3    H1  390   1.401   9.041   2.271
  171TIP3    H2  391   1.552   9.041   2.279
  172TIP3   OH2  392   4.800   0.372   1.539
  172TIP3    H1  393   4.709   0.343   1.545
  172TIP3    H2  394   4.823   0.359   1.447
  173TIP3   OH2  395   4.893   0.505   1.948
  173TIP3    H1  396   4.837   0.428   1.961
  173TIP3    H2  397   4.977   0.479   1.985
  174TIP3   OH2  398   4.857   0.135   2.408
  174TIP3    H1  399   4.778   0.136   2.462
  174TIP3    H2  400   4.873   0.227   2.387
  175TIP3   OH2  401   1.582   9.157   1.797
  175TIP3    H1  402   1.607   9.120   1.712
  175TIP3    H2  403   1.563   9.249   1.777
  176TIP3   OH2  404   4.749   0.277   1.973
  176TIP3    H1  405   4.654   0.275   1.973
  176TIP3    H2  406   4.774   0.234   1.892
  177TIP3   OH2  407   1.709   9.063   2.198
  177TIP3    H1  408   1.783   9.021   2.155
  177TIP3    H2  409   1.687   9.137   2.142
  178TIP3   OH2  410   1.885   8.839   2.212
  178TIP3    H1  411   1.791   8.828   2.230
  178TIP3    H2  412   1.923   8.855   2.299
  179TIP3   OH2  413   1.628   8.734   2.055
  179TIP3    H1  414   1.543   8.737   2.011
  179TIP3    H2  415   1.691   8.751   1.985
  180TIP3   OH2  416   4.036   0.370   2.298
  180TIP3    H1  417   4.092   0.349   2.373
  180TIP3    H2  418   4.091   0.354   2.221
  181TIP3   OH2  419   4.281   0.494   2.179
  181TIP3    H1  420   4.301   0.404   2.206
  181TIP3    H2  421   4.332   0.549   2.239
  182TIP3   OH2  422   4.264   0.329   1.857
  182TIP3    H1  423   4.182   0.315   1.904
  182TIP3    H2  424   4.245   0.400   1.796
  183TIP3   OH2  425   4.583   0.572   1.766
  183TIP3    H1  426   4.550   0.659   1.742
  183TIP3    H2  427   4.528   0.545   1.840
  184TIP3   OH2  428   4.740   0.405   2.226
  184TIP3    H1  429   4.690   0.356   2.161
  184TIP3    H2  430   4.725   0.497   2.203
  185TIP3   OH2  431   5.527   0.104   1.643
  185TIP3    H1  432   5.465   0.177   1.650
  185TIP3    H2  433   5.490   0.036   1.699
  186TIP3   OH2  434   5.720   0.229   1.807
  186TIP3    H1  435   5.652   0.281   1.850
  186TIP3    H2  436   5.672   0.178   1.741
  187TIP3   OH2  437   2.161   9.159   1.826
  187TIP3    H1  438   2.180   9.204   1.909
  187TIP3    H2  439   2.113   9.080   1.852
  188TIP3   OH2  440   5.493   0.377   1.896
  188TIP3    H1  441   5.497   0.403   1.804
  188TIP3    H2  442   5.422   0.313   1.900
  189TIP3   OH2  443   1.860   9.216   1.836
  189TIP3    H1  444   1.770   9.185   1.824
  189TIP3    H2  445   1.904   9.143   1.880
  190TIP3   OH2  446   5.057   0.192   1.575
  190TIP3    H1  447   5.106   0.262   1.618
  190TIP3    H2  448   5.012   0.235   1.502
  191TIP3   OH2  449   5.917   0.385   1.689
  191TIP3    H1  450   5.901   0.472   1.726
  191TIP3    H2  451   5.858   0.327   1.737
  192TIP3   OH2  452   5.291   0.192   1.881
  192TIP3    H1  453   5.340   0.151   1.952
  192TIP3    H2  454   5.226   0.126   1.855
  193TIP3   OH2  455   6.503   0.964   1.656
  193TIP3    H1  456   6.491   0.967   1.561
  193TIP3    H2  457   6.583   1.013   1.672
  194TIP3   OH2  458   5.442   0.059   2.068
  194TIP3    H1  459   5.525   0.075   2.114
  194TIP3    H2  460   5.397  -0.006   2.121
  195TIP3   OH2  461   1.968   8.993   1.958
  195TIP3    H1  462   1.987   8.956   2.044
  195TIP3    H2  463   1.897   8.939   1.924
  196TIP3   OH2  464   6.161   0.473   1.589
  196TIP3    H1  465   6.079   0.425   1.599
  196TIP3    H2  466   6.190   0.490   1.679
  197TIP3   OH2  467   5.740   0.466   1.498
  197TIP3    H1  468   5.781   0.540   1.454
  197TIP3    H2  469   5.810   0.427   1.551
  198TIP3   OH2  470   6.324   0.677   1.510
  198TIP3    H1  471   6.274   0.596   1.513
  198TIP3    H2  472   6.315   0.709   1.420
  199TIP3   OH2  473   5.197   0.382   1.699
  199TIP3    H1  474   5.236   0.329   1.769
  199TIP3    H2  475   5.221   0.472   1.721
  200TIP3   OH2  476   5.152   0.612   2.065
  200TIP3    H1  477   5.226   0.639   2.120
  200TIP3    H2  478   5.075   0.627   2.121
  201TIP3   OH2  479   5.583   0.544   2.094
  201TIP3    H1  480   5.677   0.528   2.100
  201TIP3    H2  481   5.554   0.493   2.019
  202TIP3   OH2  482   6.223   0.521   1.852
  202TIP3    H1  483   6.219   0.446   1.912
  202TIP3    H2  484   6.304   0.567   1.876
  203TIP3   OH2  485   5.872   0.153   2.022
  203TIP3    H1  486   5.833   0.165   1.936
  203TIP3    H2  487   5.959   0.117   2.004
  204TIP3   OH2  488   2.082   9.096   2.224
  204TIP3    H1  489   2.143   9.027   2.198
  204TIP3    H2  490   2.099   9.110   2.317
  205TIP3   OH2  491   6.134   0.064   1.993
  205TIP3    H1  492   6.177   0.031   1.914
  205TIP3    H2  493   6.173   0.013   2.064
  206TIP3   OH2  494   2.277   8.915   2.163
  206TIP3    H1  495   2.291   8.841   2.222
  206TIP3    H2  496   2.364   8.937   2.130
  207TIP3   OH2  497   4.887   0.348   1.280
  207TIP3    H1  498   4.886   0.308   1.193
  207TIP3    H2  499   4.980   0.367   1.296
  208TIP3   OH2  500   6.667   0.361   1.954
  208TIP3    H1  501   6.591   0.373   2.011
  208TIP3    H2  502   6.716   0.443   1.962
  209TIP3   OH2  503   5.275   0.373   2.146
  209TIP3    H1  504   5.249   0.443   2.085
  209TIP3    H2  505   5.370   0.380   2.150
  210TIP3   OH2  506   5.503   0.410   1.629
  210TIP3    H1  507   5.462   0.490   1.594
  210TIP3    H2  508   5.588   0.407   1.586
  211TIP3   OH2  509   5.887   0.655   1.758
  211TIP3    H1  510   5.924   0.651   1.846
  211TIP3    H2  511   5.954   0.700   1.706
  212TIP3   OH2  512   6.086   0.800   1.631
  212TIP3    H1  513   6.155   0.749   1.589
  212TIP3    H2  514   6.133   0.862   1.687
  213TIP3   OH2  515   5.186   0.660   1.668
  213TIP3    H1  516   5.095   0.630   1.670
  213TIP3    H2  517   5.189   0.731   1.732
  214TIP3   OH2  518   5.413   0.646   1.520
  214TIP3    H1  519   5.327   0.655   1.560
  214TIP3    H2  520   5.396   0.637   1.426
  215TIP3   OH2  521   5.815   0.678   1.337
  215TIP3    H1  522   5.734   0.675   1.287
  215TIP3    H2  523   5.822   0.769   1.367
  216TIP3   OH2  524   6.081   0.656   1.249
  216TIP3    H1  525   6.037   0.609   1.178
  216TIP3    H2  526   6.015   0.663   1.318
  217TIP3   OH2  527   6.295   0.824   1.268
  217TIP3    H1  528   6.270   0.902   1.218
  217TIP3    H2  529   6.224   0.761   1.250
  218TIP3   OH2  530   5.118   0.448   1.432
  218TIP3    H1  531   5.152   0.442   1.522
  218TIP3    H2  532   5.159   0.374   1.386
  219TIP3   OH2  533   5.164   0.232   1.278
  219TIP3    H1  534   5.188   0.139   1.287
  219TIP3    H2  535   5.205   0.259   1.196
  220TIP3   OH2  536   5.575   0.524   1.290
  220TIP3    H1  537   5.551   0.439   1.253
  220TIP3    H2  538   5.626   0.503   1.367
  221TIP3   OH2  539   6.550   0.691   1.675
  221TIP3    H1  540   6.480   0.663   1.617
  221TIP3    H2  541   6.541   0.786   1.680
  222TIP3   OH2  542   6.949   0.930   1.565
  222TIP3    H1  543   7.028   0.930   1.619
  222TIP3    H2  544   6.919   0.840   1.567
  223TIP3   OH2  545   2.642   1.590   2.164
  223TIP3    H1  546   2.559   1.553   2.134
  223TIP3    H2  547   2.681   1.628   2.085
  224TIP3   OH2  548   2.842   1.888   2.266
  224TIP3    H1  549   2.853   1.794   2.280
  224TIP3    H2  550   2.770   1.913   2.324
  225TIP3   OH2  551   2.567   2.236   2.351
  225TIP3    H1  552   2.561   2.254   2.257
  225TIP3    H2  553   2.650   2.274   2.378
  226TIP3   OH2  554   2.884   1.615   2.287
  226TIP3    H1  555   2.790   1.607   2.273
  226TIP3    H2  556   2.923   1.591   2.203
  227TIP3   OH2  557   2.379   1.889   2.197
  227TIP3    H1  558   2.338   1.850   2.275
  227TIP3    H2  559   2.317   1.956   2.169
  228TIP3   OH2  560   1.660   1.880   2.794
  228TIP3    H1  561   1.724   1.938   2.835
  228TIP3    H2  562   1.712   1.815   2.748
  229TIP3   OH2  563   2.285   1.836   2.460
  229TIP3    H1  564   2.244   1.765   2.510
  229TIP3    H2  565   2.355   1.868   2.517
  230TIP3   OH2  566   2.344   1.293   2.735
  230TIP3    H1  567   2.399   1.334   2.669
  230TIP3    H2  568   2.334   1.359   2.803
  231TIP3   OH2  569   2.536   1.048   2.790
  231TIP3    H1  570   2.477   1.046   2.715
  231TIP3    H2  571   2.584   1.129   2.780
  232TIP3   OH2  572   2.536   1.353   2.476
  232TIP3    H1  573   2.471   1.373   2.409
  232TIP3    H2  574   2.620   1.359   2.430
  233TIP3   OH2  575   2.599   1.933   1.619
  233TIP3    H1  576   2.615   1.948   1.712
  233TIP3    H2  577   2.684   1.943   1.578
  234TIP3   OH2  578   2.656   2.016   2.090
  234TIP3    H1  579   2.586   1.954   2.073
  234TIP3    H2  580   2.717   1.969   2.147
  235TIP3   OH2  581   2.716   1.690   2.564
  235TIP3    H1  582   2.650   1.691   2.633
  235TIP3    H2  583   2.758   1.776   2.569
  236TIP3   OH2  584   2.502   1.804   1.961
  236TIP3    H1  585   2.450   1.801   2.042
  236TIP3    H2  586   2.471   1.882   1.915
  237TIP3   OH2  587   2.793   1.355   2.369
  237TIP3    H1  588   2.856   1.283   2.367
  237TIP3    H2  589   2.840   1.429   2.330
  238TIP3   OH2  590   2.977   1.156   2.427
  238TIP3    H1  591   2.943   1.154   2.516
  238TIP3    H2  592   3.022   1.072   2.416
  239TIP3   OH2  593   3.212   0.616   2.637
  239TIP3    H1  594   3.223   0.522   2.651
  239TIP3    H2  595   3.270   0.637   2.564
  240TIP3   OH2  596   1.921   1.994   2.405
  240TIP3    H1  597   1.947   1.956   2.489
  240TIP3    H2  598   2.002   2.028   2.368
  241TIP3   OH2  599   2.178   2.064   2.341
  241TIP3    H1  600   2.209   1.987   2.389
  241TIP3    H2  601   2.217   2.138   2.386
  242TIP3   OH2  602   2.430   2.060   1.896
  242TIP3    H1  603   2.347   2.074   1.941
  242TIP3    H2  604   2.415   2.091   1.807
  243TIP3   OH2  605   2.596   1.959   2.370
  243TIP3    H1  606   2.530   1.923   2.311
  243TIP3    H2  607   2.584   2.054   2.365
  244TIP3   OH2  608   3.815   1.365   1.100
  244TIP3    H1  609   3.811   1.454   1.065
  244TIP3    H2  610   3.726   1.331   1.091
  245TIP3   OH2  611   3.958   1.383   1.335
  245TIP3    H1  612   3.973   1.312   1.397
  245TIP3    H2  613   3.906   1.342   1.265
  246TIP3   OH2  614   3.133   1.249   1.872
  246TIP3    H1  615   3.169   1.211   1.952
  246TIP3    H2  616   3.193   1.221   1.803
  247TIP3   OH2  617   4.078   1.554   1.155
  247TIP3    H1  618   4.036   1.489   1.210
  247TIP3    H2  619   4.105   1.623   1.215
  248TIP3   OH2  620   3.158   1.577   1.519
  248TIP3    H1  621   3.112   1.512   1.465
  248TIP3    H2  622   3.197   1.526   1.590
  249TIP3   OH2  623   3.705   2.083   1.223
  249TIP3    H1  624   3.758   2.010   1.257
  249TIP3    H2  625   3.709   2.149   1.292
  250TIP3   OH2  626   3.671   1.534   1.549
  250TIP3    H1  627   3.725   1.472   1.500
  250TIP3    H2  628   3.731   1.603   1.577
  251TIP3   OH2  629   4.690   0.894   1.533
  251TIP3    H1  630   4.695   0.985   1.561
  251TIP3    H2  631   4.678   0.898   1.439
  252TIP3   OH2  632   4.042   0.957   1.592
  252TIP3    H1  633   4.086   0.976   1.675
  252TIP3    H2  634   4.028   1.043   1.552
  253TIP3   OH2  635   4.797   1.118   1.686
  253TIP3    H1  636   4.723   1.177   1.675
  253TIP3    H2  637   4.825   1.130   1.776
  254TIP3   OH2  638   3.790   1.593   0.967
  254TIP3    H1  639   3.784   1.619   0.875
  254TIP3    H2  640   3.750   1.666   1.015
  255TIP3   OH2  641   3.539   1.499   1.791
  255TIP3    H1  642   3.549   1.582   1.838
  255TIP3    H2  643   3.559   1.521   1.700
  256TIP3   OH2  644   4.212   0.831   1.299
  256TIP3    H1  645   4.298   0.790   1.302
  256TIP3    H2  646   4.201   0.859   1.208
  257TIP3   OH2  647   3.311   1.740   1.858
  257TIP3    H1  648   3.284   1.830   1.839
  257TIP3    H2  649   3.273   1.722   1.944
  258TIP3   OH2  650   4.231   1.948   1.346
  258TIP3    H1  651   4.164   1.920   1.409
  258TIP3    H2  652   4.204   2.036   1.320
  259TIP3   OH2  653   4.500   0.819   1.706
  259TIP3    H1  654   4.412   0.819   1.666
  259TIP3    H2  655   4.558   0.846   1.634
  260TIP3   OH2  656   3.911   1.844   1.065
  260TIP3    H1  657   3.968   1.779   1.105
  260TIP3    H2  658   3.969   1.897   1.010
  261TIP3   OH2  659   4.118   1.785   0.861
  261TIP3    H1  660   4.063   1.706   0.870
  261TIP3    H2  661   4.152   1.800   0.949
  262TIP3   OH2  662   4.428   1.800   1.683
  262TIP3    H1  663   4.427   1.738   1.609
  262TIP3    H2  664   4.411   1.885   1.642
  263TIP3   OH2  665   4.625   1.437   1.451
  263TIP3    H1  666   4.547   1.490   1.470
  263TIP3    H2  667   4.661   1.476   1.372
  264TIP3   OH2  668   3.928   1.244   0.885
  264TIP3    H1  669   3.876   1.282   0.956
  264TIP3    H2  670   3.943   1.316   0.824
  265TIP3   OH2  671   4.363   1.348   1.830
  265TIP3    H1  672   4.342   1.434   1.866
  265TIP3    H2  673   4.283   1.297   1.846
  266TIP3   OH2  674   3.568   1.736   1.356
  266TIP3    H1  675   3.473   1.738   1.341
  266TIP3    H2  676   3.578   1.681   1.434
  267TIP3   OH2  677   3.264   1.158   1.651
  267TIP3    H1  678   3.261   1.080   1.596
  267TIP3    H2  679   3.327   1.216   1.609
  268TIP3   OH2  680   4.055   1.869   1.529
  268TIP3    H1  681   3.986   1.933   1.512
  268TIP3    H2  682   4.009   1.788   1.550
  269TIP3   OH2  683   3.542   1.815   1.997
  269TIP3    H1  684   3.493   1.882   2.044
  269TIP3    H2  685   3.481   1.785   1.929
  270TIP3   OH2  686   3.330   1.376   2.104
  270TIP3    H1  687   3.293   1.456   2.067
  270TIP3    H2  688   3.255   1.329   2.140
  271TIP3   OH2  689   3.499   1.832   0.825
  271TIP3    H1  690   3.590   1.839   0.852
  271TIP3    H2  691   3.450   1.831   0.907
  272TIP3   OH2  692   3.339   1.986   2.078
  272TIP3    H1  693   3.312   2.010   1.990
  272TIP3    H2  694   3.257   1.964   2.123
  273TIP3   OH2  695   4.263   1.754   0.248
  273TIP3    H1  696   4.258   1.849   0.257
  273TIP3    H2  697   4.237   1.721   0.334
  274TIP3   OH2  698   2.967   1.548   2.036
  274TIP3    H1  699   2.901   1.596   1.986
  274TIP3    H2  700   2.939   1.457   2.031
  275TIP3   OH2  701   4.650   2.179   1.710
  275TIP3    H1  702   4.657   2.084   1.713
  275TIP3    H2  703   4.567   2.198   1.753
  276TIP3   OH2  704   3.776   1.943   1.921
  276TIP3    H1  705   3.763   2.037   1.931
  276TIP3    H2  706   3.699   1.903   1.960
  277TIP3   OH2  707   3.461   2.105   0.831
  277TIP3    H1  708   3.479   2.014   0.808
  277TIP3    H2  709   3.455   2.151   0.747
  278TIP3   OH2  710   3.800   1.915   0.616
  278TIP3    H1  711   3.768   1.935   0.704
  278TIP3    H2  712   3.878   1.969   0.606
  279TIP3   OH2  713   4.565   1.273   2.001
  279TIP3    H1  714   4.490   1.301   1.947
  279TIP3    H2  715   4.586   1.186   1.968
  280TIP3   OH2  716   3.195   1.683   2.094
  280TIP3    H1  717   3.169   1.752   2.155
  280TIP3    H2  718   3.115   1.633   2.078
  281TIP3   OH2  719   4.073   0.625   2.036
  281TIP3    H1  720   4.130   0.582   2.100
  281TIP3    H2  721   3.986   0.618   2.075
  282TIP3   OH2  722   4.329   1.001   1.971
  282TIP3    H1  723   4.341   0.977   2.062
  282TIP3    H2  724   4.267   1.074   1.972
  283TIP3   OH2  725   3.467   1.116   1.847
  283TIP3    H1  726   3.404   1.099   1.917
  283TIP3    H2  727   3.414   1.150   1.774
  284TIP3   OH2  728   3.981   1.279   2.167
  284TIP3    H1  729   3.950   1.199   2.208
  284TIP3    H2  730   4.040   1.318   2.232
  285TIP3   OH2  731   3.284   1.059   2.042
  285TIP3    H1  732   3.238   1.104   2.113
  285TIP3    H2  733   3.244   0.972   2.040
  286TIP3   OH2  734   4.087   1.393   1.749
  286TIP3    H1  735   4.024   1.458   1.717
  286TIP3    H2  736   4.063   1.379   1.840
  287TIP3   OH2  737   4.247   0.775   1.601
  287TIP3    H1  738   4.221   0.771   1.693
  287TIP3    H2  739   4.180   0.829   1.560
  288TIP3   OH2  740   4.350   2.505   1.792
  288TIP3    H1  741   4.345   2.521   1.697
  288TIP3    H2  742   4.429   2.551   1.819
  289TIP3   OH2  743   3.766   1.133   1.520
  289TIP3    H1  744   3.811   1.134   1.605
  289TIP3    H2  745   3.699   1.066   1.530
  290TIP3   OH2  746   3.736   0.855   1.882
  290TIP3    H1  747   3.746   0.876   1.789
  290TIP3    H2  748   3.794   0.917   1.926
  291TIP3   OH2  749   4.428   1.625   1.481
  291TIP3    H1  750   4.457   1.676   1.405
  291TIP3    H2  751   4.337   1.602   1.460
  292TIP3   OH2  752   3.861   1.654   1.891
  292TIP3    H1  753   3.912   1.665   1.972
  292TIP3    H2  754   3.824   1.741   1.874
  293TIP3   OH2  755   3.104   1.227   2.180
  293TIP3    H1  756   3.069   1.203   2.266
  293TIP3    H2  757   3.027   1.245   2.126
  294TIP3   OH2  758   3.760   1.432   2.134
  294TIP3    H1  759   3.691   1.372   2.104
  294TIP3    H2  760   3.841   1.383   2.122
  295TIP3   OH2  761   4.031   1.938   1.823
  295TIP3    H1  762   3.937   1.933   1.840
  295TIP3    H2  763   4.064   2.000   1.888
  296TIP3   OH2  764   4.679   1.902   1.719
  296TIP3    H1  765   4.589   1.878   1.740
  296TIP3    H2  766   4.698   1.857   1.637
  297TIP3   OH2  767   4.053   1.862   0.470
  297TIP3    H1  768   4.066   1.780   0.518
  297TIP3    H2  769   3.987   1.840   0.403
  298TIP3   OH2  770   4.182   1.529   1.438
  298TIP3    H1  771   4.090   1.535   1.464
  298TIP3    H2  772   4.183   1.460   1.372
  299TIP3   OH2  773   3.556   2.010   1.767
  299TIP3    H1  774   3.562   2.039   1.676
  299TIP3    H2  775   3.644   1.980   1.788
  300TIP3   OH2  776   3.967   1.615   1.629
  300TIP3    H1  777   3.903   1.642   1.695
  300TIP3    H2  778   4.052   1.641   1.667
  301TIP3   OH2  779   4.165   2.182   1.646
  301TIP3    H1  780   4.092   2.120   1.636
  301TIP3    H2  781   4.149   2.249   1.580
  302TIP3   OH2  782   4.233   2.016   0.303
  302TIP3    H1  783   4.241   2.104   0.266
  302TIP3    H2  784   4.142   2.009   0.330
  303TIP3   OH2  785   4.019   1.386   0.653
  303TIP3    H1  786   4.017   1.458   0.716
  303TIP3    H2  787   4.112   1.369   0.639
  304TIP3   OH2  788   2.982   1.886   1.762
  304TIP3    H1  789   2.988   1.791   1.763
  304TIP3    H2  790   2.897   1.905   1.803
  305TIP3   OH2  791   4.152   0.818   1.859
  305TIP3    H1  792   4.202   0.884   1.907
  305TIP3    H2  793   4.109   0.766   1.927
  306TIP3   OH2  794   3.916   1.015   1.994
  306TIP3    H1  795   3.933   1.072   1.919
  306TIP3    H2  796   4.001   1.003   2.035
  307TIP3   OH2  797   4.583   1.022   1.887
  307TIP3    H1  798   4.496   1.005   1.921
  307TIP3    H2  799   4.598   0.951   1.824
  308TIP3   OH2  800   4.244   1.311   1.284
  308TIP3    H1  801   4.192   1.280   1.210
  308TIP3    H2  802   4.263   1.231   1.334
  309TIP3   OH2  803   4.245   2.209   1.265
  309TIP3    H1  804   4.191   2.235   1.190
  309TIP3    H2  805   4.335   2.214   1.232
  310TIP3   OH2  806   2.959   2.206   2.219
  310TIP3    H1  807   3.043   2.195   2.262
  310TIP3    H2  808   2.955   2.134   2.156
  311TIP3   OH2  809   3.450   2.135   2.277
  311TIP3    H1  810   3.546   2.133   2.275
  311TIP3    H2  811   3.424   2.084   2.200
  312TIP3   OH2  812   4.084   2.089   2.042
  312TIP3    H1  813   4.098   2.014   2.099
  312TIP3    H2  814   4.163   2.142   2.051
  313TIP3   OH2  815   3.695   1.691   2.182
  313TIP3    H1  816   3.645   1.719   2.106
  313TIP3    H2  817   3.728   1.604   2.159
  314TIP3   OH2  818   4.179   1.718   1.769
  314TIP3    H1  819   4.262   1.751   1.736
  314TIP3    H2  820   4.126   1.797   1.783
  315TIP3   OH2  821   3.572   1.249   2.059
  315TIP3    H1  822   3.491   1.293   2.084
  315TIP3    H2  823   3.555   1.215   1.971
  316TIP3   OH2  824   4.063   1.613   2.130
  316TIP3    H1  825   4.143   1.593   2.080
  316TIP3    H2  826   4.067   1.555   2.206
  317TIP3   OH2  827   3.649   1.006   2.179
  317TIP3    H1  828   3.614   0.931   2.131
  317TIP3    H2  829   3.630   1.081   2.123
  318TIP3   OH2  830   3.566   0.721   2.034
  318TIP3    H1  831   3.627   0.762   1.973
  318TIP3    H2  832   3.525   0.650   1.985
  319TIP3   OH2  833   3.792   1.399   1.815
  319TIP3    H1  834   3.817   1.485   1.850
  319TIP3    H2  835   3.697   1.405   1.803
  320TIP3   OH2  836   4.304   1.285   2.209
  320TIP3    H1  837   4.323   1.221   2.278
  320TIP3    H2  838   4.384   1.337   2.202
  321TIP3   OH2  839   4.299   1.585   1.971
  321TIP3    H1  840   4.244   1.630   1.907
  321TIP3    H2  841   4.389   1.604   1.942
  322TIP3   OH2  842   3.530   1.103   2.408
  322TIP3    H1  843   3.468   1.033   2.430
  322TIP3    H2  844   3.565   1.079   2.323
  323TIP3   OH2  845   3.801   0.585   2.091
  323TIP3    H1  846   3.724   0.642   2.093
  323TIP3    H2  847   3.770   0.503   2.053
  324TIP3   OH2  848   3.904   1.050   2.292
  324TIP3    H1  849   3.871   1.033   2.381
  324TIP3    H2  850   3.830   1.028   2.235
  325TIP3   OH2  851   4.127   0.957   2.164
  325TIP3    H1  852   4.055   0.980   2.223
  325TIP3    H2  853   4.201   0.940   2.222
  326TIP3   OH2  854   4.400   0.940   2.247
  326TIP3    H1  855   4.411   0.851   2.281
  326TIP3    H2  856   4.385   0.993   2.326
  327TIP3   OH2  857   3.391   0.877   2.479
  327TIP3    H1  858   3.393   0.790   2.440
  327TIP3    H2  859   3.426   0.865   2.567
  328TIP3   OH2  860   3.852   0.557   2.358
  328TIP3    H1  861   3.920   0.490   2.350
  328TIP3    H2  862   3.825   0.575   2.268
  329TIP3   OH2  863   3.952   0.781   2.483
  329TIP3    H1  864   3.920   0.705   2.435
  329TIP3    H2  865   3.878   0.841   2.487
  330TIP3   OH2  866   4.508   2.236   1.208
  330TIP3    H1  867   4.519   2.244   1.303
  330TIP3    H2  868   4.524   2.324   1.175
  331TIP3   OH2  869   4.510   2.266   1.483
  331TIP3    H1  870   4.459   2.187   1.499
  331TIP3    H2  871   4.582   2.261   1.546
  332TIP3   OH2  872   4.533   1.946   2.025
  332TIP3    H1  873   4.461   1.954   2.088
  332TIP3    H2  874   4.580   2.029   2.034
  333TIP3   OH2  875   4.292   1.414   0.698
  333TIP3    H1  876   4.366   1.474   0.700
  333TIP3    H2  877   4.329   1.330   0.672
  334TIP3   OH2  878   4.538   1.342   0.841
  334TIP3    H1  879   4.482   1.281   0.890
  334TIP3    H2  880   4.577   1.398   0.908
  335TIP3   OH2  881   4.552   1.752   1.280
  335TIP3    H1  882   4.508   1.701   1.213
  335TIP3    H2  883   4.570   1.836   1.238
  336TIP3   OH2  884   4.380   2.034   1.551
  336TIP3    H1  885   4.305   2.078   1.592
  336TIP3    H2  886   4.344   1.998   1.470
  337TIP3   OH2  887   4.392   1.146   0.972
  337TIP3    H1  888   4.299   1.124   0.970
  337TIP3    H2  889   4.418   1.136   1.064
  338TIP3   OH2  890   4.549   1.603   1.861
  338TIP3    H1  891   4.629   1.553   1.847
  338TIP3    H2  892   4.543   1.660   1.784
  339TIP3   OH2  893   4.770   1.443   1.915
  339TIP3    H1  894   4.695   1.387   1.936
  339TIP3    H2  895   4.844   1.382   1.912
  340TIP3   OH2  896   4.458   1.098   1.229
  340TIP3    H1  897   4.531   1.039   1.250
  340TIP3    H2  898   4.396   1.085   1.301
  341TIP3   OH2  899   4.615   1.328   1.700
  341TIP3    H1  900   4.528   1.329   1.739
  341TIP3    H2  901   4.601   1.355   1.609
  342TIP3   OH2  902   3.123   0.928   2.447
  342TIP3    H1  903   3.218   0.922   2.453
  342TIP3    H2  904   3.091   0.863   2.509
  343TIP3   OH2  905   4.951   0.791   2.160
  343TIP3    H1  906   5.042   0.813   2.180
  343TIP3    H2  907   4.916   0.871   2.121
  344TIP3   OH2  908   4.839   0.994   2.019
  344TIP3    H1  909   4.769   1.016   2.080
  344TIP3    H2  910   4.802   0.927   1.962
  345TIP3   OH2  911   4.000   2.062   0.917
  345TIP3    H1  912   3.982   2.086   0.826
  345TIP3    H2  913   4.094   2.075   0.927
  346TIP3   OH2  914   3.114   1.913   2.235
  346TIP3    H1  915   3.019   1.907   2.248
  346TIP3    H2  916   3.145   1.963   2.310
  347TIP3   OH2  917   3.292   2.005   1.806
  347TIP3    H1  918   3.258   2.087   1.771
  347TIP3    H2  919   3.386   2.008   1.787
  348TIP3   OH2  920   3.739   2.225   1.921
  348TIP3    H1  921   3.778   2.223   2.009
  348TIP3    H2  922   3.805   2.269   1.867
  349TIP3   OH2  923   3.933   2.356   1.778
  349TIP3    H1  924   3.996   2.307   1.725
  349TIP3    H2  925   3.987   2.416   1.830
  350TIP3   OH2  926   4.761   0.746   1.902
  350TIP3    H1  927   4.705   0.702   1.838
  350TIP3    H2  928   4.827   0.681   1.926
  351TIP3   OH2  929   3.006   2.316   1.898
  351TIP3    H1  930   2.952   2.289   1.824
  351TIP3    H2  931   3.024   2.234   1.946
  352TIP3   OH2  932   3.215   2.256   1.730
  352TIP3    H1  933   3.143   2.287   1.784
  352TIP3    H2  934   3.180   2.256   1.641
  353TIP3   OH2  935   3.689   2.266   1.429
  353TIP3    H1  936   3.611   2.297   1.384
  353TIP3    H2  937   3.705   2.330   1.498
  354TIP3   OH2  938   3.934   2.134   1.488
  354TIP3    H1  939   3.849   2.177   1.486
  354TIP3    H2  940   3.966   2.139   1.398
  355TIP3   OH2  941   4.134   2.373   1.449
  355TIP3    H1  942   4.103   2.450   1.401
  355TIP3    H2  943   4.163   2.313   1.381
  356TIP3   OH2  944   2.860   1.972   1.531
  356TIP3    H1  945   2.903   1.946   1.613
  356TIP3    H2  946   2.894   1.912   1.465
  357TIP3   OH2  947   2.991   1.774   1.409
  357TIP3    H1  948   3.039   1.700   1.447
  357TIP3    H2  949   3.031   1.787   1.323
  358TIP3   OH2  950   3.387   2.012   1.368
  358TIP3    H1  951   3.357   1.923   1.388
  358TIP3    H2  952   3.398   2.053   1.454
  359TIP3   OH2  953   4.441   0.353   1.281
  359TIP3    H1  954   4.494   0.405   1.341
  359TIP3    H2  955   4.364   0.407   1.263
  360TIP3   OH2  956   4.514   0.620   1.129
  360TIP3    H1  957   4.591   0.601   1.183
  360TIP3    H2  958   4.545   0.681   1.063
  361TIP3   OH2  959   4.242   2.187   0.544
  361TIP3    H1  960   4.229   2.113   0.603
  361TIP3    H2  961   4.178   2.173   0.474
  362TIP3   OH2  962   3.397   0.608   2.426
  362TIP3    H1  963   3.373   0.517   2.442
  362TIP3    H2  964   3.490   0.612   2.451
  363TIP3   OH2  965   3.648   0.612   2.537
  363TIP3    H1  966   3.723   0.591   2.482
  363TIP3    H2  967   3.640   0.537   2.596
  364TIP3   OH2  968   4.458   0.674   2.306
  364TIP3    H1  969   4.480   0.650   2.396
  364TIP3    H2  970   4.541   0.670   2.259
  365TIP3   OH2  971   4.394   2.234   1.803
  365TIP3    H1  972   4.314   2.201   1.761
  365TIP3    H2  973   4.380   2.329   1.809
  366TIP3   OH2  974   5.614   1.582   0.925
  366TIP3    H1  975   5.665   1.566   1.005
  366TIP3    H2  976   5.564   1.661   0.944
  367TIP3   OH2  977   4.994   1.511   1.306
  367TIP3    H1  978   5.014   1.429   1.352
  367TIP3    H2  979   5.028   1.579   1.363
  368TIP3   OH2  980   5.933   1.859   0.605
  368TIP3    H1  981   5.930   1.817   0.691
  368TIP3    H2  982   5.906   1.949   0.621
  369TIP3   OH2  983   4.961   1.893   1.005
  369TIP3    H1  984   4.956   1.801   1.031
  369TIP3    H2  985   5.055   1.909   0.991
  370TIP3   OH2  986   4.650   1.097   0.897
  370TIP3    H1  987   4.663   1.190   0.880
  370TIP3    H2  988   4.557   1.090   0.920
  371TIP3   OH2  989   4.773   1.463   0.950
  371TIP3    H1  990   4.810   1.386   0.992
  371TIP3    H2  991   4.786   1.448   0.856
  372TIP3   OH2  992   5.560   2.338   0.639
  372TIP3    H1  993   5.607   2.276   0.582
  372TIP3    H2  994   5.551   2.292   0.722
  373TIP3   OH2  995   5.488   1.839   0.942
  373TIP3    H1  996   5.510   1.872   0.855
  373TIP3    H2  997   5.561   1.867   0.997
  374TIP3   OH2  998   6.424   1.200   0.984
  374TIP3    H1  999   6.478   1.241   1.051
  374TIP3    H2 1000   6.439   1.252   0.905
  375TIP3   OH2 1001   5.925   1.334   1.029
  375TIP3    H1 1002   5.939   1.240   1.039
  375TIP3    H2 1003   5.922   1.348   0.935
  376TIP3   OH2 1004   5.330   0.934   0.824
  376TIP3    H1 1005   5.292   1.022   0.821
  376TIP3    H2 1006   5.258   0.876   0.801
  377TIP3   OH2 1007   4.888   1.255   1.078
  377TIP3    H1 1008   4.948   1.233   1.148
  377TIP3    H2 1009   4.921   1.207   1.002
  378TIP3   OH2 1010   5.372   1.403   0.842
  378TIP3    H1 1011   5.342   1.425   0.931
  378TIP3    H2 1012   5.326   1.322   0.820
  379TIP3   OH2 1013   6.560   1.359   1.173
  379TIP3    H1 1014   6.482   1.412   1.158
  379TIP3    H2 1015   6.546   1.319   1.259
  380TIP3   OH2 1016   5.167   0.961   1.432
  380TIP3    H1 1017   5.143   1.031   1.371
  380TIP3    H2 1018   5.160   1.002   1.519
  381TIP3   OH2 1019   5.316   1.757   1.160
  381TIP3    H1 1020   5.253   1.818   1.197
  381TIP3    H2 1021   5.357   1.805   1.088
  382TIP3   OH2 1022   5.084   1.149   1.251
  382TIP3    H1 1023   5.158   1.209   1.260
  382TIP3    H2 1024   5.097   1.107   1.166
  383TIP3   OH2 1025   5.147   1.945   1.275
  383TIP3    H1 1026   5.133   2.035   1.246
  383TIP3    H2 1027   5.069   1.925   1.328
  384TIP3   OH2 1028   4.674   1.658   0.505
  384TIP3    H1 1029   4.586   1.649   0.469
  384TIP3    H2 1030   4.675   1.745   0.545
  385TIP3   OH2 1031   5.968   2.159   0.773
  385TIP3    H1 1032   5.883   2.138   0.812
  385TIP3    H2 1033   5.949   2.226   0.707
  386TIP3   OH2 1034   6.237   1.061   1.140
  386TIP3    H1 1035   6.147   1.065   1.107
  386TIP3    H2 1036   6.290   1.101   1.071
  387TIP3   OH2 1037   5.592   0.781   1.157
  387TIP3    H1 1038   5.584   0.691   1.124
  387TIP3    H2 1039   5.512   0.797   1.206
  388TIP3   OH2 1040   5.885   1.919   0.338
  388TIP3    H1 1041   5.828   1.992   0.361
  388TIP3    H2 1042   5.923   1.891   0.422
  389TIP3   OH2 1043   6.194   2.048   1.111
  389TIP3    H1 1044   6.183   1.974   1.051
  389TIP3    H2 1045   6.176   2.125   1.057
  390TIP3   OH2 1046   5.563   1.491   0.607
  390TIP3    H1 1047   5.485   1.514   0.556
  390TIP3    H2 1048   5.635   1.502   0.545
  391TIP3   OH2 1049   6.408   1.729   0.975
  391TIP3    H1 1050   6.321   1.767   0.968
  391TIP3    H2 1051   6.434   1.713   0.884
  392TIP3   OH2 1052   5.802   1.578   0.447
  392TIP3    H1 1053   5.817   1.666   0.484
  392TIP3    H2 1054   5.884   1.531   0.464
  393TIP3   OH2 1055   6.074   1.573   1.285
  393TIP3    H1 1056   6.066   1.655   1.335
  393TIP3    H2 1057   5.996   1.572   1.229
  394TIP3   OH2 1058   5.090   1.462   0.829
  394TIP3    H1 1059   5.039   1.522   0.774
  394TIP3    H2 1060   5.180   1.471   0.798
  395TIP3   OH2 1061   5.212   1.946   0.893
  395TIP3    H1 1062   5.172   1.935   0.807
  395TIP3    H2 1063   5.290   1.892   0.890
  396TIP3   OH2 1064   5.257   1.500   1.078
  396TIP3    H1 1065   5.174   1.514   1.033
  396TIP3    H2 1066   5.281   1.586   1.112
  397TIP3   OH2 1067   5.738   2.123   0.919
  397TIP3    H1 1068   5.719   2.211   0.951
  397TIP3    H2 1069   5.724   2.066   0.995
  398TIP3   OH2 1070   5.345   2.040   1.445
  398TIP3    H1 1071   5.285   2.099   1.492
  398TIP3    H2 1072   5.288   1.990   1.387
  399TIP3   OH2 1073   5.093   1.628   1.548
  399TIP3    H1 1074   5.107   1.714   1.586
  399TIP3    H2 1075   5.008   1.599   1.582
  400TIP3   OH2 1076   5.142   2.204   1.531
  400TIP3    H1 1077   5.112   2.215   1.440
  400TIP3    H2 1078   5.062   2.187   1.580
  401TIP3   OH2 1079   4.802   1.422   0.680
  401TIP3    H1 1080   4.852   1.491   0.637
  401TIP3    H2 1081   4.716   1.426   0.640
  402TIP3   OH2 1082   4.739   1.754   1.494
  402TIP3    H1 1083   4.680   1.740   1.420
  402TIP3    H2 1084   4.764   1.666   1.522
  403TIP3   OH2 1085   4.606   1.981   1.141
  403TIP3    H1 1086   4.699   2.000   1.154
  403TIP3    H2 1087   4.561   2.061   1.168
  404TIP3   OH2 1088   6.426   2.400   1.184
  404TIP3    H1 1089   6.430   2.306   1.200
  404TIP3    H2 1090   6.346   2.428   1.229
  405TIP3   OH2 1091   5.531   2.190   1.311
  405TIP3    H1 1092   5.524   2.280   1.341
  405TIP3    H2 1093   5.464   2.142   1.359
  406TIP3   OH2 1094   5.306   2.313   0.250
  406TIP3    H1 1095   5.276   2.316   0.160
  406TIP3    H2 1096   5.275   2.394   0.289
  407TIP3   OH2 1097   4.751   2.211   0.689
  407TIP3    H1 1098   4.815   2.192   0.757
  407TIP3    H2 1099   4.711   2.126   0.668
  408TIP3   OH2 1100   8.798   6.857   7.929
  408TIP3    H1 1101   8.869   6.814   7.881
  408TIP3    H2 1102   8.827   6.857   8.020
  409TIP3   OH2 1103   5.574   2.262   0.203
  409TIP3    H1 1104   5.484   2.265   0.236
  409TIP3    H2 1105   5.623   2.220   0.274
  410TIP3   OH2 1106   6.323   1.516   1.443
  410TIP3    H1 1107   6.237   1.532   1.403
  410TIP3    H2 1108   6.338   1.422   1.431
  411TIP3   OH2 1109   4.931   1.949   1.451
  411TIP3    H1 1110   4.982   1.946   1.532
  411TIP3    H2 1111   4.862   1.884   1.463
  412TIP3   OH2 1112   5.338   0.802   1.275
  412TIP3    H1 1113   5.307   0.713   1.261
  412TIP3    H2 1114   5.275   0.841   1.335
  413TIP3   OH2 1115   5.868   0.906   1.487
  413TIP3    H1 1116   5.937   0.870   1.543
  413TIP3    H2 1117   5.786   0.882   1.532
  414TIP3   OH2 1118   6.076   1.312   1.388
  414TIP3    H1 1119   6.034   1.308   1.474
  414TIP3    H2 1120   6.053   1.399   1.354
  415TIP3   OH2 1121   5.291   1.320   1.287
  415TIP3    H1 1122   5.245   1.350   1.365
  415TIP3    H2 1123   5.281   1.391   1.224
  416TIP3   OH2 1124   5.204   1.195   0.783
  416TIP3    H1 1125   5.128   1.251   0.799
  416TIP3    H2 1126   5.177   1.137   0.712
  417TIP3   OH2 1127   5.792   1.513   1.600
  417TIP3    H1 1128   5.766   1.443   1.659
  417TIP3    H2 1129   5.885   1.528   1.620
  418TIP3   OH2 1130   5.098   1.336   1.493
  418TIP3    H1 1131   5.097   1.404   1.561
  418TIP3    H2 1132   5.087   1.254   1.540
  419TIP3   OH2 1133   4.862   0.694   1.107
  419TIP3    H1 1134   4.805   0.670   1.180
  419TIP3    H2 1135   4.845   0.787   1.093
  420TIP3   OH2 1136   5.784   1.529   1.149
  420TIP3    H1 1137   5.834   1.462   1.102
  420TIP3    H2 1138   5.754   1.486   1.228
  421TIP3   OH2 1139   5.591   1.030   0.858
  421TIP3    H1 1140   5.507   0.985   0.866
  421TIP3    H2 1141   5.654   0.969   0.894
  422TIP3   OH2 1142   4.925   1.117   0.799
  422TIP3    H1 1143   4.890   1.028   0.791
  422TIP3    H2 1144   4.930   1.148   0.709
  423TIP3   OH2 1145   5.139   0.995   0.611
  423TIP3    H1 1146   5.137   1.036   0.525
  423TIP3    H2 1147   5.073   0.926   0.607
  424TIP3   OH2 1148   5.958   1.060   1.071
  424TIP3    H1 1149   5.919   1.074   1.157
  424TIP3    H2 1150   5.904   0.992   1.031
  425TIP3   OH2 1151   6.144   2.749   1.274
  425TIP3    H1 1152   6.142   2.768   1.180
  425TIP3    H2 1153   6.222   2.795   1.306
  426TIP3   OH2 1154   5.093   1.871   1.681
  426TIP3    H1 1155   5.175   1.886   1.729
  426TIP3    H2 1156   5.025   1.874   1.748
  427TIP3   OH2 1157   5.617   1.290   0.930
  427TIP3    H1 1158   5.617   1.198   0.904
  427TIP3    H2 1159   5.604   1.288   1.025
  428TIP3   OH2 1160   5.127   0.731   0.728
  428TIP3    H1 1161   5.079   0.670   0.784
  428TIP3    H2 1162   5.132   0.686   0.643
  429TIP3   OH2 1163   5.543   1.247   1.206
  429TIP3    H1 1164   5.457   1.276   1.234
  429TIP3    H2 1165   5.604   1.295   1.263
  430TIP3   OH2 1166   5.327   1.610   0.384
  430TIP3    H1 1167   5.254   1.548   0.390
  430TIP3    H2 1168   5.316   1.667   0.460
  431TIP3   OH2 1169   6.162   1.844   0.928
  431TIP3    H1 1170   6.187   1.896   0.852
  431TIP3    H2 1171   6.080   1.802   0.903
  432TIP3   OH2 1172   5.649   1.910   1.361
  432TIP3    H1 1173   5.697   1.899   1.443
  432TIP3    H2 1174   5.608   1.996   1.368
  433TIP3   OH2 1175   4.998   1.624   1.055
  433TIP3    H1 1176   4.964   1.559   0.994
  433TIP3    H2 1177   4.996   1.581   1.140
  434TIP3   OH2 1178   5.405   1.746   0.141
  434TIP3    H1 1179   5.389   1.835   0.171
  434TIP3    H2 1180   5.396   1.692   0.219
  435TIP3   OH2 1181   4.849   1.532   1.644
  435TIP3    H1 1182   4.875   1.540   1.736
  435TIP3    H2 1183   4.787   1.459   1.642
  436TIP3   OH2 1184   5.563   1.668   1.635
  436TIP3    H1 1185   5.493   1.609   1.608
  436TIP3    H2 1186   5.643   1.623   1.608
  437TIP3   OH2 1187   5.800   2.197   1.237
  437TIP3    H1 1188   5.705   2.189   1.246
  437TIP3    H2 1189   5.828   2.239   1.318
  438TIP3   OH2 1190   6.443   2.113   1.204
  438TIP3    H1 1191   6.347   2.106   1.197
  438TIP3    H2 1192   6.475   2.085   1.118
  439TIP3   OH2 1193   5.917   2.058   0.093
  439TIP3    H1 1194   5.923   2.023   0.182
  439TIP3    H2 1195   5.863   1.995   0.046
  440TIP3   OH2 1196   5.926   1.713   0.847
  440TIP3    H1 1197   5.845   1.713   0.899
  440TIP3    H2 1198   5.938   1.621   0.822
  441TIP3   OH2 1199   5.082   1.954   0.647
  441TIP3    H1 1200   5.073   2.043   0.613
  441TIP3    H2 1201   5.005   1.908   0.614
  442TIP3   OH2 1202   4.663   1.205   0.428
  442TIP3    H1 1203   4.733   1.231   0.368
  442TIP3    H2 1204   4.594   1.173   0.370
  443TIP3   OH2 1205   5.237   1.730   0.613
  443TIP3    H1 1206   5.211   1.822   0.611
  443TIP3    H2 1207   5.157   1.683   0.638
  444TIP3   OH2 1208   5.355   2.266   1.104
  444TIP3    H1 1209   5.391   2.340   1.056
  444TIP3    H2 1210   5.427   2.236   1.159
  445TIP3   OH2 1211   5.001   2.182   0.523
  445TIP3    H1 1212   4.906   2.187   0.533
  445TIP3    H2 1213   5.030   2.274   0.523
  446TIP3   OH2 1214   5.713   1.892   1.095
  446TIP3    H1 1215   5.680   1.891   1.185
  446TIP3    H2 1216   5.808   1.889   1.105
  447TIP3   OH2 1217   5.735   1.857  -0.015
  447TIP3    H1 1218   5.779   1.796   0.044
  447TIP3    H2 1219   5.650   1.874   0.026
  448TIP3   OH2 1220   5.950   2.420   1.121
  448TIP3    H1 1221   5.878   2.357   1.131
  448TIP3    H2 1222   5.923   2.476   1.048
  449TIP3   OH2 1223   9.246   6.899   7.779
  449TIP3    H1 1224   9.315   6.964   7.767
  449TIP3    H2 1225   9.171   6.950   7.809
  450TIP3   OH2 1226   5.074   1.108   1.644
  450TIP3    H1 1227   4.979   1.099   1.654
  450TIP3    H2 1228   5.107   1.110   1.733
  451TIP3   OH2 1229   5.833   1.700   0.183
  451TIP3    H1 1230   5.808   1.635   0.248
  451TIP3    H2 1231   5.860   1.776   0.234
  452TIP3   OH2 1232   4.805   2.145   1.279
  452TIP3    H1 1233   4.852   2.082   1.333
  452TIP3    H2 1234   4.810   2.227   1.328
  453TIP3   OH2 1235   8.387   6.421   7.921
  453TIP3    H1 1236   8.463   6.366   7.902
  453TIP3    H2 1237   8.378   6.417   8.016
  454TIP3   OH2 1238   5.088   1.811   0.195
  454TIP3    H1 1239   5.154   1.769   0.249
  454TIP3    H2 1240   5.093   1.904   0.219
  455TIP3   OH2 1241   4.848   1.477   0.397
  455TIP3    H1 1242   4.774   1.532   0.425
  455TIP3    H2 1243   4.855   1.494   0.303
  456TIP3   OH2 1244   5.877   1.127   1.328
  456TIP3    H1 1245   5.961   1.167   1.349
  456TIP3    H2 1246   5.872   1.050   1.385
  457TIP3   OH2 1247   5.335   1.999   0.198
  457TIP3    H1 1248   5.277   2.055   0.249
  457TIP3    H2 1249   5.334   2.037   0.110
  458TIP3   OH2 1250   5.592   1.131   0.606
  458TIP3    H1 1251   5.662   1.078   0.569
  458TIP3    H2 1252   5.589   1.107   0.698
  459TIP3   OH2 1253   5.735   1.366   1.365
  459TIP3    H1 1254   5.755   1.405   1.450
  459TIP3    H2 1255   5.782   1.283   1.364
  460TIP3   OH2 1256   5.072   2.078   0.279
  460TIP3    H1 1257   5.056   2.155   0.225
  460TIP3    H2 1258   5.055   2.107   0.369
  461TIP3   OH2 1259   6.331   1.244   1.336
  461TIP3    H1 1260   6.240   1.262   1.360
  461TIP3    H2 1261   6.326   1.171   1.275
  462TIP3   OH2 1262   5.962   1.447   0.774
  462TIP3    H1 1263   5.976   1.435   0.680
  462TIP3    H2 1264   6.048   1.429   0.812
  463TIP3   OH2 1265   4.749   1.672   0.203
  463TIP3    H1 1266   4.772   1.764   0.188
  463TIP3    H2 1267   4.813   1.622   0.154
  464TIP3   OH2 1268   5.980   2.439   0.681
  464TIP3    H1 1269   5.946   2.469   0.597
  464TIP3    H2 1270   6.075   2.442   0.671
  465TIP3   OH2 1271   5.056   0.687   1.317
  465TIP3    H1 1272   5.030   0.676   1.225
  465TIP3    H2 1273   5.082   0.600   1.345
  466TIP3   OH2 1274   4.709   1.909   0.605
  466TIP3    H1 1275   4.623   1.944   0.628
  466TIP3    H2 1276   4.737   1.963   0.532
  467TIP3   OH2 1277   4.769   2.450   1.685
  467TIP3    H1 1278   4.853   2.452   1.731
  467TIP3    H2 1279   4.740   2.359   1.694
  468TIP3   OH2 1280   5.241   2.369   1.728
  468TIP3    H1 1281   5.332   2.344   1.738
  468TIP3    H2 1282   5.209   2.315   1.656
  469TIP3   OH2 1283   8.566   6.632   7.918
  469TIP3    H1 1284   8.488   6.575   7.920
  469TIP3    H2 1285   8.637   6.573   7.893
  470TIP3   OH2 1286   5.864   2.308   1.479
  470TIP3    H1 1287   5.877   2.240   1.545
  470TIP3    H2 1288   5.936   2.369   1.494
  471TIP3   OH2 1289   9.006   6.710   7.818
  471TIP3    H1 1290   9.018   6.625   7.861
  471TIP3    H2 1291   9.095   6.743   7.804
  472TIP3   OH2 1292   4.898   1.860   1.879
  472TIP3    H1 1293   4.911   1.765   1.885
  472TIP3    H2 1294   4.814   1.869   1.834
  473TIP3   OH2 1295   4.929   1.501   0.111
  473TIP3    H1 1296   5.019   1.527   0.087
  473TIP3    H2 1297   4.900   1.448   0.037
  474TIP3   OH2 1298   5.503   1.942   1.649
  474TIP3    H1 1299   5.453   1.961   1.569
  474TIP3    H2 1300   5.533   1.852   1.637
  475TIP3   OH2 1301   8.649   6.348   7.872
  475TIP3    H1 1302   8.656   6.347   7.968
  475TIP3    H2 1303   8.721   6.292   7.843
  476TIP3   OH2 1304   5.961   1.969   1.236
  476TIP3    H1 1305   6.042   2.003   1.200
  476TIP3    H2 1306   5.902   2.044   1.240
  477TIP3   OH2 1307   5.028   1.600   1.867
  477TIP3    H1 1308   5.107   1.548   1.850
  477TIP3    H2 1309   5.034   1.623   1.960
  478TIP3   OH2 1310   5.117   1.440   0.396
  478TIP3    H1 1311   5.024   1.454   0.413
  478TIP3    H2 1312   5.119   1.397   0.310
  479TIP3   OH2 1313   5.354   1.504   1.533
  479TIP3    H1 1314   5.270   1.550   1.535
  479TIP3    H2 1315   5.394   1.531   1.451
  480TIP3   OH2 1316   5.850   1.861   1.614
  480TIP3    H1 1317   5.922   1.824   1.564
  480TIP3    H2 1318   5.846   1.808   1.694
  481TIP3   OH2 1319   5.458   1.265   1.633
  481TIP3    H1 1320   5.459   1.195   1.568
  481TIP3    H2 1321   5.422   1.340   1.586
  482TIP3   OH2 1322   5.469   1.064   1.429
  482TIP3    H1 1323   5.513   1.100   1.352
  482TIP3    H2 1324   5.390   1.023   1.394
  483TIP3   OH2 1325   5.480   1.602   1.316
  483TIP3    H1 1326   5.568   1.642   1.312
  483TIP3    H2 1327   5.426   1.660   1.263
  484TIP3   OH2 1328   6.059   1.546   1.692
  484TIP3    H1 1329   6.089   1.455   1.692
  484TIP3    H2 1330   6.140   1.598   1.688
  485TIP3   OH2 1331   6.090   1.816   1.427
  485TIP3    H1 1332   6.035   1.871   1.371
  485TIP3    H2 1333   6.179   1.831   1.396
  486TIP3   OH2 1334   5.349   1.346   1.878
  486TIP3    H1 1335   5.281   1.280   1.895
  486TIP3    H2 1336   5.382   1.324   1.791
  487TIP3   OH2 1337   5.602   0.845   1.550
  487TIP3    H1 1338   5.558   0.920   1.510
  487TIP3    H2 1339   5.544   0.771   1.534
  488TIP3   OH2 1340   5.711   1.297   1.747
  488TIP3    H1 1341   5.695   1.284   1.841
  488TIP3    H2 1342   5.626   1.277   1.706
  489TIP3   OH2 1343   5.965   1.270   1.630
  489TIP3    H1 1344   5.884   1.259   1.680
  489TIP3    H2 1345   6.033   1.232   1.686
  490TIP3   OH2 1346   6.204   1.225   1.769
  490TIP3    H1 1347   6.215   1.130   1.776
  490TIP3    H2 1348   6.198   1.256   1.859
  491TIP3   OH2 1349   5.187   1.110   1.909
  491TIP3    H1 1350   5.181   1.016   1.890
  491TIP3    H2 1351   5.234   1.115   1.992
  492TIP3   OH2 1352   5.658   0.801   1.813
  492TIP3    H1 1353   5.731   0.740   1.803
  492TIP3    H2 1354   5.630   0.820   1.723
  493TIP3   OH2 1355   5.749   1.020   1.956
  493TIP3    H1 1356   5.718   0.948   1.900
  493TIP3    H2 1357   5.678   1.083   1.956
  494TIP3   OH2 1358   5.019   2.281   0.097
  494TIP3    H1 1359   5.097   2.309   0.048
  494TIP3    H2 1360   4.949   2.338   0.065
  495TIP3   OH2 1361   4.470   1.594   0.193
  495TIP3    H1 1362   4.512   1.654   0.131
  495TIP3    H2 1363   4.389   1.638   0.218
  496TIP3   OH2 1364   4.393   2.346   0.768
  496TIP3    H1 1365   4.305   2.311   0.752
  496TIP3    H2 1366   4.435   2.280   0.824
  497TIP3   OH2 1367   4.516   2.161   0.917
  497TIP3    H1 1368   4.450   2.132   0.980
  497TIP3    H2 1369   4.589   2.191   0.972
  498TIP3   OH2 1370   6.254   2.470   0.681
  498TIP3    H1 1371   6.275   2.497   0.771
  498TIP3    H2 1372   6.313   2.522   0.627
  499TIP3   OH2 1373   6.278   2.504   0.959
  499TIP3    H1 1374   6.227   2.423   0.955
  499TIP3    H2 1375   6.346   2.486   1.024
  500TIP3   OH2 1376   6.326   2.203   1.520
  500TIP3    H1 1377   6.253   2.210   1.582
  500TIP3    H2 1378   6.372   2.287   1.527
  501TIP3   OH2 1379   6.337   1.980   0.752
  501TIP3    H1 1380   6.346   1.924   0.674
  501TIP3    H2 1381   6.335   2.069   0.717
  502TIP3   OH2 1382   6.129   2.271   0.966
  502TIP3    H1 1383   6.062   2.314   1.019
  502TIP3    H2 1384   6.080   2.235   0.891
  503TIP3   OH2 1385   6.058   1.446   0.512
  503TIP3    H1 1386   6.082   1.369   0.460
  503TIP3    H2 1387   6.140   1.491   0.528
  504TIP3   OH2 1388   4.733   1.509   1.218
  504TIP3    H1 1389   4.735   1.516   1.123
  504TIP3    H2 1390   4.824   1.517   1.245
  505TIP3   OH2 1391   6.350   1.855   1.336
  505TIP3    H1 1392   6.420   1.790   1.326
  505TIP3    H2 1393   6.376   1.926   1.277
  506TIP3   OH2 1394   6.539   1.653   1.343
  506TIP3    H1 1395   6.464   1.602   1.374
  506TIP3    H2 1396   6.615   1.608   1.381
  507TIP3   OH2 1397   6.208   1.405   0.876
  507TIP3    H1 1398   6.296   1.400   0.838
  507TIP3    H2 1399   6.223   1.401   0.971
  508TIP3   OH2 1400   6.319   1.503   1.125
  508TIP3    H1 1401   6.239   1.522   1.174
  508TIP3    H2 1402   6.341   1.585   1.082
  509TIP3   OH2 1403   4.938   1.224   1.917
  509TIP3    H1 1404   5.032   1.210   1.922
  509TIP3    H2 1405   4.900   1.150   1.965
  510TIP3   OH2 1406   6.748   1.102   1.642
  510TIP3    H1 1407   6.820   1.046   1.613
  510TIP3    H2 1408   6.720   1.148   1.563
  511TIP3   OH2 1409   4.890   0.952   1.328
  511TIP3    H1 1410   4.817   0.936   1.268
  511TIP3    H2 1411   4.902   1.047   1.327
  512TIP3   OH2 1412   4.729   1.204   1.329
  512TIP3    H1 1413   4.746   1.228   1.238
  512TIP3    H2 1414   4.715   1.287   1.373
  513TIP3   OH2 1415   6.603   1.235   1.444
  513TIP3    H1 1416   6.540   1.266   1.510
  513TIP3    H2 1417   6.561   1.158   1.406
  514TIP3   OH2 1418   5.829   2.428   0.339
  514TIP3    H1 1419   5.868   2.400   0.256
  514TIP3    H2 1420   5.805   2.346   0.382
  515TIP3   OH2 1421   4.938   0.817   1.598
  515TIP3    H1 1422   4.930   0.734   1.645
  515TIP3    H2 1423   4.850   0.855   1.600
  516TIP3   OH2 1424   4.928   2.165   1.701
  516TIP3    H1 1425   4.832   2.163   1.696
  516TIP3    H2 1426   4.947   2.158   1.795
  517TIP3   OH2 1427   5.124   2.222   1.248
  517TIP3    H1 1428   5.070   2.295   1.217
  517TIP3    H2 1429   5.208   2.235   1.205
  518TIP3   OH2 1430   5.520   2.457   1.385
  518TIP3    H1 1431   5.555   2.449   1.474
  518TIP3    H2 1432   5.583   2.510   1.338
  519TIP3   OH2 1433   5.715   2.610   1.263
  519TIP3    H1 1434   5.781   2.557   1.219
  519TIP3    H2 1435   5.765   2.671   1.317
  520TIP3   OH2 1436   6.506   0.970   1.376
  520TIP3    H1 1437   6.421   0.932   1.353
  520TIP3    H2 1438   6.570   0.916   1.328
  521TIP3   OH2 1439   4.782   2.467   1.299
  521TIP3    H1 1440   4.691   2.481   1.273
  521TIP3    H2 1441   4.800   2.535   1.364
  522TIP3   OH2 1442   5.012   2.453   1.148
  522TIP3    H1 1443   4.929   2.459   1.195
  522TIP3    H2 1444   4.991   2.480   1.058
  523TIP3   OH2 1445   5.432   2.473   0.938
  523TIP3    H1 1446   5.360   2.486   0.876
  523TIP3    H2 1447   5.442   2.558   0.981
  524TIP3   OH2 1448   5.692   2.391   0.977
  524TIP3    H1 1449   5.601   2.416   0.962
  524TIP3    H2 1450   5.743   2.460   0.936
  525TIP3   OH2 1451   5.894   2.577   0.900
  525TIP3    H1 1452   5.873   2.662   0.861
  525TIP3    H2 1453   5.924   2.524   0.826
  526TIP3   OH2 1454   4.740   2.273   1.035
  526TIP3    H1 1455   4.754   2.243   1.125
  526TIP3    H2 1456   4.807   2.227   0.984
  527TIP3   OH2 1457   4.919   2.136   0.888
  527TIP3    H1 1458   4.926   2.048   0.926
  527TIP3    H2 1459   5.009   2.169   0.887
  528TIP3   OH2 1460   5.183   2.222   0.893
  528TIP3    H1 1461   5.201   2.129   0.881
  528TIP3    H2 1462   5.232   2.247   0.972
  529TIP3   OH2 1463   5.778   0.862   0.978
  529TIP3    H1 1464   5.716   0.846   1.048
  529TIP3    H2 1465   5.803   0.776   0.946
  530TIP3   OH2 1466   4.966   0.582   0.883
  530TIP3    H1 1467   4.917   0.621   0.955
  530TIP3    H2 1468   5.013   0.509   0.923
  531TIP3   OH2 1469   4.476   2.111   0.408
  531TIP3    H1 1470   4.391   2.080   0.378
  531TIP3    H2 1471   4.465   2.120   0.503
  532TIP3   OH2 1472   8.531   6.900   7.972
  532TIP3    H1 1473   8.620   6.927   7.952
  532TIP3    H2 1474   8.530   6.805   7.956
  533TIP3   OH2 1475   5.945   2.334   0.100
  533TIP3    H1 1476   5.938   2.238   0.096
  533TIP3    H2 1477   5.899   2.364   0.021
  534TIP3   OH2 1478   5.200   0.831   1.885
  534TIP3    H1 1479   5.165   0.762   1.940
  534TIP3    H2 1480   5.291   0.842   1.914
  535TIP3   OH2 1481   5.452   0.840   1.993
  535TIP3    H1 1482   5.525   0.823   1.934
  535TIP3    H2 1483   5.459   0.772   2.061
  536TIP3   OH2 1484   7.928   6.709   7.954
  536TIP3    H1 1485   7.850   6.708   8.008
  536TIP3    H2 1486   8.000   6.697   8.016
  537TIP3   OH2 1487   6.258   0.956   1.787
  537TIP3    H1 1488   6.275   0.922   1.875
  537TIP3    H2 1489   6.343   0.951   1.742
  538TIP3   OH2 1490   6.177   2.475   1.276
  538TIP3    H1 1491   6.099   2.446   1.229
  538TIP3    H2 1492   6.165   2.570   1.286
  539TIP3   OH2 1493   6.794   1.775   0.799
  539TIP3    H1 1494   6.832   1.698   0.842
  539TIP3    H2 1495   6.836   1.850   0.840
  540TIP3   OH2 1496   6.720   2.171   0.511
  540TIP3    H1 1497   6.705   2.079   0.531
  540TIP3    H2 1498   6.811   2.174   0.480
  541TIP3   OH2 1499   7.302   2.518   0.056
  541TIP3    H1 1500   7.322   2.424   0.062
  541TIP3    H2 1501   7.330   2.553   0.141
  542TIP3   OH2 1502   7.084   1.973   0.759
  542TIP3    H1 1503   7.028   2.050   0.762
  542TIP3    H2 1504   7.161   2.000   0.709
  543TIP3   OH2 1505   6.933   2.203   0.780
  543TIP3    H1 1506   6.925   2.288   0.736
  543TIP3    H2 1507   6.852   2.193   0.829
  544TIP3   OH2 1508   7.976   2.211   0.565
  544TIP3    H1 1509   7.939   2.161   0.493
  544TIP3    H2 1510   7.956   2.303   0.544
  545TIP3   OH2 1511   6.957   2.200   0.362
  545TIP3    H1 1512   6.907   2.192   0.281
  545TIP3    H2 1513   7.045   2.171   0.338
  546TIP3   OH2 1514   7.387   2.382   0.366
  546TIP3    H1 1515   7.449   2.454   0.351
  546TIP3    H2 1516   7.405   2.354   0.455
  547TIP3   OH2 1517   7.126   2.307   0.955
  547TIP3    H1 1518   7.061   2.366   0.994
  547TIP3    H2 1519   7.075   2.252   0.896
  548TIP3   OH2 1520   6.893   1.878   1.073
  548TIP3    H1 1521   6.900   1.970   1.099
  548TIP3    H2 1522   6.803   1.854   1.095
  549TIP3   OH2 1523   6.914   2.471   1.010
  549TIP3    H1 1524   6.888   2.475   0.918
  549TIP3    H2 1525   6.832   2.451   1.056
  550TIP3   OH2 1526   6.519   2.002   0.964
  550TIP3    H1 1527   6.456   2.006   0.892
  550TIP3    H2 1528   6.527   1.909   0.985
  551TIP3   OH2 1529   6.376   2.221   0.627
  551TIP3    H1 1530   6.469   2.245   0.626
  551TIP3    H2 1531   6.331   2.299   0.658
  552TIP3   OH2 1532   8.352   2.739   0.597
  552TIP3    H1 1533   8.360   2.665   0.536
  552TIP3    H2 1534   8.279   2.715   0.654
  553TIP3   OH2 1535   7.264   2.476   0.783
  553TIP3    H1 1536   7.267   2.564   0.819
  553TIP3    H2 1537   7.212   2.426   0.847
  554TIP3   OH2 1538   6.541   2.438   0.140
  554TIP3    H1 1539   6.590   2.426   0.221
  554TIP3    H2 1540   6.499   2.353   0.124
  555TIP3   OH2 1541   6.713   2.203   0.942
  555TIP3    H1 1542   6.761   2.199   1.025
  555TIP3    H2 1543   6.645   2.136   0.950
  556TIP3   OH2 1544   7.527   1.830   1.114
  556TIP3    H1 1545   7.509   1.749   1.162
  556TIP3    H2 1546   7.582   1.802   1.040
  557TIP3   OH2 1547   6.876   1.598   1.013
  557TIP3    H1 1548   6.792   1.634   1.042
  557TIP3    H2 1549   6.872   1.506   1.039
  558TIP3   OH2 1550   7.896   3.109   0.784
  558TIP3    H1 1551   7.855   3.103   0.698
  558TIP3    H2 1552   7.979   3.154   0.769
  559TIP3   OH2 1553   6.876   2.135   1.172
  559TIP3    H1 1554   6.958   2.155   1.217
  559TIP3    H2 1555   6.809   2.140   1.241
  560TIP3   OH2 1556   7.404   2.083   0.838
  560TIP3    H1 1557   7.443   2.030   0.907
  560TIP3    H2 1558   7.422   2.173   0.863
  561TIP3   OH2 1559   6.719   1.888   0.554
  561TIP3    H1 1560   6.779   1.859   0.486
  561TIP3    H2 1561   6.756   1.853   0.635
  562TIP3   OH2 1562   6.653   1.735   1.105
  562TIP3    H1 1563   6.635   1.722   1.198
  562TIP3    H2 1564   6.569   1.718   1.062
  563TIP3   OH2 1565   7.552   2.484   0.656
  563TIP3    H1 1566   7.501   2.403   0.662
  563TIP3    H2 1567   7.634   2.465   0.700
  564TIP3   OH2 1568   8.386   2.289   0.621
  564TIP3    H1 1569   8.303   2.334   0.606
  564TIP3    H2 1570   8.369   2.198   0.598
  565TIP3   OH2 1571   6.806   2.206   0.137
  565TIP3    H1 1572   6.813   2.282   0.079
  565TIP3    H2 1573   6.720   2.169   0.118
  566TIP3   OH2 1574   7.122   2.528   0.557
  566TIP3    H1 1575   7.163   2.602   0.512
  566TIP3    H2 1576   7.186   2.502   0.623
  567TIP3   OH2 1577   0.239   7.056   7.991
  567TIP3    H1 1578   0.151   7.065   8.028
  567TIP3    H2 1579   0.268   7.146   7.977
  568TIP3   OH2 1580   7.495   2.188   0.599
  568TIP3    H1 1581   7.446   2.143   0.667
  568TIP3    H2 1582   7.507   2.122   0.530
  569TIP3   OH2 1583   7.739   2.636   0.524
  569TIP3    H1 1584   7.673   2.575   0.557
  569TIP3    H2 1585   7.700   2.674   0.446
  570TIP3   OH2 1586   6.843   1.346   1.122
  570TIP3    H1 1587   6.748   1.349   1.131
  570TIP3    H2 1588   6.870   1.275   1.181
  571TIP3   OH2 1589   6.566   2.427   0.757
  571TIP3    H1 1590   6.619   2.366   0.808
  571TIP3    H2 1591   6.579   2.512   0.800
  572TIP3   OH2 1592   7.838   2.638   0.197
  572TIP3    H1 1593   7.787   2.676   0.126
  572TIP3    H2 1594   7.923   2.681   0.191
  573TIP3   OH2 1595   6.422   2.196   0.109
  573TIP3    H1 1596   6.360   2.182   0.180
  573TIP3    H2 1597   6.367   2.204   0.031
  574TIP3   OH2 1598   6.563   2.715   1.163
  574TIP3    H1 1599   6.640   2.722   1.219
  574TIP3    H2 1600   6.549   2.621   1.155
  575TIP3   OH2 1601   7.000   2.647   1.203
  575TIP3    H1 1602   7.083   2.606   1.228
  575TIP3    H2 1603   6.970   2.596   1.128
  576TIP3   OH2 1604   7.670   2.499   1.000
  576TIP3    H1 1605   7.655   2.460   1.086
  576TIP3    H2 1606   7.750   2.550   1.011
  577TIP3   OH2 1607   6.673   2.114   1.360
  577TIP3    H1 1608   6.696   2.021   1.367
  577TIP3    H2 1609   6.585   2.114   1.322
  578TIP3   OH2 1610   7.308   2.232   1.147
  578TIP3    H1 1611   7.259   2.249   1.067
  578TIP3    H2 1612   7.382   2.178   1.118
  579TIP3   OH2 1613   7.721   2.166   0.766
  579TIP3    H1 1614   7.763   2.251   0.753
  579TIP3    H2 1615   7.639   2.173   0.718
  580TIP3   OH2 1616   6.799   1.861   1.364
  580TIP3    H1 1617   6.870   1.801   1.340
  580TIP3    H2 1618   6.818   1.886   1.455
  581TIP3   OH2 1619   7.550   2.096   1.108
  581TIP3    H1 1620   7.632   2.096   1.059
  581TIP3    H2 1621   7.534   2.004   1.128
  582TIP3   OH2 1622   7.155   1.781   0.944
  582TIP3    H1 1623   7.249   1.768   0.935
  582TIP3    H2 1624   7.133   1.848   0.879
  583TIP3   OH2 1625   7.882   1.701   1.130
  583TIP3    H1 1626   7.944   1.635   1.162
  583TIP3    H2 1627   7.860   1.753   1.208
  584TIP3   OH2 1628   7.803   2.056   0.997
  584TIP3    H1 1629   7.775   2.088   0.911
  584TIP3    H2 1630   7.868   1.988   0.977
  585TIP3   OH2 1631   7.068   1.647   1.237
  585TIP3    H1 1632   7.039   1.572   1.288
  585TIP3    H2 1633   7.162   1.650   1.250
  586TIP3   OH2 1634   7.341   1.638   1.249
  586TIP3    H1 1635   7.359   1.570   1.314
  586TIP3    H2 1636   7.358   1.595   1.165
  587TIP3   OH2 1637   7.006   1.424   1.411
  587TIP3    H1 1638   7.003   1.332   1.384
  587TIP3    H2 1639   7.039   1.422   1.501
  588TIP3   OH2 1640   7.518   1.196   1.464
  588TIP3    H1 1641   7.562   1.271   1.425
  588TIP3    H2 1642   7.427   1.222   1.471
  589TIP3   OH2 1643   6.162   2.479   0.179
  589TIP3    H1 1644   6.094   2.423   0.143
  589TIP3    H2 1645   6.209   2.423   0.242
  590TIP3   OH2 1646   6.301   2.342   0.373
  590TIP3    H1 1647   6.294   2.273   0.439
  590TIP3    H2 1648   6.357   2.409   0.414
  591TIP3   OH2 1649   8.069   2.784   0.147
  591TIP3    H1 1650   8.156   2.753   0.174
  591TIP3    H2 1651   8.084   2.876   0.124
  592TIP3   OH2 1652   8.052   2.731   0.449
  592TIP3    H1 1653   8.021   2.707   0.536
  592TIP3    H2 1654   8.107   2.808   0.463
  593TIP3   OH2 1655   7.938   2.580   0.995
  593TIP3    H1 1656   7.931   2.484   0.995
  593TIP3    H2 1657   8.028   2.597   1.023
  594TIP3   OH2 1658   7.936   2.459   0.451
  594TIP3    H1 1659   7.865   2.514   0.483
  594TIP3    H2 1660   7.936   2.475   0.356
  595TIP3   OH2 1661   6.536   1.698   0.727
  595TIP3    H1 1662   6.529   1.739   0.641
  595TIP3    H2 1663   6.622   1.724   0.760
  596TIP3   OH2 1664   6.741   1.490   1.440
  596TIP3    H1 1665   6.832   1.467   1.421
  596TIP3    H2 1666   6.696   1.406   1.445
  597TIP3   OH2 1667   6.466   1.416   0.776
  597TIP3    H1 1668   6.513   1.379   0.701
  597TIP3    H2 1669   6.487   1.510   0.773
  598TIP3   OH2 1670   6.699   2.431   1.183
  598TIP3    H1 1671   6.605   2.412   1.180
  598TIP3    H2 1672   6.720   2.432   1.277
  599TIP3   OH2 1673   6.906   2.477   0.724
  599TIP3    H1 1674   6.852   2.551   0.697
  599TIP3    H2 1675   6.986   2.486   0.672
  600TIP3   OH2 1676   7.296   2.722   0.899
  600TIP3    H1 1677   7.347   2.698   0.976
  600TIP3    H2 1678   7.344   2.794   0.860
  601TIP3   OH2 1679   7.441   2.938   0.805
  601TIP3    H1 1680   7.479   2.878   0.740
  601TIP3    H2 1681   7.516   2.986   0.840
  602TIP3   OH2 1682   6.558   2.729   0.785
  602TIP3    H1 1683   6.469   2.758   0.765
  602TIP3    H2 1684   6.590   2.791   0.850
  603TIP3   OH2 1685   6.785   2.707   0.630
  603TIP3    H1 1686   6.702   2.715   0.677
  603TIP3    H2 1687   6.763   2.729   0.539
  604TIP3   OH2 1688   7.202   2.757   0.422
  604TIP3    H1 1689   7.120   2.784   0.379
  604TIP3    H2 1690   7.223   2.830   0.480
  605TIP3   OH2 1691   7.395   2.703   0.234
  605TIP3    H1 1692   7.328   2.721   0.300
  605TIP3    H2 1693   7.478   2.724   0.278
  606TIP3   OH2 1694   7.612   2.822   0.365
  606TIP3    H1 1695   7.578   2.911   0.367
  606TIP3    H2 1696   7.690   2.827   0.310
  607TIP3   OH2 1697   6.477   2.523   0.513
  607TIP3    H1 1698   6.507   2.500   0.601
  607TIP3    H2 1699   6.546   2.491   0.455
  608TIP3   OH2 1700   6.677   2.408   0.376
  608TIP3    H1 1701   6.687   2.324   0.420
  608TIP3    H2 1702   6.766   2.442   0.367
  609TIP3   OH2 1703   6.942   2.483   0.358
  609TIP3    H1 1704   6.956   2.391   0.337
  609TIP3    H2 1705   7.002   2.501   0.430
  610TIP3   OH2 1706   9.507   6.871   7.914
  610TIP3    H1 1707   9.427   6.826   7.886
  610TIP3    H2 1708   9.495   6.961   7.886
  611TIP3   OH2 1709   6.992   1.149   1.377
  611TIP3    H1 1710   6.949   1.073   1.417
  611TIP3    H2 1711   7.084   1.140   1.402
  612TIP3   OH2 1712   7.240   1.112   1.508
  612TIP3    H1 1713   7.315   1.067   1.468
  612TIP3    H2 1714   7.218   1.058   1.584
  613TIP3   OH2 1715   7.935   2.672   0.703
  613TIP3    H1 1716   7.853   2.680   0.654
  613TIP3    H2 1717   7.962   2.762   0.719
  614TIP3   OH2 1718   8.398   3.012   0.722
  614TIP3    H1 1719   8.490   2.989   0.732
  614TIP3    H2 1720   8.351   2.932   0.746
  615TIP3   OH2 1721   8.627   2.266   0.838
  615TIP3    H1 1722   8.656   2.180   0.867
  615TIP3    H2 1723   8.591   2.251   0.751
  616TIP3   OH2 1724   8.599   2.656   0.704
  616TIP3    H1 1725   8.517   2.680   0.661
  616TIP3    H2 1726   8.573   2.633   0.793
  617TIP3   OH2 1727   8.334   3.078   0.215
  617TIP3    H1 1728   8.348   3.167   0.249
  617TIP3    H2 1729   8.420   3.036   0.222
  618TIP3   OH2 1730   0.697   3.480   2.347
  618TIP3    H1 1731   0.674   3.410   2.287
  618TIP3    H2 1732   0.617   3.497   2.396
  619TIP3   OH2 1733   0.401   3.792   2.449
  619TIP3    H1 1734   0.391   3.811   2.356
  619TIP3    H2 1735   0.480   3.839   2.475
  620TIP3   OH2 1736   0.573   3.229   2.720
  620TIP3    H1 1737   0.499   3.241   2.780
  620TIP3    H2 1738   0.611   3.316   2.712
  621TIP3   OH2 1739   0.455   3.523   2.467
  621TIP3    H1 1740   0.413   3.494   2.548
  621TIP3    H2 1741   0.428   3.614   2.458
  622TIP3   OH2 1742   1.768   3.125   1.325
  622TIP3    H1 1743   1.814   3.064   1.383
  622TIP3    H2 1744   1.835   3.188   1.299
  623TIP3   OH2 1745   1.592   3.665   1.310
  623TIP3    H1 1746   1.583   3.572   1.327
  623TIP3    H2 1747   1.551   3.708   1.385
  624TIP3   OH2 1748   1.543   3.034   1.790
  624TIP3    H1 1749   1.573   2.997   1.707
  624TIP3    H2 1750   1.504   3.118   1.765
  625TIP3   OH2 1751   2.468   2.510   1.676
  625TIP3    H1 1752   2.510   2.596   1.680
  625TIP3    H2 1753   2.527   2.457   1.622
  626TIP3   OH2 1754   2.562   2.626   1.930
  626TIP3    H1 1755   2.488   2.677   1.898
  626TIP3    H2 1756   2.626   2.691   1.959
  627TIP3   OH2 1757   1.409   3.116   2.032
  627TIP3    H1 1758   1.416   3.082   1.943
  627TIP3    H2 1759   1.499   3.132   2.059
  628TIP3   OH2 1760   1.131   3.278   1.976
  628TIP3    H1 1761   1.120   3.372   1.957
  628TIP3    H2 1762   1.074   3.262   2.051
  629TIP3   OH2 1763   2.088   3.476   1.446
  629TIP3    H1 1764   2.012   3.489   1.503
  629TIP3    H2 1765   2.057   3.502   1.359
  630TIP3   OH2 1766   2.382   2.375   1.902
  630TIP3    H1 1767   2.330   2.317   1.846
  630TIP3    H2 1768   2.426   2.434   1.841
  631TIP3   OH2 1769   1.786   3.437   1.175
  631TIP3    H1 1770   1.846   3.366   1.197
  631TIP3    H2 1771   1.813   3.465   1.087
  632TIP3   OH2 1772   2.240   3.402   1.832
  632TIP3    H1 1773   2.247   3.328   1.771
  632TIP3    H2 1774   2.233   3.479   1.776
  633TIP3   OH2 1775   2.403   2.993   1.712
  633TIP3    H1 1776   2.385   3.086   1.702
  633TIP3    H2 1777   2.407   2.960   1.622
  634TIP3   OH2 1778   2.143   2.897   2.009
  634TIP3    H1 1779   2.147   2.985   2.046
  634TIP3    H2 1780   2.050   2.881   1.994
  635TIP3   OH2 1781   1.680   3.368   1.644
  635TIP3    H1 1782   1.606   3.428   1.642
  635TIP3    H2 1783   1.741   3.403   1.578
  636TIP3   OH2 1784   1.398   3.370   2.132
  636TIP3    H1 1785   1.321   3.414   2.169
  636TIP3    H2 1786   1.364   3.287   2.099
  637TIP3   OH2 1787   1.158   2.934   2.195
  637TIP3    H1 1788   1.153   3.014   2.248
  637TIP3    H2 1789   1.072   2.893   2.206
  638TIP3   OH2 1790   1.175   3.507   2.220
  638TIP3    H1 1791   1.136   3.529   2.136
  638TIP3    H2 1792   1.100   3.490   2.278
  639TIP3   OH2 1793   2.495   3.721   1.866
  639TIP3    H1 1794   2.500   3.626   1.873
  639TIP3    H2 1795   2.415   3.744   1.914
  640TIP3   OH2 1796   1.570   3.527   1.994
  640TIP3    H1 1797   1.564   3.606   2.048
  640TIP3    H2 1798   1.523   3.460   2.043
  641TIP3   OH2 1799   2.363   2.826   2.172
  641TIP3    H1 1800   2.285   2.851   2.121
  641TIP3    H2 1801   2.372   2.732   2.156
  642TIP3   OH2 1802   0.933   3.228   2.163
  642TIP3    H1 1803   0.992   3.214   2.236
  642TIP3    H2 1804   0.886   3.144   2.154
  643TIP3   OH2 1805   2.125   2.613   2.077
  643TIP3    H1 1806   2.075   2.593   2.156
  643TIP3    H2 1807   2.093   2.700   2.050
  644TIP3   OH2 1808   1.830   2.816   2.259
  644TIP3    H1 1809   1.811   2.750   2.326
  644TIP3    H2 1810   1.922   2.838   2.271
  645TIP3   OH2 1811   1.887   2.853   1.957
  645TIP3    H1 1812   1.874   2.902   1.876
  645TIP3    H2 1813   1.803   2.859   2.002
  646TIP3   OH2 1814   2.203   4.062   1.948
  646TIP3    H1 1815   2.192   4.080   1.854
  646TIP3    H2 1816   2.284   4.108   1.971
  647TIP3   OH2 1817   1.124   3.162   2.358
  647TIP3    H1 1818   1.207   3.179   2.403
  647TIP3    H2 1819   1.058   3.169   2.428
  648TIP3   OH2 1820   2.248   3.208   1.637
  648TIP3    H1 1821   2.273   3.241   1.550
  648TIP3    H2 1822   2.216   3.120   1.620
  649TIP3   OH2 1823   1.675   3.151   2.106
  649TIP3    H1 1824   1.744   3.163   2.171
  649TIP3    H2 1825   1.705   3.202   2.030
  650TIP3   OH2 1826   1.607   2.965   2.334
  650TIP3    H1 1827   1.533   2.917   2.297
  650TIP3    H2 1828   1.684   2.923   2.296
  651TIP3   OH2 1829   1.824   3.580   1.903
  651TIP3    H1 1830   1.734   3.550   1.912
  651TIP3    H2 1831   1.856   3.591   1.992
  652TIP3   OH2 1832   2.506   3.438   1.884
  652TIP3    H1 1833   2.410   3.431   1.889
  652TIP3    H2 1834   2.528   3.402   1.799
  653TIP3   OH2 1835   1.919   2.972   1.484
  653TIP3    H1 1836   1.891   2.972   1.575
  653TIP3    H2 1837   1.951   2.884   1.468
  654TIP3   OH2 1838   1.344   3.608   1.862
  654TIP3    H1 1839   1.362   3.614   1.768
  654TIP3    H2 1840   1.426   3.577   1.900
  655TIP3   OH2 1841   1.854   3.042   1.759
  655TIP3    H1 1842   1.782   3.088   1.801
  655TIP3    H2 1843   1.908   3.111   1.721
  656TIP3   OH2 1844   2.016   3.758   1.815
  656TIP3    H1 1845   1.941   3.704   1.838
  656TIP3    H2 1846   1.981   3.822   1.753
  657TIP3   OH2 1847   0.822   3.407   1.966
  657TIP3    H1 1848   0.853   3.369   2.048
  657TIP3    H2 1849   0.820   3.501   1.982
  658TIP3   OH2 1850   1.903   2.442   1.982
  658TIP3    H1 1851   1.977   2.502   1.969
  658TIP3    H2 1852   1.920   2.369   1.922
  659TIP3   OH2 1853   1.708   2.592   2.110
  659TIP3    H1 1854   1.751   2.674   2.133
  659TIP3    H2 1855   1.774   2.543   2.061
  660TIP3   OH2 1856   2.382   2.552   2.140
  660TIP3    H1 1857   2.287   2.553   2.130
  660TIP3    H2 1858   2.415   2.518   2.057
  661TIP3   OH2 1859   2.062   2.742   1.437
  661TIP3    H1 1860   2.064   2.702   1.350
  661TIP3    H2 1861   2.073   2.668   1.497
  662TIP3   OH2 1862   2.064   3.800   1.434
  662TIP3    H1 1863   2.017   3.725   1.397
  662TIP3    H2 1864   2.155   3.785   1.409
  663TIP3   OH2 1865   0.816   3.753   2.342
  663TIP3    H1 1866   0.899   3.746   2.389
  663TIP3    H2 1867   0.785   3.662   2.335
  664TIP3   OH2 1868   1.292   3.676   2.402
  664TIP3    H1 1869   1.382   3.645   2.412
  664TIP3    H2 1870   1.255   3.620   2.334
  665TIP3   OH2 1871   1.924   3.598   2.155
  665TIP3    H1 1872   1.932   3.534   2.225
  665TIP3    H2 1873   1.992   3.663   2.174
  666TIP3   OH2 1874   0.919   3.156   2.550
  666TIP3    H1 1875   0.959   3.069   2.559
  666TIP3    H2 1876   0.834   3.139   2.509
  667TIP3   OH2 1877   1.538   3.243   2.344
  667TIP3    H1 1878   1.513   3.268   2.255
  667TIP3    H2 1879   1.574   3.155   2.334
  668TIP3   OH2 1880   2.023   3.350   1.993
  668TIP3    H1 1881   2.099   3.375   1.940
  668TIP3    H2 1882   1.995   3.432   2.034
  669TIP3   OH2 1883   1.051   2.917   2.552
  669TIP3    H1 1884   1.118   2.863   2.510
  669TIP3    H2 1885   1.083   2.930   2.641
  670TIP3   OH2 1886   1.412   2.824   2.196
  670TIP3    H1 1887   1.324   2.861   2.190
  670TIP3    H2 1888   1.454   2.847   2.114
  671TIP3   OH2 1889   1.891   3.157   2.288
  671TIP3    H1 1890   1.969   3.127   2.242
  671TIP3    H2 1891   1.888   3.104   2.368
  672TIP3   OH2 1892   1.515   2.598   2.305
  672TIP3    H1 1893   1.573   2.573   2.233
  672TIP3    H2 1894   1.467   2.674   2.272
  673TIP3   OH2 1895   1.620   2.900   2.013
  673TIP3    H1 1896   1.589   2.935   1.929
  673TIP3    H2 1897   1.640   2.978   2.065
  674TIP3   OH2 1898   2.097   2.856   2.345
  674TIP3    H1 1899   2.114   2.762   2.345
  674TIP3    H2 1900   2.183   2.896   2.345
  675TIP3   OH2 1901   2.156   3.147   2.119
  675TIP3    H1 1902   2.100   3.214   2.081
  675TIP3    H2 1903   2.242   3.163   2.081
  676TIP3   OH2 1904   1.392   2.668   2.558
  676TIP3    H1 1905   1.333   2.598   2.586
  676TIP3    H2 1906   1.417   2.645   2.468
  677TIP3   OH2 1907   1.764   2.614   2.431
  677TIP3    H1 1908   1.746   2.598   2.524
  677TIP3    H2 1909   1.680   2.599   2.388
  678TIP3   OH2 1910   2.018   2.578   2.323
  678TIP3    H1 1911   1.930   2.573   2.360
  678TIP3    H2 1912   2.075   2.540   2.390
  679TIP3   OH2 1913   2.218   2.513   2.507
  679TIP3    H1 1914   2.241   2.422   2.488
  679TIP3    H2 1915   2.149   2.507   2.574
  680TIP3   OH2 1916   1.245   2.464   2.660
  680TIP3    H1 1917   1.216   2.383   2.619
  680TIP3    H2 1918   1.275   2.437   2.747
  681TIP3   OH2 1919   1.685   2.123   2.471
  681TIP3    H1 1920   1.765   2.074   2.454
  681TIP3    H2 1921   1.638   2.121   2.387
  682TIP3   OH2 1922   1.788   2.334   2.614
  682TIP3    H1 1923   1.750   2.264   2.561
  682TIP3    H2 1924   1.719   2.399   2.622
  683TIP3   OH2 1925   2.336   3.809   1.392
  683TIP3    H1 1926   2.359   3.828   1.483
  683TIP3    H2 1927   2.338   3.894   1.348
  684TIP3   OH2 1928   2.337   3.845   1.663
  684TIP3    H1 1929   2.287   3.763   1.662
  684TIP3    H2 1930   2.408   3.828   1.724
  685TIP3   OH2 1931   2.377   3.497   2.195
  685TIP3    H1 1932   2.305   3.507   2.257
  685TIP3    H2 1933   2.421   3.581   2.196
  686TIP3   OH2 1934   2.248   3.270   1.369
  686TIP3    H1 1935   2.342   3.279   1.356
  686TIP3    H2 1936   2.218   3.359   1.388
  687TIP3   OH2 1937   2.202   3.608   1.659
  687TIP3    H1 1938   2.120   3.642   1.694
  687TIP3    H2 1939   2.177   3.565   1.577
  688TIP3   OH2 1940   2.409   3.168   2.004
  688TIP3    H1 1941   2.466   3.092   1.993
  688TIP3    H2 1942   2.446   3.235   1.946
  689TIP3   OH2 1943   2.566   2.946   2.021
  689TIP3    H1 1944   2.500   2.899   2.072
  689TIP3    H2 1945   2.647   2.899   2.038
  690TIP3   OH2 1946   2.243   2.540   1.526
  690TIP3    H1 1947   2.276   2.496   1.448
  690TIP3    H2 1948   2.310   2.524   1.593
  691TIP3   OH2 1949   2.346   2.777   1.865
  691TIP3    H1 1950   2.274   2.812   1.916
  691TIP3    H2 1951   2.380   2.852   1.816
  692TIP3   OH2 1952   2.807   2.381   2.361
  692TIP3    H1 1953   2.867   2.327   2.309
  692TIP3    H2 1954   2.768   2.442   2.298
  693TIP3   OH2 1955   2.652   2.522   2.190
  693TIP3    H1 1956   2.562   2.556   2.182
  693TIP3    H2 1957   2.654   2.446   2.132
  694TIP3   OH2 1958   1.895   3.568   0.960
  694TIP3    H1 1959   1.876   3.581   0.867
  694TIP3    H2 1960   1.849   3.639   1.004
  695TIP3   OH2 1961   0.967   3.474   2.395
  695TIP3    H1 1962   0.873   3.467   2.377
  695TIP3    H2 1963   0.973   3.468   2.491
  696TIP3   OH2 1964   1.102   3.549   1.959
  696TIP3    H1 1965   1.043   3.593   1.898
  696TIP3    H2 1966   1.190   3.574   1.930
  697TIP3   OH2 1967   1.573   3.793   2.078
  697TIP3    H1 1968   1.603   3.770   2.166
  697TIP3    H2 1969   1.643   3.848   2.042
  698TIP3   OH2 1970   1.777   3.938   1.970
  698TIP3    H1 1971   1.831   3.896   1.903
  698TIP3    H2 1972   1.838   3.992   2.020
  699TIP3   OH2 1973   2.567   2.277   2.079
  699TIP3    H1 1974   2.488   2.293   2.028
  699TIP3    H2 1975   2.583   2.183   2.070
  700TIP3   OH2 1976   0.801   3.821   1.948
  700TIP3    H1 1977   0.708   3.843   1.941
  700TIP3    H2 1978   0.831   3.871   2.025
  701TIP3   OH2 1979   0.978   3.712   1.778
  701TIP3    H1 1980   0.911   3.747   1.836
  701TIP3    H2 1981   1.029   3.789   1.752
  702TIP3   OH2 1982   1.458   3.786   1.514
  702TIP3    H1 1983   1.370   3.816   1.492
  702TIP3    H2 1984   1.507   3.867   1.530
  703TIP3   OH2 1985   1.746   3.728   1.582
  703TIP3    H1 1986   1.681   3.725   1.652
  703TIP3    H2 1987   1.764   3.821   1.570
  704TIP3   OH2 1988   1.939   3.939   1.626
  704TIP3    H1 1989   1.933   4.028   1.590
  704TIP3    H2 1990   1.985   3.888   1.559
  705TIP3   OH2 1991   1.193   3.579   1.605
  705TIP3    H1 1992   1.133   3.517   1.564
  705TIP3    H2 1993   1.138   3.634   1.661
  706TIP3   OH2 1994   1.977   3.570   0.568
  706TIP3    H1 1995   1.903   3.585   0.626
  706TIP3    H2 1996   1.952   3.611   0.485
  707TIP3   OH2 1997   1.492   2.191   2.678
  707TIP3    H1 1998   1.553   2.157   2.613
  707TIP3    H2 1999   1.455   2.113   2.720
  708TIP3   OH2 2000   2.321   2.263   2.466
  708TIP3    H1 2001   2.335   2.229   2.555
  708TIP3    H2 2002   2.406   2.254   2.423
  709TIP3   OH2 2003   2.246   3.791   1.965
  709TIP3    H1 2004   2.170   3.764   1.914
  709TIP3    H2 2005   2.239   3.886   1.970
  710TIP3   OH2 2006   3.538   3.242   0.743
  710TIP3    H1 2007   3.512   3.324   0.700
  710TIP3    H2 2008   3.491   3.174   0.695
  711TIP3   OH2 2009   3.570   3.164   1.114
  711TIP3    H1 2010   3.603   3.156   1.204
  711TIP3    H2 2011   3.507   3.092   1.106
  712TIP3   OH2 2012   2.878   3.168   1.508
  712TIP3    H1 2013   2.811   3.102   1.527
  712TIP3    H2 2014   2.877   3.177   1.413
  713TIP3   OH2 2015   3.784   3.479   0.766
  713TIP3    H1 2016   3.767   3.412   0.832
  713TIP3    H2 2017   3.799   3.559   0.816
  714TIP3   OH2 2018   2.828   3.433   1.187
  714TIP3    H1 2019   2.844   3.346   1.223
  714TIP3    H2 2020   2.914   3.475   1.184
  715TIP3   OH2 2021   3.421   3.889   0.803
  715TIP3    H1 2022   3.476   3.834   0.747
  715TIP3    H2 2023   3.430   3.851   0.890
  716TIP3   OH2 2024   3.320   3.387   1.156
  716TIP3    H1 2025   3.326   3.323   1.085
  716TIP3    H2 2026   3.410   3.417   1.169
  717TIP3   OH2 2027   4.329   2.700   1.162
  717TIP3    H1 2028   4.356   2.791   1.175
  717TIP3    H2 2029   4.329   2.688   1.067
  718TIP3   OH2 2030   3.794   2.895   1.211
  718TIP3    H1 2031   3.816   2.802   1.219
  718TIP3    H2 2032   3.775   2.908   1.119
  719TIP3   OH2 2033   3.059   2.537   0.986
  719TIP3    H1 2034   3.065   2.614   1.042
  719TIP3    H2 2035   2.970   2.504   0.999
  720TIP3   OH2 2036   3.760   2.601   0.831
  720TIP3    H1 2037   3.830   2.659   0.861
  720TIP3    H2 2038   3.683   2.658   0.824
  721TIP3   OH2 2039   3.161   3.012   1.039
  721TIP3    H1 2040   3.219   3.086   1.019
  721TIP3    H2 2041   3.189   2.943   0.981
  722TIP3   OH2 2042   4.407   2.938   1.295
  722TIP3    H1 2043   4.317   2.971   1.291
  722TIP3    H2 2044   4.441   2.971   1.378
  723TIP3   OH2 2045   3.123   2.535   1.625
  723TIP3    H1 2046   3.072   2.571   1.553
  723TIP3    H2 2047   3.077   2.564   1.704
  724TIP3   OH2 2048   3.441   3.464   0.618
  724TIP3    H1 2049   3.385   3.427   0.550
  724TIP3    H2 2050   3.396   3.543   0.647
  725TIP3   OH2 2051   3.146   3.301   1.349
  725TIP3    H1 2052   3.090   3.372   1.380
  725TIP3    H2 2053   3.200   3.341   1.281
  726TIP3   OH2 2054   4.002   2.675   0.932
  726TIP3    H1 2055   3.982   2.617   1.005
  726TIP3    H2 2056   4.037   2.754   0.974
  727TIP3   OH2 2057   3.018   2.616   1.389
  727TIP3    H1 2058   3.075   2.692   1.380
  727TIP3    H2 2059   2.974   2.609   1.304
  728TIP3   OH2 2060   2.986   3.508   1.437
  728TIP3    H1 2061   2.972   3.598   1.407
  728TIP3    H2 2062   2.909   3.488   1.490
  729TIP3   OH2 2063   2.242   3.130   0.632
  729TIP3    H1 2064   2.277   3.106   0.546
  729TIP3    H2 2065   2.275   3.063   0.691
  730TIP3   OH2 2066   3.803   3.718   0.916
  730TIP3    H1 2067   3.715   3.706   0.953
  730TIP3    H2 2068   3.798   3.803   0.872
  731TIP3   OH2 2069   4.111   2.605   1.305
  731TIP3    H1 2070   4.026   2.624   1.264
  731TIP3    H2 2071   4.176   2.637   1.242
  732TIP3   OH2 2072   3.426   2.313   1.337
  732TIP3    H1 2073   3.432   2.249   1.267
  732TIP3    H2 2074   3.336   2.308   1.367
  733TIP3   OH2 2075   3.559   3.748   0.615
  733TIP3    H1 2076   3.597   3.662   0.596
  733TIP3    H2 2077   3.621   3.810   0.579
  734TIP3   OH2 2078   3.693   3.517   0.507
  734TIP3    H1 2079   3.607   3.477   0.525
  734TIP3    H2 2080   3.743   3.501   0.587
  735TIP3   OH2 2081   4.043   3.611   1.273
  735TIP3    H1 2082   4.026   3.536   1.216
  735TIP3    H2 2083   4.025   3.687   1.218
  736TIP3   OH2 2084   3.359   3.066   0.591
  736TIP3    H1 2085   3.285   3.098   0.643
  736TIP3    H2 2086   3.388   3.143   0.541
  737TIP3   OH2 2087   3.350   2.746   0.243
  737TIP3    H1 2088   3.429   2.767   0.194
  737TIP3    H2 2089   3.366   2.658   0.276
  738TIP3   OH2 2090   4.219   3.270   1.138
  738TIP3    H1 2091   4.136   3.317   1.133
  738TIP3    H2 2092   4.251   3.270   1.048
  739TIP3   OH2 2093   3.724   3.157   0.547
  739TIP3    H1 2094   3.674   3.198   0.618
  739TIP3    H2 2095   3.806   3.129   0.589
  740TIP3   OH2 2096   3.926   3.127   1.454
  740TIP3    H1 2097   3.924   3.211   1.501
  740TIP3    H2 2098   3.842   3.123   1.408
  741TIP3   OH2 2099   2.885   3.081   0.971
  741TIP3    H1 2100   2.809   3.028   0.949
  741TIP3    H2 2101   2.957   3.018   0.978
  742TIP3   OH2 2102   3.087   3.529   1.120
  742TIP3    H1 2103   3.072   3.452   1.065
  742TIP3    H2 2104   3.178   3.519   1.150
  743TIP3   OH2 2105   3.076   3.043   1.296
  743TIP3    H1 2106   3.106   3.040   1.205
  743TIP3    H2 2107   3.092   3.133   1.324
  744TIP3   OH2 2108   3.562   3.701   1.044
  744TIP3    H1 2109   3.553   3.780   1.098
  744TIP3    H2 2110   3.558   3.628   1.107
  745TIP3   OH2 2111   3.191   3.601   1.596
  745TIP3    H1 2112   3.132   3.661   1.642
  745TIP3    H2 2113   3.134   3.550   1.539
  746TIP3   OH2 2114   3.483   3.007   0.303
  746TIP3    H1 2115   3.515   2.934   0.356
  746TIP3    H2 2116   3.534   3.003   0.222
  747TIP3   OH2 2117   2.985   3.177   1.758
  747TIP3    H1 2118   2.970   3.268   1.783
  747TIP3    H2 2119   2.946   3.170   1.670
  748TIP3   OH2 2120   3.256   3.667   0.656
  748TIP3    H1 2121   3.297   3.752   0.672
  748TIP3    H2 2122   3.205   3.679   0.576
  749TIP3   OH2 2123   2.985   3.763   1.680
  749TIP3    H1 2124   2.957   3.775   1.589
  749TIP3    H2 2125   2.904   3.747   1.728
  750TIP3   OH2 2126   4.023   2.193   0.368
  750TIP3    H1 2127   4.006   2.282   0.399
  750TIP3    H2 2128   4.028   2.202   0.273
  751TIP3   OH2 2129   2.680   2.999   0.777
  751TIP3    H1 2130   2.631   3.056   0.718
  751TIP3    H2 2131   2.619   2.980   0.848
  752TIP3   OH2 2132   7.170   8.273   7.985
  752TIP3    H1 2133   7.145   8.342   7.924
  752TIP3    H2 2134   7.250   8.236   7.947
  753TIP3   OH2 2135   2.576   3.317   1.651
  753TIP3    H1 2136   2.558   3.308   1.558
  753TIP3    H2 2137   2.613   3.233   1.678
  754TIP3   OH2 2138   2.606   3.583   1.185
  754TIP3    H1 2139   2.676   3.517   1.189
  754TIP3    H2 2140   2.593   3.611   1.275
  755TIP3   OH2 2141   4.274   3.972   1.330
  755TIP3    H1 2142   4.280   3.878   1.342
  755TIP3    H2 2143   4.194   3.997   1.377
  756TIP3   OH2 2144   3.378   3.747   1.460
  756TIP3    H1 2145   3.370   3.838   1.491
  756TIP3    H2 2146   3.311   3.699   1.509
  757TIP3   OH2 2147   3.220   3.919   0.487
  757TIP3    H1 2148   3.157   3.852   0.460
  757TIP3    H2 2149   3.171   4.001   0.487
  758TIP3   OH2 2150   2.699   3.656   0.748
  758TIP3    H1 2151   2.698   3.669   0.843
  758TIP3    H2 2152   2.609   3.632   0.726
  759TIP3   OH2 2153   3.386   3.805   0.087
  759TIP3    H1 2154   3.464   3.788   0.034
  759TIP3    H2 2155   3.416   3.804   0.177
  760TIP3   OH2 2156   3.445   3.843   0.351
  760TIP3    H1 2157   3.367   3.860   0.403
  760TIP3    H2 2158   3.509   3.809   0.413
  761TIP3   OH2 2159   4.166   3.070   1.600
  761TIP3    H1 2160   4.083   3.086   1.555
  761TIP3    H2 2161   4.184   2.977   1.587
  762TIP3   OH2 2162   2.770   3.512   1.612
  762TIP3    H1 2163   2.825   3.503   1.690
  762TIP3    H2 2164   2.703   3.445   1.622
  763TIP3   OH2 2165   3.172   2.319   1.458
  763TIP3    H1 2166   3.130   2.339   1.374
  763TIP3    H2 2167   3.154   2.395   1.512
  764TIP3   OH2 2168   3.707   2.437   1.640
  764TIP3    H1 2169   3.780   2.415   1.697
  764TIP3    H2 2170   3.629   2.425   1.694
  765TIP3   OH2 2171   3.918   2.855   1.530
  765TIP3    H1 2172   3.878   2.854   1.617
  765TIP3    H2 2173   3.905   2.945   1.499
  766TIP3   OH2 2174   3.638   3.004   0.066
  766TIP3    H1 2175   3.611   3.095   0.082
  766TIP3    H2 2176   3.712   3.011   0.005
  767TIP3   OH2 2177   3.139   2.859   1.490
  767TIP3    H1 2178   3.079   2.862   1.564
  767TIP3    H2 2179   3.110   2.930   1.433
  768TIP3   OH2 2180   2.947   2.820   0.908
  768TIP3    H1 2181   2.883   2.751   0.891
  768TIP3    H2 2182   3.004   2.819   0.830
  769TIP3   OH2 2183   3.567   2.770   0.715
  769TIP3    H1 2184   3.551   2.846   0.770
  769TIP3    H2 2185   3.514   2.785   0.637
  770TIP3   OH2 2186   3.652   3.075   1.759
  770TIP3    H1 2187   3.623   3.009   1.822
  770TIP3    H2 2188   3.745   3.087   1.776
  771TIP3   OH2 2189   3.717   2.904   0.946
  771TIP3    H1 2190   3.644   2.958   0.915
  771TIP3    H2 2191   3.675   2.824   0.978
  772TIP3   OH2 2192   2.968   2.852   1.703
  772TIP3    H1 2193   2.939   2.932   1.746
  772TIP3    H2 2194   2.976   2.788   1.775
  773TIP3   OH2 2195   3.670   3.084   1.358
  773TIP3    H1 2196   3.709   3.016   1.303
  773TIP3    H2 2197   3.624   3.035   1.427
  774TIP3   OH2 2198   3.339   2.587   1.037
  774TIP3    H1 2199   3.300   2.506   1.004
  774TIP3    H2 2200   3.325   2.584   1.132
  775TIP3   OH2 2201   2.782   2.612   0.884
  775TIP3    H1 2202   2.710   2.580   0.939
  775TIP3    H2 2203   2.807   2.536   0.831
  776TIP3   OH2 2204   2.893   2.428   0.718
  776TIP3    H1 2205   2.979   2.389   0.730
  776TIP3    H2 2206   2.903   2.484   0.641
  777TIP3   OH2 2207   3.838   2.615   1.222
  777TIP3    H1 2208   3.795   2.626   1.307
  777TIP3    H2 2209   3.798   2.537   1.185
  778TIP3   OH2 2210   3.984   4.309   1.423
  778TIP3    H1 2211   3.982   4.327   1.330
  778TIP3    H2 2212   4.063   4.355   1.455
  779TIP3   OH2 2213   2.927   3.434   1.844
  779TIP3    H1 2214   3.008   3.455   1.891
  779TIP3    H2 2215   2.859   3.440   1.910
  780TIP3   OH2 2216   3.441   2.919   1.149
  780TIP3    H1 2217   3.494   2.849   1.113
  780TIP3    H2 2218   3.421   2.890   1.239
  781TIP3   OH2 2219   3.386   2.815   1.396
  781TIP3    H1 2220   3.303   2.850   1.430
  781TIP3    H2 2221   3.454   2.862   1.445
  782TIP3   OH2 2222   3.006   3.160   0.445
  782TIP3    H1 2223   2.952   3.087   0.415
  782TIP3    H2 2224   2.998   3.159   0.540
  783TIP3   OH2 2225   3.993   3.417   1.090
  783TIP3    H1 2226   4.033   3.463   1.017
  783TIP3    H2 2227   3.912   3.380   1.054
  784TIP3   OH2 2228   3.454   2.516   0.338
  784TIP3    H1 2229   3.403   2.447   0.296
  784TIP3    H2 2230   3.545   2.498   0.313
  785TIP3   OH2 2231   3.507   3.480   1.489
  785TIP3    H1 2232   3.552   3.473   1.574
  785TIP3    H2 2233   3.461   3.564   1.494
  786TIP3   OH2 2234   3.621   2.768   0.347
  786TIP3    H1 2235   3.689   2.717   0.391
  786TIP3    H2 2236   3.539   2.742   0.390
  787TIP3   OH2 2237   2.808   3.159   1.226
  787TIP3    H1 2238   2.859   3.140   1.148
  787TIP3    H2 2239   2.742   3.091   1.229
  788TIP3   OH2 2240   3.236   3.258   0.212
  788TIP3    H1 2241   3.231   3.349   0.242
  788TIP3    H2 2242   3.166   3.213   0.260
  789TIP3   OH2 2243   2.666   3.102   1.797
  789TIP3    H1 2244   2.722   3.110   1.874
  789TIP3    H2 2245   2.607   3.029   1.816
  790TIP3   OH2 2246   3.427   3.239   1.792
  790TIP3    H1 2247   3.357   3.179   1.765
  790TIP3    H2 2248   3.508   3.197   1.764
  791TIP3   OH2 2249   3.647   3.770   1.380
  791TIP3    H1 2250   3.552   3.755   1.385
  791TIP3    H2 2251   3.670   3.805   1.466
  792TIP3   OH2 2252   4.089   2.841   0.308
  792TIP3    H1 2253   4.042   2.894   0.243
  792TIP3    H2 2254   4.175   2.882   0.313
  793TIP3   OH2 2255   4.291   3.694   1.352
  793TIP3    H1 2256   4.197   3.677   1.353
  793TIP3    H2 2257   4.321   3.659   1.269
  794TIP3   OH2 2258   3.738   3.649   0.233
  794TIP3    H1 2259   3.740   3.589   0.308
  794TIP3    H2 2260   3.789   3.603   0.165
  795TIP3   OH2 2261   3.775   3.293   0.980
  795TIP3    H1 2262   3.692   3.256   1.012
  795TIP3    H2 2263   3.827   3.216   0.955
  796TIP3   OH2 2264   2.903   3.507   0.868
  796TIP3    H1 2265   2.878   3.598   0.853
  796TIP3    H2 2266   2.819   3.462   0.879
  797TIP3   OH2 2267   3.148   3.161   0.724
  797TIP3    H1 2268   3.105   3.247   0.726
  797TIP3    H2 2269   3.077   3.098   0.720
  798TIP3   OH2 2270   3.198   3.835   1.261
  798TIP3    H1 2271   3.236   3.907   1.212
  798TIP3    H2 2272   3.270   3.798   1.312
  799TIP3   OH2 2273   2.757   3.862   0.578
  799TIP3    H1 2274   2.742   3.795   0.645
  799TIP3    H2 2275   2.837   3.907   0.606
  800TIP3   OH2 2276   3.571   3.480   1.220
  800TIP3    H1 2277   3.556   3.476   1.314
  800TIP3    H2 2278   3.648   3.425   1.205
  801TIP3   OH2 2279   3.509   3.238   0.133
  801TIP3    H1 2280   3.576   3.263   0.197
  801TIP3    H2 2281   3.426   3.246   0.180
  802TIP3   OH2 2282   3.799   3.979   1.265
  802TIP3    H1 2283   3.730   3.916   1.284
  802TIP3    H2 2284   3.763   4.033   1.194
  803TIP3   OH2 2285   7.132   8.507   7.848
  803TIP3    H1 2286   7.190   8.580   7.866
  803TIP3    H2 2287   7.049   8.530   7.891
  804TIP3   OH2 2288   2.994   2.608   1.861
  804TIP3    H1 2289   2.906   2.578   1.838
  804TIP3    H2 2290   3.028   2.541   1.919
  805TIP3   OH2 2291   3.740   3.283   0.291
  805TIP3    H1 2292   3.707   3.264   0.378
  805TIP3    H2 2293   3.835   3.289   0.302
  806TIP3   OH2 2294   2.643   3.704   1.440
  806TIP3    H1 2295   2.684   3.637   1.494
  806TIP3    H2 2296   2.654   3.785   1.489
  807TIP3   OH2 2297   2.906   3.331   0.074
  807TIP3    H1 2298   2.947   3.244   0.077
  807TIP3    H2 2299   2.893   3.354   0.166
  808TIP3   OH2 2300   2.911   3.391   0.337
  808TIP3    H1 2301   2.948   3.318   0.386
  808TIP3    H2 2302   2.870   3.446   0.404
  809TIP3   OH2 2303   3.731   2.657   1.473
  809TIP3    H1 2304   3.806   2.708   1.501
  809TIP3    H2 2305   3.724   2.586   1.538
  810TIP3   OH2 2306   3.591   2.445   0.559
  810TIP3    H1 2307   3.523   2.483   0.503
  810TIP3    H2 2308   3.655   2.515   0.570
  811TIP3   OH2 2309   3.105   3.664   0.425
  811TIP3    H1 2310   3.010   3.656   0.415
  811TIP3    H2 2311   3.140   3.651   0.336
  812TIP3   OH2 2312   3.364   2.568   0.708
  812TIP3    H1 2313   3.421   2.644   0.719
  812TIP3    H2 2314   3.276   2.601   0.725
  813TIP3   OH2 2315   3.586   2.906   1.549
  813TIP3    H1 2316   3.608   2.957   1.627
  813TIP3    H2 2317   3.637   2.826   1.557
  814TIP3   OH2 2318   3.521   2.404   0.862
  814TIP3    H1 2319   3.476   2.467   0.806
  814TIP3    H2 2320   3.574   2.351   0.802
  815TIP3   OH2 2321   2.826   3.671   0.397
  815TIP3    H1 2322   2.812   3.707   0.310
  815TIP3    H2 2323   2.803   3.743   0.457
  816TIP3   OH2 2324   4.181   2.798   1.507
  816TIP3    H1 2325   4.087   2.810   1.519
  816TIP3    H2 2326   4.189   2.736   1.434
  817TIP3   OH2 2327   3.929   3.065   0.929
  817TIP3    H1 2328   3.853   3.007   0.934
  817TIP3    H2 2329   3.997   3.018   0.978
  818TIP3   OH2 2330   2.641   3.308   0.238
  818TIP3    H1 2331   2.658   3.392   0.195
  818TIP3    H2 2332   2.634   3.330   0.331
  819TIP3   OH2 2333   3.820   3.983   0.832
  819TIP3    H1 2334   3.778   4.035   0.763
  819TIP3    H2 2335   3.914   3.995   0.818
  820TIP3   OH2 2336   2.784   2.173   1.348
  820TIP3    H1 2337   2.818   2.136   1.267
  820TIP3    H2 2338   2.811   2.111   1.416
  821TIP3   OH2 2339   2.481   3.466   0.646
  821TIP3    H1 2340   2.455   3.431   0.732
  821TIP3    H2 2341   2.398   3.488   0.603
  822TIP3   OH2 2342   2.617   4.011   1.836
  822TIP3    H1 2343   2.700   4.017   1.884
  822TIP3    H2 2344   2.597   3.918   1.834
  823TIP3   OH2 2345   3.081   3.929   1.879
  823TIP3    H1 2346   3.174   3.907   1.889
  823TIP3    H2 2347   3.052   3.874   1.806
  824TIP3   OH2 2348   3.082   3.534   0.022
  824TIP3    H1 2349   3.023   3.462   0.046
  824TIP3    H2 2350   3.112   3.512  -0.066
  825TIP3   OH2 2351   3.703   3.866   1.630
  825TIP3    H1 2352   3.717   3.798   1.695
  825TIP3    H2 2353   3.776   3.927   1.644
  826TIP3   OH2 2354   6.828   8.316   7.896
  826TIP3    H1 2355   6.769   8.260   7.947
  826TIP3    H2 2356   6.891   8.255   7.858
  827TIP3   OH2 2357   2.730   3.415   2.039
  827TIP3    H1 2358   2.746   3.321   2.044
  827TIP3    H2 2359   2.646   3.423   1.995
  828TIP3   OH2 2360   3.343   3.506   1.804
  828TIP3    H1 2361   3.299   3.523   1.721
  828TIP3    H2 2362   3.383   3.419   1.792
  829TIP3   OH2 2363   6.433   7.880   7.946
  829TIP3    H1 2364   6.454   7.881   8.039
  829TIP3    H2 2365   6.454   7.791   7.918
  830TIP3   OH2 2366   3.815   3.546   1.417
  830TIP3    H1 2367   3.894   3.577   1.372
  830TIP3    H2 2368   3.749   3.613   1.399
  831TIP3   OH2 2369   2.840   3.153   2.011
  831TIP3    H1 2370   2.915   3.153   1.950
  831TIP3    H2 2371   2.879   3.173   2.096
  832TIP3   OH2 2372   2.972   2.951   0.643
  832TIP3    H1 2373   2.883   2.958   0.678
  832TIP3    H2 2374   2.961   2.907   0.559
  833TIP3   OH2 2375   3.233   3.065   1.705
  833TIP3    H1 2376   3.146   3.103   1.718
  833TIP3    H2 2377   3.255   3.085   1.614
  834TIP3   OH2 2378   3.699   3.421   1.773
  834TIP3    H1 2379   3.765   3.382   1.717
  834TIP3    H2 2380   3.694   3.363   1.849
  835TIP3   OH2 2381   7.089   7.692   7.869
  835TIP3    H1 2382   7.153   7.669   7.802
  835TIP3    H2 2383   7.128   7.766   7.916
  836TIP3   OH2 2384   3.313   2.831   1.817
  836TIP3    H1 2385   3.327   2.764   1.750
  836TIP3    H2 2386   3.284   2.908   1.767
  837TIP3   OH2 2387   3.369   2.646   1.619
  837TIP3    H1 2388   3.383   2.702   1.542
  837TIP3    H2 2389   3.280   2.613   1.610
  838TIP3   OH2 2390   3.340   3.144   1.466
  838TIP3    H1 2391   3.423   3.189   1.446
  838TIP3    H2 2392   3.274   3.199   1.425
  839TIP3   OH2 2393   3.917   3.105   1.846
  839TIP3    H1 2394   3.970   3.025   1.847
  839TIP3    H2 2395   3.981   3.176   1.839
  840TIP3   OH2 2396   3.937   3.372   1.586
  840TIP3    H1 2397   3.882   3.432   1.535
  840TIP3    H2 2398   4.026   3.387   1.553
  841TIP3   OH2 2399   3.191   2.917   2.047
  841TIP3    H1 2400   3.125   2.851   2.068
  841TIP3    H2 2401   3.221   2.894   1.959
  842TIP3   OH2 2402   3.438   2.411   1.736
  842TIP3    H1 2403   3.425   2.499   1.699
  842TIP3    H2 2404   3.351   2.373   1.739
  843TIP3   OH2 2405   3.570   2.862   1.911
  843TIP3    H1 2406   3.565   2.848   2.005
  843TIP3    H2 2407   3.481   2.846   1.880
  844TIP3   OH2 2408   3.801   2.807   1.768
  844TIP3    H1 2409   3.725   2.813   1.826
  844TIP3    H2 2410   3.875   2.788   1.826
  845TIP3   OH2 2411   4.039   2.779   1.916
  845TIP3    H1 2412   4.054   2.684   1.924
  845TIP3    H2 2413   4.034   2.809   2.007
  846TIP3   OH2 2414   3.022   2.733   2.158
  846TIP3    H1 2415   3.012   2.643   2.130
  846TIP3    H2 2416   3.070   2.728   2.240
  847TIP3   OH2 2417   3.499   2.349   1.993
  847TIP3    H1 2418   3.574   2.291   1.981
  847TIP3    H2 2419   3.471   2.371   1.904
  848TIP3   OH2 2420   3.594   2.576   2.115
  848TIP3    H1 2421   3.561   2.501   2.066
  848TIP3    H2 2422   3.521   2.638   2.115
  849TIP3   OH2 2423   2.777   3.798   0.163
  849TIP3    H1 2424   2.844   3.857   0.199
  849TIP3    H2 2425   2.711   3.856   0.126
  850TIP3   OH2 2426   2.236   3.919   0.901
  850TIP3    H1 2427   2.195   3.850   0.848
  850TIP3    H2 2428   2.289   3.871   0.965
  851TIP3   OH2 2429   2.330   3.738   1.097
  851TIP3    H1 2430   2.257   3.677   1.112
  851TIP3    H2 2431   2.391   3.720   1.168
  852TIP3   OH2 2432   4.092   4.030   0.828
  852TIP3    H1 2433   4.109   4.053   0.920
  852TIP3    H2 2434   4.142   4.095   0.778
  853TIP3   OH2 2435   4.115   4.057   1.106
  853TIP3    H1 2436   4.067   3.974   1.105
  853TIP3    H2 2437   4.184   4.044   1.171
  854TIP3   OH2 2438   4.171   3.758   1.675
  854TIP3    H1 2439   4.097   3.767   1.736
  854TIP3    H2 2440   4.216   3.842   1.680
  855TIP3   OH2 2441   4.016   3.306   0.304
  855TIP3    H1 2442   4.075   3.378   0.284
  855TIP3    H2 2443   4.058   3.260   0.377
  856TIP3   OH2 2444   4.142   3.149   0.492
  856TIP3    H1 2445   4.072   3.120   0.551
  856TIP3    H2 2446   4.208   3.185   0.551
  857TIP3   OH2 2447   4.170   3.541   0.921
  857TIP3    H1 2448   4.218   3.471   0.877
  857TIP3    H2 2449   4.171   3.614   0.859
  858TIP3   OH2 2450   3.970   3.822   1.114
  858TIP3    H1 2451   3.903   3.867   1.164
  858TIP3    H2 2452   3.923   3.781   1.041
  859TIP3   OH2 2453   4.120   3.151   0.104
  859TIP3    H1 2454   4.058   3.078   0.106
  859TIP3    H2 2455   4.094   3.207   0.177
  860TIP3   OH2 2456   3.800   2.731   0.041
  860TIP3    H1 2457   3.799   2.761  -0.050
  860TIP3    H2 2458   3.794   2.636   0.036
  861TIP3   OH2 2459   3.949   3.048   0.657
  861TIP3    H1 2460   3.957   2.954   0.640
  861TIP3    H2 2461   3.949   3.055   0.753
  862TIP3   OH2 2462   4.192   3.411   1.486
  862TIP3    H1 2463   4.260   3.346   1.470
  862TIP3    H2 2464   4.200   3.472   1.412
  863TIP3   OH2 2465   4.374   3.204   1.482
  863TIP3    H1 2466   4.300   3.159   1.522
  863TIP3    H2 2467   4.450   3.151   1.505
  864TIP3   OH2 2468   3.834   2.458   0.036
  864TIP3    H1 2469   3.918   2.433   0.076
  864TIP3    H2 2470   3.768   2.426   0.098
  865TIP3   OH2 2471   3.997   2.792   0.565
  865TIP3    H1 2472   4.068   2.738   0.599
  865TIP3    H2 2473   4.026   2.819   0.478
  866TIP3   OH2 2474   4.099   2.892   1.063
  866TIP3    H1 2475   4.181   2.921   1.023
  866TIP3    H2 2476   4.101   2.928   1.151
  867TIP3   OH2 2477   4.146   3.047   1.283
  867TIP3    H1 2478   4.068   3.074   1.333
  867TIP3    H2 2479   4.172   3.127   1.236
  868TIP3   OH2 2480   2.759   2.756   2.076
  868TIP3    H1 2481   2.854   2.763   2.088
  868TIP3    H2 2482   2.735   2.676   2.123
  869TIP3   OH2 2483   4.603   2.632   1.802
  869TIP3    H1 2484   4.664   2.573   1.759
  869TIP3    H2 2485   4.565   2.683   1.730
  870TIP3   OH2 2486   4.107   2.565   0.701
  870TIP3    H1 2487   4.080   2.611   0.781
  870TIP3    H2 2488   4.029   2.518   0.673
  871TIP3   OH2 2489   2.702   2.429   1.261
  871TIP3    H1 2490   2.718   2.346   1.307
  871TIP3    H2 2491   2.647   2.479   1.320
  872TIP3   OH2 2492   2.596   2.711   1.315
  872TIP3    H1 2493   2.601   2.790   1.262
  872TIP3    H2 2494   2.675   2.712   1.368
  873TIP3   OH2 2495   4.451   2.759   1.614
  873TIP3    H1 2496   4.376   2.797   1.659
  873TIP3    H2 2497   4.413   2.694   1.554
  874TIP3   OH2 2498   4.062   2.383   0.150
  874TIP3    H1 2499   4.144   2.339   0.172
  874TIP3    H2 2500   4.090   2.470   0.120
  875TIP3   OH2 2501   3.708   3.927   0.485
  875TIP3    H1 2502   3.745   3.935   0.397
  875TIP3    H2 2503   3.721   4.013   0.524
  876TIP3   OH2 2504   2.661   2.266   1.813
  876TIP3    H1 2505   2.624   2.271   1.901
  876TIP3    H2 2506   2.708   2.348   1.802
  877TIP3   OH2 2507   2.770   3.734   1.851
  877TIP3    H1 2508   2.675   3.720   1.849
  877TIP3    H2 2509   2.792   3.737   1.944
  878TIP3   OH2 2510   2.964   3.783   1.398
  878TIP3    H1 2511   2.913   3.858   1.368
  878TIP3    H2 2512   3.050   3.795   1.357
  879TIP3   OH2 2513   3.361   4.014   1.536
  879TIP3    H1 2514   3.397   4.008   1.624
  879TIP3    H2 2515   3.424   4.068   1.488
  880TIP3   OH2 2516   3.554   4.168   1.413
  880TIP3    H1 2517   3.619   4.115   1.366
  880TIP3    H2 2518   3.606   4.226   1.468
  881TIP3   OH2 2519   4.371   2.504   1.507
  881TIP3    H1 2520   4.281   2.481   1.485
  881TIP3    H2 2521   4.419   2.421   1.503
  882TIP3   OH2 2522   2.635   4.024   1.465
  882TIP3    H1 2523   2.545   4.042   1.439
  882TIP3    H2 2524   2.656   4.094   1.527
  883TIP3   OH2 2525   2.855   4.015   1.295
  883TIP3    H1 2526   2.774   4.020   1.346
  883TIP3    H2 2527   2.827   4.035   1.205
  884TIP3   OH2 2528   3.277   4.039   1.092
  884TIP3    H1 2529   3.202   4.051   1.033
  884TIP3    H2 2530   3.287   4.124   1.135
  885TIP3   OH2 2531   3.536   3.963   1.131
  885TIP3    H1 2532   3.444   3.987   1.116
  885TIP3    H2 2533   3.586   4.032   1.089
  886TIP3   OH2 2534   3.733   4.141   1.040
  886TIP3    H1 2535   3.729   4.228   1.001
  886TIP3    H2 2536   3.762   4.084   0.969
  887TIP3   OH2 2537   2.586   3.873   1.213
  887TIP3    H1 2538   2.598   3.833   1.299
  887TIP3    H2 2539   2.630   3.812   1.153
  888TIP3   OH2 2540   2.753   3.733   1.009
  888TIP3    H1 2541   2.731   3.666   1.073
  888TIP3    H2 2542   2.842   3.760   1.032
  889TIP3   OH2 2543   3.020   3.787   1.054
  889TIP3    H1 2544   3.041   3.693   1.050
  889TIP3    H2 2545   3.070   3.820   1.129
  890TIP3   OH2 2546   3.612   2.445   1.149
  890TIP3    H1 2547   3.544   2.402   1.201
  890TIP3    H2 2548   3.596   2.417   1.059
  891TIP3   OH2 2549   4.134   2.346   1.056
  891TIP3    H1 2550   4.184   2.424   1.031
  891TIP3    H2 2551   4.042   2.373   1.048
  892TIP3   OH2 2552   4.286   2.541   0.932
  892TIP3    H1 2553   4.338   2.481   0.877
  892TIP3    H2 2554   4.272   2.618   0.876
  893TIP3   OH2 2555   3.196   2.064   0.851
  893TIP3    H1 2556   3.282   2.105   0.854
  893TIP3    H2 2557   3.139   2.124   0.900
  894TIP3   OH2 2558   3.876   2.409   0.995
  894TIP3    H1 2559   3.833   2.467   0.933
  894TIP3    H2 2560   3.817   2.335   1.005
  895TIP3   OH2 2561   3.749   2.249   0.455
  895TIP3    H1 2562   3.685   2.308   0.494
  895TIP3    H2 2563   3.776   2.192   0.527
  896TIP3   OH2 2564   2.260   3.579   0.542
  896TIP3    H1 2565   2.188   3.568   0.605
  896TIP3    H2 2566   2.244   3.664   0.501
  897TIP3   OH2 2567   3.149   2.344   0.715
  897TIP3    H1 2568   3.126   2.267   0.662
  897TIP3    H2 2569   3.240   2.363   0.692
  898TIP3   OH2 2570   3.119   3.777   0.140
  898TIP3    H1 2571   3.212   3.789   0.121
  898TIP3    H2 2572   3.094   3.698   0.092
  899TIP3   OH2 2573   3.806   3.914   0.223
  899TIP3    H1 2574   3.785   3.821   0.227
  899TIP3    H2 2575   3.762   3.946   0.144
  900TIP3   OH2 2576   3.019   2.468   2.136
  900TIP3    H1 2577   2.981   2.381   2.127
  900TIP3    H2 2578   3.114   2.453   2.143
  901TIP3   OH2 2579   3.288   2.409   2.171
  901TIP3    H1 2580   3.359   2.391   2.110
  901TIP3    H2 2581   3.282   2.330   2.224
  902TIP3   OH2 2582   2.470   3.703   0.145
  902TIP3    H1 2583   2.383   3.682   0.180
  902TIP3    H2 2584   2.526   3.631   0.174
  903TIP3   OH2 2585   4.109   2.510   1.930
  903TIP3    H1 2586   4.125   2.480   2.019
  903TIP3    H2 2587   4.194   2.506   1.887
  904TIP3   OH2 2588   4.022   4.036   1.425
  904TIP3    H1 2589   3.946   4.006   1.375
  904TIP3    H2 2590   4.008   4.130   1.435
  905TIP3   OH2 2591   5.299   3.406   0.175
  905TIP3    H1 2592   5.269   3.496   0.162
  905TIP3    H2 2593   5.226   3.352   0.143
  906TIP3   OH2 2594   5.303   3.410   0.591
  906TIP3    H1 2595   5.352   3.394   0.672
  906TIP3    H2 2596   5.255   3.328   0.575
  907TIP3   OH2 2597   4.593   3.279   0.939
  907TIP3    H1 2598   4.630   3.225   1.009
  907TIP3    H2 2599   4.669   3.307   0.888
  908TIP3   OH2 2600   5.578   3.719   0.266
  908TIP3    H1 2601   5.552   3.659   0.336
  908TIP3    H2 2602   5.590   3.803   0.311
  909TIP3   OH2 2603   4.583   3.689   0.621
  909TIP3    H1 2604   4.563   3.596   0.631
  909TIP3    H2 2605   4.678   3.693   0.612
  910TIP3   OH2 2606   4.318   2.957   0.398
  910TIP3    H1 2607   4.266   3.031   0.428
  910TIP3    H2 2608   4.298   2.887   0.460
  911TIP3   OH2 2609   4.363   3.225   0.633
  911TIP3    H1 2610   4.416   3.149   0.659
  911TIP3    H2 2611   4.428   3.294   0.616
  912TIP3   OH2 2612   5.213   4.152   0.296
  912TIP3    H1 2613   5.227   4.096   0.220
  912TIP3    H2 2614   5.245   4.101   0.371
  913TIP3   OH2 2615   5.109   3.630   0.595
  913TIP3    H1 2616   5.153   3.550   0.566
  913TIP3    H2 2617   5.179   3.687   0.627
  914TIP3   OH2 2618   5.526   3.128   0.620
  914TIP3    H1 2619   5.548   3.041   0.652
  914TIP3    H2 2620   5.471   3.113   0.544
  915TIP3   OH2 2621   4.889   2.792   0.594
  915TIP3    H1 2622   4.864   2.864   0.537
  915TIP3    H2 2623   4.833   2.719   0.567
  916TIP3   OH2 2624   5.542   2.888   0.237
  916TIP3    H1 2625   5.606   2.877   0.307
  916TIP3    H2 2626   5.593   2.922   0.163
  917TIP3   OH2 2627   4.512   3.014   0.720
  917TIP3    H1 2628   4.587   2.989   0.775
  917TIP3    H2 2629   4.519   2.957   0.643
  918TIP3   OH2 2630   4.919   3.210   0.541
  918TIP3    H1 2631   5.014   3.195   0.549
  918TIP3    H2 2632   4.884   3.128   0.508
  919TIP3   OH2 2633   6.207   3.135   0.782
  919TIP3    H1 2634   6.122   3.176   0.762
  919TIP3    H2 2635   6.237   3.179   0.861
  920TIP3   OH2 2636   4.850   2.787   1.048
  920TIP3    H1 2637   4.803   2.825   0.973
  920TIP3    H2 2638   4.792   2.802   1.122
  921TIP3   OH2 2639   5.164   3.623   0.072
  921TIP3    H1 2640   5.153   3.610  -0.022
  921TIP3    H2 2641   5.117   3.705   0.090
  922TIP3   OH2 2642   4.942   3.563   0.808
  922TIP3    H1 2643   4.886   3.634   0.841
  922TIP3    H2 2644   4.988   3.602   0.734
  923TIP3   OH2 2645   5.716   2.886   0.446
  923TIP3    H1 2646   5.778   2.814   0.458
  923TIP3    H2 2647   5.662   2.885   0.525
  924TIP3   OH2 2648   4.757   2.897   0.813
  924TIP3    H1 2649   4.808   2.975   0.837
  924TIP3    H2 2650   4.805   2.858   0.740
  925TIP3   OH2 2651   4.782   3.761   0.915
  925TIP3    H1 2652   4.767   3.851   0.885
  925TIP3    H2 2653   4.704   3.740   0.966
  926TIP3   OH2 2654   4.190   3.488   0.179
  926TIP3    H1 2655   4.158   3.517   0.093
  926TIP3    H2 2656   4.211   3.568   0.225
  927TIP3   OH2 2657   5.594   3.969   0.404
  927TIP3    H1 2658   5.508   3.959   0.445
  927TIP3    H2 2659   5.591   4.055   0.362
  928TIP3   OH2 2660   5.865   2.808   0.752
  928TIP3    H1 2661   5.780   2.850   0.742
  928TIP3    H2 2662   5.880   2.764   0.668
  929TIP3   OH2 2663   5.197   2.483   0.776
  929TIP3    H1 2664   5.189   2.390   0.799
  929TIP3    H2 2665   5.122   2.525   0.816
  930TIP3   OH2 2666   5.291   3.997   0.073
  930TIP3    H1 2667   5.344   3.918   0.062
  930TIP3    H2 2668   5.346   4.068   0.039
  931TIP3   OH2 2669   5.458   3.788   0.023
  931TIP3    H1 2670   5.462   3.715  -0.039
  931TIP3    H2 2671   5.501   3.755   0.102
  932TIP3   OH2 2672   5.829   3.861   0.745
  932TIP3    H1 2673   5.813   3.785   0.689
  932TIP3    H2 2674   5.813   3.936   0.688
  933TIP3   OH2 2675   8.384   7.881   8.019
  933TIP3    H1 2676   8.305   7.935   8.014
  933TIP3    H2 2677   8.411   7.869   7.928
  934TIP3   OH2 2678   8.373   7.650   7.757
  934TIP3    H1 2679   8.452   7.703   7.768
  934TIP3    H2 2680   8.404   7.567   7.721
  935TIP3   OH2 2681   6.015   3.514   0.615
  935TIP3    H1 2682   5.930   3.559   0.617
  935TIP3    H2 2683   6.048   3.530   0.527
  936TIP3   OH2 2684   5.485   3.318  -0.001
  936TIP3    H1 2685   5.427   3.350   0.069
  936TIP3    H2 2686   5.570   3.308   0.042
  937TIP3   OH2 2687   5.714   3.374   0.932
  937TIP3    H1 2688   5.713   3.459   0.975
  937TIP3    H2 2689   5.634   3.371   0.880
  938TIP3   OH2 2690   4.711   3.330   0.394
  938TIP3    H1 2691   4.677   3.266   0.332
  938TIP3    H2 2692   4.788   3.287   0.432
  939TIP3   OH2 2693   4.849   3.726   0.532
  939TIP3    H1 2694   4.826   3.724   0.439
  939TIP3    H2 2695   4.939   3.693   0.535
  940TIP3   OH2 2696   4.809   3.329   0.764
  940TIP3    H1 2697   4.848   3.294   0.684
  940TIP3    H2 2698   4.855   3.411   0.780
  941TIP3   OH2 2699   5.359   3.966   0.542
  941TIP3    H1 2700   5.355   4.043   0.600
  941TIP3    H2 2701   5.345   3.892   0.600
  942TIP3   OH2 2702   4.981   3.859   1.082
  942TIP3    H1 2703   4.920   3.916   1.130
  942TIP3    H2 2704   4.924   3.808   1.024
  943TIP3   OH2 2705   8.589   7.837   7.804
  943TIP3    H1 2706   8.642   7.880   7.872
  943TIP3    H2 2707   8.581   7.902   7.735
  944TIP3   OH2 2708   4.736   3.405   1.223
  944TIP3    H1 2709   4.741   3.498   1.243
  944TIP3    H2 2710   4.642   3.386   1.219
  945TIP3   OH2 2711   5.043   3.877   0.083
  945TIP3    H1 2712   5.128   3.920   0.089
  945TIP3    H2 2713   4.986   3.943   0.042
  946TIP3   OH2 2714   4.772   4.017   1.172
  946TIP3    H1 2715   4.744   4.027   1.081
  946TIP3    H2 2716   4.691   4.000   1.220
  947TIP3   OH2 2717   9.073   7.079   7.888
  947TIP3    H1 2718   8.996   7.089   7.944
  947TIP3    H2 2719   9.084   7.165   7.847
  948TIP3   OH2 2720   4.583   3.166   0.204
  948TIP3    H1 2721   4.526   3.232   0.164
  948TIP3    H2 2722   4.522   3.099   0.236
  949TIP3   OH2 2723   4.366   3.573   1.120
  949TIP3    H1 2724   4.297   3.558   1.056
  949TIP3    H2 2725   4.399   3.486   1.142
  950TIP3   OH2 2726   4.206   3.778   0.772
  950TIP3    H1 2727   4.295   3.804   0.795
  950TIP3    H2 2728   4.152   3.852   0.799
  951TIP3   OH2 2729   6.062   4.201   0.829
  951TIP3    H1 2730   6.067   4.107   0.846
  951TIP3    H2 2731   5.983   4.230   0.875
  952TIP3   OH2 2732   5.170   4.003   0.945
  952TIP3    H1 2733   5.162   4.094   0.972
  952TIP3    H2 2734   5.102   3.957   0.993
  953TIP3   OH2 2735   8.187   8.729   7.939
  953TIP3    H1 2736   8.100   8.703   7.907
  953TIP3    H2 2737   8.176   8.819   7.968
  954TIP3   OH2 2738   4.389   3.964   0.275
  954TIP3    H1 2739   4.432   3.956   0.360
  954TIP3    H2 2740   4.338   3.883   0.267
  955TIP3   OH2 2741   8.433   8.686   7.817
  955TIP3    H1 2742   8.346   8.702   7.854
  955TIP3    H2 2743   8.481   8.642   7.887
  956TIP3   OH2 2744   5.960   3.330   1.083
  956TIP3    H1 2745   5.876   3.344   1.040
  956TIP3    H2 2746   5.976   3.236   1.076
  957TIP3   OH2 2747   4.565   3.761   1.085
  957TIP3    H1 2748   4.615   3.751   1.166
  957TIP3    H2 2749   4.493   3.698   1.093
  958TIP3   OH2 2750   4.964   2.576   0.904
  958TIP3    H1 2751   4.882   2.541   0.868
  958TIP3    H2 2752   4.938   2.655   0.952
  959TIP3   OH2 2753   5.492   2.687   1.104
  959TIP3    H1 2754   5.560   2.664   1.167
  959TIP3    H2 2755   5.410   2.673   1.151
  960TIP3   OH2 2756   5.711   3.108   1.015
  960TIP3    H1 2757   5.670   3.103   1.101
  960TIP3    H2 2758   5.699   3.199   0.988
  961TIP3   OH2 2759   8.409   7.267   7.862
  961TIP3    H1 2760   8.373   7.245   7.948
  961TIP3    H2 2761   8.332   7.279   7.806
  962TIP3   OH2 2762   4.896   3.112   0.913
  962TIP3    H1 2763   4.847   3.116   0.995
  962TIP3    H2 2764   4.871   3.192   0.866
  963TIP3   OH2 2765   4.788   2.994   0.439
  963TIP3    H1 2766   4.701   2.968   0.469
  963TIP3    H2 2767   4.791   2.967   0.347
  964TIP3   OH2 2768   5.240   3.057   0.152
  964TIP3    H1 2769   5.191   3.128   0.111
  964TIP3    H2 2770   5.298   3.025   0.083
  965TIP3   OH2 2771   5.432   3.323   1.232
  965TIP3    H1 2772   5.405   3.256   1.295
  965TIP3    H2 2773   5.524   3.339   1.253
  966TIP3   OH2 2774   5.396   3.075   0.381
  966TIP3    H1 2775   5.327   3.095   0.318
  966TIP3    H2 2776   5.443   3.001   0.343
  967TIP3   OH2 2777   4.727   3.118   1.128
  967TIP3    H1 2778   4.729   3.183   1.199
  967TIP3    H2 2779   4.705   3.036   1.172
  968TIP3   OH2 2780   8.120   7.270   7.841
  968TIP3    H1 2781   8.120   7.204   7.772
  968TIP3    H2 2782   8.039   7.320   7.825
  969TIP3   OH2 2783   4.313   2.776   0.779
  969TIP3    H1 2784   4.403   2.754   0.804
  969TIP3    H2 2785   4.310   2.763   0.685
  970TIP3   OH2 2786   4.282   2.624   0.241
  970TIP3    H1 2787   4.348   2.688   0.216
  970TIP3    H2 2788   4.212   2.634   0.176
  971TIP3   OH2 2789   5.466   3.321   0.805
  971TIP3    H1 2790   5.491   3.254   0.741
  971TIP3    H2 2791   5.422   3.272   0.874
  972TIP3   OH2 2792   5.148   2.785   0.484
  972TIP3    H1 2793   5.068   2.783   0.538
  972TIP3    H2 2794   5.219   2.767   0.545
  973TIP3   OH2 2795   4.561   2.859   0.502
  973TIP3    H1 2796   4.492   2.865   0.436
  973TIP3    H2 2797   4.595   2.770   0.494
  974TIP3   OH2 2798   4.788   2.872   0.192
  974TIP3    H1 2799   4.883   2.878   0.185
  974TIP3    H2 2800   4.756   2.891   0.104
  975TIP3   OH2 2801   5.569   2.861   0.680
  975TIP3    H1 2802   5.551   2.875   0.773
  975TIP3    H2 2803   5.504   2.796   0.653
  976TIP3   OH2 2804   7.935   7.521   7.955
  976TIP3    H1 2805   7.849   7.501   7.917
  976TIP3    H2 2806   7.987   7.555   7.883
  977TIP3   OH2 2807   5.766   4.568   0.909
  977TIP3    H1 2808   5.762   4.557   0.814
  977TIP3    H2 2809   5.781   4.662   0.922
  978TIP3   OH2 2810   4.723   3.670   1.318
  978TIP3    H1 2811   4.802   3.692   1.366
  978TIP3    H2 2812   4.652   3.680   1.383
  979TIP3   OH2 2813   5.187   3.145   0.591
  979TIP3    H1 2814   5.241   3.086   0.538
  979TIP3    H2 2815   5.183   3.103   0.677
  980TIP3   OH2 2816   4.701   2.623   0.485
  980TIP3    H1 2817   4.661   2.543   0.519
  980TIP3    H2 2818   4.733   2.598   0.398
  981TIP3   OH2 2819   5.159   3.051   0.855
  981TIP3    H1 2820   5.072   3.083   0.877
  981TIP3    H2 2821   5.219   3.103   0.908
  982TIP3   OH2 2822   8.154   8.031   7.973
  982TIP3    H1 2823   8.087   7.966   7.954
  982TIP3    H2 2824   8.128   8.069   8.057
  983TIP3   OH2 2825   5.777   3.652   0.571
  983TIP3    H1 2826   5.812   3.702   0.498
  983TIP3    H2 2827   5.695   3.615   0.538
  984TIP3   OH2 2828   8.669   7.350   7.853
  984TIP3    H1 2829   8.582   7.315   7.840
  984TIP3    H2 2830   8.655   7.443   7.874
  985TIP3   OH2 2831   5.296   3.736   0.983
  985TIP3    H1 2832   5.342   3.726   1.066
  985TIP3    H2 2833   5.252   3.821   0.991
  986TIP3   OH2 2834   8.681   7.611   7.943
  986TIP3    H1 2835   8.774   7.620   7.963
  986TIP3    H2 2836   8.661   7.687   7.889
  987TIP3   OH2 2837   4.576   3.405   0.620
  987TIP3    H1 2838   4.615   3.390   0.534
  987TIP3    H2 2839   4.643   3.378   0.683
  988TIP3   OH2 2840   8.325   8.176   7.815
  988TIP3    H1 2841   8.281   8.261   7.804
  988TIP3    H2 2842   8.265   8.125   7.870
  989TIP3   OH2 2843   4.465   3.337   1.249
  989TIP3    H1 2844   4.464   3.312   1.341
  989TIP3    H2 2845   4.388   3.294   1.212
  990TIP3   OH2 2846   5.200   3.480   1.271
  990TIP3    H1 2847   5.130   3.421   1.244
  990TIP3    H2 2848   5.281   3.437   1.242
  991TIP3   OH2 2849   5.443   4.025   0.866
  991TIP3    H1 2850   5.348   4.010   0.873
  991TIP3    H2 2851   5.467   4.062   0.951
  992TIP3   OH2 2852   9.092   7.694   7.801
  992TIP3    H1 2853   9.086   7.644   7.720
  992TIP3    H2 2854   9.068   7.784   7.775
  993TIP3   OH2 2855   6.074   3.919   0.846
  993TIP3    H1 2856   5.980   3.911   0.833
  993TIP3    H2 2857   6.112   3.898   0.761
  994TIP3   OH2 2858   5.541   3.526   0.472
  994TIP3    H1 2859   5.452   3.505   0.502
  994TIP3    H2 2860   5.570   3.446   0.428
  995TIP3   OH2 2861   4.702   3.756   0.290
  995TIP3    H1 2862   4.700   3.830   0.229
  995TIP3    H2 2863   4.616   3.759   0.333
  996TIP3   OH2 2864   7.609   7.696   7.968
  996TIP3    H1 2865   7.671   7.769   7.970
  996TIP3    H2 2866   7.540   7.722   8.029
  997TIP3   OH2 2867   4.790   3.512   0.200
  997TIP3    H1 2868   4.767   3.601   0.227
  997TIP3    H2 2869   4.761   3.457   0.273
  998TIP3   OH2 2870   4.984   4.075   0.739
  998TIP3    H1 2871   5.020   4.144   0.683
  998TIP3    H2 2872   5.059   4.043   0.790
  999TIP3   OH2 2873   4.619   3.979   0.128
  999TIP3    H1 2874   4.533   3.978   0.168
  999TIP3    H2 2875   4.650   4.069   0.138
 1000TIP3   OH2 2876   5.340   3.739   0.710
 1000TIP3    H1 2877   5.323   3.736   0.805
 1000TIP3    H2 2878   5.422   3.691   0.699
 1001TIP3   OH2 2879   5.601   4.254   0.741
 1001TIP3    H1 2880   5.528   4.194   0.758
 1001TIP3    H2 2881   5.568   4.313   0.674
 1002TIP3   OH2 2882   4.672   2.865   1.248
 1002TIP3    H1 2883   4.578   2.881   1.251
 1002TIP3    H2 2884   4.691   2.818   1.329
 1003TIP3   OH2 2885   8.767   8.181   7.863
 1003TIP3    H1 2886   8.749   8.101   7.912
 1003TIP3    H2 2887   8.851   8.163   7.819
 1004TIP3   OH2 2888   4.413   3.962   0.897
 1004TIP3    H1 2889   4.467   3.903   0.950
 1004TIP3    H2 2890   4.422   4.047   0.941
 1005TIP3   OH2 2891   7.956   8.114   7.613
 1005TIP3    H1 2892   8.046   8.127   7.582
 1005TIP3    H2 2893   7.949   8.171   7.690
 1006TIP3   OH2 2894   7.914   8.228   7.867
 1006TIP3    H1 2895   7.985   8.195   7.922
 1006TIP3    H2 2896   7.923   8.323   7.873
 1007TIP3   OH2 2897   4.401   3.331   0.081
 1007TIP3    H1 2898   4.330   3.371   0.131
 1007TIP3    H2 2899   4.411   3.387   0.004
 1008TIP3   OH2 2900   5.532   2.907   0.943
 1008TIP3    H1 2901   5.602   2.960   0.981
 1008TIP3    H2 2902   5.520   2.835   1.005
 1009TIP3   OH2 2903   5.402   2.673   0.130
 1009TIP3    H1 2904   5.395   2.690   0.036
 1009TIP3    H2 2905   5.443   2.752   0.165
 1010TIP3   OH2 2906   8.175   8.397   7.768
 1010TIP3    H1 2907   8.100   8.435   7.814
 1010TIP3    H2 2908   8.198   8.461   7.702
 1011TIP3   OH2 2909   5.062   2.861   0.228
 1011TIP3    H1 2910   5.122   2.930   0.198
 1011TIP3    H2 2911   5.088   2.844   0.318
 1012TIP3   OH2 2912   5.366   3.164   1.008
 1012TIP3    H1 2913   5.382   3.216   1.087
 1012TIP3    H2 2914   5.410   3.081   1.024
 1013TIP3   OH2 2915   5.229   2.576   0.319
 1013TIP3    H1 2916   5.208   2.653   0.371
 1013TIP3    H2 2917   5.296   2.606   0.258
 1014TIP3   OH2 2918   7.949   8.503   7.882
 1014TIP3    H1 2919   7.907   8.564   7.823
 1014TIP3    H2 2920   7.924   8.532   7.970
 1015TIP3   OH2 2921   4.779   2.597   0.226
 1015TIP3    H1 2922   4.776   2.692   0.209
 1015TIP3    H2 2923   4.855   2.566   0.177
 1016TIP3   OH2 2924   5.976   3.057   0.990
 1016TIP3    H1 2925   5.881   3.059   1.004
 1016TIP3    H2 2926   5.985   3.030   0.898
 1017TIP3   OH2 2927   5.613   3.262   0.384
 1017TIP3    H1 2928   5.528   3.221   0.366
 1017TIP3    H2 2929   5.635   3.234   0.472
 1018TIP3   OH2 2930   7.667   8.101   7.850
 1018TIP3    H1 2931   7.741   8.161   7.858
 1018TIP3    H2 2932   7.698   8.032   7.791
 1019TIP3   OH2 2933   7.658   7.429   7.989
 1019TIP3    H1 2934   7.649   7.524   7.981
 1019TIP3    H2 2935   7.585   7.393   7.938
 1020TIP3   OH2 2936   5.609   4.244   0.344
 1020TIP3    H1 2937   5.570   4.291   0.270
 1020TIP3    H2 2938   5.703   4.251   0.329
 1021TIP3   OH2 2939   4.711   2.480   0.854
 1021TIP3    H1 2940   4.690   2.433   0.773
 1021TIP3    H2 2941   4.710   2.412   0.922
 1022TIP3   OH2 2942   4.219   3.745   0.274
 1022TIP3    H1 2943   4.179   3.784   0.352
 1022TIP3    H2 2944   4.172   3.786   0.201
 1023TIP3   OH2 2945   4.412   4.266   1.313
 1023TIP3    H1 2946   4.493   4.268   1.362
 1023TIP3    H2 2947   4.388   4.173   1.309
 1024TIP3   OH2 2948   4.878   4.183   1.365
 1024TIP3    H1 2949   4.969   4.156   1.373
 1024TIP3    H2 2950   4.843   4.129   1.295
 1025TIP3   OH2 2951   5.502   4.122   1.116
 1025TIP3    H1 2952   5.515   4.053   1.180
 1025TIP3    H2 2953   5.575   4.183   1.132
 1026TIP3   OH2 2954   4.518   3.672   1.508
 1026TIP3    H1 2955   4.533   3.578   1.519
 1026TIP3    H2 2956   4.431   3.677   1.467
 1027TIP3   OH2 2957   7.816   7.908   7.720
 1027TIP3    H1 2958   7.872   7.880   7.792
 1027TIP3    H2 2959   7.867   7.973   7.672
 1028TIP3   OH2 2960   5.137   3.757   1.285
 1028TIP3    H1 2961   5.089   3.777   1.205
 1028TIP3    H2 2962   5.169   3.668   1.273
 1029TIP3   OH2 2963   8.227   8.127   7.558
 1029TIP3    H1 2964   8.270   8.153   7.639
 1029TIP3    H2 2965   8.273   8.048   7.530
 1030TIP3   OH2 2966   5.609   3.797   0.899
 1030TIP3    H1 2967   5.686   3.827   0.851
 1030TIP3    H2 2968   5.544   3.866   0.886
 1031TIP3   OH2 2969   4.632   3.416   1.520
 1031TIP3    H1 2970   4.709   3.398   1.466
 1031TIP3    H2 2971   4.668   3.438   1.606
 1032TIP3   OH2 2972   7.975   7.827   7.934
 1032TIP3    H1 2973   7.947   7.786   8.016
 1032TIP3    H2 2974   8.016   7.756   7.885
 1033TIP3   OH2 2975   4.997   3.306   1.174
 1033TIP3    H1 2976   4.909   3.343   1.183
 1033TIP3    H2 2977   5.026   3.334   1.087
 1034TIP3   OH2 2978   8.097   7.634   7.769
 1034TIP3    H1 2979   8.076   7.596   7.684
 1034TIP3    H2 2980   8.192   7.645   7.767
 1035TIP3   OH2 2981   5.489   3.678   1.256
 1035TIP3    H1 2982   5.556   3.637   1.202
 1035TIP3    H2 2983   5.484   3.622   1.334
 1036TIP3   OH2 2984   5.097   3.073   1.280
 1036TIP3    H1 2985   5.099   3.002   1.215
 1036TIP3    H2 2986   5.062   3.148   1.233
 1037TIP3   OH2 2987   5.109   2.872   1.079
 1037TIP3    H1 2988   5.133   2.911   0.994
 1037TIP3    H2 2989   5.017   2.846   1.068
 1038TIP3   OH2 2990   5.113   3.400   0.945
 1038TIP3    H1 2991   5.199   3.440   0.938
 1038TIP3    H2 2992   5.055   3.458   0.897
 1039TIP3   OH2 2993   5.700   3.359   1.330
 1039TIP3    H1 2994   5.749   3.277   1.339
 1039TIP3    H2 2995   5.768   3.426   1.322
 1040TIP3   OH2 2996   5.736   3.622   1.064
 1040TIP3    H1 2997   5.681   3.682   1.014
 1040TIP3    H2 2998   5.825   3.638   1.032
 1041TIP3   OH2 2999   4.982   3.151   1.525
 1041TIP3    H1 3000   4.911   3.090   1.545
 1041TIP3    H2 3001   5.009   3.128   1.436
 1042TIP3   OH2 3002   5.225   2.638   1.181
 1042TIP3    H1 3003   5.186   2.718   1.148
 1042TIP3    H2 3004   5.158   2.571   1.169
 1043TIP3   OH2 3005   5.351   3.110   1.385
 1043TIP3    H1 3006   5.340   3.096   1.479
 1043TIP3    H2 3007   5.265   3.090   1.347
 1044TIP3   OH2 3008   5.592   3.059   1.251
 1044TIP3    H1 3009   5.514   3.063   1.307
 1044TIP3    H2 3010   5.663   3.040   1.312
 1045TIP3   OH2 3011   5.833   3.034   1.399
 1045TIP3    H1 3012   5.846   2.939   1.407
 1045TIP3    H2 3013   5.827   3.065   1.490
 1046TIP3   OH2 3014   4.815   2.931   1.587
 1046TIP3    H1 3015   4.818   2.841   1.553
 1046TIP3    H2 3016   4.853   2.924   1.675
 1047TIP3   OH2 3017   5.292   2.614   1.447
 1047TIP3    H1 3018   5.361   2.548   1.439
 1047TIP3    H2 3019   5.261   2.627   1.357
 1048TIP3   OH2 3020   5.389   2.830   1.590
 1048TIP3    H1 3021   5.357   2.758   1.536
 1048TIP3    H2 3022   5.317   2.893   1.592
 1049TIP3   OH2 3023   7.847   8.687   7.709
 1049TIP3    H1 3024   7.867   8.772   7.670
 1049TIP3    H2 3025   7.757   8.668   7.681
 1050TIP3   OH2 3026   7.402   8.157   7.899
 1050TIP3    H1 3027   7.493   8.143   7.875
 1050TIP3    H2 3028   7.362   8.070   7.896
 1051TIP3   OH2 3029   4.012   4.056   0.337
 1051TIP3    H1 3030   3.948   4.005   0.287
 1051TIP3    H2 3031   4.051   3.993   0.397
 1052TIP3   OH2 3032   4.151   3.885   0.508
 1052TIP3    H1 3033   4.140   3.818   0.575
 1052TIP3    H2 3034   4.205   3.953   0.550
 1053TIP3   OH2 3035   5.883   4.277   0.329
 1053TIP3    H1 3036   5.917   4.306   0.414
 1053TIP3    H2 3037   5.937   4.321   0.264
 1054TIP3   OH2 3038   5.926   4.305   0.606
 1054TIP3    H1 3039   5.876   4.225   0.592
 1054TIP3    H2 3040   5.990   4.282   0.673
 1055TIP3   OH2 3041   5.967   4.019   1.161
 1055TIP3    H1 3042   5.894   4.026   1.222
 1055TIP3    H2 3043   6.013   4.102   1.168
 1056TIP3   OH2 3044   9.025   8.114   7.779
 1056TIP3    H1 3045   9.067   8.197   7.756
 1056TIP3    H2 3046   9.082   8.075   7.845
 1057TIP3   OH2 3047   5.915   3.379  -0.024
 1057TIP3    H1 3048   5.849   3.348   0.038
 1057TIP3    H2 3049   5.977   3.429   0.030
 1058TIP3   OH2 3050   5.958   3.794   0.413
 1058TIP3    H1 3051   6.010   3.727   0.369
 1058TIP3    H2 3052   5.960   3.869   0.355
 1059TIP3   OH2 3053   5.765   4.081   0.594
 1059TIP3    H1 3054   5.699   4.130   0.642
 1059TIP3    H2 3055   5.717   4.040   0.522
 1060TIP3   OH2 3056   5.725   3.245   0.131
 1060TIP3    H1 3057   5.716   3.151   0.115
 1060TIP3    H2 3058   5.696   3.257   0.222
 1061TIP3   OH2 3059   4.329   3.311   0.889
 1061TIP3    H1 3060   4.322   3.281   0.798
 1061TIP3    H2 3061   4.423   3.311   0.907
 1062TIP3   OH2 3062   5.996   3.668   0.975
 1062TIP3    H1 3063   6.062   3.600   0.958
 1062TIP3    H2 3064   6.023   3.741   0.919
 1063TIP3   OH2 3065   6.173   3.455   0.964
 1063TIP3    H1 3066   6.098   3.413   1.006
 1063TIP3    H2 3067   6.246   3.395   0.980
 1064TIP3   OH2 3068   8.886   7.296   7.688
 1064TIP3    H1 3069   8.848   7.220   7.644
 1064TIP3    H2 3070   8.817   7.328   7.746
 1065TIP3   OH2 3071   5.698   2.974   0.023
 1065TIP3    H1 3072   5.736   2.887   0.036
 1065TIP3    H2 3073   5.744   3.008  -0.054
 1066TIP3   OH2 3074   5.967   3.275   0.746
 1066TIP3    H1 3075   5.886   3.291   0.794
 1066TIP3    H2 3076   5.986   3.358   0.703
 1067TIP3   OH2 3077   4.554   3.001   1.533
 1067TIP3    H1 3078   4.648   2.995   1.550
 1067TIP3    H2 3079   4.517   2.921   1.569
 1068TIP3   OH2 3080   6.394   2.887   1.290
 1068TIP3    H1 3081   6.456   2.828   1.247
 1068TIP3    H2 3082   6.354   2.937   1.218
 1069TIP3   OH2 3083   5.800   2.722   0.087
 1069TIP3    H1 3084   5.853   2.706   0.165
 1069TIP3    H2 3085   5.738   2.650   0.084
 1070TIP3   OH2 3086   4.559   2.710   0.866
 1070TIP3    H1 3087   4.607   2.628   0.871
 1070TIP3    H2 3088   4.626   2.777   0.851
 1071TIP3   OH2 3089   4.326   2.994   0.958
 1071TIP3    H1 3090   4.337   2.940   0.880
 1071TIP3    H2 3091   4.373   3.075   0.938
 1072TIP3   OH2 3092   6.239   3.008   1.102
 1072TIP3    H1 3093   6.171   3.050   1.154
 1072TIP3    H2 3094   6.192   2.951   1.042
 1073TIP3   OH2 3095   9.157   7.305   7.706
 1073TIP3    H1 3096   9.182   7.247   7.634
 1073TIP3    H2 3097   9.062   7.316   7.695
 1074TIP3   OH2 3098   4.274   2.704   0.512
 1074TIP3    H1 3099   4.253   2.625   0.562
 1074TIP3    H2 3100   4.280   2.674   0.422
 1075TIP3   OH2 3101   8.700   8.824   7.972
 1075TIP3    H1 3102   8.750   8.812   7.892
 1075TIP3    H2 3103   8.753   8.884   8.025
 1076TIP3   OH2 3104   4.513   2.520   1.259
 1076TIP3    H1 3105   4.472   2.521   1.346
 1076TIP3    H2 3106   4.459   2.579   1.206
 1077TIP3   OH2 3107   4.552   3.984   1.341
 1077TIP3    H1 3108   4.458   3.970   1.328
 1077TIP3    H2 3109   4.565   3.976   1.435
 1078TIP3   OH2 3110   4.755   4.036   0.890
 1078TIP3    H1 3111   4.699   4.104   0.852
 1078TIP3    H2 3112   4.839   4.048   0.845
 1079TIP3   OH2 3113   5.155   4.271   1.018
 1079TIP3    H1 3114   5.196   4.264   1.104
 1079TIP3    H2 3115   5.213   4.330   0.969
 1080TIP3   OH2 3116   5.338   4.434   0.892
 1080TIP3    H1 3117   5.398   4.383   0.838
 1080TIP3    H2 3118   5.395   4.487   0.948
 1081TIP3   OH2 3119   6.148   2.749   0.985
 1081TIP3    H1 3120   6.058   2.729   0.958
 1081TIP3    H2 3121   6.194   2.665   0.979
 1082TIP3   OH2 3122   4.409   4.282   0.929
 1082TIP3    H1 3123   4.316   4.298   0.910
 1082TIP3    H2 3124   4.432   4.348   0.994
 1083TIP3   OH2 3125   4.634   4.255   0.776
 1083TIP3    H1 3126   4.551   4.263   0.822
 1083TIP3    H2 3127   4.615   4.283   0.687
 1084TIP3   OH2 3128   5.080   4.268   0.562
 1084TIP3    H1 3129   5.076   4.250   0.468
 1084TIP3    H2 3130   5.049   4.358   0.571
 1085TIP3   OH2 3131   5.341   4.233   0.633
 1085TIP3    H1 3132   5.246   4.240   0.620
 1085TIP3    H2 3133   5.378   4.298   0.574
 1086TIP3   OH2 3134   5.524   4.437   0.529
 1086TIP3    H1 3135   5.461   4.499   0.493
 1086TIP3    H2 3136   5.548   4.381   0.454
 1087TIP3   OH2 3137   4.330   4.059   0.646
 1087TIP3    H1 3138   4.351   4.035   0.737
 1087TIP3    H2 3139   4.401   4.021   0.594
 1088TIP3   OH2 3140   4.525   3.929   0.509
 1088TIP3    H1 3141   4.532   3.845   0.554
 1088TIP3    H2 3142   4.612   3.969   0.520
 1089TIP3   OH2 3143   4.785   3.995   0.558
 1089TIP3    H1 3144   4.813   3.904   0.549
 1089TIP3    H2 3145   4.848   4.034   0.619
 1090TIP3   OH2 3146   5.378   2.666   0.606
 1090TIP3    H1 3147   5.339   2.596   0.658
 1090TIP3    H2 3148   5.443   2.623   0.551
 1091TIP3   OH2 3149   5.866   2.665   0.510
 1091TIP3    H1 3150   5.917   2.652   0.430
 1091TIP3    H2 3151   5.789   2.609   0.499
 1092TIP3   OH2 3152   6.015   2.694   0.262
 1092TIP3    H1 3153   6.054   2.608   0.249
 1092TIP3    H2 3154   6.064   2.752   0.204
 1093TIP3   OH2 3155   4.584   2.401   0.588
 1093TIP3    H1 3156   4.516   2.386   0.653
 1093TIP3    H2 3157   4.646   2.329   0.602
 1094TIP3   OH2 3158   4.291   2.278   0.247
 1094TIP3    H1 3159   4.345   2.309   0.175
 1094TIP3    H2 3160   4.317   2.331   0.322
 1095TIP3   OH2 3161   5.082   2.440   0.519
 1095TIP3    H1 3162   5.131   2.484   0.449
 1095TIP3    H2 3163   5.127   2.467   0.599
 1096TIP3   OH2 3164   5.604   2.547   0.473
 1096TIP3    H1 3165   5.648   2.507   0.399
 1096TIP3    H2 3166   5.586   2.475   0.533
 1097TIP3   OH2 3167   5.624   2.510   0.089
 1097TIP3    H1 3168   5.539   2.552   0.104
 1097TIP3    H2 3169   5.616   2.425   0.132
 1098TIP3   OH2 3170   4.094   3.860   0.063
 1098TIP3    H1 3171   4.017   3.807   0.043
 1098TIP3    H2 3172   4.076   3.946   0.025
 1099TIP3   OH2 3173   7.807   7.096   7.966
 1099TIP3    H1 3174   7.726   7.046   7.954
 1099TIP3    H2 3175   7.809   7.117   8.059
 1100TIP3   OH2 3176   5.040   2.607   0.117
 1100TIP3    H1 3177   5.097   2.568   0.184
 1100TIP3    H2 3178   5.040   2.701   0.137
 1101TIP3   OH2 3179   4.826   2.657   1.506
 1101TIP3    H1 3180   4.792   2.589   1.563
 1101TIP3    H2 3181   4.918   2.666   1.531
 1102TIP3   OH2 3182   5.075   2.666   1.625
 1102TIP3    H1 3183   5.153   2.643   1.573
 1102TIP3    H2 3184   5.068   2.596   1.689
 1103TIP3   OH2 3185   7.522   8.578   7.717
 1103TIP3    H1 3186   7.515   8.546   7.807
 1103TIP3    H2 3187   7.469   8.517   7.666
 1104TIP3   OH2 3188   5.899   2.762   1.410
 1104TIP3    H1 3189   5.914   2.734   1.500
 1104TIP3    H2 3190   5.985   2.756   1.368
 1105TIP3   OH2 3191   5.817   4.294   0.918
 1105TIP3    H1 3192   5.744   4.266   0.862
 1105TIP3    H2 3193   5.803   4.388   0.930
 1106TIP3   OH2 3194   7.014   3.648   0.120
 1106TIP3    H1 3195   7.098   3.650   0.167
 1106TIP3    H2 3196   7.000   3.555   0.099
 1107TIP3   OH2 3197   6.383   3.511   0.421
 1107TIP3    H1 3198   6.415   3.466   0.499
 1107TIP3    H2 3199   6.461   3.554   0.385
 1108TIP3   OH2 3200   6.370   3.942   0.135
 1108TIP3    H1 3201   6.349   3.848   0.137
 1108TIP3    H2 3202   6.464   3.945   0.123
 1109TIP3   OH2 3203   9.325   7.760   7.948
 1109TIP3    H1 3204   9.289   7.849   7.954
 1109TIP3    H2 3205   9.258   7.710   7.902
 1110TIP3   OH2 3206   6.142   3.473   0.114
 1110TIP3    H1 3207   6.194   3.395   0.134
 1110TIP3    H2 3208   6.207   3.542   0.099
 1111TIP3   OH2 3209   6.898   3.893   0.103
 1111TIP3    H1 3210   6.930   3.804   0.093
 1111TIP3    H2 3211   6.974   3.943   0.131
 1112TIP3   OH2 3212   7.268   3.391   0.076
 1112TIP3    H1 3213   7.288   3.301   0.102
 1112TIP3    H2 3214   7.335   3.413   0.011
 1113TIP3   OH2 3215   6.634   3.057   0.109
 1113TIP3    H1 3216   6.629   3.122   0.040
 1113TIP3    H2 3217   6.590   2.980   0.073
 1114TIP3   OH2 3218   6.265   3.225   0.210
 1114TIP3    H1 3219   6.353   3.246   0.243
 1114TIP3    H2 3220   6.280   3.192   0.122
 1115TIP3   OH2 3221   6.717   3.448   0.033
 1115TIP3    H1 3222   6.809   3.426   0.044
 1115TIP3    H2 3223   6.677   3.368  -0.001
 1116TIP3   OH2 3224   7.954   3.590   0.248
 1116TIP3    H1 3225   7.879   3.531   0.243
 1116TIP3    H2 3226   7.964   3.609   0.341
 1117TIP3   OH2 3227   6.640   3.041   0.532
 1117TIP3    H1 3228   6.593   3.094   0.468
 1117TIP3    H2 3229   6.592   3.055   0.614
 1118TIP3   OH2 3230   6.741   3.816   0.317
 1118TIP3    H1 3231   6.684   3.887   0.346
 1118TIP3    H2 3232   6.794   3.855   0.248
 1119TIP3   OH2 3233   6.515   3.170   0.322
 1119TIP3    H1 3234   6.570   3.245   0.347
 1119TIP3    H2 3235   6.563   3.128   0.251
 1120TIP3   OH2 3236   6.574   4.017   0.406
 1120TIP3    H1 3237   6.552   4.102   0.368
 1120TIP3    H2 3238   6.498   3.995   0.460
 1121TIP3   OH2 3239   7.622   3.183   0.124
 1121TIP3    H1 3240   7.557   3.136   0.072
 1121TIP3    H2 3241   7.690   3.209   0.062
 1122TIP3   OH2 3242   6.956   2.745   0.260
 1122TIP3    H1 3243   6.957   2.652   0.284
 1122TIP3    H2 3244   6.876   2.779   0.301
 1123TIP3   OH2 3245   7.640   4.155   0.211
 1123TIP3    H1 3246   7.624   4.125   0.122
 1123TIP3    H2 3247   7.632   4.250   0.207
 1124TIP3   OH2 3248   7.494   3.650   0.375
 1124TIP3    H1 3249   7.485   3.733   0.424
 1124TIP3    H2 3250   7.406   3.633   0.342
 1125TIP3   OH2 3251  -0.010   8.223   7.908
 1125TIP3    H1 3252  -0.002   8.208   7.814
 1125TIP3    H2 3253   0.065   8.176   7.946
 1126TIP3   OH2 3254   6.638   3.962   0.041
 1126TIP3    H1 3255   6.626   3.918  -0.044
 1126TIP3    H2 3256   6.730   3.945   0.062
 1127TIP3   OH2 3257   6.605   3.588   0.252
 1127TIP3    H1 3258   6.649   3.553   0.175
 1127TIP3    H2 3259   6.654   3.668   0.273
 1128TIP3   OH2 3260   6.768   4.119   0.576
 1128TIP3    H1 3261   6.710   4.178   0.624
 1128TIP3    H2 3262   6.710   4.069   0.519
 1129TIP3   OH2 3263   6.525   3.672   0.704
 1129TIP3    H1 3264   6.527   3.765   0.729
 1129TIP3    H2 3265   6.432   3.649   0.705
 1130TIP3   OH2 3266   6.557   4.284   0.661
 1130TIP3    H1 3267   6.533   4.289   0.568
 1130TIP3    H2 3268   6.474   4.270   0.706
 1131TIP3   OH2 3269   6.161   3.830   0.605
 1131TIP3    H1 3270   6.089   3.814   0.543
 1131TIP3    H2 3271   6.191   3.743   0.629
 1132TIP3   OH2 3272   6.000   4.026   0.265
 1132TIP3    H1 3273   6.090   4.057   0.275
 1132TIP3    H2 3274   5.946   4.101   0.293
 1133TIP3   OH2 3275   7.805   4.421   0.307
 1133TIP3    H1 3276   7.863   4.345   0.303
 1133TIP3    H2 3277   7.826   4.462   0.391
 1134TIP3   OH2 3278   6.972   4.239   0.436
 1134TIP3    H1 3279   6.976   4.328   0.470
 1134TIP3    H2 3280   6.901   4.198   0.486
 1135TIP3   OH2 3281   7.696   3.664   0.640
 1135TIP3    H1 3282   7.637   3.717   0.587
 1135TIP3    H2 3283   7.698   3.579   0.595
 1136TIP3   OH2 3284   6.361   4.013   0.580
 1136TIP3    H1 3285   6.414   3.998   0.658
 1136TIP3    H2 3286   6.289   3.950   0.587
 1137TIP3   OH2 3287   6.717   2.819   0.386
 1137TIP3    H1 3288   6.630   2.794   0.356
 1137TIP3    H2 3289   6.703   2.901   0.434
 1138TIP3   OH2 3290   7.245   2.965   0.605
 1138TIP3    H1 3291   7.311   2.961   0.674
 1138TIP3    H2 3292   7.163   2.939   0.648
 1139TIP3   OH2 3293   7.425   3.380   0.465
 1139TIP3    H1 3294   7.426   3.367   0.560
 1139TIP3    H2 3295   7.491   3.447   0.449
 1140TIP3   OH2 3296   6.681   3.370   0.400
 1140TIP3    H1 3297   6.657   3.388   0.491
 1140TIP3    H2 3298   6.661   3.450   0.353
 1141TIP3   OH2 3299   0.034   7.860   7.916
 1141TIP3    H1 3300  -0.055   7.829   7.931
 1141TIP3    H2 3301   0.050   7.844   7.823
 1142TIP3   OH2 3302   7.228   3.584   0.719
 1142TIP3    H1 3303   7.199   3.515   0.779
 1142TIP3    H2 3304   7.322   3.594   0.737
 1143TIP3   OH2 3305   6.504   3.363   0.625
 1143TIP3    H1 3306   6.552   3.424   0.682
 1143TIP3    H2 3307   6.499   3.282   0.675
 1144TIP3   OH2 3308   7.647   5.584   1.199
 1144TIP3    H1 3309   7.667   5.631   1.279
 1144TIP3    H2 3310   7.559   5.613   1.175
 1145TIP3   OH2 3311   7.239   3.576   0.280
 1145TIP3    H1 3312   7.258   3.511   0.213
 1145TIP3    H2 3313   7.208   3.526   0.355
 1146TIP3   OH2 3314   6.880   2.978  -0.011
 1146TIP3    H1 3315   6.824   3.019   0.055
 1146TIP3    H2 3316   6.968   2.985   0.026
 1147TIP3   OH2 3317   9.598   7.724   7.974
 1147TIP3    H1 3318   9.507   7.720   7.946
 1147TIP3    H2 3319   9.630   7.635   7.964
 1148TIP3   OH2 3320   7.294   3.135   0.155
 1148TIP3    H1 3321   7.275   3.148   0.248
 1148TIP3    H2 3322   7.240   3.061   0.129
 1149TIP3   OH2 3323   7.576   4.848   0.405
 1149TIP3    H1 3324   7.543   4.925   0.357
 1149TIP3    H2 3325   7.643   4.884   0.463
 1150TIP3   OH2 3326   6.514   3.934   0.807
 1150TIP3    H1 3327   6.596   3.950   0.854
 1150TIP3    H2 3328   6.447   3.939   0.875
 1151TIP3   OH2 3329   6.982   3.372   0.092
 1151TIP3    H1 3330   7.075   3.363   0.070
 1151TIP3    H2 3331   6.974   3.330   0.178
 1152TIP3   OH2 3332   9.752   7.480   7.978
 1152TIP3    H1 3333   9.705   7.410   8.023
 1152TIP3    H2 3334   9.823   7.435   7.931
 1153TIP3   OH2 3335   6.944   3.297   0.356
 1153TIP3    H1 3336   6.857   3.332   0.374
 1153TIP3    H2 3337   7.003   3.353   0.406
 1154TIP3   OH2 3338   7.095   3.978   0.493
 1154TIP3    H1 3339   7.145   3.972   0.574
 1154TIP3    H2 3340   7.064   4.068   0.491
 1155TIP3   OH2 3341   6.360   3.648   0.119
 1155TIP3    H1 3342   6.405   3.642   0.035
 1155TIP3    H2 3343   6.428   3.629   0.184
 1156TIP3   OH2 3344   6.254   3.600   0.735
 1156TIP3    H1 3345   6.260   3.572   0.826
 1156TIP3    H2 3346   6.179   3.551   0.700
 1157TIP3   OH2 3347   7.004   3.743   0.745
 1157TIP3    H1 3348   6.954   3.715   0.669
 1157TIP3    H2 3349   7.090   3.702   0.733
 1158TIP3   OH2 3350   7.244   4.256   0.360
 1158TIP3    H1 3351   7.149   4.243   0.362
 1158TIP3    H2 3352   7.262   4.308   0.439
 1159TIP3   OH2 3353   7.898   4.143   0.314
 1159TIP3    H1 3354   7.809   4.147   0.281
 1159TIP3    H2 3355   7.940   4.075   0.261
 1160TIP3   OH2 3356   6.766   4.321   0.251
 1160TIP3    H1 3357   6.764   4.416   0.263
 1160TIP3    H2 3358   6.850   4.293   0.287
 1161TIP3   OH2 3359   7.135   3.972   0.220
 1161TIP3    H1 3360   7.116   3.964   0.313
 1161TIP3    H2 3361   7.230   3.984   0.215
 1162TIP3   OH2 3362   6.485   3.110   0.749
 1162TIP3    H1 3363   6.390   3.114   0.756
 1162TIP3    H2 3364   6.513   3.061   0.826
 1163TIP3   OH2 3365   6.222   4.192   0.394
 1163TIP3    H1 3366   6.255   4.122   0.451
 1163TIP3    H2 3367   6.290   4.259   0.397
 1164TIP3   OH2 3368   7.269   3.164   0.421
 1164TIP3    H1 3369   7.330   3.232   0.451
 1164TIP3    H2 3370   7.261   3.105   0.496
 1165TIP3   OH2 3371   7.136   3.437   0.499
 1165TIP3    H1 3372   7.163   3.491   0.573
 1165TIP3    H2 3373   7.198   3.364   0.499
 1166TIP3   OH2 3374   7.706   3.429   0.509
 1166TIP3    H1 3375   7.680   3.346   0.550
 1166TIP3    H2 3376   7.748   3.403   0.427
 1167TIP3   OH2 3377   6.443   2.752   0.356
 1167TIP3    H1 3378   6.420   2.715   0.271
 1167TIP3    H2 3379   6.446   2.677   0.415
 1168TIP3   OH2 3380   6.344   4.566   0.873
 1168TIP3    H1 3381   6.439   4.554   0.865
 1168TIP3    H2 3382   6.307   4.479   0.854
 1169TIP3   OH2 3383   6.608   4.493   0.841
 1169TIP3    H1 3384   6.688   4.467   0.888
 1169TIP3    H2 3385   6.600   4.429   0.771
 1170TIP3   OH2 3386   7.289   4.387   0.597
 1170TIP3    H1 3387   7.292   4.314   0.658
 1170TIP3    H2 3388   7.369   4.436   0.615
 1171TIP3   OH2 3389   6.309   3.929   0.996
 1171TIP3    H1 3390   6.333   3.837   1.008
 1171TIP3    H2 3391   6.221   3.926   0.959
 1172TIP3   OH2 3392   6.931   4.013   0.775
 1172TIP3    H1 3393   6.886   4.035   0.693
 1172TIP3    H2 3394   6.969   3.927   0.760
 1173TIP3   OH2 3395   7.416   4.042   0.351
 1173TIP3    H1 3396   7.496   4.080   0.313
 1173TIP3    H2 3397   7.355   4.116   0.356
 1174TIP3   OH2 3398   6.430   3.678   1.003
 1174TIP3    H1 3399   6.507   3.652   0.953
 1174TIP3    H2 3400   6.464   3.695   1.091
 1175TIP3   OH2 3401   6.747   3.523   0.640
 1175TIP3    H1 3402   6.681   3.588   0.665
 1175TIP3    H2 3403   6.806   3.571   0.582
 1176TIP3   OH2 3404   7.283   3.927   0.735
 1176TIP3    H1 3405   7.359   3.897   0.685
 1176TIP3    H2 3406   7.284   3.875   0.815
 1177TIP3   OH2 3407   6.885   3.325   0.772
 1177TIP3    H1 3408   6.895   3.252   0.711
 1177TIP3    H2 3409   6.843   3.394   0.720
 1178TIP3   OH2 3410   6.898   3.125   0.574
 1178TIP3    H1 3411   6.931   3.164   0.493
 1178TIP3    H2 3412   6.808   3.099   0.553
 1179TIP3   OH2 3413   6.910   3.670   0.480
 1179TIP3    H1 3414   6.995   3.667   0.436
 1179TIP3    H2 3415   6.856   3.725   0.423
 1180TIP3   OH2 3416   7.491   3.596   0.818
 1180TIP3    H1 3417   7.519   3.507   0.841
 1180TIP3    H2 3418   7.566   3.634   0.772
 1181TIP3   OH2 3419   7.527   3.885   0.545
 1181TIP3    H1 3420   7.470   3.938   0.490
 1181TIP3    H2 3421   7.616   3.905   0.515
 1182TIP3   OH2 3422   6.773   3.413   1.013
 1182TIP3    H1 3423   6.703   3.351   1.034
 1182TIP3    H2 3424   6.802   3.387   0.926
 1183TIP3   OH2 3425   6.992   2.889   0.682
 1183TIP3    H1 3426   6.956   2.970   0.646
 1183TIP3    H2 3427   6.926   2.822   0.663
 1184TIP3   OH2 3428   7.141   3.373   0.873
 1184TIP3    H1 3429   7.133   3.361   0.967
 1184TIP3    H2 3430   7.054   3.352   0.839
 1185TIP3   OH2 3431   7.366   3.312   0.720
 1185TIP3    H1 3432   7.293   3.317   0.781
 1185TIP3    H2 3433   7.443   3.302   0.775
 1186TIP3   OH2 3434   7.591   3.345   0.893
 1186TIP3    H1 3435   7.607   3.251   0.893
 1186TIP3    H2 3436   7.590   3.369   0.986
 1187TIP3   OH2 3437   6.609   3.191   1.076
 1187TIP3    H1 3438   6.617   3.102   1.042
 1187TIP3    H2 3439   6.646   3.186   1.164
 1188TIP3   OH2 3440   7.074   2.879   0.941
 1188TIP3    H1 3441   7.143   2.814   0.938
 1188TIP3    H2 3442   7.041   2.884   0.851
 1189TIP3   OH2 3443   7.180   3.091   1.081
 1189TIP3    H1 3444   7.150   3.021   1.023
 1189TIP3    H2 3445   7.109   3.155   1.080
 1190TIP3   OH2 3446   5.887   4.198   0.022
 1190TIP3    H1 3447   5.887   4.108   0.056
 1190TIP3    H2 3448   5.969   4.235   0.054
 1191TIP3   OH2 3449   7.743   4.258   0.651
 1191TIP3    H1 3450   7.676   4.263   0.719
 1191TIP3    H2 3451   7.789   4.342   0.657
 1192TIP3   OH2 3452   6.122   3.573   0.370
 1192TIP3    H1 3453   6.113   3.546   0.278
 1192TIP3    H2 3454   6.215   3.562   0.389
 1193TIP3   OH2 3455   7.782   3.926   0.456
 1193TIP3    H1 3456   7.844   3.854   0.442
 1193TIP3    H2 3457   7.820   3.999   0.407
 1194TIP3   OH2 3458   7.938   3.705   0.505
 1194TIP3    H1 3459   7.866   3.682   0.564
 1194TIP3    H2 3460   8.016   3.703   0.560
 1195TIP3   OH2 3461   7.667   3.568   0.166
 1195TIP3    H1 3462   7.609   3.577   0.242
 1195TIP3    H2 3463   7.713   3.652   0.162
 1196TIP3   OH2 3464   6.346   3.244   1.007
 1196TIP3    H1 3465   6.440   3.244   1.028
 1196TIP3    H2 3466   6.312   3.166   1.052
 1197TIP3   OH2 3467   8.135   3.180   0.677
 1197TIP3    H1 3468   8.217   3.204   0.720
 1197TIP3    H2 3469   8.102   3.263   0.642
 1198TIP3   OH2 3470   6.311   2.994   0.385
 1198TIP3    H1 3471   6.336   2.902   0.391
 1198TIP3    H2 3472   6.394   3.041   0.376
 1199TIP3   OH2 3473   7.980   3.385   0.604
 1199TIP3    H1 3474   7.919   3.406   0.675
 1199TIP3    H2 3475   7.934   3.320   0.551
 1200TIP3   OH2 3476   9.302   7.342   7.934
 1200TIP3    H1 3477   9.226   7.342   7.993
 1200TIP3    H2 3478   9.264   7.346   7.846
 1201TIP3   OH2 3479   6.305   2.844   0.769
 1201TIP3    H1 3480   6.252   2.811   0.842
 1201TIP3    H2 3481   6.265   2.929   0.747
 1202TIP3   OH2 3482   6.325   4.282   0.831
 1202TIP3    H1 3483   6.235   4.251   0.819
 1202TIP3    H2 3484   6.352   4.247   0.916
 1203TIP3   OH2 3485   6.524   4.293   0.381
 1203TIP3    H1 3486   6.480   4.364   0.336
 1203TIP3    H2 3487   6.612   4.291   0.343
 1204TIP3   OH2 3488   6.991   4.503   0.507
 1204TIP3    H1 3489   7.025   4.506   0.596
 1204TIP3    H2 3490   7.058   4.545   0.454
 1205TIP3   OH2 3491   7.186   4.620   0.352
 1205TIP3    H1 3492   7.250   4.559   0.314
 1205TIP3    H2 3493   7.238   4.675   0.411
 1206TIP3   OH2 3494   7.909   3.134   0.495
 1206TIP3    H1 3495   7.871   3.049   0.476
 1206TIP3    H2 3496   8.003   3.122   0.482
 1207TIP3   OH2 3497   6.202   4.499   0.422
 1207TIP3    H1 3498   6.120   4.543   0.403
 1207TIP3    H2 3499   6.188   4.460   0.509
 1208TIP3   OH2 3500   6.420   4.510   0.252
 1208TIP3    H1 3501   6.344   4.526   0.308
 1208TIP3    H2 3502   6.386   4.513   0.163
 1209TIP3   OH2 3503   6.108   4.320   0.160
 1209TIP3    H1 3504   6.138   4.300   0.249
 1209TIP3    H2 3505   6.175   4.284   0.103
 1210TIP3   OH2 3506   6.313   4.196   0.039
 1210TIP3    H1 3507   6.317   4.105   0.068
 1210TIP3    H2 3508   6.404   4.224   0.033
 1211TIP3   OH2 3509   6.584   4.235   0.056
 1211TIP3    H1 3510   6.607   4.142   0.048
 1211TIP3    H2 3511   6.653   4.272   0.112
 1212TIP3   OH2 3512   7.124   2.921   0.114
 1212TIP3    H1 3513   7.076   2.856   0.166
 1212TIP3    H2 3514   7.185   2.868   0.061
 1213TIP3   OH2 3515   0.972   7.578   7.977
 1213TIP3    H1 3516   1.049   7.543   8.021
 1213TIP3    H2 3517   0.900   7.523   8.006
 1214TIP3   OH2 3518   6.372   2.646   0.109
 1214TIP3    H1 3519   6.288   2.600   0.116
 1214TIP3    H2 3520   6.437   2.576   0.108
 1215TIP3   OH2 3521   9.430   7.120   7.812
 1215TIP3    H1 3522   9.495   7.169   7.762
 1215TIP3    H2 3523   9.391   7.186   7.871
 1216TIP3   OH2 3524   6.824   2.710   0.004
 1216TIP3    H1 3525   6.840   2.799  -0.028
 1216TIP3    H2 3526   6.874   2.704   0.085
 1217TIP3   OH2 3527   0.756   7.388   7.952
 1217TIP3    H1 3528   0.716   7.366   7.868
 1217TIP3    H2 3529   0.763   7.305   7.999
 1218TIP3   OH2 3530   6.622   2.921   0.985
 1218TIP3    H1 3531   6.584   2.856   1.044
 1218TIP3    H2 3532   6.713   2.928   1.013
 1219TIP3   OH2 3533   6.865   2.924   1.115
 1219TIP3    H1 3534   6.941   2.911   1.059
 1219TIP3    H2 3535   6.868   2.851   1.178
 1220TIP3   OH2 3536   7.666   3.089   0.933
 1220TIP3    H1 3537   7.691   3.073   1.024
 1220TIP3    H2 3538   7.748   3.087   0.884
 1221TIP3   OH2 3539   7.599   4.572   0.420
 1221TIP3    H1 3540   7.652   4.533   0.351
 1221TIP3    H2 3541   7.600   4.666   0.402
 1222TIP3   OH2 3542   8.353   4.112   0.386
 1222TIP3    H1 3543   8.431   4.159   0.417
 1222TIP3    H2 3544   8.280   4.167   0.413
 1223TIP3   OH2 3545   8.019   3.880   0.269
 1223TIP3    H1 3546   8.088   3.875   0.336
 1223TIP3    H2 3547   8.007   3.789   0.241
 1224TIP3   OH2 3548   8.091   3.379   0.134
 1224TIP3    H1 3549   8.057   3.462   0.167
 1224TIP3    H2 3550   8.114   3.330   0.213
 1225TIP3   OH2 3551   8.099   4.170   0.507
 1225TIP3    H1 3552   8.116   4.077   0.523
 1225TIP3    H2 3553   8.025   4.171   0.446
 1226TIP3   OH2 3554   8.215   3.898   0.478
 1226TIP3    H1 3555   8.274   3.952   0.427
 1226TIP3    H2 3556   8.243   3.910   0.569
 1227TIP3   OH2 3557   8.559   3.734   0.518
 1227TIP3    H1 3558   8.478   3.718   0.566
 1227TIP3    H2 3559   8.537   3.712   0.427
 1228TIP3   OH2 3560   8.419   3.462   0.572
 1228TIP3    H1 3561   8.477   3.428   0.504
 1228TIP3    H2 3562   8.478   3.491   0.642
 1229TIP3   OH2 3563   8.141   3.608   0.670
 1229TIP3    H1 3564   8.159   3.582   0.580
 1229TIP3    H2 3565   8.083   3.539   0.703
 1230TIP3   OH2 3566   8.049   3.074   0.170
 1230TIP3    H1 3567   8.082   3.128   0.241
 1230TIP3    H2 3568   8.112   3.085   0.099
 1231TIP3   OH2 3569   8.365   3.162   0.503
 1231TIP3    H1 3570   8.381   3.109   0.581
 1231TIP3    H2 3571   8.452   3.193   0.477
 1232TIP3   OH2 3572   8.640   3.156   0.545
 1232TIP3    H1 3573   8.704   3.145   0.616
 1232TIP3    H2 3574   8.611   3.067   0.525
 1233TIP3   OH2 3575   0.472   4.190   1.962
 1233TIP3    H1 3576   0.393   4.233   1.928
 1233TIP3    H2 3577   0.500   4.244   2.036
 1234TIP3   OH2 3578   9.640   4.989   1.637
 1234TIP3    H1 3579   9.578   4.946   1.695
 1234TIP3    H2 3580   9.589   5.009   1.558
 1235TIP3   OH2 3581   0.106   4.926   1.925
 1235TIP3    H1 3582   0.089   4.849   1.871
 1235TIP3    H2 3583   0.090   5.000   1.867
 1236TIP3   OH2 3584   0.273   4.556   1.806
 1236TIP3    H1 3585   0.192   4.604   1.790
 1236TIP3    H2 3586   0.294   4.516   1.722
 1237TIP3   OH2 3587   9.786   4.432   2.094
 1237TIP3    H1 3588   9.788   4.503   2.158
 1237TIP3    H2 3589   9.718   4.458   2.032
 1238TIP3   OH2 3590   0.341   5.271   1.988
 1238TIP3    H1 3591   0.349   5.176   1.997
 1238TIP3    H2 3592   0.262   5.293   2.038
 1239TIP3   OH2 3593   9.330   4.978   2.130
 1239TIP3    H1 3594   9.332   5.059   2.182
 1239TIP3    H2 3595   9.240   4.972   2.100
 1240TIP3   OH2 3596   0.214   4.369   2.278
 1240TIP3    H1 3597   0.139   4.360   2.220
 1240TIP3    H2 3598   0.230   4.281   2.312
 1241TIP3   OH2 3599   9.796   4.168   2.183
 1241TIP3    H1 3600   9.752   4.154   2.267
 1241TIP3    H2 3601   9.758   4.249   2.149
 1242TIP3   OH2 3602   9.516   4.360   2.351
 1242TIP3    H1 3603   9.505   4.276   2.395
 1242TIP3    H2 3604   9.598   4.395   2.387
 1243TIP3   OH2 3605   0.061   5.597   2.097
 1243TIP3    H1 3606   0.058   5.613   2.003
 1243TIP3    H2 3607   0.134   5.652   2.128
 1244TIP3   OH2 3608   0.043   4.715   1.759
 1244TIP3    H1 3609   0.086   4.754   1.683
 1244TIP3    H2 3610  -0.050   4.722   1.739
 1245TIP3   OH2 3611   9.415   4.719   2.118
 1245TIP3    H1 3612   9.446   4.693   2.205
 1245TIP3    H2 3613   9.378   4.806   2.130
 1246TIP3   OH2 3614   9.330   4.533   2.508
 1246TIP3    H1 3615   9.289   4.488   2.435
 1246TIP3    H2 3616   9.417   4.557   2.476
 1247TIP3   OH2 3617   9.560   5.075   2.014
 1247TIP3    H1 3618   9.501   5.004   2.036
 1247TIP3    H2 3619   9.602   5.098   2.097
 1248TIP3   OH2 3620   0.353   4.997   2.015
 1248TIP3    H1 3621   0.259   4.983   2.021
 1248TIP3    H2 3622   0.378   4.957   1.932
 1249TIP3   OH2 3623   9.518   4.760   1.866
 1249TIP3    H1 3624   9.482   4.739   1.952
 1249TIP3    H2 3625   9.452   4.729   1.804
 1250TIP3   OH2 3626   9.681   5.295   1.909
 1250TIP3    H1 3627   9.630   5.221   1.942
 1250TIP3    H2 3628   9.617   5.366   1.898
 1251TIP3   OH2 3629   0.239   4.067   2.123
 1251TIP3    H1 3630   0.148   4.085   2.147
 1251TIP3    H2 3631   0.259   4.133   2.056
 1252TIP3   OH2 3632   9.639   5.173   2.254
 1252TIP3    H1 3633   9.622   5.117   2.331
 1252TIP3    H2 3634   9.709   5.232   2.282
 1253TIP3   OH2 3635   9.100   4.809   2.449
 1253TIP3    H1 3636   9.080   4.717   2.432
 1253TIP3    H2 3637   9.195   4.810   2.464
 1254TIP3   OH2 3638   9.701   4.817   2.073
 1254TIP3    H1 3639   9.772   4.873   2.041
 1254TIP3    H2 3640   9.643   4.807   1.998
 1255TIP3   OH2 3641   9.577   4.653   2.451
 1255TIP3    H1 3642   9.651   4.648   2.391
 1255TIP3    H2 3643   9.611   4.622   2.535
 1256TIP3   OH2 3644   9.763   4.412   2.495
 1256TIP3    H1 3645   9.760   4.317   2.483
 1256TIP3    H2 3646   9.856   4.433   2.489
 1257TIP3   OH2 3647   0.004   4.657   2.260
 1257TIP3    H1 3648  -0.047   4.717   2.205
 1257TIP3    H2 3649   0.094   4.667   2.229
 1258TIP3   OH2 3650   9.437   4.127   2.494
 1258TIP3    H1 3651   9.376   4.156   2.562
 1258TIP3    H2 3652   9.382   4.086   2.428
 1259TIP3   OH2 3653   9.710   4.149   2.441
 1259TIP3    H1 3654   9.626   4.118   2.475
 1259TIP3    H2 3655   9.775   4.101   2.493
 1260TIP3   OH2 3656   0.121   4.054   2.584
 1260TIP3    H1 3657   0.129   3.959   2.591
 1260TIP3    H2 3658   0.119   4.084   2.675
 1261TIP3   OH2 3659   0.159   5.433   1.491
 1261TIP3    H1 3660   0.178   5.387   1.572
 1261TIP3    H2 3661   0.226   5.402   1.429
 1262TIP3   OH2 3662   0.190   5.366   1.768
 1262TIP3    H1 3663   0.141   5.285   1.755
 1262TIP3    H2 3664   0.254   5.345   1.836
 1263TIP3   OH2 3665   0.204   5.061   2.317
 1263TIP3    H1 3666   0.141   5.074   2.388
 1263TIP3    H2 3667   0.252   5.144   2.313
 1264TIP3   OH2 3668   0.222   4.815   1.580
 1264TIP3    H1 3669   0.275   4.743   1.546
 1264TIP3    H2 3670   0.243   4.889   1.523
 1265TIP3   OH2 3671   0.040   5.135   1.755
 1265TIP3    H1 3672  -0.020   5.189   1.807
 1265TIP3    H2 3673  -0.017   5.084   1.698
 1266TIP3   OH2 3674   0.249   4.709   2.144
 1266TIP3    H1 3675   0.314   4.639   2.133
 1266TIP3    H2 3676   0.254   4.760   2.064
 1267TIP3   OH2 3677   0.422   4.499   2.146
 1267TIP3    H1 3678   0.349   4.452   2.185
 1267TIP3    H2 3679   0.498   4.444   2.164
 1268TIP3   OH2 3680   0.224   4.324   1.959
 1268TIP3    H1 3681   0.140   4.350   1.995
 1268TIP3    H2 3682   0.250   4.397   1.903
 1269TIP3   OH2 3683   0.649   3.930   2.462
 1269TIP3    H1 3684   0.710   3.871   2.419
 1269TIP3    H2 3685   0.612   3.983   2.391
 1270TIP3   OH2 3686   0.495   4.073   2.285
 1270TIP3    H1 3687   0.435   4.110   2.349
 1270TIP3    H2 3688   0.439   4.024   2.225
 1271TIP3   OH2 3689   9.109   5.274   2.077
 1271TIP3    H1 3690   9.140   5.249   2.164
 1271TIP3    H2 3691   9.105   5.369   2.079
 1272TIP3   OH2 3692   9.554   5.555   1.912
 1272TIP3    H1 3693   9.590   5.560   2.001
 1272TIP3    H2 3694   9.460   5.541   1.925
 1273TIP3   OH2 3695   0.364   3.832   2.171
 1273TIP3    H1 3696   0.301   3.901   2.151
 1273TIP3    H2 3697   0.321   3.751   2.142
 1274TIP3   OH2 3698   0.164   3.790   2.600
 1274TIP3    H1 3699   0.180   3.747   2.684
 1274TIP3    H2 3700   0.246   3.777   2.551
 1275TIP3   OH2 3701   0.096   5.328   2.087
 1275TIP3    H1 3702   0.022   5.300   2.033
 1275TIP3    H2 3703   0.083   5.422   2.098
 1276TIP3   OH2 3704   1.357   4.796   0.902
 1276TIP3    H1 3705   1.313   4.881   0.897
 1276TIP3    H2 3706   1.286   4.732   0.889
 1277TIP3   OH2 3707   1.344   4.722   1.270
 1277TIP3    H1 3708   1.396   4.709   1.349
 1277TIP3    H2 3709   1.300   4.639   1.256
 1278TIP3   OH2 3710   0.639   4.569   1.620
 1278TIP3    H1 3711   0.673   4.515   1.691
 1278TIP3    H2 3712   0.716   4.598   1.571
 1279TIP3   OH2 3713   1.629   5.009   0.937
 1279TIP3    H1 3714   1.601   4.958   1.013
 1279TIP3    H2 3715   1.649   5.095   0.972
 1280TIP3   OH2 3716   0.618   5.005   1.309
 1280TIP3    H1 3717   0.602   4.911   1.319
 1280TIP3    H2 3718   0.713   5.013   1.307
 1281TIP3   OH2 3719   1.207   5.454   0.942
 1281TIP3    H1 3720   1.276   5.400   0.903
 1281TIP3    H2 3721   1.217   5.442   1.036
 1282TIP3   OH2 3722   1.156   4.937   1.267
 1282TIP3    H1 3723   1.203   4.856   1.248
 1282TIP3    H2 3724   1.225   4.998   1.295
 1283TIP3   OH2 3725   2.186   4.265   1.293
 1283TIP3    H1 3726   2.199   4.344   1.346
 1283TIP3    H2 3727   2.233   4.283   1.212
 1284TIP3   OH2 3728   1.495   4.372   1.374
 1284TIP3    H1 3729   1.551   4.418   1.310
 1284TIP3    H2 3730   1.432   4.324   1.320
 1285TIP3   OH2 3731   1.528   4.220   0.942
 1285TIP3    H1 3732   1.526   4.141   0.996
 1285TIP3    H2 3733   1.510   4.188   0.853
 1286TIP3   OH2 3734   0.960   4.503   1.215
 1286TIP3    H1 3735   1.052   4.519   1.240
 1286TIP3    H2 3736   0.961   4.415   1.177
 1287TIP3   OH2 3737   2.240   4.481   1.450
 1287TIP3    H1 3738   2.152   4.520   1.449
 1287TIP3    H2 3739   2.282   4.519   1.527
 1288TIP3   OH2 3740   0.893   4.103   1.709
 1288TIP3    H1 3741   0.833   4.139   1.645
 1288TIP3    H2 3742   0.846   4.109   1.792
 1289TIP3   OH2 3743   1.216   4.982   0.732
 1289TIP3    H1 3744   1.167   4.941   0.661
 1289TIP3    H2 3745   1.176   5.068   0.744
 1290TIP3   OH2 3746   0.984   4.865   1.473
 1290TIP3    H1 3747   0.930   4.937   1.506
 1290TIP3    H2 3748   1.038   4.906   1.404
 1291TIP3   OH2 3749   1.786   4.245   1.164
 1291TIP3    H1 3750   1.794   4.181   1.093
 1291TIP3    H2 3751   1.860   4.304   1.151
 1292TIP3   OH2 3752   0.755   4.195   1.485
 1292TIP3    H1 3753   0.831   4.253   1.475
 1292TIP3    H2 3754   0.784   4.111   1.452
 1293TIP3   OH2 3755   0.826   5.065   1.577
 1293TIP3    H1 3756   0.813   5.156   1.551
 1293TIP3    H2 3757   0.749   5.044   1.630
 1294TIP3   OH2 3758   1.642   5.261   1.059
 1294TIP3    H1 3759   1.556   5.255   1.100
 1294TIP3    H2 3760   1.645   5.349   1.022
 1295TIP3   OH2 3761   1.993   4.180   1.494
 1295TIP3    H1 3762   1.902   4.199   1.471
 1295TIP3    H2 3763   2.041   4.189   1.412
 1296TIP3   OH2 3764   1.212   3.850   1.409
 1296TIP3    H1 3765   1.187   3.779   1.350
 1296TIP3    H2 3766   1.158   3.924   1.381
 1297TIP3   OH2 3767   1.378   5.315   0.782
 1297TIP3    H1 3768   1.419   5.230   0.768
 1297TIP3    H2 3769   1.437   5.377   0.739
 1298TIP3   OH2 3770   1.476   5.072   0.719
 1298TIP3    H1 3771   1.392   5.026   0.718
 1298TIP3    H2 3772   1.521   5.037   0.795
 1299TIP3   OH2 3773   1.877   5.175   1.421
 1299TIP3    H1 3774   1.863   5.097   1.367
 1299TIP3    H2 3775   1.862   5.248   1.362
 1300TIP3   OH2 3776   1.151   4.641   0.806
 1300TIP3    H1 3777   1.080   4.687   0.760
 1300TIP3    H2 3778   1.201   4.598   0.737
 1301TIP3   OH2 3779   2.054   4.823   1.284
 1301TIP3    H1 3780   1.971   4.871   1.281
 1301TIP3    H2 3781   2.093   4.838   1.198
 1302TIP3   OH2 3782   1.437   4.775   0.634
 1302TIP3    H1 3783   1.425   4.810   0.722
 1302TIP3    H2 3784   1.435   4.680   0.646
 1303TIP3   OH2 3785   1.754   4.686   1.590
 1303TIP3    H1 3786   1.751   4.770   1.635
 1303TIP3    H2 3787   1.672   4.682   1.541
 1304TIP3   OH2 3788   0.751   4.634   1.097
 1304TIP3    H1 3789   0.705   4.559   1.060
 1304TIP3    H2 3790   0.830   4.597   1.135
 1305TIP3   OH2 3791   0.897   5.030   1.209
 1305TIP3    H1 3792   0.873   4.999   1.122
 1305TIP3    H2 3793   0.987   5.000   1.221
 1306TIP3   OH2 3794   0.847   4.631   1.440
 1306TIP3    H1 3795   0.887   4.591   1.362
 1306TIP3    H2 3796   0.898   4.711   1.454
 1307TIP3   OH2 3797   1.406   5.262   1.193
 1307TIP3    H1 3798   1.397   5.343   1.242
 1307TIP3    H2 3799   1.395   5.193   1.258
 1308TIP3   OH2 3800   1.031   5.160   1.741
 1308TIP3    H1 3801   0.972   5.219   1.788
 1308TIP3    H2 3802   0.973   5.108   1.685
 1309TIP3   OH2 3803   1.269   4.480   0.387
 1309TIP3    H1 3804   1.311   4.447   0.466
 1309TIP3    H2 3805   1.274   4.576   0.395
 1310TIP3   OH2 3806   0.783   4.714   1.885
 1310TIP3    H1 3807   0.784   4.807   1.908
 1310TIP3    H2 3808   0.690   4.691   1.882
 1311TIP3   OH2 3809   1.120   5.240   0.736
 1311TIP3    H1 3810   1.208   5.272   0.756
 1311TIP3    H2 3811   1.062   5.294   0.791
 1312TIP3   OH2 3812   0.827   5.323   1.827
 1312TIP3    H1 3813   0.798   5.332   1.736
 1312TIP3    H2 3814   0.746   5.306   1.876
 1313TIP3   OH2 3815   1.728   5.184   0.127
 1313TIP3    H1 3816   1.723   5.268   0.080
 1313TIP3    H2 3817   1.777   5.126   0.069
 1314TIP3   OH2 3818   0.415   4.870   1.782
 1314TIP3    H1 3819   0.348   4.847   1.717
 1314TIP3    H2 3820   0.449   4.786   1.812
 1315TIP3   OH2 3821   0.323   5.022   1.428
 1315TIP3    H1 3822   0.409   5.023   1.387
 1315TIP3    H2 3823   0.310   5.111   1.460
 1316TIP3   OH2 3824   2.108   5.516   1.484
 1316TIP3    H1 3825   2.115   5.422   1.498
 1316TIP3    H2 3826   2.030   5.543   1.533
 1317TIP3   OH2 3827   1.214   5.309   1.600
 1317TIP3    H1 3828   1.208   5.398   1.634
 1317TIP3    H2 3829   1.150   5.260   1.651
 1318TIP3   OH2 3830   1.223   5.401   0.510
 1318TIP3    H1 3831   1.171   5.336   0.557
 1318TIP3    H2 3832   1.311   5.393   0.546
 1319TIP3   OH2 3833   1.995   4.649   1.755
 1319TIP3    H1 3834   1.915   4.658   1.704
 1319TIP3    H2 3835   2.017   4.556   1.750
 1320TIP3   OH2 3836   0.611   5.060   1.749
 1320TIP3    H1 3837   0.662   5.049   1.829
 1320TIP3    H2 3838   0.541   4.994   1.757
 1321TIP3   OH2 3839   0.853   3.935   1.477
 1321TIP3    H1 3840   0.869   3.841   1.469
 1321TIP3    H2 3841   0.881   3.957   1.566
 1322TIP3   OH2 3842   1.566   4.059   1.839
 1322TIP3    H1 3843   1.631   4.023   1.899
 1322TIP3    H2 3844   1.482   4.033   1.877
 1323TIP3   OH2 3845   1.756   4.429   1.692
 1323TIP3    H1 3846   1.721   4.429   1.780
 1323TIP3    H2 3847   1.743   4.518   1.660
 1324TIP3   OH2 3848   0.931   4.404   1.577
 1324TIP3    H1 3849   0.880   4.399   1.658
 1324TIP3    H2 3850   0.902   4.485   1.536
 1325TIP3   OH2 3851   1.226   4.404   0.920
 1325TIP3    H1 3852   1.177   4.485   0.905
 1325TIP3    H2 3853   1.295   4.406   0.854
 1326TIP3   OH2 3854   1.475   4.634   1.909
 1326TIP3    H1 3855   1.454   4.563   1.970
 1326TIP3    H2 3856   1.568   4.650   1.923
 1327TIP3   OH2 3857   1.470   4.450   1.074
 1327TIP3    H1 3858   1.381   4.472   1.048
 1327TIP3    H2 3859   1.486   4.364   1.035
 1328TIP3   OH2 3860   0.777   4.411   1.806
 1328TIP3    H1 3861   0.798   4.474   1.875
 1328TIP3    H2 3862   0.764   4.328   1.852
 1329TIP3   OH2 3863   1.487   4.627   1.491
 1329TIP3    H1 3864   1.503   4.545   1.444
 1329TIP3    H2 3865   1.442   4.600   1.571
 1330TIP3   OH2 3866   1.102   4.093   1.354
 1330TIP3    H1 3867   1.070   4.100   1.265
 1330TIP3    H2 3868   1.152   4.174   1.368
 1331TIP3   OH2 3869   1.718   4.214   1.425
 1331TIP3    H1 3870   1.643   4.271   1.445
 1331TIP3    H2 3871   1.745   4.238   1.337
 1332TIP3   OH2 3872   1.824   5.866   1.575
 1332TIP3    H1 3873   1.823   5.880   1.480
 1332TIP3    H2 3874   1.904   5.909   1.605
 1333TIP3   OH2 3875   0.766   4.980   1.980
 1333TIP3    H1 3876   0.848   4.997   2.027
 1333TIP3    H2 3877   0.699   4.985   2.048
 1334TIP3   OH2 3878   1.224   4.474   1.280
 1334TIP3    H1 3879   1.259   4.398   1.233
 1334TIP3    H2 3880   1.219   4.445   1.371
 1335TIP3   OH2 3881   1.193   4.357   1.528
 1335TIP3    H1 3882   1.103   4.382   1.550
 1335TIP3    H2 3883   1.248   4.411   1.585
 1336TIP3   OH2 3884   0.927   4.778   0.676
 1336TIP3    H1 3885   0.879   4.698   0.654
 1336TIP3    H2 3886   0.896   4.802   0.763
 1337TIP3   OH2 3887   1.825   4.974   1.246
 1337TIP3    H1 3888   1.864   5.016   1.169
 1337TIP3    H2 3889   1.739   4.945   1.217
 1338TIP3   OH2 3890   1.348   5.033   1.641
 1338TIP3    H1 3891   1.400   5.019   1.721
 1338TIP3    H2 3892   1.305   5.118   1.655
 1339TIP3   OH2 3893   1.477   4.186   0.573
 1339TIP3    H1 3894   1.562   4.231   0.578
 1339TIP3    H2 3895   1.413   4.252   0.600
 1340TIP3   OH2 3896   0.611   4.727   1.319
 1340TIP3    H1 3897   0.646   4.705   1.232
 1340TIP3    H2 3898   0.677   4.694   1.380
 1341TIP3   OH2 3899   1.050   4.948   0.501
 1341TIP3    H1 3900   1.001   5.020   0.460
 1341TIP3    H2 3901   0.985   4.902   0.553
 1342TIP3   OH2 3902   0.511   4.646   1.918
 1342TIP3    H1 3903   0.515   4.619   2.010
 1342TIP3    H2 3904   0.438   4.596   1.881
 1343TIP3   OH2 3905   1.243   4.785   1.935
 1343TIP3    H1 3906   1.175   4.723   1.908
 1343TIP3    H2 3907   1.325   4.742   1.911
 1344TIP3   OH2 3908   1.484   5.331   1.526
 1344TIP3    H1 3909   1.390   5.315   1.531
 1344TIP3    H2 3910   1.507   5.365   1.613
 1345TIP3   OH2 3911   1.946   4.323   0.390
 1345TIP3    H1 3912   1.878   4.347   0.327
 1345TIP3    H2 3913   1.959   4.402   0.443
 1346TIP3   OH2 3914   2.126   5.238   1.506
 1346TIP3    H1 3915   2.031   5.226   1.500
 1346TIP3    H2 3916   2.159   5.208   1.421
 1347TIP3   OH2 3917   1.515   5.175   0.313
 1347TIP3    H1 3918   1.562   5.150   0.393
 1347TIP3    H2 3919   1.581   5.171   0.244
 1348TIP3   OH2 3920   1.568   4.868   1.174
 1348TIP3    H1 3921   1.486   4.821   1.190
 1348TIP3    H2 3922   1.630   4.799   1.151
 1349TIP3   OH2 3923   0.705   5.065   0.983
 1349TIP3    H1 3924   0.731   5.153   0.956
 1349TIP3    H2 3925   0.623   5.078   1.030
 1350TIP3   OH2 3926   0.836   4.833   0.924
 1350TIP3    H1 3927   0.784   4.912   0.938
 1350TIP3    H2 3928   0.804   4.771   0.990
 1351TIP3   OH2 3929   1.032   5.379   1.393
 1351TIP3    H1 3930   1.067   5.457   1.350
 1351TIP3    H2 3931   1.104   5.347   1.447
 1352TIP3   OH2 3932   1.392   5.045   1.367
 1352TIP3    H1 3933   1.385   5.035   1.462
 1352TIP3    H2 3934   1.469   4.994   1.343
 1353TIP3   OH2 3935   1.326   4.765   0.251
 1353TIP3    H1 3936   1.409   4.772   0.299
 1353TIP3    H2 3937   1.286   4.852   0.260
 1354TIP3   OH2 3938   1.639   5.541   1.416
 1354TIP3    H1 3939   1.571   5.476   1.433
 1354TIP3    H2 3940   1.605   5.594   1.344
 1355TIP3   OH2 3941   1.674   5.483   0.102
 1355TIP3    H1 3942   1.742   5.540   0.065
 1355TIP3    H2 3943   1.611   5.472   0.031
 1356TIP3   OH2 3944   0.747   4.162   1.935
 1356TIP3    H1 3945   0.652   4.159   1.935
 1356TIP3    H2 3946   0.773   4.106   2.008
 1357TIP3   OH2 3947   1.547   4.861   0.397
 1357TIP3    H1 3948   1.513   4.865   0.486
 1357TIP3    H2 3949   1.642   4.868   0.408
 1358TIP3   OH2 3950   0.472   5.249   1.580
 1358TIP3    H1 3951   0.517   5.177   1.624
 1358TIP3    H2 3952   0.481   5.324   1.638
 1359TIP3   OH2 3953   1.534   4.271   1.674
 1359TIP3    H1 3954   1.620   4.311   1.671
 1359TIP3    H2 3955   1.541   4.203   1.740
 1360TIP3   OH2 3956   1.221   4.139   0.832
 1360TIP3    H1 3957   1.230   4.229   0.864
 1360TIP3    H2 3958   1.130   4.116   0.852
 1361TIP3   OH2 3959   1.372   4.487   1.696
 1361TIP3    H1 3960   1.405   4.530   1.775
 1361TIP3    H2 3961   1.424   4.407   1.689
 1362TIP3   OH2 3962   1.399   3.965   0.954
 1362TIP3    H1 3963   1.381   3.958   1.047
 1362TIP3    H2 3964   1.334   4.026   0.921
 1363TIP3   OH2 3965   2.022   4.382   1.682
 1363TIP3    H1 3966   1.927   4.386   1.691
 1363TIP3    H2 3967   2.037   4.316   1.613
 1364TIP3   OH2 3968   1.766   4.711   1.064
 1364TIP3    H1 3969   1.706   4.676   0.998
 1364TIP3    H2 3970   1.771   4.642   1.131
 1365TIP3   OH2 3971   1.676   5.530   1.000
 1365TIP3    H1 3972   1.640   5.581   0.927
 1365TIP3    H2 3973   1.771   5.539   0.990
 1366TIP3   OH2 3974   0.463   5.570   1.984
 1366TIP3    H1 3975   0.545   5.571   2.033
 1366TIP3    H2 3976   0.438   5.478   1.979
 1367TIP3   OH2 3977   0.925   5.487   2.025
 1367TIP3    H1 3978   1.015   5.457   2.037
 1367TIP3    H2 3979   0.893   5.434   1.952
 1368TIP3   OH2 3980   1.542   5.426   1.776
 1368TIP3    H1 3981   1.553   5.354   1.839
 1368TIP3    H2 3982   1.617   5.483   1.792
 1369TIP3   OH2 3983   0.571   4.978   2.179
 1369TIP3    H1 3984   0.590   4.885   2.190
 1369TIP3    H2 3985   0.486   4.981   2.135
 1370TIP3   OH2 3986   1.180   5.058   1.950
 1370TIP3    H1 3987   1.137   5.078   1.867
 1370TIP3    H2 3988   1.214   4.970   1.938
 1371TIP3   OH2 3989   1.654   5.106   1.567
 1371TIP3    H1 3990   1.733   5.136   1.523
 1371TIP3    H2 3991   1.589   5.174   1.549
 1372TIP3   OH2 3992   0.681   4.723   2.179
 1372TIP3    H1 3993   0.755   4.692   2.127
 1372TIP3    H2 3994   0.718   4.737   2.266
 1373TIP3   OH2 3995   1.039   4.610   1.841
 1373TIP3    H1 3996   0.953   4.650   1.849
 1373TIP3    H2 3997   1.067   4.629   1.752
 1374TIP3   OH2 3998   1.537   4.975   1.915
 1374TIP3    H1 3999   1.611   4.941   1.865
 1374TIP3    H2 4000   1.535   4.921   1.994
 1375TIP3   OH2 4001   4.958   9.164   7.973
 1375TIP3    H1 4002   4.919   9.113   7.901
 1375TIP3    H2 4003   4.913   9.134   8.051
 1376TIP3   OH2 4004   1.140   4.383   1.955
 1376TIP3    H1 4005   1.143   4.312   1.890
 1376TIP3    H2 4006   1.107   4.459   1.907
 1377TIP3   OH2 4007   1.149   4.191   1.754
 1377TIP3    H1 4008   1.177   4.231   1.671
 1377TIP3    H2 4009   1.057   4.169   1.740
 1378TIP3   OH2 4010   1.143   4.686   1.602
 1378TIP3    H1 4011   1.234   4.716   1.596
 1378TIP3    H2 4012   1.093   4.755   1.559
 1379TIP3   OH2 4013   1.746   4.668   1.991
 1379TIP3    H1 4014   1.771   4.575   1.990
 1379TIP3    H2 4015   1.829   4.715   1.982
 1380TIP3   OH2 4016   1.778   4.928   1.731
 1380TIP3    H1 4017   1.726   4.991   1.681
 1380TIP3    H2 4018   1.868   4.942   1.700
 1381TIP3   OH2 4019   1.025   4.463   2.196
 1381TIP3    H1 4020   0.955   4.402   2.219
 1381TIP3    H2 4021   1.053   4.437   2.108
 1382TIP3   OH2 4022   1.301   3.981   1.865
 1382TIP3    H1 4023   1.261   4.066   1.844
 1382TIP3    H2 4024   1.255   3.918   1.810
 1383TIP3   OH2 4025   1.398   4.414   2.054
 1383TIP3    H1 4026   1.387   4.401   2.149
 1383TIP3    H2 4027   1.311   4.396   2.017
 1384TIP3   OH2 4028   1.656   4.395   1.940
 1384TIP3    H1 4029   1.575   4.381   1.989
 1384TIP3    H2 4030   1.725   4.357   1.996
 1385TIP3   OH2 4031   1.889   4.340   2.078
 1385TIP3    H1 4032   1.911   4.247   2.087
 1385TIP3    H2 4033   1.884   4.372   2.168
 1386TIP3   OH2 4034   0.864   4.240   2.256
 1386TIP3    H1 4035   0.865   4.151   2.223
 1386TIP3    H2 4036   0.902   4.234   2.344
 1387TIP3   OH2 4037   1.328   3.919   2.130
 1387TIP3    H1 4038   1.401   3.858   2.126
 1387TIP3    H2 4039   1.305   3.937   2.039
 1388TIP3   OH2 4040   1.432   4.138   2.261
 1388TIP3    H1 4041   1.396   4.063   2.213
 1388TIP3    H2 4042   1.360   4.202   2.263
 1389TIP3   OH2 4043   1.945   5.581   0.985
 1389TIP3    H1 4044   1.966   5.606   1.075
 1389TIP3    H2 4045   1.994   5.643   0.931
 1390TIP3   OH2 4046   1.959   5.614   1.263
 1390TIP3    H1 4047   1.909   5.532   1.257
 1390TIP3    H2 4048   2.027   5.595   1.328
 1391TIP3   OH2 4049   2.001   5.323   1.828
 1391TIP3    H1 4050   1.934   5.330   1.896
 1391TIP3    H2 4051   2.050   5.404   1.834
 1392TIP3   OH2 4052   1.818   4.855   0.433
 1392TIP3    H1 4053   1.876   4.926   0.405
 1392TIP3    H2 4054   1.825   4.855   0.529
 1393TIP3   OH2 4055   2.022   4.806   0.636
 1393TIP3    H1 4056   1.964   4.780   0.707
 1393TIP3    H2 4057   2.103   4.834   0.679
 1394TIP3   OH2 4058   1.994   5.098   1.068
 1394TIP3    H1 4059   2.054   5.031   1.035
 1394TIP3    H2 4060   2.003   5.171   1.007
 1395TIP3   OH2 4061   1.808   5.382   1.257
 1395TIP3    H1 4062   1.740   5.425   1.308
 1395TIP3    H2 4063   1.761   5.338   1.187
 1396TIP3   OH2 4064   1.903   4.670   0.246
 1396TIP3    H1 4065   1.857   4.586   0.245
 1396TIP3    H2 4066   1.854   4.723   0.309
 1397TIP3   OH2 4067   1.911   4.671   0.838
 1397TIP3    H1 4068   1.924   4.576   0.846
 1397TIP3    H2 4069   1.884   4.699   0.925
 1398TIP3   OH2 4070   0.399   4.621   1.507
 1398TIP3    H1 4071   0.432   4.640   1.420
 1398TIP3    H2 4072   0.478   4.608   1.560
 1399TIP3   OH2 4073   2.038   4.972   1.637
 1399TIP3    H1 4074   2.099   4.901   1.618
 1399TIP3    H2 4075   2.060   5.040   1.573
 1400TIP3   OH2 4076   2.204   4.754   1.613
 1400TIP3    H1 4077   2.133   4.715   1.664
 1400TIP3    H2 4078   2.282   4.704   1.639
 1401TIP3   OH2 4079   1.737   4.264   0.612
 1401TIP3    H1 4080   1.772   4.211   0.684
 1401TIP3    H2 4081   1.796   4.339   0.606
 1402TIP3   OH2 4082   1.952   4.461   1.177
 1402TIP3    H1 4083   2.030   4.492   1.132
 1402TIP3    H2 4084   1.961   4.496   1.266
 1403TIP3   OH2 4085   1.983   4.595   1.419
 1403TIP3    H1 4086   1.905   4.619   1.469
 1403TIP3    H2 4087   2.012   4.678   1.380
 1404TIP3   OH2 4088   0.606   4.304   2.190
 1404TIP3    H1 4089   0.700   4.300   2.207
 1404TIP3    H2 4090   0.571   4.224   2.230
 1405TIP3   OH2 4091   2.450   4.191   1.956
 1405TIP3    H1 4092   2.512   4.133   1.912
 1405TIP3    H2 4093   2.417   4.248   1.886
 1406TIP3   OH2 4094   1.908   4.112   0.776
 1406TIP3    H1 4095   1.952   4.124   0.860
 1406TIP3    H2 4096   1.884   4.019   0.775
 1407TIP3   OH2 4097   0.411   4.338   1.649
 1407TIP3    H1 4098   0.459   4.256   1.636
 1407TIP3    H2 4099   0.454   4.400   1.590
 1408TIP3   OH2 4100   2.299   4.332   1.777
 1408TIP3    H1 4101   2.226   4.371   1.824
 1408TIP3    H2 4102   2.260   4.261   1.725
 1409TIP3   OH2 4103   1.975   3.895   0.344
 1409TIP3    H1 4104   1.975   3.822   0.283
 1409TIP3    H2 4105   2.001   3.971   0.291
 1410TIP3   OH2 4106   1.538   5.473   0.637
 1410TIP3    H1 4107   1.564   5.495   0.547
 1410TIP3    H2 4108   1.565   5.549   0.688
 1411TIP3   OH2 4109   0.546   3.919   1.973
 1411TIP3    H1 4110   0.491   3.878   2.039
 1411TIP3    H2 4111   0.505   4.003   1.955
 1412TIP3   OH2 4112   0.614   5.292   1.999
 1412TIP3    H1 4113   0.519   5.276   1.990
 1412TIP3    H2 4114   0.633   5.275   2.091
 1413TIP3   OH2 4115   0.806   5.338   1.547
 1413TIP3    H1 4116   0.749   5.405   1.509
 1413TIP3    H2 4117   0.890   5.350   1.502
 1414TIP3   OH2 4118   1.209   5.573   1.689
 1414TIP3    H1 4119   1.249   5.563   1.776
 1414TIP3    H2 4120   1.271   5.627   1.640
 1415TIP3   OH2 4121   1.398   5.728   1.557
 1415TIP3    H1 4122   1.462   5.670   1.514
 1415TIP3    H2 4123   1.451   5.785   1.612
 1416TIP3   OH2 4124   2.211   4.093   1.665
 1416TIP3    H1 4125   2.129   4.094   1.614
 1416TIP3    H2 4126   2.242   4.003   1.659
 1417TIP3   OH2 4127   0.474   5.632   1.580
 1417TIP3    H1 4128   0.379   5.644   1.571
 1417TIP3    H2 4129   0.496   5.676   1.662
 1418TIP3   OH2 4130   0.687   5.551   1.423
 1418TIP3    H1 4131   0.611   5.581   1.474
 1418TIP3    H2 4132   0.654   5.543   1.334
 1419TIP3   OH2 4133   1.121   5.596   1.242
 1419TIP3    H1 4134   1.049   5.608   1.180
 1419TIP3    H2 4135   1.131   5.683   1.282
 1420TIP3   OH2 4136   1.382   5.525   1.278
 1420TIP3    H1 4137   1.290   5.548   1.268
 1420TIP3    H2 4138   1.429   5.597   1.237
 1421TIP3   OH2 4139   1.582   5.706   1.192
 1421TIP3    H1 4140   1.574   5.791   1.148
 1421TIP3    H2 4141   1.614   5.647   1.124
 1422TIP3   OH2 4142   0.382   5.363   1.344
 1422TIP3    H1 4143   0.423   5.326   1.422
 1422TIP3    H2 4144   0.433   5.328   1.271
 1423TIP3   OH2 4145   0.574   5.245   1.185
 1423TIP3    H1 4146   0.580   5.162   1.233
 1423TIP3    H2 4147   0.663   5.280   1.187
 1424TIP3   OH2 4148   0.845   5.303   1.200
 1424TIP3    H1 4149   0.865   5.209   1.200
 1424TIP3    H2 4150   0.903   5.340   1.266
 1425TIP3   OH2 4151   1.395   3.969   1.230
 1425TIP3    H1 4152   1.345   3.911   1.287
 1425TIP3    H2 4153   1.487   3.954   1.255
 1426TIP3   OH2 4154   2.027   3.795   1.112
 1426TIP3    H1 4155   2.043   3.877   1.158
 1426TIP3    H2 4156   1.936   3.775   1.131
 1427TIP3   OH2 4157   2.048   4.097   1.017
 1427TIP3    H1 4158   2.114   4.034   0.985
 1427TIP3    H2 4159   2.052   4.090   1.112
 1428TIP3   OH2 4160   1.758   3.755   1.111
 1428TIP3    H1 4161   1.715   3.836   1.086
 1428TIP3    H2 4162   1.709   3.724   1.187
 1429TIP3   OH2 4163   1.626   5.495   0.370
 1429TIP3    H1 4164   1.663   5.409   0.391
 1429TIP3    H2 4165   1.628   5.499   0.275
 1430TIP3   OH2 4166   0.868   3.972   2.175
 1430TIP3    H1 4167   0.832   3.899   2.226
 1430TIP3    H2 4168   0.960   3.978   2.201
 1431TIP3   OH2 4169   1.113   3.974   2.299
 1431TIP3    H1 4170   1.190   3.950   2.247
 1431TIP3    H2 4171   1.103   3.902   2.362
 1432TIP3   OH2 4172   1.971   4.080   2.097
 1432TIP3    H1 4173   1.987   4.045   2.185
 1432TIP3    H2 4174   2.055   4.071   2.052
 1433TIP3   OH2 4175   1.861   5.591   1.581
 1433TIP3    H1 4176   1.786   5.562   1.529
 1433TIP3    H2 4177   1.848   5.686   1.590
 1434TIP3   OH2 4178   3.143   4.990   0.317
 1434TIP3    H1 4179   3.111   5.076   0.292
 1434TIP3    H2 4180   3.071   4.930   0.296
 1435TIP3   OH2 4181   3.141   4.972   0.743
 1435TIP3    H1 4182   3.192   4.959   0.823
 1435TIP3    H2 4183   3.100   4.887   0.726
 1436TIP3   OH2 4184   2.432   4.845   1.120
 1436TIP3    H1 4185   2.467   4.776   1.176
 1436TIP3    H2 4186   2.496   4.916   1.126
 1437TIP3   OH2 4187   3.402   5.281   0.404
 1437TIP3    H1 4188   3.390   5.214   0.471
 1437TIP3    H2 4189   3.422   5.360   0.453
 1438TIP3   OH2 4190   2.437   5.270   0.776
 1438TIP3    H1 4191   2.423   5.176   0.791
 1438TIP3    H2 4192   2.531   5.279   0.766
 1439TIP3   OH2 4193   2.157   4.557   0.630
 1439TIP3    H1 4194   2.122   4.640   0.663
 1439TIP3    H2 4195   2.097   4.491   0.665
 1440TIP3   OH2 4196   2.245   4.813   0.789
 1440TIP3    H1 4197   2.291   4.737   0.826
 1440TIP3    H2 4198   2.312   4.881   0.783
 1441TIP3   OH2 4199   3.057   5.710   0.421
 1441TIP3    H1 4200   3.091   5.642   0.363
 1441TIP3    H2 4201   3.056   5.670   0.508
 1442TIP3   OH2 4202   2.949   5.194   0.746
 1442TIP3    H1 4203   2.993   5.113   0.720
 1442TIP3    H2 4204   3.019   5.250   0.780
 1443TIP3   OH2 4205   3.969   4.519   0.768
 1443TIP3    H1 4206   3.988   4.600   0.815
 1443TIP3    H2 4207   3.981   4.541   0.676
 1444TIP3   OH2 4208   3.361   4.683   0.789
 1444TIP3    H1 4209   3.392   4.597   0.817
 1444TIP3    H2 4210   3.318   4.667   0.705
 1445TIP3   OH2 4211   2.751   4.360   0.781
 1445TIP3    H1 4212   2.725   4.409   0.703
 1445TIP3    H2 4213   2.725   4.270   0.761
 1446TIP3   OH2 4214   3.408   4.443   0.391
 1446TIP3    H1 4215   3.471   4.434   0.462
 1446TIP3    H2 4216   3.459   4.481   0.319
 1447TIP3   OH2 4217   2.376   4.595   0.897
 1447TIP3    H1 4218   2.452   4.569   0.949
 1447TIP3    H2 4219   2.393   4.560   0.810
 1448TIP3   OH2 4220   2.777   4.758   0.672
 1448TIP3    H1 4221   2.871   4.748   0.690
 1448TIP3    H2 4222   2.750   4.673   0.637
 1449TIP3   OH2 4223   4.027   4.742   0.927
 1449TIP3    H1 4224   3.936   4.770   0.926
 1449TIP3    H2 4225   4.062   4.774   1.009
 1450TIP3   OH2 4226   2.694   4.326   1.207
 1450TIP3    H1 4227   2.648   4.371   1.135
 1450TIP3    H2 4228   2.639   4.341   1.283
 1451TIP3   OH2 4229   3.046   5.208   0.173
 1451TIP3    H1 4230   3.008   5.177   0.091
 1451TIP3    H2 4231   2.987   5.277   0.203
 1452TIP3   OH2 4232   2.787   5.122   0.959
 1452TIP3    H1 4233   2.730   5.191   0.993
 1452TIP3    H2 4234   2.834   5.163   0.887
 1453TIP3   OH2 4235   3.573   4.458   0.605
 1453TIP3    H1 4236   3.527   4.438   0.686
 1453TIP3    H2 4237   3.623   4.537   0.624
 1454TIP3   OH2 4238   2.599   4.458   0.987
 1454TIP3    H1 4239   2.652   4.533   1.013
 1454TIP3    H2 4240   2.647   4.418   0.915
 1455TIP3   OH2 4241   2.624   5.320   1.064
 1455TIP3    H1 4242   2.609   5.410   1.034
 1455TIP3    H2 4243   2.547   5.299   1.117
 1456TIP3   OH2 4244   1.987   5.056   0.362
 1456TIP3    H1 4245   2.013   5.076   0.273
 1456TIP3    H2 4246   2.029   5.123   0.416
 1457TIP3   OH2 4247   3.438   5.526   0.546
 1457TIP3    H1 4248   3.353   5.517   0.590
 1457TIP3    H2 4249   3.434   5.611   0.504
 1458TIP3   OH2 4250   3.767   4.400   0.928
 1458TIP3    H1 4251   3.683   4.420   0.888
 1458TIP3    H2 4252   3.832   4.429   0.864
 1459TIP3   OH2 4253   3.042   4.045   0.937
 1459TIP3    H1 4254   3.036   3.953   0.960
 1459TIP3    H2 4255   2.963   4.085   0.973
 1460TIP3   OH2 4256   3.156   5.544   0.221
 1460TIP3    H1 4257   3.205   5.463   0.210
 1460TIP3    H2 4258   3.218   5.613   0.199
 1461TIP3   OH2 4259   3.300   5.319   0.150
 1461TIP3    H1 4260   3.221   5.266   0.155
 1461TIP3    H2 4261   3.347   5.299   0.232
 1462TIP3   OH2 4262   3.672   5.419   0.895
 1462TIP3    H1 4263   3.656   5.342   0.840
 1462TIP3    H2 4264   3.656   5.494   0.838
 1463TIP3   OH2 4265   2.966   4.826   0.172
 1463TIP3    H1 4266   2.890   4.884   0.162
 1463TIP3    H2 4267   2.995   4.809   0.083
 1464TIP3   OH2 4268   6.213   9.209   7.948
 1464TIP3    H1 4269   6.300   9.248   7.955
 1464TIP3    H2 4270   6.217   9.131   8.003
 1465TIP3   OH2 4271   3.858   5.076   0.765
 1465TIP3    H1 4272   3.774   5.120   0.765
 1465TIP3    H2 4273   3.893   5.090   0.676
 1466TIP3   OH2 4274   3.332   4.910   0.139
 1466TIP3    H1 4275   3.276   4.941   0.210
 1466TIP3    H2 4276   3.413   4.883   0.183
 1467TIP3   OH2 4277   3.552   4.937   1.075
 1467TIP3    H1 4278   3.551   5.020   1.122
 1467TIP3    H2 4279   3.468   4.934   1.029
 1468TIP3   OH2 4280   2.576   4.908   0.555
 1468TIP3    H1 4281   2.538   4.857   0.484
 1468TIP3    H2 4282   2.648   4.855   0.587
 1469TIP3   OH2 4283   2.697   5.314   0.676
 1469TIP3    H1 4284   2.671   5.296   0.586
 1469TIP3    H2 4285   2.783   5.273   0.686
 1470TIP3   OH2 4286   2.677   4.878   0.903
 1470TIP3    H1 4287   2.716   4.844   0.823
 1470TIP3    H2 4288   2.722   4.960   0.920
 1471TIP3   OH2 4289   3.207   5.514   0.688
 1471TIP3    H1 4290   3.191   5.596   0.735
 1471TIP3    H2 4291   3.190   5.446   0.753
 1472TIP3   OH2 4292   2.823   5.419   1.232
 1472TIP3    H1 4293   2.761   5.475   1.280
 1472TIP3    H2 4294   2.767   5.366   1.175
 1473TIP3   OH2 4295   9.703   0.152   7.968
 1473TIP3    H1 4296   9.754   0.210   8.025
 1473TIP3    H2 4297   9.712   0.191   7.881
 1474TIP3   OH2 4298   2.583   4.991   1.329
 1474TIP3    H1 4299   2.592   5.076   1.372
 1474TIP3    H2 4300   2.494   4.963   1.349
 1475TIP3   OH2 4301   2.897   5.436   0.221
 1475TIP3    H1 4302   2.977   5.487   0.235
 1475TIP3    H2 4303   2.839   5.495   0.171
 1476TIP3   OH2 4304   2.610   5.576   1.317
 1476TIP3    H1 4305   2.585   5.585   1.225
 1476TIP3    H2 4306   2.527   5.562   1.363
 1477TIP3   OH2 4307   3.665   4.009   0.002
 1477TIP3    H1 4308   3.589   4.029   0.057
 1477TIP3    H2 4309   3.671   4.084  -0.058
 1478TIP3   OH2 4310   2.454   4.788   0.337
 1478TIP3    H1 4311   2.391   4.848   0.296
 1478TIP3    H2 4312   2.405   4.708   0.351
 1479TIP3   OH2 4313   2.205   5.131   1.268
 1479TIP3    H1 4314   2.136   5.106   1.206
 1479TIP3    H2 4315   2.240   5.047   1.299
 1480TIP3   OH2 4316   2.050   5.329   0.916
 1480TIP3    H1 4317   2.143   5.344   0.930
 1480TIP3    H2 4318   2.007   5.406   0.951
 1481TIP3   OH2 4319   3.904   5.771   0.969
 1481TIP3    H1 4320   3.909   5.677   0.985
 1481TIP3    H2 4321   3.825   5.800   1.015
 1482TIP3   OH2 4322   3.010   5.566   1.094
 1482TIP3    H1 4323   3.002   5.656   1.126
 1482TIP3    H2 4324   2.944   5.517   1.144
 1483TIP3   OH2 4325   2.785   5.663   0.045
 1483TIP3    H1 4326   2.736   5.647  -0.036
 1483TIP3    H2 4327   2.753   5.748   0.076
 1484TIP3   OH2 4328   2.234   5.546   0.440
 1484TIP3    H1 4329   2.287   5.540   0.520
 1484TIP3    H2 4330   2.193   5.460   0.432
 1485TIP3   OH2 4331   9.501   0.982   7.713
 1485TIP3    H1 4332   9.569   0.937   7.663
 1485TIP3    H2 4333   9.533   0.981   7.803
 1486TIP3   OH2 4334   3.045   5.623  -0.025
 1486TIP3    H1 4335   2.953   5.630   0.002
 1486TIP3    H2 4336   3.089   5.584   0.050
 1487TIP3   OH2 4337   3.804   4.883   1.224
 1487TIP3    H1 4338   3.714   4.894   1.194
 1487TIP3    H2 4339   3.817   4.788   1.227
 1488TIP3   OH2 4340   2.406   5.318   1.236
 1488TIP3    H1 4341   2.458   5.305   1.316
 1488TIP3    H2 4342   2.335   5.255   1.244
 1489TIP3   OH2 4343   2.795   4.123   1.043
 1489TIP3    H1 4344   2.725   4.109   0.979
 1489TIP3    H2 4345   2.762   4.194   1.099
 1490TIP3   OH2 4346   3.335   4.251   1.257
 1490TIP3    H1 4347   3.404   4.227   1.319
 1490TIP3    H2 4348   3.253   4.235   1.305
 1491TIP3   OH2 4349   3.564   4.674   1.167
 1491TIP3    H1 4350   3.518   4.667   1.251
 1491TIP3    H2 4351   3.543   4.762   1.136
 1492TIP3   OH2 4352   9.717   0.131   7.654
 1492TIP3    H1 4353   9.639   0.076   7.653
 1492TIP3    H2 4354   9.684   0.220   7.662
 1493TIP3   OH2 4355   2.912   4.357   0.085
 1493TIP3    H1 4356   2.912   4.299   0.161
 1493TIP3    H2 4357   2.858   4.312   0.020
 1494TIP3   OH2 4358   2.738   4.673   1.074
 1494TIP3    H1 4359   2.690   4.684   1.156
 1494TIP3    H2 4360   2.714   4.750   1.021
 1495TIP3   OH2 4361   2.678   4.523   0.572
 1495TIP3    H1 4362   2.586   4.524   0.598
 1495TIP3    H2 4363   2.679   4.482   0.486
 1496TIP3   OH2 4364   3.104   4.637   0.315
 1496TIP3    H1 4365   3.053   4.705   0.271
 1496TIP3    H2 4366   3.158   4.600   0.246
 1497TIP3   OH2 4367   3.277   4.881   1.385
 1497TIP3    H1 4368   3.249   4.813   1.447
 1497TIP3    H2 4369   3.369   4.896   1.406
 1498TIP3   OH2 4370   3.263   4.629   0.540
 1498TIP3    H1 4371   3.197   4.654   0.475
 1498TIP3    H2 4372   3.308   4.555   0.500
 1499TIP3   OH2 4373   2.565   4.669   1.290
 1499TIP3    H1 4374   2.592   4.722   1.365
 1499TIP3    H2 4375   2.548   4.582   1.327
 1500TIP3   OH2 4376   5.990   8.859   7.915
 1500TIP3    H1 4377   5.991   8.768   7.885
 1500TIP3    H2 4378   5.916   8.864   7.976
 1501TIP3   OH2 4379   2.148   4.323   0.911
 1501TIP3    H1 4380   2.217   4.354   0.970
 1501TIP3    H2 4381   2.110   4.248   0.956
 1502TIP3   OH2 4382   2.065   4.129   0.231
 1502TIP3    H1 4383   2.157   4.151   0.247
 1502TIP3    H2 4384   2.016   4.204   0.265
 1503TIP3   OH2 4385   3.299   4.884   0.960
 1503TIP3    H1 4386   3.326   4.817   0.897
 1503TIP3    H2 4387   3.258   4.835   1.031
 1504TIP3   OH2 4388   3.009   4.386   0.666
 1504TIP3    H1 4389   2.930   4.382   0.721
 1504TIP3    H2 4390   3.079   4.352   0.721
 1505TIP3   OH2 4391   2.422   4.494   0.649
 1505TIP3    H1 4392   2.327   4.505   0.647
 1505TIP3    H2 4393   2.436   4.400   0.634
 1506TIP3   OH2 4394   2.654   4.433   0.310
 1506TIP3    H1 4395   2.747   4.453   0.298
 1506TIP3    H2 4396   2.609   4.494   0.252
 1507TIP3   OH2 4397   3.428   4.417   0.837
 1507TIP3    H1 4398   3.415   4.433   0.931
 1507TIP3    H2 4399   3.358   4.357   0.813
 1508TIP3   OH2 4400   2.472   4.537   0.119
 1508TIP3    H1 4401   2.462   4.442   0.109
 1508TIP3    H2 4402   2.538   4.562   0.054
 1509TIP3   OH2 4403   3.620   6.121   1.062
 1509TIP3    H1 4404   3.617   6.138   0.968
 1509TIP3    H2 4405   3.698   6.166   1.092
 1510TIP3   OH2 4406   2.564   5.236   1.469
 1510TIP3    H1 4407   2.644   5.250   1.519
 1510TIP3    H2 4408   2.494   5.237   1.535
 1511TIP3   OH2 4409   3.038   4.704   0.745
 1511TIP3    H1 4410   3.091   4.641   0.697
 1511TIP3    H2 4411   3.030   4.666   0.833
 1512TIP3   OH2 4412   2.665   4.105   0.730
 1512TIP3    H1 4413   2.583   4.058   0.742
 1512TIP3    H2 4414   2.724   4.041   0.689
 1513TIP3   OH2 4415   3.001   4.611   1.008
 1513TIP3    H1 4416   2.915   4.645   1.033
 1513TIP3    H2 4417   3.063   4.660   1.062
 1514TIP3   OH2 4418   2.754   5.001   0.130
 1514TIP3    H1 4419   2.680   4.944   0.108
 1514TIP3    H2 4420   2.733   5.035   0.217
 1515TIP3   OH2 4421   3.621   5.212   0.718
 1515TIP3    H1 4422   3.657   5.261   0.644
 1515TIP3    H2 4423   3.541   5.172   0.684
 1516TIP3   OH2 4424   3.279   4.300   0.011
 1516TIP3    H1 4425   3.199   4.266  -0.030
 1516TIP3    H2 4426   3.256   4.389   0.037
 1517TIP3   OH2 4427   3.140   5.292   1.141
 1517TIP3    H1 4428   3.190   5.275   1.221
 1517TIP3    H2 4429   3.098   5.377   1.158
 1518TIP3   OH2 4430   3.270   4.556   0.106
 1518TIP3    H1 4431   3.364   4.561   0.124
 1518TIP3    H2 4432   3.252   4.633   0.052
 1519TIP3   OH2 4433   2.452   4.990   0.785
 1519TIP3    H1 4434   2.490   4.973   0.699
 1519TIP3    H2 4435   2.515   4.952   0.847
 1520TIP3   OH2 4436   9.437   0.506   7.945
 1520TIP3    H1 4437   9.398   0.594   7.939
 1520TIP3    H2 4438   9.381   0.459   8.007
 1521TIP3   OH2 4439   2.325   4.928   1.420
 1521TIP3    H1 4440   2.365   4.942   1.506
 1521TIP3    H2 4441   2.263   4.856   1.434
 1522TIP3   OH2 4442   3.042   5.037   1.416
 1522TIP3    H1 4443   2.973   4.975   1.390
 1522TIP3    H2 4444   3.123   4.994   1.391
 1523TIP3   OH2 4445   3.280   5.584   1.016
 1523TIP3    H1 4446   3.186   5.568   1.022
 1523TIP3    H2 4447   3.304   5.619   1.102
 1524TIP3   OH2 4448   6.940   9.219   7.928
 1524TIP3    H1 4449   6.879   9.160   7.884
 1524TIP3    H2 4450   6.932   9.302   7.880
 1525TIP3   OH2 4451   3.917   5.488   0.995
 1525TIP3    H1 4452   3.822   5.478   0.987
 1525TIP3    H2 4453   3.951   5.461   0.909
 1526TIP3   OH2 4454   0.103   0.812   7.900
 1526TIP3    H1 4455   0.089   0.788   7.992
 1526TIP3    H2 4456   0.085   0.732   7.851
 1527TIP3   OH2 4457   3.390   5.081   0.612
 1527TIP3    H1 4458   3.302   5.061   0.642
 1527TIP3    H2 4459   3.424   4.997   0.580
 1528TIP3   OH2 4460   2.536   5.318   0.439
 1528TIP3    H1 4461   2.529   5.394   0.380
 1528TIP3    H2 4462   2.447   5.308   0.474
 1529TIP3   OH2 4463   2.153   4.555   0.173
 1529TIP3    H1 4464   2.207   4.580   0.248
 1529TIP3    H2 4465   2.070   4.600   0.188
 1530TIP3   OH2 4466   2.664   5.089   0.366
 1530TIP3    H1 4467   2.624   5.174   0.386
 1530TIP3    H2 4468   2.636   5.032   0.437
 1531TIP3   OH2 4469   2.829   5.637   0.889
 1531TIP3    H1 4470   2.866   5.711   0.840
 1531TIP3    H2 4471   2.902   5.604   0.942
 1532TIP3   OH2 4472   2.462   5.542   0.286
 1532TIP3    H1 4473   2.375   5.552   0.325
 1532TIP3    H2 4474   2.501   5.629   0.291
 1533TIP3   OH2 4475   3.179   5.299   0.868
 1533TIP3    H1 4476   3.162   5.296   0.962
 1533TIP3    H2 4477   3.261   5.252   0.856
 1534TIP3   OH2 4478   9.714   0.402   7.698
 1534TIP3    H1 4479   9.753   0.439   7.777
 1534TIP3    H2 4480   9.622   0.428   7.702
 1535TIP3   OH2 4481   3.431   5.793   0.901
 1535TIP3    H1 4482   3.364   5.728   0.921
 1535TIP3    H2 4483   3.395   5.845   0.830
 1536TIP3   OH2 4484   2.516   4.417   1.404
 1536TIP3    H1 4485   2.421   4.425   1.408
 1536TIP3    H2 4486   2.541   4.381   1.488
 1537TIP3   OH2 4487   0.089   0.446   7.911
 1537TIP3    H1 4488   0.069   0.408   7.996
 1537TIP3    H2 4489   0.183   0.465   7.915
 1538TIP3   OH2 4490   2.256   5.527   1.049
 1538TIP3    H1 4491   2.307   5.465   1.101
 1538TIP3    H2 4492   2.273   5.612   1.089
 1539TIP3   OH2 4493   9.090   0.531   7.742
 1539TIP3    H1 4494   9.057   0.441   7.738
 1539TIP3    H2 4495   9.087   0.554   7.835
 1540TIP3   OH2 4496   2.537   5.190   0.015
 1540TIP3    H1 4497   2.600   5.151   0.075
 1540TIP3    H2 4498   2.543   5.284   0.031
 1541TIP3   OH2 4499   2.253   4.925   0.202
 1541TIP3    H1 4500   2.201   4.885   0.272
 1541TIP3    H2 4501   2.220   5.014   0.195
 1542TIP3   OH2 4502   3.380   4.471   1.098
 1542TIP3    H1 4503   3.450   4.522   1.139
 1542TIP3    H2 4504   3.364   4.399   1.159
 1543TIP3   OH2 4505   3.266   4.234   0.285
 1543TIP3    H1 4506   3.258   4.255   0.192
 1543TIP3    H2 4507   3.311   4.310   0.322
 1544TIP3   OH2 4508   9.311   0.745   7.931
 1544TIP3    H1 4509   9.239   0.788   7.977
 1544TIP3    H2 4510   9.292   0.761   7.838
 1545TIP3   OH2 4511   2.925   4.456   0.410
 1545TIP3    H1 4512   2.986   4.522   0.377
 1545TIP3    H2 4513   2.945   4.450   0.504
 1546TIP3   OH2 4514   3.208   4.720   1.163
 1546TIP3    H1 4515   3.229   4.770   1.242
 1546TIP3    H2 4516   3.257   4.638   1.172
 1547TIP3   OH2 4517   3.103   4.172   0.498
 1547TIP3    H1 4518   3.086   4.256   0.541
 1547TIP3    H2 4519   3.157   4.195   0.423
 1548TIP3   OH2 4520   2.537   5.458   0.037
 1548TIP3    H1 4521   2.492   5.517  -0.024
 1548TIP3    H2 4522   2.511   5.489   0.124
 1549TIP3   OH2 4523   2.625   4.117   0.329
 1549TIP3    H1 4524   2.583   4.170   0.396
 1549TIP3    H2 4525   2.716   4.146   0.329
 1550TIP3   OH2 4526   3.821   4.594   1.131
 1550TIP3    H1 4527   3.730   4.616   1.150
 1550TIP3    H2 4528   3.815   4.527   1.062
 1551TIP3   OH2 4529   3.480   4.820   0.535
 1551TIP3    H1 4530   3.403   4.766   0.549
 1551TIP3    H2 4531   3.548   4.782   0.591
 1552TIP3   OH2 4532   8.819   0.490   7.937
 1552TIP3    H1 4533   8.885   0.552   7.967
 1552TIP3    H2 4534   8.867   0.409   7.921
 1553TIP3   OH2 4535   2.215   4.333   0.029
 1553TIP3    H1 4536   2.186   4.416   0.065
 1553TIP3    H2 4537   2.138   4.276   0.037
 1554TIP3   OH2 4538   3.458   5.794   0.468
 1554TIP3    H1 4539   3.416   5.846   0.399
 1554TIP3    H2 4540   3.552   5.807   0.454
 1555TIP3   OH2 4541   2.481   4.070   1.063
 1555TIP3    H1 4542   2.492   4.018   0.984
 1555TIP3    H2 4543   2.523   4.019   1.132
 1556TIP3   OH2 4544   2.092   5.311   0.433
 1556TIP3    H1 4545   2.038   5.346   0.505
 1556TIP3    H2 4546   2.044   5.333   0.354
 1557TIP3   OH2 4547   2.260   5.835   1.472
 1557TIP3    H1 4548   2.341   5.843   1.522
 1557TIP3    H2 4549   2.250   5.740   1.458
 1558TIP3   OH2 4550   2.719   5.742   1.508
 1558TIP3    H1 4551   2.808   5.710   1.521
 1558TIP3    H2 4552   2.684   5.687   1.437
 1559TIP3   OH2 4553   9.229   0.749   7.664
 1559TIP3    H1 4554   9.174   0.673   7.684
 1559TIP3    H2 4555   9.273   0.726   7.582
 1560TIP3   OH2 4556   3.339   5.683   1.264
 1560TIP3    H1 4557   3.349   5.613   1.328
 1560TIP3    H2 4558   3.414   5.741   1.279
 1561TIP3   OH2 4559   2.356   5.232   1.657
 1561TIP3    H1 4560   2.369   5.139   1.677
 1561TIP3    H2 4561   2.269   5.236   1.616
 1562TIP3   OH2 4562   8.987   0.300   7.844
 1562TIP3    H1 4563   9.022   0.267   7.927
 1562TIP3    H2 4564   8.955   0.222   7.799
 1563TIP3   OH2 4565   2.975   5.312   1.438
 1563TIP3    H1 4566   2.929   5.333   1.357
 1563TIP3    H2 4567   3.009   5.224   1.424
 1564TIP3   OH2 4568   9.428   0.393   7.694
 1564TIP3    H1 4569   9.424   0.432   7.782
 1564TIP3    H2 4570   9.337   0.371   7.674
 1565TIP3   OH2 4571   3.448   5.355   1.045
 1565TIP3    H1 4572   3.526   5.386   0.999
 1565TIP3    H2 4573   3.384   5.426   1.032
 1566TIP3   OH2 4574   2.454   4.960   1.663
 1566TIP3    H1 4575   2.473   4.868   1.683
 1566TIP3    H2 4576   2.493   5.009   1.735
 1567TIP3   OH2 4577   2.555   4.827   0.082
 1567TIP3    H1 4578   2.525   4.800   0.169
 1567TIP3    H2 4579   2.595   4.748   0.045
 1568TIP3   OH2 4580   2.831   4.860   1.317
 1568TIP3    H1 4581   2.749   4.908   1.322
 1568TIP3    H2 4582   2.869   4.885   1.233
 1569TIP3   OH2 4583   5.941   9.237   7.961
 1569TIP3    H1 4584   5.931   9.191   7.878
 1569TIP3    H2 4585   6.036   9.242   7.974
 1570TIP3   OH2 4586   3.326   5.235   1.399
 1570TIP3    H1 4587   3.400   5.199   1.351
 1570TIP3    H2 4588   3.321   5.184   1.479
 1571TIP3   OH2 4589   0.179   0.260   7.587
 1571TIP3    H1 4590   0.238   0.303   7.525
 1571TIP3    H2 4591   0.125   0.332   7.621
 1572TIP3   OH2 4592   2.936   4.629   1.428
 1572TIP3    H1 4593   2.941   4.559   1.363
 1572TIP3    H2 4594   2.901   4.704   1.380
 1573TIP3   OH2 4595   2.950   4.428   1.228
 1573TIP3    H1 4596   2.972   4.468   1.144
 1573TIP3    H2 4597   2.861   4.395   1.216
 1574TIP3   OH2 4598   2.957   4.953   1.095
 1574TIP3    H1 4599   3.045   4.990   1.086
 1574TIP3    H2 4600   2.900   5.015   1.049
 1575TIP3   OH2 4601   3.538   4.918   1.494
 1575TIP3    H1 4602   3.574   4.854   1.555
 1575TIP3    H2 4603   3.607   4.984   1.486
 1576TIP3   OH2 4604   3.576   5.182   1.211
 1576TIP3    H1 4605   3.521   5.242   1.161
 1576TIP3    H2 4606   3.665   5.199   1.180
 1577TIP3   OH2 4607   2.831   4.711   1.676
 1577TIP3    H1 4608   2.750   4.665   1.698
 1577TIP3    H2 4609   2.852   4.682   1.587
 1578TIP3   OH2 4610   3.068   4.196   1.332
 1578TIP3    H1 4611   3.029   4.277   1.299
 1578TIP3    H2 4612   3.001   4.130   1.319
 1579TIP3   OH2 4613   3.190   4.668   1.535
 1579TIP3    H1 4614   3.178   4.654   1.628
 1579TIP3    H2 4615   3.105   4.649   1.496
 1580TIP3   OH2 4616   3.425   4.610   1.390
 1580TIP3    H1 4617   3.352   4.616   1.451
 1580TIP3    H2 4618   3.502   4.594   1.444
 1581TIP3   OH2 4619   3.672   4.578   1.523
 1581TIP3    H1 4620   3.685   4.487   1.551
 1581TIP3    H2 4621   3.658   4.626   1.605
 1582TIP3   OH2 4622   2.657   4.490   1.737
 1582TIP3    H1 4623   2.658   4.401   1.703
 1582TIP3    H2 4624   2.701   4.484   1.822
 1583TIP3   OH2 4625   3.137   4.176   1.597
 1583TIP3    H1 4626   3.205   4.109   1.590
 1583TIP3    H2 4627   3.105   4.187   1.508
 1584TIP3   OH2 4628   3.239   4.393   1.738
 1584TIP3    H1 4629   3.206   4.321   1.684
 1584TIP3    H2 4630   3.167   4.456   1.742
 1585TIP3   OH2 4631   8.965   1.013   7.857
 1585TIP3    H1 4632   9.046   1.031   7.810
 1585TIP3    H2 4633   8.896   1.048   7.801
 1586TIP3   OH2 4634   8.414   0.429   7.939
 1586TIP3    H1 4635   8.481   0.495   7.918
 1586TIP3    H2 4636   8.464   0.352   7.963
 1587TIP3   OH2 4637   1.852   5.616   0.490
 1587TIP3    H1 4638   1.785   5.568   0.442
 1587TIP3    H2 4639   1.891   5.551   0.548
 1588TIP3   OH2 4640   1.988   5.445   0.660
 1588TIP3    H1 4641   1.979   5.378   0.727
 1588TIP3    H2 4642   2.045   5.511   0.700
 1589TIP3   OH2 4643   3.732   5.843   0.466
 1589TIP3    H1 4644   3.747   5.859   0.559
 1589TIP3    H2 4645   3.776   5.916   0.422
 1590TIP3   OH2 4646   3.750   5.869   0.745
 1590TIP3    H1 4647   3.700   5.787   0.742
 1590TIP3    H2 4648   3.819   5.853   0.809
 1591TIP3   OH2 4649   3.794   5.578   1.309
 1591TIP3    H1 4650   3.724   5.585   1.374
 1591TIP3    H2 4651   3.844   5.660   1.318
 1592TIP3   OH2 4652   0.367   0.460   7.929
 1592TIP3    H1 4653   0.425   0.531   7.901
 1592TIP3    H2 4654   0.407   0.426   8.009
 1593TIP3   OH2 4655   3.758   4.946   0.133
 1593TIP3    H1 4656   3.694   4.908   0.193
 1593TIP3    H2 4657   3.825   4.983   0.190
 1594TIP3   OH2 4658   3.802   5.351   0.556
 1594TIP3    H1 4659   3.857   5.285   0.515
 1594TIP3    H2 4660   3.804   5.425   0.496
 1595TIP3   OH2 4661   3.602   5.636   0.743
 1595TIP3    H1 4662   3.535   5.679   0.797
 1595TIP3    H2 4663   3.554   5.595   0.672
 1596TIP3   OH2 4664   0.381   0.220   7.796
 1596TIP3    H1 4665   0.309   0.232   7.733
 1596TIP3    H2 4666   0.377   0.298   7.851
 1597TIP3   OH2 4667   6.725   9.179   7.624
 1597TIP3    H1 4668   6.785   9.138   7.561
 1597TIP3    H2 4669   6.723   9.119   7.699
 1598TIP3   OH2 4670   3.557   4.807   0.270
 1598TIP3    H1 4671   3.564   4.712   0.260
 1598TIP3    H2 4672   3.536   4.819   0.363
 1599TIP3   OH2 4673   2.176   4.895   1.042
 1599TIP3    H1 4674   2.177   4.861   0.953
 1599TIP3    H2 4675   2.267   4.886   1.072
 1600TIP3   OH2 4676   3.836   5.229   1.122
 1600TIP3    H1 4677   3.902   5.161   1.109
 1600TIP3    H2 4678   3.865   5.301   1.066
 1601TIP3   OH2 4679   4.013   5.018   1.112
 1601TIP3    H1 4680   3.937   4.974   1.152
 1601TIP3    H2 4681   4.087   4.963   1.136
 1602TIP3   OH2 4682   6.758   8.996   7.833
 1602TIP3    H1 4683   6.825   8.927   7.826
 1602TIP3    H2 4684   6.690   8.958   7.889
 1603TIP3   OH2 4685   3.552   4.533   0.167
 1603TIP3    H1 4686   3.590   4.446   0.180
 1603TIP3    H2 4687   3.598   4.569   0.092
 1604TIP3   OH2 4688   3.696   4.698   0.671
 1604TIP3    H1 4689   3.778   4.714   0.624
 1604TIP3    H2 4690   3.709   4.738   0.757
 1605TIP3   OH2 4691   3.767   4.848   0.897
 1605TIP3    H1 4692   3.697   4.874   0.956
 1605TIP3    H2 4693   3.798   4.929   0.858
 1606TIP3   OH2 4694   2.395   4.564   1.668
 1606TIP3    H1 4695   2.486   4.574   1.696
 1606TIP3    H2 4696   2.365   4.486   1.715
 1607TIP3   OH2 4697   4.240   4.439   1.435
 1607TIP3    H1 4698   4.301   4.381   1.390
 1607TIP3    H2 4699   4.199   4.490   1.366
 1608TIP3   OH2 4700   3.660   4.281   0.199
 1608TIP3    H1 4701   3.705   4.266   0.282
 1608TIP3    H2 4702   3.598   4.209   0.191
 1609TIP3   OH2 4703   2.368   4.316   1.079
 1609TIP3    H1 4704   2.406   4.228   1.073
 1609TIP3    H2 4705   2.438   4.375   1.052
 1610TIP3   OH2 4706   2.183   4.580   1.094
 1610TIP3    H1 4707   2.245   4.585   1.021
 1610TIP3    H2 4708   2.218   4.639   1.160
 1611TIP3   OH2 4709   4.080   4.577   1.259
 1611TIP3    H1 4710   4.023   4.616   1.325
 1611TIP3    H2 4711   4.020   4.538   1.195
 1612TIP3   OH2 4712   6.980   8.826   7.812
 1612TIP3    H1 4713   7.008   8.782   7.731
 1612TIP3    H2 4714   7.048   8.892   7.827
 1613TIP3   OH2 4715   2.063   4.125   0.551
 1613TIP3    H1 4716   2.003   4.123   0.625
 1613TIP3    H2 4717   2.019   4.179   0.485
 1614TIP3   OH2 4718   3.322   5.735   0.135
 1614TIP3    H1 4719   3.363   5.743   0.049
 1614TIP3    H2 4720   3.339   5.819   0.177
 1615TIP3   OH2 4721   2.372   4.100   1.430
 1615TIP3    H1 4722   2.330   4.117   1.515
 1615TIP3    H2 4723   2.310   4.134   1.366
 1616TIP3   OH2 4724   2.382   5.556   1.481
 1616TIP3    H1 4725   2.290   5.531   1.476
 1616TIP3    H2 4726   2.407   5.537   1.572
 1617TIP3   OH2 4727   2.598   5.596   1.034
 1617TIP3    H1 4728   2.548   5.671   1.002
 1617TIP3    H2 4729   2.684   5.605   0.992
 1618TIP3   OH2 4730   2.997   5.832   1.175
 1618TIP3    H1 4731   3.034   5.821   1.263
 1618TIP3    H2 4732   3.062   5.884   1.127
 1619TIP3   OH2 4733   3.193   5.982   1.048
 1619TIP3    H1 4734   3.258   5.925   1.006
 1619TIP3    H2 4735   3.245   6.041   1.102
 1620TIP3   OH2 4736   3.990   4.305   1.136
 1620TIP3    H1 4737   3.901   4.294   1.103
 1620TIP3    H2 4738   4.029   4.217   1.130
 1621TIP3   OH2 4739   2.259   5.836   1.082
 1621TIP3    H1 4740   2.168   5.852   1.061
 1621TIP3    H2 4741   2.281   5.902   1.148
 1622TIP3   OH2 4742   2.491   5.828   0.932
 1622TIP3    H1 4743   2.408   5.833   0.980
 1622TIP3    H2 4744   2.468   5.850   0.842
 1623TIP3   OH2 4745   2.905   5.848   0.723
 1623TIP3    H1 4746   2.830   5.859   0.665
 1623TIP3    H2 4747   2.916   5.933   0.765
 1624TIP3   OH2 4748   3.167   5.777   0.766
 1624TIP3    H1 4749   3.075   5.800   0.749
 1624TIP3    H2 4750   3.217   5.847   0.724
 1625TIP3   OH2 4751   3.367   5.952   0.675
 1625TIP3    H1 4752   3.366   6.039   0.636
 1625TIP3    H2 4753   3.397   5.895   0.604
 1626TIP3   OH2 4754   2.171   5.616   0.798
 1626TIP3    H1 4755   2.193   5.591   0.888
 1626TIP3    H2 4756   2.246   5.586   0.747
 1627TIP3   OH2 4757   2.384   5.512   0.666
 1627TIP3    H1 4758   2.393   5.426   0.708
 1627TIP3    H2 4759   2.471   5.550   0.670
 1628TIP3   OH2 4760   2.650   5.589   0.683
 1628TIP3    H1 4761   2.669   5.497   0.667
 1628TIP3    H2 4762   2.703   5.612   0.760
 1629TIP3   OH2 4763   3.213   4.240   0.785
 1629TIP3    H1 4764   3.172   4.172   0.838
 1629TIP3    H2 4765   3.275   4.192   0.730
 1630TIP3   OH2 4766   3.697   4.154   0.654
 1630TIP3    H1 4767   3.730   4.210   0.584
 1630TIP3    H2 4768   3.602   4.166   0.652
 1631TIP3   OH2 4769   3.817   4.237   0.419
 1631TIP3    H1 4770   3.889   4.178   0.395
 1631TIP3    H2 4771   3.853   4.325   0.407
 1632TIP3   OH2 4772   2.395   4.023   0.699
 1632TIP3    H1 4773   2.341   4.003   0.776
 1632TIP3    H2 4774   2.414   3.937   0.661
 1633TIP3   OH2 4775   2.228   3.815   0.431
 1633TIP3    H1 4776   2.297   3.879   0.413
 1633TIP3    H2 4777   2.149   3.854   0.393
 1634TIP3   OH2 4778   2.952   4.018   0.674
 1634TIP3    H1 4779   3.005   4.069   0.613
 1634TIP3    H2 4780   2.992   4.033   0.760
 1635TIP3   OH2 4781   3.411   4.109   0.641
 1635TIP3    H1 4782   3.382   4.068   0.560
 1635TIP3    H2 4783   3.420   4.037   0.703
 1636TIP3   OH2 4784   3.479   4.073   0.201
 1636TIP3    H1 4785   3.399   4.118   0.228
 1636TIP3    H2 4786   3.478   3.991   0.251
 1637TIP3   OH2 4787   1.975   5.400   0.185
 1637TIP3    H1 4788   1.893   5.385   0.232
 1637TIP3    H2 4789   1.966   5.487   0.147
 1638TIP3   OH2 4790   2.345   4.046   0.143
 1638TIP3    H1 4791   2.278   3.983   0.117
 1638TIP3    H2 4792   2.342   4.047   0.238
 1639TIP3   OH2 4793   2.882   4.207   0.320
 1639TIP3    H1 4794   2.941   4.150   0.370
 1639TIP3    H2 4795   2.894   4.294   0.358
 1640TIP3   OH2 4796   9.230   1.004   7.770
 1640TIP3    H1 4797   9.318   1.028   7.743
 1640TIP3    H2 4798   9.214   0.920   7.728
 1641TIP3   OH2 4799   0.148   1.090   7.873
 1641TIP3    H1 4800   0.133   0.995   7.872
 1641TIP3    H2 4801   0.068   1.126   7.834
 1642TIP3   OH2 4802   2.672   4.221   1.661
 1642TIP3    H1 4803   2.638   4.152   1.718
 1642TIP3    H2 4804   2.764   4.229   1.685
 1643TIP3   OH2 4805   2.922   4.224   1.774
 1643TIP3    H1 4806   3.000   4.205   1.721
 1643TIP3    H2 4807   2.920   4.153   1.839
 1644TIP3   OH2 4808   8.569   0.905   7.847
 1644TIP3    H1 4809   8.527   0.932   7.929
 1644TIP3    H2 4810   8.586   0.812   7.858
 1645TIP3   OH2 4811   3.740   4.311   1.563
 1645TIP3    H1 4812   3.758   4.284   1.653
 1645TIP3    H2 4813   3.826   4.309   1.521
 1646TIP3   OH2 4814   3.656   5.847   1.062
 1646TIP3    H1 4815   3.580   5.818   1.012
 1646TIP3    H2 4816   3.642   5.941   1.073
 1647TIP3   OH2 4817   4.889   5.222   0.237
 1647TIP3    H1 4818   4.930   5.191   0.318
 1647TIP3    H2 4819   4.843   5.145   0.203
 1648TIP3   OH2 4820   4.242   5.114   0.576
 1648TIP3    H1 4821   4.279   5.032   0.609
 1648TIP3    H2 4822   4.289   5.182   0.624
 1649TIP3   OH2 4823   4.209   5.504   0.261
 1649TIP3    H1 4824   4.191   5.411   0.276
 1649TIP3    H2 4825   4.304   5.510   0.257
 1650TIP3   OH2 4826   3.910   4.728   0.041
 1650TIP3    H1 4827   3.868   4.809   0.071
 1650TIP3    H2 4828   3.837   4.671   0.015
 1651TIP3   OH2 4829   3.988   5.034   0.266
 1651TIP3    H1 4830   4.038   4.957   0.292
 1651TIP3    H2 4831   4.054   5.101   0.249
 1652TIP3   OH2 4832   4.728   5.456   0.227
 1652TIP3    H1 4833   4.785   5.379   0.223
 1652TIP3    H2 4834   4.785   5.530   0.208
 1653TIP3   OH2 4835   5.755   4.738   0.285
 1653TIP3    H1 4836   5.758   4.831   0.305
 1653TIP3    H2 4837   5.757   4.734   0.189
 1654TIP3   OH2 4838   5.099   4.899   0.305
 1654TIP3    H1 4839   5.157   4.830   0.338
 1654TIP3    H2 4840   5.135   4.922   0.219
 1655TIP3   OH2 4841   4.495   4.591   0.223
 1655TIP3    H1 4842   4.468   4.663   0.165
 1655TIP3    H2 4843   4.440   4.517   0.197
 1656TIP3   OH2 4844   1.877   0.061   7.937
 1656TIP3    H1 4845   1.941   0.061   8.008
 1656TIP3    H2 4846   1.896  -0.020   7.888
 1657TIP3   OH2 4847   4.129   4.816   0.359
 1657TIP3    H1 4848   4.213   4.797   0.402
 1657TIP3    H2 4849   4.131   4.762   0.280
 1658TIP3   OH2 4850   4.574   4.984   0.150
 1658TIP3    H1 4851   4.661   4.947   0.164
 1658TIP3    H2 4852   4.521   4.911   0.118
 1659TIP3   OH2 4853   5.787   4.991   0.393
 1659TIP3    H1 4854   5.714   5.048   0.371
 1659TIP3    H2 4855   5.766   4.957   0.480
 1660TIP3   OH2 4856   4.459   4.596   0.688
 1660TIP3    H1 4857   4.413   4.636   0.614
 1660TIP3    H2 4858   4.401   4.612   0.763
 1661TIP3   OH2 4859   4.580   5.363   0.445
 1661TIP3    H1 4860   4.518   5.427   0.481
 1661TIP3    H2 4861   4.622   5.409   0.372
 1662TIP3   OH2 4862   5.326   4.702   0.138
 1662TIP3    H1 4863   5.310   4.679   0.229
 1662TIP3    H2 4864   5.390   4.772   0.141
 1663TIP3   OH2 4865   4.377   4.709   0.448
 1663TIP3    H1 4866   4.440   4.775   0.473
 1663TIP3    H2 4867   4.419   4.661   0.376
 1664TIP3   OH2 4868   4.410   5.554   0.552
 1664TIP3    H1 4869   4.400   5.645   0.522
 1664TIP3    H2 4870   4.333   5.538   0.606
 1665TIP3   OH2 4871   0.527   0.655   7.805
 1665TIP3    H1 4872   0.462   0.690   7.745
 1665TIP3    H2 4873   0.556   0.730   7.856
 1666TIP3   OH2 4874   5.276   5.705   0.008
 1666TIP3    H1 4875   5.238   5.725   0.093
 1666TIP3    H2 4876   5.296   5.790  -0.030
 1667TIP3   OH2 4877   5.475   5.649   0.420
 1667TIP3    H1 4878   5.421   5.581   0.380
 1667TIP3    H2 4879   5.412   5.707   0.462
 1668TIP3   OH2 4880   5.518   5.299   0.147
 1668TIP3    H1 4881   5.467   5.356   0.204
 1668TIP3    H2 4882   5.513   5.341   0.061
 1669TIP3   OH2 4883   5.315   5.183   0.522
 1669TIP3    H1 4884   5.315   5.254   0.586
 1669TIP3    H2 4885   5.232   5.192   0.476
 1670TIP3   OH2 4886   4.353   5.138   0.058
 1670TIP3    H1 4887   4.299   5.082   0.002
 1670TIP3    H2 4888   4.431   5.086   0.076
 1671TIP3   OH2 4889   4.472   5.546   0.178
 1671TIP3    H1 4890   4.450   5.530   0.087
 1671TIP3    H2 4891   4.561   5.511   0.188
 1672TIP3   OH2 4892   4.504   5.100   0.395
 1672TIP3    H1 4893   4.525   5.082   0.303
 1672TIP3    H2 4894   4.526   5.192   0.406
 1673TIP3   OH2 4895   4.897   5.703   0.198
 1673TIP3    H1 4896   4.854   5.763   0.259
 1673TIP3    H2 4897   4.945   5.642   0.255
 1674TIP3   OH2 4898   4.596   5.644   0.737
 1674TIP3    H1 4899   4.539   5.708   0.780
 1674TIP3    H2 4900   4.538   5.597   0.677
 1675TIP3   OH2 4901   4.365   5.228   0.821
 1675TIP3    H1 4902   4.377   5.314   0.861
 1675TIP3    H2 4903   4.275   5.204   0.845
 1676TIP3   OH2 4904   4.404   5.826   0.813
 1676TIP3    H1 4905   4.377   5.836   0.722
 1676TIP3    H2 4906   4.322   5.816   0.862
 1677TIP3   OH2 4907   0.914   0.360   7.904
 1677TIP3    H1 4908   0.855   0.403   7.842
 1677TIP3    H2 4909   0.868   0.280   7.930
 1678TIP3   OH2 4910   3.999   5.385   0.756
 1678TIP3    H1 4911   3.929   5.368   0.694
 1678TIP3    H2 4912   4.031   5.298   0.781
 1679TIP3   OH2 4913   3.846   5.590   0.407
 1679TIP3    H1 4914   3.936   5.612   0.429
 1679TIP3    H2 4915   3.795   5.665   0.437
 1680TIP3   OH2 4916   5.676   6.008   0.386
 1680TIP3    H1 4917   5.653   5.928   0.338
 1680TIP3    H2 4918   5.596   6.032   0.433
 1681TIP3   OH2 4919   4.789   5.777   0.602
 1681TIP3    H1 4920   4.790   5.867   0.636
 1681TIP3    H2 4921   4.719   5.734   0.650
 1682TIP3   OH2 4922   0.714   1.142   7.946
 1682TIP3    H1 4923   0.794   1.144   7.999
 1682TIP3    H2 4924   0.643   1.128   8.009
 1683TIP3   OH2 4925   5.594   5.123   0.792
 1683TIP3    H1 4926   5.513   5.103   0.746
 1683TIP3    H2 4927   5.632   5.038   0.814
 1684TIP3   OH2 4928   4.199   5.571   0.726
 1684TIP3    H1 4929   4.249   5.561   0.806
 1684TIP3    H2 4930   4.125   5.510   0.735
 1685TIP3   OH2 4931   4.569   4.389   0.544
 1685TIP3    H1 4932   4.488   4.351   0.510
 1685TIP3    H2 4933   4.540   4.464   0.596
 1686TIP3   OH2 4934   5.048   4.542   0.692
 1686TIP3    H1 4935   5.127   4.524   0.743
 1686TIP3    H2 4936   4.977   4.504   0.744
 1687TIP3   OH2 4937   5.398   4.968   0.677
 1687TIP3    H1 4938   5.330   4.924   0.727
 1687TIP3    H2 4939   5.351   5.024   0.616
 1688TIP3   OH2 4940   4.573   4.883   0.548
 1688TIP3    H1 4941   4.519   4.896   0.626
 1688TIP3    H2 4942   4.558   4.962   0.495
 1689TIP3   OH2 4943   4.408   4.786   0.054
 1689TIP3    H1 4944   4.318   4.769   0.081
 1689TIP3    H2 4945   4.412   4.756  -0.037
 1690TIP3   OH2 4946   5.062   5.150   0.886
 1690TIP3    H1 4947   5.034   5.080   0.945
 1690TIP3    H2 4948   5.155   5.161   0.905
 1691TIP3   OH2 4949   1.767   0.300   8.000
 1691TIP3    H1 4950   1.751   0.344   7.916
 1691TIP3    H2 4951   1.802   0.215   7.976
 1692TIP3   OH2 4952   4.375   4.918   0.745
 1692TIP3    H1 4953   4.376   4.990   0.808
 1692TIP3    H2 4954   4.347   4.842   0.795
 1693TIP3   OH2 4955   3.943   4.462   0.338
 1693TIP3    H1 4956   4.020   4.491   0.387
 1693TIP3    H2 4957   3.979   4.424   0.257
 1694TIP3   OH2 4958   7.144   9.046   7.857
 1694TIP3    H1 4959   7.183   9.079   7.776
 1694TIP3    H2 4960   7.084   9.114   7.885
 1695TIP3   OH2 4961   5.038   5.121   0.450
 1695TIP3    H1 4962   5.069   5.051   0.393
 1695TIP3    H2 4963   5.030   5.080   0.536
 1696TIP3   OH2 4964   4.754   4.625   0.120
 1696TIP3    H1 4965   4.674   4.602   0.166
 1696TIP3    H2 4966   4.782   4.707   0.159
 1697TIP3   OH2 4967   4.167   4.673   0.125
 1697TIP3    H1 4968   4.078   4.676   0.091
 1697TIP3    H2 4969   4.194   4.581   0.114
 1698TIP3   OH2 4970   1.170   0.057   7.801
 1698TIP3    H1 4971   1.266   0.053   7.808
 1698TIP3    H2 4972   1.153   0.112   7.725
 1699TIP3   OH2 4973   5.505   6.387   0.511
 1699TIP3    H1 4974   5.449   6.368   0.435
 1699TIP3    H2 4975   5.446   6.382   0.586
 1700TIP3   OH2 4976   4.363   5.482   0.952
 1700TIP3    H1 4977   4.443   5.500   1.001
 1700TIP3    H2 4978   4.293   5.487   1.017
 1701TIP3   OH2 4979   4.840   4.886   0.195
 1701TIP3    H1 4980   4.895   4.901   0.119
 1701TIP3    H2 4981   4.901   4.884   0.269
 1702TIP3   OH2 4982   4.304   4.424   0.104
 1702TIP3    H1 4983   4.279   4.344   0.149
 1702TIP3    H2 4984   4.320   4.397   0.013
 1703TIP3   OH2 4985   4.888   4.787   0.541
 1703TIP3    H1 4986   4.803   4.814   0.506
 1703TIP3    H2 4987   4.919   4.863   0.590
 1704TIP3   OH2 4988   5.343   5.492   0.234
 1704TIP3    H1 4989   5.295   5.575   0.235
 1704TIP3    H2 4990   5.275   5.425   0.225
 1705TIP3   OH2 4991   4.939   5.523   0.635
 1705TIP3    H1 4992   4.962   5.508   0.727
 1705TIP3    H2 4993   4.871   5.591   0.638
 1706TIP3   OH2 4994   4.208   5.214   0.282
 1706TIP3    H1 4995   4.263   5.194   0.206
 1706TIP3    H2 4996   4.257   5.178   0.356
 1707TIP3   OH2 4997   4.102   5.153   0.883
 1707TIP3    H1 4998   4.104   5.132   0.976
 1707TIP3    H2 4999   4.026   5.105   0.849
 1708TIP3   OH2 5000   4.825   5.295   0.911
 1708TIP3    H1 5001   4.758   5.234   0.880
 1708TIP3    H2 5002   4.908   5.254   0.886
 1709TIP3   OH2 5003   5.044   5.794   0.506
 1709TIP3    H1 5004   4.959   5.770   0.544
 1709TIP3    H2 5005   5.090   5.838   0.578
 1710TIP3   OH2 5006   5.724   5.716   0.501
 1710TIP3    H1 5007   5.633   5.692   0.482
 1710TIP3    H2 5008   5.773   5.636   0.483
 1711TIP3   OH2 5009   5.154   5.302   0.214
 1711TIP3    H1 5010   5.061   5.288   0.199
 1711TIP3    H2 5011   5.196   5.225   0.176
 1712TIP3   OH2 5012   1.090   0.939   7.928
 1712TIP3    H1 5013   1.112   1.018   7.879
 1712TIP3    H2 5014   0.996   0.946   7.944
 1713TIP3   OH2 5015   0.620   0.226   7.650
 1713TIP3    H1 5016   0.664   0.309   7.671
 1713TIP3    H2 5017   0.544   0.223   7.708
 1714TIP3   OH2 5018   1.205   0.690   7.872
 1714TIP3    H1 5019   1.170   0.778   7.883
 1714TIP3    H2 5020   1.162   0.637   7.939
 1715TIP3   OH2 5021   4.611   5.852   0.394
 1715TIP3    H1 5022   4.647   5.919   0.335
 1715TIP3    H2 5023   4.681   5.833   0.455
 1716TIP3   OH2 5024   4.996   5.509   0.363
 1716TIP3    H1 5025   4.973   5.497   0.455
 1716TIP3    H2 5026   5.061   5.441   0.346
 1717TIP3   OH2 5027   5.188   6.139   0.375
 1717TIP3    H1 5028   5.104   6.095   0.386
 1717TIP3    H2 5029   5.171   6.209   0.313
 1718TIP3   OH2 5030   4.299   4.687   0.890
 1718TIP3    H1 5031   4.204   4.698   0.895
 1718TIP3    H2 5032   4.323   4.649   0.974
 1719TIP3   OH2 5033   4.050   5.781   0.535
 1719TIP3    H1 5034   4.105   5.723   0.588
 1719TIP3    H2 5035   4.062   5.868   0.574
 1720TIP3   OH2 5036   0.725   0.476   7.726
 1720TIP3    H1 5037   0.657   0.531   7.763
 1720TIP3    H2 5038   0.775   0.533   7.668
 1721TIP3   OH2 5039   1.443   0.043   7.851
 1721TIP3    H1 5040   1.522   0.087   7.821
 1721TIP3    H2 5041   1.455   0.033   7.945
 1722TIP3   OH2 5042   5.037   4.967   0.683
 1722TIP3    H1 5043   5.019   5.043   0.739
 1722TIP3    H2 5044   5.100   4.916   0.733
 1723TIP3   OH2 5045   4.888   4.390   0.024
 1723TIP3    H1 5046   4.860   4.476   0.054
 1723TIP3    H2 5047   4.984   4.392   0.032
 1724TIP3   OH2 5048   7.640   9.017   7.827
 1724TIP3    H1 5049   7.636   9.112   7.813
 1724TIP3    H2 5050   7.733   8.996   7.822
 1725TIP3   OH2 5051   5.644   4.862   0.600
 1725TIP3    H1 5052   5.560   4.896   0.631
 1725TIP3    H2 5053   5.620   4.795   0.536
 1726TIP3   OH2 5054   5.251   5.070   0.106
 1726TIP3    H1 5055   5.197   5.021   0.044
 1726TIP3    H2 5056   5.336   5.025   0.106
 1727TIP3   OH2 5057   7.186   9.193   7.628
 1727TIP3    H1 5058   7.181   9.288   7.632
 1727TIP3    H2 5059   7.216   9.174   7.539
 1728TIP3   OH2 5060   4.316   4.293   0.492
 1728TIP3    H1 5061   4.289   4.259   0.407
 1728TIP3    H2 5062   4.310   4.218   0.551
 1729TIP3   OH2 5063   0.577   0.898   7.916
 1729TIP3    H1 5064   0.536   0.929   7.996
 1729TIP3    H2 5065   0.634   0.970   7.889
 1730TIP3   OH2 5066   4.046   6.086   0.955
 1730TIP3    H1 5067   4.128   6.094   1.004
 1730TIP3    H2 5068   4.032   5.992   0.946
 1731TIP3   OH2 5069   4.511   5.997   1.005
 1731TIP3    H1 5070   4.604   5.977   1.009
 1731TIP3    H2 5071   4.478   5.944   0.933
 1732TIP3   OH2 5072   5.126   5.920   0.736
 1732TIP3    H1 5073   5.120   5.851   0.802
 1732TIP3    H2 5074   5.172   5.992   0.780
 1733TIP3   OH2 5075   4.155   5.487   1.139
 1733TIP3    H1 5076   4.177   5.395   1.151
 1733TIP3    H2 5077   4.066   5.487   1.104
 1734TIP3   OH2 5078   4.777   5.568   0.926
 1734TIP3    H1 5079   4.716   5.584   0.854
 1734TIP3    H2 5080   4.800   5.476   0.918
 1735TIP3   OH2 5081   5.222   5.572   0.571
 1735TIP3    H1 5082   5.252   5.662   0.561
 1735TIP3    H2 5083   5.127   5.577   0.566
 1736TIP3   OH2 5084   4.269   5.233   1.153
 1736TIP3    H1 5085   4.324   5.158   1.132
 1736TIP3    H2 5086   4.296   5.258   1.241
 1737TIP3   OH2 5087   4.629   5.119   0.799
 1737TIP3    H1 5088   4.543   5.160   0.800
 1737TIP3    H2 5089   4.667   5.145   0.715
 1738TIP3   OH2 5090   5.109   5.466   0.898
 1738TIP3    H1 5091   5.174   5.421   0.844
 1738TIP3    H2 5092   5.111   5.419   0.981
 1739TIP3   OH2 5093   4.731   4.897   0.926
 1739TIP3    H1 5094   4.718   4.818   0.874
 1739TIP3    H2 5095   4.693   4.967   0.874
 1740TIP3   OH2 5096   4.709   4.676   0.756
 1740TIP3    H1 5097   4.741   4.710   0.672
 1740TIP3    H2 5098   4.619   4.649   0.738
 1741TIP3   OH2 5099   4.765   5.211   0.580
 1741TIP3    H1 5100   4.849   5.250   0.556
 1741TIP3    H2 5101   4.700   5.264   0.534
 1742TIP3   OH2 5102   5.324   5.154   0.985
 1742TIP3    H1 5103   5.381   5.076   0.983
 1742TIP3    H2 5104   5.385   5.228   0.980
 1743TIP3   OH2 5105   5.341   5.390   0.728
 1743TIP3    H1 5106   5.294   5.455   0.675
 1743TIP3    H2 5107   5.433   5.399   0.702
 1744TIP3   OH2 5108   4.616   4.971   1.171
 1744TIP3    H1 5109   4.543   4.913   1.191
 1744TIP3    H2 5110   4.642   4.947   1.082
 1745TIP3   OH2 5111   4.834   4.440   0.827
 1745TIP3    H1 5112   4.780   4.518   0.815
 1745TIP3    H2 5113   4.775   4.366   0.812
 1746TIP3   OH2 5114   4.989   4.925   1.021
 1746TIP3    H1 5115   4.983   4.911   1.116
 1746TIP3    H2 5116   4.901   4.909   0.989
 1747TIP3   OH2 5117   5.217   4.861   0.867
 1747TIP3    H1 5118   5.146   4.871   0.931
 1747TIP3    H2 5119   5.294   4.840   0.920
 1748TIP3   OH2 5120   5.474   4.848   1.025
 1748TIP3    H1 5121   5.480   4.753   1.037
 1748TIP3    H2 5122   5.463   4.882   1.114
 1749TIP3   OH2 5123   4.451   4.745   1.219
 1749TIP3    H1 5124   4.453   4.656   1.186
 1749TIP3    H2 5125   4.489   4.740   1.307
 1750TIP3   OH2 5126   4.931   4.428   1.085
 1750TIP3    H1 5127   5.000   4.362   1.076
 1750TIP3    H2 5128   4.892   4.432   0.997
 1751TIP3   OH2 5129   5.026   4.646   1.224
 1751TIP3    H1 5130   4.994   4.572   1.172
 1751TIP3    H2 5131   4.952   4.707   1.227
 1752TIP3   OH2 5132   0.367   1.227   7.968
 1752TIP3    H1 5133   0.300   1.176   7.922
 1752TIP3    H2 5134   0.405   1.165   8.030
 1753TIP3   OH2 5135   3.797   5.702   0.148
 1753TIP3    H1 5136   3.789   5.633   0.214
 1753TIP3    H2 5137   3.836   5.776   0.194
 1754TIP3   OH2 5138   5.559   6.174   0.192
 1754TIP3    H1 5139   5.542   6.119   0.116
 1754TIP3    H2 5140   5.571   6.112   0.264
 1755TIP3   OH2 5141   5.442   5.852   0.791
 1755TIP3    H1 5142   5.393   5.847   0.874
 1755TIP3    H2 5143   5.526   5.809   0.810
 1756TIP3   OH2 5144   5.328   5.962   0.214
 1756TIP3    H1 5145   5.302   6.029   0.278
 1756TIP3    H2 5146   5.258   5.964   0.148
 1757TIP3   OH2 5147   3.972   5.132   0.522
 1757TIP3    H1 5148   3.962   5.097   0.433
 1757TIP3    H2 5149   4.067   5.133   0.537
 1758TIP3   OH2 5150   5.599   5.433   0.640
 1758TIP3    H1 5151   5.664   5.363   0.631
 1758TIP3    H2 5152   5.588   5.468   0.552
 1759TIP3   OH2 5153   5.801   5.239   0.656
 1759TIP3    H1 5154   5.732   5.198   0.708
 1759TIP3    H2 5155   5.854   5.286   0.719
 1760TIP3   OH2 5156   5.488   4.929   0.131
 1760TIP3    H1 5157   5.552   4.940   0.061
 1760TIP3    H2 5158   5.524   4.978   0.205
 1761TIP3   OH2 5159   5.539   5.106   0.349
 1761TIP3    H1 5160   5.472   5.118   0.416
 1761TIP3    H2 5161   5.526   5.181   0.290
 1762TIP3   OH2 5162   4.187   4.808   1.155
 1762TIP3    H1 5163   4.278   4.813   1.183
 1762TIP3    H2 5164   4.152   4.731   1.200
 1763TIP3   OH2 5165   6.077   4.693   0.931
 1763TIP3    H1 5166   6.043   4.611   0.967
 1763TIP3    H2 5167   6.017   4.715   0.860
 1764TIP3   OH2 5168   4.164   4.523   0.493
 1764TIP3    H1 5169   4.213   4.443   0.506
 1764TIP3    H2 5170   4.230   4.591   0.482
 1765TIP3   OH2 5171   3.943   4.776   0.574
 1765TIP3    H1 5172   3.996   4.774   0.494
 1765TIP3    H2 5173   3.970   4.857   0.618
 1766TIP3   OH2 5174   5.891   4.771   0.740
 1766TIP3    H1 5175   5.821   4.833   0.761
 1766TIP3    H2 5176   5.850   4.707   0.682
 1767TIP3   OH2 5177   3.927   4.303   0.095
 1767TIP3    H1 5178   3.838   4.293   0.126
 1767TIP3    H2 5179   3.919   4.351   0.012
 1768TIP3   OH2 5180   4.144   4.346   0.900
 1768TIP3    H1 5181   4.098   4.344   0.984
 1768TIP3    H2 5182   4.088   4.399   0.843
 1769TIP3   OH2 5183   4.179   5.806   0.975
 1769TIP3    H1 5184   4.086   5.784   0.967
 1769TIP3    H2 5185   4.198   5.794   1.068
 1770TIP3   OH2 5186   4.378   5.829   0.533
 1770TIP3    H1 5187   4.321   5.891   0.487
 1770TIP3    H2 5188   4.463   5.839   0.492
 1771TIP3   OH2 5189   4.784   6.034   0.676
 1771TIP3    H1 5190   4.795   6.068   0.765
 1771TIP3    H2 5191   4.817   6.104   0.620
 1772TIP3   OH2 5192   4.923   6.214   0.517
 1772TIP3    H1 5193   4.995   6.218   0.580
 1772TIP3    H2 5194   4.862   6.282   0.547
 1773TIP3   OH2 5195   5.773   4.533   0.632
 1773TIP3    H1 5196   5.686   4.511   0.597
 1773TIP3    H2 5197   5.822   4.451   0.627
 1774TIP3   OH2 5198   4.050   6.087   0.561
 1774TIP3    H1 5199   3.958   6.104   0.541
 1774TIP3    H2 5200   4.073   6.155   0.624
 1775TIP3   OH2 5201   4.259   6.029   0.394
 1775TIP3    H1 5202   4.183   6.055   0.446
 1775TIP3    H2 5203   4.245   6.072   0.309
 1776TIP3   OH2 5204   4.667   6.033   0.198
 1776TIP3    H1 5205   4.592   6.048   0.140
 1776TIP3    H2 5206   4.679   6.117   0.243
 1777TIP3   OH2 5207   4.867   6.126   0.037
 1777TIP3    H1 5208   4.803   6.077   0.089
 1777TIP3    H2 5209   4.945   6.129   0.093
 1778TIP3   OH2 5210   3.972   5.878   0.283
 1778TIP3    H1 5211   3.991   5.852   0.373
 1778TIP3    H2 5212   4.044   5.842   0.232
 1779TIP3   OH2 5213   4.168   5.747   0.143
 1779TIP3    H1 5214   4.173   5.663   0.187
 1779TIP3    H2 5215   4.255   5.785   0.155
 1780TIP3   OH2 5216   4.430   5.819   0.176
 1780TIP3    H1 5217   4.451   5.725   0.172
 1780TIP3    H2 5218   4.482   5.851   0.250
 1781TIP3   OH2 5219   5.498   4.408   0.155
 1781TIP3    H1 5220   5.559   4.443   0.091
 1781TIP3    H2 5221   5.419   4.460   0.144
 1782TIP3   OH2 5222   8.947   9.080   7.962
 1782TIP3    H1 5223   9.024   9.024   7.964
 1782TIP3    H2 5224   8.980   9.166   7.936
 1783TIP3   OH2 5225   4.237   4.194   0.246
 1783TIP3    H1 5226   4.149   4.159   0.261
 1783TIP3    H2 5227   4.293   4.116   0.241
 1784TIP3   OH2 5228   7.291   8.716   7.937
 1784TIP3    H1 5229   7.334   8.766   7.869
 1784TIP3    H2 5230   7.265   8.781   8.003
 1785TIP3   OH2 5231   4.694   4.240   0.160
 1785TIP3    H1 5232   4.764   4.293   0.120
 1785TIP3    H2 5233   4.682   4.278   0.247
 1786TIP3   OH2 5234   5.189   4.340   0.070
 1786TIP3    H1 5235   5.255   4.296   0.016
 1786TIP3    H2 5236   5.195   4.297   0.155
 1787TIP3   OH2 5237   7.433   8.843   7.742
 1787TIP3    H1 5238   7.477   8.761   7.717
 1787TIP3    H2 5239   7.505   8.903   7.762
 1788TIP3   OH2 5240   7.917   9.011   7.819
 1788TIP3    H1 5241   7.981   8.977   7.882
 1788TIP3    H2 5242   7.938   9.104   7.812
 1789TIP3   OH2 5243   4.466   4.474   1.137
 1789TIP3    H1 5244   4.430   4.406   1.193
 1789TIP3    H2 5245   4.557   4.483   1.164
 1790TIP3   OH2 5246   4.713   4.482   1.263
 1790TIP3    H1 5247   4.791   4.456   1.214
 1790TIP3    H2 5248   4.701   4.413   1.328
 1791TIP3   OH2 5249   5.526   4.574   1.052
 1791TIP3    H1 5250   5.538   4.546   1.142
 1791TIP3    H2 5251   5.611   4.558   1.010
 1792TIP3   OH2 5252   5.436   6.091   0.474
 1792TIP3    H1 5253   5.353   6.130   0.446
 1792TIP3    H2 5254   5.448   6.123   0.564
 1793TIP3   OH2 5255   6.257   4.768   0.242
 1793TIP3    H1 5256   6.223   4.741   0.157
 1793TIP3    H2 5257   6.183   4.809   0.286
 1794TIP3   OH2 5258   6.137   5.494   0.376
 1794TIP3    H1 5259   6.230   5.508   0.390
 1794TIP3    H2 5260   6.129   5.468   0.285
 1795TIP3   OH2 5261   5.886   5.605   0.262
 1795TIP3    H1 5262   5.807   5.602   0.208
 1795TIP3    H2 5263   5.908   5.513   0.277
 1796TIP3   OH2 5264   6.062   5.775   0.147
 1796TIP3    H1 5265   6.126   5.794   0.215
 1796TIP3    H2 5266   6.012   5.701   0.181
 1797TIP3   OH2 5267   6.944   4.716   0.259
 1797TIP3    H1 5268   7.035   4.698   0.281
 1797TIP3    H2 5269   6.901   4.631   0.260
 1798TIP3   OH2 5270   6.819   5.380   0.465
 1798TIP3    H1 5271   6.818   5.292   0.503
 1798TIP3    H2 5272   6.911   5.395   0.442
 1799TIP3   OH2 5273   6.107   5.200   0.170
 1799TIP3    H1 5274   6.192   5.226   0.205
 1799TIP3    H2 5275   6.105   5.104   0.179
 1800TIP3   OH2 5276   6.203   5.651   0.637
 1800TIP3    H1 5277   6.258   5.728   0.625
 1800TIP3    H2 5278   6.125   5.669   0.586
 1801TIP3   OH2 5279   5.888   5.319   0.306
 1801TIP3    H1 5280   5.963   5.278   0.350
 1801TIP3    H2 5281   5.870   5.261   0.232
 1802TIP3   OH2 5282   6.625   5.429   0.283
 1802TIP3    H1 5283   6.675   5.497   0.238
 1802TIP3    H2 5284   6.683   5.397   0.352
 1803TIP3   OH2 5285   6.057   4.933   0.337
 1803TIP3    H1 5286   5.965   4.953   0.322
 1803TIP3    H2 5287   6.062   4.913   0.430
 1804TIP3   OH2 5288   9.245   9.127   7.994
 1804TIP3    H1 5289   9.316   9.146   7.932
 1804TIP3    H2 5290   9.284   9.068   8.058
 1805TIP3   OH2 5291   5.970   6.295   0.346
 1805TIP3    H1 5292   5.905   6.360   0.371
 1805TIP3    H2 5293   5.922   6.234   0.289
 1806TIP3   OH2 5294   6.290   6.285   0.370
 1806TIP3    H1 5295   6.305   6.250   0.457
 1806TIP3    H2 5296   6.255   6.211   0.320
 1807TIP3   OH2 5297   5.888   5.669   0.740
 1807TIP3    H1 5298   5.899   5.586   0.692
 1807TIP3    H2 5299   5.864   5.732   0.673
 1808TIP3   OH2 5300   6.523   5.803   0.406
 1808TIP3    H1 5301   6.542   5.801   0.313
 1808TIP3    H2 5302   6.580   5.737   0.444
 1809TIP3   OH2 5303   5.989   5.367   0.806
 1809TIP3    H1 5304   6.064   5.375   0.747
 1809TIP3    H2 5305   6.013   5.421   0.882
 1810TIP3   OH2 5306   6.329   5.356   0.213
 1810TIP3    H1 5307   6.362   5.379   0.299
 1810TIP3    H2 5308   6.338   5.436   0.161
 1811TIP3   OH2 5309   7.088   5.731   0.414
 1811TIP3    H1 5310   7.027   5.803   0.397
 1811TIP3    H2 5311   7.033   5.654   0.422
 1812TIP3   OH2 5312   6.565   5.149   0.449
 1812TIP3    H1 5313   6.558   5.054   0.456
 1812TIP3    H2 5314   6.541   5.168   0.358
 1813TIP3   OH2 5315   6.471   4.852   0.397
 1813TIP3    H1 5316   6.548   4.852   0.340
 1813TIP3    H2 5317   6.403   4.810   0.346
 1814TIP3   OH2 5318   7.078   5.445   0.441
 1814TIP3    H1 5319   7.125   5.388   0.501
 1814TIP3    H2 5320   7.146   5.482   0.384
 1815TIP3   OH2 5321   6.493   5.338   0.640
 1815TIP3    H1 5322   6.398   5.329   0.647
 1815TIP3    H2 5323   6.518   5.273   0.575
 1816TIP3   OH2 5324   6.682   4.587   0.292
 1816TIP3    H1 5325   6.687   4.678   0.264
 1816TIP3    H2 5326   6.591   4.562   0.275
 1817TIP3   OH2 5327   6.821   5.132   0.565
 1817TIP3    H1 5328   6.813   5.096   0.654
 1817TIP3    H2 5329   6.736   5.115   0.525
 1818TIP3   OH2 5330   7.039   5.071   0.343
 1818TIP3    H1 5331   6.945   5.088   0.336
 1818TIP3    H2 5332   7.046   5.010   0.417
 1819TIP3   OH2 5333   7.348   5.046   0.574
 1819TIP3    H1 5334   7.336   4.952   0.560
 1819TIP3    H2 5335   7.329   5.058   0.668
 1820TIP3   OH2 5336   6.245   4.909   0.856
 1820TIP3    H1 5337   6.303   4.953   0.794
 1820TIP3    H2 5338   6.171   4.969   0.867
 1821TIP3   OH2 5339   6.754   4.630   0.563
 1821TIP3    H1 5340   6.840   4.588   0.557
 1821TIP3    H2 5341   6.712   4.611   0.479
 1822TIP3   OH2 5342   6.713   4.784   0.815
 1822TIP3    H1 5343   6.732   4.697   0.778
 1822TIP3    H2 5344   6.677   4.834   0.742
 1823TIP3   OH2 5345   6.020   5.069   0.850
 1823TIP3    H1 5346   5.991   5.059   0.759
 1823TIP3    H2 5347   5.941   5.098   0.897
 1824TIP3   OH2 5348   5.831   4.737   0.015
 1824TIP3    H1 5349   5.879   4.655   0.009
 1824TIP3    H2 5350   5.899   4.804   0.024
 1825TIP3   OH2 5351   2.414   0.339   7.931
 1825TIP3    H1 5352   2.459   0.255   7.943
 1825TIP3    H2 5353   2.469   0.402   7.978
 1826TIP3   OH2 5354   5.948   4.602   0.420
 1826TIP3    H1 5355   5.892   4.577   0.493
 1826TIP3    H2 5356   5.890   4.645   0.358
 1827TIP3   OH2 5357   5.945   6.008   0.412
 1827TIP3    H1 5358   5.851   6.011   0.398
 1827TIP3    H2 5359   5.960   6.059   0.491
 1828TIP3   OH2 5360   7.331   4.774   0.530
 1828TIP3    H1 5361   7.342   4.745   0.621
 1828TIP3    H2 5362   7.420   4.776   0.495
 1829TIP3   OH2 5363   9.644   5.815   2.217
 1829TIP3    H1 5364   9.622   5.721   2.212
 1829TIP3    H2 5365   9.675   5.827   2.307
 1830TIP3   OH2 5366   0.295   5.757   2.091
 1830TIP3    H1 5367   0.355   5.693   2.054
 1830TIP3    H2 5368   0.257   5.801   2.015
 1831TIP3   OH2 5369   0.131   5.870   1.900
 1831TIP3    H1 5370   0.070   5.917   1.956
 1831TIP3    H2 5371   0.079   5.799   1.862
 1832TIP3   OH2 5372   0.042   5.602   1.819
 1832TIP3    H1 5373  -0.050   5.580   1.807
 1832TIP3    H2 5374   0.090   5.521   1.800
 1833TIP3   OH2 5375   9.607   5.536   2.187
 1833TIP3    H1 5376   9.592   5.528   2.281
 1833TIP3    H2 5377   9.703   5.537   2.178
 1834TIP3   OH2 5378   1.819   6.065   0.911
 1834TIP3    H1 5379   1.841   6.145   0.959
 1834TIP3    H2 5380   1.844   6.084   0.820
 1835TIP3   OH2 5381   1.185   6.268   0.988
 1835TIP3    H1 5382   1.213   6.178   1.006
 1835TIP3    H2 5383   1.221   6.288   0.902
 1836TIP3   OH2 5384   1.886   6.277   1.081
 1836TIP3    H1 5385   1.798   6.313   1.072
 1836TIP3    H2 5386   1.920   6.315   1.162
 1837TIP3   OH2 5387   0.557   5.828   1.365
 1837TIP3    H1 5388   0.478   5.806   1.316
 1837TIP3    H2 5389   0.528   5.831   1.456
 1838TIP3   OH2 5390   1.386   6.035   0.706
 1838TIP3    H1 5391   1.366   5.976   0.779
 1838TIP3    H2 5392   1.458   6.090   0.738
 1839TIP3   OH2 5393   1.604   5.967   1.080
 1839TIP3    H1 5394   1.517   5.994   1.049
 1839TIP3    H2 5395   1.664   5.993   1.010
 1840TIP3   OH2 5396   0.896   5.614   1.078
 1840TIP3    H1 5397   0.884   5.520   1.065
 1840TIP3    H2 5398   0.808   5.647   1.097
 1841TIP3   OH2 5399   1.500   6.999   1.069
 1841TIP3    H1 5400   1.490   6.923   1.012
 1841TIP3    H2 5401   1.445   7.066   1.029
 1842TIP3   OH2 5402   1.723   6.618   0.917
 1842TIP3    H1 5403   1.645   6.672   0.929
 1842TIP3    H2 5404   1.763   6.650   0.836
 1843TIP3   OH2 5405   1.446   6.486   1.236
 1843TIP3    H1 5406   1.458   6.566   1.287
 1843TIP3    H2 5407   1.360   6.496   1.195
 1844TIP3   OH2 5408   1.786   7.326   1.154
 1844TIP3    H1 5409   1.775   7.231   1.156
 1844TIP3    H2 5410   1.697   7.360   1.164
 1845TIP3   OH2 5411   1.661   6.439   1.408
 1845TIP3    H1 5412   1.589   6.436   1.345
 1845TIP3    H2 5413   1.681   6.347   1.427
 1846TIP3   OH2 5414   0.637   5.696   1.140
 1846TIP3    H1 5415   0.546   5.671   1.123
 1846TIP3    H2 5416   0.634   5.743   1.224
 1847TIP3   OH2 5417   1.173   5.815   1.409
 1847TIP3    H1 5418   1.249   5.791   1.461
 1847TIP3    H2 5419   1.099   5.779   1.456
 1848TIP3   OH2 5420   1.390   6.222   1.314
 1848TIP3    H1 5421   1.358   6.227   1.404
 1848TIP3    H2 5422   1.396   6.314   1.287
 1849TIP3   OH2 5423   1.125   6.456   1.552
 1849TIP3    H1 5424   1.103   6.383   1.610
 1849TIP3    H2 5425   1.218   6.472   1.568
 1850TIP3   OH2 5426   1.187   6.524   1.165
 1850TIP3    H1 5427   1.198   6.515   1.070
 1850TIP3    H2 5428   1.136   6.447   1.190
 1851TIP3   OH2 5429   1.273   6.001   1.029
 1851TIP3    H1 5430   1.241   6.020   1.117
 1851TIP3    H2 5431   1.220   5.927   0.999
 1852TIP3   OH2 5432   0.830   6.144   1.207
 1852TIP3    H1 5433   0.754   6.158   1.151
 1852TIP3    H2 5434   0.892   6.095   1.152
 1853TIP3   OH2 5435   1.484   6.759   0.913
 1853TIP3    H1 5436   1.476   6.769   0.818
 1853TIP3    H2 5437   1.419   6.693   0.936
 1854TIP3   OH2 5438   0.900   6.613   1.577
 1854TIP3    H1 5439   0.840   6.539   1.568
 1854TIP3    H2 5440   0.987   6.576   1.561
 1855TIP3   OH2 5441   1.763   7.036   1.131
 1855TIP3    H1 5442   1.668   7.034   1.124
 1855TIP3    H2 5443   1.794   7.011   1.043
 1856TIP3   OH2 5444   0.419   5.945   1.594
 1856TIP3    H1 5445   0.347   5.996   1.631
 1856TIP3    H2 5446   0.450   5.890   1.666
 1857TIP3   OH2 5447   1.163   6.067   1.281
 1857TIP3    H1 5448   1.250   6.102   1.301
 1857TIP3    H2 5449   1.160   5.983   1.327
 1858TIP3   OH2 5450   1.041   6.324   1.321
 1858TIP3    H1 5451   1.076   6.366   1.399
 1858TIP3    H2 5452   1.082   6.238   1.319
 1859TIP3   OH2 5453   1.655   6.157   1.298
 1859TIP3    H1 5454   1.561   6.171   1.309
 1859TIP3    H2 5455   1.662   6.098   1.223
 1860TIP3   OH2 5456   1.299   6.323   0.744
 1860TIP3    H1 5457   1.304   6.368   0.660
 1860TIP3    H2 5458   1.386   6.285   0.756
 1861TIP3   OH2 5459   1.259   7.226   1.402
 1861TIP3    H1 5460   1.229   7.176   1.478
 1861TIP3    H2 5461   1.322   7.288   1.437
 1862TIP3   OH2 5462   0.799   6.874   1.642
 1862TIP3    H1 5463   0.726   6.896   1.584
 1862TIP3    H2 5464   0.832   6.791   1.609
 1863TIP3   OH2 5465   1.339   6.955   1.293
 1863TIP3    H1 5466   1.410   6.986   1.237
 1863TIP3    H2 5467   1.313   7.032   1.343
 1864TIP3   OH2 5468   0.313   6.607   1.843
 1864TIP3    H1 5469   0.370   6.557   1.784
 1864TIP3    H2 5470   0.358   6.604   1.927
 1865TIP3   OH2 5471   1.218   6.793   1.615
 1865TIP3    H1 5472   1.313   6.791   1.615
 1865TIP3    H2 5473   1.192   6.725   1.678
 1866TIP3   OH2 5474   0.799   6.164   1.577
 1866TIP3    H1 5475   0.825   6.078   1.543
 1866TIP3    H2 5476   0.719   6.185   1.529
 1867TIP3   OH2 5477   0.807   5.942   1.402
 1867TIP3    H1 5478   0.820   6.010   1.336
 1867TIP3    H2 5479   0.718   5.911   1.386
 1868TIP3   OH2 5480   1.396   6.469   1.642
 1868TIP3    H1 5481   1.421   6.376   1.644
 1868TIP3    H2 5482   1.474   6.513   1.607
 1869TIP3   OH2 5483   1.464   6.723   1.370
 1869TIP3    H1 5484   1.404   6.793   1.346
 1869TIP3    H2 5485   1.548   6.750   1.334
 1870TIP3   OH2 5486   0.670   6.263   1.815
 1870TIP3    H1 5487   0.597   6.206   1.836
 1870TIP3    H2 5488   0.699   6.235   1.728
 1871TIP3   OH2 5489   0.920   5.708   1.487
 1871TIP3    H1 5490   0.883   5.791   1.455
 1871TIP3    H2 5491   0.854   5.642   1.464
 1872TIP3   OH2 5492   1.042   6.236   1.691
 1872TIP3    H1 5493   1.031   6.218   1.784
 1872TIP3    H2 5494   0.958   6.210   1.652
 1873TIP3   OH2 5495   1.290   6.199   1.563
 1873TIP3    H1 5496   1.210   6.193   1.616
 1873TIP3    H2 5497   1.358   6.162   1.619
 1874TIP3   OH2 5498   1.520   6.143   1.709
 1874TIP3    H1 5499   1.533   6.048   1.716
 1874TIP3    H2 5500   1.515   6.173   1.799
 1875TIP3   OH2 5501   0.492   6.056   1.897
 1875TIP3    H1 5502   0.501   5.966   1.866
 1875TIP3    H2 5503   0.531   6.055   1.984
 1876TIP3   OH2 5504   0.979   5.724   1.755
 1876TIP3    H1 5505   1.051   5.661   1.757
 1876TIP3    H2 5506   0.948   5.722   1.665
 1877TIP3   OH2 5507   1.073   5.946   1.892
 1877TIP3    H1 5508   1.042   5.872   1.839
 1877TIP3    H2 5509   0.999   6.006   1.894
 1878TIP3   OH2 5510   1.635   7.128   1.455
 1878TIP3    H1 5511   1.565   7.137   1.520
 1878TIP3    H2 5512   1.680   7.213   1.457
 1879TIP3   OH2 5513   1.708   6.793   1.274
 1879TIP3    H1 5514   1.770   6.722   1.255
 1879TIP3    H2 5515   1.734   6.863   1.215
 1880TIP3   OH2 5516   1.861   6.564   1.269
 1880TIP3    H1 5517   1.789   6.526   1.319
 1880TIP3    H2 5518   1.935   6.506   1.285
 1881TIP3   OH2 5519   1.554   6.235   0.813
 1881TIP3    H1 5520   1.632   6.258   0.763
 1881TIP3    H2 5521   1.568   6.272   0.900
 1882TIP3   OH2 5522   1.631   6.387   1.039
 1882TIP3    H1 5523   1.567   6.418   1.103
 1882TIP3    H2 5524   1.664   6.467   0.997
 1883TIP3   OH2 5525   0.243   6.083   1.764
 1883TIP3    H1 5526   0.323   6.100   1.815
 1883TIP3    H2 5527   0.200   6.011   1.811
 1884TIP3   OH2 5528   2.075   6.001   1.587
 1884TIP3    H1 5529   2.141   5.944   1.548
 1884TIP3    H2 5530   2.037   6.049   1.512
 1885TIP3   OH2 5531   1.528   5.749   0.359
 1885TIP3    H1 5532   1.551   5.781   0.446
 1885TIP3    H2 5533   1.540   5.654   0.365
 1886TIP3   OH2 5534   1.924   6.112   1.387
 1886TIP3    H1 5535   1.841   6.151   1.416
 1886TIP3    H2 5536   1.898   6.038   1.333
 1887TIP3   OH2 5537   0.195   5.679   1.592
 1887TIP3    H1 5538   0.147   5.673   1.675
 1887TIP3    H2 5539   0.173   5.597   1.546
 1888TIP3   OH2 5540   1.837   5.861   1.286
 1888TIP3    H1 5541   1.747   5.846   1.256
 1888TIP3    H2 5542   1.878   5.775   1.283
 1889TIP3   OH2 5543   1.100   5.792   0.978
 1889TIP3    H1 5544   1.024   5.740   1.005
 1889TIP3    H2 5545   1.139   5.743   0.906
 1890TIP3   OH2 5546   1.574   5.692   0.809
 1890TIP3    H1 5547   1.603   5.753   0.741
 1890TIP3    H2 5548   1.478   5.696   0.806
 1891TIP3   OH2 5549   1.675   5.809   0.585
 1891TIP3    H1 5550   1.746   5.749   0.562
 1891TIP3    H2 5551   1.707   5.894   0.556
 1892TIP3   OH2 5552   1.305   5.671   0.790
 1892TIP3    H1 5553   1.242   5.706   0.727
 1892TIP3    H2 5554   1.262   5.592   0.825
 1893TIP3   OH2 5555   0.519   5.785   1.813
 1893TIP3    H1 5556   0.483   5.714   1.867
 1893TIP3    H2 5557   0.611   5.791   1.840
 1894TIP3   OH2 5558   0.766   5.781   1.935
 1894TIP3    H1 5559   0.842   5.758   1.882
 1894TIP3    H2 5560   0.759   5.712   2.000
 1895TIP3   OH2 5561   1.582   5.873   1.711
 1895TIP3    H1 5562   1.598   5.842   1.800
 1895TIP3    H2 5563   1.667   5.868   1.668
 1896TIP3   OH2 5564   1.525   7.404   1.166
 1896TIP3    H1 5565   1.445   7.352   1.167
 1896TIP3    H2 5566   1.506   7.480   1.221
 1897TIP3   OH2 5567   9.284   2.128   8.016
 1897TIP3    H1 5568   9.276   2.223   8.016
 1897TIP3    H2 5569   9.219   2.098   7.952
 1898TIP3   OH2 5570   2.775   6.781   0.380
 1898TIP3    H1 5571   2.824   6.761   0.460
 1898TIP3    H2 5572   2.734   6.698   0.355
 1899TIP3   OH2 5573   2.103   6.665   0.729
 1899TIP3    H1 5574   2.119   6.592   0.790
 1899TIP3    H2 5575   2.181   6.719   0.736
 1900TIP3   OH2 5576   2.981   7.096   0.075
 1900TIP3    H1 5577   2.996   7.027   0.140
 1900TIP3    H2 5578   3.032   7.170   0.107
 1901TIP3   OH2 5579   2.095   7.067   0.489
 1901TIP3    H1 5580   2.095   6.971   0.489
 1901TIP3    H2 5581   2.184   7.091   0.464
 1902TIP3   OH2 5582   1.835   6.581   0.446
 1902TIP3    H1 5583   1.898   6.519   0.485
 1902TIP3    H2 5584   1.873   6.603   0.361
 1903TIP3   OH2 5585   2.785   7.535   0.054
 1903TIP3    H1 5586   2.799   7.441   0.058
 1903TIP3    H2 5587   2.712   7.551   0.113
 1904TIP3   OH2 5588   2.598   7.002   0.400
 1904TIP3    H1 5589   2.641   6.921   0.372
 1904TIP3    H2 5590   2.670   7.058   0.431
 1905TIP3   OH2 5591   3.616   6.331   0.411
 1905TIP3    H1 5592   3.627   6.413   0.459
 1905TIP3    H2 5593   3.651   6.349   0.324
 1906TIP3   OH2 5594   2.989   6.489   0.431
 1906TIP3    H1 5595   3.020   6.402   0.455
 1906TIP3    H2 5596   2.955   6.478   0.342
 1907TIP3   OH2 5597   2.342   6.146   0.369
 1907TIP3    H1 5598   2.322   6.221   0.313
 1907TIP3    H2 5599   2.287   6.075   0.335
 1908TIP3   OH2 5600   3.024   6.261   0.034
 1908TIP3    H1 5601   3.087   6.243   0.104
 1908TIP3    H2 5602   3.075   6.301  -0.036
 1909TIP3   OH2 5603   1.992   6.372   0.527
 1909TIP3    H1 5604   2.076   6.347   0.565
 1909TIP3    H2 5605   1.990   6.329   0.442
 1910TIP3   OH2 5606   2.406   6.553   0.311
 1910TIP3    H1 5607   2.500   6.538   0.322
 1910TIP3    H2 5608   2.372   6.470   0.277
 1911TIP3   OH2 5609   3.658   6.544   0.584
 1911TIP3    H1 5610   3.570   6.581   0.576
 1911TIP3    H2 5611   3.696   6.586   0.661
 1912TIP3   OH2 5612   2.329   6.146   0.838
 1912TIP3    H1 5613   2.277   6.178   0.764
 1912TIP3    H2 5614   2.275   6.163   0.915
 1913TIP3   OH2 5615   9.308   2.393   7.917
 1913TIP3    H1 5616   9.359   2.350   7.849
 1913TIP3    H2 5617   9.373   2.432   7.975
 1914TIP3   OH2 5618   2.438   6.923   0.612
 1914TIP3    H1 5619   2.383   6.993   0.646
 1914TIP3    H2 5620   2.486   6.963   0.539
 1915TIP3   OH2 5621   3.199   6.259   0.248
 1915TIP3    H1 5622   3.153   6.243   0.330
 1915TIP3    H2 5623   3.252   6.337   0.264
 1916TIP3   OH2 5624   2.225   6.244   0.602
 1916TIP3    H1 5625   2.283   6.315   0.628
 1916TIP3    H2 5626   2.268   6.204   0.527
 1917TIP3   OH2 5627   2.289   7.124   0.722
 1917TIP3    H1 5628   2.275   7.216   0.699
 1917TIP3    H2 5629   2.209   7.098   0.767
 1918TIP3   OH2 5630   3.086   7.346   0.197
 1918TIP3    H1 5631   3.000   7.331   0.237
 1918TIP3    H2 5632   3.080   7.432   0.157
 1919TIP3   OH2 5633   3.410   6.211   0.566
 1919TIP3    H1 5634   3.325   6.234   0.528
 1919TIP3    H2 5635   3.474   6.242   0.502
 1920TIP3   OH2 5636   2.667   5.848   0.566
 1920TIP3    H1 5637   2.662   5.756   0.591
 1920TIP3    H2 5638   2.589   5.888   0.603
 1921TIP3   OH2 5639   3.311   7.219   0.545
 1921TIP3    H1 5640   3.289   7.147   0.486
 1921TIP3    H2 5641   3.297   7.298   0.494
 1922TIP3   OH2 5642   9.137   2.033   7.797
 1922TIP3    H1 5643   9.066   2.080   7.753
 1922TIP3    H2 5644   9.189   1.997   7.725
 1923TIP3   OH2 5645   3.466   6.860   0.374
 1923TIP3    H1 5646   3.386   6.912   0.380
 1923TIP3    H2 5647   3.500   6.877   0.286
 1924TIP3   OH2 5648   9.464   1.970   7.875
 1924TIP3    H1 5649   9.421   2.040   7.924
 1924TIP3    H2 5650   9.556   1.996   7.871
 1925TIP3   OH2 5651   3.184   6.748   0.715
 1925TIP3    H1 5652   3.179   6.830   0.764
 1925TIP3    H2 5653   3.102   6.744   0.666
 1926TIP3   OH2 5654   2.186   6.690   0.224
 1926TIP3    H1 5655   2.116   6.627   0.204
 1926TIP3    H2 5656   2.260   6.635   0.250
 1927TIP3   OH2 5657   2.345   7.108   0.355
 1927TIP3    H1 5658   2.356   7.183   0.298
 1927TIP3    H2 5659   2.433   7.071   0.365
 1928TIP3   OH2 5660   2.356   6.667   0.561
 1928TIP3    H1 5661   2.377   6.645   0.470
 1928TIP3    H2 5662   2.383   6.759   0.569
 1929TIP3   OH2 5663   2.849   7.315   0.319
 1929TIP3    H1 5664   2.824   7.397   0.362
 1929TIP3    H2 5665   2.833   7.248   0.384
 1930TIP3   OH2 5666   2.475   7.233   0.890
 1930TIP3    H1 5667   2.413   7.292   0.933
 1930TIP3    H2 5668   2.420   7.179   0.832
 1931TIP3   OH2 5669   2.221   6.793   0.997
 1931TIP3    H1 5670   2.222   6.884   1.026
 1931TIP3    H2 5671   2.129   6.767   1.002
 1932TIP3   OH2 5672   2.269   7.392   0.975
 1932TIP3    H1 5673   2.242   7.401   0.884
 1932TIP3    H2 5674   2.188   7.367   1.021
 1933TIP3   OH2 5675   1.855   6.922   0.897
 1933TIP3    H1 5676   1.832   6.882   0.813
 1933TIP3    H2 5677   1.895   6.851   0.948
 1934TIP3   OH2 5678   3.526   7.598   0.630
 1934TIP3    H1 5679   3.529   7.502   0.627
 1934TIP3    H2 5680   3.437   7.617   0.659
 1935TIP3   OH2 5681   2.654   7.374   0.742
 1935TIP3    H1 5682   2.649   7.466   0.768
 1935TIP3    H2 5683   2.589   7.330   0.796
 1936TIP3   OH2 5684   3.424   6.702   0.888
 1936TIP3    H1 5685   3.344   6.707   0.835
 1936TIP3    H2 5686   3.446   6.609   0.890
 1937TIP3   OH2 5687   2.065   7.098   0.872
 1937TIP3    H1 5688   2.104   7.098   0.960
 1937TIP3    H2 5689   1.986   7.046   0.881
 1938TIP3   OH2 5690   2.427   5.936   0.685
 1938TIP3    H1 5691   2.342   5.905   0.654
 1938TIP3    H2 5692   2.408   6.015   0.736
 1939TIP3   OH2 5693   2.972   6.059   0.890
 1939TIP3    H1 5694   3.043   6.034   0.950
 1939TIP3    H2 5695   2.892   6.042   0.939
 1940TIP3   OH2 5696   3.189   6.482   0.804
 1940TIP3    H1 5697   3.148   6.478   0.890
 1940TIP3    H2 5698   3.171   6.571   0.773
 1941TIP3   OH2 5699   9.188   1.370   7.656
 1941TIP3    H1 5700   9.138   1.355   7.737
 1941TIP3    H2 5701   9.124   1.361   7.586
 1942TIP3   OH2 5702   2.377   6.444   0.707
 1942TIP3    H1 5703   2.328   6.460   0.788
 1942TIP3    H2 5704   2.368   6.525   0.657
 1943TIP3   OH2 5705   2.254   6.347   0.202
 1943TIP3    H1 5706   2.164   6.326   0.227
 1943TIP3    H2 5707   2.258   6.324   0.109
 1944TIP3   OH2 5708   9.249   1.817   7.939
 1944TIP3    H1 5709   9.189   1.883   7.903
 1944TIP3    H2 5710   9.335   1.843   7.906
 1945TIP3   OH2 5711   2.918   6.693   1.019
 1945TIP3    H1 5712   2.888   6.626   1.080
 1945TIP3    H2 5713   3.010   6.706   1.040
 1946TIP3   OH2 5714   2.890   6.458   0.177
 1946TIP3    H1 5715   2.828   6.497   0.116
 1946TIP3    H2 5716   2.927   6.384   0.129
 1947TIP3   OH2 5717   2.196   6.475   0.917
 1947TIP3    H1 5718   2.246   6.529   0.977
 1947TIP3    H2 5719   2.181   6.393   0.965
 1948TIP3   OH2 5720   8.761   1.409   7.653
 1948TIP3    H1 5721   8.774   1.365   7.736
 1948TIP3    H2 5722   8.755   1.339   7.589
 1949TIP3   OH2 5723   1.799   6.015   0.454
 1949TIP3    H1 5724   1.856   6.055   0.520
 1949TIP3    H2 5725   1.858   5.962   0.401
 1950TIP3   OH2 5726   2.932   6.693   0.597
 1950TIP3    H1 5727   2.959   6.626   0.535
 1950TIP3    H2 5728   2.890   6.645   0.668
 1951TIP3   OH2 5729   2.618   6.141   0.279
 1951TIP3    H1 5730   2.537   6.140   0.330
 1951TIP3    H2 5731   2.688   6.132   0.344
 1952TIP3   OH2 5732   2.015   6.235   0.285
 1952TIP3    H1 5733   1.920   6.245   0.276
 1952TIP3    H2 5734   2.031   6.143   0.265
 1953TIP3   OH2 5735   8.841   1.624   7.942
 1953TIP3    H1 5736   8.928   1.615   7.981
 1953TIP3    H2 5737   8.857   1.661   7.855
 1954TIP3   OH2 5738   3.056   6.226   0.485
 1954TIP3    H1 5739   3.037   6.244   0.577
 1954TIP3    H2 5740   2.988   6.164   0.458
 1955TIP3   OH2 5741   3.252   7.938   0.699
 1955TIP3    H1 5742   3.250   7.953   0.605
 1955TIP3    H2 5743   3.327   7.989   0.730
 1956TIP3   OH2 5744   2.201   7.042   1.118
 1956TIP3    H1 5745   2.282   7.065   1.164
 1956TIP3    H2 5746   2.131   7.064   1.179
 1957TIP3   OH2 5747   2.671   6.508   0.373
 1957TIP3    H1 5748   2.742   6.465   0.325
 1957TIP3    H2 5749   2.671   6.465   0.459
 1958TIP3   OH2 5750   2.143   5.979   0.243
 1958TIP3    H1 5751   2.120   5.905   0.298
 1958TIP3    H2 5752   2.161   5.941   0.157
 1959TIP3   OH2 5753   2.643   6.409   0.636
 1959TIP3    H1 5754   2.555   6.433   0.664
 1959TIP3    H2 5755   2.701   6.459   0.693
 1960TIP3   OH2 5756   3.242   7.022   0.366
 1960TIP3    H1 5757   3.282   7.064   0.290
 1960TIP3    H2 5758   3.162   6.982   0.333
 1961TIP3   OH2 5759   2.779   7.107   0.778
 1961TIP3    H1 5760   2.828   7.097   0.860
 1961TIP3    H2 5761   2.737   7.193   0.785
 1962TIP3   OH2 5762   2.101   6.796   0.465
 1962TIP3    H1 5763   2.128   6.746   0.388
 1962TIP3    H2 5764   2.112   6.734   0.538
 1963TIP3   OH2 5765   1.958   6.720   1.050
 1963TIP3    H1 5766   1.974   6.703   1.143
 1963TIP3    H2 5767   1.891   6.657   1.025
 1964TIP3   OH2 5768   2.693   6.855   1.049
 1964TIP3    H1 5769   2.638   6.828   0.976
 1964TIP3    H2 5770   2.777   6.810   1.034
 1965TIP3   OH2 5771   2.923   7.391   0.661
 1965TIP3    H1 5772   2.828   7.379   0.664
 1965TIP3    H2 5773   2.944   7.430   0.746
 1966TIP3   OH2 5774   3.551   7.320   0.634
 1966TIP3    H1 5775   3.457   7.298   0.635
 1966TIP3    H2 5776   3.584   7.282   0.553
 1967TIP3   OH2 5777   3.017   6.891   0.265
 1967TIP3    H1 5778   2.929   6.865   0.294
 1967TIP3    H2 5779   3.056   6.809   0.233
 1968TIP3   OH2 5780   2.344   6.839   0.023
 1968TIP3    H1 5781   2.305   6.905   0.080
 1968TIP3    H2 5782   2.327   6.756   0.069
 1969TIP3   OH2 5783   2.466   7.449   0.544
 1969TIP3    H1 5784   2.512   7.520   0.499
 1969TIP3    H2 5785   2.532   7.409   0.600
 1970TIP3   OH2 5786   2.830   7.108   0.507
 1970TIP3    H1 5787   2.813   7.106   0.601
 1970TIP3    H2 5788   2.914   7.063   0.497
 1971TIP3   OH2 5789   3.058   7.612   0.547
 1971TIP3    H1 5790   2.992   7.543   0.560
 1971TIP3    H2 5791   3.030   7.657   0.468
 1972TIP3   OH2 5792   2.161   6.223   1.045
 1972TIP3    H1 5793   2.066   6.230   1.051
 1972TIP3    H2 5794   2.186   6.172   1.122
 1973TIP3   OH2 5795   1.983   7.310   0.653
 1973TIP3    H1 5796   2.012   7.218   0.654
 1973TIP3    H2 5797   1.907   7.311   0.710
 1974TIP3   OH2 5798   2.996   6.291   0.744
 1974TIP3    H1 5799   3.075   6.336   0.774
 1974TIP3    H2 5800   2.989   6.214   0.800
 1975TIP3   OH2 5801   9.407   1.428   7.930
 1975TIP3    H1 5802   9.376   1.454   7.843
 1975TIP3    H2 5803   9.458   1.504   7.960
 1976TIP3   OH2 5804   2.566   6.226   0.022
 1976TIP3    H1 5805   2.625   6.296  -0.007
 1976TIP3    H2 5806   2.592   6.210   0.113
 1977TIP3   OH2 5807   2.839   6.527   0.795
 1977TIP3    H1 5808   2.865   6.570   0.877
 1977TIP3    H2 5809   2.889   6.446   0.794
 1978TIP3   OH2 5810   2.716   5.932   0.117
 1978TIP3    H1 5811   2.690   6.008   0.169
 1978TIP3    H2 5812   2.780   5.966   0.055
 1979TIP3   OH2 5813   8.798   1.332   7.924
 1979TIP3    H1 5814   8.791   1.424   7.947
 1979TIP3    H2 5815   8.893   1.315   7.920
 1980TIP3   OH2 5816   3.453   6.428   0.793
 1980TIP3    H1 5817   3.358   6.435   0.801
 1980TIP3    H2 5818   3.468   6.381   0.711
 1981TIP3   OH2 5819   3.119   6.639   0.193
 1981TIP3    H1 5820   3.043   6.581   0.190
 1981TIP3    H2 5821   3.184   6.590   0.243
 1982TIP3   OH2 5822   3.107   7.608   0.082
 1982TIP3    H1 5823   3.104   7.565  -0.003
 1982TIP3    H2 5824   3.196   7.645   0.087
 1983TIP3   OH2 5825   2.162   5.855   0.649
 1983TIP3    H1 5826   2.134   5.823   0.563
 1983TIP3    H2 5827   2.156   5.778   0.706
 1984TIP3   OH2 5828   1.885   7.608   1.137
 1984TIP3    H1 5829   1.970   7.608   1.181
 1984TIP3    H2 5830   1.858   7.516   1.139
 1985TIP3   OH2 5831   2.366   7.558   1.168
 1985TIP3    H1 5832   2.458   7.533   1.175
 1985TIP3    H2 5833   2.332   7.505   1.096
 1986TIP3   OH2 5834   2.977   7.495   0.909
 1986TIP3    H1 5835   2.991   7.424   0.972
 1986TIP3    H2 5836   3.050   7.555   0.925
 1987TIP3   OH2 5837   1.986   7.043   1.299
 1987TIP3    H1 5838   2.010   6.950   1.306
 1987TIP3    H2 5839   1.903   7.042   1.251
 1988TIP3   OH2 5840   2.626   7.126   1.089
 1988TIP3    H1 5841   2.581   7.150   1.008
 1988TIP3    H2 5842   2.661   7.039   1.072
 1989TIP3   OH2 5843   3.084   7.165   0.692
 1989TIP3    H1 5844   3.163   7.193   0.645
 1989TIP3    H2 5845   3.022   7.236   0.678
 1990TIP3   OH2 5846   2.109   6.787   1.301
 1990TIP3    H1 5847   2.189   6.783   1.249
 1990TIP3    H2 5848   2.139   6.808   1.390
 1991TIP3   OH2 5849   2.441   6.639   0.944
 1991TIP3    H1 5850   2.372   6.703   0.964
 1991TIP3    H2 5851   2.497   6.684   0.881
 1992TIP3   OH2 5852   2.967   7.045   1.040
 1992TIP3    H1 5853   3.037   7.007   0.986
 1992TIP3    H2 5854   2.965   6.990   1.118
 1993TIP3   OH2 5855   2.574   6.437   1.070
 1993TIP3    H1 5856   2.581   6.364   1.008
 1993TIP3    H2 5857   2.532   6.507   1.019
 1994TIP3   OH2 5858   2.587   6.238   0.869
 1994TIP3    H1 5859   2.615   6.273   0.784
 1994TIP3    H2 5860   2.496   6.211   0.855
 1995TIP3   OH2 5861   2.605   6.791   0.785
 1995TIP3    H1 5862   2.692   6.805   0.747
 1995TIP3    H2 5863   2.545   6.837   0.726
 1996TIP3   OH2 5864   3.182   6.723   1.118
 1996TIP3    H1 5865   3.222   6.636   1.127
 1996TIP3    H2 5866   3.257   6.781   1.102
 1997TIP3   OH2 5867   3.202   6.990   0.862
 1997TIP3    H1 5868   3.149   7.051   0.810
 1997TIP3    H2 5869   3.291   7.002   0.829
 1998TIP3   OH2 5870   2.459   6.525   1.312
 1998TIP3    H1 5871   2.391   6.460   1.332
 1998TIP3    H2 5872   2.489   6.501   1.224
 1999TIP3   OH2 5873   2.707   6.006   0.968
 1999TIP3    H1 5874   2.667   6.087   0.936
 1999TIP3    H2 5875   2.640   5.939   0.956
 2000TIP3   OH2 5876   2.829   6.483   1.171
 2000TIP3    H1 5877   2.819   6.470   1.265
 2000TIP3    H2 5878   2.743   6.462   1.135
 2001TIP3   OH2 5879   3.075   6.436   1.043
 2001TIP3    H1 5880   2.996   6.436   1.098
 2001TIP3    H2 5881   3.146   6.411   1.103
 2002TIP3   OH2 5882   3.310   6.402   1.193
 2002TIP3    H1 5883   3.325   6.308   1.199
 2002TIP3    H2 5884   3.306   6.432   1.283
 2003TIP3   OH2 5885   2.295   6.305   1.378
 2003TIP3    H1 5886   2.302   6.217   1.341
 2003TIP3    H2 5887   2.334   6.297   1.465
 2004TIP3   OH2 5888   2.770   5.989   1.235
 2004TIP3    H1 5889   2.839   5.922   1.231
 2004TIP3    H2 5890   2.741   5.998   1.144
 2005TIP3   OH2 5891   2.867   6.203   1.378
 2005TIP3    H1 5892   2.836   6.131   1.324
 2005TIP3    H2 5893   2.794   6.265   1.379
 2006TIP3   OH2 5894   3.350   7.728   0.095
 2006TIP3    H1 5895   3.381   7.712   0.184
 2006TIP3    H2 5896   3.372   7.819   0.077
 2007TIP3   OH2 5897   3.378   7.690   0.370
 2007TIP3    H1 5898   3.336   7.604   0.383
 2007TIP3    H2 5899   3.471   7.673   0.383
 2008TIP3   OH2 5900   3.431   7.383   0.950
 2008TIP3    H1 5901   3.360   7.392   1.013
 2008TIP3    H2 5902   3.474   7.469   0.949
 2009TIP3   OH2 5903   3.430   7.126   0.195
 2009TIP3    H1 5904   3.482   7.061   0.148
 2009TIP3    H2 5905   3.448   7.208   0.150
 2010TIP3   OH2 5906   3.242   7.446   0.406
 2010TIP3    H1 5907   3.173   7.491   0.453
 2010TIP3    H2 5908   3.199   7.407   0.330
 2011TIP3   OH2 5909   9.732   2.009   7.926
 2011TIP3    H1 5910   9.749   1.916   7.914
 2011TIP3    H2 5911   9.720   2.019   8.021
 2012TIP3   OH2 5912   1.838   6.726   0.693
 2012TIP3    H1 5913   1.818   6.712   0.601
 2012TIP3    H2 5914   1.932   6.711   0.700
 2013TIP3   OH2 5915   3.456   7.034   0.763
 2013TIP3    H1 5916   3.524   6.967   0.752
 2013TIP3    H2 5917   3.458   7.084   0.681
 2014TIP3   OH2 5918   3.634   6.826   0.765
 2014TIP3    H1 5919   3.566   6.778   0.812
 2014TIP3    H2 5920   3.716   6.782   0.790
 2015TIP3   OH2 5921   9.737   1.739   7.849
 2015TIP3    H1 5922   9.770   1.649   7.850
 2015TIP3    H2 5923   9.731   1.761   7.756
 2016TIP3   OH2 5924   3.329   6.496   0.320
 2016TIP3    H1 5925   3.409   6.515   0.271
 2016TIP3    H2 5926   3.344   6.535   0.406
 2017TIP3   OH2 5927   3.400   6.652   0.544
 2017TIP3    H1 5928   3.327   6.684   0.598
 2017TIP3    H2 5929   3.421   6.725   0.486
 2018TIP3   OH2 5930   2.032   6.356   1.314
 2018TIP3    H1 5931   2.126   6.354   1.334
 2018TIP3    H2 5932   1.998   6.275   1.352
 2019TIP3   OH2 5933   3.871   6.259   1.075
 2019TIP3    H1 5934   3.934   6.201   1.034
 2019TIP3    H2 5935   3.831   6.307   1.002
 2020TIP3   OH2 5936   0.002   1.474   7.863
 2020TIP3    H1 5937   0.066   1.461   7.933
 2020TIP3    H2 5938  -0.038   1.388   7.850
 2021TIP3   OH2 5939   1.991   6.074   0.651
 2021TIP3    H1 5940   2.046   5.996   0.664
 2021TIP3    H2 5941   2.054   6.145   0.639
 2022TIP3   OH2 5942   1.791   6.342   0.722
 2022TIP3    H1 5943   1.854   6.342   0.650
 2022TIP3    H2 5944   1.805   6.425   0.766
 2023TIP3   OH2 5945   3.714   6.364   0.877
 2023TIP3    H1 5946   3.630   6.405   0.898
 2023TIP3    H2 5947   3.691   6.288   0.824
 2024TIP3   OH2 5948   1.771   5.811   0.234
 2024TIP3    H1 5949   1.689   5.784   0.276
 2024TIP3    H2 5950   1.752   5.898   0.199
 2025TIP3   OH2 5951   1.993   5.899   1.050
 2025TIP3    H1 5952   1.943   5.893   1.131
 2025TIP3    H2 5953   1.938   5.949   0.991
 2026TIP3   OH2 5954   2.058   7.333   1.141
 2026TIP3    H1 5955   1.963   7.325   1.130
 2026TIP3    H2 5956   2.071   7.345   1.235
 2027TIP3   OH2 5957   2.240   7.394   0.704
 2027TIP3    H1 5958   2.152   7.393   0.665
 2027TIP3    H2 5959   2.296   7.433   0.637
 2028TIP3   OH2 5960   2.648   7.643   0.812
 2028TIP3    H1 5961   2.684   7.637   0.900
 2028TIP3    H2 5962   2.713   7.694   0.763
 2029TIP3   OH2 5963   2.858   7.785   0.694
 2029TIP3    H1 5964   2.927   7.730   0.658
 2029TIP3    H2 5965   2.904   7.849   0.748
 2030TIP3   OH2 5966   3.631   6.121   0.768
 2030TIP3    H1 5967   3.543   6.115   0.731
 2030TIP3    H2 5968   3.664   6.031   0.766
 2031TIP3   OH2 5969   2.548   7.670   0.403
 2031TIP3    H1 5970   2.512   7.663   0.314
 2031TIP3    H2 5971   2.573   7.763   0.411
 2032TIP3   OH2 5972   2.803   7.569   0.410
 2032TIP3    H1 5973   2.715   7.605   0.414
 2032TIP3    H2 5974   2.855   7.637   0.367
 2033TIP3   OH2 5975   2.996   7.738   0.306
 2033TIP3    H1 5976   2.993   7.831   0.285
 2033TIP3    H2 5977   3.032   7.696   0.228
 2034TIP3   OH2 5978   2.283   7.499   0.349
 2034TIP3    H1 5979   2.344   7.501   0.275
 2034TIP3    H2 5980   2.337   7.471   0.424
 2035TIP3   OH2 5981   2.837   6.048   0.425
 2035TIP3    H1 5982   2.797   5.975   0.470
 2035TIP3    H2 5983   2.904   6.008   0.369
 2036TIP3   OH2 5984   3.336   5.966   0.290
 2036TIP3    H1 5985   3.373   6.018   0.218
 2036TIP3    H2 5986   3.245   5.996   0.295
 2037TIP3   OH2 5987   3.458   6.042   0.055
 2037TIP3    H1 5988   3.520   5.975   0.025
 2037TIP3    H2 5989   3.505   6.124   0.043
 2038TIP3   OH2 5990   2.072   5.763   0.403
 2038TIP3    H1 5991   1.986   5.722   0.416
 2038TIP3    H2 5992   2.133   5.690   0.400
 2039TIP3   OH2 5993   1.911   5.651   0.065
 2039TIP3    H1 5994   1.935   5.722   0.005
 2039TIP3    H2 5995   1.867   5.696   0.137
 2040TIP3   OH2 5996   2.563   5.793   0.307
 2040TIP3    H1 5997   2.614   5.837   0.239
 2040TIP3    H2 5998   2.603   5.820   0.389
 2041TIP3   OH2 5999   3.044   5.942   0.278
 2041TIP3    H1 6000   3.045   5.914   0.187
 2041TIP3    H2 6001   3.053   5.861   0.328
 2042TIP3   OH2 6002   9.679   1.224   7.851
 2042TIP3    H1 6003   9.597   1.263   7.820
 2042TIP3    H2 6004   9.652   1.147   7.902
 2043TIP3   OH2 6005   8.721   1.115   7.752
 2043TIP3    H1 6006   8.669   1.041   7.782
 2043TIP3    H2 6007   8.719   1.177   7.825
 2044TIP3   OH2 6008   9.068   1.359   7.908
 2044TIP3    H1 6009   9.124   1.308   7.967
 2044TIP3    H2 6010   9.083   1.450   7.933
 2045TIP3   OH2 6011   2.306   6.036   1.285
 2045TIP3    H1 6012   2.271   5.970   1.346
 2045TIP3    H2 6013   2.398   6.043   1.308
 2046TIP3   OH2 6014   2.553   6.040   1.410
 2046TIP3    H1 6015   2.631   6.018   1.358
 2046TIP3    H2 6016   2.548   5.972   1.477
 2047TIP3   OH2 6017   3.377   6.132   1.199
 2047TIP3    H1 6018   3.392   6.102   1.288
 2047TIP3    H2 6019   3.462   6.126   1.156
 2048TIP3   OH2 6020   3.275   7.664   0.711
 2048TIP3    H1 6021   3.201   7.637   0.656
 2048TIP3    H2 6022   3.268   7.759   0.714
 2049TIP3   OH2 6023   3.847   6.907   0.228
 2049TIP3    H1 6024   3.853   6.837   0.293
 2049TIP3    H2 6025   3.867   6.987   0.277
 2050TIP3   OH2 6026   0.461   1.993   7.996
 2050TIP3    H1 6027   0.551   1.960   8.000
 2050TIP3    H2 6028   0.438   1.991   7.903
 2051TIP3   OH2 6029   4.064   6.440   0.327
 2051TIP3    H1 6030   3.990   6.416   0.270
 2051TIP3    H2 6031   4.025   6.449   0.414
 2052TIP3   OH2 6032   3.982   6.504   0.038
 2052TIP3    H1 6033   4.018   6.577   0.088
 2052TIP3    H2 6034   4.053   6.475  -0.019
 2053TIP3   OH2 6035   4.033   7.403   0.267
 2053TIP3    H1 6036   4.069   7.315   0.269
 2053TIP3    H2 6037   3.948   7.396   0.311
 2054TIP3   OH2 6038   4.445   6.067   0.043
 2054TIP3    H1 6039   4.424   5.977   0.070
 2054TIP3    H2 6040   4.369   6.118   0.072
 2055TIP3   OH2 6041   4.212   7.580   0.377
 2055TIP3    H1 6042   4.206   7.673   0.357
 2055TIP3    H2 6043   4.144   7.539   0.325
 2056TIP3   OH2 6044   3.915   7.062   0.445
 2056TIP3    H1 6045   3.921   7.128   0.515
 2056TIP3    H2 6046   3.844   7.004   0.473
 2057TIP3   OH2 6047   3.906   7.668   0.382
 2057TIP3    H1 6048   3.944   7.594   0.428
 2057TIP3    H2 6049   3.825   7.687   0.430
 2058TIP3   OH2 6050   3.606   7.178   0.405
 2058TIP3    H1 6051   3.541   7.160   0.337
 2058TIP3    H2 6052   3.634   7.091   0.436
 2059TIP3   OH2 6053   3.517   7.361   0.087
 2059TIP3    H1 6054   3.526   7.404   0.003
 2059TIP3    H2 6055   3.541   7.428   0.151
 2060TIP3   OH2 6056   5.138   6.914   0.290
 2060TIP3    H1 6057   5.153   6.977   0.220
 2060TIP3    H2 6058   5.225   6.887   0.317
 2061TIP3   OH2 6059   3.797   7.369   0.395
 2061TIP3    H1 6060   3.829   7.349   0.483
 2061TIP3    H2 6061   3.728   7.305   0.379
 2062TIP3   OH2 6062   4.224   6.180   0.162
 2062TIP3    H1 6063   4.128   6.184   0.157
 2062TIP3    H2 6064   4.248   6.259   0.211
 2063TIP3   OH2 6065   4.738   6.273   0.299
 2063TIP3    H1 6066   4.822   6.295   0.341
 2063TIP3    H2 6067   4.674   6.277   0.371
 2064TIP3   OH2 6068   4.935   6.739   0.215
 2064TIP3    H1 6069   4.995   6.761   0.285
 2064TIP3    H2 6070   4.896   6.822   0.189
 2065TIP3   OH2 6071   4.060   6.730   0.181
 2065TIP3    H1 6072   4.019   6.707   0.264
 2065TIP3    H2 6073   4.007   6.802   0.147
 2066TIP3   OH2 6074   4.619   6.950   0.607
 2066TIP3    H1 6075   4.595   6.867   0.649
 2066TIP3    H2 6076   4.696   6.929   0.554
 2067TIP3   OH2 6077   3.930   6.722   0.421
 2067TIP3    H1 6078   3.996   6.774   0.467
 2067TIP3    H2 6079   3.916   6.646   0.478
 2068TIP3   OH2 6080   3.630   6.243  -0.001
 2068TIP3    H1 6081   3.671   6.296   0.067
 2068TIP3    H2 6082   3.701   6.222  -0.061
 2069TIP3   OH2 6083   3.898   7.245   0.643
 2069TIP3    H1 6084   3.941   7.330   0.652
 2069TIP3    H2 6085   3.846   7.236   0.723
 2070TIP3   OH2 6086   4.484   6.530   0.066
 2070TIP3    H1 6087   4.403   6.579   0.054
 2070TIP3    H2 6088   4.507   6.543   0.158
 2071TIP3   OH2 6089   4.539   7.467   0.154
 2071TIP3    H1 6090   4.505   7.443   0.241
 2071TIP3    H2 6091   4.618   7.517   0.173
 2072TIP3   OH2 6092   3.685   6.939   0.521
 2072TIP3    H1 6093   3.689   6.903   0.610
 2072TIP3    H2 6094   3.614   6.889   0.479
 2073TIP3   OH2 6095   4.390   7.076   0.546
 2073TIP3    H1 6096   4.377   7.049   0.455
 2073TIP3    H2 6097   4.470   7.031   0.573
 2074TIP3   OH2 6098   3.933   6.468   0.563
 2074TIP3    H1 6099   3.838   6.474   0.578
 2074TIP3    H2 6100   3.966   6.415   0.635
 2075TIP3   OH2 6101   3.625   7.555   0.258
 2075TIP3    H1 6102   3.698   7.508   0.299
 2075TIP3    H2 6103   3.668   7.614   0.196
 2076TIP3   OH2 6104   4.692   6.580   0.255
 2076TIP3    H1 6105   4.726   6.625   0.178
 2076TIP3    H2 6106   4.767   6.530   0.289
 2077TIP3   OH2 6107   4.622   6.854   0.293
 2077TIP3    H1 6108   4.699   6.908   0.279
 2077TIP3    H2 6109   4.656   6.768   0.316
 2078TIP3   OH2 6110   3.950   6.125   0.154
 2078TIP3    H1 6111   3.919   6.093   0.069
 2078TIP3    H2 6112   3.953   6.047   0.209
 2079TIP3   OH2 6113   3.628   7.863   0.644
 2079TIP3    H1 6114   3.699   7.855   0.708
 2079TIP3    H2 6115   3.586   7.777   0.644
 2080TIP3   OH2 6116   4.096   7.843   0.668
 2080TIP3    H1 6117   4.190   7.852   0.655
 2080TIP3    H2 6118   4.059   7.842   0.579
 2081TIP3   OH2 6119   4.775   7.841   0.306
 2081TIP3    H1 6120   4.802   7.771   0.366
 2081TIP3    H2 6121   4.838   7.837   0.235
 2082TIP3   OH2 6122   3.723   7.290   0.851
 2082TIP3    H1 6123   3.682   7.230   0.913
 2082TIP3    H2 6124   3.655   7.307   0.785
 2083TIP3   OH2 6125   4.406   7.347   0.661
 2083TIP3    H1 6126   4.409   7.433   0.619
 2083TIP3    H2 6127   4.351   7.295   0.603
 2084TIP3   OH2 6128   3.929   6.960   0.807
 2084TIP3    H1 6129   4.004   6.987   0.755
 2084TIP3    H2 6130   3.929   7.020   0.882
 2085TIP3   OH2 6131   4.153   6.869   0.495
 2085TIP3    H1 6132   4.138   6.934   0.563
 2085TIP3    H2 6133   4.211   6.913   0.433
 2086TIP3   OH2 6134   4.839   7.324   0.761
 2086TIP3    H1 6135   4.848   7.327   0.665
 2086TIP3    H2 6136   4.761   7.269   0.775
 2087TIP3   OH2 6137   4.291   6.664   0.617
 2087TIP3    H1 6138   4.313   6.591   0.559
 2087TIP3    H2 6139   4.238   6.723   0.563
 2088TIP3   OH2 6140   4.326   6.370   0.338
 2088TIP3    H1 6141   4.381   6.441   0.370
 2088TIP3    H2 6142   4.237   6.405   0.342
 2089TIP3   OH2 6143   4.367   6.942   0.309
 2089TIP3    H1 6144   4.458   6.913   0.304
 2089TIP3    H2 6145   4.356   7.001   0.234
 2090TIP3   OH2 6146   4.912   6.990   0.734
 2090TIP3    H1 6147   4.997   6.947   0.733
 2090TIP3    H2 6148   4.914   7.049   0.658
 2091TIP3   OH2 6149   5.069   7.195   0.261
 2091TIP3    H1 6150   4.993   7.252   0.246
 2091TIP3    H2 6151   5.136   7.253   0.296
 2092TIP3   OH2 6152   4.227   6.765   0.863
 2092TIP3    H1 6153   4.152   6.712   0.889
 2092TIP3    H2 6154   4.249   6.734   0.775
 2093TIP3   OH2 6155   4.497   6.175   0.436
 2093TIP3    H1 6156   4.444   6.248   0.403
 2093TIP3    H2 6157   4.437   6.100   0.435
 2094TIP3   OH2 6158   4.544   6.710   0.715
 2094TIP3    H1 6159   4.529   6.694   0.808
 2094TIP3    H2 6160   4.462   6.687   0.672
 2095TIP3   OH2 6161   4.748   6.692   0.530
 2095TIP3    H1 6162   4.667   6.679   0.580
 2095TIP3    H2 6163   4.817   6.673   0.592
 2096TIP3   OH2 6164   5.166   6.629   0.744
 2096TIP3    H1 6165   5.121   6.545   0.741
 2096TIP3    H2 6166   5.146   6.664   0.830
 2097TIP3   OH2 6167   4.060   6.544   0.899
 2097TIP3    H1 6168   4.073   6.462   0.851
 2097TIP3    H2 6169   4.106   6.531   0.982
 2098TIP3   OH2 6170   4.505   6.227   0.730
 2098TIP3    H1 6171   4.591   6.239   0.772
 2098TIP3    H2 6172   4.526   6.190   0.644
 2099TIP3   OH2 6173   5.156   7.634   0.423
 2099TIP3    H1 6174   5.161   7.635   0.519
 2099TIP3    H2 6175   5.245   7.656   0.394
 2100TIP3   OH2 6176   3.592   6.907   0.132
 2100TIP3    H1 6177   3.591   6.892   0.037
 2100TIP3    H2 6178   3.685   6.912   0.154
 2101TIP3   OH2 6179   3.808   6.615   0.812
 2101TIP3    H1 6180   3.901   6.617   0.837
 2101TIP3    H2 6181   3.775   6.533   0.848
 2102TIP3   OH2 6182   5.747   6.445   0.398
 2102TIP3    H1 6183   5.661   6.416   0.427
 2102TIP3    H2 6184   5.743   6.541   0.406
 2103TIP3   OH2 6185   3.805   6.351   0.190
 2103TIP3    H1 6186   3.852   6.268   0.186
 2103TIP3    H2 6187   3.852   6.409   0.129
 2104TIP3   OH2 6188   3.566   6.593   0.219
 2104TIP3    H1 6189   3.618   6.587   0.139
 2104TIP3    H2 6190   3.573   6.685   0.245
 2105TIP3   OH2 6191   5.587   6.674   0.399
 2105TIP3    H1 6192   5.495   6.656   0.418
 2105TIP3    H2 6193   5.586   6.706   0.308
 2106TIP3   OH2 6194   3.784   6.146   0.530
 2106TIP3    H1 6195   3.739   6.144   0.614
 2106TIP3    H2 6196   3.732   6.206   0.476
 2107TIP3   OH2 6197   3.790   7.609   0.682
 2107TIP3    H1 6198   3.697   7.603   0.659
 2107TIP3    H2 6199   3.790   7.614   0.778
 2108TIP3   OH2 6200   5.371   6.342   0.286
 2108TIP3    H1 6201   5.318   6.393   0.225
 2108TIP3    H2 6202   5.416   6.277   0.230
 2109TIP3   OH2 6203   3.638   7.985   0.120
 2109TIP3    H1 6204   3.552   8.019   0.095
 2109TIP3    H2 6205   3.631   7.971   0.214
 2110TIP3   OH2 6206   0.584   1.395   7.925
 2110TIP3    H1 6207   0.498   1.352   7.928
 2110TIP3    H2 6208   0.644   1.326   7.896
 2111TIP3   OH2 6209   4.080   6.289   0.766
 2111TIP3    H1 6210   4.050   6.220   0.825
 2111TIP3    H2 6211   4.172   6.303   0.791
 2112TIP3   OH2 6212   4.316   6.311   0.908
 2112TIP3    H1 6213   4.387   6.288   0.848
 2112TIP3    H2 6214   4.315   6.239   0.971
 2113TIP3   OH2 6215   5.109   6.253   0.713
 2113TIP3    H1 6216   5.051   6.238   0.788
 2113TIP3    H2 6217   5.188   6.291   0.751
 2114TIP3   OH2 6218   6.226   6.545   0.304
 2114TIP3    H1 6219   6.195   6.484   0.237
 2114TIP3    H2 6220   6.184   6.516   0.385
 2115TIP3   OH2 6221   1.718   7.825   1.173
 2115TIP3    H1 6222   1.779   7.752   1.162
 2115TIP3    H2 6223   1.663   7.823   1.094
 2116TIP3   OH2 6224   3.251   8.285   0.225
 2116TIP3    H1 6225   3.229   8.341   0.151
 2116TIP3    H2 6226   3.310   8.338   0.279
 2117TIP3   OH2 6227   3.005   8.008   0.252
 2117TIP3    H1 6228   2.933   8.057   0.293
 2117TIP3    H2 6229   3.045   8.071   0.192
 2118TIP3   OH2 6230   3.075   8.535   0.566
 2118TIP3    H1 6231   3.031   8.525   0.482
 2118TIP3    H2 6232   3.112   8.449   0.584
 2119TIP3   OH2 6233   2.665   7.889   0.521
 2119TIP3    H1 6234   2.729   7.857   0.585
 2119TIP3    H2 6235   2.604   7.942   0.573
 2120TIP3   OH2 6236   2.843   8.387   0.427
 2120TIP3    H1 6237   2.790   8.351   0.499
 2120TIP3    H2 6238   2.780   8.404   0.357
 2121TIP3   OH2 6239   2.614   8.558   0.752
 2121TIP3    H1 6240   2.571   8.473   0.756
 2121TIP3    H2 6241   2.707   8.537   0.742
 2122TIP3   OH2 6242   2.746   8.103   0.369
 2122TIP3    H1 6243   2.748   8.152   0.451
 2122TIP3    H2 6244   2.707   8.019   0.392
 2123TIP3   OH2 6245   3.088   8.264   0.454
 2123TIP3    H1 6246   3.000   8.301   0.442
 2123TIP3    H2 6247   3.130   8.273   0.368
 2124TIP3   OH2 6248   2.885   8.501   0.770
 2124TIP3    H1 6249   2.908   8.411   0.791
 2124TIP3    H2 6250   2.946   8.526   0.700
 2125TIP3   OH2 6251   2.377   7.773   0.624
 2125TIP3    H1 6252   2.384   7.862   0.588
 2125TIP3    H2 6253   2.446   7.724   0.580
 2126TIP3   OH2 6254   2.499   8.306   0.790
 2126TIP3    H1 6255   2.503   8.299   0.886
 2126TIP3    H2 6256   2.410   8.280   0.768
 2127TIP3   OH2 6257   2.725   8.235   0.631
 2127TIP3    H1 6258   2.645   8.252   0.680
 2127TIP3    H2 6259   2.793   8.226   0.697
 2128TIP3   OH2 6260   2.937   8.224   0.831
 2128TIP3    H1 6261   2.955   8.130   0.833
 2128TIP3    H2 6262   2.931   8.249   0.924
 2129TIP3   OH2 6263   2.040   8.239   1.078
 2129TIP3    H1 6264   2.000   8.195   1.003
 2129TIP3    H2 6265   2.049   8.172   1.145
 2130TIP3   OH2 6266   2.405   7.790   0.898
 2130TIP3    H1 6267   2.475   7.724   0.899
 2130TIP3    H2 6268   2.374   7.789   0.807
 2131TIP3   OH2 6269   2.502   8.018   1.017
 2131TIP3    H1 6270   2.471   7.940   0.971
 2131TIP3    H2 6271   2.430   8.081   1.008
 2132TIP3   OH2 6272   3.252   8.709   0.432
 2132TIP3    H1 6273   3.207   8.648   0.490
 2132TIP3    H2 6274   3.344   8.701   0.455
 2133TIP3   OH2 6275   3.085   8.556   0.274
 2133TIP3    H1 6276   3.135   8.529   0.197
 2133TIP3    H2 6277   3.138   8.625   0.314
 2134TIP3   OH2 6278   3.491   8.087   0.725
 2134TIP3    H1 6279   3.545   8.013   0.695
 2134TIP3    H2 6280   3.459   8.128   0.645
 2135TIP3   OH2 6281   3.343   8.181   0.519
 2135TIP3    H1 6282   3.255   8.219   0.530
 2135TIP3    H2 6283   3.329   8.104   0.464
 2136TIP3   OH2 6284   3.262   7.941   0.408
 2136TIP3    H1 6285   3.174   7.938   0.370
 2136TIP3    H2 6286   3.297   7.853   0.396
 2137TIP3   OH2 6287   1.947   7.768   0.917
 2137TIP3    H1 6288   1.929   7.707   0.988
 2137TIP3    H2 6289   2.022   7.819   0.947
 2138TIP3   OH2 6290   2.184   7.850   1.076
 2138TIP3    H1 6291   2.259   7.827   1.022
 2138TIP3    H2 6292   2.172   7.775   1.134
 2139TIP3   OH2 6293   3.016   7.959   0.843
 2139TIP3    H1 6294   3.034   7.929   0.932
 2139TIP3    H2 6295   3.101   7.951   0.798
 2140TIP3   OH2 6296   3.525   8.751   0.502
 2140TIP3    H1 6297   3.606   8.713   0.469
 2140TIP3    H2 6298   3.514   8.832   0.453
 2141TIP3   OH2 6299   3.783   8.669   0.415
 2141TIP3    H1 6300   3.751   8.586   0.449
 2141TIP3    H2 6301   3.878   8.661   0.415
 2142TIP3   OH2 6302   3.662   8.443   0.529
 2142TIP3    H1 6303   3.673   8.363   0.478
 2142TIP3    H2 6304   3.677   8.416   0.619
 2143TIP3   OH2 6305   4.245   8.300   0.541
 2143TIP3    H1 6306   4.175   8.275   0.481
 2143TIP3    H2 6307   4.296   8.365   0.493
 2144TIP3   OH2 6308   3.407   8.426   0.410
 2144TIP3    H1 6309   3.487   8.465   0.444
 2144TIP3    H2 6310   3.397   8.345   0.460
 2145TIP3   OH2 6311   3.362   8.023   0.154
 2145TIP3    H1 6312   3.338   8.006   0.245
 2145TIP3    H2 6313   3.333   8.113   0.138
 2146TIP3   OH2 6314   3.658   7.943   0.385
 2146TIP3    H1 6315   3.645   7.913   0.475
 2146TIP3    H2 6316   3.679   8.036   0.394
 2147TIP3   OH2 6317   3.863   8.095   0.610
 2147TIP3    H1 6318   3.945   8.109   0.658
 2147TIP3    H2 6319   3.825   8.017   0.649
 2148TIP3   OH2 6320   8.041   9.097   4.806
 2148TIP3    H1 6321   7.971   9.099   4.741
 2148TIP3    H2 6322   8.047   9.188   4.837
 2149TIP3   OH2 6323   1.788   0.365   4.790
 2149TIP3    H1 6324   1.854   0.340   4.855
 2149TIP3    H2 6325   1.705   0.360   4.838
 2150TIP3   OH2 6326   1.494   0.668   4.956
 2150TIP3    H1 6327   1.503   0.678   4.862
 2150TIP3    H2 6328   1.565   0.720   4.993
 2151TIP3   OH2 6329   1.803   0.063   4.866
 2151TIP3    H1 6330   1.740   0.046   4.936
 2151TIP3    H2 6331   1.751   0.059   4.786
 2152TIP3   OH2 6332   1.263   0.310   4.812
 2152TIP3    H1 6333   1.191   0.252   4.786
 2152TIP3    H2 6334   1.291   0.351   4.729
 2153TIP3   OH2 6335   1.278   0.113   5.046
 2153TIP3    H1 6336   1.184   0.132   5.049
 2153TIP3    H2 6337   1.316   0.168   5.114
 2154TIP3   OH2 6338   1.622   0.490   4.240
 2154TIP3    H1 6339   1.629   0.456   4.329
 2154TIP3    H2 6340   1.706   0.468   4.200
 2155TIP3   OH2 6341   1.641   0.393   4.507
 2155TIP3    H1 6342   1.583   0.319   4.523
 2155TIP3    H2 6343   1.727   0.363   4.538
 2156TIP3   OH2 6344   1.680  -0.002   5.103
 2156TIP3    H1 6345   1.598  -0.029   5.145
 2156TIP3    H2 6346   1.679   0.093   5.109
 2157TIP3   OH2 6347   1.449   0.211   4.590
 2157TIP3    H1 6348   1.376   0.168   4.634
 2157TIP3    H2 6349   1.435   0.191   4.497
 2158TIP3   OH2 6350   8.260   8.961   5.008
 2158TIP3    H1 6351   8.302   8.940   4.925
 2158TIP3    H2 6352   8.227   9.050   4.997
 2159TIP3   OH2 6353   8.475   8.558   4.955
 2159TIP3    H1 6354   8.393   8.509   4.962
 2159TIP3    H2 6355   8.507   8.565   5.044
 2160TIP3   OH2 6356   1.153   0.551   4.871
 2160TIP3    H1 6357   1.198   0.470   4.846
 2160TIP3    H2 6358   1.198   0.578   4.952
 2161TIP3   OH2 6359   1.188   0.391   4.519
 2161TIP3    H1 6360   1.137   0.467   4.547
 2161TIP3    H2 6361   1.252   0.427   4.457
 2162TIP3   OH2 6362   1.528   0.390   4.906
 2162TIP3    H1 6363   1.464   0.400   4.835
 2162TIP3    H2 6364   1.537   0.478   4.943
 2163TIP3   OH2 6365   9.389   8.919   3.741
 2163TIP3    H1 6366   9.332   8.995   3.731
 2163TIP3    H2 6367   9.455   8.928   3.672
 2164TIP3   OH2 6368   9.412   8.951   4.115
 2164TIP3    H1 6369   9.455   8.926   4.197
 2164TIP3    H2 6370   9.375   8.870   4.082
 2165TIP3   OH2 6371   8.711   8.944   4.396
 2165TIP3    H1 6372   8.792   8.905   4.428
 2165TIP3    H2 6373   8.736   9.032   4.368
 2166TIP3   OH2 6374   3.145   0.011   3.795
 2166TIP3    H1 6375   3.123  -0.044   3.870
 2166TIP3    H2 6376   3.165   0.096   3.832
 2167TIP3   OH2 6377   2.068   0.042   4.104
 2167TIP3    H1 6378   2.068  -0.033   4.044
 2167TIP3    H2 6379   2.132   0.018   4.171
 2168TIP3   OH2 6380   2.793   0.457   3.805
 2168TIP3    H1 6381   2.820   0.394   3.738
 2168TIP3    H2 6382   2.797   0.407   3.887
 2169TIP3   OH2 6383   9.240   9.173   4.124
 2169TIP3    H1 6384   9.286   9.094   4.094
 2169TIP3    H2 6385   9.311   9.232   4.151
 2170TIP3   OH2 6386   9.647   8.666   4.164
 2170TIP3    H1 6387   9.715   8.603   4.188
 2170TIP3    H2 6388   9.607   8.629   4.085
 2171TIP3   OH2 6389   0.409   8.645   4.296
 2171TIP3    H1 6390   0.336   8.707   4.295
 2171TIP3    H2 6391   0.455   8.664   4.378
 2172TIP3   OH2 6392   9.271   9.176   3.666
 2172TIP3    H1 6393   9.353   9.211   3.631
 2172TIP3    H2 6394   9.208   9.247   3.652
 2173TIP3   OH2 6395   9.115   9.094   4.352
 2173TIP3    H1 6396   9.071   9.173   4.383
 2173TIP3    H2 6397   9.162   9.122   4.274
 2174TIP3   OH2 6398   2.447   0.073   4.447
 2174TIP3    H1 6399   2.405   0.154   4.417
 2174TIP3    H2 6400   2.375   0.021   4.482
 2175TIP3   OH2 6401   3.177   0.263   3.928
 2175TIP3    H1 6402   3.091   0.260   3.969
 2175TIP3    H2 6403   3.178   0.347   3.882
 2176TIP3   OH2 6404   2.878   0.299   3.595
 2176TIP3    H1 6405   2.915   0.210   3.588
 2176TIP3    H2 6406   2.950   0.357   3.570
 2177TIP3   OH2 6407   2.979   0.047   3.579
 2177TIP3    H1 6408   3.022   0.014   3.500
 2177TIP3    H2 6409   3.044   0.035   3.648
 2178TIP3   OH2 6410   3.418   0.157   4.280
 2178TIP3    H1 6411   3.391   0.087   4.221
 2178TIP3    H2 6412   3.403   0.237   4.230
 2179TIP3   OH2 6413   0.309   9.080   4.156
 2179TIP3    H1 6414   0.222   9.119   4.151
 2179TIP3    H2 6415   0.345   9.087   4.068
 2180TIP3   OH2 6416   9.618   8.958   3.583
 2180TIP3    H1 6417   9.644   9.034   3.634
 2180TIP3    H2 6418   9.692   8.898   3.591
 2181TIP3   OH2 6419   9.815   8.937   4.433
 2181TIP3    H1 6420   9.812   9.016   4.488
 2181TIP3    H2 6421   9.728   8.932   4.394
 2182TIP3   OH2 6422   2.456   0.045   4.067
 2182TIP3    H1 6423   2.443   0.012   3.978
 2182TIP3    H2 6424   2.545   0.020   4.089
 2183TIP3   OH2 6425   8.944   8.922   4.203
 2183TIP3    H1 6426   8.983   8.884   4.124
 2183TIP3    H2 6427   9.017   8.964   4.248
 2184TIP3   OH2 6428   2.943   0.270   4.066
 2184TIP3    H1 6429   2.927   0.349   4.117
 2184TIP3    H2 6430   2.931   0.198   4.128
 2185TIP3   OH2 6431   2.611   0.183   4.639
 2185TIP3    H1 6432   2.546   0.247   4.667
 2185TIP3    H2 6433   2.563   0.124   4.581
 2186TIP3   OH2 6434   8.848   8.952   4.755
 2186TIP3    H1 6435   8.851   9.034   4.804
 2186TIP3    H2 6436   8.755   8.940   4.736
 2187TIP3   OH2 6437   2.618   0.197   3.614
 2187TIP3    H1 6438   2.707   0.233   3.613
 2187TIP3    H2 6439   2.565   0.262   3.569
 2188TIP3   OH2 6440   2.406   0.368   4.664
 2188TIP3    H1 6441   2.387   0.364   4.570
 2188TIP3    H2 6442   2.320   0.379   4.705
 2189TIP3   OH2 6443   3.243   0.152   2.979
 2189TIP3    H1 6444   3.241   0.236   2.933
 2189TIP3    H2 6445   3.324   0.111   2.950
 2190TIP3   OH2 6446   8.467   9.189   4.587
 2190TIP3    H1 6447   8.451   9.189   4.492
 2190TIP3    H2 6448   8.387   9.155   4.625
 2191TIP3   OH2 6449   4.167   1.221   1.981
 2191TIP3    H1 6450   4.222   1.248   2.054
 2191TIP3    H2 6451   4.077   1.225   2.015
 2192TIP3   OH2 6452   3.649   0.546   4.342
 2192TIP3    H1 6453   3.655   0.450   4.345
 2192TIP3    H2 6454   3.567   0.565   4.389
 2193TIP3   OH2 6455   2.751   0.334   4.457
 2193TIP3    H1 6456   2.742   0.423   4.491
 2193TIP3    H2 6457   2.705   0.280   4.521
 2194TIP3   OH2 6458   2.507   0.414   3.461
 2194TIP3    H1 6459   2.438   0.393   3.399
 2194TIP3    H2 6460   2.493   0.505   3.484
 2195TIP3   OH2 6461   2.769   0.430   3.365
 2195TIP3    H1 6462   2.677   0.416   3.389
 2195TIP3    H2 6463   2.818   0.372   3.423
 2196TIP3   OH2 6464   0.259   8.903   4.635
 2196TIP3    H1 6465   0.169   8.931   4.651
 2196TIP3    H2 6466   0.298   8.894   4.722
 2197TIP3   OH2 6467   2.090   0.129   4.729
 2197TIP3    H1 6468   2.133   0.071   4.792
 2197TIP3    H2 6469   2.035   0.071   4.676
 2198TIP3   OH2 6470   9.756   8.746   4.629
 2198TIP3    H1 6471   9.821   8.688   4.668
 2198TIP3    H2 6472   9.802   8.788   4.556
 2199TIP3   OH2 6473   8.884   8.601   4.298
 2199TIP3    H1 6474   8.956   8.595   4.360
 2199TIP3    H2 6475   8.902   8.681   4.248
 2200TIP3   OH2 6476   9.576   8.938   4.720
 2200TIP3    H1 6477   9.546   8.888   4.796
 2200TIP3    H2 6478   9.646   8.885   4.682
 2201TIP3   OH2 6479   9.542   8.641   3.891
 2201TIP3    H1 6480   9.498   8.705   3.834
 2201TIP3    H2 6481   9.576   8.575   3.832
 2202TIP3   OH2 6482   8.708   8.575   4.576
 2202TIP3    H1 6483   8.690   8.620   4.659
 2202TIP3    H2 6484   8.794   8.534   4.590
 2203TIP3   OH2 6485   9.561   8.860   4.337
 2203TIP3    H1 6486   9.596   8.798   4.273
 2203TIP3    H2 6487   9.536   8.805   4.412
 2204TIP3   OH2 6488   3.344   0.860   4.431
 2204TIP3    H1 6489   3.339   0.878   4.337
 2204TIP3    H2 6490   3.424   0.904   4.460
 2205TIP3   OH2 6491   2.315  -0.011   4.841
 2205TIP3    H1 6492   2.347   0.079   4.841
 2205TIP3    H2 6493   2.316  -0.037   4.933
 2206TIP3   OH2 6494   9.332   8.684   4.067
 2206TIP3    H1 6495   9.400   8.652   4.007
 2206TIP3    H2 6496   9.350   8.639   4.149
 2207TIP3   OH2 6497   9.360   8.595   4.324
 2207TIP3    H1 6498   9.284   8.652   4.331
 2207TIP3    H2 6499   9.418   8.623   4.394
 2208TIP3   OH2 6500   0.074   9.207   4.101
 2208TIP3    H1 6501   0.106   9.258   4.026
 2208TIP3    H2 6502  -0.007   9.168   4.070
 2209TIP3   OH2 6503   2.865   0.033   4.502
 2209TIP3    H1 6504   2.899  -0.020   4.574
 2209TIP3    H2 6505   2.807   0.097   4.545
 2210TIP3   OH2 6506   8.448   8.814   4.861
 2210TIP3    H1 6507   8.529   8.840   4.905
 2210TIP3    H2 6508   8.447   8.718   4.867
 2211TIP3   OH2 6509   9.333   9.062   4.794
 2211TIP3    H1 6510   9.259   9.051   4.733
 2211TIP3    H2 6511   9.407   9.021   4.749
 2212TIP3   OH2 6512   3.024   0.324   4.391
 2212TIP3    H1 6513   2.929   0.316   4.396
 2212TIP3    H2 6514   3.049   0.362   4.475
 2213TIP3   OH2 6515   3.661   0.270   4.357
 2213TIP3    H1 6516   3.570   0.241   4.367
 2213TIP3    H2 6517   3.690   0.230   4.275
 2214TIP3   OH2 6518   3.140   0.171   3.234
 2214TIP3    H1 6519   3.117   0.086   3.272
 2214TIP3    H2 6520   3.167   0.150   3.145
 2215TIP3   OH2 6521   9.645   9.077   4.011
 2215TIP3    H1 6522   9.557   9.051   4.039
 2215TIP3    H2 6523   9.684   8.996   3.978
 2216TIP3   OH2 6524   2.564   0.380   4.257
 2216TIP3    H1 6525   2.597   0.456   4.208
 2216TIP3    H2 6526   2.637   0.353   4.312
 2217TIP3   OH2 6527   2.932   0.047   4.236
 2217TIP3    H1 6528   2.910   0.047   4.330
 2217TIP3    H2 6529   3.020   0.009   4.233
 2218TIP3   OH2 6530   3.175   0.538   4.275
 2218TIP3    H1 6531   3.103   0.478   4.293
 2218TIP3    H2 6532   3.143   0.594   4.205
 2219TIP3   OH2 6533   3.250   0.421   2.895
 2219TIP3    H1 6534   3.302   0.501   2.885
 2219TIP3    H2 6535   3.169   0.450   2.938
 2220TIP3   OH2 6536   9.637   9.155   3.370
 2220TIP3    H1 6537   9.607   9.073   3.407
 2220TIP3    H2 6538   9.726   9.136   3.338
 2221TIP3   OH2 6539   2.012   0.386   4.379
 2221TIP3    H1 6540   1.991   0.320   4.445
 2221TIP3    H2 6541   2.023   0.467   4.429
 2222TIP3   OH2 6542   9.500   8.681   4.542
 2222TIP3    H1 6543   9.429   8.702   4.603
 2222TIP3    H2 6544   9.580   8.692   4.594
 2223TIP3   OH2 6545   9.746   8.834   3.928
 2223TIP3    H1 6546   9.673   8.775   3.945
 2223TIP3    H2 6547   9.819   8.797   3.977
 2224TIP3   OH2 6548   3.196   0.531   3.848
 2224TIP3    H1 6549   3.151   0.582   3.781
 2224TIP3    H2 6550   3.289   0.546   3.832
 2225TIP3   OH2 6551   2.021   0.611   4.870
 2225TIP3    H1 6552   2.091   0.613   4.935
 2225TIP3    H2 6553   2.040   0.534   4.817
 2226TIP3   OH2 6554   2.472   0.517   4.907
 2226TIP3    H1 6555   2.538   0.586   4.898
 2226TIP3    H2 6556   2.472   0.472   4.822
 2227TIP3   OH2 6557   3.091   0.428   4.635
 2227TIP3    H1 6558   3.094   0.355   4.698
 2227TIP3    H2 6559   3.168   0.481   4.656
 2228TIP3   OH2 6560   2.078   0.033   5.114
 2228TIP3    H1 6561   2.006   0.006   5.171
 2228TIP3    H2 6562   2.061  -0.013   5.032
 2229TIP3   OH2 6563   2.684   0.057   4.879
 2229TIP3    H1 6564   2.661   0.102   4.798
 2229TIP3    H2 6565   2.743  -0.013   4.851
 2230TIP3   OH2 6566   3.186   0.096   4.425
 2230TIP3    H1 6567   3.265   0.127   4.381
 2230TIP3    H2 6568   3.122   0.166   4.412
 2231TIP3   OH2 6569   8.672   8.871   5.004
 2231TIP3    H1 6570   8.758   8.886   5.043
 2231TIP3    H2 6571   8.612   8.870   5.079
 2232TIP3   OH2 6572   9.100   9.063   4.638
 2232TIP3    H1 6573   9.014   9.034   4.668
 2232TIP3    H2 6574   9.097   9.051   4.543
 2233TIP3   OH2 6575   9.611   9.214   4.814
 2233TIP3    H1 6576   9.634   9.150   4.746
 2233TIP3    H2 6577   9.613   9.164   4.895
 2234TIP3   OH2 6578   9.193   8.583   4.868
 2234TIP3    H1 6579   9.123   8.543   4.817
 2234TIP3    H2 6580   9.198   8.673   4.835
 2235TIP3   OH2 6581   9.344   8.970   4.489
 2235TIP3    H1 6582   9.422   8.965   4.434
 2235TIP3    H2 6583   9.285   9.029   4.442
 2236TIP3   OH2 6584   0.038   9.161   4.600
 2236TIP3    H1 6585  -0.019   9.223   4.555
 2236TIP3    H2 6586   0.126   9.180   4.567
 2237TIP3   OH2 6587   9.038   8.679   5.087
 2237TIP3    H1 6588   9.009   8.591   5.112
 2237TIP3    H2 6589   9.078   8.667   5.001
 2238TIP3   OH2 6590   9.502   8.775   4.924
 2238TIP3    H1 6591   9.465   8.805   5.007
 2238TIP3    H2 6592   9.562   8.705   4.948
 2239TIP3   OH2 6593   3.466   0.589   3.840
 2239TIP3    H1 6594   3.482   0.623   3.928
 2239TIP3    H2 6595   3.518   0.646   3.782
 2240TIP3   OH2 6596   3.478   0.623   4.121
 2240TIP3    H1 6597   3.434   0.538   4.115
 2240TIP3    H2 6598   3.550   0.610   4.182
 2241TIP3   OH2 6599   3.544   0.318   4.697
 2241TIP3    H1 6600   3.474   0.323   4.762
 2241TIP3    H2 6601   3.590   0.402   4.705
 2242TIP3   OH2 6602   0.094   9.093   3.306
 2242TIP3    H1 6603   0.158   9.154   3.269
 2242TIP3    H2 6604   0.142   9.045   3.374
 2243TIP3   OH2 6605   0.216   8.956   3.513
 2243TIP3    H1 6606   0.156   8.923   3.579
 2243TIP3    H2 6607   0.283   9.004   3.562
 2244TIP3   OH2 6608   3.527   0.109   3.944
 2244TIP3    H1 6609   3.570   0.038   3.895
 2244TIP3    H2 6610   3.530   0.184   3.885
 2245TIP3   OH2 6611   3.345   0.376   4.128
 2245TIP3    H1 6612   3.277   0.422   4.176
 2245TIP3    H2 6613   3.299   0.336   4.054
 2246TIP3   OH2 6614   0.040   8.809   3.672
 2246TIP3    H1 6615   0.075   8.720   3.674
 2246TIP3    H2 6616   0.011   8.826   3.761
 2247TIP3   OH2 6617   0.279   9.218   4.481
 2247TIP3    H1 6618   0.346   9.153   4.461
 2247TIP3    H2 6619   0.262   9.263   4.398
 2248TIP3   OH2 6620   0.479   9.025   4.529
 2248TIP3    H1 6621   0.404   8.980   4.567
 2248TIP3    H2 6622   0.530   9.055   4.604
 2249TIP3   OH2 6623   0.161   8.720   4.044
 2249TIP3    H1 6624   0.238   8.749   3.994
 2249TIP3    H2 6625   0.180   8.746   4.134
 2250TIP3   OH2 6626   0.226   8.846   4.281
 2250TIP3    H1 6627   0.158   8.873   4.343
 2250TIP3    H2 6628   0.260   8.927   4.245
 2251TIP3   OH2 6629   3.065   0.472   3.507
 2251TIP3    H1 6630   3.104   0.464   3.420
 2251TIP3    H2 6631   3.089   0.560   3.536
 2252TIP3   OH2 6632   2.146   0.394   4.756
 2252TIP3    H1 6633   2.110   0.309   4.729
 2252TIP3    H2 6634   2.182   0.377   4.843
 2253TIP3   OH2 6635   2.334   0.324   4.394
 2253TIP3    H1 6636   2.275   0.396   4.371
 2253TIP3    H2 6637   2.414   0.342   4.345
 2254TIP3   OH2 6638   2.736   0.583   4.574
 2254TIP3    H1 6639   2.782   0.563   4.655
 2254TIP3    H2 6640   2.797   0.636   4.523
 2255TIP3   OH2 6641   2.921   0.728   4.432
 2255TIP3    H1 6642   2.978   0.679   4.373
 2255TIP3    H2 6643   2.980   0.785   4.481
 2256TIP3   OH2 6644   2.040   0.640   4.468
 2256TIP3    H1 6645   1.967   0.671   4.414
 2256TIP3    H2 6646   2.042   0.701   4.542
 2257TIP3   OH2 6647   2.253   0.580   4.308
 2257TIP3    H1 6648   2.179   0.600   4.364
 2257TIP3    H2 6649   2.221   0.596   4.219
 2258TIP3   OH2 6650   2.640   0.595   4.102
 2258TIP3    H1 6651   2.572   0.606   4.036
 2258TIP3    H2 6652   2.651   0.682   4.140
 2259TIP3   OH2 6653   2.903   0.530   4.159
 2259TIP3    H1 6654   2.812   0.549   4.136
 2259TIP3    H2 6655   2.954   0.592   4.108
 2260TIP3   OH2 6656   3.103   0.693   4.051
 2260TIP3    H1 6657   3.104   0.780   4.011
 2260TIP3    H2 6658   3.133   0.634   3.981
 2261TIP3   OH2 6659   1.876   0.395   4.149
 2261TIP3    H1 6660   1.926   0.404   4.230
 2261TIP3    H2 6661   1.938   0.358   4.086
 2262TIP3   OH2 6662   2.102   0.306   4.024
 2262TIP3    H1 6663   2.100   0.214   4.049
 2262TIP3    H2 6664   2.194   0.330   4.025
 2263TIP3   OH2 6665   2.384   0.330   4.050
 2263TIP3    H1 6666   2.403   0.237   4.037
 2263TIP3    H2 6667   2.439   0.355   4.124
 2264TIP3   OH2 6668   3.179   0.441   3.254
 2264TIP3    H1 6669   3.166   0.346   3.250
 2264TIP3    H2 6670   3.134   0.474   3.177
 2265TIP3   OH2 6671   3.393   0.590   4.446
 2265TIP3    H1 6672   3.322   0.556   4.392
 2265TIP3    H2 6673   3.377   0.684   4.451
 2266TIP3   OH2 6674   4.667  -0.006   3.212
 2266TIP3    H1 6675   4.651   0.085   3.189
 2266TIP3    H2 6676   4.599  -0.055   3.164
 2267TIP3   OH2 6677   1.381   9.229   3.584
 2267TIP3    H1 6678   1.425   9.216   3.668
 2267TIP3    H2 6679   1.335   9.146   3.568
 2268TIP3   OH2 6680   0.672   9.144   3.944
 2268TIP3    H1 6681   0.719   9.093   4.010
 2268TIP3    H2 6682   0.740   9.181   3.889
 2269TIP3   OH2 6683   4.943   0.283   3.283
 2269TIP3    H1 6684   4.913   0.230   3.356
 2269TIP3    H2 6685   4.962   0.369   3.321
 2270TIP3   OH2 6686   3.954   0.275   3.652
 2270TIP3    H1 6687   3.927   0.183   3.644
 2270TIP3    H2 6688   4.048   0.275   3.634
 2271TIP3   OH2 6689   0.287   8.732   3.376
 2271TIP3    H1 6690   0.267   8.814   3.420
 2271TIP3    H2 6691   0.204   8.704   3.337
 2272TIP3   OH2 6692   0.439   9.063   3.638
 2272TIP3    H1 6693   0.488   8.981   3.648
 2272TIP3    H2 6694   0.505   9.128   3.614
 2273TIP3   OH2 6695   4.591   0.711   3.287
 2273TIP3    H1 6696   4.621   0.650   3.220
 2273TIP3    H2 6697   4.591   0.661   3.368
 2274TIP3   OH2 6698   4.467   0.205   3.618
 2274TIP3    H1 6699   4.506   0.125   3.583
 2274TIP3    H2 6700   4.542   0.261   3.639
 2275TIP3   OH2 6701   1.639   9.008   3.615
 2275TIP3    H1 6702   1.650   8.914   3.627
 2275TIP3    H2 6703   1.593   9.016   3.531
 2276TIP3   OH2 6704   0.547   8.815   3.697
 2276TIP3    H1 6705   0.630   8.793   3.739
 2276TIP3    H2 6706   0.551   8.773   3.611
 2277TIP3   OH2 6707   1.006   9.078   3.572
 2277TIP3    H1 6708   1.096   9.047   3.581
 2277TIP3    H2 6709   0.955   8.998   3.559
 2278TIP3   OH2 6710   2.203   8.881   3.788
 2278TIP3    H1 6711   2.236   8.970   3.776
 2278TIP3    H2 6712   2.271   8.826   3.748
 2279TIP3   OH2 6713   4.581   0.207   3.057
 2279TIP3    H1 6714   4.544   0.173   2.975
 2279TIP3    H2 6715   4.523   0.279   3.081
 2280TIP3   OH2 6716   4.341   0.146   3.858
 2280TIP3    H1 6717   4.277   0.213   3.882
 2280TIP3    H2 6718   4.376   0.175   3.774
 2281TIP3   OH2 6719   0.804   8.749   3.755
 2281TIP3    H1 6720   0.847   8.816   3.809
 2281TIP3    H2 6721   0.855   8.748   3.674
 2282TIP3   OH2 6722   4.152   0.332   3.934
 2282TIP3    H1 6723   4.138   0.421   3.902
 2282TIP3    H2 6724   4.070   0.309   3.977
 2283TIP3   OH2 6725   3.543   0.036   3.200
 2283TIP3    H1 6726   3.505   0.053   3.114
 2283TIP3    H2 6727   3.562   0.123   3.235
 2284TIP3   OH2 6728   4.976   0.530   3.417
 2284TIP3    H1 6729   4.888   0.527   3.455
 2284TIP3    H2 6730   4.978   0.613   3.370
 2285TIP3   OH2 6731   4.686   0.563   3.072
 2285TIP3    H1 6732   4.741   0.485   3.060
 2285TIP3    H2 6733   4.744   0.636   3.048
 2286TIP3   OH2 6734   4.829   0.331   3.034
 2286TIP3    H1 6735   4.752   0.275   3.036
 2286TIP3    H2 6736   4.878   0.307   3.113
 2287TIP3   OH2 6737   5.215   0.415   3.772
 2287TIP3    H1 6738   5.185   0.345   3.715
 2287TIP3    H2 6739   5.197   0.496   3.723
 2288TIP3   OH2 6740   1.231   9.102   3.041
 2288TIP3    H1 6741   1.141   9.131   3.028
 2288TIP3    H2 6742   1.268   9.099   2.953
 2289TIP3   OH2 6743   1.187   8.885   2.739
 2289TIP3    H1 6744   1.255   8.945   2.769
 2289TIP3    H2 6745   1.202   8.804   2.788
 2290TIP3   OH2 6746   5.386   0.120   3.588
 2290TIP3    H1 6747   5.300   0.163   3.591
 2290TIP3    H2 6748   5.426   0.151   3.507
 2291TIP3   OH2 6749   1.575   9.171   2.995
 2291TIP3    H1 6750   1.528   9.196   3.074
 2291TIP3    H2 6751   1.653   9.126   3.027
 2292TIP3   OH2 6752   5.027   0.028   3.884
 2292TIP3    H1 6753   5.017   0.123   3.889
 2292TIP3    H2 6754   4.942  -0.004   3.853
 2293TIP3   OH2 6755   0.802   9.167   3.389
 2293TIP3    H1 6756   0.761   9.099   3.336
 2293TIP3    H2 6757   0.874   9.123   3.433
 2294TIP3   OH2 6758   4.212   0.310   3.547
 2294TIP3    H1 6759   4.188   0.298   3.455
 2294TIP3    H2 6760   4.299   0.272   3.555
 2295TIP3   OH2 6761   0.885   9.203   3.776
 2295TIP3    H1 6762   0.929   9.169   3.698
 2295TIP3    H2 6763   0.947   9.266   3.813
 2296TIP3   OH2 6764   4.736   0.532   3.544
 2296TIP3    H1 6765   4.724   0.610   3.598
 2296TIP3    H2 6766   4.721   0.459   3.604
 2297TIP3   OH2 6767   4.346   0.441   4.098
 2297TIP3    H1 6768   4.285   0.502   4.139
 2297TIP3    H2 6769   4.291   0.386   4.042
 2298TIP3   OH2 6770   1.389   9.061   2.821
 2298TIP3    H1 6771   1.456   9.093   2.882
 2298TIP3    H2 6772   1.424   9.083   2.734
 2299TIP3   OH2 6773   4.062   0.002   4.238
 2299TIP3    H1 6774   4.069   0.096   4.258
 2299TIP3    H2 6775   3.971  -0.020   4.260
 2300TIP3   OH2 6776   4.437   0.440   3.093
 2300TIP3    H1 6777   4.517   0.493   3.090
 2300TIP3    H2 6778   4.374   0.491   3.041
 2301TIP3   OH2 6779   4.150   0.606   4.206
 2301TIP3    H1 6780   4.123   0.614   4.114
 2301TIP3    H2 6781   4.069   0.588   4.253
 2302TIP3   OH2 6782   0.668   8.988   3.224
 2302TIP3    H1 6783   0.613   9.050   3.178
 2302TIP3    H2 6784   0.619   8.905   3.221
 2303TIP3   OH2 6785   5.063   0.367   2.408
 2303TIP3    H1 6786   5.039   0.458   2.392
 2303TIP3    H2 6787   5.040   0.352   2.500
 2304TIP3   OH2 6788   3.735   0.139   4.130
 2304TIP3    H1 6789   3.662   0.126   4.070
 2304TIP3    H2 6790   3.763   0.050   4.153
 2305TIP3   OH2 6791   3.578   0.338   3.792
 2305TIP3    H1 6792   3.669   0.363   3.807
 2305TIP3    H2 6793   3.527   0.416   3.815
 2306TIP3   OH2 6794   5.440   0.799   3.834
 2306TIP3    H1 6795   5.447   0.704   3.843
 2306TIP3    H2 6796   5.359   0.822   3.880
 2307TIP3   OH2 6797   4.548   0.559   3.956
 2307TIP3    H1 6798   4.545   0.650   3.986
 2307TIP3    H2 6799   4.478   0.516   4.005
 2308TIP3   OH2 6800   4.314   0.660   2.916
 2308TIP3    H1 6801   4.259   0.637   2.840
 2308TIP3    H2 6802   4.279   0.743   2.946
 2309TIP3   OH2 6803   3.760   0.524   3.292
 2309TIP3    H1 6804   3.805   0.517   3.376
 2309TIP3    H2 6805   3.711   0.442   3.284
 2310TIP3   OH2 6806   4.538   0.591   2.555
 2310TIP3    H1 6807   4.607   0.527   2.536
 2310TIP3    H2 6808   4.554   0.618   2.645
 2311TIP3   OH2 6809   4.570   0.642   2.822
 2311TIP3    H1 6810   4.481   0.645   2.857
 2311TIP3    H2 6811   4.623   0.611   2.894
 2312TIP3   OH2 6812   2.078   9.191   4.008
 2312TIP3    H1 6813   2.035   9.275   4.026
 2312TIP3    H2 6814   2.007   9.126   4.015
 2313TIP3   OH2 6815   3.921   0.340   4.093
 2313TIP3    H1 6816   3.974   0.326   4.172
 2313TIP3    H2 6817   3.854   0.272   4.097
 2314TIP3   OH2 6818   1.836   9.105   4.095
 2314TIP3    H1 6819   1.792   9.020   4.089
 2314TIP3    H2 6820   1.805   9.154   4.018
 2315TIP3   OH2 6821   1.516   9.099   2.587
 2315TIP3    H1 6822   1.492   9.081   2.496
 2315TIP3    H2 6823   1.592   9.157   2.580
 2316TIP3   OH2 6824   0.930   8.954   3.885
 2316TIP3    H1 6825   0.891   8.958   3.972
 2316TIP3    H2 6826   0.903   9.037   3.843
 2317TIP3   OH2 6827   0.825   8.887   3.504
 2317TIP3    H1 6828   0.747   8.833   3.490
 2317TIP3    H2 6829   0.876   8.877   3.424
 2318TIP3   OH2 6830   1.423   8.926   3.123
 2318TIP3    H1 6831   1.353   8.985   3.095
 2318TIP3    H2 6832   1.442   8.873   3.046
 2319TIP3   OH2 6833   1.567   9.254   4.200
 2319TIP3    H1 6834   1.524   9.212   4.275
 2319TIP3    H2 6835   1.659   9.230   4.208
 2320TIP3   OH2 6836   1.530   9.047   3.366
 2320TIP3    H1 6837   1.484   9.122   3.330
 2320TIP3    H2 6838   1.514   8.976   3.303
 2321TIP3   OH2 6839   0.820   8.995   4.127
 2321TIP3    H1 6840   0.808   9.072   4.182
 2321TIP3    H2 6841   0.766   8.928   4.168
 2322TIP3   OH2 6842   1.518   9.154   3.809
 2322TIP3    H1 6843   1.565   9.099   3.747
 2322TIP3    H2 6844   1.500   9.096   3.883
 2323TIP3   OH2 6845   0.626   8.696   3.458
 2323TIP3    H1 6846   0.603   8.726   3.370
 2323TIP3    H2 6847   0.569   8.620   3.472
 2324TIP3   OH2 6848   0.906   8.611   3.201
 2324TIP3    H1 6849   0.998   8.635   3.201
 2324TIP3    H2 6850   0.865   8.672   3.139
 2325TIP3   OH2 6851   0.748   8.747   3.018
 2325TIP3    H1 6852   0.656   8.750   3.044
 2325TIP3    H2 6853   0.748   8.693   2.939
 2326TIP3   OH2 6854   5.148   1.127   3.924
 2326TIP3    H1 6855   5.142   1.144   3.830
 2326TIP3    H2 6856   5.226   1.174   3.952
 2327TIP3   OH2 6857   4.078   0.267   4.317
 2327TIP3    H1 6858   4.164   0.289   4.353
 2327TIP3    H2 6859   4.020   0.264   4.393
 2328TIP3   OH2 6860   1.262   8.975   3.608
 2328TIP3    H1 6861   1.248   8.913   3.536
 2328TIP3    H2 6862   1.261   8.922   3.687
 2329TIP3   OH2 6863   1.273   8.839   3.851
 2329TIP3    H1 6864   1.187   8.797   3.854
 2329TIP3    H2 6865   1.316   8.812   3.932
 2330TIP3   OH2 6866   0.990   9.215   2.964
 2330TIP3    H1 6867   0.920   9.152   2.950
 2330TIP3    H2 6868   0.970   9.256   3.049
 2331TIP3   OH2 6869   5.134   0.231   3.582
 2331TIP3    H1 6870   5.161   0.291   3.513
 2331TIP3    H2 6871   5.049   0.197   3.553
 2332TIP3   OH2 6872   4.716   0.328   3.976
 2332TIP3    H1 6873   4.669   0.248   3.999
 2332TIP3    H2 6874   4.653   0.398   3.992
 2333TIP3   OH2 6875   1.461   8.765   2.885
 2333TIP3    H1 6876   1.547   8.751   2.924
 2333TIP3    H2 6877   1.480   8.798   2.797
 2334TIP3   OH2 6878   0.658   9.235   3.613
 2334TIP3    H1 6879   0.697   9.219   3.527
 2334TIP3    H2 6880   0.729   9.218   3.675
 2335TIP3   OH2 6881   4.445   0.126   2.821
 2335TIP3    H1 6882   4.396   0.208   2.814
 2335TIP3    H2 6883   4.384   0.064   2.860
 2336TIP3   OH2 6884   0.545   9.142   4.283
 2336TIP3    H1 6885   0.549   9.108   4.373
 2336TIP3    H2 6886   0.468   9.100   4.244
 2337TIP3   OH2 6887   4.551   0.105   4.281
 2337TIP3    H1 6888   4.472   0.053   4.265
 2337TIP3    H2 6889   4.599   0.101   4.199
 2338TIP3   OH2 6890   4.820   0.597   3.869
 2338TIP3    H1 6891   4.728   0.574   3.877
 2338TIP3    H2 6892   4.845   0.626   3.957
 2339TIP3   OH2 6893   1.880   8.878   2.872
 2339TIP3    H1 6894   1.841   8.803   2.827
 2339TIP3    H2 6895   1.918   8.930   2.801
 2340TIP3   OH2 6896   5.457   0.525   3.852
 2340TIP3    H1 6897   5.364   0.503   3.853
 2340TIP3    H2 6898   5.488   0.490   3.768
 2341TIP3   OH2 6899   4.954   0.419   2.662
 2341TIP3    H1 6900   4.937   0.375   2.745
 2341TIP3    H2 6901   4.870   0.420   2.618
 2342TIP3   OH2 6902   4.895   0.104   3.496
 2342TIP3    H1 6903   4.805   0.074   3.513
 2342TIP3    H2 6904   4.937   0.030   3.452
 2343TIP3   OH2 6905   4.079   0.319   3.301
 2343TIP3    H1 6906   4.073   0.396   3.245
 2343TIP3    H2 6907   3.988   0.291   3.312
 2344TIP3   OH2 6908   0.408   8.889   2.985
 2344TIP3    H1 6909   0.431   8.980   3.006
 2344TIP3    H2 6910   0.429   8.841   3.065
 2345TIP3   OH2 6911   4.187   0.087   3.199
 2345TIP3    H1 6912   4.167   0.176   3.227
 2345TIP3    H2 6913   4.146   0.031   3.265
 2346TIP3   OH2 6914   4.359   0.638   3.755
 2346TIP3    H1 6915   4.392   0.711   3.702
 2346TIP3    H2 6916   4.437   0.603   3.798
 2347TIP3   OH2 6917   3.994   0.536   3.149
 2347TIP3    H1 6918   3.906   0.543   3.186
 2347TIP3    H2 6919   4.030   0.624   3.155
 2348TIP3   OH2 6920   4.716   0.303   3.701
 2348TIP3    H1 6921   4.723   0.311   3.796
 2348TIP3    H2 6922   4.789   0.246   3.677
 2349TIP3   OH2 6923   4.657   0.165   2.609
 2349TIP3    H1 6924   4.728   0.137   2.667
 2349TIP3    H2 6925   4.577   0.151   2.660
 2350TIP3   OH2 6926   4.973   0.801   3.760
 2350TIP3    H1 6927   4.905   0.738   3.781
 2350TIP3    H2 6928   4.936   0.853   3.689
 2351TIP3   OH2 6929   5.004   0.627   2.405
 2351TIP3    H1 6930   5.037   0.716   2.423
 2351TIP3    H2 6931   4.914   0.628   2.438
 2352TIP3   OH2 6932   4.866   0.095   2.769
 2352TIP3    H1 6933   4.854   0.046   2.851
 2352TIP3    H2 6934   4.959   0.117   2.768
 2353TIP3   OH2 6935   3.787   0.533   3.913
 2353TIP3    H1 6936   3.836   0.473   3.969
 2353TIP3    H2 6937   3.801   0.620   3.952
 2354TIP3   OH2 6938   4.045   0.142   2.614
 2354TIP3    H1 6939   4.054   0.051   2.584
 2354TIP3    H2 6940   4.035   0.135   2.709
 2355TIP3   OH2 6941   4.008   0.164   2.886
 2355TIP3    H1 6942   4.084   0.133   2.936
 2355TIP3    H2 6943   4.013   0.260   2.893
 2356TIP3   OH2 6944   0.485   9.137   3.088
 2356TIP3    H1 6945   0.417   9.179   3.141
 2356TIP3    H2 6946   0.497   9.195   3.013
 2357TIP3   OH2 6947   4.284   0.345   2.816
 2357TIP3    H1 6948   4.201   0.369   2.857
 2357TIP3    H2 6949   4.297   0.411   2.748
 2358TIP3   OH2 6950   1.184   8.599   3.241
 2358TIP3    H1 6951   1.266   8.640   3.214
 2358TIP3    H2 6952   1.210   8.531   3.302
 2359TIP3   OH2 6953   1.473   9.039   4.054
 2359TIP3    H1 6954   1.479   9.125   4.097
 2359TIP3    H2 6955   1.552   8.993   4.082
 2360TIP3   OH2 6956   4.036   0.436   2.898
 2360TIP3    H1 6957   4.016   0.506   2.837
 2360TIP3    H2 6958   4.020   0.473   2.985
 2361TIP3   OH2 6959   1.801   9.102   3.372
 2361TIP3    H1 6960   1.712   9.067   3.381
 2361TIP3    H2 6961   1.835   9.105   3.461
 2362TIP3   OH2 6962   3.753   0.057   2.861
 2362TIP3    H1 6963   3.829   0.114   2.874
 2362TIP3    H2 6964   3.783  -0.010   2.799
 2363TIP3   OH2 6965   4.994   0.793   3.331
 2363TIP3    H1 6966   4.949   0.849   3.267
 2363TIP3    H2 6967   5.087   0.811   3.318
 2364TIP3   OH2 6968   3.590   0.301   3.278
 2364TIP3    H1 6969   3.545   0.339   3.353
 2364TIP3    H2 6970   3.549   0.341   3.201
 2365TIP3   OH2 6971   3.786   0.836   4.317
 2365TIP3    H1 6972   3.864   0.836   4.372
 2365TIP3    H2 6973   3.763   0.743   4.307
 2366TIP3   OH2 6974   4.327   0.720   4.386
 2366TIP3    H1 6975   4.341   0.808   4.349
 2366TIP3    H2 6976   4.268   0.677   4.324
 2367TIP3   OH2 6977   4.219   0.323   2.501
 2367TIP3    H1 6978   4.168   0.257   2.548
 2367TIP3    H2 6979   4.268   0.273   2.436
 2368TIP3   OH2 6980   4.878   0.690   4.122
 2368TIP3    H1 6981   4.888   0.623   4.190
 2368TIP3    H2 6982   4.952   0.749   4.134
 2369TIP3   OH2 6983   4.732   0.405   2.498
 2369TIP3    H1 6984   4.690   0.324   2.529
 2369TIP3    H2 6985   4.727   0.400   2.403
 2370TIP3   OH2 6986   3.885   0.230   4.513
 2370TIP3    H1 6987   3.902   0.137   4.524
 2370TIP3    H2 6988   3.799   0.235   4.472
 2371TIP3   OH2 6989   0.632   9.112   2.726
 2371TIP3    H1 6990   0.682   9.082   2.802
 2371TIP3    H2 6991   0.692   9.102   2.652
 2372TIP3   OH2 6992   4.411   0.336   4.343
 2372TIP3    H1 6993   4.398   0.370   4.255
 2372TIP3    H2 6994   4.466   0.258   4.331
 2373TIP3   OH2 6995   4.981   0.298   3.910
 2373TIP3    H1 6996   5.023   0.375   3.873
 2373TIP3    H2 6997   4.894   0.328   3.936
 2374TIP3   OH2 6998   0.726   9.215   4.539
 2374TIP3    H1 6999   0.811   9.190   4.503
 2374TIP3    H2 7000   0.745   9.247   4.627
 2375TIP3   OH2 7001   0.795   9.024   2.933
 2375TIP3    H1 7002   0.765   8.979   3.012
 2375TIP3    H2 7003   0.830   8.955   2.877
 2376TIP3   OH2 7004   1.066   9.203   4.219
 2376TIP3    H1 7005   0.971   9.216   4.217
 2376TIP3    H2 7006   1.085   9.156   4.138
 2377TIP3   OH2 7007   0.917   8.837   2.775
 2377TIP3    H1 7008   0.891   8.768   2.715
 2377TIP3    H2 7009   1.007   8.858   2.750
 2378TIP3   OH2 7010   4.860   0.266   4.317
 2378TIP3    H1 7011   4.840   0.206   4.246
 2378TIP3    H2 7012   4.869   0.210   4.394
 2379TIP3   OH2 7013   1.760   9.169   2.446
 2379TIP3    H1 7014   1.752   9.118   2.366
 2379TIP3    H2 7015   1.708   9.247   2.431
 2380TIP3   OH2 7016   1.210   8.947   4.274
 2380TIP3    H1 7017   1.126   8.922   4.312
 2380TIP3    H2 7018   1.188   8.981   4.187
 2381TIP3   OH2 7019   4.583   0.089   3.989
 2381TIP3    H1 7020   4.627   0.028   3.930
 2381TIP3    H2 7021   4.493   0.095   3.955
 2382TIP3   OH2 7022   1.937   9.134   4.419
 2382TIP3    H1 7023   1.852   9.109   4.382
 2382TIP3    H2 7024   1.915   9.178   4.501
 2383TIP3   OH2 7025   5.144   0.217   4.119
 2383TIP3    H1 7026   5.066   0.235   4.066
 2383TIP3    H2 7027   5.217   0.233   4.059
 2384TIP3   OH2 7028   0.992   9.135   4.537
 2384TIP3    H1 7029   0.979   9.054   4.587
 2384TIP3    H2 7030   1.068   9.117   4.482
 2385TIP3   OH2 7031   1.435   9.071   4.372
 2385TIP3    H1 7032   1.448   9.012   4.446
 2385TIP3    H2 7033   1.352   9.043   4.333
 2386TIP3   OH2 7034   4.031   0.646   2.718
 2386TIP3    H1 7035   4.113   0.618   2.676
 2386TIP3    H2 7036   3.988   0.700   2.652
 2387TIP3   OH2 7037   3.486   0.030   2.923
 2387TIP3    H1 7038   3.574   0.053   2.894
 2387TIP3    H2 7039   3.475  -0.062   2.898
 2388TIP3   OH2 7040   3.383   0.600   3.346
 2388TIP3    H1 7041   3.319   0.546   3.301
 2388TIP3    H2 7042   3.427   0.541   3.407
 2389TIP3   OH2 7043   3.525   0.439   3.521
 2389TIP3    H1 7044   3.515   0.372   3.588
 2389TIP3    H2 7045   3.577   0.507   3.563
 2390TIP3   OH2 7046   5.262   0.855   3.326
 2390TIP3    H1 7047   5.283   0.887   3.413
 2390TIP3    H2 7048   5.318   0.907   3.267
 2391TIP3   OH2 7049   5.279   0.880   3.608
 2391TIP3    H1 7050   5.236   0.795   3.602
 2391TIP3    H2 7051   5.351   0.867   3.670
 2392TIP3   OH2 7052   5.316   0.599   4.165
 2392TIP3    H1 7053   5.252   0.606   4.235
 2392TIP3    H2 7054   5.370   0.678   4.174
 2393TIP3   OH2 7055   5.137   0.141   2.778
 2393TIP3    H1 7056   5.204   0.205   2.751
 2393TIP3    H2 7057   5.161   0.119   2.868
 2394TIP3   OH2 7058   5.201   0.045   3.022
 2394TIP3    H1 7059   5.143  -0.026   3.049
 2394TIP3    H2 7060   5.222   0.091   3.104
 2395TIP3   OH2 7061   5.307   0.386   3.430
 2395TIP3    H1 7062   5.367   0.329   3.384
 2395TIP3    H2 7063   5.305   0.466   3.378
 2396TIP3   OH2 7064   5.143   0.634   3.618
 2396TIP3    H1 7065   5.076   0.685   3.665
 2396TIP3    H2 7066   5.097   0.596   3.544
 2397TIP3   OH2 7067   1.936   9.145   2.652
 2397TIP3    H1 7068   1.871   9.138   2.582
 2397TIP3    H2 7069   1.911   9.223   2.701
 2398TIP3   OH2 7070   1.835   8.820   2.501
 2398TIP3    H1 7071   1.756   8.828   2.448
 2398TIP3    H2 7072   1.806   8.774   2.580
 2399TIP3   OH2 7073   1.802   9.057   3.103
 2399TIP3    H1 7074   1.849   8.977   3.078
 2399TIP3    H2 7075   1.810   9.061   3.198
 2400TIP3   OH2 7076   0.409   9.112   3.902
 2400TIP3    H1 7077   0.404   9.101   3.807
 2400TIP3    H2 7078   0.502   9.129   3.919
 2401TIP3   OH2 7079   5.361   0.248   3.958
 2401TIP3    H1 7080   5.445   0.217   3.922
 2401TIP3    H2 7081   5.325   0.304   3.889
 2402TIP3   OH2 7082   5.591   0.069   4.003
 2402TIP3    H1 7083   5.507   0.030   4.027
 2402TIP3    H2 7084   5.631   0.092   4.087
 2403TIP3   OH2 7085   1.680   8.743   3.044
 2403TIP3    H1 7086   1.727   8.660   3.047
 2403TIP3    H2 7087   1.743   8.805   3.010
 2404TIP3   OH2 7088   2.051   8.910   3.556
 2404TIP3    H1 7089   2.005   8.992   3.575
 2404TIP3    H2 7090   2.090   8.885   3.640
 2405TIP3   OH2 7091   2.202   9.156   3.754
 2405TIP3    H1 7092   2.156   9.165   3.837
 2405TIP3    H2 7093   2.153   9.212   3.694
 2406TIP3   OH2 7094   0.377   8.831   3.913
 2406TIP3    H1 7095   0.429   8.818   3.833
 2406TIP3    H2 7096   0.377   8.926   3.926
 2407TIP3   OH2 7097   4.829   0.769   2.976
 2407TIP3    H1 7098   4.877   0.744   2.897
 2407TIP3    H2 7099   4.871   0.851   3.003
 2408TIP3   OH2 7100   3.927   0.571   4.375
 2408TIP3    H1 7101   3.836   0.550   4.353
 2408TIP3    H2 7102   3.937   0.540   4.465
 2409TIP3   OH2 7103   4.139   0.613   3.920
 2409TIP3    H1 7104   4.085   0.683   3.884
 2409TIP3    H2 7105   4.221   0.618   3.870
 2410TIP3   OH2 7106   4.536   0.821   4.052
 2410TIP3    H1 7107   4.580   0.813   4.136
 2410TIP3    H2 7108   4.594   0.875   3.999
 2411TIP3   OH2 7109   4.713   0.981   3.916
 2411TIP3    H1 7110   4.770   0.933   3.855
 2411TIP3    H2 7111   4.773   1.037   3.965
 2412TIP3   OH2 7112   3.791   0.833   3.957
 2412TIP3    H1 7113   3.700   0.845   3.930
 2412TIP3    H2 7114   3.808   0.906   4.017
 2413TIP3   OH2 7115   4.021   0.833   3.804
 2413TIP3    H1 7116   3.937   0.835   3.849
 2413TIP3    H2 7117   4.001   0.854   3.713
 2414TIP3   OH2 7118   4.433   0.849   3.591
 2414TIP3    H1 7119   4.362   0.857   3.527
 2414TIP3    H2 7120   4.444   0.937   3.626
 2415TIP3   OH2 7121   4.697   0.789   3.642
 2415TIP3    H1 7122   4.606   0.808   3.618
 2415TIP3    H2 7123   4.748   0.852   3.591
 2416TIP3   OH2 7124   4.897   0.951   3.535
 2416TIP3    H1 7125   4.899   1.040   3.499
 2416TIP3    H2 7126   4.927   0.895   3.464
 2417TIP3   OH2 7127   3.698   0.619   3.663
 2417TIP3    H1 7128   3.723   0.595   3.752
 2417TIP3    H2 7129   3.770   0.589   3.608
 2418TIP3   OH2 7130   3.904   0.511   3.526
 2418TIP3    H1 7131   3.915   0.428   3.572
 2418TIP3    H2 7132   3.992   0.550   3.527
 2419TIP3   OH2 7133   4.174   0.588   3.550
 2419TIP3    H1 7134   4.190   0.495   3.535
 2419TIP3    H2 7135   4.229   0.610   3.625
 2420TIP3   OH2 7136   3.484   0.416   3.055
 2420TIP3    H1 7137   3.403   0.378   3.022
 2420TIP3    H2 7138   3.483   0.506   3.023
 2421TIP3   OH2 7139   4.273   0.555   2.628
 2421TIP3    H1 7140   4.360   0.580   2.597
 2421TIP3    H2 7141   4.249   0.480   2.573
 2422TIP3   OH2 7142   4.975   0.691   2.757
 2422TIP3    H1 7143   4.981   0.605   2.716
 2422TIP3    H2 7144   4.999   0.752   2.688
 2423TIP3   OH2 7145   3.589   0.396   2.706
 2423TIP3    H1 7146   3.592   0.395   2.802
 2423TIP3    H2 7147   3.669   0.352   2.679
 2424TIP3   OH2 7148   5.188   0.855   3.930
 2424TIP3    H1 7149   5.116   0.824   3.874
 2424TIP3    H2 7150   5.174   0.949   3.937
 2425TIP3   OH2 7151   6.455   0.241   2.713
 2425TIP3    H1 7152   6.437   0.333   2.697
 2425TIP3    H2 7153   6.395   0.194   2.654
 2426TIP3   OH2 7154   6.436   0.247   3.064
 2426TIP3    H1 7155   6.490   0.234   3.142
 2426TIP3    H2 7156   6.385   0.166   3.057
 2427TIP3   OH2 7157   5.745   0.161   3.424
 2427TIP3    H1 7158   5.780   0.105   3.494
 2427TIP3    H2 7159   5.822   0.186   3.373
 2428TIP3   OH2 7160   6.727   0.536   2.773
 2428TIP3    H1 7161   6.711   0.480   2.849
 2428TIP3    H2 7162   6.749   0.621   2.809
 2429TIP3   OH2 7163   5.749   0.530   3.133
 2429TIP3    H1 7164   5.726   0.437   3.132
 2429TIP3    H2 7165   5.844   0.531   3.119
 2430TIP3   OH2 7166   2.096   9.045   3.018
 2430TIP3    H1 7167   2.055   9.112   2.964
 2430TIP3    H2 7168   2.075   8.963   2.974
 2431TIP3   OH2 7169   5.498   0.056   3.117
 2431TIP3    H1 7170   5.589   0.031   3.127
 2431TIP3    H2 7171   5.499   0.126   3.052
 2432TIP3   OH2 7172   6.396   0.963   2.783
 2432TIP3    H1 7173   6.419   0.900   2.715
 2432TIP3    H2 7174   6.408   0.915   2.866
 2433TIP3   OH2 7175   6.266   0.468   3.096
 2433TIP3    H1 7176   6.307   0.388   3.061
 2433TIP3    H2 7177   6.341   0.524   3.120
 2434TIP3   OH2 7178   3.424   9.217   3.121
 2434TIP3    H1 7179   3.508   9.171   3.112
 2434TIP3    H2 7180   3.406   9.251   3.033
 2435TIP3   OH2 7181   2.351   9.058   3.201
 2435TIP3    H1 7182   2.420   9.037   3.265
 2435TIP3    H2 7183   2.371   9.002   3.126
 2436TIP3   OH2 7184   6.069   0.091   3.033
 2436TIP3    H1 7185   6.157   0.058   3.052
 2436TIP3    H2 7186   6.013   0.013   3.031
 2437TIP3   OH2 7187   4.044   9.140   3.252
 2437TIP3    H1 7188   4.037   9.235   3.256
 2437TIP3    H2 7189   4.130   9.120   3.289
 2438TIP3   OH2 7190   6.341   0.445   2.564
 2438TIP3    H1 7191   6.319   0.427   2.473
 2438TIP3    H2 7192   6.299   0.529   2.583
 2439TIP3   OH2 7193   6.130   0.400   3.326
 2439TIP3    H1 7194   6.066   0.465   3.356
 2439TIP3    H2 7195   6.164   0.436   3.245
 2440TIP3   OH2 7196   2.596   8.971   3.278
 2440TIP3    H1 7197   2.633   9.056   3.300
 2440TIP3    H2 7198   2.657   8.935   3.213
 2441TIP3   OH2 7199   5.947   0.583   3.415
 2441TIP3    H1 7200   5.933   0.671   3.382
 2441TIP3    H2 7201   5.868   0.565   3.467
 2442TIP3   OH2 7202   5.332   0.309   2.674
 2442TIP3    H1 7203   5.285   0.345   2.599
 2442TIP3    H2 7204   5.367   0.385   2.720
 2443TIP3   OH2 7205   6.767   0.786   2.903
 2443TIP3    H1 7206   6.678   0.783   2.939
 2443TIP3    H2 7207   6.772   0.870   2.857
 2444TIP3   OH2 7208   6.477   0.812   2.564
 2444TIP3    H1 7209   6.530   0.733   2.553
 2444TIP3    H2 7210   6.535   0.884   2.537
 2445TIP3   OH2 7211   6.636   0.598   2.517
 2445TIP3    H1 7212   6.631   0.520   2.462
 2445TIP3    H2 7213   6.671   0.567   2.600
 2446TIP3   OH2 7214   6.985   0.696   3.268
 2446TIP3    H1 7215   6.973   0.621   3.209
 2446TIP3    H2 7216   6.970   0.772   3.213
 2447TIP3   OH2 7217   6.312   0.103   2.519
 2447TIP3    H1 7218   6.220   0.128   2.511
 2447TIP3    H2 7219   6.347   0.116   2.431
 2448TIP3   OH2 7220   2.989   9.156   2.191
 2448TIP3    H1 7221   3.060   9.193   2.243
 2448TIP3    H2 7222   3.024   9.073   2.157
 2449TIP3   OH2 7223   7.180   0.371   3.095
 2449TIP3    H1 7224   7.093   0.410   3.099
 2449TIP3    H2 7225   7.210   0.388   3.006
 2450TIP3   OH2 7226   6.636   0.172   2.501
 2450TIP3    H1 7227   6.593   0.196   2.583
 2450TIP3    H2 7228   6.725   0.149   2.527
 2451TIP3   OH2 7229   6.816   0.269   3.379
 2451TIP3    H1 7230   6.818   0.364   3.389
 2451TIP3    H2 7231   6.729   0.250   3.346
 2452TIP3   OH2 7232   5.861   0.189   2.869
 2452TIP3    H1 7233   5.823   0.118   2.817
 2452TIP3    H2 7234   5.938   0.150   2.911
 2453TIP3   OH2 7235   6.010   0.565   3.033
 2453TIP3    H1 7236   5.988   0.557   2.940
 2453TIP3    H2 7237   6.099   0.533   3.039
 2454TIP3   OH2 7238   5.964   0.194   3.260
 2454TIP3    H1 7239   6.003   0.170   3.176
 2454TIP3    H2 7240   6.019   0.266   3.292
 2455TIP3   OH2 7241   6.523   0.790   3.024
 2455TIP3    H1 7242   6.515   0.869   3.078
 2455TIP3    H2 7243   6.511   0.717   3.085
 2456TIP3   OH2 7244   6.144   0.690   3.577
 2456TIP3    H1 7245   6.083   0.749   3.621
 2456TIP3    H2 7246   6.088   0.634   3.521
 2457TIP3   OH2 7247   6.493   0.067   2.291
 2457TIP3    H1 7248   6.546   0.101   2.363
 2457TIP3    H2 7249   6.501   0.133   2.222
 2458TIP3   OH2 7250   5.875   0.268   3.715
 2458TIP3    H1 7251   5.884   0.359   3.743
 2458TIP3    H2 7252   5.782   0.249   3.725
 2459TIP3   OH2 7253   6.227   0.698   2.576
 2459TIP3    H1 7254   6.312   0.743   2.579
 2459TIP3    H2 7255   6.170   0.757   2.528
 2460TIP3   OH2 7256   5.937   0.844   3.667
 2460TIP3    H1 7257   5.910   0.853   3.576
 2460TIP3    H2 7258   5.856   0.827   3.715
 2461TIP3   OH2 7259   2.464   9.243   2.706
 2461TIP3    H1 7260   2.400   9.301   2.663
 2461TIP3    H2 7261   2.416   9.161   2.719
 2462TIP3   OH2 7262   6.785   0.621   1.937
 2462TIP3    H1 7263   6.788   0.716   1.924
 2462TIP3    H2 7264   6.818   0.585   1.855
 2463TIP3   OH2 7265   5.528   0.407   3.618
 2463TIP3    H1 7266   5.457   0.396   3.555
 2463TIP3    H2 7267   5.556   0.317   3.638
 2464TIP3   OH2 7268   5.368   0.606   3.272
 2464TIP3    H1 7269   5.460   0.625   3.290
 2464TIP3    H2 7270   5.322   0.686   3.295
 2465TIP3   OH2 7271   7.231   1.031   3.327
 2465TIP3    H1 7272   7.237   0.938   3.346
 2465TIP3    H2 7273   7.151   1.059   3.371
 2466TIP3   OH2 7274   6.342   0.822   3.442
 2466TIP3    H1 7275   6.337   0.913   3.471
 2466TIP3    H2 7276   6.272   0.778   3.490
 2467TIP3   OH2 7277   6.122   0.917   2.407
 2467TIP3    H1 7278   6.080   0.898   2.324
 2467TIP3    H2 7279   6.083   1.000   2.435
 2468TIP3   OH2 7280   5.563   0.780   2.778
 2468TIP3    H1 7281   5.605   0.776   2.863
 2468TIP3    H2 7282   5.513   0.699   2.771
 2469TIP3   OH2 7283   6.323   0.855   2.035
 2469TIP3    H1 7284   6.372   0.781   2.001
 2469TIP3    H2 7285   6.357   0.868   2.124
 2470TIP3   OH2 7286   6.375   0.897   2.303
 2470TIP3    H1 7287   6.289   0.899   2.345
 2470TIP3    H2 7288   6.433   0.861   2.370
 2471TIP3   OH2 7289   7.127   0.233   3.563
 2471TIP3    H1 7290   7.080   0.316   3.572
 2471TIP3    H2 7291   7.058   0.168   3.553
 2472TIP3   OH2 7292   5.729   0.595   3.585
 2472TIP3    H1 7293   5.777   0.588   3.667
 2472TIP3    H2 7294   5.659   0.530   3.593
 2473TIP3   OH2 7295   6.905   0.086   3.578
 2473TIP3    H1 7296   6.847   0.010   3.584
 2473TIP3    H2 7297   6.870   0.136   3.504
 2474TIP3   OH2 7298   2.725   9.187   3.381
 2474TIP3    H1 7299   2.686   9.202   3.466
 2474TIP3    H2 7300   2.712   9.269   3.333
 2475TIP3   OH2 7301   2.601   9.150   3.005
 2475TIP3    H1 7302   2.530   9.087   3.012
 2475TIP3    H2 7303   2.640   9.133   2.920
 2476TIP3   OH2 7304   3.227   9.179   2.645
 2476TIP3    H1 7305   3.161   9.233   2.602
 2476TIP3    H2 7306   3.278   9.141   2.573
 2477TIP3   OH2 7307   6.579   0.282   3.681
 2477TIP3    H1 7308   6.546   0.221   3.747
 2477TIP3    H2 7309   6.674   0.272   3.686
 2478TIP3   OH2 7310   6.600   0.065   2.873
 2478TIP3    H1 7311   6.550   0.143   2.845
 2478TIP3    H2 7312   6.573  -0.003   2.812
 2479TIP3   OH2 7313   5.869   0.005   3.616
 2479TIP3    H1 7314   5.874   0.083   3.672
 2479TIP3    H2 7315   5.820  -0.058   3.667
 2480TIP3   OH2 7316   6.581   0.170   3.280
 2480TIP3    H1 7317   6.625   0.102   3.229
 2480TIP3    H2 7318   6.550   0.125   3.358
 2481TIP3   OH2 7319   2.408   8.928   2.976
 2481TIP3    H1 7320   2.375   8.966   2.895
 2481TIP3    H2 7321   2.491   8.887   2.952
 2482TIP3   OH2 7322   2.728   8.850   2.635
 2482TIP3    H1 7323   2.816   8.881   2.656
 2482TIP3    H2 7324   2.688   8.922   2.587
 2483TIP3   OH2 7325   2.533   8.991   2.489
 2483TIP3    H1 7326   2.441   8.968   2.499
 2483TIP3    H2 7327   2.560   8.947   2.409
 2484TIP3   OH2 7328   6.948   1.380   3.411
 2484TIP3    H1 7329   6.946   1.394   3.316
 2484TIP3    H2 7330   7.027   1.424   3.440
 2485TIP3   OH2 7331   5.879   0.522   3.822
 2485TIP3    H1 7332   5.962   0.534   3.868
 2485TIP3    H2 7333   5.812   0.530   3.889
 2486TIP3   OH2 7334   3.050   9.238   3.105
 2486TIP3    H1 7335   3.067   9.176   3.034
 2486TIP3    H2 7336   3.067   9.188   3.185
 2487TIP3   OH2 7337   3.082   9.104   3.338
 2487TIP3    H1 7338   3.008   9.044   3.344
 2487TIP3    H2 7339   3.127   9.095   3.422
 2488TIP3   OH2 7340   6.062   0.211   2.458
 2488TIP3    H1 7341   5.986   0.156   2.439
 2488TIP3    H2 7342   6.035   0.262   2.534
 2489TIP3   OH2 7343   6.941   0.509   3.073
 2489TIP3    H1 7344   6.980   0.557   3.000
 2489TIP3    H2 7345   6.859   0.476   3.038
 2490TIP3   OH2 7346   6.508   0.575   3.461
 2490TIP3    H1 7347   6.460   0.496   3.486
 2490TIP3    H2 7348   6.449   0.647   3.484
 2491TIP3   OH2 7349   3.338   9.069   2.418
 2491TIP3    H1 7350   3.413   9.031   2.372
 2491TIP3    H2 7351   3.307   9.139   2.360
 2492TIP3   OH2 7352   5.730   0.250   3.103
 2492TIP3    H1 7353   5.767   0.236   3.016
 2492TIP3    H2 7354   5.799   0.223   3.164
 2493TIP3   OH2 7355   6.224   0.378   2.309
 2493TIP3    H1 7356   6.175   0.461   2.309
 2493TIP3    H2 7357   6.169   0.318   2.359
 2494TIP3   OH2 7358   5.622   0.171   3.752
 2494TIP3    H1 7359   5.632   0.140   3.842
 2494TIP3    H2 7360   5.567   0.106   3.710
 2495TIP3   OH2 7361   6.326   0.362   3.778
 2495TIP3    H1 7362   6.258   0.294   3.771
 2495TIP3    H2 7363   6.393   0.334   3.715
 2496TIP3   OH2 7364   6.610   0.855   3.357
 2496TIP3    H1 7365   6.517   0.835   3.366
 2496TIP3    H2 7366   6.638   0.880   3.445
 2497TIP3   OH2 7367   7.241   0.754   3.345
 2497TIP3    H1 7368   7.146   0.752   3.333
 2497TIP3    H2 7369   7.276   0.732   3.258
 2498TIP3   OH2 7370   6.744   0.707   2.204
 2498TIP3    H1 7371   6.735   0.640   2.273
 2498TIP3    H2 7372   6.763   0.657   2.125
 2499TIP3   OH2 7373   6.701   0.371   3.009
 2499TIP3    H1 7374   6.614   0.331   3.001
 2499TIP3    H2 7375   6.758   0.298   3.034
 2500TIP3   OH2 7376   5.879   0.583   2.787
 2500TIP3    H1 7377   5.874   0.658   2.728
 2500TIP3    H2 7378   5.788   0.568   2.815
 2501TIP3   OH2 7379   2.149   9.155   2.482
 2501TIP3    H1 7380   2.201   9.226   2.519
 2501TIP3    H2 7381   2.079   9.142   2.546
 2502TIP3   OH2 7382   5.960   0.348   2.666
 2502TIP3    H1 7383   5.954   0.438   2.699
 2502TIP3    H2 7384   5.926   0.295   2.738
 2503TIP3   OH2 7385   6.158   0.893   3.237
 2503TIP3    H1 7386   6.191   0.968   3.187
 2503TIP3    H2 7387   6.233   0.863   3.288
 2504TIP3   OH2 7388   5.793   0.795   2.629
 2504TIP3    H1 7389   5.706   0.803   2.669
 2504TIP3    H2 7390   5.830   0.883   2.635
 2505TIP3   OH2 7391   6.515   0.560   3.185
 2505TIP3    H1 7392   6.523   0.570   3.280
 2505TIP3    H2 7393   6.595   0.515   3.158
 2506TIP3   OH2 7394   6.469   0.428   2.134
 2506TIP3    H1 7395   6.529   0.424   2.209
 2506TIP3    H2 7396   6.382   0.424   2.174
 2507TIP3   OH2 7397   6.763   1.059   3.249
 2507TIP3    H1 7398   6.697   0.993   3.270
 2507TIP3    H2 7399   6.724   1.110   3.178
 2508TIP3   OH2 7400   6.814   0.900   1.894
 2508TIP3    H1 7401   6.852   0.971   1.843
 2508TIP3    H2 7402   6.737   0.939   1.935
 2509TIP3   OH2 7403   6.651   0.386   2.332
 2509TIP3    H1 7404   6.646   0.312   2.393
 2509TIP3    H2 7405   6.743   0.387   2.304
 2510TIP3   OH2 7406   5.582   0.790   3.400
 2510TIP3    H1 7407   5.636   0.732   3.454
 2510TIP3    H2 7408   5.598   0.878   3.436
 2511TIP3   OH2 7409   5.837   0.417   2.104
 2511TIP3    H1 7410   5.855   0.328   2.074
 2511TIP3    H2 7411   5.826   0.409   2.198
 2512TIP3   OH2 7412   5.784   0.416   2.377
 2512TIP3    H1 7413   5.846   0.387   2.444
 2512TIP3    H2 7414   5.789   0.512   2.379
 2513TIP3   OH2 7415   5.531   0.144   2.578
 2513TIP3    H1 7416   5.466   0.195   2.627
 2513TIP3    H2 7417   5.552   0.199   2.502
 2514TIP3   OH2 7418   6.070   0.601   2.306
 2514TIP3    H1 7419   5.985   0.623   2.343
 2514TIP3    H2 7420   6.092   0.676   2.250
 2515TIP3   OH2 7421   2.996   8.864   2.723
 2515TIP3    H1 7422   3.079   8.889   2.683
 2515TIP3    H2 7423   3.019   8.796   2.786
 2516TIP3   OH2 7424   6.518   0.063   3.525
 2516TIP3    H1 7425   6.513   0.151   3.563
 2516TIP3    H2 7426   6.597   0.025   3.563
 2517TIP3   OH2 7427   5.817   0.686   2.380
 2517TIP3    H1 7428   5.797   0.756   2.318
 2517TIP3    H2 7429   5.808   0.727   2.466
 2518TIP3   OH2 7430   6.871   0.084   2.851
 2518TIP3    H1 7431   6.776   0.083   2.859
 2518TIP3    H2 7432   6.902   0.125   2.931
 2519TIP3   OH2 7433   5.534   0.291   2.340
 2519TIP3    H1 7434   5.599   0.360   2.356
 2519TIP3    H2 7435   5.578   0.230   2.282
 2520TIP3   OH2 7436   2.267   8.907   2.472
 2520TIP3    H1 7437   2.238   8.996   2.452
 2520TIP3    H2 7438   2.202   8.874   2.534
 2521TIP3   OH2 7439   6.794   1.052   2.823
 2521TIP3    H1 7440   6.753   1.104   2.754
 2521TIP3    H2 7441   6.888   1.065   2.811
 2522TIP3   OH2 7442   5.395   0.559   2.763
 2522TIP3    H1 7443   5.351   0.598   2.839
 2522TIP3    H2 7444   5.348   0.594   2.687
 2523TIP3   OH2 7445   5.579   1.091   3.822
 2523TIP3    H1 7446   5.661   1.092   3.872
 2523TIP3    H2 7447   5.559   0.998   3.811
 2524TIP3   OH2 7448   6.041   1.008   3.862
 2524TIP3    H1 7449   6.134   0.984   3.872
 2524TIP3    H2 7450   6.010   0.954   3.790
 2525TIP3   OH2 7451   6.003   0.612   1.998
 2525TIP3    H1 7452   5.954   0.541   2.040
 2525TIP3    H2 7453   6.078   0.570   1.957
 2526TIP3   OH2 7454   6.668   0.941   3.612
 2526TIP3    H1 7455   6.679   0.877   3.682
 2526TIP3    H2 7456   6.739   1.003   3.625
 2527TIP3   OH2 7457   6.457   0.641   1.933
 2527TIP3    H1 7458   6.498   0.574   1.987
 2527TIP3    H2 7459   6.511   0.645   1.854
 2528TIP3   OH2 7460   5.678   0.510   4.015
 2528TIP3    H1 7461   5.706   0.418   4.018
 2528TIP3    H2 7462   5.595   0.508   3.968
 2529TIP3   OH2 7463   5.679   0.103   2.208
 2529TIP3    H1 7464   5.730   0.082   2.286
 2529TIP3    H2 7465   5.744   0.117   2.139
 2530TIP3   OH2 7466   6.293   0.628   3.794
 2530TIP3    H1 7467   6.247   0.644   3.712
 2530TIP3    H2 7468   6.318   0.535   3.789
 2531TIP3   OH2 7469   6.170   0.334   2.039
 2531TIP3    H1 7470   6.181   0.341   2.134
 2531TIP3    H2 7471   6.151   0.242   2.024
 2532TIP3   OH2 7472   6.778   0.544   3.398
 2532TIP3    H1 7473   6.827   0.618   3.362
 2532TIP3    H2 7474   6.693   0.582   3.422
 2533TIP3   OH2 7475   5.811   0.270   4.021
 2533TIP3    H1 7476   5.892   0.234   3.985
 2533TIP3    H2 7477   5.832   0.289   4.113
 2534TIP3   OH2 7478   5.843   0.039   2.422
 2534TIP3    H1 7479   5.818  -0.001   2.505
 2534TIP3    H2 7480   5.883  -0.033   2.372
 2535TIP3   OH2 7481   6.127   0.173   3.745
 2535TIP3    H1 7482   6.042   0.212   3.726
 2535TIP3    H2 7483   6.159   0.142   3.661
 2536TIP3   OH2 7484   2.726   9.094   2.274
 2536TIP3    H1 7485   2.711   9.008   2.234
 2536TIP3    H2 7486   2.810   9.123   2.238
 2537TIP3   OH2 7487   6.666   0.518   3.802
 2537TIP3    H1 7488   6.622   0.464   3.737
 2537TIP3    H2 7489   6.680   0.459   3.877
 2538TIP3   OH2 7490   2.887   9.098   3.675
 2538TIP3    H1 7491   2.966   9.055   3.641
 2538TIP3    H2 7492   2.882   9.180   3.626
 2539TIP3   OH2 7493   6.372   0.327   3.438
 2539TIP3    H1 7494   6.420   0.311   3.356
 2539TIP3    H2 7495   6.283   0.347   3.409
 2540TIP3   OH2 7496   6.977   0.137   3.919
 2540TIP3    H1 7497   6.891   0.135   3.877
 2540TIP3    H2 7498   6.961   0.184   4.001
 2541TIP3   OH2 7499   6.946   0.461   3.597
 2541TIP3    H1 7500   6.868   0.487   3.548
 2541TIP3    H2 7501   7.019   0.489   3.542
 2542TIP3   OH2 7502   6.065   0.151   4.013
 2542TIP3    H1 7503   6.044   0.058   4.027
 2542TIP3    H2 7504   6.100   0.154   3.924
 2543TIP3   OH2 7505   6.443   0.093   3.832
 2543TIP3    H1 7506   6.428   0.104   3.926
 2543TIP3    H2 7507   6.443  -0.002   3.819
 2544TIP3   OH2 7508   5.806   0.892   2.197
 2544TIP3    H1 7509   5.898   0.880   2.175
 2544TIP3    H2 7510   5.769   0.941   2.123
 2545TIP3   OH2 7511   5.282   0.171   2.354
 2545TIP3    H1 7512   5.369   0.211   2.353
 2545TIP3    H2 7513   5.296   0.085   2.395
 2546TIP3   OH2 7514   5.191   0.900   2.837
 2546TIP3    H1 7515   5.159   0.900   2.746
 2546TIP3    H2 7516   5.183   0.809   2.865
 2547TIP3   OH2 7517   5.319   0.682   2.998
 2547TIP3    H1 7518   5.320   0.628   3.077
 2547TIP3    H2 7519   5.350   0.768   3.027
 2548TIP3   OH2 7520   7.065   1.105   2.818
 2548TIP3    H1 7521   7.086   1.132   2.907
 2548TIP3    H2 7522   7.119   1.161   2.763
 2549TIP3   OH2 7523   7.088   1.135   3.099
 2549TIP3    H1 7524   7.041   1.051   3.094
 2549TIP3    H2 7525   7.157   1.120   3.162
 2550TIP3   OH2 7526   7.129   0.845   3.659
 2550TIP3    H1 7527   7.056   0.856   3.720
 2550TIP3    H2 7528   7.177   0.928   3.663
 2551TIP3   OH2 7529   6.916   0.385   2.276
 2551TIP3    H1 7530   6.977   0.450   2.241
 2551TIP3    H2 7531   6.972   0.322   2.321
 2552TIP3   OH2 7532   7.082   0.220   2.425
 2552TIP3    H1 7533   7.018   0.181   2.485
 2552TIP3    H2 7534   7.146   0.263   2.482
 2553TIP3   OH2 7535   7.127   0.623   2.903
 2553TIP3    H1 7536   7.173   0.555   2.855
 2553TIP3    H2 7537   7.132   0.701   2.847
 2554TIP3   OH2 7538   6.935   0.902   3.098
 2554TIP3    H1 7539   6.868   0.952   3.145
 2554TIP3    H2 7540   6.888   0.862   3.025
 2555TIP3   OH2 7541   6.886   0.092   2.583
 2555TIP3    H1 7542   6.904   0.000   2.564
 2555TIP3    H2 7543   6.890   0.099   2.678
 2556TIP3   OH2 7544   5.493   0.212   3.349
 2556TIP3    H1 7545   5.484   0.158   3.270
 2556TIP3    H2 7546   5.586   0.206   3.372
 2557TIP3   OH2 7547   7.169   0.510   3.454
 2557TIP3    H1 7548   7.241   0.454   3.428
 2557TIP3    H2 7549   7.182   0.591   3.405
 2558TIP3   OH2 7550   7.372   0.326   3.484
 2558TIP3    H1 7551   7.288   0.287   3.507
 2558TIP3    H2 7552   7.415   0.342   3.568
 2559TIP3   OH2 7553   3.827   9.198   3.046
 2559TIP3    H1 7554   3.877   9.261   2.994
 2559TIP3    H2 7555   3.886   9.175   3.118
 2560TIP3   OH2 7556   7.206   0.152   3.255
 2560TIP3    H1 7557   7.118   0.122   3.281
 2560TIP3    H2 7558   7.189   0.227   3.198
 2561TIP3   OH2 7559   2.126   9.176   3.371
 2561TIP3    H1 7560   2.199   9.137   3.418
 2561TIP3    H2 7561   2.073   9.218   3.439
 2562TIP3   OH2 7562   6.620   1.015   2.462
 2562TIP3    H1 7563   6.675   1.008   2.384
 2562TIP3    H2 7564   6.661   1.085   2.513
 2563TIP3   OH2 7565   5.717   0.811   3.835
 2563TIP3    H1 7566   5.623   0.796   3.829
 2563TIP3    H2 7567   5.735   0.809   3.929
 2564TIP3   OH2 7568   5.928   0.858   3.384
 2564TIP3    H1 7569   5.877   0.933   3.353
 2564TIP3    H2 7570   6.013   0.866   3.341
 2565TIP3   OH2 7571   6.327   1.088   3.523
 2565TIP3    H1 7572   6.366   1.084   3.611
 2565TIP3    H2 7573   6.388   1.141   3.472
 2566TIP3   OH2 7574   6.517   1.242   3.396
 2566TIP3    H1 7575   6.579   1.186   3.348
 2566TIP3    H2 7576   6.573   1.298   3.450
 2567TIP3   OH2 7577   5.589   1.088   3.440
 2567TIP3    H1 7578   5.499   1.107   3.415
 2567TIP3    H2 7579   5.611   1.157   3.503
 2568TIP3   OH2 7580   5.818   1.090   3.286
 2568TIP3    H1 7581   5.735   1.092   3.333
 2568TIP3    H2 7582   5.796   1.114   3.196
 2569TIP3   OH2 7583   6.229   1.108   3.078
 2569TIP3    H1 7584   6.158   1.118   3.015
 2569TIP3    H2 7585   6.239   1.194   3.117
 2570TIP3   OH2 7586   6.494   1.047   3.120
 2570TIP3    H1 7587   6.403   1.067   3.101
 2570TIP3    H2 7588   6.544   1.114   3.074
 2571TIP3   OH2 7589   6.697   1.216   3.023
 2571TIP3    H1 7590   6.697   1.303   2.984
 2571TIP3    H2 7591   6.729   1.158   2.954
 2572TIP3   OH2 7592   5.493   0.879   3.152
 2572TIP3    H1 7593   5.520   0.853   3.240
 2572TIP3    H2 7594   5.561   0.845   3.094
 2573TIP3   OH2 7595   5.700   0.769   3.014
 2573TIP3    H1 7596   5.710   0.685   3.060
 2573TIP3    H2 7597   5.787   0.808   3.018
 2574TIP3   OH2 7598   5.970   0.845   3.036
 2574TIP3    H1 7599   5.986   0.752   3.021
 2574TIP3    H2 7600   6.027   0.868   3.109
 2575TIP3   OH2 7601   5.273   0.630   2.523
 2575TIP3    H1 7602   5.196   0.592   2.481
 2575TIP3    H2 7603   5.252   0.722   2.535
 2576TIP3   OH2 7604   6.069   0.833   2.140
 2576TIP3    H1 7605   6.151   0.860   2.100
 2576TIP3    H2 7606   6.036   0.763   2.083
 2577TIP3   OH2 7607   6.769   0.976   2.230
 2577TIP3    H1 7608   6.763   0.881   2.225
 2577TIP3    H2 7609   6.724   1.007   2.151
 2578TIP3   OH2 7610   5.372   0.664   2.218
 2578TIP3    H1 7611   5.378   0.677   2.312
 2578TIP3    H2 7612   5.454   0.621   2.194
 2579TIP3   OH2 7613   6.981   1.106   3.418
 2579TIP3    H1 7614   6.908   1.079   3.362
 2579TIP3    H2 7615   6.973   1.201   3.423
 2580TIP3   OH2 7616   8.172   0.470   2.574
 2580TIP3    H1 7617   8.238   0.468   2.644
 2580TIP3    H2 7618   8.193   0.394   2.519
 2581TIP3   OH2 7619   7.553   0.449   2.895
 2581TIP3    H1 7620   7.583   0.376   2.949
 2581TIP3    H2 7621   7.595   0.526   2.935
 2582TIP3   OH2 7622   7.538   0.773   2.617
 2582TIP3    H1 7623   7.524   0.678   2.614
 2582TIP3    H2 7624   7.633   0.783   2.606
 2583TIP3   OH2 7625   7.298   0.325   2.582
 2583TIP3    H1 7626   7.338   0.240   2.595
 2583TIP3    H2 7627   7.371   0.384   2.563
 2584TIP3   OH2 7628   8.154   1.296   2.280
 2584TIP3    H1 7629   8.229   1.237   2.272
 2584TIP3    H2 7630   8.131   1.293   2.373
 2585TIP3   OH2 7631   8.044   0.713   2.598
 2585TIP3    H1 7632   8.076   0.627   2.570
 2585TIP3    H2 7633   8.123   0.761   2.621
 2586TIP3   OH2 7634   7.390   0.078   2.656
 2586TIP3    H1 7635   7.478   0.054   2.685
 2586TIP3    H2 7636   7.366   0.011   2.592
 2587TIP3   OH2 7637   7.893   0.635   2.815
 2587TIP3    H1 7638   7.834   0.703   2.846
 2587TIP3    H2 7639   7.939   0.675   2.741
 2588TIP3   OH2 7640   7.636  -0.002   2.727
 2588TIP3    H1 7641   7.681   0.056   2.788
 2588TIP3    H2 7642   7.705  -0.033   2.668
 2589TIP3   OH2 7643   7.731   0.837   2.902
 2589TIP3    H1 7644   7.730   0.928   2.873
 2589TIP3    H2 7645   7.652   0.828   2.955
 2590TIP3   OH2 7646   7.112   0.558   2.189
 2590TIP3    H1 7647   7.175   0.544   2.117
 2590TIP3    H2 7648   7.136   0.643   2.225
 2591TIP3   OH2 7649   8.565   1.092   2.401
 2591TIP3    H1 7650   8.488   1.064   2.451
 2591TIP3    H2 7651   8.544   1.069   2.310
 2592TIP3   OH2 7652   8.386   1.135   2.171
 2592TIP3    H1 7653   8.348   1.047   2.168
 2592TIP3    H2 7654   8.365   1.173   2.086
 2593TIP3   OH2 7655   8.609   0.528   2.897
 2593TIP3    H1 7656   8.619   0.602   2.957
 2593TIP3    H2 7657   8.522   0.539   2.859
 2594TIP3   OH2 7658   7.701   0.376   2.390
 2594TIP3    H1 7659   7.630   0.360   2.328
 2594TIP3    H2 7660   7.767   0.310   2.369
 2595TIP3   OH2 7661   7.799   0.826   2.519
 2595TIP3    H1 7662   7.781   0.809   2.426
 2595TIP3    H2 7663   7.884   0.786   2.534
 2596TIP3   OH2 7664   7.818   0.397   2.706
 2596TIP3    H1 7665   7.853   0.405   2.617
 2596TIP3    H2 7666   7.844   0.479   2.749
 2597TIP3   OH2 7667   8.328   1.015   2.507
 2597TIP3    H1 7668   8.303   1.097   2.550
 2597TIP3    H2 7669   8.309   0.947   2.572
 2598TIP3   OH2 7670   7.942   0.922   3.064
 2598TIP3    H1 7671   7.881   0.978   3.112
 2598TIP3    H2 7672   7.886   0.870   3.006
 2599TIP3   OH2 7673   7.653   0.542   3.169
 2599TIP3    H1 7674   7.665   0.627   3.211
 2599TIP3    H2 7675   7.566   0.513   3.197
 2600TIP3   OH2 7676   7.906   1.014   2.117
 2600TIP3    H1 7677   7.983   1.056   2.157
 2600TIP3    H2 7678   7.891   1.064   2.037
 2601TIP3   OH2 7679   7.730   1.065   3.156
 2601TIP3    H1 7680   7.709   1.102   3.070
 2601TIP3    H2 7681   7.655   1.088   3.211
 2602TIP3   OH2 7682   7.322   0.658   3.105
 2602TIP3    H1 7683   7.253   0.645   3.039
 2602TIP3    H2 7684   7.347   0.569   3.130
 2603TIP3   OH2 7685   7.194   0.844   2.751
 2603TIP3    H1 7686   7.290   0.850   2.747
 2603TIP3    H2 7687   7.166   0.925   2.793
 2604TIP3   OH2 7688   8.133   1.060   2.924
 2604TIP3    H1 7689   8.132   1.150   2.956
 2604TIP3    H2 7690   8.065   1.015   2.974
 2605TIP3   OH2 7691   7.883   1.179   1.887
 2605TIP3    H1 7692   7.808   1.160   1.830
 2605TIP3    H2 7693   7.866   1.267   1.919
 2606TIP3   OH2 7694   7.357   1.037   2.272
 2606TIP3    H1 7695   7.405   1.030   2.354
 2606TIP3    H2 7696   7.309   0.955   2.265
 2607TIP3   OH2 7697   8.153   1.140   1.843
 2607TIP3    H1 7698   8.059   1.147   1.861
 2607TIP3    H2 7699   8.164   1.052   1.809
 2608TIP3   OH2 7700   7.511   0.855   3.066
 2608TIP3    H1 7701   7.563   0.857   3.147
 2608TIP3    H2 7702   7.445   0.787   3.082
 2609TIP3   OH2 7703   7.782   0.182   2.867
 2609TIP3    H1 7704   7.739   0.216   2.945
 2609TIP3    H2 7705   7.786   0.257   2.807
 2610TIP3   OH2 7706   8.385   0.566   3.114
 2610TIP3    H1 7707   8.378   0.661   3.107
 2610TIP3    H2 7708   8.460   0.551   3.171
 2611TIP3   OH2 7709   7.652   0.274   3.085
 2611TIP3    H1 7710   7.657   0.350   3.141
 2611TIP3    H2 7711   7.614   0.205   3.140
 2612TIP3   OH2 7712   8.360   0.440   2.773
 2612TIP3    H1 7713   8.398   0.377   2.712
 2612TIP3    H2 7714   8.350   0.391   2.855
 2613TIP3   OH2 7715   8.729   1.649   2.895
 2613TIP3    H1 7716   8.718   1.657   2.800
 2613TIP3    H2 7717   8.798   1.712   2.917
 2614TIP3   OH2 7718   7.664   0.777   3.307
 2614TIP3    H1 7719   7.749   0.793   3.349
 2614TIP3    H2 7720   7.601   0.783   3.379
 2615TIP3   OH2 7721   8.142   0.117   2.822
 2615TIP3    H1 7722   8.076   0.059   2.860
 2615TIP3    H2 7723   8.222   0.099   2.872
 2616TIP3   OH2 7724   8.307   0.835   2.959
 2616TIP3    H1 7725   8.249   0.759   2.959
 2616TIP3    H2 7726   8.249   0.910   2.970
 2617TIP3   OH2 7727   7.536   0.481   2.606
 2617TIP3    H1 7728   7.604   0.449   2.547
 2617TIP3    H2 7729   7.570   0.462   2.694
 2618TIP3   OH2 7730   7.415   0.424   3.234
 2618TIP3    H1 7731   7.421   0.386   3.322
 2618TIP3    H2 7732   7.344   0.376   3.192
 2619TIP3   OH2 7733   8.141   0.579   3.261
 2619TIP3    H1 7734   8.065   0.530   3.231
 2619TIP3    H2 7735   8.211   0.554   3.200
 2620TIP3   OH2 7736   8.395   1.121   2.845
 2620TIP3    H1 7737   8.304   1.094   2.854
 2620TIP3    H2 7738   8.423   1.143   2.934
 2621TIP3   OH2 7739   7.696   0.830   2.255
 2621TIP3    H1 7740   7.745   0.891   2.200
 2621TIP3    H2 7741   7.604   0.849   2.236
 2622TIP3   OH2 7742   7.846   0.597   2.278
 2622TIP3    H1 7743   7.789   0.671   2.258
 2622TIP3    H2 7744   7.789   0.532   2.319
 2623TIP3   OH2 7745   7.958   1.154   2.719
 2623TIP3    H1 7746   7.997   1.231   2.677
 2623TIP3    H2 7747   8.030   1.117   2.771
 2624TIP3   OH2 7748   7.559   1.051   2.086
 2624TIP3    H1 7749   7.486   1.054   2.148
 2624TIP3    H2 7750   7.609   1.131   2.103
 2625TIP3   OH2 7751   8.296   0.803   2.682
 2625TIP3    H1 7752   8.302   0.818   2.777
 2625TIP3    H2 7753   8.367   0.741   2.664
 2626TIP3   OH2 7754   8.549   1.321   2.739
 2626TIP3    H1 7755   8.488   1.250   2.757
 2626TIP3    H2 7756   8.522   1.354   2.653
 2627TIP3   OH2 7757   7.375   1.046   2.892
 2627TIP3    H1 7758   7.425   0.987   2.948
 2627TIP3    H2 7759   7.390   1.133   2.928
 2628TIP3   OH2 7760   8.343   0.316   3.017
 2628TIP3    H1 7761   8.351   0.403   3.057
 2628TIP3    H2 7762   8.425   0.272   3.040
 2629TIP3   OH2 7763   7.460   0.996   1.831
 2629TIP3    H1 7764   7.529   1.045   1.787
 2629TIP3    H2 7765   7.486   0.994   1.923
 2630TIP3   OH2 7766   8.547   1.355   2.235
 2630TIP3    H1 7767   8.492   1.276   2.232
 2630TIP3    H2 7768   8.630   1.325   2.271
 2631TIP3   OH2 7769   7.183   0.820   2.258
 2631TIP3    H1 7770   7.141   0.858   2.336
 2631TIP3    H2 7771   7.134   0.858   2.184
 2632TIP3   OH2 7772   7.382   1.369   3.296
 2632TIP3    H1 7773   7.463   1.421   3.301
 2632TIP3    H2 7774   7.412   1.278   3.296
 2633TIP3   OH2 7775   8.464   1.195   3.101
 2633TIP3    H1 7776   8.472   1.125   3.166
 2633TIP3    H2 7777   8.538   1.253   3.119
 2634TIP3   OH2 7778   7.472   0.760   3.507
 2634TIP3    H1 7779   7.507   0.672   3.517
 2634TIP3    H2 7780   7.388   0.748   3.464
 2635TIP3   OH2 7781   8.094   0.847   3.278
 2635TIP3    H1 7782   8.049   0.869   3.196
 2635TIP3    H2 7783   8.121   0.756   3.267
 2636TIP3   OH2 7784   8.578   0.867   2.868
 2636TIP3    H1 7785   8.600   0.933   2.802
 2636TIP3    H2 7786   8.488   0.887   2.894
 2637TIP3   OH2 7787   7.628   0.532   3.534
 2637TIP3    H1 7788   7.705   0.492   3.495
 2637TIP3    H2 7789   7.651   0.543   3.626
 2638TIP3   OH2 7790   7.912   0.446   3.183
 2638TIP3    H1 7791   7.829   0.490   3.164
 2638TIP3    H2 7792   7.945   0.420   3.098
 2639TIP3   OH2 7793   8.494   0.754   3.295
 2639TIP3    H1 7794   8.587   0.753   3.270
 2639TIP3    H2 7795   8.489   0.696   3.371
 2640TIP3   OH2 7796   7.968   0.136   3.177
 2640TIP3    H1 7797   8.048   0.097   3.141
 2640TIP3    H2 7798   7.954   0.215   3.124
 2641TIP3   OH2 7799   8.156   0.616   2.915
 2641TIP3    H1 7800   8.204   0.551   2.865
 2641TIP3    H2 7801   8.064   0.601   2.892
 2642TIP3   OH2 7802   8.743   0.427   3.495
 2642TIP3    H1 7803   8.691   0.432   3.415
 2642TIP3    H2 7804   8.750   0.518   3.525
 2643TIP3   OH2 7805   8.722   0.744   3.059
 2643TIP3    H1 7806   8.671   0.798   2.998
 2643TIP3    H2 7807   8.795   0.712   3.006
 2644TIP3   OH2 7808   7.855   0.386   3.450
 2644TIP3    H1 7809   7.819   0.298   3.456
 2644TIP3    H2 7810   7.876   0.398   3.358
 2645TIP3   OH2 7811   8.355   0.354   3.355
 2645TIP3    H1 7812   8.383   0.302   3.430
 2645TIP3    H2 7813   8.298   0.296   3.304
 2646TIP3   OH2 7814   7.648   1.180   1.717
 2646TIP3    H1 7815   7.629   1.271   1.738
 2646TIP3    H2 7816   7.618   1.169   1.626
 2647TIP3   OH2 7817   6.977   1.123   2.328
 2647TIP3    H1 7818   6.911   1.070   2.283
 2647TIP3    H2 7819   7.019   1.062   2.389
 2648TIP3   OH2 7820   7.118   0.959   2.499
 2648TIP3    H1 7821   7.110   0.890   2.566
 2648TIP3    H2 7822   7.172   1.026   2.540
 2649TIP3   OH2 7823   8.663   1.053   2.668
 2649TIP3    H1 7824   8.655   1.144   2.699
 2649TIP3    H2 7825   8.650   1.060   2.573
 2650TIP3   OH2 7826   7.287   0.405   2.843
 2650TIP3    H1 7827   7.280   0.386   2.750
 2650TIP3    H2 7828   7.380   0.425   2.856
 2651TIP3   OH2 7829   7.238   0.126   2.878
 2651TIP3    H1 7830   7.288   0.111   2.798
 2651TIP3    H2 7831   7.238   0.221   2.890
 2652TIP3   OH2 7832   8.425   1.340   1.967
 2652TIP3    H1 7833   8.349   1.362   1.913
 2652TIP3    H2 7834   8.478   1.283   1.911
 2653TIP3   OH2 7835   7.496   1.103   3.319
 2653TIP3    H1 7836   7.406   1.071   3.317
 2653TIP3    H2 7837   7.523   1.093   3.411
 2654TIP3   OH2 7838   7.729   1.112   2.867
 2654TIP3    H1 7839   7.675   1.184   2.835
 2654TIP3    H2 7840   7.814   1.125   2.825
 2655TIP3   OH2 7841   8.149   1.322   2.996
 2655TIP3    H1 7842   8.175   1.325   3.088
 2655TIP3    H2 7843   8.214   1.376   2.951
 2656TIP3   OH2 7844   8.338   1.486   2.875
 2656TIP3    H1 7845   8.412   1.436   2.839
 2656TIP3    H2 7846   8.379   1.548   2.936
 2657TIP3   OH2 7847   7.375   1.337   2.909
 2657TIP3    H1 7848   7.283   1.357   2.888
 2657TIP3    H2 7849   7.400   1.406   2.970
 2658TIP3   OH2 7850   7.604   1.332   2.761
 2658TIP3    H1 7851   7.522   1.334   2.810
 2658TIP3    H2 7852   7.580   1.362   2.673
 2659TIP3   OH2 7853   8.025   1.378   2.554
 2659TIP3    H1 7854   7.938   1.388   2.516
 2659TIP3    H2 7855   8.037   1.455   2.609
 2660TIP3   OH2 7856   8.276   1.275   2.577
 2660TIP3    H1 7857   8.191   1.319   2.581
 2660TIP3    H2 7858   8.338   1.344   2.555
 2661TIP3   OH2 7859   8.476   1.446   2.498
 2661TIP3    H1 7860   8.481   1.541   2.491
 2661TIP3    H2 7861   8.498   1.414   2.410
 2662TIP3   OH2 7862   7.296   1.134   2.640
 2662TIP3    H1 7863   7.320   1.112   2.730
 2662TIP3    H2 7864   7.369   1.101   2.588
 2663TIP3   OH2 7865   7.502   1.021   2.504
 2663TIP3    H1 7866   7.510   0.934   2.544
 2663TIP3    H2 7867   7.590   1.058   2.510
 2664TIP3   OH2 7868   7.770   1.104   2.522
 2664TIP3    H1 7869   7.784   1.010   2.508
 2664TIP3    H2 7870   7.827   1.125   2.596
 2665TIP3   OH2 7871   7.052   0.932   2.045
 2665TIP3    H1 7872   6.972   0.890   2.013
 2665TIP3    H2 7873   7.050   1.020   2.008
 2666TIP3   OH2 7874   7.182   0.968   1.732
 2666TIP3    H1 7875   7.134   1.008   1.805
 2666TIP3    H2 7876   7.269   0.949   1.768
 2667TIP3   OH2 7877   8.743   1.373   2.930
 2667TIP3    H1 7878   8.681   1.346   2.862
 2667TIP3    H2 7879   8.748   1.468   2.921
 2668TIP3   OH2 7880   0.981   1.570   3.976
 2668TIP3    H1 7881   0.963   1.511   4.049
 2668TIP3    H2 7882   0.998   1.655   4.018
 2669TIP3   OH2 7883   0.641   2.010   4.002
 2669TIP3    H1 7884   0.670   1.965   3.923
 2669TIP3    H2 7885   0.657   1.947   4.073
 2670TIP3   OH2 7886   0.524   1.506   4.309
 2670TIP3    H1 7887   0.550   1.431   4.256
 2670TIP3    H2 7888   0.607   1.547   4.334
 2671TIP3   OH2 7889   1.534   0.844   4.256
 2671TIP3    H1 7890   1.584   0.904   4.312
 2671TIP3    H2 7891   1.589   0.835   4.178
 2672TIP3   OH2 7892   1.644   1.045   4.428
 2672TIP3    H1 7893   1.577   1.099   4.387
 2672TIP3    H2 7894   1.668   1.092   4.508
 2673TIP3   OH2 7895   0.353   1.430   4.509
 2673TIP3    H1 7896   0.289   1.498   4.531
 2673TIP3    H2 7897   0.401   1.465   4.434
 2674TIP3   OH2 7898   0.184   1.627   4.604
 2674TIP3    H1 7899   0.161   1.717   4.584
 2674TIP3    H2 7900   0.116   1.597   4.665
 2675TIP3   OH2 7901   1.011   1.820   4.105
 2675TIP3    H1 7902   0.920   1.816   4.136
 2675TIP3    H2 7903   1.017   1.902   4.056
 2676TIP3   OH2 7904   1.313   0.837   4.417
 2676TIP3    H1 7905   1.240   0.893   4.389
 2676TIP3    H2 7906   1.384   0.857   4.356
 2677TIP3   OH2 7907   0.756   1.864   3.804
 2677TIP3    H1 7908   0.802   1.780   3.805
 2677TIP3    H2 7909   0.800   1.915   3.737
 2678TIP3   OH2 7910   1.270   1.715   4.433
 2678TIP3    H1 7911   1.250   1.645   4.371
 2678TIP3    H2 7912   1.254   1.795   4.384
 2679TIP3   OH2 7913   1.449   1.411   4.277
 2679TIP3    H1 7914   1.362   1.452   4.277
 2679TIP3    H2 7915   1.478   1.417   4.186
 2680TIP3   OH2 7916   1.190   1.301   4.578
 2680TIP3    H1 7917   1.164   1.391   4.598
 2680TIP3    H2 7918   1.111   1.259   4.546
 2681TIP3   OH2 7919   0.760   1.822   4.221
 2681TIP3    H1 7920   0.765   1.895   4.283
 2681TIP3    H2 7921   0.759   1.744   4.276
 2682TIP3   OH2 7922   0.385   1.743   4.759
 2682TIP3    H1 7923   0.318   1.796   4.801
 2682TIP3    H2 7924   0.337   1.682   4.703
 2683TIP3   OH2 7925   0.126   1.310   4.871
 2683TIP3    H1 7926   0.128   1.379   4.937
 2683TIP3    H2 7927   0.072   1.344   4.801
 2684TIP3   OH2 7928   0.168   1.883   4.856
 2684TIP3    H1 7929   0.134   1.891   4.767
 2684TIP3    H2 7930   0.092   1.858   4.908
 2685TIP3   OH2 7931   1.498   2.102   4.504
 2685TIP3    H1 7932   1.504   2.006   4.510
 2685TIP3    H2 7933   1.415   2.123   4.545
 2686TIP3   OH2 7934   0.606   1.846   4.632
 2686TIP3    H1 7935   0.639   1.917   4.686
 2686TIP3    H2 7936   0.528   1.815   4.679
 2687TIP3   OH2 7937   1.375   1.257   4.795
 2687TIP3    H1 7938   1.308   1.292   4.736
 2687TIP3    H2 7939   1.393   1.169   4.760
 2688TIP3   OH2 7940   9.798   1.573   4.799
 2688TIP3    H1 7941   9.835   1.573   4.887
 2688TIP3    H2 7942   9.744   1.652   4.796
 2689TIP3   OH2 7943   0.879   0.608   4.769
 2689TIP3    H1 7944   0.916   0.671   4.831
 2689TIP3    H2 7945   0.785   0.609   4.787
 2690TIP3   OH2 7946   1.135   0.988   4.639
 2690TIP3    H1 7947   1.083   1.019   4.714
 2690TIP3    H2 7948   1.096   1.031   4.563
 2691TIP3   OH2 7949   0.829   1.259   4.891
 2691TIP3    H1 7950   0.856   1.202   4.963
 2691TIP3    H2 7951   0.901   1.323   4.884
 2692TIP3   OH2 7952   0.753   1.252   4.325
 2692TIP3    H1 7953   0.721   1.163   4.312
 2692TIP3    H2 7954   0.816   1.245   4.396
 2693TIP3   OH2 7955   1.189   2.424   4.595
 2693TIP3    H1 7956   1.182   2.441   4.501
 2693TIP3    H2 7957   1.268   2.471   4.622
 2694TIP3   OH2 7958   0.132   1.528   5.045
 2694TIP3    H1 7959   0.222   1.548   5.071
 2694TIP3    H2 7960   0.079   1.557   5.119
 2695TIP3   OH2 7961   1.201   1.525   4.251
 2695TIP3    H1 7962   1.227   1.571   4.171
 2695TIP3    H2 7963   1.118   1.482   4.228
 2696TIP3   OH2 7964   0.738   1.588   4.661
 2696TIP3    H1 7965   0.780   1.575   4.746
 2696TIP3    H2 7966   0.690   1.670   4.670
 2697TIP3   OH2 7967   0.607   1.417   4.901
 2697TIP3    H1 7968   0.566   1.390   4.819
 2697TIP3    H2 7969   0.688   1.366   4.905
 2698TIP3   OH2 7970   0.873   1.871   4.538
 2698TIP3    H1 7971   0.780   1.849   4.532
 2698TIP3    H2 7972   0.881   1.920   4.620
 2699TIP3   OH2 7973   1.510   1.824   4.516
 2699TIP3    H1 7974   1.417   1.802   4.517
 2699TIP3    H2 7975   1.542   1.787   4.433
 2700TIP3   OH2 7976   0.962   1.386   4.194
 2700TIP3    H1 7977   0.877   1.361   4.229
 2700TIP3    H2 7978   1.001   1.305   4.164
 2701TIP3   OH2 7979   0.413   1.908   4.420
 2701TIP3    H1 7980   0.463   1.967   4.364
 2701TIP3    H2 7981   0.478   1.866   4.476
 2702TIP3   OH2 7982   0.777   1.595   4.388
 2702TIP3    H1 7983   0.766   1.585   4.482
 2702TIP3    H2 7984   0.859   1.550   4.368
 2703TIP3   OH2 7985   1.026   2.096   4.416
 2703TIP3    H1 7986   0.952   2.040   4.437
 2703TIP3    H2 7987   0.989   2.163   4.358
 2704TIP3   OH2 7988   9.680   1.809   4.692
 2704TIP3    H1 7989   9.667   1.760   4.611
 2704TIP3    H2 7990   9.671   1.901   4.666
 2705TIP3   OH2 7991   0.858   0.802   4.551
 2705TIP3    H1 7992   0.944   0.834   4.522
 2705TIP3    H2 7993   0.876   0.715   4.587
 2706TIP3   OH2 7994   0.753   1.133   4.657
 2706TIP3    H1 7995   0.780   1.179   4.736
 2706TIP3    H2 7996   0.687   1.070   4.686
 2707TIP3   OH2 7997   1.405   1.042   4.632
 2707TIP3    H1 7998   1.315   1.009   4.632
 2707TIP3    H2 7999   1.416   1.081   4.546
 2708TIP3   OH2 8000   1.044   1.128   4.132
 2708TIP3    H1 8001   0.998   1.060   4.083
 2708TIP3    H2 8002   1.135   1.100   4.133
 2709TIP3   OH2 8003   1.036   2.079   4.015
 2709TIP3    H1 8004   0.991   2.113   3.938
 2709TIP3    H2 8005   1.128   2.101   4.002
 2710TIP3   OH2 8006   9.636   2.153   4.962
 2710TIP3    H1 8007   9.708   2.152   5.026
 2710TIP3    H2 8008   9.579   2.081   4.990
 2711TIP3   OH2 8009   0.278   2.064   5.034
 2711TIP3    H1 8010   0.373   2.053   5.035
 2711TIP3    H2 8011   0.248   2.000   4.970
 2712TIP3   OH2 8012   0.849   1.995   4.784
 2712TIP3    H1 8013   0.858   1.926   4.849
 2712TIP3    H2 8014   0.930   2.046   4.792
 2713TIP3   OH2 8015   0.560   1.680   4.958
 2713TIP3    H1 8016   0.500   1.695   4.885
 2713TIP3    H2 8017   0.591   1.590   4.946
 2714TIP3   OH2 8018   1.039   1.648   4.567
 2714TIP3    H1 8019   1.116   1.680   4.522
 2714TIP3    H2 8020   0.973   1.716   4.555
 2715TIP3   OH2 8021   0.369   1.190   4.898
 2715TIP3    H1 8022   0.279   1.221   4.897
 2715TIP3    H2 8023   0.413   1.241   4.829
 2716TIP3   OH2 8024   0.908   1.557   4.910
 2716TIP3    H1 8025   0.996   1.548   4.875
 2716TIP3    H2 8026   0.914   1.527   5.001
 2717TIP3   OH2 8027   0.441   0.935   4.999
 2717TIP3    H1 8028   0.492   0.928   4.919
 2717TIP3    H2 8029   0.396   1.019   4.992
 2718TIP3   OH2 8030   0.504   1.289   4.681
 2718TIP3    H1 8031   0.579   1.259   4.629
 2718TIP3    H2 8032   0.449   1.336   4.618
 2719TIP3   OH2 8033   1.202   1.220   5.017
 2719TIP3    H1 8034   1.256   1.143   5.037
 2719TIP3    H2 8035   1.257   1.274   4.961
 2720TIP3   OH2 8036   1.154   1.527   4.778
 2720TIP3    H1 8037   1.101   1.572   4.712
 2720TIP3    H2 8038   1.244   1.535   4.745
 2721TIP3   OH2 8039   0.739   0.999   5.056
 2721TIP3    H1 8040   0.782   0.933   5.110
 2721TIP3    H2 8041   0.739   0.961   4.968
 2722TIP3   OH2 8042   1.024   1.028   4.881
 2722TIP3    H1 8043   1.021   0.941   4.921
 2722TIP3    H2 8044   1.080   1.080   4.939
 2723TIP3   OH2 8045   1.222   0.953   5.084
 2723TIP3    H1 8046   1.219   0.857   5.094
 2723TIP3    H2 8047   1.234   0.985   5.174
 2724TIP3   OH2 8048   1.299   2.151   3.989
 2724TIP3    H1 8049   1.324   2.193   4.072
 2724TIP3    H2 8050   1.339   2.206   3.922
 2725TIP3   OH2 8051   1.330   2.189   4.270
 2725TIP3    H1 8052   1.292   2.101   4.263
 2725TIP3    H2 8053   1.403   2.179   4.330
 2726TIP3   OH2 8054   1.366   1.878   4.862
 2726TIP3    H1 8055   1.296   1.892   4.925
 2726TIP3    H2 8056   1.412   1.961   4.857
 2727TIP3   OH2 8057   1.337   1.197   3.692
 2727TIP3    H1 8058   1.270   1.266   3.691
 2727TIP3    H2 8059   1.418   1.243   3.713
 2728TIP3   OH2 8060   1.388   1.656   4.082
 2728TIP3    H1 8061   1.433   1.594   4.026
 2728TIP3    H2 8062   1.384   1.737   4.031
 2729TIP3   OH2 8063   1.201   1.934   4.282
 2729TIP3    H1 8064   1.137   1.987   4.328
 2729TIP3    H2 8065   1.151   1.892   4.211
 2730TIP3   OH2 8066   1.397   1.546   4.647
 2730TIP3    H1 8067   1.465   1.485   4.619
 2730TIP3    H2 8068   1.381   1.600   4.570
 2731TIP3   OH2 8069   1.585   1.340   4.632
 2731TIP3    H1 8070   1.523   1.312   4.698
 2731TIP3    H2 8071   1.665   1.290   4.651
 2732TIP3   OH2 8072   1.297   1.034   4.187
 2732TIP3    H1 8073   1.375   1.043   4.133
 2732TIP3    H2 8074   1.317   1.084   4.266
 2733TIP3   OH2 8075   1.376   1.186   4.405
 2733TIP3    H1 8076   1.310   1.225   4.462
 2733TIP3    H2 8077   1.411   1.259   4.354
 2734TIP3   OH2 8078   1.870   0.811   4.978
 2734TIP3    H1 8079   1.922   0.741   4.940
 2734TIP3    H2 8080   1.821   0.848   4.905
 2735TIP3   OH2 8081   1.690   0.936   4.807
 2735TIP3    H1 8082   1.630   0.963   4.876
 2735TIP3    H2 8083   1.644   0.868   4.759
 2736TIP3   OH2 8084   0.897   2.020   3.631
 2736TIP3    H1 8085   0.940   2.038   3.547
 2736TIP3    H2 8086   0.912   2.100   3.683
 2737TIP3   OH2 8087   9.755   1.816   5.023
 2737TIP3    H1 8088   9.661   1.806   5.011
 2737TIP3    H2 8089   9.771   1.791   5.114
 2738TIP3   OH2 8090   0.172   1.900   4.563
 2738TIP3    H1 8091   0.135   1.984   4.533
 2738TIP3    H2 8092   0.258   1.896   4.521
 2739TIP3   OH2 8093   0.748   2.330   4.526
 2739TIP3    H1 8094   0.774   2.238   4.531
 2739TIP3    H2 8095   0.799   2.372   4.595
 2740TIP3   OH2 8096   1.655   0.667   4.518
 2740TIP3    H1 8097   1.577   0.706   4.558
 2740TIP3    H2 8098   1.632   0.574   4.508
 2741TIP3   OH2 8099   9.663   2.086   4.624
 2741TIP3    H1 8100   9.572   2.114   4.619
 2741TIP3    H2 8101   9.693   2.119   4.709
 2742TIP3   OH2 8102   0.088   2.144   4.462
 2742TIP3    H1 8103   0.003   2.136   4.506
 2742TIP3    H2 8104   0.065   2.162   4.370
 2743TIP3   OH2 8105   0.489   2.160   4.253
 2743TIP3    H1 8106   0.418   2.141   4.192
 2743TIP3    H2 8107   0.447   2.200   4.328
 2744TIP3   OH2 8108   0.742   2.074   4.337
 2744TIP3    H1 8109   0.653   2.097   4.311
 2744TIP3    H2 8110   0.798   2.132   4.285
 2745TIP3   OH2 8111   0.902   2.243   4.193
 2745TIP3    H1 8112   0.936   2.331   4.176
 2745TIP3    H2 8113   0.946   2.187   4.130
 2746TIP3   OH2 8114   0.246   1.935   4.189
 2746TIP3    H1 8115   0.241   1.854   4.140
 2746TIP3    H2 8116   0.283   1.910   4.274
 2747TIP3   OH2 8117   1.025   2.033   3.378
 2747TIP3    H1 8118   1.039   1.944   3.348
 2747TIP3    H2 8119   1.012   2.084   3.298
 2748TIP3   OH2 8120   1.257   0.679   5.097
 2748TIP3    H1 8121   1.278   0.660   5.188
 2748TIP3    H2 8122   1.341   0.680   5.052
 2749TIP3   OH2 8123   1.239   2.154   4.590
 2749TIP3    H1 8124   1.169   2.125   4.531
 2749TIP3    H2 8125   1.225   2.248   4.600
 2750TIP3   OH2 8126   2.459   1.531   3.241
 2750TIP3    H1 8127   2.401   1.589   3.289
 2750TIP3    H2 8128   2.425   1.532   3.151
 2751TIP3   OH2 8129   2.522   1.522   3.756
 2751TIP3    H1 8130   2.569   1.500   3.837
 2751TIP3    H2 8131   2.470   1.444   3.737
 2752TIP3   OH2 8132   1.806   1.388   4.098
 2752TIP3    H1 8133   1.843   1.338   4.171
 2752TIP3    H2 8134   1.883   1.412   4.045
 2753TIP3   OH2 8135   2.835   1.823   3.450
 2753TIP3    H1 8136   2.785   1.762   3.504
 2753TIP3    H2 8137   2.806   1.910   3.479
 2754TIP3   OH2 8138   1.805   1.823   3.792
 2754TIP3    H1 8139   1.786   1.730   3.797
 2754TIP3    H2 8140   1.900   1.828   3.778
 2755TIP3   OH2 8141   1.575   1.327   3.772
 2755TIP3    H1 8142   1.627   1.250   3.795
 2755TIP3    H2 8143   1.639   1.392   3.744
 2756TIP3   OH2 8144   2.435   2.275   3.456
 2756TIP3    H1 8145   2.461   2.201   3.402
 2756TIP3    H2 8146   2.399   2.235   3.535
 2757TIP3   OH2 8147   2.318   1.762   3.781
 2757TIP3    H1 8148   2.344   1.691   3.722
 2757TIP3    H2 8149   2.400   1.801   3.809
 2758TIP3   OH2 8150   3.357   1.064   3.778
 2758TIP3    H1 8151   3.371   1.150   3.818
 2758TIP3    H2 8152   3.384   1.074   3.687
 2759TIP3   OH2 8153   2.723   1.237   3.798
 2759TIP3    H1 8154   2.756   1.151   3.822
 2759TIP3    H2 8155   2.683   1.225   3.712
 2760TIP3   OH2 8156   2.106   0.917   3.771
 2760TIP3    H1 8157   2.076   0.987   3.714
 2760TIP3    H2 8158   2.074   0.837   3.729
 2761TIP3   OH2 8159   2.783   1.001   3.400
 2761TIP3    H1 8160   2.848   0.992   3.468
 2761TIP3    H2 8161   2.831   1.034   3.324
 2762TIP3   OH2 8162   1.713   1.102   3.864
 2762TIP3    H1 8163   1.795   1.088   3.911
 2762TIP3    H2 8164   1.717   1.041   3.791
 2763TIP3   OH2 8165   2.127   1.312   3.713
 2763TIP3    H1 8166   2.221   1.296   3.714
 2763TIP3    H2 8167   2.089   1.232   3.678
 2764TIP3   OH2 8168   3.407   1.292   3.933
 2764TIP3    H1 8169   3.317   1.324   3.931
 2764TIP3    H2 8170   3.444   1.326   4.014
 2765TIP3   OH2 8171   2.067   0.899   4.206
 2765TIP3    H1 8172   2.013   0.933   4.135
 2765TIP3    H2 8173   2.015   0.912   4.285
 2766TIP3   OH2 8174   2.151   1.677   3.983
 2766TIP3    H1 8175   2.095   1.748   4.014
 2766TIP3    H2 8176   2.202   1.716   3.912
 2767TIP3   OH2 8177   2.942   1.017   3.621
 2767TIP3    H1 8178   2.897   0.996   3.703
 2767TIP3    H2 8179   2.995   1.094   3.642
 2768TIP3   OH2 8180   1.951   1.012   3.981
 2768TIP3    H1 8181   2.003   1.088   4.008
 2768TIP3    H2 8182   2.003   0.970   3.912
 2769TIP3   OH2 8183   1.999   1.884   4.081
 2769TIP3    H1 8184   1.985   1.973   4.047
 2769TIP3    H2 8185   1.919   1.865   4.130
 2770TIP3   OH2 8186   1.408   1.610   3.351
 2770TIP3    H1 8187   1.360   1.631   3.271
 2770TIP3    H2 8188   1.425   1.694   3.393
 2771TIP3   OH2 8189   2.819   2.090   3.547
 2771TIP3    H1 8190   2.739   2.080   3.599
 2771TIP3    H2 8191   2.808   2.174   3.502
 2772TIP3   OH2 8192   3.155   0.956   3.945
 2772TIP3    H1 8193   3.069   0.971   3.905
 2772TIP3    H2 8194   3.218   0.982   3.877
 2773TIP3   OH2 8195   2.402   0.597   3.935
 2773TIP3    H1 8196   2.396   0.504   3.955
 2773TIP3    H2 8197   2.325   0.636   3.977
 2774TIP3   OH2 8198   2.516   2.101   3.254
 2774TIP3    H1 8199   2.567   2.021   3.243
 2774TIP3    H2 8200   2.569   2.169   3.213
 2775TIP3   OH2 8201   2.677   1.885   3.207
 2775TIP3    H1 8202   2.690   1.832   3.128
 2775TIP3    H2 8203   2.735   1.845   3.273
 2776TIP3   OH2 8204   3.067   1.933   3.916
 2776TIP3    H1 8205   3.035   1.859   3.864
 2776TIP3    H2 8206   3.037   2.010   3.869
 2777TIP3   OH2 8207   2.371   1.089   3.008
 2777TIP3    H1 8208   2.356   1.184   3.007
 2777TIP3    H2 8209   2.421   1.072   2.928
 2778TIP3   OH2 8210   3.228   1.642   3.790
 2778TIP3    H1 8211   3.138   1.673   3.775
 2778TIP3    H2 8212   3.272   1.656   3.707
 2779TIP3   OH2 8213   2.717   1.511   3.146
 2779TIP3    H1 8214   2.637   1.514   3.199
 2779TIP3    H2 8215   2.781   1.466   3.201
 2780TIP3   OH2 8216   2.928   1.488   4.092
 2780TIP3    H1 8217   2.918   1.567   4.146
 2780TIP3    H2 8218   2.847   1.482   4.042
 2781TIP3   OH2 8219   1.930   1.450   3.567
 2781TIP3    H1 8220   1.888   1.396   3.500
 2781TIP3    H2 8221   2.001   1.396   3.601
 2782TIP3   OH2 8222   2.072   1.864   3.708
 2782TIP3    H1 8223   2.063   1.809   3.630
 2782TIP3    H2 8224   2.160   1.845   3.740
 2783TIP3   OH2 8225   2.023   1.441   3.932
 2783TIP3    H1 8226   2.060   1.405   3.851
 2783TIP3    H2 8227   2.069   1.523   3.946
 2784TIP3   OH2 8228   2.615   2.069   3.719
 2784TIP3    H1 8229   2.584   2.149   3.761
 2784TIP3    H2 8230   2.586   1.999   3.777
 2785TIP3   OH2 8231   2.202   1.974   4.247
 2785TIP3    H1 8232   2.143   2.034   4.293
 2785TIP3    H2 8233   2.144   1.925   4.188
 2786TIP3   OH2 8234   2.581   1.319   3.001
 2786TIP3    H1 8235   2.638   1.386   3.039
 2786TIP3    H2 8236   2.507   1.369   2.966
 2787TIP3   OH2 8237   1.954   1.524   4.403
 2787TIP3    H1 8238   1.955   1.619   4.414
 2787TIP3    H2 8239   1.861   1.502   4.391
 2788TIP3   OH2 8240   2.259   2.024   3.168
 2788TIP3    H1 8241   2.340   2.038   3.218
 2788TIP3    H2 8242   2.209   2.105   3.181
 2789TIP3   OH2 8243   1.996   2.133   4.335
 2789TIP3    H1 8244   1.967   2.149   4.245
 2789TIP3    H2 8245   1.916   2.115   4.383
 2790TIP3   OH2 8246   3.049   0.555   3.035
 2790TIP3    H1 8247   2.970   0.577   3.085
 2790TIP3    H2 8248   3.059   0.627   2.974
 2791TIP3   OH2 8249   1.799   1.300   3.376
 2791TIP3    H1 8250   1.733   1.357   3.337
 2791TIP3    H2 8251   1.758   1.213   3.377
 2792TIP3   OH2 8252   2.852   1.925   2.598
 2792TIP3    H1 8253   2.852   2.018   2.575
 2792TIP3    H2 8254   2.942   1.896   2.580
 2793TIP3   OH2 8255   1.580   1.700   4.283
 2793TIP3    H1 8256   1.512   1.684   4.217
 2793TIP3    H2 8257   1.616   1.613   4.301
 2794TIP3   OH2 8258   1.414   1.900   3.949
 2794TIP3    H1 8259   1.504   1.928   3.964
 2794TIP3    H2 8260   1.361   1.978   3.967
 2795TIP3   OH2 8261   3.267   2.298   3.943
 2795TIP3    H1 8262   3.285   2.207   3.965
 2795TIP3    H2 8263   3.202   2.326   4.007
 2796TIP3   OH2 8264   2.393   2.116   4.108
 2796TIP3    H1 8265   2.385   2.208   4.134
 2796TIP3    H2 8266   2.323   2.071   4.155
 2797TIP3   OH2 8267   2.155   2.273   3.041
 2797TIP3    H1 8268   2.108   2.238   2.965
 2797TIP3    H2 8269   2.097   2.341   3.076
 2798TIP3   OH2 8270   1.606   2.084   3.443
 2798TIP3    H1 8271   1.650   2.079   3.528
 2798TIP3    H2 8272   1.550   2.007   3.440
 2799TIP3   OH2 8273   2.372   2.159   2.710
 2799TIP3    H1 8274   2.413   2.078   2.681
 2799TIP3    H2 8275   2.396   2.165   2.803
 2800TIP3   OH2 8276   2.409   2.198   2.977
 2800TIP3    H1 8277   2.320   2.215   3.007
 2800TIP3    H2 8278   2.440   2.127   3.034
 2801TIP3   OH2 8279   3.176   1.425   4.252
 2801TIP3    H1 8280   3.094   1.442   4.207
 2801TIP3    H2 8281   3.198   1.334   4.230
 2802TIP3   OH2 8282   1.777   1.888   4.245
 2802TIP3    H1 8283   1.824   1.876   4.327
 2802TIP3    H2 8284   1.704   1.826   4.250
 2803TIP3   OH2 8285   2.163   0.678   4.064
 2803TIP3    H1 8286   2.083   0.650   4.021
 2803TIP3    H2 8287   2.139   0.758   4.111
 2804TIP3   OH2 8288   2.707   0.811   4.267
 2804TIP3    H1 8289   2.775   0.784   4.329
 2804TIP3    H2 8290   2.625   0.797   4.314
 2805TIP3   OH2 8291   2.933   1.221   4.177
 2805TIP3    H1 8292   2.893   1.223   4.264
 2805TIP3    H2 8293   2.918   1.310   4.142
 2806TIP3   OH2 8294   2.677   1.267   2.694
 2806TIP3    H1 8295   2.619   1.291   2.622
 2806TIP3    H2 8296   2.723   1.348   2.715
 2807TIP3   OH2 8297   2.106   1.221   4.078
 2807TIP3    H1 8298   2.060   1.229   4.162
 2807TIP3    H2 8299   2.083   1.300   4.030
 2808TIP3   OH2 8300   1.987   1.100   3.608
 2808TIP3    H1 8301   1.900   1.065   3.622
 2808TIP3    H2 8302   2.007   1.078   3.517
 2809TIP3   OH2 8303   2.482   1.181   3.310
 2809TIP3    H1 8304   2.443   1.255   3.264
 2809TIP3    H2 8305   2.537   1.138   3.244
 2810TIP3   OH2 8306   2.656   1.472   4.440
 2810TIP3    H1 8307   2.628   1.388   4.476
 2810TIP3    H2 8308   2.751   1.472   4.451
 2811TIP3   OH2 8309   2.633   1.187   3.542
 2811TIP3    H1 8310   2.568   1.209   3.476
 2811TIP3    H2 8311   2.680   1.112   3.506
 2812TIP3   OH2 8312   1.946   1.245   4.299
 2812TIP3    H1 8313   1.947   1.313   4.366
 2812TIP3    H2 8314   1.937   1.163   4.348
 2813TIP3   OH2 8315   2.679   1.437   3.975
 2813TIP3    H1 8316   2.700   1.369   3.910
 2813TIP3    H2 8317   2.634   1.389   4.045
 2814TIP3   OH2 8318   2.371   0.910   3.654
 2814TIP3    H1 8319   2.291   0.909   3.706
 2814TIP3    H2 8320   2.441   0.890   3.717
 2815TIP3   OH2 8321   1.769   0.929   3.651
 2815TIP3    H1 8322   1.690   0.909   3.600
 2815TIP3    H2 8323   1.826   0.854   3.637
 2816TIP3   OH2 8324   2.039   1.013   3.358
 2816TIP3    H1 8325   2.133   0.997   3.353
 2816TIP3    H2 8326   2.021   1.073   3.285
 2817TIP3   OH2 8327   2.795   0.976   3.858
 2817TIP3    H1 8328   2.772   0.995   3.949
 2817TIP3    H2 8329   2.729   0.913   3.830
 2818TIP3   OH2 8330   2.995   2.671   4.071
 2818TIP3    H1 8331   2.986   2.702   3.980
 2818TIP3    H2 8332   3.073   2.716   4.103
 2819TIP3   OH2 8333   1.920   1.791   4.477
 2819TIP3    H1 8334   1.999   1.824   4.519
 2819TIP3    H2 8335   1.851   1.803   4.542
 2820TIP3   OH2 8336   2.400   1.259   3.752
 2820TIP3    H1 8337   2.454   1.201   3.697
 2820TIP3    H2 8338   2.397   1.216   3.837
 2821TIP3   OH2 8339   1.994   0.726   3.600
 2821TIP3    H1 8340   2.063   0.668   3.631
 2821TIP3    H2 8341   2.010   0.736   3.507
 2822TIP3   OH2 8342   2.370   1.163   4.016
 2822TIP3    H1 8343   2.281   1.191   4.038
 2822TIP3    H2 8344   2.426   1.219   4.071
 2823TIP3   OH2 8345   2.980   1.751   3.730
 2823TIP3    H1 8346   2.992   1.794   3.645
 2823TIP3    H2 8347   2.901   1.699   3.719
 2824TIP3   OH2 8348   2.546   0.851   3.055
 2824TIP3    H1 8349   2.462   0.869   3.013
 2824TIP3    H2 8350   2.590   0.936   3.061
 2825TIP3   OH2 8351   2.520   1.861   4.148
 2825TIP3    H1 8352   2.560   1.858   4.235
 2825TIP3    H2 8353   2.474   1.945   4.146
 2826TIP3   OH2 8354   2.668   1.090   3.117
 2826TIP3    H1 8355   2.763   1.103   3.120
 2826TIP3    H2 8356   2.636   1.160   3.061
 2827TIP3   OH2 8357   1.792   1.534   3.787
 2827TIP3    H1 8358   1.832   1.518   3.702
 2827TIP3    H2 8359   1.857   1.504   3.851
 2828TIP3   OH2 8360   1.687   1.459   4.404
 2828TIP3    H1 8361   1.672   1.433   4.495
 2828TIP3    H2 8362   1.611   1.425   4.357
 2829TIP3   OH2 8363   2.409   1.596   4.450
 2829TIP3    H1 8364   2.340   1.539   4.416
 2829TIP3    H2 8365   2.491   1.554   4.423
 2830TIP3   OH2 8366   2.678   2.145   4.037
 2830TIP3    H1 8367   2.583   2.135   4.031
 2830TIP3    H2 8368   2.694   2.180   4.124
 2831TIP3   OH2 8369   3.051   1.183   2.920
 2831TIP3    H1 8370   2.996   1.142   2.853
 2831TIP3    H2 8371   3.063   1.273   2.890
 2832TIP3   OH2 8372   3.323   2.026   3.963
 2832TIP3    H1 8373   3.233   1.994   3.967
 2832TIP3    H2 8374   3.375   1.949   3.942
 2833TIP3   OH2 8375   2.792   1.980   2.863
 2833TIP3    H1 8376   2.770   1.900   2.910
 2833TIP3    H2 8377   2.807   1.951   2.773
 2834TIP3   OH2 8378   2.757   1.619   3.638
 2834TIP3    H1 8379   2.669   1.594   3.667
 2834TIP3    H2 8380   2.793   1.539   3.599
 2835TIP3   OH2 8381   1.876   1.848   3.397
 2835TIP3    H1 8382   1.875   1.933   3.354
 2835TIP3    H2 8383   1.786   1.836   3.428
 2836TIP3   OH2 8384   2.064   1.684   3.505
 2836TIP3    H1 8385   2.006   1.736   3.451
 2836TIP3    H2 8386   2.018   1.601   3.518
 2837TIP3   OH2 8387   2.204   2.189   3.901
 2837TIP3    H1 8388   2.238   2.266   3.855
 2837TIP3    H2 8389   2.278   2.157   3.952
 2838TIP3   OH2 8390   1.824   2.094   3.279
 2838TIP3    H1 8391   1.740   2.097   3.326
 2838TIP3    H2 8392   1.862   2.181   3.291
 2839TIP3   OH2 8393   2.563   1.844   3.877
 2839TIP3    H1 8394   2.552   1.846   3.972
 2839TIP3    H2 8395   2.626   1.772   3.863
 2840TIP3   OH2 8396   2.555   1.722   2.784
 2840TIP3    H1 8397   2.620   1.725   2.854
 2840TIP3    H2 8398   2.484   1.668   2.819
 2841TIP3   OH2 8399   2.853   2.314   3.879
 2841TIP3    H1 8400   2.786   2.260   3.920
 2841TIP3    H2 8401   2.805   2.375   3.823
 2842TIP3   OH2 8402   2.865   2.194   2.562
 2842TIP3    H1 8403   2.876   2.252   2.487
 2842TIP3    H2 8404   2.795   2.235   2.614
 2843TIP3   OH2 8405   1.921   0.996   4.428
 2843TIP3    H1 8406   1.825   0.993   4.420
 2843TIP3    H2 8407   1.940   0.940   4.503
 2844TIP3   OH2 8408   2.752   1.723   2.980
 2844TIP3    H1 8409   2.723   1.647   3.030
 2844TIP3    H2 8410   2.844   1.705   2.960
 2845TIP3   OH2 8411   1.630   2.079   4.065
 2845TIP3    H1 8412   1.686   2.026   4.121
 2845TIP3    H2 8413   1.641   2.168   4.097
 2846TIP3   OH2 8414   1.881   1.712   2.753
 2846TIP3    H1 8415   1.947   1.648   2.728
 2846TIP3    H2 8416   1.877   1.706   2.848
 2847TIP3   OH2 8417   1.873   1.721   3.027
 2847TIP3    H1 8418   1.960   1.704   3.064
 2847TIP3    H2 8419   1.862   1.816   3.036
 2848TIP3   OH2 8420   1.605   1.443   3.257
 2848TIP3    H1 8421   1.535   1.488   3.305
 2848TIP3    H2 8422   1.612   1.492   3.175
 2849TIP3   OH2 8423   2.730   1.041   4.118
 2849TIP3    H1 8424   2.812   1.082   4.146
 2849TIP3    H2 8425   2.723   0.962   4.173
 2850TIP3   OH2 8426   2.625   0.787   3.308
 2850TIP3    H1 8427   2.589   0.806   3.222
 2850TIP3    H2 8428   2.669   0.868   3.334
 2851TIP3   OH2 8429   2.121   1.891   2.963
 2851TIP3    H1 8430   2.038   1.935   2.981
 2851TIP3    H2 8431   2.180   1.921   3.032
 2852TIP3   OH2 8432   2.309   0.973   3.388
 2852TIP3    H1 8433   2.367   1.040   3.353
 2852TIP3    H2 8434   2.336   0.964   3.479
 2853TIP3   OH2 8435   2.581   1.271   4.172
 2853TIP3    H1 8436   2.605   1.292   4.262
 2853TIP3    H2 8437   2.622   1.187   4.155
 2854TIP3   OH2 8438   2.453   0.687   3.497
 2854TIP3    H1 8439   2.431   0.767   3.545
 2854TIP3    H2 8440   2.516   0.715   3.430
 2855TIP3   OH2 8441   1.860   1.996   3.026
 2855TIP3    H1 8442   1.847   2.073   2.972
 2855TIP3    H2 8443   1.845   2.026   3.115
 2856TIP3   OH2 8444   3.196   1.160   4.147
 2856TIP3    H1 8445   3.101   1.170   4.162
 2856TIP3    H2 8446   3.202   1.098   4.075
 2857TIP3   OH2 8447   2.854   1.370   3.549
 2857TIP3    H1 8448   2.780   1.310   3.554
 2857TIP3    H2 8449   2.922   1.329   3.602
 2858TIP3   OH2 8450   1.620   1.611   3.037
 2858TIP3    H1 8451   1.710   1.645   3.042
 2858TIP3    H2 8452   1.584   1.649   2.957
 2859TIP3   OH2 8453   2.835   2.360   3.466
 2859TIP3    H1 8454   2.794   2.412   3.396
 2859TIP3    H2 8455   2.929   2.379   3.458
 2860TIP3   OH2 8456   1.901   0.611   3.975
 2860TIP3    H1 8457   1.894   0.570   3.888
 2860TIP3    H2 8458   1.884   0.539   4.036
 2861TIP3   OH2 8459   1.423   1.876   3.427
 2861TIP3    H1 8460   1.385   1.911   3.508
 2861TIP3    H2 8461   1.367   1.912   3.357
 2862TIP3   OH2 8462   1.610   2.371   4.504
 2862TIP3    H1 8463   1.695   2.371   4.547
 2862TIP3    H2 8464   1.583   2.279   4.504
 2863TIP3   OH2 8465   2.090   2.296   4.538
 2863TIP3    H1 8466   2.185   2.283   4.543
 2863TIP3    H2 8467   2.063   2.243   4.463
 2864TIP3   OH2 8468   2.036   1.913   2.648
 2864TIP3    H1 8469   1.965   1.861   2.687
 2864TIP3    H2 8470   2.114   1.860   2.660
 2865TIP3   OH2 8471   2.725   2.236   4.291
 2865TIP3    H1 8472   2.737   2.169   4.357
 2865TIP3    H2 8473   2.797   2.298   4.306
 2866TIP3   OH2 8474   2.487   1.931   2.621
 2866TIP3    H1 8475   2.512   1.861   2.681
 2866TIP3    H2 8476   2.552   1.927   2.551
 2867TIP3   OH2 8477   1.729   1.790   4.680
 2867TIP3    H1 8478   1.740   1.695   4.691
 2867TIP3    H2 8479   1.645   1.799   4.635
 2868TIP3   OH2 8480   2.353   1.872   4.454
 2868TIP3    H1 8481   2.309   1.895   4.372
 2868TIP3    H2 8482   2.379   1.781   4.442
 2869TIP3   OH2 8483   2.206   1.703   2.718
 2869TIP3    H1 8484   2.205   1.747   2.804
 2869TIP3    H2 8485   2.246   1.618   2.735
 2870TIP3   OH2 8486   2.830   1.909   4.072
 2870TIP3    H1 8487   2.911   1.939   4.030
 2870TIP3    H2 8488   2.767   1.980   4.057
 2871TIP3   OH2 8489   1.842   1.530   4.689
 2871TIP3    H1 8490   1.912   1.523   4.624
 2871TIP3    H2 8491   1.886   1.559   4.769
 2872TIP3   OH2 8492   1.987   1.219   3.186
 2872TIP3    H1 8493   1.927   1.268   3.243
 2872TIP3    H2 8494   2.004   1.279   3.113
 2873TIP3   OH2 8495   2.212   1.425   4.347
 2873TIP3    H1 8496   2.124   1.461   4.356
 2873TIP3    H2 8497   2.240   1.452   4.259
 2874TIP3   OH2 8498   2.710   1.786   4.422
 2874TIP3    H1 8499   2.781   1.759   4.364
 2874TIP3    H2 8500   2.672   1.705   4.454
 2875TIP3   OH2 8501   2.867   1.469   2.612
 2875TIP3    H1 8502   2.844   1.417   2.535
 2875TIP3    H2 8503   2.821   1.552   2.598
 2876TIP3   OH2 8504   2.320   1.190   4.437
 2876TIP3    H1 8505   2.317   1.118   4.373
 2876TIP3    H2 8506   2.281   1.264   4.391
 2877TIP3   OH2 8507   2.324   0.987   4.240
 2877TIP3    H1 8508   2.349   1.024   4.156
 2877TIP3    H2 8509   2.234   0.957   4.228
 2878TIP3   OH2 8510   2.326   1.515   4.117
 2878TIP3    H1 8511   2.413   1.547   4.093
 2878TIP3    H2 8512   2.265   1.573   4.070
 2879TIP3   OH2 8513   2.919   1.492   4.534
 2879TIP3    H1 8514   2.974   1.414   4.525
 2879TIP3    H2 8515   2.981   1.566   4.525
 2880TIP3   OH2 8516   2.929   1.727   4.244
 2880TIP3    H1 8517   2.880   1.789   4.190
 2880TIP3    H2 8518   3.020   1.738   4.217
 2881TIP3   OH2 8519   2.207   1.277   4.682
 2881TIP3    H1 8520   2.136   1.216   4.703
 2881TIP3    H2 8521   2.230   1.257   4.591
 2882TIP3   OH2 8522   2.449   0.768   4.360
 2882TIP3    H1 8523   2.407   0.846   4.322
 2882TIP3    H2 8524   2.389   0.696   4.339
 2883TIP3   OH2 8525   2.570   1.230   4.544
 2883TIP3    H1 8526   2.555   1.208   4.636
 2883TIP3    H2 8527   2.487   1.210   4.500
 2884TIP3   OH2 8528   2.816   1.204   4.418
 2884TIP3    H1 8529   2.737   1.195   4.472
 2884TIP3    H2 8530   2.887   1.175   4.474
 2885TIP3   OH2 8531   3.041   1.143   4.566
 2885TIP3    H1 8532   3.058   1.049   4.574
 2885TIP3    H2 8533   3.039   1.175   4.656
 2886TIP3   OH2 8534   2.034   1.077   4.758
 2886TIP3    H1 8535   2.033   0.988   4.723
 2886TIP3    H2 8536   2.063   1.068   4.849
 2887TIP3   OH2 8537   2.506   0.727   4.626
 2887TIP3    H1 8538   2.578   0.666   4.613
 2887TIP3    H2 8539   2.475   0.747   4.537
 2888TIP3   OH2 8540   2.605   0.939   4.774
 2888TIP3    H1 8541   2.578   0.870   4.713
 2888TIP3    H2 8542   2.537   1.006   4.767
 2889TIP3   OH2 8543   1.848   2.204   2.853
 2889TIP3    H1 8544   1.938   2.193   2.822
 2889TIP3    H2 8545   1.804   2.255   2.785
 2890TIP3   OH2 8546   1.246   2.163   3.484
 2890TIP3    H1 8547   1.176   2.112   3.445
 2890TIP3    H2 8548   1.280   2.108   3.555
 2891TIP3   OH2 8549   1.362   1.996   3.673
 2891TIP3    H1 8550   1.352   1.932   3.742
 2891TIP3    H2 8551   1.418   2.064   3.711
 2892TIP3   OH2 8552   3.106   2.418   3.481
 2892TIP3    H1 8553   3.103   2.446   3.573
 2892TIP3    H2 8554   3.141   2.494   3.434
 2893TIP3   OH2 8555   3.097   2.446   3.762
 2893TIP3    H1 8556   3.026   2.404   3.811
 2893TIP3    H2 8557   3.176   2.423   3.810
 2894TIP3   OH2 8558   3.175   2.134   4.307
 2894TIP3    H1 8559   3.105   2.139   4.372
 2894TIP3    H2 8560   3.223   2.216   4.317
 2895TIP3   OH2 8561   3.018   1.661   2.948
 2895TIP3    H1 8562   3.086   1.719   2.914
 2895TIP3    H2 8563   3.059   1.616   3.022
 2896TIP3   OH2 8564   3.126   1.508   3.151
 2896TIP3    H1 8565   3.053   1.466   3.198
 2896TIP3    H2 8566   3.186   1.536   3.219
 2897TIP3   OH2 8567   3.155   1.924   3.552
 2897TIP3    H1 8568   3.222   1.855   3.553
 2897TIP3    H2 8569   3.100   1.903   3.477
 2898TIP3   OH2 8570   3.011   2.137   3.731
 2898TIP3    H1 8571   2.970   2.201   3.789
 2898TIP3    H2 8572   2.941   2.113   3.669
 2899TIP3   OH2 8573   3.059   1.429   2.802
 2899TIP3    H1 8574   2.997   1.433   2.729
 2899TIP3    H2 8575   3.038   1.507   2.854
 2900TIP3   OH2 8576   2.898   1.104   2.699
 2900TIP3    H1 8577   2.815   1.152   2.703
 2900TIP3    H2 8578   2.874   1.012   2.713
 2901TIP3   OH2 8579   2.920   1.369   3.279
 2901TIP3    H1 8580   2.928   1.276   3.257
 2901TIP3    H2 8581   2.903   1.370   3.374
 2902TIP3   OH2 8582   1.547   1.421   4.026
 2902TIP3    H1 8583   1.541   1.398   3.933
 2902TIP3    H2 8584   1.641   1.422   4.045
 2903TIP3   OH2 8585   3.178   1.772   4.140
 2903TIP3    H1 8586   3.250   1.712   4.123
 2903TIP3    H2 8587   3.163   1.815   4.056
 2904TIP3   OH2 8588   3.368   1.577   4.126
 2904TIP3    H1 8589   3.301   1.527   4.173
 2904TIP3    H2 8590   3.449   1.527   4.139
 2905TIP3   OH2 8591   2.847   0.843   2.759
 2905TIP3    H1 8592   2.924   0.799   2.794
 2905TIP3    H2 8593   2.774   0.809   2.810
 2906TIP3   OH2 8594   2.945   1.101   3.173
 2906TIP3    H1 8595   2.986   1.015   3.186
 2906TIP3    H2 8596   2.984   1.133   3.091
 2907TIP3   OH2 8597   3.070   1.254   3.690
 2907TIP3    H1 8598   3.150   1.271   3.641
 2907TIP3    H2 8599   3.086   1.294   3.776
 2908TIP3   OH2 8600   3.148   1.406   3.915
 2908TIP3    H1 8601   3.074   1.435   3.970
 2908TIP3    H2 8602   3.181   1.487   3.876
 2909TIP3   OH2 8603   1.782   1.153   4.673
 2909TIP3    H1 8604   1.876   1.147   4.686
 2909TIP3    H2 8605   1.745   1.080   4.722
 2910TIP3   OH2 8606   3.599   0.970   4.463
 2910TIP3    H1 8607   3.662   0.928   4.405
 2910TIP3    H2 8608   3.566   1.045   4.413
 2911TIP3   OH2 8609   3.041   0.842   3.218
 2911TIP3    H1 8610   3.082   0.821   3.302
 2911TIP3    H2 8611   2.975   0.774   3.205
 2912TIP3   OH2 8612   1.751   0.822   4.075
 2912TIP3    H1 8613   1.795   0.749   4.031
 2912TIP3    H2 8614   1.794   0.900   4.040
 2913TIP3   OH2 8615   1.538   1.134   4.087
 2913TIP3    H1 8616   1.590   1.106   4.011
 2913TIP3    H2 8617   1.536   1.230   4.080
 2914TIP3   OH2 8618   3.463   1.134   4.285
 2914TIP3    H1 8619   3.402   1.167   4.351
 2914TIP3    H2 8620   3.408   1.086   4.223
 2915TIP3   OH2 8621   3.094   0.749   2.844
 2915TIP3    H1 8622   3.134   0.702   2.771
 2915TIP3    H2 8623   3.147   0.828   2.855
 2916TIP3   OH2 8624   2.661   2.298   3.132
 2916TIP3    H1 8625   2.715   2.281   3.055
 2916TIP3    H2 8626   2.700   2.375   3.173
 2917TIP3   OH2 8627   1.831   0.724   4.322
 2917TIP3    H1 8628   1.757   0.708   4.380
 2917TIP3    H2 8629   1.791   0.754   4.240
 2918TIP3   OH2 8630   1.780   2.091   4.504
 2918TIP3    H1 8631   1.685   2.088   4.491
 2918TIP3    H2 8632   1.791   2.109   4.598
 2919TIP3   OH2 8633   1.974   2.162   4.051
 2919TIP3    H1 8634   1.920   2.233   4.017
 2919TIP3    H2 8635   2.057   2.170   4.003
 2920TIP3   OH2 8636   2.371   2.381   4.183
 2920TIP3    H1 8637   2.406   2.376   4.272
 2920TIP3    H2 8638   2.429   2.443   4.138
 2921TIP3   OH2 8639   2.551   2.555   4.067
 2921TIP3    H1 8640   2.609   2.512   4.004
 2921TIP3    H2 8641   2.609   2.609   4.121
 2922TIP3   OH2 8642   3.359   0.876   4.148
 2922TIP3    H1 8643   3.279   0.879   4.096
 2922TIP3    H2 8644   3.390   0.786   4.139
 2923TIP3   OH2 8645   1.626   2.380   4.084
 2923TIP3    H1 8646   1.538   2.402   4.053
 2923TIP3    H2 8647   1.642   2.440   4.156
 2924TIP3   OH2 8648   1.859   2.390   3.936
 2924TIP3    H1 8649   1.776   2.388   3.983
 2924TIP3    H2 8650   1.836   2.412   3.847
 2925TIP3   OH2 8651   2.291   2.405   3.749
 2925TIP3    H1 8652   2.216   2.414   3.690
 2925TIP3    H2 8653   2.299   2.491   3.790
 2926TIP3   OH2 8654   2.552   2.331   3.796
 2926TIP3    H1 8655   2.460   2.353   3.779
 2926TIP3    H2 8656   2.602   2.397   3.748
 2927TIP3   OH2 8657   2.752   2.499   3.690
 2927TIP3    H1 8658   2.745   2.589   3.660
 2927TIP3    H2 8659   2.773   2.449   3.611
 2928TIP3   OH2 8660   1.538   2.158   3.813
 2928TIP3    H1 8661   1.567   2.139   3.902
 2928TIP3    H2 8662   1.615   2.141   3.759
 2929TIP3   OH2 8663   1.754   2.065   3.674
 2929TIP3    H1 8664   1.763   1.981   3.717
 2929TIP3    H2 8665   1.842   2.102   3.673
 2930TIP3   OH2 8666   2.024   2.137   3.688
 2930TIP3    H1 8667   2.040   2.043   3.679
 2930TIP3    H2 8668   2.076   2.162   3.765
 2931TIP3   OH2 8669   2.582   0.794   3.798
 2931TIP3    H1 8670   2.533   0.722   3.837
 2931TIP3    H2 8671   2.646   0.752   3.741
 2932TIP3   OH2 8672   3.073   0.712   3.681
 2932TIP3    H1 8673   3.111   0.757   3.605
 2932TIP3    H2 8674   2.979   0.727   3.674
 2933TIP3   OH2 8675   3.193   0.777   3.442
 2933TIP3    H1 8676   3.260   0.717   3.409
 2933TIP3    H2 8677   3.231   0.864   3.431
 2934TIP3   OH2 8678   2.234   0.613   3.686
 2934TIP3    H1 8679   2.294   0.621   3.611
 2934TIP3    H2 8680   2.291   0.598   3.761
 2935TIP3   OH2 8681   2.789   0.682   3.651
 2935TIP3    H1 8682   2.784   0.650   3.562
 2935TIP3    H2 8683   2.794   0.603   3.705
 2936TIP3   OH2 8684   2.847   0.640   3.209
 2936TIP3    H1 8685   2.768   0.691   3.225
 2936TIP3    H2 8686   2.833   0.558   3.256
 2937TIP3   OH2 8687   1.276   1.958   3.202
 2937TIP3    H1 8688   1.267   1.911   3.119
 2937TIP3    H2 8689   1.277   2.051   3.178
 2938TIP3   OH2 8690   2.203   0.706   3.365
 2938TIP3    H1 8691   2.293   0.682   3.389
 2938TIP3    H2 8692   2.211   0.796   3.334
 2939TIP3   OH2 8693   2.103   2.152   2.778
 2939TIP3    H1 8694   2.194   2.163   2.751
 2939TIP3    H2 8695   2.076   2.068   2.740
 2940TIP3   OH2 8696   2.816   2.247   2.906
 2940TIP3    H1 8697   2.812   2.152   2.899
 2940TIP3    H2 8698   2.772   2.279   2.828
 2941TIP3   OH2 8699   2.046   0.814   4.681
 2941TIP3    H1 8700   2.005   0.750   4.739
 2941TIP3    H2 8701   2.138   0.814   4.707
 2942TIP3   OH2 8702   2.293   0.786   4.805
 2942TIP3    H1 8703   2.365   0.760   4.747
 2942TIP3    H2 8704   2.288   0.715   4.869
 2943TIP3   OH2 8705   1.416   1.989   2.854
 2943TIP3    H1 8706   1.433   2.029   2.940
 2943TIP3    H2 8707   1.495   1.940   2.835
 2944TIP3   OH2 8708   3.109   0.873   4.579
 2944TIP3    H1 8709   3.129   0.843   4.667
 2944TIP3    H2 8710   3.193   0.868   4.532
 2945TIP3   OH2 8711   3.043   2.398   4.072
 2945TIP3    H1 8712   2.964   2.366   4.028
 2945TIP3    H2 8713   3.028   2.492   4.083
 2946TIP3   OH2 8714   4.306   1.804   2.829
 2946TIP3    H1 8715   4.276   1.890   2.799
 2946TIP3    H2 8716   4.237   1.744   2.804
 2947TIP3   OH2 8717   4.308   1.788   3.244
 2947TIP3    H1 8718   4.362   1.770   3.321
 2947TIP3    H2 8719   4.263   1.705   3.226
 2948TIP3   OH2 8720   3.598   1.657   3.601
 2948TIP3    H1 8721   3.636   1.595   3.664
 2948TIP3    H2 8722   3.669   1.675   3.540
 2949TIP3   OH2 8723   4.574   2.095   2.919
 2949TIP3    H1 8724   4.563   2.027   2.986
 2949TIP3    H2 8725   4.595   2.174   2.968
 2950TIP3   OH2 8726   3.598   2.096   3.305
 2950TIP3    H1 8727   3.581   2.002   3.304
 2950TIP3    H2 8728   3.691   2.104   3.283
 2951TIP3   OH2 8729   3.280   1.281   3.073
 2951TIP3    H1 8730   3.237   1.365   3.092
 2951TIP3    H2 8731   3.217   1.233   3.020
 2952TIP3   OH2 8732   3.346   1.585   3.307
 2952TIP3    H1 8733   3.395   1.507   3.333
 2952TIP3    H2 8734   3.403   1.631   3.246
 2953TIP3   OH2 8735   4.233   2.521   2.933
 2953TIP3    H1 8736   4.261   2.458   2.867
 2953TIP3    H2 8737   4.240   2.474   3.016
 2954TIP3   OH2 8738   4.107   2.008   3.252
 2954TIP3    H1 8739   4.152   1.929   3.221
 2954TIP3    H2 8740   4.177   2.065   3.282
 2955TIP3   OH2 8741   5.150   1.326   3.268
 2955TIP3    H1 8742   5.163   1.412   3.306
 2955TIP3    H2 8743   5.178   1.335   3.177
 2956TIP3   OH2 8744   4.526   1.492   3.289
 2956TIP3    H1 8745   4.560   1.406   3.316
 2956TIP3    H2 8746   4.486   1.476   3.204
 2957TIP3   OH2 8747   3.874   1.151   3.245
 2957TIP3    H1 8748   3.857   1.226   3.187
 2957TIP3    H2 8749   3.819   1.081   3.211
 2958TIP3   OH2 8750   4.567   1.255   2.897
 2958TIP3    H1 8751   4.632   1.247   2.967
 2958TIP3    H2 8752   4.619   1.273   2.819
 2959TIP3   OH2 8753   3.497   1.367   3.385
 2959TIP3    H1 8754   3.583   1.349   3.425
 2959TIP3    H2 8755   3.499   1.318   3.303
 2960TIP3   OH2 8756   3.921   1.570   3.203
 2960TIP3    H1 8757   4.015   1.555   3.205
 2960TIP3    H2 8758   3.884   1.491   3.164
 2961TIP3   OH2 8759   5.202   1.550   3.433
 2961TIP3    H1 8760   5.115   1.588   3.423
 2961TIP3    H2 8761   5.237   1.588   3.514
 2962TIP3   OH2 8762   3.859   1.159   3.699
 2962TIP3    H1 8763   3.810   1.192   3.625
 2962TIP3    H2 8764   3.803   1.176   3.775
 2963TIP3   OH2 8765   4.205   2.016   2.682
 2963TIP3    H1 8766   4.163   1.982   2.603
 2963TIP3    H2 8767   4.152   2.092   2.707
 2964TIP3   OH2 8768   3.950   1.928   3.466
 2964TIP3    H1 8769   3.902   2.001   3.505
 2964TIP3    H2 8770   3.998   1.967   3.393
 2965TIP3   OH2 8771   4.731   1.277   3.113
 2965TIP3    H1 8772   4.694   1.256   3.199
 2965TIP3    H2 8773   4.788   1.353   3.130
 2966TIP3   OH2 8774   3.748   1.262   3.467
 2966TIP3    H1 8775   3.804   1.337   3.488
 2966TIP3    H2 8776   3.790   1.220   3.393
 2967TIP3   OH2 8777   3.800   2.125   3.592
 2967TIP3    H1 8778   3.773   2.211   3.560
 2967TIP3    H2 8779   3.729   2.097   3.650
 2968TIP3   OH2 8780   3.199   1.828   2.818
 2968TIP3    H1 8781   3.155   1.843   2.734
 2968TIP3    H2 8782   3.222   1.916   2.849
 2969TIP3   OH2 8783   4.613   2.340   3.064
 2969TIP3    H1 8784   4.525   2.333   3.100
 2969TIP3    H2 8785   4.613   2.423   3.016
 2970TIP3   OH2 8786   4.950   1.214   3.437
 2970TIP3    H1 8787   4.863   1.235   3.403
 2970TIP3    H2 8788   5.010   1.241   3.367
 2971TIP3   OH2 8789   4.198   0.850   3.431
 2971TIP3    H1 8790   4.189   0.757   3.454
 2971TIP3    H2 8791   4.121   0.892   3.469
 2972TIP3   OH2 8792   4.320   2.372   2.716
 2972TIP3    H1 8793   4.373   2.292   2.704
 2972TIP3    H2 8794   4.378   2.443   2.687
 2973TIP3   OH2 8795   4.457   2.141   2.672
 2973TIP3    H1 8796   4.383   2.080   2.672
 2973TIP3    H2 8797   4.507   2.117   2.751
 2974TIP3   OH2 8798   4.858   2.220   3.408
 2974TIP3    H1 8799   4.833   2.149   3.349
 2974TIP3    H2 8800   4.842   2.300   3.359
 2975TIP3   OH2 8801   4.131   1.646   2.678
 2975TIP3    H1 8802   4.047   1.686   2.656
 2975TIP3    H2 8803   4.181   1.647   2.597
 2976TIP3   OH2 8804   4.125   1.441   2.352
 2976TIP3    H1 8805   4.171   1.496   2.415
 2976TIP3    H2 8806   4.193   1.386   2.315
 2977TIP3   OH2 8807   5.022   1.893   3.268
 2977TIP3    H1 8808   4.937   1.937   3.265
 2977TIP3    H2 8809   5.059   1.905   3.180
 2978TIP3   OH2 8810   4.494   1.734   2.643
 2978TIP3    H1 8811   4.441   1.763   2.717
 2978TIP3    H2 8812   4.577   1.705   2.681
 2979TIP3   OH2 8813   4.724   1.754   3.574
 2979TIP3    H1 8814   4.718   1.835   3.624
 2979TIP3    H2 8815   4.643   1.750   3.524
 2980TIP3   OH2 8816   3.732   1.727   3.066
 2980TIP3    H1 8817   3.677   1.666   3.017
 2980TIP3    H2 8818   3.802   1.673   3.102
 2981TIP3   OH2 8819   3.852   2.127   3.186
 2981TIP3    H1 8820   3.827   2.113   3.094
 2981TIP3    H2 8821   3.938   2.087   3.194
 2982TIP3   OH2 8822   3.811   1.697   3.422
 2982TIP3    H1 8823   3.849   1.659   3.343
 2982TIP3    H2 8824   3.862   1.776   3.438
 2983TIP3   OH2 8825   4.371   2.335   3.187
 2983TIP3    H1 8826   4.357   2.415   3.238
 2983TIP3    H2 8827   4.354   2.264   3.249
 2984TIP3   OH2 8828   3.998   2.243   3.744
 2984TIP3    H1 8829   3.935   2.299   3.789
 2984TIP3    H2 8830   3.945   2.186   3.690
 2985TIP3   OH2 8831   4.327   1.590   2.482
 2985TIP3    H1 8832   4.386   1.647   2.531
 2985TIP3    H2 8833   4.359   1.594   2.392
 2986TIP3   OH2 8834   3.739   1.765   3.889
 2986TIP3    H1 8835   3.760   1.855   3.913
 2986TIP3    H2 8836   3.647   1.767   3.865
 2987TIP3   OH2 8837   4.070   2.256   2.721
 2987TIP3    H1 8838   4.153   2.303   2.729
 2987TIP3    H2 8839   4.012   2.319   2.677
 2988TIP3   OH2 8840   3.777   2.395   3.819
 2988TIP3    H1 8841   3.760   2.409   3.726
 2988TIP3    H2 8842   3.690   2.391   3.859
 2989TIP3   OH2 8843   3.571   1.563   2.922
 2989TIP3    H1 8844   3.511   1.586   2.850
 2989TIP3    H2 8845   3.599   1.474   2.901
 2990TIP3   OH2 8846   4.659   2.184   2.078
 2990TIP3    H1 8847   4.653   2.277   2.059
 2990TIP3    H2 8848   4.750   2.161   2.056
 2991TIP3   OH2 8849   3.276   2.207   3.521
 2991TIP3    H1 8850   3.357   2.204   3.471
 2991TIP3    H2 8851   3.233   2.288   3.494
 2992TIP3   OH2 8852   5.082   2.613   3.468
 2992TIP3    H1 8853   5.088   2.517   3.475
 2992TIP3    H2 8854   5.001   2.635   3.514
 2993TIP3   OH2 8855   4.182   2.382   3.596
 2993TIP3    H1 8856   4.176   2.473   3.623
 2993TIP3    H2 8857   4.117   2.336   3.649
 2994TIP3   OH2 8858   3.963   2.475   2.561
 2994TIP3    H1 8859   3.924   2.458   2.475
 2994TIP3    H2 8860   3.926   2.559   2.588
 2995TIP3   OH2 8861   3.397   2.334   2.935
 2995TIP3    H1 8862   3.438   2.330   3.021
 2995TIP3    H2 8863   3.349   2.252   2.927
 2996TIP3   OH2 8864   4.167   2.416   2.183
 2996TIP3    H1 8865   4.227   2.349   2.149
 2996TIP3    H2 8866   4.198   2.431   2.273
 2997TIP3   OH2 8867   4.215   2.456   2.452
 2997TIP3    H1 8868   4.131   2.457   2.497
 2997TIP3    H2 8869   4.276   2.421   2.517
 2998TIP3   OH2 8870   4.965   1.709   3.739
 2998TIP3    H1 8871   4.884   1.721   3.690
 2998TIP3    H2 8872   4.984   1.615   3.731
 2999TIP3   OH2 8873   3.961   0.939   3.557
 2999TIP3    H1 8874   3.878   0.907   3.521
 2999TIP3    H2 8875   3.938   1.021   3.600
 3000TIP3   OH2 8876   4.497   1.066   3.755
 3000TIP3    H1 8877   4.566   1.039   3.816
 3000TIP3    H2 8878   4.415   1.048   3.802
 3001TIP3   OH2 8879   4.730   1.485   3.649
 3001TIP3    H1 8880   4.696   1.483   3.738
 3001TIP3    H2 8881   4.714   1.575   3.619
 3002TIP3   OH2 8882   4.413   1.572   2.224
 3002TIP3    H1 8883   4.364   1.579   2.142
 3002TIP3    H2 8884   4.495   1.618   2.207
 3003TIP3   OH2 8885   4.139   0.977   2.544
 3003TIP3    H1 8886   4.095   0.995   2.627
 3003TIP3    H2 8887   4.091   0.903   2.507
 3004TIP3   OH2 8888   3.898   1.474   3.564
 3004TIP3    H1 8889   3.852   1.480   3.647
 3004TIP3    H2 8890   3.877   1.556   3.519
 3005TIP3   OH2 8891   3.782   1.358   3.092
 3005TIP3    H1 8892   3.694   1.334   3.119
 3005TIP3    H2 8893   3.782   1.345   2.997
 3006TIP3   OH2 8894   4.267   1.448   2.814
 3006TIP3    H1 8895   4.213   1.516   2.773
 3006TIP3    H2 8896   4.318   1.412   2.742
 3007TIP3   OH2 8897   4.455   1.703   3.872
 3007TIP3    H1 8898   4.432   1.635   3.935
 3007TIP3    H2 8899   4.546   1.724   3.892
 3008TIP3   OH2 8900   4.423   1.444   3.041
 3008TIP3    H1 8901   4.360   1.470   2.974
 3008TIP3    H2 8902   4.470   1.370   3.002
 3009TIP3   OH2 8903   3.729   1.489   3.782
 3009TIP3    H1 8904   3.746   1.555   3.849
 3009TIP3    H2 8905   3.717   1.408   3.831
 3010TIP3   OH2 8906   3.758   0.976   2.512
 3010TIP3    H1 8907   3.752   0.985   2.607
 3010TIP3    H2 8908   3.680   1.021   2.479
 3011TIP3   OH2 8909   3.327   1.001   3.374
 3011TIP3    H1 8910   3.398   1.043   3.424
 3011TIP3    H2 8911   3.359   0.997   3.284
 3012TIP3   OH2 8912   3.239   0.985   2.872
 3012TIP3    H1 8913   3.283   1.020   2.795
 3012TIP3    H2 8914   3.174   1.052   2.895
 3013TIP3   OH2 8915   4.475   1.698   3.455
 3013TIP3    H1 8916   4.499   1.630   3.393
 3013TIP3    H2 8917   4.427   1.652   3.524
 3014TIP3   OH2 8918   4.146   1.138   3.150
 3014TIP3    H1 8919   4.064   1.140   3.200
 3014TIP3    H2 8920   4.215   1.133   3.216
 3015TIP3   OH2 8921   3.541   1.229   3.156
 3015TIP3    H1 8922   3.458   1.239   3.109
 3015TIP3    H2 8923   3.576   1.145   3.125
 3016TIP3   OH2 8924   4.597   1.232   3.356
 3016TIP3    H1 8925   4.571   1.254   3.445
 3016TIP3    H2 8926   4.530   1.169   3.327
 3017TIP3   OH2 8927   3.505   1.330   2.559
 3017TIP3    H1 8928   3.513   1.260   2.495
 3017TIP3    H2 8929   3.555   1.300   2.635
 3018TIP3   OH2 8930   4.791   2.937   3.560
 3018TIP3    H1 8931   4.785   2.957   3.467
 3018TIP3    H2 8932   4.868   2.985   3.590
 3019TIP3   OH2 8933   3.760   2.022   3.983
 3019TIP3    H1 8934   3.836   2.051   4.034
 3019TIP3    H2 8935   3.684   2.051   4.033
 3020TIP3   OH2 8936   4.197   1.517   3.240
 3020TIP3    H1 8937   4.261   1.471   3.187
 3020TIP3    H2 8938   4.196   1.470   3.324
 3021TIP3   OH2 8939   3.685   0.984   3.121
 3021TIP3    H1 8940   3.656   0.905   3.166
 3021TIP3    H2 8941   3.695   0.957   3.029
 3022TIP3   OH2 8942   4.164   1.412   3.508
 3022TIP3    H1 8943   4.076   1.444   3.528
 3022TIP3    H2 8944   4.223   1.469   3.557
 3023TIP3   OH2 8945   3.878   1.764   2.625
 3023TIP3    H1 8946   3.821   1.687   2.627
 3023TIP3    H2 8947   3.862   1.808   2.708
 3024TIP3   OH2 8948   4.787   2.028   3.223
 3024TIP3    H1 8949   4.822   2.078   3.149
 3024TIP3    H2 8950   4.708   1.987   3.189
 3025TIP3   OH2 8951   4.336   1.132   2.437
 3025TIP3    H1 8952   4.265   1.085   2.480
 3025TIP3    H2 8953   4.364   1.198   2.500
 3026TIP3   OH2 8954   4.304   2.115   3.631
 3026TIP3    H1 8955   4.344   2.099   3.717
 3026TIP3    H2 8956   4.266   2.202   3.638
 3027TIP3   OH2 8957   4.422   1.348   2.596
 3027TIP3    H1 8958   4.516   1.353   2.614
 3027TIP3    H2 8959   4.403   1.430   2.550
 3028TIP3   OH2 8960   3.594   1.819   3.284
 3028TIP3    H1 8961   3.631   1.799   3.198
 3028TIP3    H2 8962   3.653   1.776   3.346
 3029TIP3   OH2 8963   4.040   1.922   2.472
 3029TIP3    H1 8964   3.996   2.007   2.467
 3029TIP3    H2 8965   3.980   1.866   2.522
 3030TIP3   OH2 8966   3.438   1.778   3.928
 3030TIP3    H1 8967   3.462   1.739   4.012
 3030TIP3    H2 8968   3.378   1.715   3.888
 3031TIP3   OH2 8969   4.221   1.868   3.895
 3031TIP3    H1 8970   4.157   1.800   3.877
 3031TIP3    H2 8971   4.306   1.824   3.888
 3032TIP3   OH2 8972   4.455   2.397   3.523
 3032TIP3    H1 8973   4.360   2.386   3.524
 3032TIP3    H2 8974   4.476   2.433   3.609
 3033TIP3   OH2 8975   4.839   1.449   2.428
 3033TIP3    H1 8976   4.809   1.389   2.360
 3033TIP3    H2 8977   4.840   1.535   2.386
 3034TIP3   OH2 8978   5.101   2.336   3.488
 3034TIP3    H1 8979   5.010   2.309   3.498
 3034TIP3    H2 8980   5.129   2.296   3.405
 3035TIP3   OH2 8981   4.580   2.255   2.347
 3035TIP3    H1 8982   4.553   2.187   2.408
 3035TIP3    H2 8983   4.598   2.208   2.265
 3036TIP3   OH2 8984   4.561   1.890   3.120
 3036TIP3    H1 8985   4.471   1.869   3.143
 3036TIP3    H2 8986   4.596   1.809   3.083
 3037TIP3   OH2 8987   3.714   2.131   2.939
 3037TIP3    H1 8988   3.715   2.208   2.882
 3037TIP3    H2 8989   3.621   2.112   2.952
 3038TIP3   OH2 8990   3.805   1.886   2.852
 3038TIP3    H1 8991   3.789   1.977   2.878
 3038TIP3    H2 8992   3.784   1.834   2.929
 3039TIP3   OH2 8993   3.993   2.447   3.392
 3039TIP3    H1 8994   4.026   2.523   3.344
 3039TIP3    H2 8995   4.068   2.416   3.443
 3040TIP3   OH2 8996   3.629   2.349   2.783
 3040TIP3    H1 8997   3.544   2.358   2.825
 3040TIP3    H2 8998   3.667   2.436   2.787
 3041TIP3   OH2 8999   4.343   2.114   3.359
 3041TIP3    H1 9000   4.331   2.111   3.454
 3041TIP3    H2 9001   4.417   2.057   3.342
 3042TIP3   OH2 9002   4.352   1.990   2.225
 3042TIP3    H1 9003   4.402   1.962   2.301
 3042TIP3    H2 9004   4.268   1.945   2.233
 3043TIP3   OH2 9005   4.606   2.608   3.403
 3043TIP3    H1 9006   4.535   2.546   3.422
 3043TIP3    H2 9007   4.573   2.661   3.331
 3044TIP3   OH2 9008   4.652   2.457   2.036
 3044TIP3    H1 9009   4.668   2.519   1.964
 3044TIP3    H2 9010   4.582   2.498   2.087
 3045TIP3   OH2 9011   3.688   1.236   3.907
 3045TIP3    H1 9012   3.593   1.242   3.908
 3045TIP3    H2 9013   3.711   1.189   3.987
 3046TIP3   OH2 9014   4.517   1.903   2.423
 3046TIP3    H1 9015   4.502   1.855   2.504
 3046TIP3    H2 9016   4.612   1.913   2.417
 3047TIP3   OH2 9017   3.702   1.960   2.251
 3047TIP3    H1 9018   3.712   1.868   2.225
 3047TIP3    H2 9019   3.684   1.957   2.344
 3048TIP3   OH2 9020   3.640   1.955   2.521
 3048TIP3    H1 9021   3.711   1.931   2.580
 3048TIP3    H2 9022   3.635   2.051   2.528
 3049TIP3   OH2 9023   3.401   1.622   2.681
 3049TIP3    H1 9024   3.325   1.602   2.735
 3049TIP3    H2 9025   3.389   1.713   2.655
 3050TIP3   OH2 9026   4.522   1.302   3.613
 3050TIP3    H1 9027   4.605   1.342   3.639
 3050TIP3    H2 9028   4.516   1.223   3.667
 3051TIP3   OH2 9029   4.416   1.042   2.804
 3051TIP3    H1 9030   4.359   1.086   2.740
 3051TIP3    H2 9031   4.467   1.113   2.843
 3052TIP3   OH2 9032   3.903   2.155   2.462
 3052TIP3    H1 9033   3.818   2.181   2.497
 3052TIP3    H2 9034   3.934   2.232   2.414
 3053TIP3   OH2 9035   4.142   1.213   2.884
 3053TIP3    H1 9036   4.177   1.300   2.865
 3053TIP3    H2 9037   4.139   1.209   2.980
 3054TIP3   OH2 9038   4.368   1.538   3.652
 3054TIP3    H1 9039   4.397   1.582   3.732
 3054TIP3    H2 9040   4.418   1.456   3.650
 3055TIP3   OH2 9041   4.230   0.929   2.977
 3055TIP3    H1 9042   4.203   1.008   3.024
 3055TIP3    H2 9043   4.298   0.960   2.917
 3056TIP3   OH2 9044   3.649   2.231   2.535
 3056TIP3    H1 9045   3.629   2.301   2.473
 3056TIP3    H2 9046   3.640   2.272   2.621
 3057TIP3   OH2 9047   3.735   0.989   2.788
 3057TIP3    H1 9048   3.712   1.081   2.799
 3057TIP3    H2 9049   3.830   0.987   2.794
 3058TIP3   OH2 9050   4.996   1.438   3.649
 3058TIP3    H1 9051   4.900   1.443   3.653
 3058TIP3    H2 9052   5.014   1.390   3.568
 3059TIP3   OH2 9053   4.651   1.630   3.037
 3059TIP3    H1 9054   4.575   1.574   3.049
 3059TIP3    H2 9055   4.719   1.589   3.091
 3060TIP3   OH2 9056   3.376   1.848   2.504
 3060TIP3    H1 9057   3.444   1.915   2.516
 3060TIP3    H2 9058   3.416   1.784   2.445
 3061TIP3   OH2 9059   3.294   1.137   2.650
 3061TIP3    H1 9060   3.353   1.209   2.626
 3061TIP3    H2 9061   3.216   1.151   2.597
 3062TIP3   OH2 9062   4.630   2.604   2.971
 3062TIP3    H1 9063   4.588   2.656   2.904
 3062TIP3    H2 9064   4.724   2.618   2.958
 3063TIP3   OH2 9065   3.698   0.856   3.508
 3063TIP3    H1 9066   3.669   0.827   3.421
 3063TIP3    H2 9067   3.686   0.780   3.564
 3064TIP3   OH2 9068   3.230   2.108   2.899
 3064TIP3    H1 9069   3.169   2.135   2.967
 3064TIP3    H2 9070   3.194   2.144   2.818
 3065TIP3   OH2 9071   3.441   2.648   3.982
 3065TIP3    H1 9072   3.516   2.672   4.036
 3065TIP3    H2 9073   3.456   2.556   3.959
 3066TIP3   OH2 9074   3.889   2.548   4.023
 3066TIP3    H1 9075   3.981   2.523   4.028
 3066TIP3    H2 9076   3.855   2.499   3.948
 3067TIP3   OH2 9077   3.851   2.171   2.158
 3067TIP3    H1 9078   3.807   2.095   2.196
 3067TIP3    H2 9079   3.932   2.135   2.121
 3068TIP3   OH2 9080   4.507   2.495   3.774
 3068TIP3    H1 9081   4.522   2.426   3.838
 3068TIP3    H2 9082   4.580   2.556   3.787
 3069TIP3   OH2 9083   4.323   2.219   2.076
 3069TIP3    H1 9084   4.354   2.149   2.133
 3069TIP3    H2 9085   4.376   2.212   1.997
 3070TIP3   OH2 9086   3.533   2.062   4.149
 3070TIP3    H1 9087   3.554   1.971   4.170
 3070TIP3    H2 9088   3.452   2.057   4.099
 3071TIP3   OH2 9089   3.549   1.646   2.414
 3071TIP3    H1 9090   3.621   1.705   2.436
 3071TIP3    H2 9091   3.560   1.628   2.320
 3072TIP3   OH2 9092   4.153   2.134   3.946
 3072TIP3    H1 9093   4.107   2.157   3.865
 3072TIP3    H2 9094   4.187   2.046   3.930
 3073TIP3   OH2 9095   4.102   1.876   2.210
 3073TIP3    H1 9096   4.073   1.883   2.301
 3073TIP3    H2 9097   4.075   1.788   2.184
 3074TIP3   OH2 9098   4.624   2.172   3.557
 3074TIP3    H1 9099   4.702   2.201   3.509
 3074TIP3    H2 9100   4.559   2.241   3.541
 3075TIP3   OH2 9101   3.621   1.798   4.169
 3075TIP3    H1 9102   3.693   1.774   4.111
 3075TIP3    H2 9103   3.662   1.809   4.255
 3076TIP3   OH2 9104   3.715   1.536   2.620
 3076TIP3    H1 9105   3.730   1.471   2.688
 3076TIP3    H2 9106   3.769   1.506   2.547
 3077TIP3   OH2 9107   4.002   1.656   3.841
 3077TIP3    H1 9108   3.918   1.700   3.853
 3077TIP3    H2 9109   4.033   1.685   3.755
 3078TIP3   OH2 9110   3.846   1.461   2.400
 3078TIP3    H1 9111   3.812   1.448   2.311
 3078TIP3    H2 9112   3.940   1.445   2.391
 3079TIP3   OH2 9113   4.507   2.047   3.926
 3079TIP3    H1 9114   4.565   1.999   3.866
 3079TIP3    H2 9115   4.499   1.990   4.002
 3080TIP3   OH2 9116   4.625   1.704   2.105
 3080TIP3    H1 9117   4.616   1.657   2.022
 3080TIP3    H2 9118   4.601   1.794   2.084
 3081TIP3   OH2 9119   4.131   1.439   3.954
 3081TIP3    H1 9120   4.131   1.370   3.888
 3081TIP3    H2 9121   4.088   1.514   3.912
 3082TIP3   OH2 9122   4.119   1.244   3.741
 3082TIP3    H1 9123   4.147   1.283   3.658
 3082TIP3    H2 9124   4.028   1.219   3.726
 3083TIP3   OH2 9125   4.110   1.761   3.615
 3083TIP3    H1 9126   4.200   1.792   3.605
 3083TIP3    H2 9127   4.057   1.822   3.564
 3084TIP3   OH2 9128   4.723   1.744   3.970
 3084TIP3    H1 9129   4.778   1.667   3.957
 3084TIP3    H2 9130   4.784   1.818   3.968
 3085TIP3   OH2 9131   4.739   1.992   3.724
 3085TIP3    H1 9132   4.685   2.055   3.676
 3085TIP3    H2 9133   4.828   2.008   3.693
 3086TIP3   OH2 9134   4.027   1.475   4.219
 3086TIP3    H1 9135   3.943   1.434   4.197
 3086TIP3    H2 9136   4.074   1.480   4.135
 3087TIP3   OH2 9137   4.234   1.013   3.847
 3087TIP3    H1 9138   4.198   1.094   3.811
 3087TIP3    H2 9139   4.169   0.946   3.827
 3088TIP3   OH2 9140   4.399   1.486   4.028
 3088TIP3    H1 9141   4.413   1.473   4.121
 3088TIP3    H2 9142   4.307   1.463   4.014
 3089TIP3   OH2 9143   4.638   1.447   3.896
 3089TIP3    H1 9144   4.556   1.451   3.946
 3089TIP3    H2 9145   4.705   1.425   3.962
 3090TIP3   OH2 9146   4.848   1.400   4.073
 3090TIP3    H1 9147   4.859   1.306   4.079
 3090TIP3    H2 9148   4.829   1.429   4.163
 3091TIP3   OH2 9149   3.801   1.324   4.238
 3091TIP3    H1 9150   3.802   1.231   4.218
 3091TIP3    H2 9151   3.790   1.328   4.333
 3092TIP3   OH2 9152   4.303   0.961   4.106
 3092TIP3    H1 9153   4.379   0.904   4.092
 3092TIP3    H2 9154   4.272   0.982   4.018
 3093TIP3   OH2 9155   4.338   1.190   4.263
 3093TIP3    H1 9156   4.337   1.122   4.196
 3093TIP3    H2 9157   4.246   1.215   4.273
 3094TIP3   OH2 9158   3.648   2.439   2.353
 3094TIP3    H1 9159   3.741   2.434   2.333
 3094TIP3    H2 9160   3.611   2.491   2.281
 3095TIP3   OH2 9161   3.106   1.831   2.548
 3095TIP3    H1 9162   3.199   1.844   2.528
 3095TIP3    H2 9163   3.084   1.748   2.504
 3096TIP3   OH2 9164   3.005   2.435   2.970
 3096TIP3    H1 9165   2.947   2.366   2.938
 3096TIP3    H2 9166   3.061   2.391   3.034
 3097TIP3   OH2 9167   3.157   2.303   3.160
 3097TIP3    H1 9168   3.110   2.257   3.231
 3097TIP3    H2 9169   3.220   2.358   3.206
 3098TIP3   OH2 9170   4.900   2.658   2.966
 3098TIP3    H1 9171   4.915   2.686   3.057
 3098TIP3    H2 9172   4.948   2.721   2.913
 3099TIP3   OH2 9173   4.911   2.692   3.245
 3099TIP3    H1 9174   4.868   2.606   3.246
 3099TIP3    H2 9175   4.984   2.682   3.307
 3100TIP3   OH2 9176   4.979   2.386   3.817
 3100TIP3    H1 9177   4.904   2.394   3.876
 3100TIP3    H2 9178   5.020   2.472   3.819
 3101TIP3   OH2 9179   4.794   1.913   2.424
 3101TIP3    H1 9180   4.854   1.982   2.396
 3101TIP3    H2 9181   4.834   1.877   2.502
 3102TIP3   OH2 9182   4.907   1.775   2.633
 3102TIP3    H1 9183   4.841   1.730   2.686
 3102TIP3    H2 9184   4.974   1.801   2.696
 3103TIP3   OH2 9185   4.974   2.165   3.063
 3103TIP3    H1 9186   5.024   2.098   3.016
 3103TIP3    H2 9187   4.974   2.241   3.004
 3104TIP3   OH2 9188   4.781   2.443   3.263
 3104TIP3    H1 9189   4.713   2.490   3.312
 3104TIP3    H2 9190   4.734   2.404   3.190
 3105TIP3   OH2 9191   4.831   1.682   2.281
 3105TIP3    H1 9192   4.759   1.681   2.218
 3105TIP3    H2 9193   4.817   1.761   2.333
 3106TIP3   OH2 9194   4.733   1.302   2.221
 3106TIP3    H1 9195   4.677   1.325   2.147
 3106TIP3    H2 9196   4.722   1.208   2.232
 3107TIP3   OH2 9197   4.716   1.624   2.767
 3107TIP3    H1 9198   4.716   1.531   2.746
 3107TIP3    H2 9199   4.699   1.628   2.861
 3108TIP3   OH2 9200   3.337   1.718   3.547
 3108TIP3    H1 9201   3.327   1.675   3.463
 3108TIP3    H2 9202   3.430   1.710   3.568
 3109TIP3   OH2 9203   4.992   2.040   3.620
 3109TIP3    H1 9204   5.062   1.978   3.599
 3109TIP3    H2 9205   4.978   2.089   3.539
 3110TIP3   OH2 9206   5.178   1.831   3.616
 3110TIP3    H1 9207   5.104   1.791   3.661
 3110TIP3    H2 9208   5.253   1.776   3.641
 3111TIP3   OH2 9209   4.667   1.031   2.232
 3111TIP3    H1 9210   4.698   0.998   2.316
 3111TIP3    H2 9211   4.576   1.004   2.227
 3112TIP3   OH2 9212   4.701   1.360   2.653
 3112TIP3    H1 9213   4.741   1.276   2.672
 3112TIP3    H2 9214   4.751   1.395   2.578
 3113TIP3   OH2 9215   4.870   1.511   3.176
 3113TIP3    H1 9216   4.950   1.529   3.126
 3113TIP3    H2 9217   4.885   1.553   3.261
 3114TIP3   OH2 9218   4.945   1.664   3.402
 3114TIP3    H1 9219   4.870   1.693   3.454
 3114TIP3    H2 9220   4.974   1.743   3.356
 3115TIP3   OH2 9221   3.543   1.368   4.162
 3115TIP3    H1 9222   3.636   1.378   4.183
 3115TIP3    H2 9223   3.515   1.292   4.212
 3116TIP3   OH2 9224   5.401   1.260   3.940
 3116TIP3    H1 9225   5.466   1.204   3.898
 3116TIP3    H2 9226   5.362   1.311   3.869
 3117TIP3   OH2 9227   4.783   1.114   2.733
 3117TIP3    H1 9228   4.854   1.089   2.791
 3117TIP3    H2 9229   4.741   1.032   2.709
 3118TIP3   OH2 9230   3.538   1.081   3.542
 3118TIP3    H1 9231   3.590   1.001   3.539
 3118TIP3    H2 9232   3.599   1.150   3.516
 3119TIP3   OH2 9233   3.314   1.342   3.596
 3119TIP3    H1 9234   3.363   1.333   3.514
 3119TIP3    H2 9235   3.364   1.406   3.647
 3120TIP3   OH2 9236   5.253   1.376   3.742
 3120TIP3    H1 9237   5.168   1.417   3.759
 3120TIP3    H2 9238   5.232   1.299   3.689
 3121TIP3   OH2 9239   3.305   0.846   3.097
 3121TIP3    H1 9240   3.219   0.837   3.137
 3121TIP3    H2 9241   3.291   0.902   3.021
 3122TIP3   OH2 9242   4.460   2.573   2.608
 3122TIP3    H1 9243   4.518   2.563   2.532
 3122TIP3    H2 9244   4.500   2.644   2.659
 3123TIP3   OH2 9245   3.528   0.898   3.919
 3123TIP3    H1 9246   3.481   0.903   4.001
 3123TIP3    H2 9247   3.475   0.948   3.857
 3124TIP3   OH2 9248   3.533   2.380   3.959
 3124TIP3    H1 9249   3.444   2.345   3.948
 3124TIP3    H2 9250   3.559   2.352   4.047
 3125TIP3   OH2 9251   3.763   2.398   3.538
 3125TIP3    H1 9252   3.712   2.472   3.504
 3125TIP3    H2 9253   3.848   2.405   3.496
 3126TIP3   OH2 9254   4.166   2.647   3.677
 3126TIP3    H1 9255   4.202   2.640   3.765
 3126TIP3    H2 9256   4.229   2.700   3.629
 3127TIP3   OH2 9257   4.361   2.797   3.553
 3127TIP3    H1 9258   4.423   2.747   3.500
 3127TIP3    H2 9259   4.416   2.855   3.606
 3128TIP3   OH2 9260   5.162   1.133   3.633
 3128TIP3    H1 9261   5.079   1.136   3.585
 3128TIP3    H2 9262   5.190   1.042   3.626
 3129TIP3   OH2 9263   3.409   2.648   3.531
 3129TIP3    H1 9264   3.316   2.670   3.521
 3129TIP3    H2 9265   3.438   2.701   3.605
 3130TIP3   OH2 9266   3.659   2.626   3.422
 3130TIP3    H1 9267   3.575   2.641   3.465
 3130TIP3    H2 9268   3.648   2.660   3.334
 3131TIP3   OH2 9269   4.070   2.660   3.232
 3131TIP3    H1 9270   4.002   2.673   3.166
 3131TIP3    H2 9271   4.082   2.746   3.272
 3132TIP3   OH2 9272   4.334   2.593   3.281
 3132TIP3    H1 9273   4.243   2.615   3.262
 3132TIP3    H2 9274   4.385   2.659   3.234
 3133TIP3   OH2 9275   4.534   2.760   3.178
 3133TIP3    H1 9276   4.538   2.848   3.142
 3133TIP3    H2 9277   4.565   2.704   3.106
 3134TIP3   OH2 9278   3.344   2.467   3.311
 3134TIP3    H1 9279   3.381   2.518   3.383
 3134TIP3    H2 9280   3.419   2.425   3.269
 3135TIP3   OH2 9281   3.538   2.330   3.178
 3135TIP3    H1 9282   3.552   2.246   3.221
 3135TIP3    H2 9283   3.625   2.369   3.171
 3136TIP3   OH2 9284   3.808   2.405   3.186
 3136TIP3    H1 9285   3.828   2.313   3.170
 3136TIP3    H2 9286   3.862   2.429   3.261
 3137TIP3   OH2 9287   4.381   1.053   3.289
 3137TIP3    H1 9288   4.338   0.977   3.328
 3137TIP3    H2 9289   4.445   1.015   3.229
 3138TIP3   OH2 9290   4.872   0.986   3.178
 3138TIP3    H1 9291   4.908   1.031   3.101
 3138TIP3    H2 9292   4.778   0.999   3.171
 3139TIP3   OH2 9293   4.980   1.052   2.932
 3139TIP3    H1 9294   5.052   0.996   2.901
 3139TIP3    H2 9295   5.011   1.141   2.918
 3140TIP3   OH2 9296   3.608   0.755   3.266
 3140TIP3    H1 9297   3.519   0.722   3.272
 3140TIP3    H2 9298   3.662   0.676   3.259
 3141TIP3   OH2 9299   3.415   0.652   2.923
 3141TIP3    H1 9300   3.448   0.705   2.850
 3141TIP3    H2 9301   3.383   0.716   2.986
 3142TIP3   OH2 9302   4.094   0.787   3.173
 3142TIP3    H1 9303   4.137   0.835   3.102
 3142TIP3    H2 9304   4.133   0.821   3.253
 3143TIP3   OH2 9305   4.589   0.943   3.142
 3143TIP3    H1 9306   4.603   0.914   3.052
 3143TIP3    H2 9307   4.593   0.863   3.194
 3144TIP3   OH2 9308   4.627   0.889   2.704
 3144TIP3    H1 9309   4.547   0.931   2.735
 3144TIP3    H2 9310   4.624   0.801   2.743
 3145TIP3   OH2 9311   3.115   2.221   2.679
 3145TIP3    H1 9312   3.029   2.191   2.649
 3145TIP3    H2 9313   3.120   2.312   2.650
 3146TIP3   OH2 9314   3.537   0.803   2.710
 3146TIP3    H1 9315   3.587   0.743   2.653
 3146TIP3    H2 9316   3.602   0.866   2.742
 3147TIP3   OH2 9317   4.012   0.995   2.791
 3147TIP3    H1 9318   4.062   0.934   2.846
 3147TIP3    H2 9319   4.043   1.081   2.817
 3148TIP3   OH2 9320   3.915   2.394   2.296
 3148TIP3    H1 9321   3.996   2.421   2.254
 3148TIP3    H2 9322   3.883   2.321   2.242
 3149TIP3   OH2 9323   4.613   2.525   2.380
 3149TIP3    H1 9324   4.606   2.429   2.373
 3149TIP3    H2 9325   4.569   2.558   2.302
 3150TIP3   OH2 9326   3.823   1.056   4.153
 3150TIP3    H1 9327   3.789   0.985   4.207
 3150TIP3    H2 9328   3.917   1.057   4.171
 3151TIP3   OH2 9329   4.077   1.025   4.259
 3151TIP3    H1 9330   4.150   0.988   4.209
 3151TIP3    H2 9331   4.065   0.965   4.332
 3152TIP3   OH2 9332   3.198   2.192   2.357
 3152TIP3    H1 9333   3.195   2.228   2.446
 3152TIP3    H2 9334   3.290   2.169   2.344
 3153TIP3   OH2 9335   4.905   1.126   4.063
 3153TIP3    H1 9336   4.925   1.098   4.153
 3153TIP3    H2 9337   4.989   1.125   4.018
 3154TIP3   OH2 9338   4.828   2.665   3.566
 3154TIP3    H1 9339   4.753   2.634   3.515
 3154TIP3    H2 9340   4.814   2.759   3.573
 3155TIP3   OH2 9341   6.107   2.054   2.305
 3155TIP3    H1 9342   6.076   2.141   2.279
 3155TIP3    H2 9343   6.036   1.994   2.281
 3156TIP3   OH2 9344   6.103   2.041   2.732
 3156TIP3    H1 9345   6.156   2.023   2.809
 3156TIP3    H2 9346   6.058   1.958   2.714
 3157TIP3   OH2 9347   5.402   1.904   3.075
 3157TIP3    H1 9348   5.440   1.850   3.144
 3157TIP3    H2 9349   5.476   1.927   3.018
 3158TIP3   OH2 9350   6.370   2.351   2.405
 3158TIP3    H1 9351   6.358   2.285   2.474
 3158TIP3    H2 9352   6.391   2.431   2.453
 3159TIP3   OH2 9353   5.401   2.341   2.767
 3159TIP3    H1 9354   5.382   2.247   2.772
 3159TIP3    H2 9355   5.496   2.346   2.755
 3160TIP3   OH2 9356   5.070   1.555   2.565
 3160TIP3    H1 9357   5.014   1.632   2.578
 3160TIP3    H2 9358   5.016   1.495   2.514
 3161TIP3   OH2 9359   5.142   1.832   2.774
 3161TIP3    H1 9360   5.190   1.751   2.794
 3161TIP3    H2 9361   5.204   1.885   2.723
 3162TIP3   OH2 9362   6.029   2.779   2.418
 3162TIP3    H1 9363   6.056   2.715   2.353
 3162TIP3    H2 9364   6.030   2.732   2.501
 3163TIP3   OH2 9365   5.910   2.262   2.735
 3163TIP3    H1 9366   5.955   2.182   2.707
 3163TIP3    H2 9367   5.980   2.320   2.765
 3164TIP3   OH2 9368   6.939   1.589   2.754
 3164TIP3    H1 9369   6.960   1.670   2.800
 3164TIP3    H2 9370   6.961   1.605   2.663
 3165TIP3   OH2 9371   6.317   1.753   2.772
 3165TIP3    H1 9372   6.348   1.667   2.800
 3165TIP3    H2 9373   6.279   1.738   2.685
 3166TIP3   OH2 9374   5.676   1.410   2.725
 3166TIP3    H1 9375   5.650   1.484   2.670
 3166TIP3    H2 9376   5.626   1.336   2.690
 3167TIP3   OH2 9377   6.370   1.513   2.367
 3167TIP3    H1 9378   6.433   1.507   2.439
 3167TIP3    H2 9379   6.420   1.547   2.294
 3168TIP3   OH2 9380   5.291   1.611   2.855
 3168TIP3    H1 9381   5.377   1.595   2.894
 3168TIP3    H2 9382   5.294   1.563   2.772
 3169TIP3   OH2 9383   5.713   1.823   2.677
 3169TIP3    H1 9384   5.807   1.807   2.681
 3169TIP3    H2 9385   5.676   1.742   2.643
 3170TIP3   OH2 9386   7.002   1.804   2.920
 3170TIP3    H1 9387   6.914   1.841   2.918
 3170TIP3    H2 9388   7.042   1.841   2.999
 3171TIP3   OH2 9389   5.651   1.418   3.182
 3171TIP3    H1 9390   5.601   1.449   3.107
 3171TIP3    H2 9391   5.594   1.435   3.257
 3172TIP3   OH2 9392   6.002   2.271   2.167
 3172TIP3    H1 9393   5.962   2.240   2.086
 3172TIP3    H2 9394   5.949   2.346   2.194
 3173TIP3   OH2 9395   5.743   2.191   2.946
 3173TIP3    H1 9396   5.691   2.264   2.979
 3173TIP3    H2 9397   5.792   2.229   2.872
 3174TIP3   OH2 9398   6.526   1.535   2.591
 3174TIP3    H1 9399   6.483   1.513   2.674
 3174TIP3    H2 9400   6.581   1.610   2.612
 3175TIP3   OH2 9401   5.543   1.517   2.947
 3175TIP3    H1 9402   5.598   1.592   2.969
 3175TIP3    H2 9403   5.588   1.474   2.875
 3176TIP3   OH2 9404   5.591   2.398   3.055
 3176TIP3    H1 9405   5.579   2.488   3.025
 3176TIP3    H2 9406   5.509   2.376   3.100
 3177TIP3   OH2 9407   4.970   2.099   2.308
 3177TIP3    H1 9408   4.934   2.117   2.222
 3177TIP3    H2 9409   4.992   2.185   2.344
 3178TIP3   OH2 9410   6.407   2.598   2.545
 3178TIP3    H1 9411   6.320   2.590   2.584
 3178TIP3    H2 9412   6.406   2.681   2.498
 3179TIP3   OH2 9413   6.739   1.478   2.920
 3179TIP3    H1 9414   6.654   1.500   2.881
 3179TIP3    H2 9415   6.803   1.505   2.855
 3180TIP3   OH2 9416   5.995   1.108   2.916
 3180TIP3    H1 9417   5.986   1.016   2.939
 3180TIP3    H2 9418   5.918   1.150   2.954
 3181TIP3   OH2 9419   6.116   2.628   2.201
 3181TIP3    H1 9420   6.168   2.549   2.190
 3181TIP3    H2 9421   6.173   2.699   2.172
 3182TIP3   OH2 9422   6.253   2.396   2.158
 3182TIP3    H1 9423   6.178   2.337   2.159
 3182TIP3    H2 9424   6.302   2.373   2.237
 3183TIP3   OH2 9425   6.641   2.485   2.891
 3183TIP3    H1 9426   6.624   2.410   2.833
 3183TIP3    H2 9427   6.626   2.562   2.837
 3184TIP3   OH2 9428   5.932   1.891   2.161
 3184TIP3    H1 9429   5.848   1.934   2.143
 3184TIP3    H2 9430   5.977   1.890   2.076
 3185TIP3   OH2 9431   5.896   1.704   1.849
 3185TIP3    H1 9432   5.962   1.751   1.900
 3185TIP3    H2 9433   5.945   1.635   1.803
 3186TIP3   OH2 9434   6.822   2.146   2.758
 3186TIP3    H1 9435   6.737   2.191   2.757
 3186TIP3    H2 9436   6.858   2.160   2.671
 3187TIP3   OH2 9437   6.292   1.978   2.118
 3187TIP3    H1 9438   6.237   2.009   2.190
 3187TIP3    H2 9439   6.375   1.955   2.159
 3188TIP3   OH2 9440   6.519   2.006   3.067
 3188TIP3    H1 9441   6.515   2.090   3.114
 3188TIP3    H2 9442   6.438   2.003   3.017
 3189TIP3   OH2 9443   5.514   1.956   2.524
 3189TIP3    H1 9444   5.476   1.896   2.460
 3189TIP3    H2 9445   5.586   1.907   2.564
 3190TIP3   OH2 9446   5.660   2.384   2.664
 3190TIP3    H1 9447   5.634   2.369   2.573
 3190TIP3    H2 9448   5.746   2.343   2.672
 3191TIP3   OH2 9449   5.617   1.951   2.902
 3191TIP3    H1 9450   5.654   1.916   2.822
 3191TIP3    H2 9451   5.664   2.034   2.916
 3192TIP3   OH2 9452   6.168   2.591   2.675
 3192TIP3    H1 9453   6.154   2.671   2.725
 3192TIP3    H2 9454   6.152   2.521   2.738
 3193TIP3   OH2 9455   5.788   2.491   3.226
 3193TIP3    H1 9456   5.728   2.551   3.270
 3193TIP3    H2 9457   5.733   2.442   3.166
 3194TIP3   OH2 9458   6.120   1.841   1.952
 3194TIP3    H1 9459   6.180   1.899   1.998
 3194TIP3    H2 9460   6.149   1.845   1.860
 3195TIP3   OH2 9461   5.537   2.031   3.375
 3195TIP3    H1 9462   5.539   2.127   3.383
 3195TIP3    H2 9463   5.445   2.010   3.363
 3196TIP3   OH2 9464   5.867   2.510   2.208
 3196TIP3    H1 9465   5.949   2.559   2.214
 3196TIP3    H2 9466   5.807   2.568   2.162
 3197TIP3   OH2 9467   5.587   2.656   3.318
 3197TIP3    H1 9468   5.565   2.671   3.226
 3197TIP3    H2 9469   5.503   2.639   3.360
 3198TIP3   OH2 9470   6.629   1.070   2.009
 3198TIP3    H1 9471   6.551   1.087   2.062
 3198TIP3    H2 9472   6.639   1.148   1.955
 3199TIP3   OH2 9473   5.387   1.797   2.326
 3199TIP3    H1 9474   5.308   1.843   2.295
 3199TIP3    H2 9475   5.358   1.707   2.341
 3200TIP3   OH2 9476   6.452   2.442   1.564
 3200TIP3    H1 9477   6.447   2.536   1.548
 3200TIP3    H2 9478   6.542   2.418   1.541
 3201TIP3   OH2 9479   5.172   2.204   3.259
 3201TIP3    H1 9480   5.102   2.188   3.196
 3201TIP3    H2 9481   5.205   2.117   3.281
 3202TIP3   OH2 9482   5.013   2.405   2.916
 3202TIP3    H1 9483   5.103   2.432   2.935
 3202TIP3    H2 9484   4.960   2.482   2.939
 3203TIP3   OH2 9485   6.871   2.851   2.958
 3203TIP3    H1 9486   6.875   2.756   2.971
 3203TIP3    H2 9487   6.791   2.877   3.005
 3204TIP3   OH2 9488   5.978   2.636   3.087
 3204TIP3    H1 9489   5.969   2.727   3.115
 3204TIP3    H2 9490   5.910   2.589   3.135
 3205TIP3   OH2 9491   5.758   2.734   2.038
 3205TIP3    H1 9492   5.709   2.714   1.958
 3205TIP3    H2 9493   5.722   2.817   2.069
 3206TIP3   OH2 9494   5.192   2.589   2.413
 3206TIP3    H1 9495   5.236   2.582   2.498
 3206TIP3    H2 9496   5.142   2.508   2.405
 3207TIP3   OH2 9497   5.959   2.668   1.663
 3207TIP3    H1 9498   6.010   2.594   1.629
 3207TIP3    H2 9499   5.993   2.681   1.752
 3208TIP3   OH2 9500   6.011   2.709   1.933
 3208TIP3    H1 9501   5.925   2.712   1.975
 3208TIP3    H2 9502   6.069   2.674   2.001
 3209TIP3   OH2 9503   6.761   1.965   3.227
 3209TIP3    H1 9504   6.681   1.973   3.176
 3209TIP3    H2 9505   6.781   1.872   3.227
 3210TIP3   OH2 9506   5.364   2.398   3.216
 3210TIP3    H1 9507   5.415   2.384   3.296
 3210TIP3    H2 9508   5.293   2.334   3.221
 3211TIP3   OH2 9509   5.760   1.201   3.041
 3211TIP3    H1 9510   5.676   1.168   3.010
 3211TIP3    H2 9511   5.737   1.283   3.086
 3212TIP3   OH2 9512   6.297   1.324   3.240
 3212TIP3    H1 9513   6.367   1.297   3.299
 3212TIP3    H2 9514   6.217   1.306   3.289
 3213TIP3   OH2 9515   6.520   1.741   3.157
 3213TIP3    H1 9516   6.481   1.739   3.244
 3213TIP3    H2 9517   6.506   1.831   3.127
 3214TIP3   OH2 9518   6.199   1.818   1.689
 3214TIP3    H1 9519   6.152   1.821   1.605
 3214TIP3    H2 9520   6.279   1.868   1.673
 3215TIP3   OH2 9521   5.912   1.240   2.007
 3215TIP3    H1 9522   5.875   1.248   2.095
 3215TIP3    H2 9523   5.873   1.160   1.972
 3216TIP3   OH2 9524   5.696   1.728   3.047
 3216TIP3    H1 9525   5.649   1.735   3.131
 3216TIP3    H2 9526   5.674   1.809   3.001
 3217TIP3   OH2 9527   5.569   1.610   2.571
 3217TIP3    H1 9528   5.481   1.582   2.594
 3217TIP3    H2 9529   5.582   1.578   2.482
 3218TIP3   OH2 9530   6.057   1.689   2.298
 3218TIP3    H1 9531   6.009   1.761   2.258
 3218TIP3    H2 9532   6.114   1.657   2.229
 3219TIP3   OH2 9533   6.240   1.952   3.370
 3219TIP3    H1 9534   6.214   1.883   3.431
 3219TIP3    H2 9535   6.333   1.967   3.388
 3220TIP3   OH2 9536   6.225   1.700   2.520
 3220TIP3    H1 9537   6.156   1.721   2.456
 3220TIP3    H2 9538   6.271   1.626   2.481
 3221TIP3   OH2 9539   5.534   1.748   3.269
 3221TIP3    H1 9540   5.539   1.812   3.339
 3221TIP3    H2 9541   5.513   1.665   3.313
 3222TIP3   OH2 9542   5.579   1.232   1.986
 3222TIP3    H1 9543   5.569   1.229   2.081
 3222TIP3    H2 9544   5.498   1.272   1.955
 3223TIP3   OH2 9545   5.110   1.284   2.871
 3223TIP3    H1 9546   5.185   1.311   2.923
 3223TIP3    H2 9547   5.126   1.321   2.784
 3224TIP3   OH2 9548   5.192   1.318   2.392
 3224TIP3    H1 9549   5.167   1.342   2.303
 3224TIP3    H2 9550   5.148   1.234   2.408
 3225TIP3   OH2 9551   6.268   1.954   2.946
 3225TIP3    H1 9552   6.292   1.887   2.882
 3225TIP3    H2 9553   6.223   1.905   3.015
 3226TIP3   OH2 9554   5.943   1.401   2.619
 3226TIP3    H1 9555   5.862   1.400   2.671
 3226TIP3    H2 9556   6.013   1.392   2.683
 3227TIP3   OH2 9557   5.329   1.481   2.617
 3227TIP3    H1 9558   5.242   1.498   2.581
 3227TIP3    H2 9559   5.354   1.395   2.581
 3228TIP3   OH2 9560   5.592   1.494   2.325
 3228TIP3    H1 9561   5.687   1.503   2.310
 3228TIP3    H2 9562   5.554   1.509   2.239
 3229TIP3   OH2 9563   6.384   1.490   2.830
 3229TIP3    H1 9564   6.364   1.508   2.922
 3229TIP3    H2 9565   6.316   1.428   2.803
 3230TIP3   OH2 9566   5.473   1.516   2.079
 3230TIP3    H1 9567   5.409   1.467   2.029
 3230TIP3    H2 9568   5.528   1.558   2.013
 3231TIP3   OH2 9569   6.586   3.194   3.048
 3231TIP3    H1 9570   6.582   3.213   2.954
 3231TIP3    H2 9571   6.665   3.239   3.078
 3232TIP3   OH2 9572   5.512   2.305   3.447
 3232TIP3    H1 9573   5.591   2.337   3.490
 3232TIP3    H2 9574   5.444   2.312   3.513
 3233TIP3   OH2 9575   5.987   1.772   2.726
 3233TIP3    H1 9576   6.052   1.721   2.677
 3233TIP3    H2 9577   5.985   1.730   2.812
 3234TIP3   OH2 9578   5.502   1.234   2.597
 3234TIP3    H1 9579   5.473   1.162   2.654
 3234TIP3    H2 9580   5.493   1.200   2.508
 3235TIP3   OH2 9581   5.962   1.673   2.990
 3235TIP3    H1 9582   5.874   1.704   3.013
 3235TIP3    H2 9583   6.020   1.726   3.043
 3236TIP3   OH2 9584   5.693   2.024   2.106
 3236TIP3    H1 9585   5.619   1.969   2.082
 3236TIP3    H2 9586   5.667   2.066   2.188
 3237TIP3   OH2 9587   6.586   2.282   2.711
 3237TIP3    H1 9588   6.622   2.332   2.638
 3237TIP3    H2 9589   6.507   2.242   2.676
 3238TIP3   OH2 9590   6.162   1.347   2.014
 3238TIP3    H1 9591   6.070   1.323   2.009
 3238TIP3    H2 9592   6.162   1.442   2.026
 3239TIP3   OH2 9593   6.101   2.369   3.121
 3239TIP3    H1 9594   6.157   2.363   3.199
 3239TIP3    H2 9595   6.064   2.457   3.126
 3240TIP3   OH2 9596   6.218   1.612   2.082
 3240TIP3    H1 9597   6.313   1.616   2.091
 3240TIP3    H2 9598   6.196   1.689   2.030
 3241TIP3   OH2 9599   5.397   2.060   2.753
 3241TIP3    H1 9600   5.429   2.034   2.667
 3241TIP3    H2 9601   5.458   2.020   2.815
 3242TIP3   OH2 9602   5.845   2.187   1.948
 3242TIP3    H1 9603   5.798   2.270   1.946
 3242TIP3    H2 9604   5.790   2.129   2.001
 3243TIP3   OH2 9605   5.266   1.964   3.385
 3243TIP3    H1 9606   5.261   1.936   3.476
 3243TIP3    H2 9607   5.190   1.922   3.344
 3244TIP3   OH2 9608   6.009   2.107   3.410
 3244TIP3    H1 9609   5.940   2.048   3.381
 3244TIP3    H2 9610   6.090   2.065   3.380
 3245TIP3   OH2 9611   6.248   2.653   3.009
 3245TIP3    H1 9612   6.153   2.643   3.012
 3245TIP3    H2 9613   6.271   2.693   3.093
 3246TIP3   OH2 9614   6.638   1.692   1.892
 3246TIP3    H1 9615   6.581   1.645   1.831
 3246TIP3    H2 9616   6.637   1.783   1.861
 3247TIP3   OH2 9617   6.886   2.571   2.981
 3247TIP3    H1 9618   6.792   2.554   2.975
 3247TIP3    H2 9619   6.921   2.542   2.897
 3248TIP3   OH2 9620   6.374   2.513   1.834
 3248TIP3    H1 9621   6.345   2.447   1.897
 3248TIP3    H2 9622   6.389   2.465   1.753
 3249TIP3   OH2 9623   6.356   2.148   2.608
 3249TIP3    H1 9624   6.266   2.126   2.632
 3249TIP3    H2 9625   6.391   2.067   2.569
 3250TIP3   OH2 9626   5.510   2.384   2.424
 3250TIP3    H1 9627   5.506   2.459   2.365
 3250TIP3    H2 9628   5.422   2.377   2.460
 3251TIP3   OH2 9629   5.060   1.670   2.131
 3251TIP3    H1 9630   5.105   1.751   2.153
 3251TIP3    H2 9631   4.981   1.670   2.186
 3252TIP3   OH2 9632   5.595   2.139   2.329
 3252TIP3    H1 9633   5.577   2.228   2.359
 3252TIP3    H2 9634   5.568   2.083   2.402
 3253TIP3   OH2 9635   5.795   2.707   2.878
 3253TIP3    H1 9636   5.829   2.781   2.827
 3253TIP3    H2 9637   5.871   2.675   2.926
 3254TIP3   OH2 9638   5.429   2.606   2.272
 3254TIP3    H1 9639   5.341   2.612   2.310
 3254TIP3    H2 9640   5.464   2.694   2.277
 3255TIP3   OH2 9641   6.142   2.370   2.848
 3255TIP3    H1 9642   6.128   2.366   2.942
 3255TIP3    H2 9643   6.220   2.317   2.832
 3256TIP3   OH2 9644   6.140   2.245   1.714
 3256TIP3    H1 9645   6.191   2.215   1.789
 3256TIP3    H2 9646   6.055   2.202   1.725
 3257TIP3   OH2 9647   6.401   2.866   2.889
 3257TIP3    H1 9648   6.329   2.805   2.906
 3257TIP3    H2 9649   6.369   2.921   2.817
 3258TIP3   OH2 9650   6.453   2.715   1.529
 3258TIP3    H1 9651   6.480   2.779   1.463
 3258TIP3    H2 9652   6.380   2.757   1.574
 3259TIP3   OH2 9653   5.476   1.495   3.387
 3259TIP3    H1 9654   5.381   1.505   3.390
 3259TIP3    H2 9655   5.498   1.441   3.462
 3260TIP3   OH2 9656   6.317   2.153   1.903
 3260TIP3    H1 9657   6.300   2.104   1.983
 3260TIP3    H2 9658   6.412   2.165   1.901
 3261TIP3   OH2 9659   5.222   2.601   3.035
 3261TIP3    H1 9660   5.274   2.543   3.090
 3261TIP3    H2 9661   5.235   2.688   3.073
 3262TIP3   OH2 9662   5.493   2.213   1.733
 3262TIP3    H1 9663   5.503   2.121   1.707
 3262TIP3    H2 9664   5.477   2.210   1.827
 3263TIP3   OH2 9665   5.433   2.230   2.004
 3263TIP3    H1 9666   5.493   2.204   2.073
 3263TIP3    H2 9667   5.431   2.326   2.009
 3264TIP3   OH2 9668   5.162   1.919   2.214
 3264TIP3    H1 9669   5.098   1.967   2.266
 3264TIP3    H2 9670   5.182   1.977   2.141
 3265TIP3   OH2 9671   6.326   1.554   3.092
 3265TIP3    H1 9672   6.406   1.597   3.122
 3265TIP3    H2 9673   6.318   1.477   3.147
 3266TIP3   OH2 9674   6.221   1.294   2.280
 3266TIP3    H1 9675   6.200   1.313   2.189
 3266TIP3    H2 9676   6.264   1.374   2.311
 3267TIP3   OH2 9677   5.702   2.416   1.941
 3267TIP3    H1 9678   5.617   2.439   1.980
 3267TIP3    H2 9679   5.725   2.491   1.887
 3268TIP3   OH2 9680   5.874   1.495   2.367
 3268TIP3    H1 9681   5.935   1.565   2.343
 3268TIP3    H2 9682   5.895   1.475   2.458
 3269TIP3   OH2 9683   6.167   1.788   3.142
 3269TIP3    H1 9684   6.192   1.829   3.224
 3269TIP3    H2 9685   6.216   1.706   3.139
 3270TIP3   OH2 9686   6.035   1.191   2.457
 3270TIP3    H1 9687   6.011   1.269   2.507
 3270TIP3    H2 9688   6.104   1.220   2.398
 3271TIP3   OH2 9689   5.452   2.503   2.019
 3271TIP3    H1 9690   5.432   2.574   1.959
 3271TIP3    H2 9691   5.441   2.541   2.106
 3272TIP3   OH2 9692   5.551   1.217   2.267
 3272TIP3    H1 9693   5.535   1.306   2.299
 3272TIP3    H2 9694   5.646   1.206   2.274
 3273TIP3   OH2 9695   6.786   1.688   3.139
 3273TIP3    H1 9696   6.691   1.696   3.150
 3273TIP3    H2 9697   6.795   1.631   3.062
 3274TIP3   OH2 9698   6.448   1.890   2.518
 3274TIP3    H1 9699   6.371   1.834   2.529
 3274TIP3    H2 9700   6.514   1.850   2.575
 3275TIP3   OH2 9701   5.189   2.097   1.999
 3275TIP3    H1 9702   5.260   2.161   2.007
 3275TIP3    H2 9703   5.220   2.034   1.934
 3276TIP3   OH2 9704   5.090   1.392   2.139
 3276TIP3    H1 9705   5.092   1.488   2.138
 3276TIP3    H2 9706   5.000   1.370   2.118
 3277TIP3   OH2 9707   6.426   2.863   2.458
 3277TIP3    H1 9708   6.385   2.915   2.389
 3277TIP3    H2 9709   6.520   2.877   2.445
 3278TIP3   OH2 9710   5.497   1.119   3.007
 3278TIP3    H1 9711   5.474   1.091   2.919
 3278TIP3    H2 9712   5.484   1.042   3.062
 3279TIP3   OH2 9713   5.016   2.368   2.390
 3279TIP3    H1 9714   4.972   2.404   2.467
 3279TIP3    H2 9715   4.972   2.410   2.316
 3280TIP3   OH2 9716   5.211   2.898   3.453
 3280TIP3    H1 9717   5.294   2.899   3.500
 3280TIP3    H2 9718   5.186   2.805   3.451
 3281TIP3   OH2 9719   5.674   2.780   3.551
 3281TIP3    H1 9720   5.757   2.826   3.540
 3281TIP3    H2 9721   5.654   2.745   3.464
 3282TIP3   OH2 9722   5.646   2.413   1.621
 3282TIP3    H1 9723   5.599   2.344   1.667
 3282TIP3    H2 9724   5.721   2.368   1.581
 3283TIP3   OH2 9725   6.303   2.758   3.257
 3283TIP3    H1 9726   6.320   2.687   3.318
 3283TIP3    H2 9727   6.376   2.819   3.269
 3284TIP3   OH2 9728   6.088   2.456   1.547
 3284TIP3    H1 9729   6.121   2.391   1.609
 3284TIP3    H2 9730   6.149   2.450   1.473
 3285TIP3   OH2 9731   5.321   2.299   3.651
 3285TIP3    H1 9732   5.334   2.205   3.658
 3285TIP3    H2 9733   5.237   2.309   3.608
 3286TIP3   OH2 9734   5.318   1.910   1.847
 3286TIP3    H1 9735   5.367   1.885   1.926
 3286TIP3    H2 9736   5.385   1.923   1.780
 3287TIP3   OH2 9737   5.939   2.379   3.428
 3287TIP3    H1 9738   5.899   2.404   3.345
 3287TIP3    H2 9739   5.976   2.293   3.411
 3288TIP3   OH2 9740   5.884   2.129   1.683
 3288TIP3    H1 9741   5.860   2.141   1.775
 3288TIP3    H2 9742   5.862   2.038   1.664
 3289TIP3   OH2 9743   6.417   2.430   3.046
 3289TIP3    H1 9744   6.495   2.456   2.996
 3289TIP3    H2 9745   6.353   2.499   3.028
 3290TIP3   OH2 9746   5.431   2.042   3.653
 3290TIP3    H1 9747   5.500   2.021   3.590
 3290TIP3    H2 9748   5.478   2.058   3.735
 3291TIP3   OH2 9749   5.485   1.848   2.062
 3291TIP3    H1 9750   5.461   1.818   2.149
 3291TIP3    H2 9751   5.531   1.774   2.023
 3292TIP3   OH2 9752   5.801   1.936   3.319
 3292TIP3    H1 9753   5.713   1.971   3.327
 3292TIP3    H2 9754   5.830   1.962   3.232
 3293TIP3   OH2 9755   5.626   1.665   1.905
 3293TIP3    H1 9756   5.595   1.670   1.815
 3293TIP3    H2 9757   5.721   1.674   1.899
 3294TIP3   OH2 9758   6.302   2.304   3.395
 3294TIP3    H1 9759   6.369   2.266   3.338
 3294TIP3    H2 9760   6.301   2.247   3.472
 3295TIP3   OH2 9761   6.416   1.955   1.583
 3295TIP3    H1 9762   6.400   1.914   1.499
 3295TIP3    H2 9763   6.393   2.047   1.570
 3296TIP3   OH2 9764   5.903   1.701   3.422
 3296TIP3    H1 9765   5.905   1.631   3.358
 3296TIP3    H2 9766   5.869   1.777   3.375
 3297TIP3   OH2 9767   5.911   1.502   3.219
 3297TIP3    H1 9768   5.939   1.538   3.135
 3297TIP3    H2 9769   5.820   1.476   3.205
 3298TIP3   OH2 9770   5.912   2.029   3.090
 3298TIP3    H1 9771   6.001   2.061   3.074
 3298TIP3    H2 9772   5.856   2.088   3.039
 3299TIP3   OH2 9773   6.510   1.984   3.466
 3299TIP3    H1 9774   6.540   1.893   3.469
 3299TIP3    H2 9775   6.588   2.035   3.446
 3300TIP3   OH2 9776   6.539   2.251   3.210
 3300TIP3    H1 9777   6.488   2.313   3.159
 3300TIP3    H2 9778   6.629   2.264   3.180
 3301TIP3   OH2 9779   5.791   1.787   3.667
 3301TIP3    H1 9780   5.720   1.726   3.688
 3301TIP3    H2 9781   5.817   1.764   3.578
 3302TIP3   OH2 9782   6.032   1.271   3.322
 3302TIP3    H1 9783   5.992   1.351   3.288
 3302TIP3    H2 9784   5.966   1.204   3.308
 3303TIP3   OH2 9785   6.159   1.738   3.524
 3303TIP3    H1 9786   6.147   1.725   3.618
 3303TIP3    H2 9787   6.074   1.718   3.486
 3304TIP3   OH2 9788   6.409   1.703   3.400
 3304TIP3    H1 9789   6.330   1.698   3.452
 3304TIP3    H2 9790   6.478   1.671   3.458
 3305TIP3   OH2 9791   6.639   1.655   3.549
 3305TIP3    H1 9792   6.655   1.560   3.553
 3305TIP3    H2 9793   6.638   1.683   3.640
 3306TIP3   OH2 9794   5.622   1.565   3.728
 3306TIP3    H1 9795   5.627   1.478   3.689
 3306TIP3    H2 9796   5.660   1.555   3.815
 3307TIP3   OH2 9797   6.100   1.245   3.586
 3307TIP3    H1 9798   6.169   1.179   3.579
 3307TIP3    H2 9799   6.069   1.258   3.497
 3308TIP3   OH2 9800   6.194   1.459   3.732
 3308TIP3    H1 9801   6.164   1.387   3.676
 3308TIP3    H2 9802   6.122   1.522   3.731
 3309TIP3   OH2 9803   5.449   2.711   1.836
 3309TIP3    H1 9804   5.538   2.691   1.808
 3309TIP3    H2 9805   5.411   2.758   1.762
 3310TIP3   OH2 9806   4.916   2.098   2.018
 3310TIP3    H1 9807   5.011   2.111   2.016
 3310TIP3    H2 9808   4.903   2.010   1.982
 3311TIP3   OH2 9809   4.819   2.677   2.476
 3311TIP3    H1 9810   4.754   2.624   2.430
 3311TIP3    H2 9811   4.863   2.616   2.535
 3312TIP3   OH2 9812   4.963   2.508   2.643
 3312TIP3    H1 9813   4.953   2.440   2.710
 3312TIP3    H2 9814   5.014   2.576   2.685
 3313TIP3   OH2 9815   6.697   2.915   2.455
 3313TIP3    H1 9816   6.714   2.942   2.545
 3313TIP3    H2 9817   6.747   2.977   2.402
 3314TIP3   OH2 9818   6.710   2.949   2.735
 3314TIP3    H1 9819   6.665   2.864   2.731
 3314TIP3    H2 9820   6.782   2.935   2.797
 3315TIP3   OH2 9821   6.774   2.645   3.310
 3315TIP3    H1 9822   6.702   2.657   3.372
 3315TIP3    H2 9823   6.819   2.729   3.309
 3316TIP3   OH2 9824   6.597   2.161   1.915
 3316TIP3    H1 9825   6.652   2.234   1.887
 3316TIP3    H2 9826   6.642   2.124   1.990
 3317TIP3   OH2 9827   6.728   2.018   2.116
 3317TIP3    H1 9828   6.660   1.982   2.173
 3317TIP3    H2 9829   6.792   2.057   2.176
 3318TIP3   OH2 9830   6.767   2.424   2.552
 3318TIP3    H1 9831   6.820   2.357   2.509
 3318TIP3    H2 9832   6.769   2.498   2.491
 3319TIP3   OH2 9833   6.574   2.705   2.742
 3319TIP3    H1 9834   6.507   2.751   2.792
 3319TIP3    H2 9835   6.527   2.665   2.669
 3320TIP3   OH2 9836   6.620   1.934   1.764
 3320TIP3    H1 9837   6.547   1.936   1.702
 3320TIP3    H2 9838   6.608   2.012   1.817
 3321TIP3   OH2 9839   6.486   1.580   1.693
 3321TIP3    H1 9840   6.436   1.617   1.621
 3321TIP3    H2 9841   6.478   1.485   1.683
 3322TIP3   OH2 9842   6.521   1.882   2.250
 3322TIP3    H1 9843   6.523   1.787   2.236
 3322TIP3    H2 9844   6.500   1.892   2.343
 3323TIP3   OH2 9845   5.137   1.936   3.025
 3323TIP3    H1 9846   5.127   1.905   2.936
 3323TIP3    H2 9847   5.232   1.936   3.040
 3324TIP3   OH2 9848   6.798   2.293   3.116
 3324TIP3    H1 9849   6.865   2.226   3.099
 3324TIP3    H2 9850   6.810   2.356   3.045
 3325TIP3   OH2 9851   6.978   2.082   3.105
 3325TIP3    H1 9852   6.905   2.040   3.150
 3325TIP3    H2 9853   7.054   2.029   3.128
 3326TIP3   OH2 9854   6.451   1.308   1.664
 3326TIP3    H1 9855   6.508   1.288   1.738
 3326TIP3    H2 9856   6.364   1.276   1.691
 3327TIP3   OH2 9857   6.512   1.603   2.136
 3327TIP3    H1 9858   6.556   1.519   2.149
 3327TIP3    H2 9859   6.553   1.640   2.058
 3328TIP3   OH2 9860   6.662   1.769   2.662
 3328TIP3    H1 9861   6.742   1.786   2.613
 3328TIP3    H2 9862   6.677   1.807   2.748
 3329TIP3   OH2 9863   6.739   1.917   2.890
 3329TIP3    H1 9864   6.666   1.946   2.944
 3329TIP3    H2 9865   6.770   1.996   2.847
 3330TIP3   OH2 9866   5.356   1.625   3.671
 3330TIP3    H1 9867   5.450   1.621   3.687
 3330TIP3    H2 9868   5.322   1.543   3.708
 3331TIP3   OH2 9869   7.190   1.522   3.425
 3331TIP3    H1 9870   7.260   1.466   3.391
 3331TIP3    H2 9871   7.158   1.569   3.348
 3332TIP3   OH2 9872   6.627   1.353   2.187
 3332TIP3    H1 9873   6.672   1.340   2.270
 3332TIP3    H2 9874   6.564   1.282   2.181
 3333TIP3   OH2 9875   5.331   1.340   3.033
 3333TIP3    H1 9876   5.384   1.260   3.032
 3333TIP3    H2 9877   5.392   1.409   3.005
 3334TIP3   OH2 9878   5.112   1.606   3.075
 3334TIP3    H1 9879   5.163   1.587   2.997
 3334TIP3    H2 9880   5.128   1.698   3.093
 3335TIP3   OH2 9881   7.046   1.629   3.217
 3335TIP3    H1 9882   6.959   1.668   3.226
 3335TIP3    H2 9883   7.031   1.546   3.171
 3336TIP3   OH2 9884   6.670   1.279   1.833
 3336TIP3    H1 9885   6.711   1.220   1.771
 3336TIP3    H2 9886   6.728   1.356   1.835
 3337TIP3   OH2 9887   6.257   2.829   2.094
 3337TIP3    H1 9888   6.315   2.821   2.018
 3337TIP3    H2 9889   6.296   2.900   2.145
 3338TIP3   OH2 9890   5.328   1.162   3.404
 3338TIP3    H1 9891   5.277   1.159   3.484
 3338TIP3    H2 9892   5.274   1.212   3.342
 3339TIP3   OH2 9893   5.361   2.617   3.475
 3339TIP3    H1 9894   5.267   2.606   3.457
 3339TIP3    H2 9895   5.367   2.614   3.571
 3340TIP3   OH2 9896   5.572   2.676   3.036
 3340TIP3    H1 9897   5.518   2.748   3.002
 3340TIP3    H2 9898   5.654   2.684   2.987
 3341TIP3   OH2 9899   5.961   2.902   3.169
 3341TIP3    H1 9900   5.999   2.894   3.257
 3341TIP3    H2 9901   6.024   2.956   3.120
 3342TIP3   OH2 9902   6.152   3.057   3.043
 3342TIP3    H1 9903   6.215   3.009   2.989
 3342TIP3    H2 9904   6.206   3.116   3.095
 3343TIP3   OH2 9905   6.963   1.380   3.122
 3343TIP3    H1 9906   6.876   1.367   3.085
 3343TIP3    H2 9907   7.004   1.293   3.118
 3344TIP3   OH2 9908   5.223   2.902   3.073
 3344TIP3    H1 9909   5.132   2.917   3.047
 3344TIP3    H2 9910   5.242   2.972   3.135
 3345TIP3   OH2 9911   5.455   2.900   2.924
 3345TIP3    H1 9912   5.372   2.903   2.970
 3345TIP3    H2 9913   5.434   2.925   2.834
 3346TIP3   OH2 9914   5.869   2.918   2.715
 3346TIP3    H1 9915   5.798   2.931   2.652
 3346TIP3    H2 9916   5.880   3.004   2.756
 3347TIP3   OH2 9917   6.132   2.850   2.765
 3347TIP3    H1 9918   6.041   2.873   2.745
 3347TIP3    H2 9919   6.183   2.917   2.719
 3348TIP3   OH2 9920   6.332   3.020   2.665
 3348TIP3    H1 9921   6.333   3.109   2.628
 3348TIP3    H2 9922   6.362   2.964   2.593
 3349TIP3   OH2 9923   5.135   2.688   2.784
 3349TIP3    H1 9924   5.158   2.663   2.874
 3349TIP3    H2 9925   5.208   2.655   2.731
 3350TIP3   OH2 9926   5.341   2.576   2.646
 3350TIP3    H1 9927   5.353   2.493   2.693
 3350TIP3    H2 9928   5.427   2.618   2.650
 3351TIP3   OH2 9929   5.609   2.660   2.673
 3351TIP3    H1 9930   5.629   2.568   2.657
 3351TIP3    H2 9931   5.662   2.684   2.749
 3352TIP3   OH2 9932   6.169   1.308   2.763
 3352TIP3    H1 9933   6.128   1.237   2.812
 3352TIP3    H2 9934   6.236   1.266   2.710
 3353TIP3   OH2 9935   6.671   1.224   2.647
 3353TIP3    H1 9936   6.706   1.274   2.574
 3353TIP3    H2 9937   6.577   1.246   2.649
 3354TIP3   OH2 9938   6.784   1.304   2.410
 3354TIP3    H1 9939   6.852   1.242   2.385
 3354TIP3    H2 9940   6.823   1.390   2.395
 3355TIP3   OH2 9941   5.429   1.022   2.761
 3355TIP3    H1 9942   5.338   0.995   2.774
 3355TIP3    H2 9943   5.477   0.940   2.750
 3356TIP3   OH2 9944   5.896   1.045   2.654
 3356TIP3    H1 9945   5.940   1.096   2.586
 3356TIP3    H2 9946   5.933   1.078   2.736
 3357TIP3   OH2 9947   6.381   1.190   2.631
 3357TIP3    H1 9948   6.393   1.155   2.543
 3357TIP3    H2 9949   6.389   1.114   2.688
 3358TIP3   OH2 9950   6.441   1.144   2.198
 3358TIP3    H1 9951   6.361   1.191   2.221
 3358TIP3    H2 9952   6.431   1.057   2.237
 3359TIP3   OH2 9953   4.898   2.486   2.171
 3359TIP3    H1 9954   4.813   2.455   2.138
 3359TIP3    H2 9955   4.903   2.577   2.140
 3360TIP3   OH2 9956   5.350   1.075   2.122
 3360TIP3    H1 9957   5.399   0.997   2.095
 3360TIP3    H2 9958   5.406   1.115   2.189
 3361TIP3   OH2 9959   5.827   1.244   2.270
 3361TIP3    H1 9960   5.885   1.193   2.327
 3361TIP3    H2 9961   5.840   1.335   2.298
 3362TIP3   OH2 9962   5.704   2.637   1.766
 3362TIP3    H1 9963   5.787   2.665   1.728
 3362TIP3    H2 9964   5.675   2.566   1.709
 3363TIP3   OH2 9965   6.410   2.783   1.866
 3363TIP3    H1 9966   6.402   2.687   1.859
 3363TIP3    H2 9967   6.365   2.816   1.788
 3364TIP3   OH2 9968   5.636   1.293   3.640
 3364TIP3    H1 9969   5.601   1.227   3.700
 3364TIP3    H2 9970   5.729   1.300   3.665
 3365TIP3   OH2 9971   5.884   1.296   3.764
 3365TIP3    H1 9972   5.961   1.275   3.711
 3365TIP3    H2 9973   5.879   1.225   3.828
 3366TIP3   OH2 9974   5.007   2.477   1.823
 3366TIP3    H1 9975   5.007   2.491   1.918
 3366TIP3    H2 9976   5.090   2.432   1.806
 3367TIP3   OH2 9977   6.705   1.385   3.548
 3367TIP3    H1 9978   6.723   1.358   3.638
 3367TIP3    H2 9979   6.790   1.381   3.504
 3368TIP3   OH2 9980   6.620   2.920   3.055
 3368TIP3    H1 9981   6.547   2.891   3.002
 3368TIP3    H2 9982   6.609   3.015   3.061
 3369TIP3   OH2 9983   7.869   2.305   1.816
 3369TIP3    H1 9984   7.839   2.395   1.802
 3369TIP3    H2 9985   7.797   2.251   1.784
 3370TIP3   OH2 9986   7.894   2.299   2.225
 3370TIP3    H1 9987   7.944   2.282   2.305
 3370TIP3    H2 9988   7.846   2.218   2.210
 3371TIP3   OH2 9989   7.196   2.154   2.567
 3371TIP3    H1 9990   7.235   2.103   2.638
 3371TIP3    H2 9991   7.271   2.182   2.514
 3372TIP3   OH2 9992   8.185   2.602   1.909
 3372TIP3    H1 9993   8.163   2.544   1.982
 3372TIP3    H2 9994   8.205   2.686   1.951
 3373TIP3   OH2 9995   7.192   2.583   2.243
 3373TIP3    H1 9996   7.172   2.490   2.255
 3373TIP3    H2 9997   7.287   2.587   2.239
 3374TIP3   OH2 9998   6.873   1.794   2.025
 3374TIP3    H1 9999   6.836   1.877   2.055
 3374TIP3    H210000   6.798   1.745   1.992
 3375TIP3   OH210001   6.954   2.108   2.258
 3375TIP3    H110002   7.004   2.031   2.284
 3375TIP3    H210003   7.021   2.174   2.239
 3376TIP3   OH210004   7.790   3.071   1.939
 3376TIP3    H110005   7.815   3.003   1.876
 3376TIP3    H210006   7.798   3.030   2.024
 3377TIP3   OH210007   7.710   2.522   2.225
 3377TIP3    H110008   7.755   2.441   2.202
 3377TIP3    H210009   7.780   2.579   2.256
 3378TIP3   OH210010   8.658   1.832   2.247
 3378TIP3    H110011   8.700   1.893   2.307
 3378TIP3    H210012   8.671   1.870   2.160
 3379TIP3   OH210013   8.118   1.997   2.272
 3379TIP3    H110014   8.155   1.913   2.300
 3379TIP3    H210015   8.058   1.975   2.201
 3380TIP3   OH210016   7.462   1.669   2.220
 3380TIP3    H110017   7.443   1.741   2.159
 3380TIP3    H210018   7.406   1.597   2.191
 3381TIP3   OH210019   8.143   1.753   1.953
 3381TIP3    H110020   8.211   1.699   1.992
 3381TIP3    H210021   8.163   1.755   1.860
 3382TIP3   OH210022   7.090   1.884   2.347
 3382TIP3    H110023   7.173   1.866   2.392
 3382TIP3    H210024   7.094   1.831   2.268
 3383TIP3   OH210025   7.503   2.080   2.164
 3383TIP3    H110026   7.598   2.068   2.173
 3383TIP3    H210027   7.472   1.997   2.127
 3384TIP3   OH210028   8.741   2.021   2.429
 3384TIP3    H110029   8.677   2.091   2.411
 3384TIP3    H210030   8.812   2.065   2.474
 3385TIP3   OH210031   7.448   1.672   2.670
 3385TIP3    H110032   7.394   1.710   2.601
 3385TIP3    H210033   7.397   1.684   2.750
 3386TIP3   OH210034   7.785   2.542   1.703
 3386TIP3    H110035   7.746   2.509   1.622
 3386TIP3    H210036   7.734   2.620   1.725
 3387TIP3   OH210037   7.540   2.447   2.432
 3387TIP3    H110038   7.488   2.519   2.467
 3387TIP3    H210039   7.591   2.487   2.361
 3388TIP3   OH210040   8.390   1.640   2.121
 3388TIP3    H110041   8.314   1.657   2.178
 3388TIP3    H210042   8.430   1.726   2.109
 3389TIP3   OH210043   7.336   1.782   2.441
 3389TIP3    H110044   7.392   1.855   2.465
 3389TIP3    H210045   7.382   1.738   2.370
 3390TIP3   OH210046   7.386   2.650   2.539
 3390TIP3    H110047   7.373   2.741   2.509
 3390TIP3    H210048   7.308   2.631   2.592
 3391TIP3   OH210049   6.762   2.356   1.798
 3391TIP3    H110050   6.724   2.378   1.713
 3391TIP3    H210051   6.786   2.441   1.836
 3392TIP3   OH210052   8.205   2.857   2.029
 3392TIP3    H110053   8.117   2.851   2.067
 3392TIP3    H210054   8.204   2.941   1.982
 3393TIP3   OH210055   8.508   1.713   2.442
 3393TIP3    H110056   8.424   1.760   2.445
 3393TIP3    H210057   8.555   1.752   2.369
 3394TIP3   OH210058   7.776   1.360   2.406
 3394TIP3    H110059   7.773   1.269   2.436
 3394TIP3    H210060   7.699   1.401   2.446
 3395TIP3   OH210061   7.879   2.921   1.726
 3395TIP3    H110062   7.936   2.845   1.727
 3395TIP3    H210063   7.936   2.994   1.702
 3396TIP3   OH210064   8.018   2.695   1.716
 3396TIP3    H110065   7.948   2.631   1.711
 3396TIP3    H210066   8.081   2.658   1.778
 3397TIP3   OH210067   8.429   2.750   2.375
 3397TIP3    H110068   8.420   2.676   2.315
 3397TIP3    H210069   8.419   2.827   2.320
 3398TIP3   OH210070   7.693   2.153   1.669
 3398TIP3    H110071   7.618   2.195   1.627
 3398TIP3    H210072   7.757   2.142   1.599
 3399TIP3   OH210073   7.585   1.957   1.418
 3399TIP3    H110074   7.607   2.050   1.413
 3399TIP3    H210075   7.657   1.912   1.374
 3400TIP3   OH210076   8.597   2.384   2.228
 3400TIP3    H110077   8.522   2.443   2.218
 3400TIP3    H210078   8.648   2.396   2.148
 3401TIP3   OH210079   8.113   2.343   1.700
 3401TIP3    H110080   8.036   2.338   1.756
 3401TIP3    H210081   8.187   2.349   1.761
 3402TIP3   OH210082   8.307   2.262   2.558
 3402TIP3    H110083   8.309   2.347   2.602
 3402TIP3    H210084   8.224   2.260   2.512
 3403TIP3   OH210085   7.309   2.213   2.015
 3403TIP3    H110086   7.274   2.152   1.951
 3403TIP3    H210087   7.381   2.167   2.056
 3404TIP3   OH210088   7.457   2.636   2.154
 3404TIP3    H110089   7.436   2.624   2.062
 3404TIP3    H210090   7.545   2.599   2.164
 3405TIP3   OH210091   7.408   2.210   2.390
 3405TIP3    H110092   7.446   2.174   2.310
 3405TIP3    H210093   7.457   2.292   2.404
 3406TIP3   OH210094   7.968   2.843   2.162
 3406TIP3    H110095   7.952   2.925   2.209
 3406TIP3    H210096   7.952   2.775   2.227
 3407TIP3   OH210097   7.584   2.747   2.709
 3407TIP3    H110098   7.523   2.804   2.757
 3407TIP3    H210099   7.528   2.696   2.651
 3408TIP3   OH210100   7.914   2.094   1.513
 3408TIP3    H110101   8.006   2.075   1.528
 3408TIP3    H210102   7.909   2.115   1.420
 3409TIP3   OH210103   7.340   2.295   2.849
 3409TIP3    H110104   7.343   2.389   2.868
 3409TIP3    H210105   7.247   2.275   2.842
 3410TIP3   OH210106   7.644   2.779   1.710
 3410TIP3    H110107   7.721   2.835   1.725
 3410TIP3    H210108   7.584   2.835   1.661
 3411TIP3   OH210109   7.373   2.904   2.795
 3411TIP3    H110110   7.349   2.917   2.703
 3411TIP3    H210111   7.290   2.891   2.840
 3412TIP3   OH210112   7.173   2.053   1.819
 3412TIP3    H110113   7.097   2.103   1.790
 3412TIP3    H210114   7.136   1.976   1.862
 3413TIP3   OH210115   8.162   2.658   1.126
 3413TIP3    H110116   8.179   2.752   1.122
 3413TIP3    H210117   8.248   2.618   1.126
 3414TIP3   OH210118   6.969   2.463   2.746
 3414TIP3    H110119   6.900   2.445   2.683
 3414TIP3    H210120   7.004   2.377   2.770
 3415TIP3   OH210121   6.810   2.662   2.402
 3415TIP3    H110122   6.900   2.688   2.423
 3415TIP3    H210123   6.757   2.738   2.427
 3416TIP3   OH210124   8.672   3.143   2.432
 3416TIP3    H110125   8.702   3.052   2.427
 3416TIP3    H210126   8.594   3.140   2.487
 3417TIP3   OH210127   7.772   2.892   2.573
 3417TIP3    H110128   7.765   2.983   2.602
 3417TIP3    H210129   7.705   2.846   2.622
 3418TIP3   OH210130   7.540   2.994   1.545
 3418TIP3    H110131   7.496   2.983   1.461
 3418TIP3    H210132   7.511   3.079   1.577
 3419TIP3   OH210133   6.987   2.845   1.903
 3419TIP3    H110134   7.032   2.838   1.988
 3419TIP3    H210135   6.938   2.764   1.894
 3420TIP3   OH210136   7.743   3.014   1.186
 3420TIP3    H110137   7.723   2.923   1.164
 3420TIP3    H210138   7.778   3.010   1.275
 3421TIP3   OH210139   7.799   2.979   1.455
 3421TIP3    H110140   7.711   2.981   1.492
 3421TIP3    H210141   7.854   2.943   1.525
 3422TIP3   OH210142   8.560   2.237   2.737
 3422TIP3    H110143   8.479   2.250   2.687
 3422TIP3    H210144   8.576   2.143   2.732
 3423TIP3   OH210145   7.169   2.650   2.710
 3423TIP3    H110146   7.219   2.638   2.791
 3423TIP3    H210147   7.097   2.588   2.718
 3424TIP3   OH210148   7.544   1.458   2.522
 3424TIP3    H110149   7.458   1.426   2.494
 3424TIP3    H210150   7.524   1.538   2.572
 3425TIP3   OH210151   8.114   1.575   2.730
 3425TIP3    H110152   8.190   1.549   2.782
 3425TIP3    H210153   8.042   1.577   2.793
 3426TIP3   OH210154   8.312   1.989   2.626
 3426TIP3    H110155   8.271   1.983   2.712
 3426TIP3    H210156   8.304   2.081   2.602
 3427TIP3   OH210157   7.939   2.083   1.237
 3427TIP3    H110158   7.880   2.071   1.163
 3427TIP3    H210159   8.021   2.113   1.197
 3428TIP3   OH210160   7.800   1.462   1.581
 3428TIP3    H110161   7.736   1.470   1.651
 3428TIP3    H210162   7.748   1.448   1.502
 3429TIP3   OH210163   7.495   1.988   2.535
 3429TIP3    H110164   7.451   1.994   2.620
 3429TIP3    H210165   7.472   2.070   2.491
 3430TIP3   OH210166   7.368   1.863   2.049
 3430TIP3    H110167   7.280   1.839   2.077
 3430TIP3    H210168   7.376   1.825   1.961
 3431TIP3   OH210169   7.785   1.917   1.773
 3431TIP3    H110170   7.735   1.992   1.742
 3431TIP3    H210171   7.871   1.954   1.796
 3432TIP3   OH210172   8.034   2.215   2.864
 3432TIP3    H110173   8.009   2.146   2.925
 3432TIP3    H210174   8.128   2.229   2.881
 3433TIP3   OH210175   7.973   1.942   2.051
 3433TIP3    H110176   7.980   2.000   1.976
 3433TIP3    H210177   8.023   1.864   2.026
 3434TIP3   OH210178   7.333   1.996   2.759
 3434TIP3    H110179   7.351   2.059   2.829
 3434TIP3    H210180   7.316   1.914   2.805
 3435TIP3   OH210181   7.361   1.494   1.490
 3435TIP3    H110182   7.369   1.451   1.575
 3435TIP3    H210183   7.306   1.571   1.507
 3436TIP3   OH210184   6.922   1.522   2.329
 3436TIP3    H110185   6.989   1.558   2.387
 3436TIP3    H210186   6.969   1.500   2.249
 3437TIP3   OH210187   6.838   1.506   1.834
 3437TIP3    H110188   6.894   1.543   1.766
 3437TIP3    H210189   6.774   1.574   1.853
 3438TIP3   OH210190   8.055   2.204   2.439
 3438TIP3    H110191   8.083   2.134   2.380
 3438TIP3    H210192   8.014   2.158   2.513
 3439TIP3   OH210193   7.731   1.647   2.130
 3439TIP3    H110194   7.650   1.651   2.180
 3439TIP3    H210195   7.800   1.647   2.196
 3440TIP3   OH210196   7.130   1.741   2.115
 3440TIP3    H110197   7.042   1.745   2.078
 3440TIP3    H210198   7.158   1.651   2.102
 3441TIP3   OH210199   7.366   1.720   1.808
 3441TIP3    H110200   7.461   1.729   1.798
 3441TIP3    H210201   7.331   1.732   1.720
 3442TIP3   OH210202   8.171   1.703   2.273
 3442TIP3    H110203   8.174   1.716   2.368
 3442TIP3    H210204   8.093   1.648   2.259
 3443TIP3   OH210205   7.207   1.703   1.574
 3443TIP3    H110206   7.112   1.696   1.583
 3443TIP3    H210207   7.220   1.776   1.514
 3444TIP3   OH210208   8.378   3.446   2.533
 3444TIP3    H110209   8.373   3.462   2.439
 3444TIP3    H210210   8.457   3.493   2.561
 3445TIP3   OH210211   7.322   2.561   2.944
 3445TIP3    H110212   7.403   2.581   2.991
 3445TIP3    H210213   7.253   2.571   3.010
 3446TIP3   OH210214   7.773   2.038   2.218
 3446TIP3    H110215   7.835   1.994   2.160
 3446TIP3    H210216   7.781   1.992   2.301
 3447TIP3   OH210217   7.272   1.492   2.106
 3447TIP3    H110218   7.245   1.417   2.160
 3447TIP3    H210219   7.301   1.452   2.024
 3448TIP3   OH210220   7.765   1.936   2.483
 3448TIP3    H110221   7.677   1.966   2.504
 3448TIP3    H210222   7.822   1.987   2.539
 3449TIP3   OH210223   7.457   2.284   1.591
 3449TIP3    H110224   7.386   2.224   1.570
 3449TIP3    H210225   7.435   2.319   1.677
 3450TIP3   OH210226   8.382   2.549   2.190
 3450TIP3    H110227   8.418   2.599   2.117
 3450TIP3    H210228   8.299   2.514   2.157
 3451TIP3   OH210229   7.966   1.557   1.376
 3451TIP3    H110230   7.910   1.549   1.453
 3451TIP3    H210231   8.035   1.619   1.402
 3452TIP3   OH210232   7.894   2.619   2.613
 3452TIP3    H110233   7.950   2.610   2.691
 3452TIP3    H210234   7.858   2.708   2.620
 3453TIP3   OH210235   7.954   1.785   1.573
 3453TIP3    H110236   8.048   1.778   1.585
 3453TIP3    H210237   7.932   1.873   1.604
 3454TIP3   OH210238   7.175   2.291   2.244
 3454TIP3    H110239   7.214   2.275   2.158
 3454TIP3    H210240   7.243   2.263   2.307
 3455TIP3   OH210241   7.626   2.470   1.488
 3455TIP3    H110242   7.575   2.550   1.476
 3455TIP3    H210243   7.565   2.407   1.527
 3456TIP3   OH210244   7.065   2.231   2.876
 3456TIP3    H110245   7.072   2.206   2.968
 3456TIP3    H210246   6.990   2.181   2.843
 3457TIP3   OH210247   7.801   2.366   2.898
 3457TIP3    H110248   7.734   2.304   2.870
 3457TIP3    H210249   7.884   2.325   2.872
 3458TIP3   OH210250   8.042   2.908   2.496
 3458TIP3    H110251   7.947   2.897   2.502
 3458TIP3    H210252   8.067   2.947   2.579
 3459TIP3   OH210253   8.414   1.941   1.411
 3459TIP3    H110254   8.462   1.884   1.351
 3459TIP3    H210255   8.404   2.023   1.363
 3460TIP3   OH210256   8.682   2.787   2.478
 3460TIP3    H110257   8.588   2.794   2.463
 3460TIP3    H210258   8.719   2.770   2.391
 3461TIP3   OH210259   8.125   2.799   1.410
 3461TIP3    H110260   8.152   2.753   1.490
 3461TIP3    H210261   8.192   2.776   1.345
 3462TIP3   OH210262   8.137   2.418   2.112
 3462TIP3    H110263   8.048   2.398   2.141
 3462TIP3    H210264   8.176   2.332   2.093
 3463TIP3   OH210265   7.305   2.646   1.914
 3463TIP3    H110266   7.300   2.720   1.853
 3463TIP3    H210267   7.222   2.649   1.962
 3464TIP3   OH210268   6.854   1.929   1.624
 3464TIP3    H110269   6.897   2.011   1.646
 3464TIP3    H210270   6.773   1.929   1.675
 3465TIP3   OH210271   7.377   2.399   1.820
 3465TIP3    H110272   7.362   2.488   1.851
 3465TIP3    H210273   7.356   2.343   1.895
 3466TIP3   OH210274   7.590   2.962   2.366
 3466TIP3    H110275   7.623   3.038   2.318
 3466TIP3    H210276   7.664   2.931   2.417
 3467TIP3   OH210277   7.220   2.864   1.758
 3467TIP3    H110278   7.134   2.871   1.798
 3467TIP3    H210279   7.256   2.953   1.765
 3468TIP3   OH210280   7.944   2.626   2.341
 3468TIP3    H110281   7.925   2.621   2.434
 3468TIP3    H210282   8.033   2.592   2.332
 3469TIP3   OH210283   8.063   2.409   1.227
 3469TIP3    H110284   8.113   2.486   1.256
 3469TIP3    H210285   7.976   2.421   1.266
 3470TIP3   OH210286   8.192   3.125   2.376
 3470TIP3    H110287   8.120   3.063   2.389
 3470TIP3    H210288   8.163   3.180   2.304
 3471TIP3   OH210289   8.210   2.922   1.155
 3471TIP3    H110290   8.228   2.945   1.064
 3471TIP3    H210291   8.155   2.992   1.188
 3472TIP3   OH210292   7.287   1.741   2.885
 3472TIP3    H110293   7.192   1.745   2.897
 3472TIP3    H210294   7.319   1.684   2.954
 3473TIP3   OH210295   8.016   2.511   1.486
 3473TIP3    H110296   7.993   2.459   1.563
 3473TIP3    H210297   8.091   2.564   1.515
 3474TIP3   OH210298   7.018   2.857   2.523
 3474TIP3    H110299   7.071   2.799   2.578
 3474TIP3    H210300   7.031   2.944   2.560
 3475TIP3   OH210301   7.217   2.485   1.247
 3475TIP3    H110302   7.241   2.399   1.213
 3475TIP3    H210303   7.223   2.476   1.343
 3476TIP3   OH210304   7.220   2.484   1.522
 3476TIP3    H110305   7.283   2.460   1.591
 3476TIP3    H210306   7.220   2.580   1.523
 3477TIP3   OH210307   6.953   2.176   1.705
 3477TIP3    H110308   6.890   2.227   1.757
 3477TIP3    H210309   6.974   2.233   1.631
 3478TIP3   OH210310   8.190   1.758   2.535
 3478TIP3    H110311   8.227   1.835   2.578
 3478TIP3    H210312   8.160   1.701   2.606
 3479TIP3   OH210313   7.995   1.539   1.757
 3479TIP3    H110314   7.937   1.507   1.687
 3479TIP3    H210315   7.998   1.634   1.743
 3480TIP3   OH210316   7.486   2.693   1.429
 3480TIP3    H110317   7.397   2.709   1.461
 3480TIP3    H210318   7.512   2.776   1.389
 3481TIP3   OH210319   7.637   1.713   1.877
 3481TIP3    H110320   7.688   1.785   1.838
 3481TIP3    H210321   7.671   1.704   1.966
 3482TIP3   OH210322   7.965   2.050   2.651
 3482TIP3    H110323   7.978   2.114   2.721
 3482TIP3    H210324   8.008   1.971   2.683
 3483TIP3   OH210325   7.836   1.447   1.965
 3483TIP3    H110326   7.817   1.519   2.025
 3483TIP3    H210327   7.904   1.481   1.907
 3484TIP3   OH210328   7.231   2.756   1.507
 3484TIP3    H110329   7.206   2.825   1.446
 3484TIP3    H210330   7.225   2.797   1.593
 3485TIP3   OH210331   7.342   1.444   1.767
 3485TIP3    H110332   7.328   1.536   1.790
 3485TIP3    H210333   7.435   1.428   1.785
 3486TIP3   OH210334   8.586   1.973   2.658
 3486TIP3    H110335   8.494   1.958   2.639
 3486TIP3    H210336   8.629   1.970   2.573
 3487TIP3   OH210337   8.237   2.159   2.074
 3487TIP3    H110338   8.182   2.112   2.137
 3487TIP3    H210339   8.326   2.129   2.092
 3488TIP3   OH210340   6.980   2.352   1.490
 3488TIP3    H110341   7.051   2.413   1.509
 3488TIP3    H210342   7.014   2.296   1.420
 3489TIP3   OH210343   6.925   1.664   1.604
 3489TIP3    H110344   6.898   1.754   1.620
 3489TIP3    H210345   6.852   1.623   1.559
 3490TIP3   OH210346   8.224   3.124   1.943
 3490TIP3    H110347   8.181   3.188   1.885
 3490TIP3    H210348   8.317   3.145   1.936
 3491TIP3   OH210349   7.285   1.369   2.489
 3491TIP3    H110350   7.256   1.334   2.405
 3491TIP3    H210351   7.279   1.295   2.549
 3492TIP3   OH210352   6.812   2.622   1.882
 3492TIP3    H110353   6.772   2.660   1.960
 3492TIP3    H210354   6.769   2.666   1.809
 3493TIP3   OH210355   7.018   3.159   2.944
 3493TIP3    H110356   7.100   3.165   2.994
 3493TIP3    H210357   7.005   3.065   2.931
 3494TIP3   OH210358   7.481   3.066   2.992
 3494TIP3    H110359   7.573   3.041   2.999
 3494TIP3    H210360   7.447   3.013   2.919
 3495TIP3   OH210361   7.416   2.641   1.131
 3495TIP3    H110362   7.332   2.630   1.175
 3495TIP3    H210363   7.463   2.559   1.146
 3496TIP3   OH210364   8.098   3.011   2.744
 3496TIP3    H110365   8.112   2.941   2.807
 3496TIP3    H210366   8.172   3.070   2.756
 3497TIP3   OH210367   7.942   2.860   0.985
 3497TIP3    H110368   7.925   2.880   1.077
 3497TIP3    H210369   7.940   2.764   0.981
 3498TIP3   OH210370   7.117   2.561   3.135
 3498TIP3    H110371   7.137   2.468   3.144
 3498TIP3    H210372   7.030   2.564   3.095
 3499TIP3   OH210373   7.108   2.173   1.326
 3499TIP3    H110374   7.153   2.145   1.406
 3499TIP3    H210375   7.178   2.185   1.262
 3500TIP3   OH210376   7.738   2.642   2.913
 3500TIP3    H110377   7.694   2.664   2.831
 3500TIP3    H210378   7.772   2.554   2.900
 3501TIP3   OH210379   7.518   2.404   1.213
 3501TIP3    H110380   7.543   2.389   1.304
 3501TIP3    H210381   7.453   2.337   1.195
 3502TIP3   OH210382   8.207   2.680   2.521
 3502TIP3    H110383   8.286   2.709   2.476
 3502TIP3    H210384   8.146   2.753   2.511
 3503TIP3   OH210385   7.232   2.308   3.138
 3503TIP3    H110386   7.309   2.291   3.084
 3503TIP3    H210387   7.268   2.324   3.226
 3504TIP3   OH210388   7.255   2.099   1.552
 3504TIP3    H110389   7.237   2.075   1.643
 3504TIP3    H210390   7.281   2.017   1.510
 3505TIP3   OH210391   7.597   2.188   2.797
 3505TIP3    H110392   7.512   2.231   2.807
 3505TIP3    H210393   7.629   2.219   2.712
 3506TIP3   OH210394   7.325   1.879   1.396
 3506TIP3    H110395   7.330   1.811   1.329
 3506TIP3    H210396   7.415   1.912   1.403
 3507TIP3   OH210397   8.093   2.560   2.881
 3507TIP3    H110398   8.164   2.525   2.828
 3507TIP3    H210399   8.090   2.505   2.959
 3508TIP3   OH210400   8.145   2.133   1.074
 3508TIP3    H110401   8.118   2.089   0.994
 3508TIP3    H210402   8.165   2.223   1.047
 3509TIP3   OH210403   7.696   1.960   2.914
 3509TIP3    H110404   7.699   1.887   2.852
 3509TIP3    H210405   7.662   2.033   2.863
 3510TIP3   OH210406   7.704   1.762   2.709
 3510TIP3    H110407   7.732   1.799   2.624
 3510TIP3    H210408   7.614   1.734   2.695
 3511TIP3   OH210409   7.716   2.290   2.574
 3511TIP3    H110410   7.801   2.333   2.568
 3511TIP3    H210411   7.657   2.346   2.524
 3512TIP3   OH210412   8.304   2.240   2.956
 3512TIP3    H110413   8.347   2.155   2.968
 3512TIP3    H210414   8.376   2.302   2.945
 3513TIP3   OH210415   8.338   2.509   2.689
 3513TIP3    H110416   8.285   2.570   2.638
 3513TIP3    H210417   8.428   2.525   2.659
 3514TIP3   OH210418   7.588   2.037   3.160
 3514TIP3    H110419   7.524   1.969   3.182
 3514TIP3    H210420   7.618   2.014   3.072
 3515TIP3   OH210421   7.819   1.511   2.776
 3515TIP3    H110422   7.777   1.596   2.760
 3515TIP3    H210423   7.747   1.449   2.779
 3516TIP3   OH210424   7.955   1.997   3.010
 3516TIP3    H110425   7.952   1.978   3.103
 3516TIP3    H210426   7.867   1.976   2.978
 3517TIP3   OH210427   8.189   1.946   2.864
 3517TIP3    H110428   8.113   1.948   2.921
 3517TIP3    H210429   8.262   1.924   2.922
 3518TIP3   OH210430   8.416   1.914   3.026
 3518TIP3    H110431   8.431   1.820   3.034
 3518TIP3    H210432   8.413   1.946   3.116
 3519TIP3   OH210433   7.421   1.828   3.239
 3519TIP3    H110434   7.456   1.748   3.201
 3519TIP3    H210435   7.448   1.825   3.331
 3520TIP3   OH210436   7.983   1.545   2.993
 3520TIP3    H110437   8.022   1.459   3.007
 3520TIP3    H210438   7.906   1.528   2.939
 3521TIP3   OH210439   8.019   1.726   3.197
 3521TIP3    H110440   8.005   1.662   3.127
 3521TIP3    H210441   7.933   1.768   3.208
 3522TIP3   OH210442   7.215   2.962   1.325
 3522TIP3    H110443   7.310   2.961   1.311
 3522TIP3    H210444   7.181   3.008   1.248
 3523TIP3   OH210445   6.706   2.353   1.499
 3523TIP3    H110446   6.801   2.364   1.500
 3523TIP3    H210447   6.691   2.266   1.462
 3524TIP3   OH210448   6.616   2.933   1.964
 3524TIP3    H110449   6.551   2.881   1.918
 3524TIP3    H210450   6.660   2.872   2.023
 3525TIP3   OH210451   6.760   2.764   2.131
 3525TIP3    H110452   6.751   2.696   2.198
 3525TIP3    H210453   6.812   2.832   2.172
 3526TIP3   OH210454   8.486   3.205   1.946
 3526TIP3    H110455   8.508   3.229   2.036
 3526TIP3    H210456   8.553   3.247   1.893
 3527TIP3   OH210457   8.501   3.217   2.223
 3527TIP3    H110458   8.464   3.129   2.219
 3527TIP3    H210459   8.577   3.208   2.280
 3528TIP3   OH210460   8.566   2.898   2.802
 3528TIP3    H110461   8.494   2.912   2.863
 3528TIP3    H210462   8.612   2.981   2.799
 3529TIP3   OH210463   8.434   2.456   1.413
 3529TIP3    H110464   8.527   2.472   1.399
 3529TIP3    H210465   8.431   2.372   1.460
 3530TIP3   OH210466   8.464   2.395   1.764
 3530TIP3    H110467   8.429   2.343   1.691
 3530TIP3    H210468   8.529   2.337   1.805
 3531TIP3   OH210469   8.551   2.696   2.028
 3531TIP3    H110470   8.576   2.658   1.944
 3531TIP3    H210471   8.545   2.790   2.012
 3532TIP3   OH210472   8.370   2.971   2.225
 3532TIP3    H110473   8.303   3.015   2.277
 3532TIP3    H210474   8.321   2.931   2.152
 3533TIP3   OH210475   8.340   2.166   1.268
 3533TIP3    H110476   8.292   2.142   1.189
 3533TIP3    H210477   8.274   2.204   1.326
 3534TIP3   OH210478   8.345   1.686   1.093
 3534TIP3    H110479   8.271   1.743   1.112
 3534TIP3    H210480   8.420   1.728   1.135
 3535TIP3   OH210481   8.292   2.116   1.805
 3535TIP3    H110482   8.345   2.036   1.802
 3535TIP3    H210483   8.278   2.132   1.898
 3536TIP3   OH210484   6.934   2.201   2.515
 3536TIP3    H110485   6.924   2.170   2.425
 3536TIP3    H210486   7.027   2.195   2.533
 3537TIP3   OH210487   8.600   2.552   2.605
 3537TIP3    H110488   8.667   2.486   2.586
 3537TIP3    H210489   8.629   2.629   2.557
 3538TIP3   OH210490   8.777   2.336   2.596
 3538TIP3    H110491   8.705   2.305   2.651
 3538TIP3    H210492   8.846   2.271   2.606
 3539TIP3   OH210493   8.215   1.754   1.689
 3539TIP3    H110494   8.246   1.672   1.650
 3539TIP3    H210495   8.294   1.804   1.705
 3540TIP3   OH210496   8.478   2.053   2.133
 3540TIP3    H110497   8.563   2.072   2.093
 3540TIP3    H210498   8.489   2.076   2.225
 3541TIP3   OH210499   8.516   2.176   2.383
 3541TIP3    H110500   8.445   2.207   2.438
 3541TIP3    H210501   8.544   2.253   2.333
 3542TIP3   OH210502   7.158   1.874   3.154
 3542TIP3    H110503   7.251   1.870   3.175
 3542TIP3    H210504   7.122   1.792   3.188
 3543TIP3   OH210505   8.399   1.563   1.628
 3543TIP3    H110506   8.495   1.567   1.637
 3543TIP3    H210507   8.373   1.492   1.687
 3544TIP3   OH210508   7.126   1.596   2.501
 3544TIP3    H110509   7.178   1.516   2.510
 3544TIP3    H210510   7.190   1.666   2.487
 3545TIP3   OH210511   6.906   1.855   2.562
 3545TIP3    H110512   6.958   1.849   2.482
 3545TIP3    H210513   6.936   1.936   2.604
 3546TIP3   OH210514   8.845   1.897   2.759
 3546TIP3    H110515   8.762   1.939   2.784
 3546TIP3    H210516   8.819   1.827   2.700
 3547TIP3   OH210517   6.892   1.349   2.054
 3547TIP3    H110518   6.808   1.346   2.100
 3547TIP3    H210519   6.879   1.413   1.984
 3548TIP3   OH210520   8.019   3.130   1.633
 3548TIP3    H110521   8.077   3.116   1.558
 3548TIP3    H210522   8.066   3.193   1.688
 3549TIP3   OH210523   7.114   1.415   2.882
 3549TIP3    H110524   7.068   1.413   2.966
 3549TIP3    H210525   7.059   1.470   2.826
 3550TIP3   OH210526   7.146   2.879   2.957
 3550TIP3    H110527   7.053   2.858   2.952
 3550TIP3    H210528   7.167   2.872   3.051
 3551TIP3   OH210529   7.361   2.927   2.513
 3551TIP3    H110530   7.310   3.002   2.482
 3551TIP3    H210531   7.446   2.935   2.470
 3552TIP3   OH210532   7.760   3.160   2.649
 3552TIP3    H110533   7.797   3.153   2.737
 3552TIP3    H210534   7.825   3.212   2.600
 3553TIP3   OH210535   7.956   3.311   2.524
 3553TIP3    H110536   8.021   3.259   2.477
 3553TIP3    H210537   8.007   3.370   2.579
 3554TIP3   OH210538   8.728   1.679   2.619
 3554TIP3    H110539   8.649   1.699   2.570
 3554TIP3    H210540   8.771   1.610   2.569
 3555TIP3   OH210541   7.020   3.160   2.561
 3555TIP3    H110542   6.929   3.177   2.537
 3555TIP3    H210543   7.042   3.229   2.624
 3556TIP3   OH210544   7.252   3.158   2.410
 3556TIP3    H110545   7.169   3.162   2.457
 3556TIP3    H210546   7.230   3.183   2.321
 3557TIP3   OH210547   7.663   3.175   2.207
 3557TIP3    H110548   7.596   3.187   2.140
 3557TIP3    H210549   7.675   3.262   2.246
 3558TIP3   OH210550   7.926   3.103   2.245
 3558TIP3    H110551   7.836   3.132   2.234
 3558TIP3    H210552   7.979   3.171   2.204
 3559TIP3   OH210553   8.123   3.275   2.150
 3559TIP3    H110554   8.129   3.365   2.117
 3559TIP3    H210555   8.158   3.221   2.080
 3560TIP3   OH210556   6.933   2.943   2.270
 3560TIP3    H110557   6.956   2.920   2.360
 3560TIP3    H210558   7.006   2.909   2.218
 3561TIP3   OH210559   7.138   2.826   2.133
 3561TIP3    H110560   7.149   2.742   2.179
 3561TIP3    H210561   7.224   2.868   2.141
 3562TIP3   OH210562   7.404   2.912   2.163
 3562TIP3    H110563   7.425   2.820   2.149
 3562TIP3    H210564   7.458   2.938   2.238
 3563TIP3   OH210565   7.966   1.508   2.256
 3563TIP3    H110566   7.899   1.464   2.309
 3563TIP3    H210567   8.034   1.442   2.243
 3564TIP3   OH210568   8.638   1.544   1.976
 3564TIP3    H110569   8.707   1.504   1.923
 3564TIP3    H210570   8.644   1.638   1.955
 3565TIP3   OH210571   7.202   1.264   2.247
 3565TIP3    H110572   7.114   1.228   2.259
 3565TIP3    H210573   7.259   1.188   2.241
 3566TIP3   OH210574   7.011   1.158   1.884
 3566TIP3    H110575   7.033   1.217   1.811
 3566TIP3    H210576   6.974   1.216   1.950
 3567TIP3   OH210577   7.679   1.295   2.144
 3567TIP3    H110578   7.736   1.348   2.088
 3567TIP3    H210579   7.707   1.317   2.233
 3568TIP3   OH210580   8.230   1.396   1.790
 3568TIP3    H110581   8.151   1.450   1.779
 3568TIP3    H210582   8.198   1.307   1.798
 3569TIP3   OH210583   6.697   2.743   1.664
 3569TIP3    H110584   6.612   2.710   1.633
 3569TIP3    H210585   6.700   2.833   1.632
 3570TIP3   OH210586   7.117   1.316   1.664
 3570TIP3    H110587   7.161   1.251   1.609
 3570TIP3    H210588   7.188   1.362   1.708
 3571TIP3   OH210589   7.619   1.453   1.795
 3571TIP3    H110590   7.680   1.430   1.864
 3571TIP3    H210591   7.611   1.548   1.799
 3572TIP3   OH210592   7.484   2.941   1.274
 3572TIP3    H110593   7.552   3.002   1.245
 3572TIP3    H210594   7.476   2.878   1.203
 3573TIP3   OH210595   8.171   3.072   1.419
 3573TIP3    H110596   8.154   2.978   1.413
 3573TIP3    H210597   8.138   3.107   1.337
 3574TIP3   OH210598   7.386   1.558   3.078
 3574TIP3    H110599   7.342   1.505   3.144
 3574TIP3    H210600   7.476   1.566   3.110
 3575TIP3   OH210601   6.778   2.737   1.328
 3575TIP3    H110602   6.788   2.758   1.421
 3575TIP3    H210603   6.861   2.697   1.302
 3576TIP3   OH210604   8.494   1.648   3.043
 3576TIP3    H110605   8.512   1.617   3.131
 3576TIP3    H210606   8.579   1.643   2.998
 3577TIP3   OH210607   8.415   3.171   2.544
 3577TIP3    H110608   8.341   3.143   2.489
 3577TIP3    H210609   8.406   3.266   2.547
 3578TIP3   OH210610   8.643   2.079   1.714
 3578TIP3    H110611   8.675   2.164   1.744
 3578TIP3    H210612   8.654   2.081   1.619
 3579TIP3   OH210613   8.744   2.327   1.753
 3579TIP3    H110614   8.839   2.314   1.754
 3579TIP3    H210615   8.726   2.368   1.668
 3580TIP3   OH210616   8.630   2.628   1.278
 3580TIP3    H110617   8.552   2.683   1.274
 3580TIP3    H210618   8.677   2.659   1.356
 3581TIP3   OH210619   8.761   2.718   2.223
 3581TIP3    H110620   8.697   2.698   2.155
 3581TIP3    H210621   8.789   2.632   2.256
 3582TIP3   OH210622   8.577   2.947   1.920
 3582TIP3    H110623   8.666   2.968   1.949
 3582TIP3    H210624   8.527   3.027   1.934
 3583TIP3   OH210625   8.810   3.173   1.427
 3583TIP3    H110626   8.867   3.175   1.504
 3583TIP3    H210627   8.774   3.085   1.426
 3584TIP3   OH210628   8.883   2.958   2.276
 3584TIP3    H110629   8.975   2.935   2.291
 3584TIP3    H210630   8.841   2.876   2.250
 3585TIP3   OH210631   8.671   1.793   1.871
 3585TIP3    H110632   8.734   1.863   1.856
 3585TIP3    H210633   8.666   1.746   1.788
 3586TIP3   OH210634   8.813   2.486   2.363
 3586TIP3    H110635   8.831   2.442   2.446
 3586TIP3    H210636   8.741   2.435   2.325
 3587TIP3   OH210637   8.559   2.296   1.171
 3587TIP3    H110638   8.625   2.227   1.180
 3587TIP3    H210639   8.480   2.258   1.211
 3588TIP3   OH210640   8.794   3.067   2.034
 3588TIP3    H110641   8.832   3.042   2.118
 3588TIP3    H210642   8.798   3.163   2.033
 3589TIP3   OH210643   8.646   2.947   1.416
 3589TIP3    H110644   8.578   3.015   1.425
 3589TIP3    H210645   8.664   2.944   1.322
 3590TIP3   OH210646   8.772   3.410   2.419
 3590TIP3    H110647   8.863   3.410   2.450
 3590TIP3    H210648   8.747   3.318   2.417
 3591TIP3   OH210649   8.908   2.871   2.621
 3591TIP3    H110650   8.945   2.797   2.671
 3591TIP3    H210651   8.829   2.835   2.581
 3592TIP3   OH210652   8.558   2.690   0.996
 3592TIP3    H110653   8.647   2.674   1.027
 3592TIP3    H210654   8.504   2.630   1.047
 3593TIP3   OH210655   8.408   3.243   1.499
 3593TIP3    H110656   8.374   3.182   1.433
 3593TIP3    H210657   8.443   3.186   1.568
 3594TIP3   OH210658   8.532   3.067   1.666
 3594TIP3    H110659   8.530   2.997   1.731
 3594TIP3    H210660   8.600   3.127   1.697
 3595TIP3   OH210661   8.766   2.404   2.012
 3595TIP3    H110662   8.756   2.377   1.921
 3595TIP3    H210663   8.836   2.469   2.010
 3596TIP3   OH210664   8.938   2.113   2.613
 3596TIP3    H110665   9.034   2.115   2.613
 3596TIP3    H210666   8.916   2.038   2.668
 3597TIP3   OH210667   8.735   2.123   2.061
 3597TIP3    H110668   8.826   2.095   2.048
 3597TIP3    H210669   8.739   2.219   2.059
 3598TIP3   OH210670   8.967   3.127   2.530
 3598TIP3    H110671   8.918   3.134   2.448
 3598TIP3    H210672   8.956   3.036   2.557
 3599TIP3   OH210673   8.775   3.344   2.015
 3599TIP3    H110674   8.706   3.411   2.023
 3599TIP3    H210675   8.856   3.389   2.038
 3600TIP3   OH210676   9.046   3.319   1.830
 3600TIP3    H110677   9.057   3.358   1.917
 3600TIP3    H210678   9.031   3.395   1.773
 3601TIP3   OH210679   8.725   3.238   1.767
 3601TIP3    H110680   8.753   3.276   1.850
 3601TIP3    H210681   8.802   3.193   1.733
 3602TIP3   OH210682   8.957   3.130   1.658
 3602TIP3    H110683   8.996   3.046   1.682
 3602TIP3    H210684   8.999   3.194   1.714
 3603TIP3   OH210685   8.456   3.097   1.267
 3603TIP3    H110686   8.474   3.035   1.197
 3603TIP3    H210687   8.445   3.181   1.224
 3604TIP3   OH210688   8.644   2.941   0.810
 3604TIP3    H110689   8.595   2.967   0.888
 3604TIP3    H210690   8.735   2.937   0.840
 3605TIP3   OH210691   0.359   3.108   3.505
 3605TIP3    H110692   0.318   3.193   3.490
 3605TIP3    H210693   0.298   3.045   3.468
 3606TIP3   OH210694   0.370   3.098   3.901
 3606TIP3    H110695   0.415   3.072   3.981
 3606TIP3    H210696   0.329   3.018   3.869
 3607TIP3   OH210697   9.493   2.909   4.256
 3607TIP3    H110698   9.523   2.859   4.332
 3607TIP3    H210699   9.573   2.927   4.206
 3608TIP3   OH210700   0.615   3.399   3.575
 3608TIP3    H110701   0.607   3.329   3.641
 3608TIP3    H210702   0.639   3.477   3.626
 3609TIP3   OH210703   9.477   3.363   3.859
 3609TIP3    H110704   9.460   3.274   3.888
 3609TIP3    H210705   9.572   3.367   3.850
 3610TIP3   OH210706   0.284   3.837   3.593
 3610TIP3    H110707   0.303   3.775   3.522
 3610TIP3    H210708   0.299   3.787   3.673
 3611TIP3   OH210709   0.191   3.311   3.908
 3611TIP3    H110710   0.242   3.234   3.882
 3611TIP3    H210711   0.257   3.372   3.944
 3612TIP3   OH210712   0.572   2.771   3.962
 3612TIP3    H110713   0.654   2.722   3.966
 3612TIP3    H210714   0.538   2.753   3.874
 3613TIP3   OH210715   9.689   2.474   3.870
 3613TIP3    H110716   9.599   2.506   3.860
 3613TIP3    H210717   9.699   2.410   3.800
 3614TIP3   OH210718   0.662   2.583   3.580
 3614TIP3    H110719   0.730   2.575   3.648
 3614TIP3    H210720   0.709   2.614   3.503
 3615TIP3   OH210721   9.421   2.552   3.923
 3615TIP3    H110722   9.439   2.503   4.003
 3615TIP3    H210723   9.406   2.642   3.952
 3616TIP3   OH210724  -0.007   2.846   3.854
 3616TIP3    H110725   0.087   2.865   3.852
 3616TIP3    H210726  -0.013   2.751   3.842
 3617TIP3   OH210727   1.181   2.805   4.134
 3617TIP3    H110728   1.115   2.863   4.097
 3617TIP3    H210729   1.265   2.844   4.108
 3618TIP3   OH210730   9.684   2.424   4.374
 3618TIP3    H110731   9.640   2.466   4.300
 3618TIP3    H210732   9.635   2.452   4.451
 3619TIP3   OH210733   0.200   3.309   3.396
 3619TIP3    H110734   0.208   3.297   3.302
 3619TIP3    H210735   0.161   3.396   3.406
 3620TIP3   OH210736   0.032   3.210   4.108
 3620TIP3    H110737  -0.016   3.283   4.149
 3620TIP3    H210738   0.082   3.251   4.038
 3621TIP3   OH210739   0.842   2.594   3.784
 3621TIP3    H110740   0.923   2.543   3.791
 3621TIP3    H210741   0.869   2.685   3.795
 3622TIP3   OH210742   9.622   2.535   4.134
 3622TIP3    H110743   9.667   2.614   4.163
 3622TIP3    H210744   9.660   2.516   4.049
 3623TIP3   OH210745   9.691   3.422   4.217
 3623TIP3    H110746   9.661   3.500   4.170
 3623TIP3    H210747   9.619   3.400   4.276
 3624TIP3   OH210748   0.649   3.639   3.727
 3624TIP3    H110749   0.558   3.632   3.756
 3624TIP3    H210750   0.652   3.723   3.680
 3625TIP3   OH210751   1.015   2.487   4.119
 3625TIP3    H110752   0.984   2.577   4.119
 3625TIP3    H210753   1.050   2.474   4.031
 3626TIP3   OH210754   0.261   2.198   4.112
 3626TIP3    H110755   0.246   2.103   4.117
 3626TIP3    H210756   0.180   2.236   4.145
 3627TIP3   OH210757   0.355   3.667   3.383
 3627TIP3    H110758   0.405   3.586   3.370
 3627TIP3    H210759   0.416   3.736   3.356
 3628TIP3   OH210760   0.507   3.449   3.326
 3628TIP3    H110761   0.530   3.378   3.266
 3628TIP3    H210762   0.548   3.424   3.409
 3629TIP3   OH210763   0.890   3.532   4.060
 3629TIP3    H110764   0.875   3.458   4.001
 3629TIP3    H210765   0.875   3.609   4.005
 3630TIP3   OH210766   0.198   2.945   3.344
 3630TIP3    H110767   0.126   3.000   3.312
 3630TIP3    H210768   0.251   2.927   3.266
 3631TIP3   OH210769   1.072   3.194   3.926
 3631TIP3    H110770   0.989   3.242   3.916
 3631TIP3    H210771   1.110   3.193   3.838
 3632TIP3   OH210772   0.548   3.057   3.310
 3632TIP3    H110773   0.494   3.079   3.386
 3632TIP3    H210774   0.628   3.021   3.347
 3633TIP3   OH210775   0.762   3.051   4.244
 3633TIP3    H110776   0.762   3.133   4.292
 3633TIP3    H210777   0.678   3.050   4.197
 3634TIP3   OH210778   9.576   2.971   3.735
 3634TIP3    H110779   9.575   2.930   3.648
 3634TIP3    H210780   9.653   2.933   3.778
 3635TIP3   OH210781   9.748   3.411   3.825
 3635TIP3    H110782   9.740   3.403   3.730
 3635TIP3    H210783   9.835   3.377   3.845
 3636TIP3   OH210784   9.702   2.969   4.090
 3636TIP3    H110785   9.733   2.935   4.006
 3636TIP3    H210786   9.748   3.052   4.101
 3637TIP3   OH210787   0.400   3.636   3.844
 3637TIP3    H110788   0.406   3.718   3.893
 3637TIP3    H210789   0.399   3.567   3.910
 3638TIP3   OH210790   0.088   3.517   4.389
 3638TIP3    H110791   0.031   3.574   4.441
 3638TIP3    H210792   0.028   3.470   4.330
 3639TIP3   OH210793   0.399   2.879   3.161
 3639TIP3    H110794   0.456   2.944   3.201
 3639TIP3    H210795   0.414   2.888   3.067
 3640TIP3   OH210796   9.668   3.115   4.443
 3640TIP3    H110797   9.694   3.204   4.465
 3640TIP3    H210798   9.578   3.107   4.475
 3641TIP3   OH210799   0.095   3.570   3.386
 3641TIP3    H110800   0.184   3.602   3.397
 3641TIP3    H210801   0.047   3.645   3.351
 3642TIP3   OH210802   9.709   3.699   4.488
 3642TIP3    H110803   9.697   3.718   4.395
 3642TIP3    H210804   9.623   3.672   4.519
 3643TIP3   OH210805   0.688   3.486   2.738
 3643TIP3    H110806   0.690   3.580   2.717
 3643TIP3    H210807   0.776   3.455   2.718
 3644TIP3   OH210808   9.257   3.266   4.460
 3644TIP3    H110809   9.183   3.271   4.400
 3644TIP3    H210810   9.238   3.190   4.515
 3645TIP3   OH210811   1.119   3.889   4.135
 3645TIP3    H110812   1.123   3.794   4.146
 3645TIP3    H210813   1.042   3.916   4.185
 3646TIP3   OH210814   0.257   3.673   4.246
 3646TIP3    H110815   0.254   3.761   4.283
 3646TIP3    H210816   0.194   3.624   4.298
 3647TIP3   OH210817   9.801   3.761   3.198
 3647TIP3    H110818   9.768   3.767   3.108
 3647TIP3    H210819   9.777   3.844   3.238
 3648TIP3   OH210820   9.397   3.569   3.639
 3648TIP3    H110821   9.423   3.629   3.708
 3648TIP3    H210822   9.326   3.518   3.678
 3649TIP3   OH210823   0.215   3.679   2.846
 3649TIP3    H110824   0.277   3.615   2.812
 3649TIP3    H210825   0.245   3.698   2.935
 3650TIP3   OH210826   0.261   3.737   3.114
 3650TIP3    H110827   0.174   3.742   3.155
 3650TIP3    H210828   0.320   3.713   3.186
 3651TIP3   OH210829   1.006   3.026   4.423
 3651TIP3    H110830   0.929   3.030   4.367
 3651TIP3    H210831   1.025   2.932   4.429
 3652TIP3   OH210832   9.486   3.413   4.400
 3652TIP3    H110833   9.545   3.418   4.475
 3652TIP3    H210834   9.410   3.364   4.431
 3653TIP3   OH210835   9.806   2.241   4.213
 3653TIP3    H110836   9.739   2.218   4.148
 3653TIP3    H210837   9.764   2.308   4.267
 3654TIP3   OH210838   0.575   2.408   4.325
 3654TIP3    H110839   0.642   2.402   4.393
 3654TIP3    H210840   0.493   2.415   4.373
 3655TIP3   OH210841   0.780   2.767   4.287
 3655TIP3    H110842   0.729   2.746   4.365
 3655TIP3    H210843   0.759   2.858   4.269
 3656TIP3   OH210844   0.453   2.918   2.896
 3656TIP3    H110845   0.390   2.950   2.831
 3656TIP3    H210846   0.539   2.932   2.856
 3657TIP3   OH210847   9.768   2.740   4.247
 3657TIP3    H110848   9.735   2.766   4.333
 3657TIP3    H210849   9.772   2.822   4.197
 3658TIP3   OH210850   0.312   2.739   3.486
 3658TIP3    H110851   0.266   2.811   3.442
 3658TIP3    H210852   0.372   2.705   3.420
 3659TIP3   OH210853   0.501   3.010   4.566
 3659TIP3    H110854   0.477   2.938   4.624
 3659TIP3    H210855   0.595   3.022   4.580
 3660TIP3   OH210856   0.479   2.745   3.702
 3660TIP3    H110857   0.417   2.760   3.631
 3660TIP3    H210858   0.538   2.678   3.668
 3661TIP3   OH210859   9.612   2.775   4.482
 3661TIP3    H110860   9.626   2.848   4.542
 3661TIP3    H210861   9.622   2.697   4.536
 3662TIP3   OH210862   0.488   2.975   4.123
 3662TIP3    H110863   0.521   2.908   4.063
 3662TIP3    H210864   0.469   2.928   4.204
 3663TIP3   OH210865   0.176   2.528   3.861
 3663TIP3    H110866   0.089   2.495   3.882
 3663TIP3    H210867   0.231   2.450   3.856
 3664TIP3   OH210868   0.840   4.239   4.226
 3664TIP3    H110869   0.836   4.250   4.131
 3664TIP3    H210870   0.919   4.286   4.252
 3665TIP3   OH210871   9.675   3.375   4.591
 3665TIP3    H110872   9.734   3.409   4.659
 3665TIP3    H210873   9.621   3.311   4.637
 3666TIP3   OH210874   0.269   2.839   3.872
 3666TIP3    H110875   0.328   2.803   3.805
 3666TIP3    H210876   0.285   2.785   3.949
 3667TIP3   OH210877   9.766   3.098   3.277
 3667TIP3    H110878   9.691   3.048   3.247
 3667TIP3    H210879   9.747   3.119   3.368
 3668TIP3   OH210880   0.836   3.332   3.881
 3668TIP3    H110881   0.875   3.379   3.807
 3668TIP3    H210882   0.757   3.290   3.844
 3669TIP3   OH210883   0.373   3.396   4.303
 3669TIP3    H110884   0.423   3.380   4.383
 3669TIP3    H210885   0.319   3.471   4.323
 3670TIP3   OH210886   0.491   2.651   3.296
 3670TIP3    H110887   0.587   2.659   3.296
 3670TIP3    H210888   0.462   2.717   3.233
 3671TIP3   OH210889   9.425   3.096   3.930
 3671TIP3    H110890   9.475   3.049   3.863
 3671TIP3    H210891   9.471   3.078   4.012
 3672TIP3   OH210892   0.146   3.253   3.118
 3672TIP3    H110893   0.092   3.328   3.096
 3672TIP3    H210894   0.087   3.193   3.164
 3673TIP3   OH210895   9.347   3.003   4.564
 3673TIP3    H110896   9.321   2.990   4.655
 3673TIP3    H210897   9.309   2.929   4.517
 3674TIP3   OH210898   0.263   3.150   4.584
 3674TIP3    H110899   0.201   3.089   4.545
 3674TIP3    H210900   0.349   3.116   4.561
 3675TIP3   OH210901   0.522   3.701   4.176
 3675TIP3    H110902   0.429   3.677   4.180
 3675TIP3    H210903   0.540   3.741   4.261
 3676TIP3   OH210904   0.885   2.750   3.096
 3676TIP3    H110905   0.832   2.704   3.030
 3676TIP3    H210906   0.900   2.837   3.057
 3677TIP3   OH210907   1.133   3.612   4.154
 3677TIP3    H110908   1.040   3.592   4.146
 3677TIP3    H210909   1.171   3.582   4.071
 3678TIP3   OH210910   0.622   3.558   3.004
 3678TIP3    H110911   0.599   3.486   3.063
 3678TIP3    H210912   0.649   3.515   2.923
 3679TIP3   OH210913   0.609   3.201   3.778
 3679TIP3    H110914   0.520   3.179   3.807
 3679TIP3    H210915   0.642   3.119   3.740
 3680TIP3   OH210916   9.630   3.417   3.574
 3680TIP3    H110917   9.659   3.475   3.504
 3680TIP3    H210918   9.546   3.453   3.601
 3681TIP3   OH210919   9.659   3.150   3.526
 3681TIP3    H110920   9.653   3.245   3.536
 3681TIP3    H210921   9.640   3.115   3.613
 3682TIP3   OH210922   0.091   3.758   4.045
 3682TIP3    H110923   0.129   3.833   3.999
 3682TIP3    H210924   0.164   3.723   4.096
 3683TIP3   OH210925   9.542   3.642   3.415
 3683TIP3    H110926   9.499   3.646   3.500
 3683TIP3    H210927   9.614   3.704   3.421
 3684TIP3   OH210928   0.413   3.425   4.030
 3684TIP3    H110929   0.399   3.414   4.124
 3684TIP3    H210930   0.497   3.383   4.013
 3685TIP3   OH210931   0.382   3.284   2.928
 3685TIP3    H110932   0.448   3.274   2.996
 3685TIP3    H210933   0.299   3.269   2.972
 3686TIP3   OH210934   0.653   3.934   4.075
 3686TIP3    H110935   0.587   3.865   4.079
 3686TIP3    H210936   0.631   3.983   3.995
 3687TIP3   OH210937   0.701   3.758   2.700
 3687TIP3    H110938   0.719   3.814   2.624
 3687TIP3    H210939   0.636   3.807   2.750
 3688TIP3   OH210940   9.578   2.524   4.610
 3688TIP3    H110941   9.517   2.563   4.672
 3688TIP3    H210942   9.626   2.459   4.660
 3689TIP3   OH210943   0.576   3.257   3.125
 3689TIP3    H110944   0.555   3.185   3.184
 3689TIP3    H210945   0.670   3.246   3.106
 3690TIP3   OH210946   9.200   3.690   4.283
 3690TIP3    H110947   9.141   3.616   4.269
 3690TIP3    H210948   9.287   3.652   4.282
 3691TIP3   OH210949   9.500   3.310   3.270
 3691TIP3    H110950   9.588   3.275   3.279
 3691TIP3    H210951   9.510   3.385   3.211
 3692TIP3   OH210952   0.511   2.396   3.446
 3692TIP3    H110953   0.481   2.450   3.373
 3692TIP3    H210954   0.563   2.455   3.500
 3693TIP3   OH210955   9.782   3.474   3.094
 3693TIP3    H110956   9.689   3.494   3.107
 3693TIP3    H210957   9.828   3.539   3.147
 3694TIP3   OH210958   0.169   2.523   3.584
 3694TIP3    H110959   0.214   2.594   3.537
 3694TIP3    H210960   0.174   2.548   3.676
 3695TIP3   OH210961   0.458   2.839   4.356
 3695TIP3    H110962   0.457   2.909   4.421
 3695TIP3    H210963   0.514   2.771   4.395
 3696TIP3   OH210964   0.350   2.326   3.664
 3696TIP3    H110965   0.277   2.376   3.627
 3696TIP3    H210966   0.413   2.320   3.593
 3697TIP3   OH210967   9.528   3.559   3.151
 3697TIP3    H110968   9.491   3.625   3.092
 3697TIP3    H210969   9.529   3.601   3.237
 3698TIP3   OH210970   1.042   2.758   4.362
 3698TIP3    H110971   0.951   2.742   4.336
 3698TIP3    H210972   1.089   2.766   4.279
 3699TIP3   OH210973   0.692   2.945   3.697
 3699TIP3    H110974   0.623   2.880   3.712
 3699TIP3    H210975   0.768   2.912   3.745
 3700TIP3   OH210976   0.680   3.903   3.645
 3700TIP3    H110977   0.636   3.952   3.575
 3700TIP3    H210978   0.773   3.917   3.630
 3701TIP3   OH210979   1.679   4.512   1.230
 3701TIP3    H110980   1.613   4.494   1.163
 3701TIP3    H210981   1.753   4.455   1.207
 3702TIP3   OH210982   9.778   3.889   4.675
 3702TIP3    H110983   9.867   3.861   4.696
 3702TIP3    H210984   9.749   3.827   4.607
 3703TIP3   OH210985   0.554   3.807   4.428
 3703TIP3    H110986   0.558   3.732   4.486
 3703TIP3    H210987   0.633   3.857   4.448
 3704TIP3   OH210988   0.396   3.495   2.745
 3704TIP3    H110989   0.380   3.423   2.806
 3704TIP3    H210990   0.491   3.506   2.747
 3705TIP3   OH210991   9.355   3.310   4.865
 3705TIP3    H110992   9.420   3.265   4.811
 3705TIP3    H210993   9.315   3.375   4.807
 3706TIP3   OH210994   0.225   3.426   4.606
 3706TIP3    H110995   0.181   3.446   4.523
 3706TIP3    H210996   0.253   3.335   4.597
 3707TIP3   OH210997   0.675   3.468   4.216
 3707TIP3    H110998   0.753   3.493   4.167
 3707TIP3    H210999   0.613   3.539   4.203
 3708TIP3   OH211000   9.606   2.993   4.836
 3708TIP3    H111001   9.690   2.947   4.833
 3708TIP3    H211002   9.608   3.041   4.918
 3709TIP3   OH211003   0.090   2.956   4.460
 3709TIP3    H111004   0.010   3.008   4.454
 3709TIP3    H211005   0.139   2.978   4.381
 3710TIP3   OH211006   0.550   3.340   4.565
 3710TIP3    H111007   0.626   3.310   4.515
 3710TIP3    H211008   0.550   3.286   4.644
 3711TIP3   OH211009   0.678   2.981   2.748
 3711TIP3    H111010   0.705   2.950   2.661
 3711TIP3    H211011   0.647   3.070   2.733
 3712TIP3   OH211012   0.180   2.736   4.596
 3712TIP3    H111013   0.178   2.662   4.536
 3712TIP3    H211014   0.158   2.812   4.542
 3713TIP3   OH211015   0.135   2.544   4.394
 3713TIP3    H111016   0.124   2.609   4.325
 3713TIP3    H211017   0.053   2.494   4.394
 3714TIP3   OH211018   0.217   3.053   4.244
 3714TIP3    H111019   0.304   3.062   4.204
 3714TIP3    H211020   0.163   3.118   4.198
 3715TIP3   OH211021   0.770   3.019   4.654
 3715TIP3    H111022   0.808   2.932   4.662
 3715TIP3    H211023   0.843   3.075   4.628
 3716TIP3   OH211024   0.796   3.294   4.385
 3716TIP3    H111025   0.745   3.356   4.333
 3716TIP3    H211026   0.886   3.305   4.355
 3717TIP3   OH211027   0.036   2.842   4.803
 3717TIP3    H111028  -0.004   2.762   4.838
 3717TIP3    H211029   0.088   2.812   4.728
 3718TIP3   OH211030   0.313   2.321   4.425
 3718TIP3    H111031   0.262   2.402   4.419
 3718TIP3    H211032   0.249   2.255   4.455
 3719TIP3   OH211033   0.442   2.782   4.705
 3719TIP3    H111034   0.459   2.764   4.797
 3719TIP3    H211035   0.350   2.758   4.692
 3720TIP3   OH211036   0.651   2.724   4.531
 3720TIP3    H111037   0.581   2.736   4.595
 3720TIP3    H211038   0.729   2.706   4.584
 3721TIP3   OH211039   0.862   2.698   4.712
 3721TIP3    H111040   0.879   2.604   4.717
 3721TIP3    H211041   0.868   2.729   4.802
 3722TIP3   OH211042   9.717   2.619   4.916
 3722TIP3    H111043   9.714   2.537   4.866
 3722TIP3    H211044   9.761   2.596   4.998
 3723TIP3   OH211045   0.365   2.468   4.899
 3723TIP3    H111046   0.437   2.468   4.836
 3723TIP3    H211047   0.335   2.559   4.902
 3724TIP3   OH211048   9.482   3.776   2.972
 3724TIP3    H111049   9.574   3.763   2.947
 3724TIP3    H211050   9.446   3.832   2.904
 3725TIP3   OH211051   0.945   3.968   3.628
 3725TIP3    H111052   0.977   3.992   3.716
 3725TIP3    H211053   1.009   4.006   3.568
 3726TIP3   OH211054   0.974   3.987   3.912
 3726TIP3    H111055   0.923   3.906   3.902
 3726TIP3    H211056   1.041   3.965   3.977
 3727TIP3   OH211057   1.012   3.692   4.490
 3727TIP3    H111058   0.945   3.701   4.557
 3727TIP3    H211059   1.059   3.775   4.492
 3728TIP3   OH211060   0.846   3.210   3.095
 3728TIP3    H111061   0.905   3.278   3.063
 3728TIP3    H211062   0.890   3.174   3.172
 3729TIP3   OH211063   0.971   3.080   3.308
 3729TIP3    H111064   0.901   3.034   3.355
 3729TIP3    H211065   1.041   3.090   3.373
 3730TIP3   OH211066   1.017   3.463   3.718
 3730TIP3    H111067   1.070   3.392   3.683
 3730TIP3    H211068   1.023   3.532   3.652
 3731TIP3   OH211069   0.820   3.756   3.916
 3731TIP3    H111070   0.752   3.798   3.969
 3731TIP3    H211071   0.772   3.713   3.845
 3732TIP3   OH211072   0.878   2.981   2.942
 3732TIP3    H111073   0.806   2.976   2.879
 3732TIP3    H211074   0.860   3.060   2.992
 3733TIP3   OH211075   0.747   2.622   2.900
 3733TIP3    H111076   0.672   2.641   2.842
 3733TIP3    H211077   0.779   2.537   2.870
 3734TIP3   OH211078   0.766   2.935   3.430
 3734TIP3    H111079   0.775   2.842   3.413
 3734TIP3    H211080   0.747   2.941   3.523
 3735TIP3   OH211081   9.177   2.970   4.199
 3735TIP3    H111082   9.142   2.963   4.111
 3735TIP3    H211083   9.242   3.040   4.194
 3736TIP3   OH211084   1.058   3.334   4.291
 3736TIP3    H111085   1.123   3.264   4.281
 3736TIP3    H211086   1.080   3.397   4.222
 3737TIP3   OH211087   1.233   3.118   4.286
 3737TIP3    H111088   1.160   3.078   4.332
 3737TIP3    H211089   1.310   3.068   4.314
 3738TIP3   OH211090   0.776   2.665   3.334
 3738TIP3    H111091   0.813   2.577   3.340
 3738TIP3    H211092   0.815   2.703   3.255
 3739TIP3   OH211093   0.921   2.853   3.823
 3739TIP3    H111094   1.002   2.862   3.774
 3739TIP3    H211095   0.941   2.888   3.910
 3740TIP3   OH211096   0.978   2.977   4.065
 3740TIP3    H111097   0.906   3.009   4.120
 3740TIP3    H211098   1.013   3.056   4.024
 3741TIP3   OH211099   9.450   2.633   4.827
 3741TIP3    H111100   9.532   2.645   4.875
 3741TIP3    H211101   9.391   2.700   4.862
 3742TIP3   OH211102   1.442   2.559   4.608
 3742TIP3    H111103   1.503   2.498   4.567
 3742TIP3    H211104   1.409   2.612   4.535
 3743TIP3   OH211105   0.864   2.408   3.367
 3743TIP3    H111106   0.921   2.385   3.440
 3743TIP3    H211107   0.796   2.341   3.367
 3744TIP3   OH211108   9.142   2.690   4.203
 3744TIP3    H111109   9.220   2.696   4.148
 3744TIP3    H211110   9.134   2.776   4.243
 3745TIP3   OH211111   1.303   2.691   4.414
 3745TIP3    H111112   1.216   2.726   4.428
 3745TIP3    H211113   1.290   2.612   4.362
 3746TIP3   OH211114   1.010   2.325   2.952
 3746TIP3    H111115   1.081   2.266   2.978
 3746TIP3    H211116   1.036   2.411   2.985
 3747TIP3   OH211117   0.505   3.866   3.282
 3747TIP3    H111118   0.557   3.860   3.201
 3747TIP3    H211119   0.545   3.939   3.330
 3748TIP3   OH211120   9.410   2.193   4.651
 3748TIP3    H111121   9.400   2.246   4.730
 3748TIP3    H211122   9.377   2.249   4.580
 3749TIP3   OH211123   9.474   3.644   4.608
 3749TIP3    H111124   9.430   3.725   4.634
 3749TIP3    H211125   9.513   3.611   4.689
 3750TIP3   OH211126   9.686   3.754   4.226
 3750TIP3    H111127   9.615   3.773   4.165
 3750TIP3    H211128   9.766   3.757   4.173
 3751TIP3   OH211129   0.256   3.932   4.330
 3751TIP3    H111130   0.287   3.932   4.421
 3751TIP3    H211131   0.320   3.985   4.283
 3752TIP3   OH211132   0.437   4.095   4.204
 3752TIP3    H111133   0.506   4.044   4.162
 3752TIP3    H211134   0.484   4.154   4.263
 3753TIP3   OH211135   1.215   2.445   4.311
 3753TIP3    H111136   1.145   2.457   4.248
 3753TIP3    H211137   1.255   2.362   4.288
 3754TIP3   OH211138   9.522   3.884   4.053
 3754TIP3    H111139   9.446   3.827   4.061
 3754TIP3    H211140   9.499   3.944   3.981
 3755TIP3   OH211141   0.154   3.975   3.885
 3755TIP3    H111142   0.077   3.979   3.828
 3755TIP3    H211143   0.156   4.061   3.928
 3756TIP3   OH211144   0.410   3.898   3.926
 3756TIP3    H111145   0.320   3.923   3.908
 3756TIP3    H211146   0.463   3.965   3.883
 3757TIP3   OH211147   0.604   4.083   3.839
 3757TIP3    H111148   0.594   4.168   3.795
 3757TIP3    H211149   0.632   4.024   3.770
 3758TIP3   OH211150   9.209   3.696   4.000
 3758TIP3    H111151   9.208   3.697   4.095
 3758TIP3    H211152   9.299   3.674   3.977
 3759TIP3   OH211153   9.453   3.635   3.903
 3759TIP3    H111154   9.466   3.540   3.899
 3759TIP3    H211155   9.540   3.672   3.891
 3760TIP3   OH211156   9.717   3.685   3.852
 3760TIP3    H111157   9.734   3.593   3.833
 3760TIP3    H211158   9.779   3.706   3.923
 3761TIP3   OH211159   0.907   2.226   3.823
 3761TIP3    H111160   0.976   2.292   3.819
 3761TIP3    H211161   0.827   2.276   3.838
 3762TIP3   OH211162   1.043   2.334   3.553
 3762TIP3    H111163   1.120   2.286   3.525
 3762TIP3    H211164   1.067   2.373   3.637
 3763TIP3   OH211165   0.606   2.275   3.945
 3763TIP3    H111166   0.574   2.297   3.858
 3763TIP3    H211167   0.623   2.181   3.941
 3764TIP3   OH211168   9.748   3.717   2.927
 3764TIP3    H111169   9.829   3.739   2.882
 3764TIP3    H211170   9.748   3.621   2.932
 3765TIP3   OH211171   0.653   3.828   3.048
 3765TIP3    H111172   0.644   3.733   3.037
 3765TIP3    H211173   0.610   3.865   2.970
 3766TIP3   OH211174   9.699   2.363   4.806
 3766TIP3    H111175   9.663   2.288   4.852
 3766TIP3    H211176   9.790   2.367   4.833
 3767TIP3   OH211177   0.123   2.361   4.961
 3767TIP3    H111178   0.212   2.384   4.935
 3767TIP3    H211179   0.132   2.279   5.009
 3768TIP3   OH211180   0.917   2.426   4.728
 3768TIP3    H111181   0.893   2.382   4.809
 3768TIP3    H211182   1.009   2.404   4.715
 3769TIP3   OH211183   0.875   3.965   4.241
 3769TIP3    H111184   0.800   3.939   4.186
 3769TIP3    H211185   0.867   4.061   4.247
 3770TIP3   OH211186   2.156   3.356   2.968
 3770TIP3    H111187   2.128   3.444   2.942
 3770TIP3    H211188   2.081   3.300   2.946
 3771TIP3   OH211189   2.162   3.349   3.408
 3771TIP3    H111190   2.208   3.327   3.489
 3771TIP3    H211191   2.113   3.270   3.386
 3772TIP3   OH211192   1.451   3.228   3.721
 3772TIP3    H111193   1.450   3.134   3.704
 3772TIP3    H211194   1.535   3.258   3.685
 3773TIP3   OH211195   2.416   3.652   3.075
 3773TIP3    H111196   2.399   3.589   3.146
 3773TIP3    H211197   2.439   3.734   3.121
 3774TIP3   OH211198   1.433   3.643   3.437
 3774TIP3    H111199   1.418   3.549   3.436
 3774TIP3    H211200   1.528   3.652   3.427
 3775TIP3   OH211201   1.166   2.935   3.164
 3775TIP3    H111202   1.094   2.986   3.200
 3775TIP3    H211203   1.161   2.851   3.210
 3776TIP3   OH211204   1.218   3.093   3.452
 3776TIP3    H111205   1.277   3.030   3.494
 3776TIP3    H211206   1.271   3.130   3.381
 3777TIP3   OH211207   2.075   4.082   3.082
 3777TIP3    H111208   2.102   4.020   3.015
 3777TIP3    H211209   2.076   4.032   3.163
 3778TIP3   OH211210   1.948   3.573   3.394
 3778TIP3    H111211   1.989   3.493   3.361
 3778TIP3    H211212   2.022   3.626   3.426
 3779TIP3   OH211213   2.985   2.892   3.410
 3779TIP3    H111214   3.003   2.973   3.456
 3779TIP3    H211215   3.016   2.907   3.321
 3780TIP3   OH211216   2.362   3.050   3.454
 3780TIP3    H111217   2.394   2.962   3.472
 3780TIP3    H211218   2.326   3.046   3.365
 3781TIP3   OH211219   1.769   3.129   3.337
 3781TIP3    H111220   1.864   3.123   3.348
 3781TIP3    H211221   1.740   3.038   3.327
 3782TIP3   OH211222   3.041   3.104   3.582
 3782TIP3    H111223   2.954   3.144   3.576
 3782TIP3    H211224   3.079   3.140   3.662
 3783TIP3   OH211225   1.660   2.730   3.795
 3783TIP3    H111226   1.610   2.786   3.736
 3783TIP3    H211227   1.594   2.691   3.853
 3784TIP3   OH211228   2.051   3.574   2.834
 3784TIP3    H111229   2.009   3.541   2.754
 3784TIP3    H211230   1.996   3.648   2.861
 3785TIP3   OH211231   1.810   3.502   3.623
 3785TIP3    H111232   1.748   3.568   3.653
 3785TIP3    H211233   1.852   3.540   3.546
 3786TIP3   OH211234   2.527   2.880   3.222
 3786TIP3    H111235   2.504   2.832   3.301
 3786TIP3    H211236   2.600   2.936   3.248
 3787TIP3   OH211237   1.635   3.696   3.717
 3787TIP3    H111238   1.619   3.785   3.686
 3787TIP3    H211239   1.556   3.673   3.766
 3788TIP3   OH211240   1.009   3.402   2.975
 3788TIP3    H111241   0.976   3.422   2.887
 3788TIP3    H211242   1.034   3.488   3.011
 3789TIP3   OH211243   2.458   3.902   3.213
 3789TIP3    H111244   2.370   3.894   3.250
 3789TIP3    H211245   2.455   3.984   3.163
 3790TIP3   OH211246   2.793   2.769   3.586
 3790TIP3    H111247   2.704   2.791   3.560
 3790TIP3    H211248   2.848   2.803   3.516
 3791TIP3   OH211249   2.063   2.424   3.593
 3791TIP3    H111250   2.041   2.331   3.579
 3791TIP3    H211251   1.980   2.464   3.621
 3792TIP3   OH211252   2.162   3.931   2.866
 3792TIP3    H111253   2.215   3.851   2.856
 3792TIP3    H211254   2.220   4.001   2.838
 3793TIP3   OH211255   2.301   3.700   2.828
 3793TIP3    H111256   2.226   3.640   2.826
 3793TIP3    H211257   2.349   3.675   2.907
 3794TIP3   OH211258   2.693   3.777   3.554
 3794TIP3    H111259   2.670   3.709   3.491
 3794TIP3    H211260   2.679   3.860   3.507
 3795TIP3   OH211261   1.967   3.198   2.837
 3795TIP3    H111262   1.883   3.239   2.817
 3795TIP3    H211263   2.011   3.190   2.753
 3796TIP3   OH211264   1.942   3.002   2.520
 3796TIP3    H111265   2.008   3.044   2.574
 3796TIP3    H211266   1.991   2.939   2.467
 3797TIP3   OH211267   2.864   3.443   3.412
 3797TIP3    H111268   2.781   3.489   3.408
 3797TIP3    H211269   2.905   3.459   3.327
 3798TIP3   OH211270   2.345   3.263   2.794
 3798TIP3    H111271   2.290   3.300   2.863
 3798TIP3    H211272   2.430   3.248   2.837
 3799TIP3   OH211273   2.569   3.311   3.722
 3799TIP3    H111274   2.564   3.394   3.769
 3799TIP3    H211275   2.484   3.302   3.678
 3800TIP3   OH211276   1.563   3.256   3.193
 3800TIP3    H111277   1.522   3.194   3.133
 3800TIP3    H211278   1.636   3.208   3.233
 3801TIP3   OH211279   1.695   3.691   3.332
 3801TIP3    H111280   1.668   3.672   3.242
 3801TIP3    H211281   1.781   3.649   3.340
 3802TIP3   OH211282   1.675   3.270   3.564
 3802TIP3    H111283   1.708   3.232   3.482
 3802TIP3    H211284   1.726   3.350   3.575
 3803TIP3   OH211285   2.217   3.891   3.340
 3803TIP3    H111286   2.201   3.971   3.390
 3803TIP3    H211287   2.200   3.820   3.402
 3804TIP3   OH211288   1.830   3.796   3.885
 3804TIP3    H111289   1.768   3.853   3.930
 3804TIP3    H211290   1.776   3.743   3.827
 3805TIP3   OH211291   2.161   3.128   2.638
 3805TIP3    H111292   2.226   3.176   2.688
 3805TIP3    H211293   2.196   3.125   2.549
 3806TIP3   OH211294   1.582   3.339   4.055
 3806TIP3    H111295   1.581   3.435   4.059
 3806TIP3    H211296   1.493   3.314   4.031
 3807TIP3   OH211297   1.913   3.811   2.877
 3807TIP3    H111298   1.994   3.861   2.881
 3807TIP3    H211299   1.852   3.868   2.830
 3808TIP3   OH211300   1.619   3.953   3.970
 3808TIP3    H111301   1.596   3.962   3.877
 3808TIP3    H211302   1.536   3.940   4.014
 3809TIP3   OH211303   2.686   2.357   2.689
 3809TIP3    H111304   2.601   2.372   2.730
 3809TIP3    H211305   2.708   2.442   2.650
 3810TIP3   OH211306   1.420   3.094   3.007
 3810TIP3    H111307   1.349   3.148   2.971
 3810TIP3    H211308   1.376   3.015   3.039
 3811TIP3   OH211309   2.498   3.741   2.229
 3811TIP3    H111310   2.493   3.834   2.209
 3811TIP3    H211311   2.589   3.717   2.210
 3812TIP3   OH211312   1.217   3.508   3.916
 3812TIP3    H111313   1.150   3.487   3.851
 3812TIP3    H211314   1.251   3.423   3.944
 3813TIP3   OH211315   1.084   3.685   3.556
 3813TIP3    H111316   1.179   3.681   3.546
 3813TIP3    H211317   1.068   3.762   3.610
 3814TIP3   OH211318   2.926   4.186   3.620
 3814TIP3    H111319   2.931   4.091   3.621
 3814TIP3    H211320   2.844   4.206   3.667
 3815TIP3   OH211321   2.025   3.935   3.750
 3815TIP3    H111322   2.016   4.027   3.776
 3815TIP3    H211323   1.955   3.890   3.796
 3816TIP3   OH211324   1.801   4.034   2.706
 3816TIP3    H111325   1.756   4.015   2.623
 3816TIP3    H211326   1.764   4.118   2.734
 3817TIP3   OH211327   1.237   3.891   3.080
 3817TIP3    H111328   1.281   3.883   3.165
 3817TIP3    H211329   1.187   3.809   3.071
 3818TIP3   OH211330   2.009   3.965   2.341
 3818TIP3    H111331   2.061   3.891   2.307
 3818TIP3    H211332   2.042   3.977   2.430
 3819TIP3   OH211333   2.056   4.010   2.608
 3819TIP3    H111334   1.969   4.014   2.648
 3819TIP3    H211335   2.112   3.974   2.677
 3820TIP3   OH211336   2.823   3.286   3.859
 3820TIP3    H111337   2.743   3.300   3.808
 3820TIP3    H211338   2.838   3.192   3.855
 3821TIP3   OH211339   1.412   3.701   3.886
 3821TIP3    H111340   1.464   3.687   3.965
 3821TIP3    H211341   1.343   3.635   3.891
 3822TIP3   OH211342   1.799   2.504   3.687
 3822TIP3    H111343   1.737   2.468   3.623
 3822TIP3    H211344   1.758   2.585   3.716
 3823TIP3   OH211345   2.330   2.630   3.908
 3823TIP3    H111346   2.393   2.609   3.978
 3823TIP3    H211347   2.244   2.617   3.949
 3824TIP3   OH211348   2.560   3.049   3.836
 3824TIP3    H111349   2.511   3.050   3.918
 3824TIP3    H211350   2.547   3.136   3.799
 3825TIP3   OH211351   2.257   3.112   2.378
 3825TIP3    H111352   2.209   3.125   2.296
 3825TIP3    H211353   2.338   3.162   2.366
 3826TIP3   OH211354   2.009   2.484   2.674
 3826TIP3    H111355   1.973   2.517   2.756
 3826TIP3    H211356   1.943   2.423   2.641
 3827TIP3   OH211357   1.755   3.029   3.675
 3827TIP3    H111358   1.673   2.982   3.658
 3827TIP3    H211359   1.735   3.121   3.656
 3828TIP3   OH211360   1.684   2.865   3.286
 3828TIP3    H111361   1.610   2.856   3.345
 3828TIP3    H211362   1.651   2.837   3.200
 3829TIP3   OH211363   2.124   3.004   2.954
 3829TIP3    H111364   2.060   3.072   2.938
 3829TIP3    H211365   2.175   2.999   2.873
 3830TIP3   OH211366   2.278   3.013   3.194
 3830TIP3    H111367   2.224   3.014   3.115
 3830TIP3    H211368   2.346   2.948   3.176
 3831TIP3   OH211369   1.620   2.544   2.657
 3831TIP3    H111370   1.607   2.539   2.752
 3831TIP3    H211371   1.542   2.590   2.626
 3832TIP3   OH211372   1.157   2.631   3.562
 3832TIP3    H111373   1.157   2.580   3.643
 3832TIP3    H211374   1.192   2.571   3.496
 3833TIP3   OH211375   1.095   2.574   3.054
 3833TIP3    H111376   1.142   2.613   2.981
 3833TIP3    H211377   1.026   2.636   3.076
 3834TIP3   OH211378   2.312   3.250   3.629
 3834TIP3    H111379   2.332   3.180   3.567
 3834TIP3    H211380   2.267   3.207   3.702
 3835TIP3   OH211381   1.938   2.741   3.281
 3835TIP3    H111382   1.849   2.774   3.294
 3835TIP3    H211383   1.977   2.741   3.368
 3836TIP3   OH211384   1.644   2.786   3.014
 3836TIP3    H111385   1.734   2.809   2.991
 3836TIP3    H211386   1.592   2.811   2.938
 3837TIP3   OH211387   2.440   2.782   3.467
 3837TIP3    H111388   2.442   2.788   3.562
 3837TIP3    H211389   2.367   2.724   3.448
 3838TIP3   OH211390   1.519   2.821   2.771
 3838TIP3    H111391   1.451   2.779   2.719
 3838TIP3    H211392   1.577   2.862   2.707
 3839TIP3   OH211393   2.629   4.495   3.712
 3839TIP3    H111394   2.624   4.513   3.618
 3839TIP3    H211395   2.707   4.542   3.741
 3840TIP3   OH211396   1.563   3.618   4.122
 3840TIP3    H111397   1.645   3.632   4.169
 3840TIP3    H211398   1.495   3.625   4.188
 3841TIP3   OH211399   2.043   3.088   3.391
 3841TIP3    H111400   2.106   3.039   3.338
 3841TIP3    H211401   2.042   3.043   3.475
 3842TIP3   OH211402   1.656   2.472   3.265
 3842TIP3    H111403   1.588   2.428   3.315
 3842TIP3    H211404   1.613   2.498   3.183
 3843TIP3   OH211405   2.021   2.983   3.651
 3843TIP3    H111406   1.928   3.005   3.658
 3843TIP3    H211407   2.065   3.044   3.709
 3844TIP3   OH211408   1.728   3.328   2.771
 3844TIP3    H111409   1.654   3.270   2.751
 3844TIP3    H211410   1.705   3.368   2.854
 3845TIP3   OH211411   2.632   3.585   3.370
 3845TIP3    H111412   2.666   3.633   3.295
 3845TIP3    H211413   2.549   3.549   3.339
 3846TIP3   OH211414   2.156   3.677   3.786
 3846TIP3    H111415   2.212   3.677   3.864
 3846TIP3    H211416   2.113   3.762   3.787
 3847TIP3   OH211417   1.438   3.369   3.416
 3847TIP3    H111418   1.475   3.334   3.335
 3847TIP3    H211419   1.478   3.317   3.485
 3848TIP3   OH211420   1.889   3.487   2.620
 3848TIP3    H111421   1.843   3.571   2.617
 3848TIP3    H211422   1.831   3.430   2.670
 3849TIP3   OH211423   1.300   3.279   4.059
 3849TIP3    H111424   1.305   3.238   4.145
 3849TIP3    H211425   1.230   3.232   4.014
 3850TIP3   OH211426   2.298   3.950   3.677
 3850TIP3    H111427   2.203   3.941   3.677
 3850TIP3    H211428   2.319   3.991   3.761
 3851TIP3   OH211429   2.688   2.994   2.576
 3851TIP3    H111430   2.626   2.955   2.515
 3851TIP3    H211431   2.694   3.086   2.550
 3852TIP3   OH211432   2.935   3.910   3.633
 3852TIP3    H111433   2.845   3.880   3.644
 3852TIP3    H211434   2.964   3.868   3.552
 3853TIP3   OH211435   2.417   3.813   2.495
 3853TIP3    H111436   2.391   3.743   2.554
 3853TIP3    H211437   2.438   3.768   2.413
 3854TIP3   OH211438   2.395   3.459   3.284
 3854TIP3    H111439   2.307   3.434   3.312
 3854TIP3    H211440   2.433   3.379   3.248
 3855TIP3   OH211441   1.552   3.685   3.089
 3855TIP3    H111442   1.549   3.761   3.031
 3855TIP3    H211443   1.461   3.669   3.112
 3856TIP3   OH211444   1.121   2.972   2.809
 3856TIP3    H111445   1.164   3.054   2.835
 3856TIP3    H211446   1.043   2.968   2.864
 3857TIP3   OH211447   1.644   3.440   3.000
 3857TIP3    H111448   1.624   3.529   3.030
 3857TIP3    H211449   1.617   3.384   3.072
 3858TIP3   OH211450   1.838   4.009   3.542
 3858TIP3    H111451   1.874   4.082   3.491
 3858TIP3    H211452   1.914   3.974   3.590
 3859TIP3   OH211453   1.472   3.908   2.937
 3859TIP3    H111454   1.385   3.915   2.976
 3859TIP3    H211455   1.507   3.997   2.942
 3860TIP3   OH211456   2.184   3.670   3.510
 3860TIP3    H111457   2.175   3.666   3.605
 3860TIP3    H211458   2.249   3.603   3.489
 3861TIP3   OH211459   2.190   3.542   2.387
 3861TIP3    H111460   2.240   3.511   2.462
 3861TIP3    H211461   2.105   3.497   2.395
 3862TIP3   OH211462   2.447   4.166   3.552
 3862TIP3    H111463   2.375   4.106   3.569
 3862TIP3    H211464   2.417   4.220   3.480
 3863TIP3   OH211465   2.494   4.014   2.189
 3863TIP3    H111466   2.515   4.079   2.121
 3863TIP3    H211467   2.421   4.053   2.237
 3864TIP3   OH211468   2.361   3.444   2.577
 3864TIP3    H111469   2.348   3.390   2.654
 3864TIP3    H211470   2.456   3.458   2.573
 3865TIP3   OH211471   1.260   3.901   3.708
 3865TIP3    H111472   1.311   3.837   3.758
 3865TIP3    H211473   1.280   3.985   3.749
 3866TIP3   OH211474   1.536   3.517   2.410
 3866TIP3    H111475   1.538   3.425   2.382
 3866TIP3    H211476   1.518   3.513   2.504
 3867TIP3   OH211477   1.472   3.534   2.677
 3867TIP3    H111478   1.538   3.506   2.741
 3867TIP3    H211479   1.474   3.629   2.682
 3868TIP3   OH211480   1.209   3.229   2.886
 3868TIP3    H111481   1.143   3.275   2.938
 3868TIP3    H211482   1.228   3.287   2.813
 3869TIP3   OH211483   2.443   2.814   3.733
 3869TIP3    H111484   2.480   2.887   3.783
 3869TIP3    H211485   2.400   2.759   3.799
 3870TIP3   OH211486   1.750   3.720   2.613
 3870TIP3    H111487   1.664   3.743   2.648
 3870TIP3    H211488   1.775   3.795   2.560
 3871TIP3   OH211489   1.935   2.803   3.009
 3871TIP3    H111490   1.999   2.871   2.990
 3871TIP3    H211491   1.938   2.793   3.104
 3872TIP3   OH211492   2.201   3.106   3.837
 3872TIP3    H111493   2.169   3.133   3.923
 3872TIP3    H211494   2.258   3.032   3.855
 3873TIP3   OH211495   2.048   2.524   3.143
 3873TIP3    H111496   2.006   2.594   3.194
 3873TIP3    H211497   2.132   2.560   3.118
 3874TIP3   OH211498   1.499   3.806   2.685
 3874TIP3    H111499   1.478   3.878   2.625
 3874TIP3    H211500   1.488   3.844   2.772
 3875TIP3   OH211501   1.608   2.520   2.935
 3875TIP3    H111502   1.599   2.609   2.968
 3875TIP3    H211503   1.703   2.507   2.928
 3876TIP3   OH211504   2.829   3.008   3.810
 3876TIP3    H111505   2.735   3.010   3.830
 3876TIP3    H211506   2.835   2.962   3.727
 3877TIP3   OH211507   2.489   3.209   3.202
 3877TIP3    H111508   2.413   3.152   3.206
 3877TIP3    H211509   2.557   3.163   3.252
 3878TIP3   OH211510   1.223   3.408   2.670
 3878TIP3    H111511   1.296   3.470   2.677
 3878TIP3    H211512   1.254   3.341   2.608
 3879TIP3   OH211513   1.188   2.702   2.836
 3879TIP3    H111514   1.175   2.796   2.822
 3879TIP3    H211515   1.183   2.664   2.748
 3880TIP3   OH211516   2.471   4.167   3.115
 3880TIP3    H111517   2.433   4.219   3.044
 3880TIP3    H211518   2.566   4.177   3.104
 3881TIP3   OH211519   1.061   3.671   3.057
 3881TIP3    H111520   1.018   3.707   3.134
 3881TIP3    H211521   1.017   3.713   2.983
 3882TIP3   OH211522   1.269   4.211   4.127
 3882TIP3    H111523   1.350   4.218   4.177
 3882TIP3    H211524   1.260   4.117   4.110
 3883TIP3   OH211525   1.728   4.116   4.164
 3883TIP3    H111526   1.819   4.088   4.174
 3883TIP3    H211527   1.694   4.062   4.092
 3884TIP3   OH211528   1.699   3.708   2.299
 3884TIP3    H111529   1.649   3.641   2.346
 3884TIP3    H211530   1.773   3.660   2.262
 3885TIP3   OH211531   2.349   4.053   3.927
 3885TIP3    H111532   2.363   3.983   3.991
 3885TIP3    H211533   2.422   4.113   3.939
 3886TIP3   OH211534   2.140   3.756   2.223
 3886TIP3    H111535   2.177   3.692   2.283
 3886TIP3    H211536   2.202   3.759   2.150
 3887TIP3   OH211537   1.358   3.620   4.314
 3887TIP3    H111538   1.381   3.528   4.326
 3887TIP3    H211539   1.272   3.617   4.270
 3888TIP3   OH211540   1.345   3.208   2.530
 3888TIP3    H111541   1.395   3.181   2.607
 3888TIP3    H211542   1.412   3.223   2.463
 3889TIP3   OH211543   1.987   3.703   4.089
 3889TIP3    H111544   1.938   3.723   4.010
 3889TIP3    H211545   2.049   3.635   4.063
 3890TIP3   OH211546   1.936   3.423   2.359
 3890TIP3    H111547   1.912   3.436   2.450
 3890TIP3    H211548   1.908   3.333   2.339
 3891TIP3   OH211549   2.473   3.731   3.722
 3891TIP3    H111550   2.545   3.756   3.663
 3891TIP3    H211551   2.404   3.794   3.703
 3892TIP3   OH211552   1.465   3.368   4.322
 3892TIP3    H111553   1.527   3.339   4.255
 3892TIP3    H211554   1.516   3.373   4.402
 3893TIP3   OH211555   1.522   3.144   2.739
 3893TIP3    H111556   1.497   3.111   2.826
 3893TIP3    H211557   1.574   3.074   2.701
 3894TIP3   OH211558   1.794   3.173   3.966
 3894TIP3    H111559   1.718   3.224   3.996
 3894TIP3    H211560   1.831   3.225   3.895
 3895TIP3   OH211561   1.677   2.962   2.598
 3895TIP3    H111562   1.642   2.964   2.509
 3895TIP3    H211563   1.772   2.972   2.586
 3896TIP3   OH211564   2.322   3.602   4.065
 3896TIP3    H111565   2.390   3.565   4.008
 3896TIP3    H211566   2.324   3.547   4.143
 3897TIP3   OH211567   2.469   3.249   2.259
 3897TIP3    H111568   2.458   3.211   2.172
 3897TIP3    H211569   2.445   3.341   2.249
 3898TIP3   OH211570   1.898   2.871   3.896
 3898TIP3    H111571   1.948   2.875   3.815
 3898TIP3    H211572   1.815   2.829   3.873
 3899TIP3   OH211573   1.938   3.308   3.773
 3899TIP3    H111574   2.030   3.336   3.771
 3899TIP3    H211575   1.891   3.375   3.724
 3900TIP3   OH211576   2.594   3.272   4.170
 3900TIP3    H111577   2.613   3.179   4.181
 3900TIP3    H211578   2.629   3.294   4.084
 3901TIP3   OH211579   2.609   3.550   3.873
 3901TIP3    H111580   2.552   3.614   3.831
 3901TIP3    H211581   2.692   3.558   3.827
 3902TIP3   OH211582   2.062   2.578   3.982
 3902TIP3    H111583   2.009   2.656   3.961
 3902TIP3    H211584   2.003   2.504   3.966
 3903TIP3   OH211585   2.414   3.024   4.064
 3903TIP3    H111586   2.330   3.043   4.106
 3903TIP3    H211587   2.469   2.988   4.134
 3904TIP3   OH211588   2.693   2.977   4.202
 3904TIP3    H111589   2.702   2.882   4.200
 3904TIP3    H211590   2.686   2.999   4.295
 3905TIP3   OH211591   2.145   2.543   4.244
 3905TIP3    H111592   2.211   2.474   4.231
 3905TIP3    H211593   2.108   2.556   4.157
 3906TIP3   OH211594   2.235   2.762   4.384
 3906TIP3    H111595   2.208   2.686   4.332
 3906TIP3    H211596   2.157   2.819   4.385
 3907TIP3   OH211597   1.498   4.019   2.506
 3907TIP3    H111598   1.586   3.997   2.476
 3907TIP3    H211599   1.459   4.065   2.432
 3908TIP3   OH211600   0.949   3.397   2.684
 3908TIP3    H111601   1.044   3.411   2.684
 3908TIP3    H211602   0.938   3.309   2.648
 3909TIP3   OH211603   0.865   3.979   3.134
 3909TIP3    H111604   0.795   3.927   3.093
 3909TIP3    H211605   0.907   3.918   3.195
 3910TIP3   OH211606   1.004   3.811   3.306
 3910TIP3    H111607   0.996   3.740   3.371
 3910TIP3    H211608   1.054   3.879   3.351
 3911TIP3   OH211609   2.743   4.213   3.113
 3911TIP3    H111610   2.760   4.246   3.201
 3911TIP3    H211611   2.798   4.266   3.056
 3912TIP3   OH211612   2.752   4.252   3.395
 3912TIP3    H111613   2.712   4.165   3.394
 3912TIP3    H211614   2.827   4.244   3.453
 3913TIP3   OH211615   2.836   3.924   3.985
 3913TIP3    H111616   2.757   3.937   4.038
 3913TIP3    H211617   2.877   4.010   3.981
 3914TIP3   OH211618   2.641   3.460   2.578
 3914TIP3    H111619   2.694   3.533   2.547
 3914TIP3    H211620   2.689   3.426   2.654
 3915TIP3   OH211621   2.776   3.324   2.781
 3915TIP3    H111622   2.709   3.295   2.843
 3915TIP3    H211623   2.844   3.365   2.835
 3916TIP3   OH211624   2.815   3.721   3.206
 3916TIP3    H111625   2.870   3.656   3.162
 3916TIP3    H211626   2.816   3.797   3.148
 3917TIP3   OH211627   2.624   4.002   3.414
 3917TIP3    H111628   2.556   4.050   3.462
 3917TIP3    H211629   2.578   3.965   3.339
 3918TIP3   OH211630   2.679   3.230   2.433
 3918TIP3    H111631   2.607   3.231   2.370
 3918TIP3    H211632   2.666   3.310   2.485
 3919TIP3   OH211633   2.526   2.871   2.402
 3919TIP3    H111634   2.504   2.927   2.328
 3919TIP3    H211635   2.471   2.793   2.391
 3920TIP3   OH211636   2.580   3.202   2.942
 3920TIP3    H111637   2.613   3.112   2.951
 3920TIP3    H211638   2.549   3.225   3.030
 3921TIP3   OH211639   1.183   3.250   3.677
 3921TIP3    H111640   1.178   3.195   3.599
 3921TIP3    H211641   1.276   3.255   3.697
 3922TIP3   OH211642   2.837   3.601   3.714
 3922TIP3    H111643   2.915   3.572   3.668
 3922TIP3    H211644   2.793   3.660   3.652
 3923TIP3   OH211645   3.064   3.409   3.904
 3923TIP3    H111646   2.979   3.374   3.879
 3923TIP3    H211647   3.127   3.345   3.870
 3924TIP3   OH211648   2.467   2.613   2.494
 3924TIP3    H111649   2.493   2.559   2.419
 3924TIP3    H211650   2.375   2.592   2.507
 3925TIP3   OH211651   2.708   3.072   3.317
 3925TIP3    H111652   2.790   3.090   3.270
 3925TIP3    H211653   2.723   3.106   3.405
 3926TIP3   OH211654   2.782   3.217   3.548
 3926TIP3    H111655   2.706   3.245   3.599
 3926TIP3    H211656   2.810   3.295   3.501
 3927TIP3   OH211657   1.430   2.941   4.378
 3927TIP3    H111658   1.523   2.917   4.376
 3927TIP3    H211659   1.384   2.858   4.392
 3928TIP3   OH211660   3.244   2.810   4.088
 3928TIP3    H111661   3.313   2.759   4.046
 3928TIP3    H211662   3.208   2.864   4.018
 3929TIP3   OH211663   2.612   2.654   2.791
 3929TIP3    H111664   2.668   2.669   2.867
 3929TIP3    H211665   2.553   2.584   2.818
 3930TIP3   OH211666   1.163   2.871   3.694
 3930TIP3    H111667   1.158   2.792   3.641
 3930TIP3    H211668   1.254   2.900   3.686
 3931TIP3   OH211669   3.080   2.935   3.902
 3931TIP3    H111670   2.994   2.977   3.902
 3931TIP3    H211671   3.068   2.857   3.847
 3932TIP3   OH211672   2.756   2.592   2.532
 3932TIP3    H111673   2.781   2.517   2.479
 3932TIP3    H211674   2.824   2.657   2.518
 3933TIP3   OH211675   1.135   2.390   3.250
 3933TIP3    H111676   1.050   2.395   3.294
 3933TIP3    H211677   1.133   2.462   3.186
 3934TIP3   OH211678   2.304   4.131   2.760
 3934TIP3    H111679   2.360   4.121   2.684
 3934TIP3    H211680   2.343   4.203   2.810
 3935TIP3   OH211681   1.369   2.466   4.018
 3935TIP3    H111682   1.329   2.529   4.078
 3935TIP3    H211683   1.307   2.459   3.946
 3936TIP3   OH211684   1.391   3.935   4.131
 3936TIP3    H111685   1.299   3.907   4.126
 3936TIP3    H211686   1.416   3.917   4.222
 3937TIP3   OH211687   1.609   3.973   3.688
 3937TIP3    H111688   1.559   4.048   3.656
 3937TIP3    H211689   1.694   3.980   3.645
 3938TIP3   OH211690   2.007   4.203   3.824
 3938TIP3    H111691   2.044   4.197   3.912
 3938TIP3    H211692   2.069   4.258   3.776
 3939TIP3   OH211693   2.198   4.360   3.700
 3939TIP3    H111694   2.261   4.309   3.648
 3939TIP3    H211695   2.253   4.416   3.755
 3940TIP3   OH211696   2.998   2.706   3.777
 3940TIP3    H111697   2.918   2.713   3.724
 3940TIP3    H211698   3.025   2.614   3.767
 3941TIP3   OH211699   1.272   4.215   3.737
 3941TIP3    H111700   1.181   4.235   3.715
 3941TIP3    H211701   1.295   4.280   3.803
 3942TIP3   OH211702   1.502   4.205   3.586
 3942TIP3    H111703   1.418   4.209   3.632
 3942TIP3    H211704   1.480   4.226   3.495
 3943TIP3   OH211705   1.916   4.219   3.378
 3943TIP3    H111706   1.845   4.229   3.314
 3943TIP3    H211707   1.926   4.306   3.417
 3944TIP3   OH211708   2.177   4.150   3.432
 3944TIP3    H111709   2.087   4.171   3.410
 3944TIP3    H211710   2.229   4.213   3.383
 3945TIP3   OH211711   2.376   4.316   3.325
 3945TIP3    H111712   2.381   4.405   3.291
 3945TIP3    H211713   2.406   4.261   3.254
 3946TIP3   OH211714   1.177   3.987   3.458
 3946TIP3    H111715   1.205   3.962   3.546
 3946TIP3    H211716   1.248   3.956   3.401
 3947TIP3   OH211717   1.382   3.881   3.315
 3947TIP3    H111718   1.394   3.796   3.358
 3947TIP3    H211719   1.469   3.921   3.317
 3948TIP3   OH211720   1.651   3.965   3.337
 3948TIP3    H111721   1.669   3.872   3.322
 3948TIP3    H211722   1.706   3.987   3.413
 3949TIP3   OH211723   2.229   2.605   3.423
 3949TIP3    H111724   2.176   2.543   3.472
 3949TIP3    H211725   2.286   2.550   3.369
 3950TIP3   OH211726   2.721   2.529   3.275
 3950TIP3    H111727   2.742   2.585   3.200
 3950TIP3    H211728   2.627   2.541   3.289
 3951TIP3   OH211729   2.800   2.621   3.011
 3951TIP3    H111730   2.867   2.553   3.003
 3951TIP3    H211731   2.849   2.702   3.017
 3952TIP3   OH211732   1.467   2.319   3.390
 3952TIP3    H111733   1.377   2.295   3.410
 3952TIP3    H211734   1.517   2.239   3.407
 3953TIP3   OH211735   1.264   2.209   3.087
 3953TIP3    H111736   1.308   2.261   3.020
 3953TIP3    H211737   1.235   2.273   3.152
 3954TIP3   OH211738   1.899   2.354   3.308
 3954TIP3    H111739   1.959   2.410   3.259
 3954TIP3    H211740   1.814   2.397   3.301
 3955TIP3   OH211741   2.439   2.476   3.276
 3955TIP3    H111742   2.452   2.424   3.197
 3955TIP3    H211743   2.440   2.412   3.347
 3956TIP3   OH211744   2.461   2.429   2.836
 3956TIP3    H111745   2.373   2.419   2.798
 3956TIP3    H211746   2.466   2.360   2.902
 3957TIP3   OH211747   0.943   3.788   2.838
 3957TIP3    H111748   0.859   3.757   2.804
 3957TIP3    H211749   0.952   3.877   2.805
 3958TIP3   OH211750   1.390   2.352   2.879
 3958TIP3    H111751   1.428   2.299   2.809
 3958TIP3    H211752   1.461   2.410   2.906
 3959TIP3   OH211753   1.886   2.550   2.915
 3959TIP3    H111754   1.925   2.507   2.991
 3959TIP3    H211755   1.897   2.643   2.931
 3960TIP3   OH211756   1.751   3.940   2.435
 3960TIP3    H111757   1.836   3.967   2.399
 3960TIP3    H211758   1.725   3.865   2.382
 3961TIP3   OH211759   2.451   4.082   2.530
 3961TIP3    H111760   2.446   3.986   2.524
 3961TIP3    H211761   2.405   4.113   2.452
 3962TIP3   OH211762   1.668   2.548   4.299
 3962TIP3    H111763   1.638   2.490   4.368
 3962TIP3    H211764   1.749   2.587   4.333
 3963TIP3   OH211765   1.909   2.597   4.433
 3963TIP3    H111766   1.990   2.578   4.386
 3963TIP3    H211767   1.902   2.528   4.499
 3964TIP3   OH211768   1.053   3.779   2.489
 3964TIP3    H111769   1.051   3.793   2.584
 3964TIP3    H211770   1.137   3.736   2.474
 3965TIP3   OH211771   2.751   2.696   4.209
 3965TIP3    H111772   2.764   2.669   4.300
 3965TIP3    H211773   2.837   2.686   4.169
 3966TIP3   OH211774   2.668   4.223   3.718
 3966TIP3    H111775   2.595   4.192   3.665
 3966TIP3    H211776   2.654   4.317   3.725
 3967TIP3   OH211777   3.947   3.610   2.456
 3967TIP3    H111778   3.916   3.697   2.431
 3967TIP3    H211779   3.875   3.551   2.432
 3968TIP3   OH211780   3.947   3.599   2.882
 3968TIP3    H111781   3.999   3.582   2.961
 3968TIP3    H211782   3.901   3.517   2.866
 3969TIP3   OH211783   3.234   3.445   3.299
 3969TIP3    H111784   3.293   3.386   3.347
 3969TIP3    H211785   3.263   3.533   3.324
 3970TIP3   OH211786   4.212   3.906   2.556
 3970TIP3    H111787   4.200   3.841   2.625
 3970TIP3    H211788   4.233   3.987   2.602
 3971TIP3   OH211789   3.233   3.877   2.915
 3971TIP3    H111790   3.218   3.783   2.926
 3971TIP3    H211791   3.328   3.885   2.904
 3972TIP3   OH211792   2.915   3.087   2.715
 3972TIP3    H111793   2.885   3.176   2.732
 3972TIP3    H211794   2.838   3.042   2.681
 3973TIP3   OH211795   3.004   3.410   2.919
 3973TIP3    H111796   3.052   3.331   2.942
 3973TIP3    H211797   3.072   3.475   2.899
 3974TIP3   OH211798   3.872   4.333   2.566
 3974TIP3    H111799   3.902   4.272   2.499
 3974TIP3    H211800   3.871   4.282   2.647
 3975TIP3   OH211801   3.750   3.816   2.892
 3975TIP3    H111802   3.797   3.737   2.864
 3975TIP3    H211803   3.819   3.876   2.921
 3976TIP3   OH211804   4.786   3.141   2.905
 3976TIP3    H111805   4.802   3.224   2.949
 3976TIP3    H211806   4.805   3.158   2.813
 3977TIP3   OH211807   4.156   3.307   2.921
 3977TIP3    H111808   4.188   3.221   2.948
 3977TIP3    H211809   4.122   3.293   2.833
 3978TIP3   OH211810   3.511   2.969   2.888
 3978TIP3    H111811   3.492   3.044   2.831
 3978TIP3    H211812   3.455   2.899   2.854
 3979TIP3   OH211813   4.211   3.069   2.516
 3979TIP3    H111814   4.275   3.063   2.587
 3979TIP3    H211815   4.260   3.105   2.442
 3980TIP3   OH211816   3.136   3.185   3.011
 3980TIP3    H111817   3.221   3.173   3.054
 3980TIP3    H211818   3.143   3.134   2.930
 3981TIP3   OH211819   3.566   3.388   2.809
 3981TIP3    H111820   3.659   3.370   2.822
 3981TIP3    H211821   3.529   3.304   2.782
 3982TIP3   OH211822   4.839   3.360   3.069
 3982TIP3    H111823   4.753   3.402   3.062
 3982TIP3    H211824   4.877   3.398   3.148
 3983TIP3   OH211825   3.497   2.970   3.335
 3983TIP3    H111826   3.446   3.011   3.265
 3983TIP3    H211827   3.448   2.989   3.415
 3984TIP3   OH211828   3.844   3.828   2.319
 3984TIP3    H111829   3.804   3.799   2.238
 3984TIP3    H211830   3.792   3.904   2.346
 3985TIP3   OH211831   3.595   3.738   3.112
 3985TIP3    H111832   3.538   3.809   3.143
 3985TIP3    H211833   3.642   3.777   3.038
 3986TIP3   OH211834   4.374   3.090   2.735
 3986TIP3    H111835   4.328   3.068   2.815
 3986TIP3    H211836   4.427   3.166   2.757
 3987TIP3   OH211837   3.380   3.086   3.109
 3987TIP3    H111838   3.433   3.161   3.136
 3987TIP3    H211839   3.431   3.045   3.039
 3988TIP3   OH211840   3.431   3.946   3.206
 3988TIP3    H111841   3.418   4.035   3.174
 3988TIP3    H211842   3.350   3.926   3.253
 3989TIP3   OH211843   2.806   3.654   2.462
 3989TIP3    H111844   2.773   3.671   2.374
 3989TIP3    H211845   2.827   3.741   2.497
 3990TIP3   OH211846   4.248   4.153   2.696
 3990TIP3    H111847   4.161   4.145   2.734
 3990TIP3    H211848   4.247   4.236   2.649
 3991TIP3   OH211849   4.590   3.021   3.072
 3991TIP3    H111850   4.504   3.046   3.039
 3991TIP3    H211851   4.651   3.052   3.005
 3992TIP3   OH211852   3.838   2.665   3.062
 3992TIP3    H111853   3.828   2.573   3.089
 3992TIP3    H211854   3.762   2.709   3.101
 3993TIP3   OH211855   3.961   4.186   2.346
 3993TIP3    H111856   4.014   4.107   2.335
 3993TIP3    H211857   4.020   4.258   2.321
 3994TIP3   OH211858   4.096   3.952   2.308
 3994TIP3    H111859   4.020   3.894   2.310
 3994TIP3    H211860   4.145   3.929   2.387
 3995TIP3   OH211861   4.486   4.041   3.044
 3995TIP3    H111862   4.467   3.968   2.986
 3995TIP3    H211863   4.469   4.119   2.990
 3996TIP3   OH211864   3.772   3.447   2.310
 3996TIP3    H111865   3.689   3.491   2.293
 3996TIP3    H211866   3.819   3.449   2.227
 3997TIP3   OH211867   3.745   3.256   2.005
 3997TIP3    H111868   3.811   3.307   2.052
 3997TIP3    H211869   3.796   3.188   1.959
 3998TIP3   OH211870   4.664   3.706   2.913
 3998TIP3    H111871   4.580   3.750   2.910
 3998TIP3    H211872   4.702   3.720   2.827
 3999TIP3   OH211873   4.133   3.535   2.271
 3999TIP3    H111874   4.078   3.566   2.343
 3999TIP3    H211875   4.217   3.513   2.312
 4000TIP3   OH211876   4.361   3.566   3.219
 4000TIP3    H111877   4.355   3.648   3.266
 4000TIP3    H211878   4.280   3.561   3.168
 4001TIP3   OH211879   3.354   3.517   2.679
 4001TIP3    H111880   3.320   3.456   2.613
 4001TIP3    H211881   3.432   3.472   2.714
 4002TIP3   OH211882   3.495   3.925   2.823
 4002TIP3    H111883   3.477   3.917   2.729
 4002TIP3    H211884   3.583   3.888   2.832
 4003TIP3   OH211885   3.466   3.506   3.040
 4003TIP3    H111886   3.509   3.476   2.960
 4003TIP3    H211887   3.513   3.585   3.065
 4004TIP3   OH211888   4.010   4.148   2.825
 4004TIP3    H111889   3.997   4.229   2.875
 4004TIP3    H211890   3.993   4.078   2.889
 4005TIP3   OH211891   3.631   4.045   3.372
 4005TIP3    H111892   3.570   4.103   3.417
 4005TIP3    H211893   3.575   3.993   3.314
 4006TIP3   OH211894   3.964   3.398   2.103
 4006TIP3    H111895   4.023   3.456   2.151
 4006TIP3    H211896   3.995   3.402   2.012
 4007TIP3   OH211897   3.278   3.673   3.445
 4007TIP3    H111898   3.330   3.743   3.486
 4007TIP3    H211899   3.236   3.629   3.518
 4008TIP3   OH211900   3.711   4.069   2.357
 4008TIP3    H111901   3.793   4.118   2.362
 4008TIP3    H211902   3.650   4.128   2.314
 4009TIP3   OH211903   3.424   4.206   3.458
 4009TIP3    H111904   3.398   4.216   3.367
 4009TIP3    H211905   3.343   4.187   3.505
 4010TIP3   OH211906   4.471   2.622   2.163
 4010TIP3    H111907   4.395   2.644   2.216
 4010TIP3    H211908   4.483   2.699   2.106
 4011TIP3   OH211909   3.230   3.359   2.474
 4011TIP3    H111910   3.154   3.408   2.445
 4011TIP3    H211911   3.198   3.270   2.488
 4012TIP3   OH211912   4.296   3.998   1.715
 4012TIP3    H111913   4.289   4.092   1.696
 4012TIP3    H211914   4.385   3.975   1.689
 4013TIP3   OH211915   3.002   3.776   3.406
 4013TIP3    H111916   2.934   3.758   3.341
 4013TIP3    H211917   3.061   3.701   3.400
 4014TIP3   OH211918   2.858   3.960   3.063
 4014TIP3    H111919   2.949   3.985   3.076
 4014TIP3    H211920   2.807   4.037   3.088
 4015TIP3   OH211921   4.714   4.412   3.108
 4015TIP3    H111922   4.720   4.318   3.119
 4015TIP3    H211923   4.634   4.437   3.155
 4016TIP3   OH211924   3.819   4.192   3.236
 4016TIP3    H111925   3.810   4.283   3.263
 4016TIP3    H211926   3.751   4.145   3.283
 4017TIP3   OH211927   3.598   4.292   2.189
 4017TIP3    H111928   3.551   4.274   2.108
 4017TIP3    H211929   3.566   4.378   2.218
 4018TIP3   OH211930   3.037   4.138   2.562
 4018TIP3    H111931   3.079   4.130   2.648
 4018TIP3    H211932   2.986   4.057   2.553
 4019TIP3   OH211933   3.801   4.222   1.817
 4019TIP3    H111934   3.852   4.149   1.782
 4019TIP3    H211935   3.836   4.237   1.905
 4020TIP3   OH211936   3.852   4.269   2.086
 4020TIP3    H111937   3.765   4.271   2.127
 4020TIP3    H211938   3.910   4.236   2.155
 4021TIP3   OH211939   4.601   3.524   3.383
 4021TIP3    H111940   4.520   3.534   3.334
 4021TIP3    H211941   4.621   3.430   3.378
 4022TIP3   OH211942   3.200   3.973   3.368
 4022TIP3    H111943   3.250   3.969   3.450
 4022TIP3    H211944   3.133   3.905   3.377
 4023TIP3   OH211945   3.600   2.753   3.186
 4023TIP3    H111946   3.514   2.733   3.150
 4023TIP3    H211947   3.587   2.836   3.233
 4024TIP3   OH211948   4.141   2.874   3.396
 4024TIP3    H111949   4.210   2.850   3.457
 4024TIP3    H211950   4.060   2.856   3.443
 4025TIP3   OH211951   4.360   3.298   3.307
 4025TIP3    H111952   4.315   3.294   3.391
 4025TIP3    H211953   4.344   3.387   3.276
 4026TIP3   OH211954   4.046   3.367   1.841
 4026TIP3    H111955   3.997   3.376   1.759
 4026TIP3    H211956   4.126   3.416   1.827
 4027TIP3   OH211957   3.750   2.801   2.159
 4027TIP3    H111958   3.717   2.808   2.249
 4027TIP3    H211959   3.715   2.718   2.127
 4028TIP3   OH211960   3.526   3.296   3.212
 4028TIP3    H111961   3.501   3.314   3.303
 4028TIP3    H211962   3.499   3.375   3.164
 4029TIP3   OH211963   3.419   3.168   2.724
 4029TIP3    H111964   3.329   3.147   2.748
 4029TIP3    H211965   3.428   3.136   2.634
 4030TIP3   OH211966   3.897   3.243   2.446
 4030TIP3    H111967   3.849   3.316   2.407
 4030TIP3    H211968   3.955   3.212   2.377
 4031TIP3   OH211969   4.086   3.519   3.519
 4031TIP3    H111970   4.054   3.451   3.578
 4031TIP3    H211971   4.179   3.528   3.540
 4032TIP3   OH211972   4.068   3.258   2.667
 4032TIP3    H111973   3.997   3.280   2.607
 4032TIP3    H211974   4.113   3.184   2.626
 4033TIP3   OH211975   3.417   3.310   3.473
 4033TIP3    H111976   3.475   3.342   3.542
 4033TIP3    H211977   3.395   3.221   3.500
 4034TIP3   OH211978   3.415   2.779   2.143
 4034TIP3    H111979   3.406   2.790   2.238
 4034TIP3    H211980   3.342   2.830   2.106
 4035TIP3   OH211981   2.976   2.824   2.987
 4035TIP3    H111982   3.030   2.864   3.055
 4035TIP3    H211983   3.032   2.818   2.910
 4036TIP3   OH211984   2.895   2.823   2.525
 4036TIP3    H111985   2.941   2.858   2.449
 4036TIP3    H211986   2.832   2.891   2.548
 4037TIP3   OH211987   4.113   3.510   3.095
 4037TIP3    H111988   4.135   3.442   3.032
 4037TIP3    H211989   4.066   3.464   3.165
 4038TIP3   OH211990   3.778   2.955   2.771
 4038TIP3    H111991   3.701   2.957   2.828
 4038TIP3    H211992   3.852   2.948   2.831
 4039TIP3   OH211993   3.179   3.044   2.781
 4039TIP3    H111994   3.090   3.046   2.745
 4039TIP3    H211995   3.211   2.956   2.759
 4040TIP3   OH211996   3.434   3.050   2.478
 4040TIP3    H111997   3.528   3.062   2.468
 4040TIP3    H211998   3.398   3.070   2.392
 4041TIP3   OH211999   4.227   3.042   2.965
 4041TIP3    H112000   4.218   3.054   3.059
 4041TIP3    H212001   4.155   2.984   2.941
 4042TIP3   OH212002   3.325   3.077   2.231
 4042TIP3    H112003   3.261   3.030   2.176
 4042TIP3    H212004   3.380   3.124   2.169
 4043TIP3   OH212005   4.428   4.752   3.199
 4043TIP3    H112006   4.423   4.770   3.105
 4043TIP3    H212007   4.505   4.800   3.228
 4044TIP3   OH212008   3.363   3.882   3.609
 4044TIP3    H112009   3.446   3.889   3.655
 4044TIP3    H212010   3.297   3.902   3.676
 4045TIP3   OH212011   3.831   3.330   2.883
 4045TIP3    H112012   3.902   3.280   2.843
 4045TIP3    H212013   3.823   3.295   2.972
 4046TIP3   OH212014   3.321   2.799   2.757
 4046TIP3    H112015   3.294   2.721   2.804
 4046TIP3    H212016   3.345   2.768   2.670
 4047TIP3   OH212017   3.797   3.243   3.150
 4047TIP3    H112018   3.710   3.273   3.177
 4047TIP3    H212019   3.858   3.293   3.204
 4048TIP3   OH212020   3.536   3.583   2.257
 4048TIP3    H112021   3.460   3.530   2.232
 4048TIP3    H212022   3.509   3.625   2.339
 4049TIP3   OH212023   4.428   3.841   2.863
 4049TIP3    H112024   4.464   3.891   2.790
 4049TIP3    H212025   4.348   3.800   2.828
 4050TIP3   OH212026   4.003   2.903   2.161
 4050TIP3    H112027   3.910   2.883   2.157
 4050TIP3    H212028   4.007   2.998   2.174
 4051TIP3   OH212029   3.941   3.923   3.271
 4051TIP3    H112030   3.990   3.918   3.353
 4051TIP3    H212031   3.899   4.010   3.274
 4052TIP3   OH212032   4.061   3.167   2.230
 4052TIP3    H112033   4.156   3.173   2.242
 4052TIP3    H212034   4.038   3.246   2.180
 4053TIP3   OH212035   3.227   3.583   2.916
 4053TIP3    H112036   3.265   3.572   2.828
 4053TIP3    H212037   3.296   3.556   2.976
 4054TIP3   OH212038   3.687   3.746   2.100
 4054TIP3    H112039   3.639   3.829   2.097
 4054TIP3    H212040   3.632   3.688   2.153
 4055TIP3   OH212041   3.074   3.514   3.580
 4055TIP3    H112042   3.137   3.443   3.593
 4055TIP3    H212043   3.013   3.480   3.514
 4056TIP3   OH212044   3.855   3.672   3.558
 4056TIP3    H112045   3.790   3.633   3.499
 4056TIP3    H212046   3.938   3.631   3.533
 4057TIP3   OH212047   4.092   4.209   3.163
 4057TIP3    H112048   3.997   4.199   3.165
 4057TIP3    H212049   4.114   4.248   3.248
 4058TIP3   OH212050   4.475   3.252   2.046
 4058TIP3    H112051   4.420   3.206   1.983
 4058TIP3    H212052   4.479   3.342   2.013
 4059TIP3   OH212053   4.732   4.134   3.130
 4059TIP3    H112054   4.638   4.114   3.127
 4059TIP3    H212055   4.766   4.102   3.046
 4060TIP3   OH212056   4.216   4.074   1.982
 4060TIP3    H112057   4.186   4.008   2.045
 4060TIP3    H212058   4.232   4.025   1.902
 4061TIP3   OH212059   4.198   3.706   2.759
 4061TIP3    H112060   4.108   3.684   2.785
 4061TIP3    H212061   4.233   3.625   2.721
 4062TIP3   OH212062   3.355   3.941   2.576
 4062TIP3    H112063   3.353   4.016   2.517
 4062TIP3    H212064   3.268   3.940   2.616
 4063TIP3   OH212065   2.906   3.234   2.271
 4063TIP3    H112066   2.949   3.316   2.294
 4063TIP3    H212067   2.829   3.230   2.327
 4064TIP3   OH212068   3.435   3.696   2.480
 4064TIP3    H112069   3.419   3.786   2.509
 4064TIP3    H212070   3.408   3.642   2.554
 4065TIP3   OH212071   3.634   4.262   3.026
 4065TIP3    H112072   3.667   4.338   2.977
 4065TIP3    H212073   3.710   4.231   3.075
 4066TIP3   OH212074   3.274   4.162   2.423
 4066TIP3    H112075   3.187   4.167   2.461
 4066TIP3    H212076   3.306   4.252   2.426
 4067TIP3   OH212077   3.984   3.928   2.998
 4067TIP3    H112078   3.972   3.923   3.092
 4067TIP3    H212079   4.061   3.873   2.981
 4068TIP3   OH212080   3.981   3.804   1.865
 4068TIP3    H112081   4.031   3.773   1.940
 4068TIP3    H212082   3.896   3.762   1.873
 4069TIP3   OH212083   4.244   4.425   3.040
 4069TIP3    H112084   4.171   4.365   3.057
 4069TIP3    H212085   4.213   4.480   2.969
 4070TIP3   OH212086   4.289   4.271   1.671
 4070TIP3    H112087   4.299   4.330   1.596
 4070TIP3    H212088   4.217   4.309   1.721
 4071TIP3   OH212089   3.333   3.048   3.547
 4071TIP3    H112090   3.238   3.057   3.557
 4071TIP3    H212091   3.362   3.014   3.632
 4072TIP3   OH212092   4.156   3.706   2.052
 4072TIP3    H112093   4.141   3.659   2.134
 4072TIP3    H212094   4.251   3.720   2.049
 4073TIP3   OH212095   3.061   4.166   3.188
 4073TIP3    H112096   3.115   4.109   3.243
 4073TIP3    H212097   3.078   4.254   3.221
 4074TIP3   OH212098   3.333   3.774   1.885
 4074TIP3    H112099   3.343   3.683   1.858
 4074TIP3    H212100   3.317   3.770   1.980
 4075TIP3   OH212101   3.273   3.788   2.157
 4075TIP3    H112102   3.337   3.763   2.224
 4075TIP3    H212103   3.271   3.883   2.161
 4076TIP3   OH212104   3.004   3.481   2.365
 4076TIP3    H112105   2.940   3.528   2.418
 4076TIP3    H212106   3.025   3.540   2.293
 4077TIP3   OH212107   4.194   3.087   3.228
 4077TIP3    H112108   4.258   3.144   3.270
 4077TIP3    H212109   4.176   3.019   3.293
 4078TIP3   OH212110   4.061   2.852   2.430
 4078TIP3    H112111   4.040   2.871   2.338
 4078TIP3    H212112   4.105   2.931   2.461
 4079TIP3   OH212113   3.541   3.973   2.093
 4079TIP3    H112114   3.456   3.997   2.130
 4079TIP3    H212115   3.566   4.048   2.039
 4080TIP3   OH212116   3.711   3.053   2.519
 4080TIP3    H112117   3.773   3.122   2.494
 4080TIP3    H212118   3.734   3.033   2.610
 4081TIP3   OH212119   4.012   3.353   3.299
 4081TIP3    H112120   4.027   3.410   3.374
 4081TIP3    H212121   4.058   3.272   3.320
 4082TIP3   OH212122   3.877   2.747   2.608
 4082TIP3    H112123   3.853   2.823   2.660
 4082TIP3    H212124   3.946   2.778   2.550
 4083TIP3   OH212125   3.290   4.059   2.169
 4083TIP3    H112126   3.270   4.130   2.108
 4083TIP3    H212127   3.282   4.099   2.255
 4084TIP3   OH212128   3.398   2.780   2.427
 4084TIP3    H112129   3.389   2.872   2.451
 4084TIP3    H212130   3.493   2.765   2.427
 4085TIP3   OH212131   4.628   3.255   3.291
 4085TIP3    H112132   4.532   3.256   3.301
 4085TIP3    H212133   4.643   3.216   3.205
 4086TIP3   OH212134   4.290   3.447   2.670
 4086TIP3    H112135   4.212   3.392   2.680
 4086TIP3    H212136   4.355   3.407   2.727
 4087TIP3   OH212137   3.028   3.660   2.150
 4087TIP3    H112138   3.099   3.723   2.160
 4087TIP3    H212139   3.061   3.597   2.086
 4088TIP3   OH212140   2.967   2.967   2.310
 4088TIP3    H112141   2.954   3.061   2.294
 4088TIP3    H212142   2.972   2.928   2.223
 4089TIP3   OH212143   4.265   4.417   2.612
 4089TIP3    H112144   4.219   4.469   2.546
 4089TIP3    H212145   4.358   4.434   2.595
 4090TIP3   OH212146   3.333   2.685   3.133
 4090TIP3    H112147   3.308   2.651   3.047
 4090TIP3    H212148   3.324   2.610   3.191
 4091TIP3   OH212149   2.851   3.924   2.539
 4091TIP3    H112150   2.812   3.963   2.618
 4091TIP3    H212151   2.809   3.971   2.467
 4092TIP3   OH212152   3.049   4.458   3.603
 4092TIP3    H112153   3.133   4.455   3.649
 4092TIP3    H212154   3.020   4.367   3.599
 4093TIP3   OH212155   3.523   4.370   3.656
 4093TIP3    H112156   3.617   4.354   3.660
 4093TIP3    H212157   3.492   4.316   3.583
 4094TIP3   OH212158   3.487   3.972   1.771
 4094TIP3    H112159   3.440   3.903   1.818
 4094TIP3    H212160   3.562   3.928   1.731
 4095TIP3   OH212161   4.146   4.309   3.414
 4095TIP3    H112162   4.165   4.239   3.476
 4095TIP3    H212163   4.219   4.370   3.424
 4096TIP3   OH212164   3.929   4.013   1.695
 4096TIP3    H112165   3.963   3.948   1.756
 4096TIP3    H212166   3.989   4.008   1.620
 4097TIP3   OH212167   3.153   3.876   3.799
 4097TIP3    H112168   3.150   3.782   3.812
 4097TIP3    H212169   3.074   3.896   3.748
 4098TIP3   OH212170   3.156   3.472   2.000
 4098TIP3    H112171   3.207   3.448   2.077
 4098TIP3    H212172   3.221   3.485   1.931
 4099TIP3   OH212173   3.782   3.943   3.578
 4099TIP3    H112174   3.738   3.963   3.496
 4099TIP3    H212175   3.817   3.855   3.566
 4100TIP3   OH212176   3.726   3.689   1.834
 4100TIP3    H112177   3.702   3.701   1.926
 4100TIP3    H212178   3.707   3.597   1.816
 4101TIP3   OH212179   4.262   3.986   3.200
 4101TIP3    H112180   4.339   4.013   3.150
 4101TIP3    H212181   4.197   4.054   3.183
 4102TIP3   OH212182   3.325   3.410   2.210
 4102TIP3    H112183   3.304   3.380   2.299
 4102TIP3    H212184   3.376   3.338   2.173
 4103TIP3   OH212185   3.476   3.229   2.063
 4103TIP3    H112186   3.447   3.237   1.972
 4103TIP3    H212187   3.571   3.235   2.058
 4104TIP3   OH212188   4.145   3.862   3.552
 4104TIP3    H112189   4.206   3.820   3.492
 4104TIP3    H212190   4.140   3.802   3.627
 4105TIP3   OH212191   4.259   3.509   1.734
 4105TIP3    H112192   4.246   3.470   1.648
 4105TIP3    H212193   4.236   3.601   1.723
 4106TIP3   OH212194   3.773   3.004   3.312
 4106TIP3    H112195   3.792   3.075   3.252
 4106TIP3    H212196   3.678   3.010   3.328
 4107TIP3   OH212197   3.781   3.612   3.281
 4107TIP3    H112198   3.857   3.662   3.251
 4107TIP3    H212199   3.708   3.646   3.228
 4108TIP3   OH212200   4.353   3.541   3.617
 4108TIP3    H112201   4.397   3.456   3.623
 4108TIP3    H212202   4.424   3.604   3.603
 4109TIP3   OH212203   4.377   3.808   3.371
 4109TIP3    H112204   4.327   3.870   3.319
 4109TIP3    H212205   4.468   3.820   3.342
 4110TIP3   OH212206   3.877   2.805   3.468
 4110TIP3    H112207   3.845   2.878   3.416
 4110TIP3    H212208   3.812   2.736   3.456
 4111TIP3   OH212209   3.979   3.308   3.659
 4111TIP3    H112210   3.965   3.286   3.751
 4111TIP3    H212211   3.891   3.306   3.621
 4112TIP3   OH212212   4.232   3.251   3.540
 4112TIP3    H112213   4.153   3.253   3.594
 4112TIP3    H212214   4.302   3.227   3.600
 4113TIP3   OH212215   4.475   3.213   3.684
 4113TIP3    H112216   4.492   3.119   3.689
 4113TIP3    H212217   4.472   3.242   3.775
 4114TIP3   OH212218   3.438   3.144   3.895
 4114TIP3    H112219   3.491   3.205   3.844
 4114TIP3    H212220   3.497   3.112   3.963
 4115TIP3   OH212221   3.935   2.804   3.737
 4115TIP3    H112222   4.006   2.740   3.732
 4115TIP3    H212223   3.904   2.814   3.647
 4116TIP3   OH212224   4.027   3.021   3.882
 4116TIP3    H112225   3.999   2.948   3.827
 4116TIP3    H212226   3.954   3.083   3.879
 4117TIP3   OH212227   3.287   4.263   1.982
 4117TIP3    H112228   3.378   4.245   1.957
 4117TIP3    H212229   3.252   4.314   1.909
 4118TIP3   OH212230   2.756   3.654   2.177
 4118TIP3    H112231   2.850   3.668   2.170
 4118TIP3    H212232   2.742   3.567   2.138
 4119TIP3   OH212233   2.660   4.236   2.622
 4119TIP3    H112234   2.593   4.183   2.578
 4119TIP3    H212235   2.703   4.175   2.682
 4120TIP3   OH212236   2.802   4.065   2.790
 4120TIP3    H112237   2.793   3.998   2.857
 4120TIP3    H212238   2.856   4.133   2.831
 4121TIP3   OH212239   4.535   4.475   2.605
 4121TIP3    H112240   4.553   4.499   2.695
 4121TIP3    H212241   4.582   4.541   2.553
 4122TIP3   OH212242   4.554   4.502   2.884
 4122TIP3    H112243   4.507   4.419   2.881
 4122TIP3    H212244   4.624   4.487   2.948
 4123TIP3   OH212245   4.622   4.203   3.459
 4123TIP3    H112246   4.550   4.217   3.521
 4123TIP3    H212247   4.667   4.288   3.456
 4124TIP3   OH212248   4.437   3.718   2.062
 4124TIP3    H112249   4.492   3.791   2.034
 4124TIP3    H212250   4.483   3.682   2.139
 4125TIP3   OH212251   4.568   3.577   2.266
 4125TIP3    H112252   4.500   3.541   2.323
 4125TIP3    H212253   4.632   3.616   2.325
 4126TIP3   OH212254   4.609   3.982   2.703
 4126TIP3    H112255   4.660   3.915   2.658
 4126TIP3    H212256   4.609   4.056   2.643
 4127TIP3   OH212257   4.414   4.261   2.893
 4127TIP3    H112258   4.347   4.307   2.943
 4127TIP3    H212259   4.367   4.221   2.820
 4128TIP3   OH212260   4.469   3.491   1.911
 4128TIP3    H112261   4.397   3.491   1.848
 4128TIP3    H212262   4.455   3.570   1.964
 4129TIP3   OH212263   4.329   3.137   1.845
 4129TIP3    H112264   4.279   3.176   1.773
 4129TIP3    H212265   4.320   3.042   1.832
 4130TIP3   OH212266   4.362   3.441   2.402
 4130TIP3    H112267   4.365   3.346   2.388
 4130TIP3    H212268   4.342   3.451   2.495
 4131TIP3   OH212269   2.991   3.498   3.178
 4131TIP3    H112270   2.987   3.472   3.086
 4131TIP3    H212271   3.083   3.484   3.203
 4132TIP3   OH212272   4.633   3.851   3.268
 4132TIP3    H112273   4.700   3.786   3.248
 4132TIP3    H212274   4.634   3.911   3.193
 4133TIP3   OH212275   4.812   3.642   3.253
 4133TIP3    H112276   4.741   3.601   3.301
 4133TIP3    H212277   4.889   3.589   3.273
 4134TIP3   OH212278   4.289   2.864   1.818
 4134TIP3    H112279   4.349   2.842   1.889
 4134TIP3    H212280   4.204   2.832   1.848
 4135TIP3   OH212281   4.352   3.162   2.287
 4135TIP3    H112282   4.398   3.079   2.300
 4135TIP3    H212283   4.393   3.201   2.210
 4136TIP3   OH212284   4.504   3.325   2.812
 4136TIP3    H112285   4.585   3.343   2.764
 4136TIP3    H212286   4.518   3.366   2.898
 4137TIP3   OH212287   4.579   3.475   3.041
 4137TIP3    H112288   4.507   3.504   3.097
 4137TIP3    H212289   4.611   3.556   3.000
 4138TIP3   OH212290   3.183   3.175   3.811
 4138TIP3    H112291   3.277   3.177   3.831
 4138TIP3    H212292   3.151   3.095   3.854
 4139TIP3   OH212293   5.043   3.071   3.580
 4139TIP3    H112294   5.105   3.015   3.534
 4139TIP3    H212295   5.003   3.124   3.511
 4140TIP3   OH212296   4.469   2.912   2.338
 4140TIP3    H112297   4.514   2.898   2.421
 4140TIP3    H212298   4.406   2.841   2.332
 4141TIP3   OH212299   3.166   2.903   3.174
 4141TIP3    H112300   3.224   2.826   3.169
 4141TIP3    H212301   3.225   2.977   3.159
 4142TIP3   OH212302   2.952   3.162   3.222
 4142TIP3    H112303   3.005   3.155   3.143
 4142TIP3    H212304   2.981   3.244   3.262
 4143TIP3   OH212305   4.890   3.191   3.390
 4143TIP3    H112306   4.811   3.234   3.424
 4143TIP3    H212307   4.857   3.123   3.332
 4144TIP3   OH212308   4.513   2.823   1.980
 4144TIP3    H112309   4.562   2.764   1.923
 4144TIP3    H212310   4.566   2.903   1.983
 4145TIP3   OH212311   3.004   2.672   2.726
 4145TIP3    H112312   2.928   2.657   2.783
 4145TIP3    H212313   2.974   2.735   2.661
 4146TIP3   OH212314   4.105   4.389   2.246
 4146TIP3    H112315   4.159   4.383   2.168
 4146TIP3    H212316   4.140   4.466   2.293
 4147TIP3   OH212317   3.141   2.701   3.528
 4147TIP3    H112318   3.113   2.722   3.618
 4147TIP3    H212319   3.093   2.763   3.473
 4148TIP3   OH212320   3.206   4.168   3.628
 4148TIP3    H112321   3.111   4.169   3.621
 4148TIP3    H212322   3.223   4.191   3.719
 4149TIP3   OH212323   3.407   4.225   3.177
 4149TIP3    H112324   3.355   4.298   3.144
 4149TIP3    H212325   3.491   4.232   3.131
 4150TIP3   OH212326   3.801   4.458   3.315
 4150TIP3    H112327   3.840   4.453   3.403
 4150TIP3    H212328   3.862   4.513   3.266
 4151TIP3   OH212329   3.992   4.614   3.191
 4151TIP3    H112330   4.052   4.565   3.135
 4151TIP3    H212331   4.049   4.671   3.244
 4152TIP3   OH212332   4.797   2.951   3.269
 4152TIP3    H112333   4.715   2.957   3.220
 4152TIP3    H212334   4.822   2.859   3.262
 4153TIP3   OH212335   3.067   4.457   3.227
 4153TIP3    H112336   2.977   4.474   3.202
 4153TIP3    H212337   3.089   4.528   3.288
 4154TIP3   OH212338   3.298   4.456   3.073
 4154TIP3    H112339   3.214   4.461   3.118
 4154TIP3    H212340   3.278   4.482   2.983
 4155TIP3   OH212341   3.716   4.478   2.874
 4155TIP3    H112342   3.643   4.488   2.813
 4155TIP3    H212343   3.728   4.565   2.912
 4156TIP3   OH212344   3.978   4.409   2.917
 4156TIP3    H112345   3.886   4.429   2.899
 4156TIP3    H212346   4.027   4.474   2.867
 4157TIP3   OH212347   4.179   4.583   2.816
 4157TIP3    H112348   4.173   4.669   2.776
 4157TIP3    H212349   4.206   4.525   2.745
 4158TIP3   OH212350   2.975   4.243   2.935
 4158TIP3    H112351   3.002   4.223   3.025
 4158TIP3    H212352   3.047   4.209   2.881
 4159TIP3   OH212353   3.175   4.118   2.799
 4159TIP3    H112354   3.187   4.034   2.845
 4159TIP3    H212355   3.261   4.160   2.804
 4160TIP3   OH212356   3.437   4.198   2.833
 4160TIP3    H112357   3.464   4.107   2.826
 4160TIP3    H212358   3.497   4.235   2.898
 4161TIP3   OH212359   4.006   2.865   2.906
 4161TIP3    H112360   3.968   2.796   2.960
 4161TIP3    H212361   4.075   2.822   2.856
 4162TIP3   OH212362   4.511   2.779   2.796
 4162TIP3    H112363   4.548   2.829   2.724
 4162TIP3    H212364   4.419   2.807   2.800
 4163TIP3   OH212365   4.626   2.857   2.560
 4163TIP3    H112366   4.696   2.797   2.533
 4163TIP3    H212367   4.664   2.944   2.548
 4164TIP3   OH212368   3.251   2.568   2.898
 4164TIP3    H112369   3.160   2.540   2.895
 4164TIP3    H212370   3.301   2.487   2.896
 4165TIP3   OH212371   3.093   2.467   2.563
 4165TIP3    H112372   3.121   2.513   2.484
 4165TIP3    H212373   3.070   2.537   2.625
 4166TIP3   OH212374   3.732   2.601   2.804
 4166TIP3    H112375   3.777   2.651   2.735
 4166TIP3    H212376   3.771   2.632   2.886
 4167TIP3   OH212377   4.220   2.745   2.778
 4167TIP3    H112378   4.239   2.710   2.691
 4167TIP3    H212379   4.227   2.670   2.837
 4168TIP3   OH212380   4.282   2.703   2.347
 4168TIP3    H112381   4.203   2.751   2.371
 4168TIP3    H212382   4.271   2.617   2.388
 4169TIP3   OH212383   2.737   4.056   2.325
 4169TIP3    H112384   2.655   4.021   2.292
 4169TIP3    H212385   2.740   4.146   2.291
 4170TIP3   OH212386   3.196   2.612   2.350
 4170TIP3    H112387   3.237   2.552   2.287
 4170TIP3    H212388   3.268   2.667   2.380
 4171TIP3   OH212389   3.671   2.801   2.423
 4171TIP3    H112390   3.732   2.752   2.479
 4171TIP3    H212391   3.683   2.892   2.450
 4172TIP3   OH212392   3.546   4.195   1.918
 4172TIP3    H112393   3.629   4.223   1.881
 4172TIP3    H212394   3.517   4.124   1.861
 4173TIP3   OH212395   4.251   4.344   2.012
 4173TIP3    H112396   4.242   4.249   2.005
 4173TIP3    H212397   4.203   4.378   1.937
 4174TIP3   OH212398   3.468   2.805   3.754
 4174TIP3    H112399   3.447   2.751   3.830
 4174TIP3    H212400   3.543   2.857   3.781
 4175TIP3   OH212401   3.708   2.864   3.914
 4175TIP3    H112402   3.785   2.844   3.861
 4175TIP3    H212403   3.707   2.796   3.981
 4176TIP3   OH212404   2.851   4.036   1.978
 4176TIP3    H112405   2.856   4.055   2.071
 4176TIP3    H212406   2.934   3.992   1.958
 4177TIP3   OH212407   4.548   2.945   3.699
 4177TIP3    H112408   4.564   2.918   3.789
 4177TIP3    H212409   4.634   2.940   3.656
 4178TIP3   OH212410   4.463   4.478   3.206
 4178TIP3    H112411   4.389   4.448   3.153
 4178TIP3    H212412   4.451   4.573   3.212
 4179TIP3   OH212413   5.745   3.867   1.940
 4179TIP3    H112414   5.714   3.954   1.915
 4179TIP3    H212415   5.673   3.808   1.918
 4180TIP3   OH212416   5.743   3.858   2.370
 4180TIP3    H112417   5.794   3.842   2.450
 4180TIP3    H212418   5.696   3.776   2.355
 4181TIP3   OH212419   5.037   3.718   2.719
 4181TIP3    H112420   5.075   3.669   2.792
 4181TIP3    H212421   5.112   3.751   2.671
 4182TIP3   OH212422   6.007   4.166   2.042
 4182TIP3    H112423   5.996   4.099   2.109
 4182TIP3    H212424   6.028   4.246   2.091
 4183TIP3   OH212425   5.035   4.140   2.393
 4183TIP3    H112426   5.015   4.048   2.405
 4183TIP3    H212427   5.131   4.144   2.389
 4184TIP3   OH212428   4.713   3.349   2.183
 4184TIP3    H112429   4.676   3.433   2.209
 4184TIP3    H212430   4.640   3.302   2.143
 4185TIP3   OH212431   4.796   3.666   2.409
 4185TIP3    H112432   4.845   3.588   2.434
 4185TIP3    H212433   4.862   3.731   2.387
 4186TIP3   OH212434   5.666   4.596   2.055
 4186TIP3    H112435   5.693   4.530   1.991
 4186TIP3    H212436   5.663   4.549   2.138
 4187TIP3   OH212437   5.551   4.080   2.373
 4187TIP3    H112438   5.597   4.000   2.348
 4187TIP3    H212439   5.620   4.137   2.407
 4188TIP3   OH212440   6.582   3.399   2.393
 4188TIP3    H112441   6.598   3.483   2.437
 4188TIP3    H212442   6.602   3.416   2.301
 4189TIP3   OH212443   5.951   3.564   2.409
 4189TIP3    H112444   5.984   3.478   2.436
 4189TIP3    H212445   5.917   3.549   2.321
 4190TIP3   OH212446   5.309   3.224   2.366
 4190TIP3    H112447   5.287   3.298   2.310
 4190TIP3    H212448   5.252   3.153   2.337
 4191TIP3   OH212449   6.007   3.326   2.003
 4191TIP3    H112450   6.070   3.319   2.074
 4191TIP3    H212451   6.056   3.362   1.930
 4192TIP3   OH212452   4.931   3.441   2.499
 4192TIP3    H112453   5.015   3.424   2.543
 4192TIP3    H212454   4.935   3.390   2.418
 4193TIP3   OH212455   5.354   3.641   2.309
 4193TIP3    H112456   5.448   3.625   2.318
 4193TIP3    H212457   5.319   3.558   2.276
 4194TIP3   OH212458   6.636   3.621   2.555
 4194TIP3    H112459   6.547   3.655   2.551
 4194TIP3    H212460   6.672   3.657   2.636
 4195TIP3   OH212461   5.289   3.229   2.820
 4195TIP3    H112462   5.239   3.266   2.747
 4195TIP3    H212463   5.235   3.245   2.897
 4196TIP3   OH212464   5.642   4.085   1.803
 4196TIP3    H112465   5.600   4.054   1.722
 4196TIP3    H212466   5.588   4.158   1.831
 4197TIP3   OH212467   5.383   4.005   2.582
 4197TIP3    H112468   5.330   4.076   2.618
 4197TIP3    H212469   5.433   4.046   2.511
 4198TIP3   OH212470   6.170   3.346   2.221
 4198TIP3    H112471   6.123   3.325   2.302
 4198TIP3    H212472   6.222   3.423   2.244
 4199TIP3   OH212473   5.180   3.336   2.588
 4199TIP3    H112474   5.233   3.412   2.611
 4199TIP3    H212475   5.228   3.294   2.516
 4200TIP3   OH212476   5.228   4.207   2.689
 4200TIP3    H112477   5.211   4.297   2.659
 4200TIP3    H212478   5.152   4.186   2.744
 4201TIP3   OH212479   4.603   3.913   1.945
 4201TIP3    H112480   4.564   3.934   1.860
 4201TIP3    H212481   4.626   3.998   1.982
 4202TIP3   OH212482   6.043   4.414   2.181
 4202TIP3    H112483   5.957   4.406   2.222
 4202TIP3    H212484   6.039   4.498   2.135
 4203TIP3   OH212485   6.385   3.286   2.562
 4203TIP3    H112486   6.299   3.309   2.527
 4203TIP3    H212487   6.447   3.315   2.495
 4204TIP3   OH212488   5.632   2.922   2.552
 4204TIP3    H112489   5.624   2.830   2.578
 4204TIP3    H212490   5.555   2.964   2.591
 4205TIP3   OH212491   5.752   4.445   1.836
 4205TIP3    H112492   5.804   4.365   1.827
 4205TIP3    H212493   5.810   4.515   1.807
 4206TIP3   OH212494   5.891   4.214   1.795
 4206TIP3    H112495   5.816   4.153   1.794
 4206TIP3    H212496   5.940   4.190   1.874
 4207TIP3   OH212497   6.279   4.304   2.525
 4207TIP3    H112498   6.260   4.228   2.469
 4207TIP3    H212499   6.263   4.380   2.468
 4208TIP3   OH212500   5.569   3.703   1.798
 4208TIP3    H112501   5.485   3.747   1.780
 4208TIP3    H212502   5.614   3.704   1.713
 4209TIP3   OH212503   5.532   3.515   1.487
 4209TIP3    H112504   5.598   3.562   1.537
 4209TIP3    H212505   5.581   3.446   1.443
 4210TIP3   OH212506   6.458   3.960   2.392
 4210TIP3    H112507   6.374   4.005   2.392
 4210TIP3    H212508   6.493   3.974   2.304
 4211TIP3   OH212509   5.930   3.791   1.753
 4211TIP3    H112510   5.875   3.821   1.826
 4211TIP3    H212511   6.013   3.768   1.795
 4212TIP3   OH212512   6.159   3.822   2.705
 4212TIP3    H112513   6.155   3.906   2.751
 4212TIP3    H212514   6.077   3.818   2.655
 4213TIP3   OH212515   5.155   3.775   2.160
 4213TIP3    H112516   5.118   3.713   2.097
 4213TIP3    H212517   5.228   3.727   2.200
 4214TIP3   OH212518   5.299   4.197   2.301
 4214TIP3    H112519   5.275   4.181   2.210
 4214TIP3    H212520   5.386   4.158   2.310
 4215TIP3   OH212521   5.252   3.769   2.534
 4215TIP3    H112522   5.292   3.733   2.455
 4215TIP3    H212523   5.300   3.850   2.551
 4216TIP3   OH212524   5.808   4.406   2.317
 4216TIP3    H112525   5.793   4.486   2.367
 4216TIP3    H212526   5.792   4.336   2.380
 4217TIP3   OH212527   5.423   4.312   2.858
 4217TIP3    H112528   5.361   4.367   2.905
 4217TIP3    H212529   5.369   4.258   2.800
 4218TIP3   OH212530   5.758   3.653   1.588
 4218TIP3    H112531   5.818   3.711   1.635
 4218TIP3    H212532   5.787   3.656   1.497
 4219TIP3   OH212533   5.190   3.858   2.982
 4219TIP3    H112534   5.195   3.948   3.014
 4219TIP3    H212535   5.096   3.837   2.983
 4220TIP3   OH212536   5.505   4.321   1.847
 4220TIP3    H112537   5.585   4.374   1.851
 4220TIP3    H212538   5.442   4.377   1.802
 4221TIP3   OH212539   5.211   4.467   2.947
 4221TIP3    H112540   5.184   4.474   2.855
 4221TIP3    H212541   5.131   4.450   2.995
 4222TIP3   OH212542   6.266   2.879   1.648
 4222TIP3    H112543   6.190   2.900   1.703
 4222TIP3    H212544   6.277   2.956   1.592
 4223TIP3   OH212545   5.026   3.616   1.961
 4223TIP3    H112546   4.949   3.665   1.933
 4223TIP3    H212547   4.992   3.529   1.983
 4224TIP3   OH212548   6.093   4.259   1.200
 4224TIP3    H112549   6.086   4.352   1.179
 4224TIP3    H212550   6.182   4.234   1.174
 4225TIP3   OH212551   4.813   4.021   2.895
 4225TIP3    H112552   4.743   4.002   2.833
 4225TIP3    H212553   4.848   3.936   2.920
 4226TIP3   OH212554   4.648   4.222   2.555
 4226TIP3    H112555   4.735   4.251   2.580
 4226TIP3    H212556   4.591   4.297   2.576
 4227TIP3   OH212557   6.510   4.665   2.595
 4227TIP3    H112558   6.515   4.570   2.609
 4227TIP3    H212559   6.431   4.691   2.642
 4228TIP3   OH212560   5.612   4.458   2.722
 4228TIP3    H112561   5.606   4.547   2.757
 4228TIP3    H212562   5.546   4.408   2.770
 4229TIP3   OH212563   5.394   4.552   1.673
 4229TIP3    H112564   5.340   4.529   1.598
 4229TIP3    H212565   5.357   4.634   1.706
 4230TIP3   OH212566   4.830   4.401   2.052
 4230TIP3    H112567   4.872   4.393   2.137
 4230TIP3    H212568   4.778   4.321   2.043
 4231TIP3   OH212569   5.595   4.482   1.303
 4231TIP3    H112570   5.646   4.409   1.268
 4231TIP3    H212571   5.627   4.493   1.392
 4232TIP3   OH212572   5.647   4.521   1.573
 4232TIP3    H112573   5.559   4.527   1.611
 4232TIP3    H212574   5.701   4.484   1.642
 4233TIP3   OH212575   6.406   3.773   2.860
 4233TIP3    H112576   6.320   3.787   2.821
 4233TIP3    H212577   6.421   3.679   2.852
 4234TIP3   OH212578   5.015   4.206   2.866
 4234TIP3    H112579   5.066   4.192   2.946
 4234TIP3    H212580   4.942   4.145   2.872
 4235TIP3   OH212581   5.395   3.012   2.679
 4235TIP3    H112582   5.311   2.979   2.646
 4235TIP3    H212583   5.372   3.093   2.724
 4236TIP3   OH212584   5.932   3.131   2.882
 4236TIP3    H112585   6.000   3.109   2.946
 4236TIP3    H212586   5.850   3.119   2.929
 4237TIP3   OH212587   6.156   3.558   2.797
 4237TIP3    H112588   6.111   3.551   2.881
 4237TIP3    H212589   6.140   3.647   2.767
 4238TIP3   OH212590   5.837   3.623   1.324
 4238TIP3    H112591   5.792   3.629   1.240
 4238TIP3    H212592   5.917   3.674   1.312
 4239TIP3   OH212593   5.547   3.053   1.646
 4239TIP3    H112594   5.510   3.061   1.734
 4239TIP3    H212595   5.509   2.972   1.611
 4240TIP3   OH212596   5.329   3.547   2.683
 4240TIP3    H112597   5.286   3.555   2.767
 4240TIP3    H212598   5.307   3.629   2.637
 4241TIP3   OH212599   5.213   3.424   2.206
 4241TIP3    H112600   5.123   3.402   2.232
 4241TIP3    H212601   5.221   3.390   2.117
 4242TIP3   OH212602   5.692   3.499   1.935
 4242TIP3    H112603   5.645   3.572   1.895
 4242TIP3    H212604   5.750   3.467   1.865
 4243TIP3   OH212605   5.876   3.772   3.014
 4243TIP3    H112606   5.848   3.706   3.077
 4243TIP3    H212607   5.968   3.788   3.037
 4244TIP3   OH212608   5.863   3.514   2.155
 4244TIP3    H112609   5.792   3.534   2.094
 4244TIP3    H212610   5.909   3.440   2.115
 4245TIP3   OH212611   5.174   3.559   2.910
 4245TIP3    H112612   5.199   3.620   2.979
 4245TIP3    H212613   5.155   3.477   2.956
 4246TIP3   OH212614   5.212   3.035   1.622
 4246TIP3    H112615   5.203   3.039   1.717
 4246TIP3    H212616   5.134   3.078   1.588
 4247TIP3   OH212617   4.759   3.079   2.487
 4247TIP3    H112618   4.830   3.116   2.539
 4247TIP3    H212619   4.797   3.066   2.400
 4248TIP3   OH212620   4.665   3.057   1.988
 4248TIP3    H112621   4.708   3.092   1.910
 4248TIP3    H212622   4.602   3.125   2.013
 4249TIP3   OH212623   5.909   3.767   2.583
 4249TIP3    H112624   5.930   3.698   2.520
 4249TIP3    H212625   5.864   3.722   2.654
 4250TIP3   OH212626   5.575   3.212   2.255
 4250TIP3    H112627   5.497   3.213   2.310
 4250TIP3    H212628   5.648   3.205   2.317
 4251TIP3   OH212629   4.972   3.301   2.266
 4251TIP3    H112630   4.884   3.306   2.229
 4251TIP3    H212631   5.000   3.211   2.251
 4252TIP3   OH212632   5.226   3.300   1.961
 4252TIP3    H112633   5.320   3.312   1.950
 4252TIP3    H212634   5.189   3.318   1.875
 4253TIP3   OH212635   6.024   3.298   2.451
 4253TIP3    H112636   6.016   3.311   2.546
 4253TIP3    H212637   5.951   3.241   2.428
 4254TIP3   OH212638   5.113   3.322   1.713
 4254TIP3    H112639   5.049   3.274   1.661
 4254TIP3    H212640   5.165   3.370   1.648
 4255TIP3   OH212641   6.224   5.011   2.688
 4255TIP3    H112642   6.222   5.026   2.594
 4255TIP3    H212643   6.303   5.056   2.718
 4256TIP3   OH212644   5.174   4.117   3.099
 4256TIP3    H112645   5.254   4.131   3.149
 4256TIP3    H212646   5.103   4.119   3.164
 4257TIP3   OH212647   5.625   3.588   2.368
 4257TIP3    H112648   5.695   3.538   2.325
 4257TIP3    H212649   5.622   3.553   2.457
 4258TIP3   OH212650   5.114   3.052   2.252
 4258TIP3    H112651   5.087   2.976   2.303
 4258TIP3    H212652   5.134   3.016   2.165
 4259TIP3   OH212653   5.600   3.500   2.636
 4259TIP3    H112654   5.512   3.532   2.655
 4259TIP3    H212655   5.658   3.557   2.688
 4260TIP3   OH212656   5.332   3.837   1.743
 4260TIP3    H112657   5.256   3.784   1.718
 4260TIP3    H212658   5.305   3.881   1.823
 4261TIP3   OH212659   6.223   4.098   2.349
 4261TIP3    H112660   6.259   4.147   2.274
 4261TIP3    H212661   6.144   4.057   2.315
 4262TIP3   OH212662   5.798   3.160   1.643
 4262TIP3    H112663   5.705   3.137   1.643
 4262TIP3    H212664   5.799   3.255   1.659
 4263TIP3   OH212665   5.744   4.179   2.766
 4263TIP3    H112666   5.786   4.153   2.848
 4263TIP3    H212667   5.699   4.261   2.787
 4264TIP3   OH212668   5.855   3.423   1.718
 4264TIP3    H112669   5.950   3.428   1.730
 4264TIP3    H212670   5.833   3.502   1.668
 4265TIP3   OH212671   5.020   3.848   2.391
 4265TIP3    H112672   5.058   3.833   2.305
 4265TIP3    H212673   5.087   3.819   2.453
 4266TIP3   OH212674   5.481   4.002   1.586
 4266TIP3    H112675   5.434   4.086   1.584
 4266TIP3    H212676   5.426   3.944   1.638
 4267TIP3   OH212677   4.916   3.796   3.029
 4267TIP3    H112678   4.935   3.779   3.121
 4267TIP3    H212679   4.841   3.740   3.009
 4268TIP3   OH212680   5.646   3.941   3.004
 4268TIP3    H112681   5.582   3.871   3.006
 4268TIP3    H212682   5.731   3.897   3.010
 4269TIP3   OH212683   5.884   4.473   2.650
 4269TIP3    H112684   5.790   4.456   2.651
 4269TIP3    H212685   5.903   4.508   2.737
 4270TIP3   OH212686   6.270   3.508   1.532
 4270TIP3    H112687   6.216   3.461   1.469
 4270TIP3    H212688   6.274   3.597   1.500
 4271TIP3   OH212689   6.524   4.384   2.617
 4271TIP3    H112690   6.429   4.369   2.611
 4271TIP3    H212691   6.558   4.355   2.533
 4272TIP3   OH212692   6.013   4.334   1.468
 4272TIP3    H112693   5.984   4.271   1.534
 4272TIP3    H212694   6.027   4.282   1.389
 4273TIP3   OH212695   5.994   3.963   2.244
 4273TIP3    H112696   5.906   3.942   2.272
 4273TIP3    H212697   6.028   3.882   2.207
 4274TIP3   OH212698   5.146   4.200   2.061
 4274TIP3    H112699   5.138   4.274   2.002
 4274TIP3    H212700   5.061   4.195   2.105
 4275TIP3   OH212701   4.709   3.483   1.776
 4275TIP3    H112702   4.750   3.567   1.797
 4275TIP3    H212703   4.628   3.483   1.826
 4276TIP3   OH212704   5.230   3.957   1.962
 4276TIP3    H112705   5.211   4.046   1.993
 4276TIP3    H212706   5.205   3.900   2.036
 4277TIP3   OH212707   5.430   4.525   2.515
 4277TIP3    H112708   5.467   4.597   2.465
 4277TIP3    H212709   5.503   4.493   2.569
 4278TIP3   OH212710   5.064   4.420   1.907
 4278TIP3    H112711   4.977   4.426   1.947
 4278TIP3    H212712   5.099   4.509   1.914
 4279TIP3   OH212713   5.781   4.187   2.493
 4279TIP3    H112714   5.766   4.184   2.587
 4279TIP3    H212715   5.859   4.133   2.479
 4280TIP3   OH212716   5.777   4.062   1.352
 4280TIP3    H112717   5.828   4.031   1.427
 4280TIP3    H212718   5.693   4.018   1.360
 4281TIP3   OH212719   6.037   4.678   2.530
 4281TIP3    H112720   5.970   4.614   2.553
 4281TIP3    H212721   5.999   4.729   2.459
 4282TIP3   OH212722   6.087   4.534   1.168
 4282TIP3    H112723   6.144   4.610   1.156
 4282TIP3    H212724   6.009   4.570   1.211
 4283TIP3   OH212725   5.119   3.305   3.028
 4283TIP3    H112726   5.024   3.314   3.034
 4283TIP3    H212727   5.144   3.264   3.110
 4284TIP3   OH212728   5.954   3.968   1.539
 4284TIP3    H112729   5.937   3.917   1.619
 4284TIP3    H212730   6.049   3.979   1.537
 4285TIP3   OH212731   4.858   4.407   2.673
 4285TIP3    H112732   4.912   4.349   2.727
 4285TIP3    H212733   4.870   4.494   2.713
 4286TIP3   OH212734   5.130   4.028   1.370
 4286TIP3    H112735   5.139   3.937   1.344
 4286TIP3    H212736   5.114   4.025   1.464
 4287TIP3   OH212737   5.068   4.046   1.641
 4287TIP3    H112738   5.124   4.019   1.715
 4287TIP3    H212739   5.066   4.141   1.646
 4288TIP3   OH212740   4.800   3.737   1.853
 4288TIP3    H112741   4.735   3.785   1.905
 4288TIP3    H212742   4.818   3.794   1.779
 4289TIP3   OH212743   5.995   3.342   2.715
 4289TIP3    H112744   6.054   3.403   2.759
 4289TIP3    H212745   5.974   3.276   2.781
 4290TIP3   OH212746   5.857   3.109   1.913
 4290TIP3    H112747   5.836   3.129   1.822
 4290TIP3    H212748   5.900   3.188   1.946
 4291TIP3   OH212749   5.340   4.233   1.580
 4291TIP3    H112750   5.254   4.254   1.617
 4291TIP3    H212751   5.359   4.307   1.522
 4292TIP3   OH212752   5.505   3.308   2.004
 4292TIP3    H112753   5.567   3.377   1.979
 4292TIP3    H212754   5.527   3.287   2.094
 4293TIP3   OH212755   5.808   3.616   2.792
 4293TIP3    H112756   5.824   3.672   2.868
 4293TIP3    H212757   5.851   3.534   2.813
 4294TIP3   OH212758   5.671   3.004   2.092
 4294TIP3    H112759   5.647   3.081   2.143
 4294TIP3    H212760   5.740   3.036   2.033
 4295TIP3   OH212761   5.089   4.319   1.655
 4295TIP3    H112762   5.067   4.390   1.595
 4295TIP3    H212763   5.077   4.355   1.742
 4296TIP3   OH212764   5.183   3.027   1.901
 4296TIP3    H112765   5.171   3.118   1.929
 4296TIP3    H212766   5.277   3.013   1.907
 4297TIP3   OH212767   6.419   3.498   2.768
 4297TIP3    H112768   6.325   3.510   2.783
 4297TIP3    H212769   6.424   3.438   2.694
 4298TIP3   OH212770   6.085   3.704   2.156
 4298TIP3    H112771   6.007   3.649   2.168
 4298TIP3    H212772   6.151   3.664   2.213
 4299TIP3   OH212773   4.824   3.910   1.635
 4299TIP3    H112774   4.894   3.975   1.642
 4299TIP3    H212775   4.856   3.848   1.570
 4300TIP3   OH212776   4.727   3.205   1.765
 4300TIP3    H112777   4.742   3.298   1.776
 4300TIP3    H212778   4.659   3.199   1.697
 4301TIP3   OH212779   6.063   4.682   2.096
 4301TIP3    H112780   6.024   4.733   2.025
 4301TIP3    H212781   6.158   4.693   2.084
 4302TIP3   OH212782   5.135   2.925   2.634
 4302TIP3    H112783   5.104   2.894   2.549
 4302TIP3    H212784   5.124   2.850   2.692
 4303TIP3   OH212785   4.651   4.182   2.026
 4303TIP3    H112786   4.608   4.219   2.103
 4303TIP3    H212787   4.607   4.224   1.952
 4304TIP3   OH212788   4.856   4.718   3.100
 4304TIP3    H112789   4.939   4.720   3.148
 4304TIP3    H212790   4.835   4.625   3.091
 4305TIP3   OH212791   5.326   4.632   3.135
 4305TIP3    H112792   5.414   4.597   3.146
 4305TIP3    H212793   5.288   4.579   3.066
 4306TIP3   OH212794   5.283   4.227   1.253
 4306TIP3    H112795   5.235   4.158   1.300
 4306TIP3    H212796   5.357   4.181   1.214
 4307TIP3   OH212797   5.929   4.574   2.902
 4307TIP3    H112798   5.943   4.503   2.965
 4307TIP3    H212799   6.005   4.630   2.912
 4308TIP3   OH212800   5.726   4.272   1.185
 4308TIP3    H112801   5.757   4.206   1.247
 4308TIP3    H212802   5.783   4.263   1.109
 4309TIP3   OH212803   4.964   4.106   3.284
 4309TIP3    H112804   4.979   4.013   3.298
 4309TIP3    H212805   4.877   4.112   3.244
 4310TIP3   OH212806   4.950   3.722   1.482
 4310TIP3    H112807   5.000   3.699   1.560
 4310TIP3    H212808   5.016   3.736   1.415
 4311TIP3   OH212809   5.576   4.205   3.061
 4311TIP3    H112810   5.526   4.228   2.983
 4311TIP3    H212811   5.612   4.118   3.043
 4312TIP3   OH212812   5.524   3.945   1.321
 4312TIP3    H112813   5.499   3.957   1.412
 4312TIP3    H212814   5.502   3.854   1.302
 4313TIP3   OH212815   6.056   4.246   2.680
 4313TIP3    H112816   6.132   4.276   2.630
 4313TIP3    H212817   5.990   4.313   2.667
 4314TIP3   OH212818   5.093   3.834   3.286
 4314TIP3    H112819   5.176   3.808   3.247
 4314TIP3    H212820   5.115   3.867   3.373
 4315TIP3   OH212821   5.120   3.664   1.696
 4315TIP3    H112822   5.098   3.635   1.785
 4315TIP3    H212823   5.167   3.590   1.658
 4316TIP3   OH212824   5.440   3.737   2.939
 4316TIP3    H112825   5.357   3.784   2.952
 4316TIP3    H212826   5.471   3.766   2.854
 4317TIP3   OH212827   5.261   3.478   1.542
 4317TIP3    H112828   5.231   3.484   1.452
 4317TIP3    H212829   5.356   3.488   1.536
 4318TIP3   OH212830   5.928   4.129   3.020
 4318TIP3    H112831   5.999   4.091   2.968
 4318TIP3    H212832   5.927   4.079   3.101
 4319TIP3   OH212833   6.052   3.768   1.224
 4319TIP3    H112834   6.040   3.727   1.138
 4319TIP3    H212835   6.030   3.860   1.210
 4320TIP3   OH212836   5.545   3.508   3.048
 4320TIP3    H112837   5.547   3.440   2.981
 4320TIP3    H212838   5.511   3.585   3.003
 4321TIP3   OH212839   5.552   3.311   2.847
 4321TIP3    H112840   5.576   3.356   2.766
 4321TIP3    H212841   5.460   3.287   2.834
 4322TIP3   OH212842   5.553   3.830   2.710
 4322TIP3    H112843   5.632   3.879   2.731
 4322TIP3    H212844   5.497   3.893   2.664
 4323TIP3   OH212845   6.147   3.797   3.109
 4323TIP3    H112846   6.197   3.717   3.122
 4323TIP3    H212847   6.213   3.866   3.103
 4324TIP3   OH212848   6.179   4.068   2.843
 4324TIP3    H112849   6.125   4.129   2.794
 4324TIP3    H212850   6.268   4.083   2.812
 4325TIP3   OH212851   5.377   3.598   3.255
 4325TIP3    H112852   5.331   3.523   3.291
 4325TIP3    H212853   5.431   3.561   3.185
 4326TIP3   OH212854   5.666   3.085   2.964
 4326TIP3    H112855   5.629   3.164   2.926
 4326TIP3    H212856   5.600   3.017   2.949
 4327TIP3   OH212857   5.792   3.555   3.163
 4327TIP3    H112858   5.777   3.552   3.257
 4327TIP3    H212859   5.708   3.533   3.123
 4328TIP3   OH212860   6.029   3.497   3.027
 4328TIP3    H112861   5.952   3.507   3.082
 4328TIP3    H212862   6.101   3.483   3.088
 4329TIP3   OH212863   6.274   3.481   3.176
 4329TIP3    H112864   6.287   3.386   3.183
 4329TIP3    H212865   6.266   3.511   3.267
 4330TIP3   OH212866   5.252   3.374   3.364
 4330TIP3    H112867   5.260   3.282   3.337
 4330TIP3    H212868   5.290   3.377   3.451
 4331TIP3   OH212869   5.733   3.059   3.229
 4331TIP3    H112870   5.806   2.998   3.220
 4331TIP3    H212871   5.702   3.074   3.140
 4332TIP3   OH212872   5.801   3.285   3.382
 4332TIP3    H112873   5.776   3.217   3.319
 4332TIP3    H212874   5.731   3.350   3.376
 4333TIP3   OH212875   5.088   4.531   1.474
 4333TIP3    H112876   5.175   4.506   1.443
 4333TIP3    H212877   5.048   4.575   1.399
 4334TIP3   OH212878   4.550   3.912   1.643
 4334TIP3    H112879   4.645   3.921   1.646
 4334TIP3    H212880   4.535   3.824   1.608
 4335TIP3   OH212881   4.459   4.492   2.110
 4335TIP3    H112882   4.392   4.442   2.064
 4335TIP3    H212883   4.500   4.428   2.169
 4336TIP3   OH212884   4.600   4.320   2.279
 4336TIP3    H112885   4.591   4.253   2.346
 4336TIP3    H212886   4.651   4.390   2.321
 4337TIP3   OH212887   6.336   4.730   2.094
 4337TIP3    H112888   6.353   4.753   2.185
 4337TIP3    H212889   6.386   4.793   2.043
 4338TIP3   OH212890   6.353   4.761   2.373
 4338TIP3    H112891   6.305   4.678   2.369
 4338TIP3    H212892   6.423   4.745   2.436
 4339TIP3   OH212893   6.411   4.463   2.940
 4339TIP3    H112894   6.337   4.471   2.999
 4339TIP3    H212895   6.457   4.547   2.947
 4340TIP3   OH212896   6.234   3.975   1.549
 4340TIP3    H112897   6.292   4.046   1.521
 4340TIP3    H212898   6.278   3.937   1.626
 4341TIP3   OH212899   6.363   3.833   1.752
 4341TIP3    H112900   6.296   3.797   1.810
 4341TIP3    H212901   6.428   3.871   1.811
 4342TIP3   OH212902   6.403   4.238   2.187
 4342TIP3    H112903   6.456   4.170   2.145
 4342TIP3    H212904   6.405   4.311   2.126
 4343TIP3   OH212905   6.210   4.524   2.374
 4343TIP3    H112906   6.143   4.567   2.427
 4343TIP3    H212907   6.162   4.482   2.303
 4344TIP3   OH212908   6.264   3.748   1.398
 4344TIP3    H112909   6.190   3.749   1.336
 4344TIP3    H212910   6.251   3.826   1.451
 4345TIP3   OH212911   6.126   3.393   1.329
 4345TIP3    H112912   6.074   3.430   1.257
 4345TIP3    H212913   6.117   3.298   1.318
 4346TIP3   OH212914   6.157   3.697   1.888
 4346TIP3    H112915   6.161   3.602   1.875
 4346TIP3    H212916   6.136   3.707   1.981
 4347TIP3   OH212917   4.773   3.755   2.667
 4347TIP3    H112918   4.764   3.726   2.576
 4347TIP3    H212919   4.867   3.751   2.684
 4348TIP3   OH212920   6.437   4.113   2.749
 4348TIP3    H112921   6.504   4.046   2.734
 4348TIP3    H212922   6.454   4.179   2.683
 4349TIP3   OH212923   6.615   3.901   2.739
 4349TIP3    H112924   6.541   3.859   2.783
 4349TIP3    H212925   6.690   3.846   2.761
 4350TIP3   OH212926   6.084   3.120   1.304
 4350TIP3    H112927   6.144   3.099   1.376
 4350TIP3    H212928   5.998   3.089   1.334
 4351TIP3   OH212929   6.147   3.417   1.773
 4351TIP3    H112930   6.193   3.334   1.786
 4351TIP3    H212931   6.188   3.456   1.696
 4352TIP3   OH212932   6.300   3.581   2.298
 4352TIP3    H112933   6.381   3.599   2.251
 4352TIP3    H212934   6.313   3.622   2.384
 4353TIP3   OH212935   6.374   3.731   2.525
 4353TIP3    H112936   6.304   3.759   2.583
 4353TIP3    H212937   6.404   3.812   2.484
 4354TIP3   OH212938   4.989   3.433   3.298
 4354TIP3    H112939   5.083   3.435   3.319
 4354TIP3    H212940   4.956   3.354   3.341
 4355TIP3   OH212941   6.840   3.326   3.066
 4355TIP3    H112942   6.904   3.270   3.022
 4355TIP3    H212943   6.802   3.378   2.996
 4356TIP3   OH212944   6.264   3.168   1.824
 4356TIP3    H112945   6.309   3.154   1.908
 4356TIP3    H212946   6.201   3.096   1.819
 4357TIP3   OH212947   4.972   3.151   2.651
 4357TIP3    H112948   5.026   3.072   2.657
 4357TIP3    H212949   5.034   3.222   2.634
 4358TIP3   OH212950   4.749   3.414   2.715
 4358TIP3    H112951   4.801   3.406   2.635
 4358TIP3    H212952   4.770   3.500   2.749
 4359TIP3   OH212953   6.688   3.455   2.880
 4359TIP3    H112954   6.617   3.495   2.930
 4359TIP3    H212955   6.644   3.395   2.821
 4360TIP3   OH212956   6.307   3.081   1.466
 4360TIP3    H112957   6.356   3.020   1.410
 4360TIP3    H212958   6.362   3.159   1.471
 4361TIP3   OH212959   4.737   2.924   2.215
 4361TIP3    H112960   4.652   2.913   2.257
 4361TIP3    H212961   4.719   2.978   2.139
 4362TIP3   OH212962   5.898   4.643   1.730
 4362TIP3    H112963   5.958   4.637   1.655
 4362TIP3    H212964   5.936   4.711   1.785
 4363TIP3   OH212965   4.959   2.963   3.032
 4363TIP3    H112966   4.914   2.969   3.116
 4363TIP3    H212967   4.907   3.019   2.974
 4364TIP3   OH212968   4.990   4.436   3.117
 4364TIP3    H112969   4.897   4.418   3.106
 4364TIP3    H212970   5.007   4.418   3.210
 4365TIP3   OH212971   5.200   4.483   2.662
 4365TIP3    H112972   5.149   4.558   2.631
 4365TIP3    H212973   5.285   4.493   2.619
 4366TIP3   OH212974   5.604   4.721   2.816
 4366TIP3    H112975   5.640   4.717   2.904
 4366TIP3    H212976   5.668   4.772   2.766
 4367TIP3   OH212977   5.793   4.871   2.681
 4367TIP3    H112978   5.854   4.815   2.632
 4367TIP3    H212979   5.850   4.928   2.734
 4368TIP3   OH212980   6.594   3.206   2.760
 4368TIP3    H112981   6.512   3.208   2.712
 4368TIP3    H212982   6.624   3.115   2.753
 4369TIP3   OH212983   4.864   4.723   2.711
 4369TIP3    H112984   4.772   4.738   2.686
 4369TIP3    H212985   4.883   4.789   2.776
 4370TIP3   OH212986   5.094   4.717   2.561
 4370TIP3    H112987   5.011   4.720   2.608
 4370TIP3    H212988   5.071   4.741   2.471
 4371TIP3   OH212989   5.508   4.735   2.351
 4371TIP3    H112990   5.433   4.745   2.291
 4371TIP3    H212991   5.517   4.820   2.392
 4372TIP3   OH212992   5.770   4.668   2.400
 4372TIP3    H112993   5.679   4.689   2.381
 4372TIP3    H212994   5.820   4.736   2.354
 4373TIP3   OH212995   5.971   4.839   2.303
 4373TIP3    H112996   5.970   4.927   2.264
 4373TIP3    H212997   6.002   4.782   2.233
 4374TIP3   OH212998   4.774   4.499   2.421
 4374TIP3    H112999   4.794   4.473   2.511
 4374TIP3    H213000   4.847   4.464   2.369
 4375TIP3   OH213001   4.980   4.384   2.284
 4375TIP3    H113002   4.991   4.299   2.328
 4375TIP3    H213003   5.066   4.425   2.290
 4376TIP3   OH213004   5.247   4.473   2.310
 4376TIP3    H113005   5.267   4.381   2.295
 4376TIP3    H213006   5.299   4.497   2.387
 4377TIP3   OH213007   5.802   3.122   2.395
 4377TIP3    H113008   5.763   3.051   2.447
 4377TIP3    H213009   5.870   3.079   2.344
 4378TIP3   OH213010   6.307   3.036   2.281
 4378TIP3    H113011   6.344   3.087   2.209
 4378TIP3    H213012   6.215   3.063   2.285
 4379TIP3   OH213013   6.423   3.116   2.045
 4379TIP3    H113014   6.492   3.054   2.019
 4379TIP3    H213015   6.462   3.202   2.032
 4380TIP3   OH213016   5.044   2.823   2.393
 4380TIP3    H113017   4.955   2.790   2.404
 4380TIP3    H213018   5.098   2.744   2.385
 4381TIP3   OH213019   4.867   2.732   2.050
 4381TIP3    H113020   4.891   2.781   1.972
 4381TIP3    H213021   4.828   2.797   2.109
 4382TIP3   OH213022   5.529   2.859   2.291
 4382TIP3    H113023   5.574   2.909   2.223
 4382TIP3    H213024   5.566   2.891   2.373
 4383TIP3   OH213025   6.016   3.004   2.265
 4383TIP3    H113026   6.031   2.969   2.177
 4383TIP3    H213027   6.023   2.929   2.323
 4384TIP3   OH213028   6.077   2.958   1.833
 4384TIP3    H113029   5.998   3.006   1.857
 4384TIP3    H213030   6.066   2.871   1.872
 4385TIP3   OH213031   4.535   4.300   1.804
 4385TIP3    H113032   4.449   4.271   1.773
 4385TIP3    H213033   4.542   4.391   1.775
 4386TIP3   OH213034   4.973   2.860   1.811
 4386TIP3    H113035   5.019   2.799   1.754
 4386TIP3    H213036   5.041   2.916   1.847
 4387TIP3   OH213037   5.459   3.056   1.908
 4387TIP3    H113038   5.518   3.004   1.963
 4387TIP3    H213039   5.472   3.146   1.936
 4388TIP3   OH213040   5.339   4.449   1.400
 4388TIP3    H113041   5.423   4.477   1.364
 4388TIP3    H213042   5.311   4.378   1.343
 4389TIP3   OH213043   6.049   4.604   1.498
 4389TIP3    H113044   6.041   4.509   1.495
 4389TIP3    H213045   5.997   4.635   1.425
 4390TIP3   OH213046   5.264   3.103   3.273
 4390TIP3    H113047   5.230   3.036   3.332
 4390TIP3    H213048   5.356   3.114   3.298
 4391TIP3   OH213049   5.511   3.118   3.393
 4391TIP3    H113050   5.590   3.093   3.345
 4391TIP3    H213051   5.501   3.051   3.460
 4392TIP3   OH213052   4.645   4.294   1.460
 4392TIP3    H113053   4.640   4.305   1.555
 4392TIP3    H213054   4.727   4.248   1.444
 4393TIP3   OH213055   6.341   3.207   3.187
 4393TIP3    H113056   6.356   3.179   3.277
 4393TIP3    H213057   6.427   3.201   3.145
 4394TIP3   OH213058   6.260   4.736   2.690
 4394TIP3    H113059   6.185   4.707   2.638
 4394TIP3    H213060   6.248   4.831   2.698
 4395TIP3   OH213061   7.535   4.119   1.431
 4395TIP3    H113062   7.503   4.206   1.409
 4395TIP3    H213063   7.464   4.060   1.407
 4396TIP3   OH213064   7.533   4.113   1.857
 4396TIP3    H113065   7.587   4.097   1.934
 4396TIP3    H213066   7.489   4.030   1.840
 4397TIP3   OH213067   6.832   3.976   2.199
 4397TIP3    H113068   6.870   3.925   2.271
 4397TIP3    H213069   6.907   4.002   2.145
 4398TIP3   OH213070   7.805   4.420   1.530
 4398TIP3    H113071   7.792   4.352   1.596
 4398TIP3    H213072   7.826   4.498   1.580
 4399TIP3   OH213073   6.827   4.398   1.878
 4399TIP3    H113074   6.808   4.305   1.889
 4399TIP3    H213075   6.923   4.403   1.875
 4400TIP3   OH213076   6.509   3.605   1.669
 4400TIP3    H113077   6.472   3.690   1.695
 4400TIP3    H213078   6.435   3.558   1.631
 4401TIP3   OH213079   6.592   3.921   1.893
 4401TIP3    H113080   6.642   3.844   1.919
 4401TIP3    H213081   6.659   3.987   1.871
 4402TIP3   OH213082   7.468   4.844   1.554
 4402TIP3    H113083   7.491   4.783   1.483
 4402TIP3    H213084   7.480   4.793   1.634
 4403TIP3   OH213085   7.345   4.335   1.861
 4403TIP3    H113086   7.390   4.255   1.834
 4403TIP3    H213087   7.415   4.393   1.892
 4404TIP3   OH213088   8.366   3.652   1.878
 4404TIP3    H113089   8.382   3.737   1.921
 4404TIP3    H213090   8.404   3.662   1.791
 4405TIP3   OH213091   7.746   3.823   1.898
 4405TIP3    H113092   7.780   3.738   1.926
 4405TIP3    H213093   7.709   3.807   1.811
 4406TIP3   OH213094   7.102   3.482   1.856
 4406TIP3    H113095   7.082   3.555   1.797
 4406TIP3    H213096   7.046   3.411   1.825
 4407TIP3   OH213097   7.799   3.589   1.494
 4407TIP3    H113098   7.863   3.582   1.565
 4407TIP3    H213099   7.848   3.624   1.420
 4408TIP3   OH213100   6.728   3.698   1.986
 4408TIP3    H113101   6.811   3.681   2.030
 4408TIP3    H213102   6.732   3.647   1.905
 4409TIP3   OH213103   7.149   3.896   1.800
 4409TIP3    H113104   7.243   3.882   1.807
 4409TIP3    H213105   7.114   3.814   1.766
 4410TIP3   OH213106   8.417   3.866   2.048
 4410TIP3    H113107   8.335   3.914   2.041
 4410TIP3    H213108   8.461   3.906   2.123
 4411TIP3   OH213109   7.085   3.486   2.307
 4411TIP3    H113110   7.036   3.523   2.234
 4411TIP3    H213111   7.030   3.503   2.384
 4412TIP3   OH213112   7.407   4.327   1.307
 4412TIP3    H113113   7.379   4.312   1.217
 4412TIP3    H213114   7.364   4.409   1.332
 4413TIP3   OH213115   7.178   4.261   2.069
 4413TIP3    H113116   7.126   4.334   2.104
 4413TIP3    H213117   7.228   4.300   1.998
 4414TIP3   OH213118   7.957   3.612   1.716
 4414TIP3    H113119   7.914   3.593   1.800
 4414TIP3    H213120   8.015   3.685   1.735
 4415TIP3   OH213121   6.976   3.595   2.077
 4415TIP3    H113122   7.031   3.670   2.100
 4415TIP3    H213123   7.023   3.552   2.005
 4416TIP3   OH213124   7.024   4.464   2.177
 4416TIP3    H113125   7.011   4.555   2.148
 4416TIP3    H213126   6.946   4.445   2.229
 4417TIP3   OH213127   6.406   4.167   1.436
 4417TIP3    H113128   6.369   4.196   1.353
 4417TIP3    H213129   6.433   4.248   1.480
 4418TIP3   OH213130   7.837   4.660   1.677
 4418TIP3    H113131   7.748   4.655   1.712
 4418TIP3    H213132   7.840   4.744   1.631
 4419TIP3   OH213133   8.178   3.535   2.050
 4419TIP3    H113134   8.093   3.564   2.017
 4419TIP3    H213135   8.240   3.563   1.983
 4420TIP3   OH213136   7.426   3.176   2.042
 4420TIP3    H113137   7.419   3.084   2.068
 4420TIP3    H213138   7.350   3.218   2.081
 4421TIP3   OH213139   7.544   4.696   1.331
 4421TIP3    H113140   7.602   4.621   1.321
 4421TIP3    H213141   7.591   4.769   1.292
 4422TIP3   OH213142   7.703   4.482   1.282
 4422TIP3    H113143   7.699   4.402   1.230
 4422TIP3    H213144   7.742   4.455   1.365
 4423TIP3   OH213145   8.070   4.558   2.013
 4423TIP3    H113146   8.053   4.483   1.956
 4423TIP3    H213147   8.057   4.635   1.957
 4424TIP3   OH213148   7.359   3.957   1.283
 4424TIP3    H113149   7.280   4.006   1.263
 4424TIP3    H213150   7.409   3.957   1.201
 4425TIP3   OH213151   7.334   3.769   0.967
 4425TIP3    H113152   7.399   3.819   1.017
 4425TIP3    H213153   7.385   3.700   0.924
 4426TIP3   OH213154   8.251   4.217   1.886
 4426TIP3    H113155   8.167   4.263   1.883
 4426TIP3    H213156   8.286   4.226   1.797
 4427TIP3   OH213157   7.721   4.051   1.243
 4427TIP3    H113158   7.666   4.077   1.317
 4427TIP3    H213159   7.804   4.025   1.284
 4428TIP3   OH213160   7.950   4.077   2.193
 4428TIP3    H113161   7.947   4.161   2.239
 4428TIP3    H213162   7.868   4.074   2.143
 4429TIP3   OH213163   6.952   4.029   1.648
 4429TIP3    H113164   6.917   3.968   1.583
 4429TIP3    H213165   7.025   3.983   1.688
 4430TIP3   OH213166   7.093   4.450   1.793
 4430TIP3    H113167   7.071   4.435   1.701
 4430TIP3    H213168   7.181   4.413   1.802
 4431TIP3   OH213169   7.046   4.026   2.023
 4431TIP3    H113170   7.086   3.989   1.944
 4431TIP3    H213171   7.094   4.107   2.039
 4432TIP3   OH213172   7.591   4.662   1.796
 4432TIP3    H113173   7.581   4.741   1.849
 4432TIP3    H213174   7.580   4.590   1.858
 4433TIP3   OH213175   7.222   4.561   2.348
 4433TIP3    H113176   7.161   4.617   2.395
 4433TIP3    H213177   7.166   4.509   2.289
 4434TIP3   OH213178   7.548   3.918   1.076
 4434TIP3    H113179   7.609   3.973   1.124
 4434TIP3    H213180   7.574   3.927   0.985
 4435TIP3   OH213181   6.975   4.105   2.491
 4435TIP3    H113182   6.980   4.199   2.509
 4435TIP3    H213183   6.881   4.088   2.484
 4436TIP3   OH213184   7.295   4.579   1.347
 4436TIP3    H113185   7.380   4.621   1.356
 4436TIP3    H213186   7.240   4.643   1.302
 4437TIP3   OH213187   7.011   4.718   2.434
 4437TIP3    H113188   6.986   4.730   2.342
 4437TIP3    H213189   6.929   4.704   2.480
 4438TIP3   OH213190   8.051   3.149   1.181
 4438TIP3    H113191   7.973   3.178   1.229
 4438TIP3    H213192   8.068   3.219   1.118
 4439TIP3   OH213193   6.826   3.870   1.448
 4439TIP3    H113194   6.748   3.918   1.419
 4439TIP3    H213195   6.794   3.782   1.468
 4440TIP3   OH213196   7.873   4.495   0.692
 4440TIP3    H113197   7.876   4.589   0.674
 4440TIP3    H213198   7.963   4.466   0.684
 4441TIP3   OH213199   6.606   4.277   2.381
 4441TIP3    H113200   6.536   4.259   2.319
 4441TIP3    H213201   6.640   4.191   2.405
 4442TIP3   OH213202   6.447   4.476   2.037
 4442TIP3    H113203   6.537   4.499   2.058
 4442TIP3    H213204   6.396   4.552   2.066
 4443TIP3   OH213205   8.302   4.913   2.085
 4443TIP3    H113206   8.307   4.818   2.099
 4443TIP3    H213207   8.223   4.940   2.131
 4444TIP3   OH213208   7.410   4.705   2.210
 4444TIP3    H113209   7.403   4.796   2.239
 4444TIP3    H213210   7.343   4.659   2.260
 4445TIP3   OH213211   7.189   4.785   1.186
 4445TIP3    H113212   7.150   4.774   1.100
 4445TIP3    H213213   7.162   4.873   1.213
 4446TIP3   OH213214   6.618   4.664   1.548
 4446TIP3    H113215   6.667   4.657   1.630
 4446TIP3    H213216   6.573   4.580   1.540
 4447TIP3   OH213217   7.375   4.703   0.788
 4447TIP3    H113218   7.432   4.632   0.759
 4447TIP3    H213219   7.388   4.706   0.883
 4448TIP3   OH213220   7.423   4.704   1.065
 4448TIP3    H113221   7.344   4.727   1.114
 4448TIP3    H213222   7.481   4.664   1.130
 4449TIP3   OH213223   8.191   4.044   2.360
 4449TIP3    H113224   8.111   4.051   2.309
 4449TIP3    H213225   8.213   3.951   2.359
 4450TIP3   OH213226   6.805   4.464   2.347
 4450TIP3    H113227   6.856   4.453   2.427
 4450TIP3    H213228   6.733   4.401   2.354
 4451TIP3   OH213229   7.189   3.269   2.166
 4451TIP3    H113230   7.106   3.236   2.133
 4451TIP3    H213231   7.167   3.350   2.211
 4452TIP3   OH213232   7.734   3.391   2.367
 4452TIP3    H113233   7.805   3.367   2.427
 4452TIP3    H213234   7.654   3.376   2.416
 4453TIP3   OH213235   7.951   3.808   2.276
 4453TIP3    H113236   7.913   3.805   2.364
 4453TIP3    H213237   7.939   3.899   2.248
 4454TIP3   OH213238   7.621   3.925   0.815
 4454TIP3    H113239   7.581   3.914   0.729
 4454TIP3    H213240   7.709   3.959   0.796
 4455TIP3   OH213241   7.332   3.319   1.137
 4455TIP3    H113242   7.296   3.319   1.226
 4455TIP3    H213243   7.300   3.237   1.099
 4456TIP3   OH213244   7.128   3.805   2.172
 4456TIP3    H113245   7.083   3.813   2.256
 4456TIP3    H213246   7.107   3.887   2.126
 4457TIP3   OH213247   7.008   3.681   1.692
 4457TIP3    H113248   6.919   3.658   1.718
 4457TIP3    H213249   7.017   3.648   1.603
 4458TIP3   OH213250   7.484   3.757   1.423
 4458TIP3    H113251   7.436   3.829   1.383
 4458TIP3    H213252   7.546   3.730   1.356
 4459TIP3   OH213253   7.674   4.021   2.492
 4459TIP3    H113254   7.649   3.954   2.555
 4459TIP3    H213255   7.767   4.038   2.511
 4460TIP3   OH213256   7.651   3.770   1.647
 4460TIP3    H113257   7.583   3.792   1.583
 4460TIP3    H213258   7.700   3.698   1.607
 4461TIP3   OH213259   6.965   3.821   2.393
 4461TIP3    H113260   6.976   3.886   2.462
 4461TIP3    H213261   6.947   3.739   2.440
 4462TIP3   OH213262   7.001   3.292   1.110
 4462TIP3    H113263   6.993   3.297   1.206
 4462TIP3    H213264   6.923   3.338   1.077
 4463TIP3   OH213265   6.559   3.336   1.972
 4463TIP3    H113266   6.628   3.373   2.027
 4463TIP3    H213267   6.600   3.324   1.886
 4464TIP3   OH213268   6.461   3.313   1.477
 4464TIP3    H113269   6.505   3.348   1.400
 4464TIP3    H213270   6.398   3.381   1.502
 4465TIP3   OH213271   7.698   4.025   2.071
 4465TIP3    H113272   7.723   3.959   2.007
 4465TIP3    H213273   7.654   3.976   2.141
 4466TIP3   OH213274   7.367   3.473   1.746
 4466TIP3    H113275   7.289   3.474   1.802
 4466TIP3    H213276   7.440   3.466   1.806
 4467TIP3   OH213277   6.768   3.558   1.753
 4467TIP3    H113278   6.681   3.562   1.715
 4467TIP3    H213279   6.797   3.468   1.737
 4468TIP3   OH213280   7.020   3.558   1.446
 4468TIP3    H113281   7.115   3.570   1.437
 4468TIP3    H213282   6.985   3.576   1.359
 4469TIP3   OH213283   7.816   3.559   1.952
 4469TIP3    H113284   7.798   3.576   2.044
 4469TIP3    H213285   7.746   3.500   1.924
 4470TIP3   OH213286   6.910   3.583   1.196
 4470TIP3    H113287   6.846   3.536   1.144
 4470TIP3    H213288   6.965   3.628   1.132
 4471TIP3   OH213289   8.016   5.264   2.172
 4471TIP3    H113290   8.012   5.281   2.077
 4471TIP3    H213291   8.096   5.310   2.200
 4472TIP3   OH213292   6.960   4.373   2.581
 4472TIP3    H113293   7.041   4.394   2.629
 4472TIP3    H213294   6.891   4.384   2.646
 4473TIP3   OH213295   7.421   3.843   1.851
 4473TIP3    H113296   7.489   3.796   1.802
 4473TIP3    H213297   7.420   3.802   1.937
 4474TIP3   OH213298   6.909   3.309   1.738
 4474TIP3    H113299   6.883   3.233   1.790
 4474TIP3    H213300   6.932   3.273   1.652
 4475TIP3   OH213301   7.394   3.746   2.116
 4475TIP3    H113302   7.307   3.779   2.139
 4475TIP3    H213303   7.455   3.797   2.168
 4476TIP3   OH213304   7.127   4.100   1.219
 4476TIP3    H113305   7.053   4.042   1.199
 4476TIP3    H213306   7.103   4.141   1.302
 4477TIP3   OH213307   8.015   4.353   1.837
 4477TIP3    H113308   8.052   4.402   1.763
 4477TIP3    H213309   7.936   4.312   1.802
 4478TIP3   OH213310   7.580   3.432   1.152
 4478TIP3    H113311   7.487   3.413   1.148
 4478TIP3    H213312   7.585   3.527   1.164
 4479TIP3   OH213313   7.535   4.437   2.247
 4479TIP3    H113314   7.589   4.427   2.325
 4479TIP3    H213315   7.498   4.525   2.255
 4480TIP3   OH213316   7.652   3.693   1.210
 4480TIP3    H113317   7.747   3.696   1.218
 4480TIP3    H213318   7.630   3.768   1.154
 4481TIP3   OH213319   6.814   4.106   1.876
 4481TIP3    H113320   6.854   4.090   1.790
 4481TIP3    H213321   6.881   4.079   1.938
 4482TIP3   OH213322   7.286   4.255   1.058
 4482TIP3    H113323   7.238   4.338   1.060
 4482TIP3    H213324   7.233   4.196   1.112
 4483TIP3   OH213325   6.699   4.042   2.510
 4483TIP3    H113326   6.702   4.016   2.602
 4483TIP3    H213327   6.624   3.996   2.473
 4484TIP3   OH213328   7.443   4.177   2.535
 4484TIP3    H113329   7.374   4.118   2.507
 4484TIP3    H213330   7.524   4.136   2.504
 4485TIP3   OH213331   7.681   4.724   2.135
 4485TIP3    H113332   7.586   4.713   2.137
 4485TIP3    H213333   7.703   4.761   2.220
 4486TIP3   OH213334   8.070   3.776   1.024
 4486TIP3    H113335   7.999   3.738   0.972
 4486TIP3    H213336   8.080   3.865   0.990
 4487TIP3   OH213337   8.316   4.630   2.107
 4487TIP3    H113338   8.221   4.619   2.099
 4487TIP3    H213339   8.350   4.604   2.022
 4488TIP3   OH213340   7.804   4.558   0.960
 4488TIP3    H113341   7.782   4.484   1.016
 4488TIP3    H213342   7.822   4.519   0.875
 4489TIP3   OH213343   7.787   4.219   1.732
 4489TIP3    H113344   7.697   4.197   1.757
 4489TIP3    H213345   7.822   4.138   1.695
 4490TIP3   OH213346   6.948   4.450   1.553
 4490TIP3    H113347   6.942   4.530   1.501
 4490TIP3    H213348   6.860   4.438   1.590
 4491TIP3   OH213349   6.503   3.739   1.261
 4491TIP3    H113350   6.546   3.821   1.284
 4491TIP3    H213351   6.422   3.739   1.312
 4492TIP3   OH213352   7.027   4.208   1.446
 4492TIP3    H113353   7.014   4.297   1.477
 4492TIP3    H213354   7.003   4.152   1.520
 4493TIP3   OH213355   7.228   4.778   2.003
 4493TIP3    H113356   7.264   4.852   1.953
 4493TIP3    H213357   7.302   4.745   2.053
 4494TIP3   OH213358   6.860   4.679   1.418
 4494TIP3    H113359   6.771   4.681   1.453
 4494TIP3    H213360   6.889   4.770   1.422
 4495TIP3   OH213361   7.577   4.443   1.973
 4495TIP3    H113362   7.563   4.438   2.068
 4495TIP3    H213363   7.658   4.394   1.958
 4496TIP3   OH213364   7.577   4.303   0.863
 4496TIP3    H113365   7.629   4.293   0.943
 4496TIP3    H213366   7.488   4.281   0.890
 4497TIP3   OH213367   7.834   4.931   2.021
 4497TIP3    H113368   7.765   4.867   2.040
 4497TIP3    H213369   7.799   4.982   1.948
 4498TIP3   OH213370   7.896   4.765   0.647
 4498TIP3    H113371   7.934   4.810   0.572
 4498TIP3    H213372   7.815   4.812   0.665
 4499TIP3   OH213373   6.913   3.566   2.512
 4499TIP3    H113374   6.817   3.576   2.517
 4499TIP3    H213375   6.936   3.519   2.592
 4500TIP3   OH213376   7.749   4.271   1.078
 4500TIP3    H113377   7.729   4.196   1.134
 4500TIP3    H213378   7.843   4.263   1.060
 4501TIP3   OH213379   6.655   4.667   2.161
 4501TIP3    H113380   6.708   4.606   2.214
 4501TIP3    H213381   6.670   4.752   2.202
 4502TIP3   OH213382   6.936   4.285   0.854
 4502TIP3    H113383   6.944   4.193   0.829
 4502TIP3    H213384   6.912   4.283   0.947
 4503TIP3   OH213385   6.864   4.299   1.126
 4503TIP3    H113386   6.933   4.262   1.181
 4503TIP3    H213387   6.869   4.393   1.142
 4504TIP3   OH213388   6.598   3.989   1.340
 4504TIP3    H113389   6.535   4.037   1.392
 4504TIP3    H213390   6.618   4.047   1.266
 4505TIP3   OH213391   7.759   3.620   2.213
 4505TIP3    H113392   7.837   3.667   2.243
 4505TIP3    H213393   7.753   3.544   2.271
 4506TIP3   OH213394   7.640   3.376   1.416
 4506TIP3    H113395   7.622   3.393   1.323
 4506TIP3    H213396   7.686   3.454   1.446
 4507TIP3   OH213397   7.136   4.480   1.074
 4507TIP3    H113398   7.058   4.504   1.123
 4507TIP3    H213399   7.155   4.556   1.019
 4508TIP3   OH213400   7.299   3.566   1.492
 4508TIP3    H113401   7.361   3.633   1.465
 4508TIP3    H213402   7.321   3.546   1.583
 4509TIP3   OH213403   7.600   3.858   2.267
 4509TIP3    H113404   7.626   3.902   2.348
 4509TIP3    H213405   7.651   3.777   2.267
 4510TIP3   OH213406   7.460   3.263   1.588
 4510TIP3    H113407   7.434   3.339   1.640
 4510TIP3    H213408   7.529   3.295   1.531
 4511TIP3   OH213409   6.891   4.569   1.172
 4511TIP3    H113410   6.879   4.650   1.122
 4511TIP3    H213411   6.884   4.596   1.263
 4512TIP3   OH213412   6.977   3.285   1.390
 4512TIP3    H113413   6.966   3.376   1.417
 4512TIP3    H213414   7.071   3.268   1.397
 4513TIP3   OH213415   8.221   3.776   2.273
 4513TIP3    H113416   8.126   3.770   2.275
 4513TIP3    H213417   8.245   3.745   2.186
 4514TIP3   OH213418   7.879   3.962   1.646
 4514TIP3    H113419   7.803   3.905   1.660
 4514TIP3    H213420   7.948   3.924   1.700
 4515TIP3   OH213421   6.621   4.165   1.122
 4515TIP3    H113422   6.693   4.227   1.133
 4515TIP3    H213423   6.653   4.101   1.059
 4516TIP3   OH213424   6.520   3.460   1.253
 4516TIP3    H113425   6.538   3.554   1.264
 4516TIP3    H213426   6.449   3.457   1.190
 4517TIP3   OH213427   7.861   4.922   1.593
 4517TIP3    H113428   7.815   4.972   1.525
 4517TIP3    H213429   7.953   4.946   1.583
 4518TIP3   OH213430   6.929   3.182   2.122
 4518TIP3    H113431   6.899   3.151   2.036
 4518TIP3    H213432   6.920   3.107   2.180
 4519TIP3   OH213433   6.462   4.428   1.540
 4519TIP3    H113434   6.423   4.464   1.619
 4519TIP3    H213435   6.409   4.464   1.468
 4520TIP3   OH213436   6.651   4.976   2.583
 4520TIP3    H113437   6.733   4.981   2.631
 4520TIP3    H213438   6.633   4.882   2.575
 4521TIP3   OH213439   7.118   4.882   2.628
 4521TIP3    H113440   7.210   4.857   2.636
 4521TIP3    H213441   7.084   4.828   2.557
 4522TIP3   OH213442   7.089   4.496   0.762
 4522TIP3    H113443   7.040   4.424   0.802
 4522TIP3    H213444   7.167   4.455   0.725
 4523TIP3   OH213445   7.737   4.824   2.384
 4523TIP3    H113446   7.751   4.754   2.448
 4523TIP3    H213447   7.811   4.883   2.396
 4524TIP3   OH213448   7.521   4.507   0.678
 4524TIP3    H113449   7.570   4.444   0.731
 4524TIP3    H213450   7.573   4.518   0.598
 4525TIP3   OH213451   6.755   4.376   2.771
 4525TIP3    H113452   6.774   4.283   2.784
 4525TIP3    H213453   6.668   4.378   2.733
 4526TIP3   OH213454   6.744   3.975   0.970
 4526TIP3    H113455   6.795   3.951   1.047
 4526TIP3    H213456   6.809   3.991   0.901
 4527TIP3   OH213457   7.377   4.455   2.551
 4527TIP3    H113458   7.333   4.477   2.469
 4527TIP3    H213459   7.412   4.367   2.537
 4528TIP3   OH213460   7.281   4.199   0.789
 4528TIP3    H113461   7.274   4.211   0.883
 4528TIP3    H213462   7.275   4.105   0.775
 4529TIP3   OH213463   7.847   4.500   2.166
 4529TIP3    H113464   7.925   4.527   2.118
 4529TIP3    H213465   7.784   4.570   2.151
 4530TIP3   OH213466   6.870   4.120   2.782
 4530TIP3    H113467   6.946   4.102   2.727
 4530TIP3    H213468   6.907   4.140   2.868
 4531TIP3   OH213469   6.919   3.919   1.181
 4531TIP3    H113470   6.900   3.889   1.269
 4531TIP3    H213471   6.968   3.847   1.141
 4532TIP3   OH213472   7.236   4.003   2.439
 4532TIP3    H113473   7.150   4.043   2.449
 4532TIP3    H213474   7.266   4.032   2.353
 4533TIP3   OH213475   7.060   3.735   1.023
 4533TIP3    H113476   7.030   3.739   0.932
 4533TIP3    H213477   7.156   3.743   1.016
 4534TIP3   OH213478   7.732   4.375   2.518
 4534TIP3    H113479   7.802   4.340   2.464
 4534TIP3    H213480   7.730   4.318   2.595
 4535TIP3   OH213481   7.856   4.019   0.704
 4535TIP3    H113482   7.841   3.974   0.620
 4535TIP3    H213483   7.827   4.109   0.688
 4536TIP3   OH213484   7.336   3.770   2.546
 4536TIP3    H113485   7.340   3.700   2.480
 4536TIP3    H213486   7.303   3.846   2.498
 4537TIP3   OH213487   7.345   3.571   2.342
 4537TIP3    H113488   7.372   3.610   2.259
 4537TIP3    H213489   7.254   3.545   2.328
 4538TIP3   OH213490   7.348   4.099   2.211
 4538TIP3    H113491   7.437   4.133   2.200
 4538TIP3    H213492   7.293   4.159   2.162
 4539TIP3   OH213493   7.944   4.057   2.589
 4539TIP3    H113494   7.987   3.972   2.593
 4539TIP3    H213495   8.015   4.119   2.575
 4540TIP3   OH213496   7.971   4.323   2.330
 4540TIP3    H113497   7.918   4.384   2.280
 4540TIP3    H213498   8.060   4.337   2.299
 4541TIP3   OH213499   7.222   3.853   2.790
 4541TIP3    H113500   7.151   3.792   2.810
 4541TIP3    H213501   7.249   3.829   2.701
 4542TIP3   OH213502   7.467   3.341   2.446
 4542TIP3    H113503   7.427   3.421   2.412
 4542TIP3    H213504   7.400   3.273   2.432
 4543TIP3   OH213505   7.593   3.810   2.648
 4543TIP3    H113506   7.583   3.798   2.742
 4543TIP3    H213507   7.507   3.789   2.612
 4544TIP3   OH213508   7.840   3.767   2.518
 4544TIP3    H113509   7.761   3.767   2.572
 4544TIP3    H213510   7.910   3.743   2.579
 4545TIP3   OH213511   8.067   3.727   2.675
 4545TIP3    H113512   8.085   3.633   2.680
 4545TIP3    H213513   8.066   3.755   2.767
 4546TIP3   OH213514   7.053   3.633   2.851
 4546TIP3    H113515   7.060   3.544   2.816
 4546TIP3    H213516   7.092   3.627   2.938
 4547TIP3   OH213517   7.532   3.315   2.711
 4547TIP3    H113518   7.602   3.250   2.703
 4547TIP3    H213519   7.502   3.328   2.621
 4548TIP3   OH213520   7.628   3.530   2.856
 4548TIP3    H113521   7.597   3.458   2.801
 4548TIP3    H213522   7.556   3.593   2.857
 4549TIP3   OH213523   6.878   4.810   1.032
 4549TIP3    H113524   6.963   4.788   0.993
 4549TIP3    H213525   6.815   4.798   0.961
 4550TIP3   OH213526   6.346   4.171   1.128
 4550TIP3    H113527   6.441   4.178   1.131
 4550TIP3    H213528   6.330   4.082   1.096
 4551TIP3   OH213529   6.262   4.750   1.597
 4551TIP3    H113530   6.196   4.697   1.552
 4551TIP3    H213531   6.304   4.689   1.657
 4552TIP3   OH213532   6.397   4.580   1.773
 4552TIP3    H113533   6.387   4.515   1.842
 4552TIP3    H213534   6.450   4.649   1.813
 4553TIP3   OH213535   8.116   5.013   1.579
 4553TIP3    H113536   8.150   5.029   1.667
 4553TIP3    H213537   8.193   5.019   1.522
 4554TIP3   OH213538   8.148   5.021   1.861
 4554TIP3    H113539   8.102   4.937   1.853
 4554TIP3    H213540   8.219   5.004   1.924
 4555TIP3   OH213541   8.197   4.711   2.427
 4555TIP3    H113542   8.124   4.718   2.488
 4555TIP3    H213543   8.238   4.798   2.428
 4556TIP3   OH213544   8.019   4.230   1.047
 4556TIP3    H113545   8.080   4.297   1.016
 4556TIP3    H213546   8.066   4.187   1.119
 4557TIP3   OH213547   8.153   4.088   1.242
 4557TIP3    H113548   8.087   4.052   1.301
 4557TIP3    H213549   8.219   4.126   1.300
 4558TIP3   OH213550   8.192   4.486   1.670
 4558TIP3    H113551   8.244   4.414   1.636
 4558TIP3    H213552   8.207   4.558   1.609
 4559TIP3   OH213553   8.009   4.780   1.864
 4559TIP3    H113554   7.942   4.824   1.917
 4559TIP3    H213555   7.959   4.738   1.794
 4560TIP3   OH213556   8.060   4.011   0.884
 4560TIP3    H113557   7.987   4.008   0.822
 4560TIP3    H213558   8.042   4.089   0.938
 4561TIP3   OH213559   7.869   3.691   0.865
 4561TIP3    H113560   7.806   3.721   0.799
 4561TIP3    H213561   7.867   3.595   0.859
 4562TIP3   OH213562   7.947   3.956   1.377
 4562TIP3    H113563   7.952   3.861   1.363
 4562TIP3    H213564   7.929   3.965   1.471
 4563TIP3   OH213565   6.569   4.017   2.148
 4563TIP3    H113566   6.560   3.985   2.059
 4563TIP3    H213567   6.663   4.012   2.166
 4564TIP3   OH213568   8.228   4.368   2.236
 4564TIP3    H113569   8.294   4.301   2.220
 4564TIP3    H213570   8.246   4.436   2.170
 4565TIP3   OH213571   8.405   4.159   2.231
 4565TIP3    H113572   8.332   4.120   2.279
 4565TIP3    H213573   8.479   4.101   2.249
 4566TIP3   OH213574   7.859   3.421   0.844
 4566TIP3    H113575   7.919   3.375   0.903
 4566TIP3    H213576   7.773   3.383   0.862
 4567TIP3   OH213577   7.940   3.686   1.264
 4567TIP3    H113578   7.986   3.604   1.281
 4567TIP3    H213579   7.985   3.723   1.188
 4568TIP3   OH213580   8.095   3.845   1.785
 4568TIP3    H113581   8.175   3.863   1.736
 4568TIP3    H213582   8.110   3.883   1.871
 4569TIP3   OH213583   8.166   3.990   2.017
 4569TIP3    H113584   8.094   4.020   2.072
 4569TIP3    H213585   8.198   4.069   1.974
 4570TIP3   OH213586   6.791   3.694   2.787
 4570TIP3    H113587   6.885   3.691   2.807
 4570TIP3    H213588   6.756   3.615   2.828
 4571TIP3   OH213589   8.625   3.587   2.555
 4571TIP3    H113590   8.685   3.530   2.507
 4571TIP3    H213591   8.584   3.642   2.488
 4572TIP3   OH213592   8.053   3.443   1.335
 4572TIP3    H113593   8.098   3.436   1.420
 4572TIP3    H213594   7.989   3.372   1.337
 4573TIP3   OH213595   6.768   3.409   2.139
 4573TIP3    H113596   6.822   3.330   2.145
 4573TIP3    H213597   6.830   3.479   2.123
 4574TIP3   OH213598   6.545   3.667   2.201
 4574TIP3    H113599   6.597   3.662   2.121
 4574TIP3    H213600   6.571   3.750   2.242
 4575TIP3   OH213601   8.472   3.703   2.364
 4575TIP3    H113602   8.386   3.743   2.373
 4575TIP3    H213603   8.456   3.625   2.310
 4576TIP3   OH213604   8.101   3.337   0.971
 4576TIP3    H113605   8.157   3.269   0.932
 4576TIP3    H213606   8.153   3.417   0.965
 4577TIP3   OH213607   6.532   3.172   1.700
 4577TIP3    H113608   6.447   3.164   1.744
 4577TIP3    H213609   6.515   3.230   1.625
 4578TIP3   OH213610   7.669   4.909   1.215
 4578TIP3    H113611   7.729   4.885   1.145
 4578TIP3    H213612   7.722   4.962   1.275
 4579TIP3   OH213613   6.757   3.226   2.524
 4579TIP3    H113614   6.711   3.230   2.608
 4579TIP3    H213615   6.703   3.280   2.466
 4580TIP3   OH213616   6.786   4.692   2.597
 4580TIP3    H113617   6.692   4.673   2.590
 4580TIP3    H213618   6.805   4.684   2.691
 4581TIP3   OH213619   6.999   4.740   2.151
 4581TIP3    H113620   6.947   4.814   2.118
 4581TIP3    H213621   7.084   4.750   2.109
 4582TIP3   OH213622   7.398   4.972   2.288
 4582TIP3    H113623   7.436   4.965   2.375
 4582TIP3    H213624   7.461   5.025   2.239
 4583TIP3   OH213625   7.590   5.126   2.161
 4583TIP3    H113626   7.653   5.073   2.113
 4583TIP3    H213627   7.644   5.184   2.215
 4584TIP3   OH213628   8.386   3.466   2.247
 4584TIP3    H113629   8.307   3.469   2.194
 4584TIP3    H213630   8.420   3.377   2.237
 4585TIP3   OH213631   6.658   4.984   2.194
 4585TIP3    H113632   6.566   4.998   2.173
 4585TIP3    H213633   6.679   5.050   2.260
 4586TIP3   OH213634   6.888   4.968   2.045
 4586TIP3    H113635   6.806   4.975   2.094
 4586TIP3    H213636   6.864   4.994   1.956
 4587TIP3   OH213637   7.301   4.990   1.840
 4587TIP3    H113638   7.226   5.001   1.780
 4587TIP3    H213639   7.310   5.076   1.881
 4588TIP3   OH213640   7.559   4.916   1.897
 4588TIP3    H113641   7.470   4.941   1.872
 4588TIP3    H213642   7.615   4.979   1.852
 4589TIP3   OH213643   7.760   5.076   1.798
 4589TIP3    H113644   7.758   5.166   1.765
 4589TIP3    H213645   7.795   5.024   1.725
 4590TIP3   OH213646   6.572   4.760   1.910
 4590TIP3    H113647   6.593   4.736   2.000
 4590TIP3    H213648   6.645   4.726   1.858
 4591TIP3   OH213649   6.776   4.644   1.772
 4591TIP3    H113650   6.785   4.558   1.814
 4591TIP3    H213651   6.863   4.683   1.779
 4592TIP3   OH213652   7.042   4.726   1.803
 4592TIP3    H113653   7.063   4.634   1.787
 4592TIP3    H213654   7.097   4.750   1.877
 4593TIP3   OH213655   7.592   3.384   1.884
 4593TIP3    H113656   7.558   3.310   1.934
 4593TIP3    H213657   7.660   3.345   1.828
 4594TIP3   OH213658   8.098   3.328   1.805
 4594TIP3    H113659   8.139   3.374   1.732
 4594TIP3    H213660   8.010   3.364   1.810
 4595TIP3   OH213661   8.201   3.407   1.566
 4595TIP3    H113662   8.272   3.347   1.545
 4595TIP3    H213663   8.238   3.494   1.549
 4596TIP3   OH213664   6.840   3.080   1.880
 4596TIP3    H113665   6.751   3.047   1.891
 4596TIP3    H213666   6.895   3.001   1.873
 4597TIP3   OH213667   6.657   2.982   1.532
 4597TIP3    H113668   6.684   3.032   1.456
 4597TIP3    H213669   6.620   3.046   1.592
 4598TIP3   OH213670   7.318   3.117   1.784
 4598TIP3    H113671   7.363   3.168   1.717
 4598TIP3    H213672   7.359   3.145   1.866
 4599TIP3   OH213673   7.807   3.272   1.756
 4599TIP3    H113674   7.862   3.235   1.688
 4599TIP3    H213675   7.804   3.205   1.824
 4600TIP3   OH213676   7.871   3.236   1.368
 4600TIP3    H113677   7.788   3.280   1.384
 4600TIP3    H213678   7.864   3.153   1.415
 4601TIP3   OH213679   6.321   4.528   1.332
 4601TIP3    H113680   6.237   4.494   1.303
 4601TIP3    H213681   6.331   4.612   1.286
 4602TIP3   OH213682   6.766   3.117   1.301
 4602TIP3    H113683   6.811   3.055   1.243
 4602TIP3    H213684   6.836   3.173   1.336
 4603TIP3   OH213685   7.252   3.311   1.402
 4603TIP3    H113686   7.313   3.263   1.458
 4603TIP3    H213687   7.265   3.403   1.426
 4604TIP3   OH213688   7.111   4.721   0.923
 4604TIP3    H113689   7.150   4.798   0.881
 4604TIP3    H213690   7.112   4.653   0.856
 4605TIP3   OH213691   7.810   4.829   0.982
 4605TIP3    H113692   7.815   4.733   0.984
 4605TIP3    H213693   7.760   4.848   0.902
 4606TIP3   OH213694   7.068   3.362   2.761
 4606TIP3    H113695   7.034   3.296   2.821
 4606TIP3    H213696   7.160   3.371   2.786
 4607TIP3   OH213697   7.315   3.368   2.885
 4607TIP3    H113698   7.393   3.347   2.833
 4607TIP3    H213699   7.310   3.299   2.950
 4608TIP3   OH213700   8.139   3.458   2.676
 4608TIP3    H113701   8.158   3.429   2.765
 4608TIP3    H213702   8.223   3.452   2.630
 4609TIP3   OH213703   8.055   4.990   2.180
 4609TIP3    H113704   7.981   4.959   2.129
 4609TIP3    H213705   8.043   5.085   2.186
 4610TIP3   OH213706   8.612   4.221   1.700
 4610TIP3    H113707   8.652   4.175   1.774
 4610TIP3    H213708   8.686   4.253   1.649
 4611TIP3   OH213709   8.570   4.651   1.405
 4611TIP3    H113710   8.558   4.556   1.399
 4611TIP3    H213711   8.664   4.664   1.389
 4612TIP3   OH213712   8.302   3.864   1.158
 4612TIP3    H113713   8.267   3.948   1.186
 4612TIP3    H213714   8.226   3.817   1.121
 4613TIP3   OH213715   8.380   4.175   1.380
 4613TIP3    H113716   8.430   4.098   1.405
 4613TIP3    H213717   8.446   4.242   1.361
 4614TIP3   OH213718   9.160   5.113   1.020
 4614TIP3    H113719   9.248   5.075   1.019
 4614TIP3    H213720   9.141   5.126   1.113
 4615TIP3   OH213721   9.078   4.590   1.326
 4615TIP3    H113722   9.096   4.535   1.250
 4615TIP3    H213723   9.159   4.638   1.341
 4616TIP3   OH213724   8.852   3.740   1.361
 4616TIP3    H113725   8.862   3.811   1.298
 4616TIP3    H213726   8.803   3.673   1.313
 4617TIP3   OH213727   8.518   3.953   1.466
 4617TIP3    H113728   8.596   3.929   1.517
 4617TIP3    H213729   8.529   3.907   1.382
 4618TIP3   OH213730   8.926   4.163   1.287
 4618TIP3    H113731   9.020   4.149   1.278
 4618TIP3    H213732   8.886   4.081   1.258
 4619TIP3   OH213733   8.881   3.752   1.809
 4619TIP3    H113734   8.827   3.782   1.737
 4619TIP3    H213735   8.825   3.760   1.887
 4620TIP3   OH213736   8.971   4.507   1.571
 4620TIP3    H113737   8.908   4.571   1.605
 4620TIP3    H213738   9.002   4.546   1.489
 4621TIP3   OH213739   8.745   3.847   1.585
 4621TIP3    H113740   8.804   3.919   1.606
 4621TIP3    H213741   8.788   3.800   1.514
 4622TIP3   OH213742   8.792   4.696   1.661
 4622TIP3    H113743   8.784   4.787   1.631
 4622TIP3    H213744   8.711   4.681   1.711
 4623TIP3   OH213745   8.199   4.407   0.938
 4623TIP3    H113746   8.165   4.425   0.851
 4623TIP3    H213747   8.225   4.492   0.972
 4624TIP3   OH213748   8.727   4.295   1.140
 4624TIP3    H113749   8.689   4.236   1.075
 4624TIP3    H213750   8.796   4.244   1.181
 4625TIP3   OH213751   8.822   4.694   1.286
 4625TIP3    H113752   8.800   4.684   1.194
 4625TIP3    H213753   8.910   4.657   1.294
 4626TIP3   OH213754   8.822   4.284   1.517
 4626TIP3    H113755   8.862   4.245   1.439
 4626TIP3    H213756   8.877   4.360   1.537
 4627TIP3   OH213757   8.999   4.793   1.818
 4627TIP3    H113758   8.951   4.858   1.870
 4627TIP3    H213759   8.932   4.751   1.763
 4628TIP3   OH213760   8.760   4.389   1.934
 4628TIP3    H113761   8.753   4.478   1.968
 4628TIP3    H213762   8.673   4.352   1.944
 4629TIP3   OH213763   9.062   4.881   0.898
 4629TIP3    H113764   9.080   4.969   0.931
 4629TIP3    H213765   8.989   4.892   0.837
 4630TIP3   OH213766   8.795   4.962   1.909
 4630TIP3    H113767   8.771   4.966   1.817
 4630TIP3    H213768   8.712   4.954   1.955
 4631TIP3   OH213769   8.613   4.129   0.944
 4631TIP3    H113770   8.535   4.173   0.910
 4631TIP3    H213771   8.590   4.036   0.945
 4632TIP3   OH213772   8.391   4.530   1.866
 4632TIP3    H113773   8.322   4.506   1.804
 4632TIP3    H213774   8.430   4.446   1.892
 4633TIP3   OH213775   8.292   4.697   1.514
 4633TIP3    H113776   8.382   4.687   1.483
 4633TIP3    H213777   8.296   4.773   1.573
 4634TIP3   OH213778   9.187   4.944   1.680
 4634TIP3    H113779   9.199   5.035   1.707
 4634TIP3    H213780   9.121   4.910   1.741
 4635TIP3   OH213781   8.430   4.884   1.019
 4635TIP3    H113782   8.471   4.886   1.106
 4635TIP3    H213783   8.385   4.800   1.016
 4636TIP3   OH213784   8.568   4.734   1.825
 4636TIP3    H113785   8.621   4.722   1.905
 4636TIP3    H213786   8.501   4.666   1.831
 4637TIP3   OH213787   8.967   3.527   1.671
 4637TIP3    H113788   8.879   3.516   1.635
 4637TIP3    H213789   8.960   3.604   1.727
 4638TIP3   OH213790   8.893   4.059   1.663
 4638TIP3    H113791   8.855   4.066   1.751
 4638TIP3    H213792   8.868   4.141   1.620
 4639TIP3   OH213793   8.810   3.944   1.176
 4639TIP3    H113794   8.719   3.917   1.192
 4639TIP3    H213795   8.827   3.916   1.086
 4640TIP3   OH213796   8.746   4.070   1.898
 4640TIP3    H113797   8.787   4.118   1.971
 4640TIP3    H213798   8.730   3.983   1.933
 4641TIP3   OH213799   8.796   3.648   0.621
 4641TIP3    H113800   8.781   3.641   0.715
 4641TIP3    H213801   8.713   3.678   0.586
 4642TIP3   OH213802   8.330   3.625   1.473
 4642TIP3    H113803   8.404   3.652   1.528
 4642TIP3    H213804   8.370   3.597   1.391
 4643TIP3   OH213805   8.257   3.576   0.965
 4643TIP3    H113806   8.319   3.608   0.899
 4643TIP3    H213807   8.194   3.648   0.975
 4644TIP3   OH213808   8.565   3.829   1.223
 4644TIP3    H113809   8.474   3.831   1.194
 4644TIP3    H213810   8.591   3.738   1.215
 4645TIP3   OH213811   8.852   3.855   0.918
 4645TIP3    H113812   8.927   3.878   0.862
 4645TIP3    H213813   8.775   3.873   0.864
 4646TIP3   OH213814   8.640   3.891   0.751
 4646TIP3    H113815   8.562   3.840   0.729
 4646TIP3    H213816   8.683   3.907   0.667
 4647TIP3   OH213817   8.706   4.643   2.048
 4647TIP3    H113818   8.787   4.669   2.092
 4647TIP3    H213819   8.643   4.632   2.119
 4648TIP3   OH213820   8.685   3.581   1.201
 4648TIP3    H113821   8.661   3.501   1.248
 4648TIP3    H213822   8.710   3.551   1.114
 4649TIP3   OH213823   8.855   4.430   0.716
 4649TIP3    H113824   8.826   4.340   0.709
 4649TIP3    H213825   8.888   4.439   0.805
 4650TIP3   OH213826   9.285   4.691   1.730
 4650TIP3    H113827   9.231   4.692   1.809
 4650TIP3    H213828   9.263   4.772   1.685
 4651TIP3   OH213829   8.593   4.369   1.371
 4651TIP3    H113830   8.632   4.356   1.285
 4651TIP3    H213831   8.661   4.340   1.432
 4652TIP3   OH213832   8.497   4.308   2.001
 4652TIP3    H113833   8.514   4.283   2.092
 4652TIP3    H213834   8.423   4.253   1.975
 4653TIP3   OH213835   9.211   4.401   1.997
 4653TIP3    H113836   9.134   4.345   1.986
 4653TIP3    H213837   9.255   4.396   1.912
 4654TIP3   OH213838   8.729   4.687   1.024
 4654TIP3    H113839   8.731   4.769   0.973
 4654TIP3    H213840   8.645   4.647   1.001
 4655TIP3   OH213841   8.287   3.990   0.735
 4655TIP3    H113842   8.334   4.070   0.755
 4655TIP3    H213843   8.208   3.995   0.788
 4656TIP3   OH213844   8.891   4.464   0.992
 4656TIP3    H113845   8.851   4.551   0.994
 4656TIP3    H213846   8.832   4.409   1.044
 4657TIP3   OH213847   9.016   5.023   1.478
 4657TIP3    H113848   9.055   5.091   1.425
 4657TIP3    H213849   9.086   4.993   1.536
 4658TIP3   OH213850   8.667   4.918   0.877
 4658TIP3    H113851   8.581   4.925   0.919
 4658TIP3    H213852   8.702   5.007   0.882
 4659TIP3   OH213853   8.699   3.817   2.010
 4659TIP3    H113854   8.604   3.813   2.016
 4659TIP3    H213855   8.730   3.759   2.080
 4660TIP3   OH213856   8.429   4.928   1.671
 4660TIP3    H113857   8.481   4.868   1.725
 4660TIP3    H213858   8.442   5.013   1.712
 4661TIP3   OH213859   8.619   4.568   0.678
 4661TIP3    H113860   8.707   4.529   0.687
 4661TIP3    H213861   8.635   4.658   0.650
 4662TIP3   OH213862   8.387   4.235   0.827
 4662TIP3    H113863   8.324   4.277   0.886
 4662TIP3    H213864   8.399   4.298   0.756
 4663TIP3   OH213865   8.654   4.832   0.617
 4663TIP3    H113866   8.682   4.909   0.567
 4663TIP3    H213867   8.659   4.861   0.709
 4664TIP3   OH213868   8.792   3.585   0.927
 4664TIP3    H113869   8.825   3.674   0.943
 4664TIP3    H213870   8.870   3.530   0.927
 4665TIP3   OH213871   8.395   4.426   0.625
 4665TIP3    H113872   8.460   4.491   0.653
 4665TIP3    H213873   8.442   4.370   0.563
 4666TIP3   OH213874   8.373   3.732   0.736
 4666TIP3    H113875   8.347   3.823   0.747
 4666TIP3    H213876   8.293   3.686   0.711
 4667TIP3   OH213877   8.702   3.462   1.604
 4667TIP3    H113878   8.685   3.429   1.516
 4667TIP3    H213879   8.706   3.383   1.658
 4668TIP3   OH213880   8.255   4.667   1.029
 4668TIP3    H113881   8.219   4.703   1.111
 4668TIP3    H213882   8.200   4.705   0.960
 4669TIP3   OH213883   8.437   5.231   2.066
 4669TIP3    H113884   8.510   5.236   2.129
 4669TIP3    H213885   8.435   5.138   2.041
 4670TIP3   OH213886   8.848   5.178   2.078
 4670TIP3    H113887   8.942   5.196   2.078
 4670TIP3    H213888   8.839   5.101   2.023
 4671TIP3   OH213889   8.540   4.609   2.270
 4671TIP3    H113890   8.565   4.516   2.271
 4671TIP3    H213891   8.454   4.609   2.227
 4672TIP3   OH213892   8.566   4.255   0.495
 4672TIP3    H113893   8.619   4.228   0.570
 4672TIP3    H213894   8.628   4.296   0.435
 4673TIP3   OH213895   9.109   4.659   2.029
 4673TIP3    H113896   9.073   4.679   1.942
 4673TIP3    H213897   9.154   4.575   2.017
 4674TIP3   OH213898   8.687   4.356   2.258
 4674TIP3    H113899   8.758   4.298   2.232
 4674TIP3    H213900   8.711   4.387   2.345
 4675TIP3   OH213901   8.743   4.176   0.693
 4675TIP3    H113902   8.708   4.148   0.778
 4675TIP3    H213903   8.784   4.098   0.657
 4676TIP3   OH213904   8.998   4.252   1.910
 4676TIP3    H113905   8.916   4.302   1.914
 4676TIP3    H213906   9.020   4.251   1.817
 4677TIP3   OH213907   8.856   3.947   0.567
 4677TIP3    H113908   8.833   3.876   0.508
 4677TIP3    H213909   8.950   3.940   0.579
 4678TIP3   OH213910   9.105   4.058   2.078
 4678TIP3    H113911   9.117   3.974   2.034
 4678TIP3    H213912   9.080   4.118   2.008
 4679TIP3   OH213913   9.118   3.821   1.936
 4679TIP3    H113914   9.139   3.735   1.973
 4679TIP3    H213915   9.044   3.805   1.878
 4680TIP3   OH213916   9.196   4.425   1.713
 4680TIP3    H113917   9.249   4.504   1.701
 4680TIP3    H213918   9.116   4.441   1.663
 4681TIP3   OH213919   8.899   4.150   2.245
 4681TIP3    H113920   8.875   4.062   2.275
 4681TIP3    H213921   8.971   4.136   2.185
 4682TIP3   OH213922   8.833   3.902   2.339
 4682TIP3    H113923   8.834   3.819   2.291
 4682TIP3    H213924   8.867   3.880   2.425
 4683TIP3   OH213925   8.126   4.397   0.665
 4683TIP3    H113926   8.216   4.424   0.643
 4683TIP3    H213927   8.113   4.316   0.616
 4684TIP3   OH213928   8.025   4.959   1.096
 4684TIP3    H113929   7.962   4.907   1.046
 4684TIP3    H213930   8.067   4.895   1.153
 4685TIP3   OH213931   8.185   4.808   1.266
 4685TIP3    H113932   8.180   4.742   1.335
 4685TIP3    H213933   8.235   4.880   1.305
 4686TIP3   OH213934   8.354   4.268   1.636
 4686TIP3    H113935   8.347   4.234   1.547
 4686TIP3    H213936   8.448   4.260   1.657
 4687TIP3   OH213937   8.569   3.944   2.273
 4687TIP3    H113938   8.664   3.944   2.288
 4687TIP3    H213939   8.539   3.863   2.315
 4688TIP3   OH213940   8.537   3.672   1.652
 4688TIP3    H113941   8.590   3.593   1.646
 4688TIP3    H213942   8.600   3.744   1.639
 4689TIP3   OH213943   8.335   3.937   1.683
 4689TIP3    H113944   8.382   3.922   1.602
 4689TIP3    H213945   8.381   4.010   1.725
 4690TIP3   OH213946   8.309   3.477   1.216
 4690TIP3    H113947   8.223   3.467   1.257
 4690TIP3    H213948   8.292   3.528   1.137
 4691TIP3   OH213949   8.554   3.507   2.022
 4691TIP3    H113950   8.508   3.510   2.105
 4691TIP3    H213951   8.496   3.552   1.961
 4692TIP3   OH213952   8.575   4.957   2.075
 4692TIP3    H113953   8.482   4.933   2.081
 4692TIP3    H213954   8.608   4.944   2.164
 4693TIP3   OH213955   8.792   4.967   1.629
 4693TIP3    H113956   8.734   5.040   1.606
 4693TIP3    H213957   8.874   4.986   1.583
 4694TIP3   OH213958   9.246   5.216   1.701
 4694TIP3    H113959   9.296   5.235   1.780
 4694TIP3    H213960   9.312   5.210   1.632
 4695TIP3   OH213961   8.438   5.218   1.724
 4695TIP3    H113962   8.353   5.247   1.691
 4695TIP3    H213963   8.468   5.290   1.780
 4696TIP3   OH213964   8.658   5.192   1.564
 4696TIP3    H113965   8.582   5.206   1.619
 4696TIP3    H213966   8.625   5.202   1.475
 4697TIP3   OH213967   9.107   5.200   1.282
 4697TIP3    H113968   9.018   5.203   1.245
 4697TIP3    H213969   9.139   5.290   1.273
 4698TIP3   OH213970   9.353   5.204   1.426
 4698TIP3    H113971   9.271   5.186   1.379
 4698TIP3    H213972   9.387   5.283   1.383
 4699TIP3   OH213973   8.348   4.990   1.419
 4699TIP3    H113974   8.383   4.973   1.506
 4699TIP3    H213975   8.421   4.970   1.360
 4700TIP3   OH213976   8.547   4.891   1.265
 4700TIP3    H113977   8.558   4.808   1.311
 4700TIP3    H213978   8.631   4.936   1.276
 4701TIP3   OH213979   8.811   4.966   1.304
 4701TIP3    H113980   8.820   4.872   1.294
 4701TIP3    H213981   8.876   4.990   1.370
 4702TIP3   OH213982   8.622   3.359   1.354
 4702TIP3    H113983   8.541   3.326   1.394
 4702TIP3    H213984   8.686   3.290   1.369
 4703TIP3   OH213985   8.422   3.284   1.059
 4703TIP3    H113986   8.384   3.309   0.975
 4703TIP3    H213987   8.393   3.352   1.120
 4704TIP3   OH213988   8.114   4.781   0.827
 4704TIP3    H113989   8.037   4.758   0.776
 4704TIP3    H213990   8.152   4.856   0.782
 4705TIP3   OH213991   8.608   3.466   0.767
 4705TIP3    H113992   8.616   3.378   0.804
 4705TIP3    H213993   8.656   3.522   0.828
 4706TIP3   OH213994   8.794   3.654   2.221
 4706TIP3    H113995   8.774   3.581   2.280
 4706TIP3    H213996   8.870   3.624   2.171
 4707TIP3   OH213997   9.068   3.625   2.385
 4707TIP3    H113998   9.073   3.600   2.293
 4707TIP3    H213999   9.066   3.541   2.432
 4708TIP3   OH214000   8.202   4.822   0.501
 4708TIP3    H114001   8.200   4.894   0.564
 4708TIP3    H214002   8.290   4.786   0.509
 4709TIP3   OH214003   0.043   4.925   3.160
 4709TIP3    H114004   0.013   5.004   3.115
 4709TIP3    H214005  -0.021   4.858   3.136
 4710TIP3   OH214006   0.039   4.917   3.546
 4710TIP3    H114007   0.061   4.868   3.626
 4710TIP3    H214008  -0.013   4.855   3.495
 4711TIP3   OH214009   0.293   5.221   3.266
 4711TIP3    H114010   0.278   5.134   3.302
 4711TIP3    H214011   0.258   5.217   3.177
 4712TIP3   OH214012   9.710   5.584   3.341
 4712TIP3    H114013   9.755   5.598   3.258
 4712TIP3    H214014   9.758   5.512   3.383
 4713TIP3   OH214015   9.594   5.037   3.567
 4713TIP3    H114016   9.675   4.988   3.570
 4713TIP3    H214017   9.607   5.102   3.498
 4714TIP3   OH214018   0.826   4.444   3.566
 4714TIP3    H114019   0.847   4.530   3.602
 4714TIP3    H214020   0.843   4.454   3.472
 4715TIP3   OH214021   0.230   4.599   3.609
 4715TIP3    H114022   0.293   4.526   3.610
 4715TIP3    H214023   0.199   4.601   3.518
 4716TIP3   OH214024   9.351   4.333   3.536
 4716TIP3    H114025   9.288   4.392   3.577
 4716TIP3    H214026   9.298   4.262   3.499
 4717TIP3   OH214027   9.330   4.741   3.530
 4717TIP3    H114028   9.336   4.813   3.469
 4717TIP3    H214029   9.284   4.672   3.482
 4718TIP3   OH214030   0.898   4.663   3.734
 4718TIP3    H114031   0.811   4.703   3.729
 4718TIP3    H214032   0.936   4.696   3.816
 4719TIP3   OH214033   9.740   5.105   2.975
 4719TIP3    H114034   9.709   5.078   2.889
 4719TIP3    H214035   9.788   5.186   2.959
 4720TIP3   OH214036   0.353   5.487   3.406
 4720TIP3    H114037   0.299   5.416   3.372
 4720TIP3    H214038   0.322   5.565   3.359
 4721TIP3   OH214039   0.615   4.339   3.723
 4721TIP3    H114040   0.530   4.353   3.681
 4721TIP3    H214041   0.679   4.367   3.657
 4722TIP3   OH214042   9.719   3.936   3.735
 4722TIP3    H114043   9.731   3.848   3.771
 4722TIP3    H214044   9.625   3.943   3.720
 4723TIP3   OH214045   0.525   5.317   3.662
 4723TIP3    H114046   0.516   5.236   3.613
 4723TIP3    H214047   0.459   5.375   3.626
 4724TIP3   OH214048   9.688   4.774   2.982
 4724TIP3    H114049   9.625   4.844   2.965
 4724TIP3    H214050   9.739   4.767   2.902
 4725TIP3   OH214051   9.639   4.541   2.705
 4725TIP3    H114052   9.708   4.595   2.743
 4725TIP3    H214053   9.685   4.477   2.651
 4726TIP3   OH214054   0.716   5.023   3.583
 4726TIP3    H114055   0.626   5.045   3.559
 4726TIP3    H214056   0.766   5.031   3.502
 4727TIP3   OH214057   0.208   4.852   2.952
 4727TIP3    H114058   0.161   4.878   3.031
 4727TIP3    H214059   0.286   4.807   2.983
 4728TIP3   OH214060   0.435   4.873   3.884
 4728TIP3    H114061   0.419   4.947   3.943
 4728TIP3    H214062   0.355   4.865   3.833
 4729TIP3   OH214063   9.420   4.920   3.743
 4729TIP3    H114064   9.343   4.886   3.697
 4729TIP3    H214065   9.472   4.963   3.676
 4730TIP3   OH214066   0.072   5.418   3.489
 4730TIP3    H114067   0.107   5.500   3.524
 4730TIP3    H214068   0.079   5.355   3.562
 4731TIP3   OH214069   0.049   4.718   2.771
 4731TIP3    H114070   0.117   4.769   2.816
 4731TIP3    H214071   0.070   4.726   2.678
 4732TIP3   OH214072   9.576   5.382   3.064
 4732TIP3    H114073   9.666   5.367   3.036
 4732TIP3    H214074   9.541   5.446   3.002
 4733TIP3   OH214075   0.530   3.932   2.822
 4733TIP3    H114076   0.451   3.946   2.874
 4733TIP3    H214077   0.535   4.010   2.765
 4734TIP3   OH214078   0.338   5.298   2.340
 4734TIP3    H114079   0.340   5.394   2.337
 4734TIP3    H214080   0.430   5.272   2.341
 4735TIP3   OH214081   9.479   5.582   2.887
 4735TIP3    H114082   9.439   5.528   2.819
 4735TIP3    H214083   9.464   5.672   2.857
 4736TIP3   OH214084   9.663   5.537   2.460
 4736TIP3    H114085   9.728   5.473   2.430
 4736TIP3    H214086   9.694   5.564   2.547
 4737TIP3   OH214087   0.649   4.818   4.056
 4737TIP3    H114088   0.578   4.823   3.992
 4737TIP3    H214089   0.677   4.726   4.053
 4738TIP3   OH214090   9.451   4.067   3.868
 4738TIP3    H114091   9.379   4.049   3.807
 4738TIP3    H214092   9.514   4.118   3.817
 4739TIP3   OH214093   0.204   4.177   4.072
 4739TIP3    H114094   0.283   4.153   4.120
 4739TIP3    H214095   0.133   4.134   4.119
 4740TIP3   OH214096   0.417   4.591   3.956
 4740TIP3    H114097   0.376   4.581   4.042
 4740TIP3    H214098   0.393   4.680   3.929
 4741TIP3   OH214099   0.107   4.716   2.509
 4741TIP3    H114100   0.063   4.695   2.427
 4741TIP3    H214101   0.189   4.757   2.483
 4742TIP3   OH214102   9.626   4.137   2.765
 4742TIP3    H114103   9.607   4.118   2.857
 4742TIP3    H214104   9.554   4.096   2.717
 4743TIP3   OH214105   9.241   4.650   3.895
 4743TIP3    H114106   9.310   4.636   3.960
 4743TIP3    H214107   9.268   4.730   3.849
 4744TIP3   OH214108   9.176   4.549   3.376
 4744TIP3    H114109   9.108   4.607   3.411
 4744TIP3    H214110   9.210   4.595   3.299
 4745TIP3   OH214111   9.746   4.546   3.118
 4745TIP3    H114112   9.741   4.628   3.068
 4745TIP3    H214113   9.836   4.517   3.107
 4746TIP3   OH214114   0.208   4.829   4.184
 4746TIP3    H114115   0.169   4.761   4.240
 4746TIP3    H214116   0.302   4.822   4.200
 4747TIP3   OH214117   0.097   4.569   3.367
 4747TIP3    H114118   0.033   4.614   3.311
 4747TIP3    H214119   0.150   4.517   3.307
 4748TIP3   OH214120   9.377   4.004   2.840
 4748TIP3    H114121   9.432   4.033   2.912
 4748TIP3    H214122   9.304   4.066   2.840
 4749TIP3   OH214123   0.197   4.815   3.767
 4749TIP3    H114124   0.218   4.747   3.703
 4749TIP3    H214125   0.150   4.769   3.837
 4750TIP3   OH214126   9.679   4.281   3.394
 4750TIP3    H114127   9.666   4.372   3.420
 4750TIP3    H214128   9.741   4.246   3.458
 4751TIP3   OH214129   9.342   4.445   3.160
 4751TIP3    H114130   9.418   4.387   3.161
 4751TIP3    H214131   9.281   4.403   3.100
 4752TIP3   OH214132   0.346   4.340   3.629
 4752TIP3    H114133   0.299   4.337   3.712
 4752TIP3    H214134   0.314   4.264   3.580
 4753TIP3   OH214135   9.037   4.370   2.872
 4753TIP3    H114136   8.944   4.348   2.882
 4753TIP3    H214137   9.039   4.433   2.800
 4754TIP3   OH214138   0.520   6.039   3.854
 4754TIP3    H114139   0.505   6.065   3.763
 4754TIP3    H214140   0.589   6.099   3.885
 4755TIP3   OH214141   9.743   4.510   3.582
 4755TIP3    H114142   9.790   4.538   3.503
 4755TIP3    H214143   9.811   4.469   3.636
 4756TIP3   OH214144   9.239   4.059   3.439
 4756TIP3    H114145   9.177   3.988   3.422
 4756TIP3    H214146   9.247   4.104   3.355
 4757TIP3   OH214147   9.674   4.503   3.874
 4757TIP3    H114148   9.619   4.528   3.800
 4757TIP3    H214149   9.745   4.567   3.874
 4758TIP3   OH214150   9.445   4.908   2.955
 4758TIP3    H114151   9.427   4.814   2.960
 4758TIP3    H214152   9.369   4.949   2.996
 4759TIP3   OH214153   0.475   5.114   3.501
 4759TIP3    H114154   0.495   5.169   3.425
 4759TIP3    H214155   0.397   5.065   3.474
 4760TIP3   OH214156   0.086   4.190   2.820
 4760TIP3    H114157  -0.006   4.181   2.796
 4760TIP3    H214158   0.102   4.284   2.814
 4761TIP3   OH214159   9.830   5.275   3.947
 4761TIP3    H114160   9.820   5.288   4.042
 4761TIP3    H214161   9.744   5.244   3.918
 4762TIP3   OH214162   0.125   4.457   2.834
 4762TIP3    H114163   0.176   4.459   2.915
 4762TIP3    H214164   0.113   4.549   2.811
 4763TIP3   OH214165   9.574   5.038   2.757
 4763TIP3    H114166   9.545   5.128   2.764
 4763TIP3    H214167   9.517   4.989   2.816
 4764TIP3   OH214168  -0.015   4.975   4.288
 4764TIP3    H114169  -0.051   4.901   4.239
 4764TIP3    H214170   0.075   4.984   4.256
 4765TIP3   OH214171   0.180   5.475   3.824
 4765TIP3    H114172   0.115   5.414   3.859
 4765TIP3    H214173   0.215   5.519   3.901
 4766TIP3   OH214174   0.559   4.561   2.676
 4766TIP3    H114175   0.488   4.514   2.632
 4766TIP3    H214176   0.551   4.651   2.646
 4767TIP3   OH214177   0.758   5.421   3.816
 4767TIP3    H114178   0.725   5.466   3.893
 4767TIP3    H214179   0.760   5.328   3.841
 4768TIP3   OH214180   0.254   5.385   2.663
 4768TIP3    H114181   0.203   5.367   2.742
 4768TIP3    H214182   0.251   5.303   2.613
 4769TIP3   OH214183   0.259   4.985   3.404
 4769TIP3    H114184   0.175   4.965   3.446
 4769TIP3    H214185   0.289   4.901   3.370
 4770TIP3   OH214186   9.225   5.003   3.099
 4770TIP3    H114187   9.267   5.089   3.099
 4770TIP3    H214188   9.252   4.963   3.181
 4771TIP3   OH214189   0.074   5.199   3.675
 4771TIP3    H114190   0.095   5.199   3.768
 4771TIP3    H214191   0.102   5.113   3.644
 4772TIP3   OH214192   0.062   5.137   2.540
 4772TIP3    H114193   0.108   5.086   2.607
 4772TIP3    H214194  -0.016   5.170   2.585
 4773TIP3   OH214195   0.356   5.663   3.702
 4773TIP3    H114196   0.297   5.596   3.736
 4773TIP3    H214197   0.300   5.720   3.650
 4774TIP3   OH214198   0.354   5.574   2.326
 4774TIP3    H114199   0.388   5.642   2.268
 4774TIP3    H214200   0.277   5.612   2.366
 4775TIP3   OH214201   0.210   5.017   2.733
 4775TIP3    H114202   0.198   4.969   2.814
 4775TIP3    H214203   0.305   5.025   2.722
 4776TIP3   OH214204   9.235   5.077   2.504
 4776TIP3    H114205   9.280   5.010   2.453
 4776TIP3    H214206   9.221   5.036   2.589
 4777TIP3   OH214207   0.247   4.375   3.884
 4777TIP3    H114208   0.325   4.423   3.913
 4777TIP3    H214209   0.232   4.310   3.953
 4778TIP3   OH214210   0.149   4.170   3.087
 4778TIP3    H114211   0.128   4.174   2.994
 4778TIP3    H214212   0.189   4.255   3.107
 4779TIP3   OH214213   9.381   5.275   2.801
 4779TIP3    H114214   9.287   5.287   2.795
 4779TIP3    H214215   9.412   5.280   2.710
 4780TIP3   OH214216   9.584   4.332   3.146
 4780TIP3    H114217   9.643   4.403   3.122
 4780TIP3    H214218   9.613   4.305   3.233
 4781TIP3   OH214219   0.119   4.617   3.945
 4781TIP3    H114220   0.100   4.578   4.030
 4781TIP3    H214221   0.167   4.550   3.897
 4782TIP3   OH214222   9.746   4.048   3.227
 4782TIP3    H114223   9.720   4.116   3.288
 4782TIP3    H214224   9.821   4.085   3.179
 4783TIP3   OH214225   9.318   3.882   3.164
 4783TIP3    H114226   9.231   3.851   3.142
 4783TIP3    H214227   9.375   3.845   3.097
 4784TIP3   OH214228   0.683   4.550   3.947
 4784TIP3    H114229   0.588   4.555   3.955
 4784TIP3    H214230   0.698   4.502   3.866
 4785TIP3   OH214231   0.349   4.737   3.335
 4785TIP3    H114232   0.300   4.659   3.309
 4785TIP3    H214233   0.419   4.704   3.391
 4786TIP3   OH214234   0.337   5.746   3.290
 4786TIP3    H114235   0.292   5.789   3.218
 4786TIP3    H214236   0.429   5.750   3.267
 4787TIP3   OH214237   9.408   5.278   2.528
 4787TIP3    H114238   9.332   5.220   2.520
 4787TIP3    H214239   9.483   5.222   2.510
 4788TIP3   OH214240   0.263   5.599   4.046
 4788TIP3    H114241   0.267   5.543   4.123
 4788TIP3    H214242   0.320   5.673   4.067
 4789TIP3   OH214243   0.032   5.345   2.365
 4789TIP3    H114244   0.056   5.280   2.431
 4789TIP3    H214245   0.097   5.334   2.295
 4790TIP3   OH214246   9.498   5.317   4.346
 4790TIP3    H114247   9.494   5.372   4.267
 4790TIP3    H214248   9.505   5.228   4.312
 4791TIP3   OH214249   9.557   5.047   2.481
 4791TIP3    H114250   9.586   5.038   2.572
 4791TIP3    H214251   9.503   4.969   2.466
 4792TIP3   OH214252   0.341   5.247   3.856
 4792TIP3    H114253   0.411   5.269   3.794
 4792TIP3    H214254   0.276   5.316   3.843
 4793TIP3   OH214255   9.216   4.682   2.836
 4793TIP3    H114256   9.293   4.630   2.860
 4793TIP3    H214257   9.168   4.626   2.775
 4794TIP3   OH214258   9.378   4.869   4.008
 4794TIP3    H114259   9.403   4.947   4.058
 4794TIP3    H214260   9.397   4.891   3.917
 4795TIP3   OH214261   9.384   4.441   2.755
 4795TIP3    H114262   9.356   4.476   2.670
 4795TIP3    H214263   9.477   4.462   2.760
 4796TIP3   OH214264   0.230   5.134   4.238
 4796TIP3    H114265   0.286   5.105   4.166
 4796TIP3    H214266   0.256   5.079   4.312
 4797TIP3   OH214267   0.323   4.828   2.380
 4797TIP3    H114268   0.310   4.779   2.298
 4797TIP3    H214269   0.289   4.915   2.361
 4798TIP3   OH214270   9.508   4.524   4.347
 4798TIP3    H114271   9.442   4.459   4.370
 4798TIP3    H214272   9.487   4.550   4.257
 4799TIP3   OH214273   9.634   4.271   4.000
 4799TIP3    H114274   9.661   4.337   3.936
 4799TIP3    H214275   9.540   4.261   3.986
 4800TIP3   OH214276   9.661   4.949   3.915
 4800TIP3    H114277   9.692   4.885   3.850
 4800TIP3    H214278   9.598   5.004   3.867
 4801TIP3   OH214279   0.470   4.805   4.284
 4801TIP3    H114280   0.496   4.717   4.311
 4801TIP3    H214281   0.539   4.834   4.225
 4802TIP3   OH214282   0.449   5.101   4.050
 4802TIP3    H114283   0.397   5.155   3.990
 4802TIP3    H214284   0.539   5.110   4.016
 4803TIP3   OH214285   9.748   4.053   4.115
 4803TIP3    H114286   9.719   4.126   4.060
 4803TIP3    H214287   9.692   3.980   4.090
 4804TIP3   OH214288   0.098   4.630   4.339
 4804TIP3    H114289   0.113   4.582   4.421
 4804TIP3    H214290   0.048   4.569   4.285
 4805TIP3   OH214291   0.320   4.536   4.200
 4805TIP3    H114292   0.252   4.559   4.263
 4805TIP3    H214293   0.397   4.514   4.253
 4806TIP3   OH214294   0.543   4.512   4.358
 4806TIP3    H114295   0.557   4.418   4.362
 4806TIP3    H214296   0.541   4.540   4.450
 4807TIP3   OH214297   0.020   4.060   4.381
 4807TIP3    H114298   0.096   4.001   4.376
 4807TIP3    H214299  -0.014   4.062   4.292
 4808TIP3   OH214300   0.116   4.289   4.511
 4808TIP3    H114301   0.094   4.209   4.464
 4808TIP3    H214302   0.039   4.345   4.501
 4809TIP3   OH214303   0.611   5.789   3.264
 4809TIP3    H114304   0.610   5.859   3.329
 4809TIP3    H214305   0.669   5.822   3.195
 4810TIP3   OH214306   0.611   5.838   3.546
 4810TIP3    H114307   0.607   5.750   3.506
 4810TIP3    H214308   0.620   5.821   3.639
 4811TIP3   OH214309   0.682   5.511   4.061
 4811TIP3    H114310   0.612   5.507   4.125
 4811TIP3    H214311   0.723   5.596   4.074
 4812TIP3   OH214312   0.485   5.022   2.731
 4812TIP3    H114313   0.545   5.091   2.703
 4812TIP3    H214314   0.528   4.981   2.805
 4813TIP3   OH214315   0.604   4.879   2.935
 4813TIP3    H114316   0.540   4.824   2.981
 4813TIP3    H214317   0.665   4.907   3.003
 4814TIP3   OH214318   0.629   5.287   3.343
 4814TIP3    H114319   0.674   5.219   3.293
 4814TIP3    H214320   0.628   5.363   3.285
 4815TIP3   OH214321   0.564   5.565   3.553
 4815TIP3    H114322   0.503   5.611   3.610
 4815TIP3    H214323   0.511   5.534   3.479
 4816TIP3   OH214324   0.523   4.808   2.563
 4816TIP3    H114325   0.453   4.809   2.499
 4816TIP3    H214326   0.503   4.881   2.622
 4817TIP3   OH214327   0.377   4.451   2.503
 4817TIP3    H114328   0.326   4.477   2.427
 4817TIP3    H214329   0.368   4.355   2.506
 4818TIP3   OH214330   0.421   4.725   3.070
 4818TIP3    H114331   0.392   4.635   3.061
 4818TIP3    H214332   0.410   4.745   3.163
 4819TIP3   OH214333   0.692   5.157   3.902
 4819TIP3    H114334   0.756   5.085   3.907
 4819TIP3    H214335   0.653   5.147   3.815
 4820TIP3   OH214336   0.858   4.946   3.929
 4820TIP3    H114337   0.789   4.894   3.971
 4820TIP3    H214338   0.937   4.894   3.941
 4821TIP3   OH214339   0.342   4.177   2.485
 4821TIP3    H114340   0.409   4.159   2.551
 4821TIP3    H214341   0.263   4.133   2.517
 4822TIP3   OH214342   0.558   4.656   3.490
 4822TIP3    H114343   0.640   4.657   3.440
 4822TIP3    H214344   0.584   4.685   3.578
 4823TIP3   OH214345   0.651   4.791   3.719
 4823TIP3    H114346   0.573   4.817   3.767
 4823TIP3    H214347   0.677   4.870   3.671
 4824TIP3   OH214348   1.084   4.381   4.236
 4824TIP3    H114349   1.150   4.322   4.199
 4824TIP3    H214350   1.048   4.427   4.160
 4825TIP3   OH214351   0.937   4.484   4.029
 4825TIP3    H114352   0.849   4.521   4.031
 4825TIP3    H214353   0.927   4.401   3.982
 4826TIP3   OH214354   0.570   4.132   2.635
 4826TIP3    H114355   0.618   4.067   2.583
 4826TIP3    H214356   0.630   4.207   2.640
 4827TIP3   OH214357   0.139   5.700   2.874
 4827TIP3    H114358   0.124   5.606   2.880
 4827TIP3    H214359   0.204   5.709   2.804
 4828TIP3   OH214360   9.552   5.783   3.907
 4828TIP3    H114361   9.570   5.751   3.996
 4828TIP3    H214362   9.623   5.747   3.854
 4829TIP3   OH214363   0.164   5.890   3.750
 4829TIP3    H114364   0.222   5.909   3.824
 4829TIP3    H214365   0.146   5.975   3.711
 4830TIP3   OH214366   0.851   4.232   3.937
 4830TIP3    H114367   0.763   4.217   3.904
 4830TIP3    H214368   0.894   4.146   3.932
 4831TIP3   OH214369   9.682   5.905   3.576
 4831TIP3    H114370   9.667   5.903   3.481
 4831TIP3    H214371   9.637   5.828   3.610
 4832TIP3   OH214372   0.119   5.694   3.548
 4832TIP3    H114373   0.093   5.759   3.613
 4832TIP3    H214374   0.130   5.745   3.467
 4833TIP3   OH214375   0.264   5.956   3.449
 4833TIP3    H114376   0.258   6.023   3.381
 4833TIP3    H214377   0.295   5.878   3.404
 4834TIP3   OH214378   0.026   4.157   3.589
 4834TIP3    H114379   0.005   4.077   3.638
 4834TIP3    H214380   0.112   4.139   3.550
 4835TIP3   OH214381   0.561   4.075   3.471
 4835TIP3    H114382   0.609   4.119   3.401
 4835TIP3    H214383   0.475   4.115   3.471
 4836TIP3   OH214384   0.692   4.160   3.253
 4836TIP3    H114385   0.753   4.100   3.211
 4836TIP3    H214386   0.715   4.246   3.217
 4837TIP3   OH214387   9.723   3.842   3.467
 4837TIP3    H114388   9.654   3.901   3.436
 4837TIP3    H214389   9.741   3.872   3.556
 4838TIP3   OH214390   0.272   4.091   3.482
 4838TIP3    H114391   0.271   4.074   3.388
 4838TIP3    H214392   0.282   4.004   3.522
 4839TIP3   OH214393   0.322   3.973   2.987
 4839TIP3    H114394   0.268   4.041   3.027
 4839TIP3    H214395   0.302   3.894   3.037
 4840TIP3   OH214396   9.553   4.090   3.029
 4840TIP3    H114397   9.613   4.046   3.090
 4840TIP3    H214398   9.549   4.180   3.059
 4841TIP3   OH214399   9.424   5.531   2.623
 4841TIP3    H114400   9.482   5.566   2.555
 4841TIP3    H214401   9.392   5.449   2.588
 4842TIP3   OH214402   0.309   5.652   2.656
 4842TIP3    H114403   0.298   5.557   2.657
 4842TIP3    H214404   0.268   5.679   2.574
 4843TIP3   OH214405   9.578   4.112   4.519
 4843TIP3    H114406   9.661   4.122   4.472
 4843TIP3    H214407   9.604   4.097   4.610
 4844TIP3   OH214408   0.603   4.245   4.368
 4844TIP3    H114409   0.618   4.213   4.457
 4844TIP3    H214410   0.688   4.239   4.325
 4845TIP3   OH214411   0.586   5.774   3.811
 4845TIP3    H114412   0.500   5.734   3.798
 4845TIP3    H214413   0.567   5.859   3.849
 4846TIP3   OH214414   1.781   5.166   2.614
 4846TIP3    H114415   1.745   5.252   2.594
 4846TIP3    H214416   1.714   5.104   2.584
 4847TIP3   OH214417   1.776   5.161   3.037
 4847TIP3    H114418   1.833   5.141   3.111
 4847TIP3    H214419   1.736   5.077   3.014
 4848TIP3   OH214420   1.091   5.034   3.396
 4848TIP3    H114421   1.126   4.970   3.458
 4848TIP3    H214422   1.162   5.049   3.334
 4849TIP3   OH214423   2.040   5.471   2.704
 4849TIP3    H114424   2.038   5.400   2.768
 4849TIP3    H214425   2.068   5.548   2.754
 4850TIP3   OH214426   1.092   5.464   3.099
 4850TIP3    H114427   1.073   5.371   3.088
 4850TIP3    H214428   1.181   5.474   3.066
 4851TIP3   OH214429   0.761   4.659   2.843
 4851TIP3    H114430   0.713   4.737   2.872
 4851TIP3    H214431   0.696   4.609   2.794
 4852TIP3   OH214432   0.827   4.951   3.090
 4852TIP3    H114433   0.875   4.872   3.113
 4852TIP3    H214434   0.881   4.995   3.025
 4853TIP3   OH214435   1.722   5.883   2.727
 4853TIP3    H114436   1.740   5.823   2.655
 4853TIP3    H214437   1.738   5.831   2.806
 4854TIP3   OH214438   1.589   5.380   3.040
 4854TIP3    H114439   1.635   5.300   3.013
 4854TIP3    H214440   1.658   5.440   3.065
 4855TIP3   OH214441   2.628   4.690   3.056
 4855TIP3    H114442   2.642   4.776   3.097
 4855TIP3    H214443   2.664   4.699   2.968
 4856TIP3   OH214444   1.993   4.869   3.073
 4856TIP3    H114445   2.027   4.783   3.100
 4856TIP3    H214446   1.958   4.854   2.985
 4857TIP3   OH214447   1.354   4.524   3.027
 4857TIP3    H114448   1.332   4.597   2.970
 4857TIP3    H214449   1.299   4.452   2.995
 4858TIP3   OH214450   2.049   4.626   2.677
 4858TIP3    H114451   2.114   4.616   2.746
 4858TIP3    H214452   2.097   4.660   2.602
 4859TIP3   OH214453   0.980   4.735   3.161
 4859TIP3    H114454   1.064   4.712   3.202
 4859TIP3    H214455   0.980   4.685   3.079
 4860TIP3   OH214456   1.393   4.940   2.982
 4860TIP3    H114457   1.488   4.925   2.985
 4860TIP3    H214458   1.357   4.859   2.946
 4861TIP3   OH214459   2.676   4.909   3.224
 4861TIP3    H114460   2.593   4.956   3.212
 4861TIP3    H214461   2.717   4.952   3.299
 4862TIP3   OH214462   1.337   4.529   3.482
 4862TIP3    H114463   1.285   4.562   3.408
 4862TIP3    H214464   1.281   4.543   3.559
 4863TIP3   OH214465   1.638   5.373   2.501
 4863TIP3    H114466   1.623   5.357   2.408
 4863TIP3    H214467   1.598   5.458   2.518
 4864TIP3   OH214468   1.443   5.296   3.260
 4864TIP3    H114469   1.393   5.371   3.293
 4864TIP3    H214470   1.490   5.331   3.184
 4865TIP3   OH214471   2.212   4.637   2.897
 4865TIP3    H114472   2.164   4.623   2.979
 4865TIP3    H214473   2.266   4.715   2.914
 4866TIP3   OH214474   1.227   4.631   3.249
 4866TIP3    H114475   1.283   4.706   3.271
 4866TIP3    H214476   1.272   4.588   3.176
 4867TIP3   OH214477   1.276   5.500   3.361
 4867TIP3    H114478   1.256   5.589   3.332
 4867TIP3    H214479   1.194   5.453   3.352
 4868TIP3   OH214480   0.655   5.211   2.611
 4868TIP3    H114481   0.619   5.223   2.524
 4868TIP3    H214482   0.679   5.299   2.640
 4869TIP3   OH214483   2.081   5.718   2.849
 4869TIP3    H114484   1.991   5.714   2.882
 4869TIP3    H214485   2.085   5.799   2.800
 4870TIP3   OH214486   2.430   4.574   3.218
 4870TIP3    H114487   2.345   4.602   3.183
 4870TIP3    H214488   2.494   4.604   3.153
 4871TIP3   OH214489   1.678   4.222   3.215
 4871TIP3    H114490   1.671   4.130   3.240
 4871TIP3    H214491   1.601   4.264   3.253
 4872TIP3   OH214492   1.791   5.742   2.496
 4872TIP3    H114493   1.842   5.661   2.485
 4872TIP3    H214494   1.851   5.812   2.470
 4873TIP3   OH214495   1.946   5.525   2.449
 4873TIP3    H114496   1.958   5.449   2.391
 4873TIP3    H214497   1.982   5.497   2.533
 4874TIP3   OH214498   2.318   5.600   3.189
 4874TIP3    H114499   2.309   5.524   3.131
 4874TIP3    H214500   2.313   5.675   3.130
 4875TIP3   OH214501   1.610   5.005   2.461
 4875TIP3    H114502   1.530   5.052   2.440
 4875TIP3    H214503   1.660   5.004   2.379
 4876TIP3   OH214504   1.580   4.818   2.152
 4876TIP3    H114505   1.645   4.867   2.203
 4876TIP3    H214506   1.632   4.753   2.104
 4877TIP3   OH214507   2.500   5.236   3.018
 4877TIP3    H114508   2.421   5.290   3.026
 4877TIP3    H214509   2.537   5.260   2.933
 4878TIP3   OH214510   1.966   5.104   2.419
 4878TIP3    H114511   1.913   5.129   2.495
 4878TIP3    H214512   2.048   5.071   2.456
 4879TIP3   OH214513   2.198   5.120   3.363
 4879TIP3    H114514   2.200   5.204   3.408
 4879TIP3    H214515   2.115   5.120   3.315
 4880TIP3   OH214516   1.194   5.074   2.830
 4880TIP3    H114517   1.157   5.014   2.764
 4880TIP3    H214518   1.267   5.025   2.869
 4881TIP3   OH214519   1.336   5.500   2.968
 4881TIP3    H114520   1.311   5.484   2.877
 4881TIP3    H214521   1.422   5.460   2.977
 4882TIP3   OH214522   1.297   5.069   3.206
 4882TIP3    H114523   1.332   5.031   3.125
 4882TIP3    H214524   1.351   5.146   3.222
 4883TIP3   OH214525   1.835   5.726   2.976
 4883TIP3    H114526   1.835   5.798   3.040
 4883TIP3    H214527   1.828   5.647   3.029
 4884TIP3   OH214528   1.482   5.605   3.519
 4884TIP3    H114529   1.424   5.666   3.566
 4884TIP3    H214530   1.422   5.550   3.468
 4885TIP3   OH214531   1.799   4.960   2.256
 4885TIP3    H114532   1.860   5.017   2.302
 4885TIP3    H214533   1.828   4.964   2.164
 4886TIP3   OH214534   1.231   5.183   3.670
 4886TIP3    H114535   1.236   5.276   3.692
 4886TIP3    H214536   1.140   5.170   3.644
 4887TIP3   OH214537   1.537   5.635   2.514
 4887TIP3    H114538   1.625   5.672   2.515
 4887TIP3    H214539   1.486   5.695   2.461
 4888TIP3   OH214540   1.271   5.770   3.595
 4888TIP3    H114541   1.256   5.783   3.502
 4888TIP3    H214542   1.202   5.709   3.622
 4889TIP3   OH214543   2.300   4.167   2.313
 4889TIP3    H114544   2.228   4.191   2.372
 4889TIP3    H214545   2.308   4.242   2.254
 4890TIP3   OH214546   1.072   4.914   2.630
 4890TIP3    H114547   0.995   4.960   2.597
 4890TIP3    H214548   1.043   4.823   2.640
 4891TIP3   OH214549   2.140   5.557   1.864
 4891TIP3    H114550   2.135   5.650   1.842
 4891TIP3    H214551   2.229   5.531   1.840
 4892TIP3   OH214552   0.824   5.339   3.538
 4892TIP3    H114553   0.796   5.295   3.458
 4892TIP3    H214554   0.883   5.277   3.580
 4893TIP3   OH214555   0.693   5.528   3.213
 4893TIP3    H114556   0.789   5.537   3.216
 4893TIP3    H214557   0.660   5.612   3.244
 4894TIP3   OH214558   2.550   5.966   3.264
 4894TIP3    H114559   2.558   5.871   3.269
 4894TIP3    H214560   2.469   5.987   3.310
 4895TIP3   OH214561   1.664   5.753   3.378
 4895TIP3    H114562   1.651   5.842   3.410
 4895TIP3    H214563   1.601   5.700   3.426
 4896TIP3   OH214564   1.438   5.847   2.338
 4896TIP3    H114565   1.394   5.827   2.256
 4896TIP3    H214566   1.401   5.932   2.365
 4897TIP3   OH214567   0.879   5.704   2.727
 4897TIP3    H114568   0.919   5.694   2.814
 4897TIP3    H214569   0.828   5.624   2.715
 4898TIP3   OH214570   1.641   5.779   1.964
 4898TIP3    H114571   1.691   5.705   1.930
 4898TIP3    H214572   1.676   5.793   2.052
 4899TIP3   OH214573   1.692   5.824   2.233
 4899TIP3    H114574   1.606   5.827   2.275
 4899TIP3    H214575   1.749   5.784   2.298
 4900TIP3   OH214576   2.417   5.062   3.533
 4900TIP3    H114577   2.347   5.077   3.470
 4900TIP3    H214578   2.442   4.971   3.521
 4901TIP3   OH214579   1.440   4.312   3.339
 4901TIP3    H114580   1.357   4.277   3.308
 4901TIP3    H214581   1.417   4.393   3.384
 4902TIP3   OH214582   1.979   4.437   3.540
 4902TIP3    H114583   2.049   4.413   3.600
 4902TIP3    H214584   1.898   4.419   3.588
 4903TIP3   OH214585   2.197   4.849   3.446
 4903TIP3    H114586   2.164   4.848   3.536
 4903TIP3    H214587   2.187   4.940   3.417
 4904TIP3   OH214588   1.876   4.950   1.994
 4904TIP3    H114589   1.835   4.945   1.908
 4904TIP3    H214590   1.961   4.990   1.977
 4905TIP3   OH214591   1.589   4.362   2.310
 4905TIP3    H114592   1.553   4.369   2.398
 4905TIP3    H214593   1.554   4.280   2.276
 4906TIP3   OH214594   1.379   4.842   3.342
 4906TIP3    H114595   1.334   4.847   3.426
 4906TIP3    H214596   1.355   4.923   3.297
 4907TIP3   OH214597   1.255   4.727   2.871
 4907TIP3    H114598   1.166   4.701   2.895
 4907TIP3    H214599   1.266   4.696   2.781
 4908TIP3   OH214600   1.737   4.801   2.596
 4908TIP3    H114601   1.689   4.873   2.555
 4908TIP3    H214602   1.797   4.770   2.528
 4909TIP3   OH214603   1.929   5.068   3.669
 4909TIP3    H114604   1.902   4.999   3.731
 4909TIP3    H214605   2.022   5.081   3.687
 4910TIP3   OH214606   1.903   4.816   2.820
 4910TIP3    H114607   1.837   4.838   2.754
 4910TIP3    H214608   1.950   4.741   2.783
 4911TIP3   OH214609   1.212   4.848   3.565
 4911TIP3    H114610   1.280   4.894   3.614
 4911TIP3    H214611   1.196   4.769   3.615
 4912TIP3   OH214612   1.254   4.342   2.291
 4912TIP3    H114613   1.244   4.345   2.386
 4912TIP3    H214614   1.177   4.386   2.257
 4913TIP3   OH214615   0.817   4.372   3.135
 4913TIP3    H114616   0.886   4.407   3.192
 4913TIP3    H214617   0.862   4.349   3.054
 4914TIP3   OH214618   0.736   4.354   2.649
 4914TIP3    H114619   0.782   4.386   2.571
 4914TIP3    H214620   0.673   4.424   2.669
 4915TIP3   OH214621   1.942   5.069   3.247
 4915TIP3    H114622   1.968   5.004   3.182
 4915TIP3    H214623   1.903   5.018   3.318
 4916TIP3   OH214624   1.623   4.517   2.920
 4916TIP3    H114625   1.544   4.515   2.975
 4916TIP3    H214626   1.695   4.506   2.982
 4917TIP3   OH214627   1.016   4.600   2.926
 4917TIP3    H114628   0.928   4.607   2.888
 4917TIP3    H214629   1.043   4.510   2.909
 4918TIP3   OH214630   1.272   4.607   2.626
 4918TIP3    H114631   1.366   4.616   2.614
 4918TIP3    H214632   1.236   4.624   2.539
 4919TIP3   OH214633   2.061   4.606   3.131
 4919TIP3    H114634   2.039   4.623   3.222
 4919TIP3    H214635   1.995   4.542   3.102
 4920TIP3   OH214636   1.156   4.635   2.379
 4920TIP3    H114637   1.093   4.584   2.329
 4920TIP3    H214638   1.211   4.677   2.314
 4921TIP3   OH214639   2.289   6.372   3.382
 4921TIP3    H114640   2.201   6.339   3.398
 4921TIP3    H214641   2.286   6.406   3.293
 4922TIP3   OH214642   1.228   5.440   3.774
 4922TIP3    H114643   1.309   5.452   3.824
 4922TIP3    H214644   1.158   5.452   3.838
 4923TIP3   OH214645   1.668   4.889   3.024
 4923TIP3    H114646   1.733   4.842   2.972
 4923TIP3    H214647   1.669   4.844   3.109
 4924TIP3   OH214648   1.161   4.351   2.912
 4924TIP3    H114649   1.133   4.276   2.964
 4924TIP3    H214650   1.178   4.315   2.825
 4925TIP3   OH214651   1.645   4.785   3.287
 4925TIP3    H114652   1.557   4.813   3.312
 4925TIP3    H214653   1.703   4.836   3.344
 4926TIP3   OH214654   1.374   5.144   2.400
 4926TIP3    H114655   1.300   5.087   2.378
 4926TIP3    H214656   1.350   5.184   2.484
 4927TIP3   OH214657   2.272   5.397   3.005
 4927TIP3    H114658   2.308   5.445   2.930
 4927TIP3    H214659   2.192   5.356   2.971
 4928TIP3   OH214660   1.844   4.463   2.320
 4928TIP3    H114661   1.750   4.444   2.313
 4928TIP3    H214662   1.848   4.558   2.330
 4929TIP3   OH214663   1.795   5.481   3.415
 4929TIP3    H114664   1.852   5.464   3.490
 4929TIP3    H214665   1.759   5.569   3.432
 4930TIP3   OH214666   1.903   4.728   2.383
 4930TIP3    H114667   1.998   4.728   2.394
 4930TIP3    H214668   1.885   4.804   2.328
 4931TIP3   OH214669   1.087   5.190   3.058
 4931TIP3    H114670   1.113   5.159   2.971
 4931TIP3    H214671   1.144   5.144   3.118
 4932TIP3   OH214672   1.531   5.303   2.242
 4932TIP3    H114673   1.484   5.386   2.242
 4932TIP3    H214674   1.478   5.244   2.296
 4933TIP3   OH214675   0.942   5.154   3.710
 4933TIP3    H114676   0.980   5.133   3.795
 4933TIP3    H214677   0.885   5.080   3.690
 4934TIP3   OH214678   1.708   5.235   3.694
 4934TIP3    H114679   1.657   5.211   3.617
 4934TIP3    H214680   1.791   5.189   3.683
 4935TIP3   OH214681   1.934   5.781   3.303
 4935TIP3    H114682   1.840   5.763   3.306
 4935TIP3    H214683   1.956   5.811   3.391
 4936TIP3   OH214684   2.273   4.813   2.212
 4936TIP3    H114685   2.232   4.776   2.133
 4936TIP3    H214686   2.313   4.895   2.182
 4937TIP3   OH214687   2.568   5.696   3.277
 4937TIP3    H114688   2.483   5.654   3.290
 4937TIP3    H214689   2.597   5.666   3.191
 4938TIP3   OH214690   2.055   5.628   2.124
 4938TIP3    H114691   2.034   5.554   2.182
 4938TIP3    H214692   2.080   5.587   2.042
 4939TIP3   OH214693   2.040   5.263   2.903
 4939TIP3    H114694   1.949   5.240   2.922
 4939TIP3    H214695   2.077   5.183   2.867
 4940TIP3   OH214696   1.194   5.500   2.724
 4940TIP3    H114697   1.197   5.577   2.668
 4940TIP3    H214698   1.102   5.474   2.723
 4941TIP3   OH214699   0.763   4.783   2.435
 4941TIP3    H114700   0.806   4.866   2.456
 4941TIP3    H214701   0.680   4.786   2.483
 4942TIP3   OH214702   1.274   5.251   2.627
 4942TIP3    H114703   1.267   5.341   2.660
 4942TIP3    H214704   1.249   5.196   2.702
 4943TIP3   OH214705   1.476   5.818   3.173
 4943TIP3    H114706   1.511   5.892   3.124
 4943TIP3    H214707   1.551   5.784   3.222
 4944TIP3   OH214708   1.109   5.723   2.574
 4944TIP3    H114709   1.023   5.729   2.617
 4944TIP3    H214710   1.143   5.813   2.577
 4945TIP3   OH214711   1.826   5.494   3.139
 4945TIP3    H114712   1.817   5.485   3.234
 4945TIP3    H214713   1.896   5.433   3.116
 4946TIP3   OH214714   1.823   5.366   2.033
 4946TIP3    H114715   1.871   5.352   2.114
 4946TIP3    H214716   1.739   5.322   2.046
 4947TIP3   OH214717   2.088   5.995   3.203
 4947TIP3    H114718   2.021   5.929   3.220
 4947TIP3    H214719   2.056   6.044   3.127
 4948TIP3   OH214720   2.134   5.831   1.826
 4948TIP3    H114721   2.159   5.895   1.759
 4948TIP3    H214722   2.062   5.871   1.873
 4949TIP3   OH214723   1.169   4.599   3.693
 4949TIP3    H114724   1.074   4.607   3.695
 4949TIP3    H214725   1.190   4.538   3.763
 4950TIP3   OH214726   1.993   5.322   2.251
 4950TIP3    H114727   1.977   5.247   2.307
 4950TIP3    H214728   2.085   5.315   2.226
 4951TIP3   OH214729   1.169   5.328   2.034
 4951TIP3    H114730   1.181   5.237   2.007
 4951TIP3    H214731   1.156   5.323   2.129
 4952TIP3   OH214732   1.116   5.346   2.307
 4952TIP3    H114733   1.186   5.317   2.366
 4952TIP3    H214734   1.117   5.441   2.313
 4953TIP3   OH214735   0.852   5.036   2.515
 4953TIP3    H114736   0.785   5.082   2.566
 4953TIP3    H214737   0.870   5.094   2.442
 4954TIP3   OH214738   1.996   4.669   3.392
 4954TIP3    H114739   2.077   4.713   3.418
 4954TIP3    H214740   1.992   4.591   3.447
 4955TIP3   OH214741   1.903   4.408   2.584
 4955TIP3    H114742   1.883   4.427   2.493
 4955TIP3    H214743   1.946   4.487   2.617
 4956TIP3   OH214744   1.385   5.530   2.244
 4956TIP3    H114745   1.301   5.556   2.283
 4956TIP3    H214746   1.409   5.604   2.188
 4957TIP3   OH214747   1.551   4.611   2.669
 4957TIP3    H114748   1.614   4.678   2.641
 4957TIP3    H214749   1.576   4.591   2.759
 4958TIP3   OH214750   1.843   4.904   3.445
 4958TIP3    H114751   1.873   4.945   3.527
 4958TIP3    H214752   1.892   4.822   3.439
 4959TIP3   OH214753   1.714   4.305   2.757
 4959TIP3    H114754   1.691   4.383   2.808
 4959TIP3    H214755   1.784   4.334   2.699
 4960TIP3   OH214756   1.136   5.619   2.321
 4960TIP3    H114757   1.116   5.691   2.261
 4960TIP3    H214758   1.125   5.658   2.409
 4961TIP3   OH214759   1.227   4.333   2.570
 4961TIP3    H114760   1.216   4.424   2.598
 4961TIP3    H214761   1.321   4.317   2.574
 4962TIP3   OH214762   2.466   4.803   3.440
 4962TIP3    H114763   2.371   4.798   3.440
 4962TIP3    H214764   2.491   4.777   3.351
 4963TIP3   OH214765   2.130   5.003   2.821
 4963TIP3    H114766   2.054   4.946   2.830
 4963TIP3    H214767   2.198   4.962   2.875
 4964TIP3   OH214768   0.872   5.214   2.299
 4964TIP3    H114769   0.945   5.275   2.308
 4964TIP3    H214770   0.902   5.150   2.235
 4965TIP3   OH214771   0.788   4.504   2.423
 4965TIP3    H114772   0.799   4.599   2.435
 4965TIP3    H214773   0.707   4.496   2.373
 4966TIP3   OH214774   2.108   5.983   2.762
 4966TIP3    H114775   2.063   6.034   2.695
 4966TIP3    H214776   2.201   6.004   2.750
 4967TIP3   OH214777   1.179   4.224   3.302
 4967TIP3    H114778   1.150   4.192   3.217
 4967TIP3    H214779   1.167   4.149   3.361
 4968TIP3   OH214780   0.703   5.486   2.682
 4968TIP3    H114781   0.641   5.513   2.749
 4968TIP3    H214782   0.670   5.524   2.601
 4969TIP3   OH214783   0.911   6.024   3.768
 4969TIP3    H114784   0.994   6.027   3.816
 4969TIP3    H214785   0.880   5.934   3.779
 4970TIP3   OH214786   1.372   5.931   3.795
 4970TIP3    H114787   1.461   5.899   3.809
 4970TIP3    H214788   1.339   5.880   3.721
 4971TIP3   OH214789   1.330   5.527   1.928
 4971TIP3    H114790   1.281   5.457   1.972
 4971TIP3    H214791   1.404   5.482   1.888
 4972TIP3   OH214792   1.986   5.870   3.557
 4972TIP3    H114793   1.994   5.796   3.617
 4972TIP3    H214794   2.064   5.923   3.574
 4973TIP3   OH214795   1.769   5.565   1.850
 4973TIP3    H114796   1.802   5.503   1.914
 4973TIP3    H214797   1.829   5.558   1.776
 4974TIP3   OH214798   1.013   5.433   3.953
 4974TIP3    H114799   1.036   5.341   3.960
 4974TIP3    H214800   0.938   5.434   3.893
 4975TIP3   OH214801   0.994   5.023   2.147
 4975TIP3    H114802   1.044   4.997   2.224
 4975TIP3    H214803   1.060   5.036   2.078
 4976TIP3   OH214804   1.630   5.505   3.730
 4976TIP3    H114805   1.588   5.523   3.646
 4976TIP3    H214806   1.672   5.419   3.718
 4977TIP3   OH214807   1.555   5.245   1.976
 4977TIP3    H114808   1.537   5.255   2.069
 4977TIP3    H214809   1.542   5.152   1.958
 4978TIP3   OH214810   2.105   5.555   3.354
 4978TIP3    H114811   2.182   5.574   3.300
 4978TIP3    H214812   2.040   5.620   3.328
 4979TIP3   OH214813   1.111   5.172   3.943
 4979TIP3    H114814   1.187   5.156   3.886
 4979TIP3    H214815   1.148   5.181   4.030
 4980TIP3   OH214816   1.166   4.964   2.359
 4980TIP3    H114817   1.147   4.932   2.448
 4980TIP3    H214818   1.216   4.893   2.318
 4981TIP3   OH214819   1.435   5.012   3.604
 4981TIP3    H114820   1.372   5.079   3.631
 4981TIP3    H214821   1.495   5.058   3.545
 4982TIP3   OH214822   1.309   4.782   2.205
 4982TIP3    H114823   1.279   4.786   2.115
 4982TIP3    H214824   1.405   4.790   2.199
 4983TIP3   OH214825   1.985   5.418   3.690
 4983TIP3    H114826   2.059   5.386   3.638
 4983TIP3    H214827   1.985   5.363   3.768
 4984TIP3   OH214828   2.097   5.075   1.885
 4984TIP3    H114829   2.087   5.031   1.801
 4984TIP3    H214830   2.072   5.166   1.868
 4985TIP3   OH214831   1.584   4.814   3.724
 4985TIP3    H114832   1.592   4.741   3.663
 4985TIP3    H214833   1.539   4.882   3.674
 4986TIP3   OH214834   1.594   4.616   3.521
 4986TIP3    H114835   1.624   4.647   3.436
 4986TIP3    H214836   1.504   4.587   3.506
 4987TIP3   OH214837   1.603   5.159   3.442
 4987TIP3    H114838   1.687   5.149   3.398
 4987TIP3    H214839   1.550   5.210   3.381
 4988TIP3   OH214840   2.199   5.096   3.761
 4988TIP3    H114841   2.227   5.005   3.774
 4988TIP3    H214842   2.275   5.139   3.723
 4989TIP3   OH214843   2.237   5.366   3.502
 4989TIP3    H114844   2.186   5.433   3.455
 4989TIP3    H214845   2.326   5.377   3.470
 4990TIP3   OH214846   1.468   4.899   3.966
 4990TIP3    H114847   1.403   4.831   3.985
 4990TIP3    H214848   1.500   4.877   3.879
 4991TIP3   OH214849   1.715   4.385   3.623
 4991TIP3    H114850   1.675   4.465   3.590
 4991TIP3    H214851   1.650   4.317   3.609
 4992TIP3   OH214852   1.844   4.856   3.823
 4992TIP3    H114853   1.836   4.843   3.917
 4992TIP3    H214854   1.757   4.836   3.788
 4993TIP3   OH214855   2.093   4.814   3.694
 4993TIP3    H114856   2.014   4.810   3.748
 4993TIP3    H214857   2.164   4.786   3.752
 4994TIP3   OH214858   2.322   4.774   3.846
 4994TIP3    H114859   2.338   4.680   3.854
 4994TIP3    H214860   2.318   4.805   3.936
 4995TIP3   OH214861   1.302   4.681   4.033
 4995TIP3    H114862   1.307   4.595   3.993
 4995TIP3    H214863   1.343   4.671   4.118
 4996TIP3   OH214864   1.782   4.362   3.888
 4996TIP3    H114865   1.850   4.295   3.882
 4996TIP3    H214866   1.752   4.374   3.797
 4997TIP3   OH214867   1.878   4.578   4.031
 4997TIP3    H114868   1.848   4.505   3.976
 4997TIP3    H214869   1.805   4.639   4.030
 4998TIP3   OH214870   1.135   5.832   2.140
 4998TIP3    H114871   1.223   5.808   2.112
 4998TIP3    H214872   1.096   5.876   2.064
 4999TIP3   OH214873   0.600   5.208   2.329
 4999TIP3    H114874   0.695   5.221   2.321
 4999TIP3    H214875   0.584   5.123   2.288
 5000TIP3   OH214876   0.514   5.798   2.761
 5000TIP3    H114877   0.449   5.745   2.715
 5000TIP3    H214878   0.552   5.738   2.826
 5001TIP3   OH214879   0.639   5.643   2.951
 5001TIP3    H114880   0.625   5.576   3.018
 5001TIP3    H214881   0.698   5.706   2.992
 5002TIP3   OH214882   2.366   6.073   2.750
 5002TIP3    H114883   2.408   6.075   2.837
 5002TIP3    H214884   2.438   6.086   2.689
 5003TIP3   OH214885   2.404   6.059   3.038
 5003TIP3    H114886   2.355   5.978   3.026
 5003TIP3    H214887   2.475   6.035   3.097
 5004TIP3   OH214888   2.433   5.775   3.603
 5004TIP3    H114889   2.370   5.778   3.675
 5004TIP3    H214890   2.488   5.853   3.617
 5005TIP3   OH214891   2.262   5.292   2.201
 5005TIP3    H114892   2.328   5.355   2.171
 5005TIP3    H214893   2.296   5.261   2.285
 5006TIP3   OH214894   2.351   5.186   2.433
 5006TIP3    H114895   2.301   5.116   2.474
 5006TIP3    H214896   2.437   5.181   2.475
 5007TIP3   OH214897   2.438   5.531   2.828
 5007TIP3    H114898   2.490   5.459   2.793
 5007TIP3    H214899   2.448   5.601   2.763
 5008TIP3   OH214900   2.255   5.826   3.038
 5008TIP3    H114901   2.185   5.863   3.092
 5008TIP3    H214902   2.208   5.783   2.966
 5009TIP3   OH214903   2.310   5.054   2.062
 5009TIP3    H114904   2.235   5.051   2.002
 5009TIP3    H214905   2.294   5.132   2.115
 5010TIP3   OH214906   2.146   4.711   1.989
 5010TIP3    H114907   2.098   4.731   1.908
 5010TIP3    H214908   2.152   4.616   1.990
 5011TIP3   OH214909   2.184   4.991   2.547
 5011TIP3    H114910   2.200   4.898   2.531
 5011TIP3    H214911   2.174   4.998   2.642
 5012TIP3   OH214912   0.829   5.075   3.336
 5012TIP3    H114913   0.816   5.034   3.250
 5012TIP3    H214914   0.923   5.068   3.352
 5013TIP3   OH214915   2.506   5.393   3.415
 5013TIP3    H114916   2.559   5.325   3.456
 5013TIP3    H214917   2.549   5.412   3.332
 5014TIP3   OH214918   2.653   5.196   3.529
 5014TIP3    H114919   2.574   5.141   3.530
 5014TIP3    H214920   2.723   5.137   3.499
 5015TIP3   OH214921   2.132   4.437   1.976
 5015TIP3    H114922   2.195   4.412   2.044
 5015TIP3    H214923   2.049   4.401   2.007
 5016TIP3   OH214924   2.187   4.713   2.450
 5016TIP3    H114925   2.237   4.632   2.458
 5016TIP3    H214926   2.221   4.754   2.370
 5017TIP3   OH214927   2.338   4.876   2.965
 5017TIP3    H114928   2.419   4.892   2.916
 5017TIP3    H214929   2.353   4.916   3.051
 5018TIP3   OH214930   2.422   5.031   3.188
 5018TIP3    H114931   2.350   5.069   3.238
 5018TIP3    H214932   2.451   5.102   3.130
 5019TIP3   OH214933   1.037   4.738   3.973
 5019TIP3    H114934   1.132   4.733   3.987
 5019TIP3    H214935   1.003   4.656   4.008
 5020TIP3   OH214936   2.881   4.629   3.732
 5020TIP3    H114937   2.946   4.575   3.686
 5020TIP3    H214938   2.840   4.681   3.663
 5021TIP3   OH214939   2.313   4.467   2.489
 5021TIP3    H114940   2.365   4.457   2.569
 5021TIP3    H214941   2.252   4.394   2.491
 5022TIP3   OH214942   1.018   4.450   3.313
 5022TIP3    H114943   1.069   4.369   3.322
 5022TIP3    H214944   1.083   4.517   3.295
 5023TIP3   OH214945   0.811   4.707   3.389
 5023TIP3    H114946   0.850   4.686   3.304
 5023TIP3    H214947   0.853   4.789   3.414
 5024TIP3   OH214948   2.728   4.745   3.540
 5024TIP3    H114949   2.647   4.788   3.567
 5024TIP3    H214950   2.699   4.674   3.483
 5025TIP3   OH214951   2.346   4.371   2.137
 5025TIP3    H114952   2.401   4.319   2.078
 5025TIP3    H214953   2.407   4.428   2.184
 5026TIP3   OH214954   0.825   4.234   2.877
 5026TIP3    H114955   0.745   4.219   2.927
 5026TIP3    H214956   0.797   4.284   2.800
 5027TIP3   OH214957   1.935   5.948   2.397
 5027TIP3    H114958   1.989   5.933   2.320
 5027TIP3    H214959   1.983   6.014   2.448
 5028TIP3   OH214960   1.011   4.298   3.712
 5028TIP3    H114961   0.954   4.276   3.785
 5028TIP3    H214962   0.954   4.339   3.648
 5029TIP3   OH214963   1.248   5.777   3.319
 5029TIP3    H114964   1.198   5.853   3.287
 5029TIP3    H214965   1.332   5.782   3.274
 5030TIP3   OH214966   1.636   6.015   3.469
 5030TIP3    H114967   1.678   6.007   3.555
 5030TIP3    H214968   1.697   6.068   3.418
 5031TIP3   OH214969   1.820   6.161   3.326
 5031TIP3    H114970   1.854   6.104   3.257
 5031TIP3    H214971   1.899   6.199   3.366
 5032TIP3   OH214972   2.637   4.507   3.421
 5032TIP3    H114973   2.556   4.513   3.370
 5032TIP3    H214974   2.664   4.416   3.412
 5033TIP3   OH214975   0.899   6.033   3.329
 5033TIP3    H114976   0.805   6.047   3.321
 5033TIP3    H214977   0.924   6.084   3.406
 5034TIP3   OH214978   1.145   6.011   3.211
 5034TIP3    H114979   1.060   6.023   3.254
 5034TIP3    H214980   1.130   6.038   3.121
 5035TIP3   OH214981   1.553   6.033   3.016
 5035TIP3    H114982   1.487   6.041   2.948
 5035TIP3    H214983   1.560   6.121   3.053
 5036TIP3   OH214984   1.819   5.992   3.085
 5036TIP3    H114985   1.729   5.998   3.052
 5036TIP3    H214986   1.870   6.044   3.022
 5037TIP3   OH214987   2.026   6.143   2.969
 5037TIP3    H114988   2.024   6.230   2.928
 5037TIP3    H214989   2.055   6.085   2.899
 5038TIP3   OH214990   0.826   5.843   3.099
 5038TIP3    H114991   0.869   5.890   3.170
 5038TIP3    H214992   0.896   5.794   3.057
 5039TIP3   OH214993   1.017   5.697   2.972
 5039TIP3    H114994   1.034   5.613   3.015
 5039TIP3    H214995   1.104   5.736   2.961
 5040TIP3   OH214996   1.288   5.778   2.970
 5040TIP3    H114997   1.308   5.686   2.950
 5040TIP3    H214998   1.345   5.799   3.044
 5041TIP3   OH214999   1.845   4.423   3.063
 5041TIP3    H115000   1.806   4.350   3.112
 5041TIP3    H215001   1.914   4.382   3.011
 5042TIP3   OH215002   2.366   4.345   2.928
 5042TIP3    H115003   2.410   4.396   2.860
 5042TIP3    H215004   2.280   4.387   2.938
 5043TIP3   OH215005   2.491   4.441   2.700
 5043TIP3    H115006   2.555   4.375   2.676
 5043TIP3    H215007   2.532   4.525   2.677
 5044TIP3   OH215008   1.092   4.125   3.060
 5044TIP3    H115009   1.002   4.092   3.066
 5044TIP3    H215010   1.146   4.047   3.051
 5045TIP3   OH215011   0.921   4.030   2.709
 5045TIP3    H115012   0.944   4.077   2.629
 5045TIP3    H215013   0.893   4.098   2.770
 5046TIP3   OH215014   1.570   4.163   2.955
 5046TIP3    H115015   1.617   4.210   2.886
 5046TIP3    H215016   1.612   4.192   3.036
 5047TIP3   OH215017   2.060   4.311   2.933
 5047TIP3    H115018   2.084   4.279   2.846
 5047TIP3    H215019   2.070   4.235   2.990
 5048TIP3   OH215020   2.126   4.257   2.507
 5048TIP3    H115021   2.046   4.305   2.528
 5048TIP3    H215022   2.114   4.171   2.547
 5049TIP3   OH215023   0.599   5.599   2.454
 5049TIP3    H115024   0.516   5.563   2.425
 5049TIP3    H215025   0.596   5.691   2.428
 5050TIP3   OH215026   1.018   4.167   2.480
 5050TIP3    H115027   1.062   4.105   2.422
 5050TIP3    H215028   1.088   4.222   2.515
 5051TIP3   OH215029   1.502   4.359   2.573
 5051TIP3    H115030   1.561   4.306   2.626
 5051TIP3    H215031   1.518   4.449   2.602
 5052TIP3   OH215032   1.387   5.753   2.069
 5052TIP3    H115033   1.471   5.779   2.031
 5052TIP3    H215034   1.358   5.680   2.013
 5053TIP3   OH215035   2.085   5.896   2.168
 5053TIP3    H115036   2.080   5.801   2.160
 5053TIP3    H215037   2.043   5.930   2.089
 5054TIP3   OH215038   1.317   4.412   3.942
 5054TIP3    H115039   1.283   4.345   4.001
 5054TIP3    H215040   1.410   4.419   3.964
 5055TIP3   OH215041   1.566   4.415   4.063
 5055TIP3    H115042   1.643   4.393   4.011
 5055TIP3    H215043   1.561   4.346   4.129
 5056TIP3   OH215044   0.696   5.590   2.133
 5056TIP3    H115045   0.697   5.590   2.229
 5056TIP3    H215046   0.777   5.545   2.108
 5057TIP3   OH215047   2.387   4.502   3.852
 5057TIP3    H115048   2.405   4.473   3.942
 5057TIP3    H215049   2.472   4.498   3.809
 5058TIP3   OH215050   2.305   6.063   3.357
 5058TIP3    H115051   2.235   6.024   3.305
 5058TIP3    H215052   2.324   6.146   3.312
 5059TIP3   OH215053   3.569   5.441   2.107
 5059TIP3    H115054   3.537   5.523   2.070
 5059TIP3    H215055   3.504   5.376   2.080
 5060TIP3   OH215056   3.571   5.422   2.527
 5060TIP3    H115057   3.629   5.398   2.599
 5060TIP3    H215058   3.531   5.340   2.499
 5061TIP3   OH215059   2.849   5.301   2.886
 5061TIP3    H115060   2.896   5.219   2.905
 5061TIP3    H215061   2.890   5.365   2.945
 5062TIP3   OH215062   3.847   5.727   2.197
 5062TIP3    H115063   3.835   5.656   2.260
 5062TIP3    H215064   3.868   5.804   2.250
 5063TIP3   OH215065   2.868   5.718   2.570
 5063TIP3    H115066   2.859   5.623   2.572
 5063TIP3    H215067   2.962   5.733   2.557
 5064TIP3   OH215068   2.612   5.170   2.539
 5064TIP3    H115069   2.649   5.101   2.593
 5064TIP3    H215070   2.645   5.152   2.451
 5065TIP3   OH215071   3.513   6.147   2.213
 5065TIP3    H115072   3.535   6.086   2.143
 5065TIP3    H215073   3.524   6.096   2.293
 5066TIP3   OH215074   3.382   5.646   2.521
 5066TIP3    H115075   3.424   5.563   2.498
 5066TIP3    H215076   3.454   5.703   2.548
 5067TIP3   OH215077   4.421   4.956   2.544
 5067TIP3    H115078   4.437   5.041   2.585
 5067TIP3    H215079   4.423   4.974   2.450
 5068TIP3   OH215080   3.800   5.135   2.554
 5068TIP3    H115081   3.826   5.046   2.578
 5068TIP3    H215082   3.764   5.127   2.466
 5069TIP3   OH215083   3.163   4.793   2.526
 5069TIP3    H115084   3.129   4.859   2.465
 5069TIP3    H215085   3.125   4.711   2.495
 5070TIP3   OH215086   3.859   4.896   2.178
 5070TIP3    H115087   3.928   4.883   2.243
 5070TIP3    H215088   3.889   4.970   2.125
 5071TIP3   OH215089   2.756   4.962   2.661
 5071TIP3    H115090   2.848   4.952   2.685
 5071TIP3    H215091   2.754   4.948   2.566
 5072TIP3   OH215092   3.201   5.192   2.438
 5072TIP3    H115093   3.294   5.174   2.451
 5072TIP3    H215094   3.164   5.109   2.410
 5073TIP3   OH215095   4.477   5.180   2.705
 5073TIP3    H115096   4.387   5.214   2.696
 5073TIP3    H215097   4.507   5.214   2.789
 5074TIP3   OH215098   3.128   4.789   2.973
 5074TIP3    H115099   3.079   4.826   2.899
 5074TIP3    H215100   3.074   4.809   3.049
 5075TIP3   OH215101   3.476   5.649   1.950
 5075TIP3    H115102   3.436   5.614   1.870
 5075TIP3    H215103   3.421   5.723   1.975
 5076TIP3   OH215104   3.228   5.556   2.733
 5076TIP3    H115105   3.172   5.624   2.771
 5076TIP3    H215106   3.273   5.600   2.660
 5077TIP3   OH215107   4.026   4.883   2.399
 5077TIP3    H115108   3.966   4.879   2.473
 5077TIP3    H215109   4.070   4.967   2.407
 5078TIP3   OH215110   3.015   4.891   2.740
 5078TIP3    H115111   3.065   4.969   2.764
 5078TIP3    H215112   3.065   4.851   2.669
 5079TIP3   OH215113   3.075   5.759   2.846
 5079TIP3    H115114   3.042   5.844   2.817
 5079TIP3    H215115   3.008   5.727   2.907
 5080TIP3   OH215116   2.447   5.473   2.090
 5080TIP3    H115117   2.417   5.492   2.001
 5080TIP3    H215118   2.473   5.557   2.126
 5081TIP3   OH215119   3.883   5.976   2.340
 5081TIP3    H115120   3.794   5.969   2.375
 5081TIP3    H215121   3.884   6.058   2.292
 5082TIP3   OH215122   4.218   4.847   2.709
 5082TIP3    H115123   4.133   4.866   2.670
 5082TIP3    H215124   4.281   4.874   2.642
 5083TIP3   OH215125   3.489   4.504   2.717
 5083TIP3    H115126   3.466   4.417   2.686
 5083TIP3    H215127   3.406   4.539   2.751
 5084TIP3   OH215128   3.590   6.006   1.985
 5084TIP3    H115129   3.642   5.926   1.978
 5084TIP3    H215130   3.649   6.076   1.957
 5085TIP3   OH215131   3.729   5.776   1.951
 5085TIP3    H115132   3.658   5.712   1.946
 5085TIP3    H215133   3.779   5.750   2.028
 5086TIP3   OH215134   4.127   5.853   2.680
 5086TIP3    H115135   4.103   5.780   2.623
 5086TIP3    H215136   4.113   5.931   2.626
 5087TIP3   OH215137   3.408   5.271   1.951
 5087TIP3    H115138   3.323   5.309   1.930
 5087TIP3    H215139   3.454   5.267   1.867
 5088TIP3   OH215140   3.365   5.081   1.635
 5088TIP3    H115141   3.431   5.128   1.687
 5088TIP3    H215142   3.413   5.010   1.593
 5089TIP3   OH215143   4.297   5.522   2.544
 5089TIP3    H115144   4.211   5.564   2.540
 5089TIP3    H215145   4.333   5.534   2.456
 5090TIP3   OH215146   3.741   5.369   1.903
 5090TIP3    H115147   3.695   5.399   1.981
 5090TIP3    H215148   3.809   5.310   1.935
 5091TIP3   OH215149   3.995   5.380   2.851
 5091TIP3    H115150   3.988   5.461   2.900
 5091TIP3    H215151   3.915   5.375   2.800
 5092TIP3   OH215152   2.989   5.329   2.316
 5092TIP3    H115153   2.945   5.264   2.261
 5092TIP3    H215154   3.063   5.282   2.354
 5093TIP3   OH215155   3.128   5.765   2.456
 5093TIP3    H115156   3.100   5.741   2.368
 5093TIP3    H215157   3.212   5.722   2.467
 5094TIP3   OH215158   3.113   5.311   2.674
 5094TIP3    H115159   3.149   5.283   2.589
 5094TIP3    H215160   3.155   5.395   2.690
 5095TIP3   OH215161   3.638   5.978   2.462
 5095TIP3    H115162   3.633   6.051   2.524
 5095TIP3    H215163   3.630   5.900   2.517
 5096TIP3   OH215164   3.268   5.867   3.010
 5096TIP3    H115165   3.204   5.922   3.057
 5096TIP3    H215166   3.215   5.811   2.954
 5097TIP3   OH215167   3.589   5.212   1.737
 5097TIP3    H115168   3.646   5.272   1.785
 5097TIP3    H215169   3.623   5.213   1.648
 5098TIP3   OH215170   3.340   5.888   1.992
 5098TIP3    H115171   3.424   5.935   1.999
 5098TIP3    H215172   3.284   5.948   1.944
 5099TIP3   OH215173   3.053   6.029   3.087
 5099TIP3    H115174   3.030   6.032   2.994
 5099TIP3    H215175   2.972   6.006   3.131
 5100TIP3   OH215176   4.098   4.427   1.791
 5100TIP3    H115177   4.024   4.449   1.847
 5100TIP3    H215178   4.118   4.508   1.744
 5101TIP3   OH215179   2.854   5.153   2.136
 5101TIP3    H115180   2.774   5.194   2.102
 5101TIP3    H215181   2.824   5.081   2.190
 5102TIP3   OH215182   3.930   5.812   1.355
 5102TIP3    H115183   3.926   5.905   1.335
 5102TIP3    H215184   4.020   5.786   1.331
 5103TIP3   OH215185   2.623   5.601   3.026
 5103TIP3    H115186   2.558   5.580   2.959
 5103TIP3    H215187   2.641   5.518   3.070
 5104TIP3   OH215188   2.542   5.749   2.671
 5104TIP3    H115189   2.627   5.718   2.640
 5104TIP3    H215190   2.563   5.817   2.734
 5105TIP3   OH215191   4.354   6.235   2.745
 5105TIP3    H115192   4.361   6.140   2.752
 5105TIP3    H215193   4.274   6.257   2.793
 5106TIP3   OH215194   3.452   6.012   2.870
 5106TIP3    H115195   3.443   6.102   2.900
 5106TIP3    H215196   3.388   5.963   2.921
 5107TIP3   OH215197   3.234   6.106   1.823
 5107TIP3    H115198   3.187   6.085   1.743
 5107TIP3    H215199   3.196   6.189   1.852
 5108TIP3   OH215200   2.670   5.965   2.207
 5108TIP3    H115201   2.715   5.955   2.290
 5108TIP3    H215202   2.622   5.882   2.196
 5109TIP3   OH215203   3.436   6.037   1.451
 5109TIP3    H115204   3.487   5.964   1.416
 5109TIP3    H215205   3.471   6.050   1.539
 5110TIP3   OH215206   3.488   6.080   1.721
 5110TIP3    H115207   3.401   6.084   1.761
 5110TIP3    H215208   3.543   6.039   1.787
 5111TIP3   OH215209   4.237   5.337   3.011
 5111TIP3    H115210   4.157   5.344   2.959
 5111TIP3    H215211   4.257   5.243   3.010
 5112TIP3   OH215212   2.883   5.697   3.031
 5112TIP3    H115213   2.927   5.624   3.075
 5112TIP3    H215214   2.792   5.670   3.026
 5113TIP3   OH215215   3.234   4.572   2.831
 5113TIP3    H115216   3.150   4.540   2.796
 5113TIP3    H215217   3.211   4.655   2.875
 5114TIP3   OH215218   3.775   4.699   3.032
 5114TIP3    H115219   3.842   4.673   3.095
 5114TIP3    H215220   3.692   4.682   3.076
 5115TIP3   OH215221   4.002   5.116   2.949
 5115TIP3    H115222   3.959   5.113   3.035
 5115TIP3    H215223   3.980   5.203   2.915
 5116TIP3   OH215224   3.672   5.180   1.474
 5116TIP3    H115225   3.632   5.184   1.388
 5116TIP3    H215226   3.754   5.229   1.464
 5117TIP3   OH215227   3.406   4.610   1.804
 5117TIP3    H115228   3.367   4.617   1.891
 5117TIP3    H215229   3.367   4.532   1.766
 5118TIP3   OH215230   3.169   5.100   2.836
 5118TIP3    H115231   3.119   5.112   2.918
 5118TIP3    H215232   3.149   5.179   2.785
 5119TIP3   OH215233   3.056   4.970   2.349
 5119TIP3    H115234   2.962   4.972   2.363
 5119TIP3    H215235   3.067   4.932   2.261
 5120TIP3   OH215236   3.531   5.062   2.084
 5120TIP3    H115237   3.487   5.138   2.046
 5120TIP3    H215238   3.599   5.039   2.020
 5121TIP3   OH215239   3.716   5.323   3.158
 5121TIP3    H115240   3.689   5.255   3.220
 5121TIP3    H215241   3.808   5.338   3.177
 5122TIP3   OH215242   3.668   5.045   2.325
 5122TIP3    H115243   3.615   5.073   2.250
 5122TIP3    H215244   3.735   4.989   2.288
 5123TIP3   OH215245   2.999   5.118   3.050
 5123TIP3    H115246   2.997   5.200   3.098
 5123TIP3    H215247   2.990   5.050   3.117
 5124TIP3   OH215248   3.059   4.593   1.772
 5124TIP3    H115249   3.051   4.597   1.867
 5124TIP3    H215250   2.981   4.638   1.740
 5125TIP3   OH215251   2.622   4.667   2.613
 5125TIP3    H115252   2.679   4.690   2.687
 5125TIP3    H215253   2.638   4.736   2.548
 5126TIP3   OH215254   3.744   5.330   2.731
 5126TIP3    H115255   3.770   5.266   2.665
 5126TIP3    H215256   3.701   5.279   2.799
 5127TIP3   OH215257   3.419   4.766   2.405
 5127TIP3    H115258   3.343   4.781   2.461
 5127TIP3    H215259   3.493   4.765   2.466
 5128TIP3   OH215260   3.079   4.846   2.104
 5128TIP3    H115261   3.171   4.868   2.092
 5128TIP3    H215262   3.037   4.873   2.023
 5129TIP3   OH215263   3.856   4.871   2.620
 5129TIP3    H115264   3.836   4.890   2.711
 5129TIP3    H215265   3.786   4.813   2.591
 5130TIP3   OH215266   2.960   4.882   1.859
 5130TIP3    H115267   2.896   4.833   1.807
 5130TIP3    H215268   3.010   4.932   1.795
 5131TIP3   OH215269   4.063   6.567   2.837
 5131TIP3    H115270   4.059   6.578   2.742
 5131TIP3    H215271   4.142   6.614   2.864
 5132TIP3   OH215272   3.470   5.144   2.507
 5132TIP3    H115273   3.538   5.100   2.456
 5132TIP3    H215274   3.470   5.097   2.591
 5133TIP3   OH215275   3.049   4.568   2.418
 5133TIP3    H115276   2.993   4.504   2.462
 5133TIP3    H215277   3.000   4.593   2.340
 5134TIP3   OH215278   3.436   5.045   2.779
 5134TIP3    H115279   3.347   5.076   2.798
 5134TIP3    H215280   3.493   5.102   2.829
 5135TIP3   OH215281   3.162   5.395   1.890
 5135TIP3    H115282   3.090   5.335   1.872
 5135TIP3    H215283   3.141   5.435   1.974
 5136TIP3   OH215284   4.060   5.656   2.501
 5136TIP3    H115285   4.093   5.702   2.424
 5136TIP3    H215286   3.980   5.612   2.471
 5137TIP3   OH215287   3.616   4.767   1.717
 5137TIP3    H115288   3.542   4.724   1.759
 5137TIP3    H215289   3.644   4.834   1.779
 5138TIP3   OH215290   3.592   5.751   2.895
 5138TIP3    H115291   3.624   5.726   2.982
 5138TIP3    H215292   3.538   5.829   2.910
 5139TIP3   OH215293   3.703   4.987   1.872
 5139TIP3    H115294   3.785   5.017   1.911
 5139TIP3    H215295   3.674   5.060   1.819
 5140TIP3   OH215296   2.889   5.446   2.557
 5140TIP3    H115297   2.910   5.406   2.472
 5140TIP3    H215298   2.936   5.393   2.620
 5141TIP3   OH215299   3.319   5.555   1.734
 5141TIP3    H115300   3.272   5.639   1.732
 5141TIP3    H215301   3.264   5.497   1.786
 5142TIP3   OH215302   2.673   5.388   3.192
 5142TIP3    H115303   2.769   5.393   3.193
 5142TIP3    H215304   2.653   5.310   3.141
 5143TIP3   OH215305   3.487   5.483   3.202
 5143TIP3    H115306   3.413   5.428   3.177
 5143TIP3    H215307   3.564   5.438   3.168
 5144TIP3   OH215308   3.726   6.035   2.795
 5144TIP3    H115309   3.633   6.014   2.797
 5144TIP3    H215310   3.747   6.064   2.883
 5145TIP3   OH215311   4.163   5.061   1.612
 5145TIP3    H115312   4.085   5.020   1.575
 5145TIP3    H215313   4.147   5.155   1.604
 5146TIP3   OH215314   4.371   5.961   2.760
 5146TIP3    H115315   4.280   5.932   2.767
 5146TIP3    H215316   4.402   5.921   2.679
 5147TIP3   OH215317   3.852   5.881   1.624
 5147TIP3    H115318   3.825   5.812   1.685
 5147TIP3    H215319   3.869   5.835   1.542
 5148TIP3   OH215320   3.830   5.524   2.401
 5148TIP3    H115321   3.740   5.497   2.417
 5148TIP3    H215322   3.874   5.447   2.366
 5149TIP3   OH215323   2.986   5.754   2.212
 5149TIP3    H115324   2.982   5.830   2.155
 5149TIP3    H215325   2.894   5.730   2.226
 5150TIP3   OH215326   2.537   5.054   1.906
 5150TIP3    H115327   2.588   5.127   1.939
 5150TIP3    H215328   2.462   5.047   1.966
 5151TIP3   OH215329   3.072   5.507   2.118
 5151TIP3    H115330   3.059   5.595   2.153
 5151TIP3    H215331   3.046   5.449   2.189
 5152TIP3   OH215332   3.263   6.080   2.668
 5152TIP3    H115333   3.302   6.151   2.618
 5152TIP3    H215334   3.336   6.043   2.718
 5153TIP3   OH215335   2.903   5.979   2.060
 5153TIP3    H115336   2.816   5.986   2.101
 5153TIP3    H215337   2.938   6.068   2.065
 5154TIP3   OH215338   3.625   5.747   2.621
 5154TIP3    H115339   3.617   5.743   2.717
 5154TIP3    H215340   3.681   5.672   2.599
 5155TIP3   OH215341   3.612   5.621   1.507
 5155TIP3    H115342   3.667   5.598   1.582
 5155TIP3    H215343   3.528   5.577   1.524
 5156TIP3   OH215344   3.886   6.234   2.679
 5156TIP3    H115345   3.820   6.170   2.705
 5156TIP3    H215346   3.844   6.286   2.611
 5157TIP3   OH215347   3.930   6.085   1.314
 5157TIP3    H115348   3.956   6.151   1.250
 5157TIP3    H215349   3.857   6.126   1.361
 5158TIP3   OH215350   2.963   4.854   3.188
 5158TIP3    H115351   2.867   4.861   3.192
 5158TIP3    H215352   2.986   4.800   3.263
 5159TIP3   OH215353   3.793   5.548   1.698
 5159TIP3    H115354   3.768   5.495   1.774
 5159TIP3    H215355   3.889   5.546   1.697
 5160TIP3   OH215356   2.678   5.966   2.824
 5160TIP3    H115357   2.740   5.901   2.859
 5160TIP3    H215358   2.703   6.048   2.867
 5161TIP3   OH215359   2.964   5.584   1.522
 5161TIP3    H115360   2.975   5.493   1.496
 5161TIP3    H215361   2.951   5.581   1.617
 5162TIP3   OH215362   2.912   5.602   1.795
 5162TIP3    H115363   2.975   5.571   1.859
 5162TIP3    H215364   2.914   5.697   1.802
 5163TIP3   OH215365   2.643   5.289   2.009
 5163TIP3    H115366   2.578   5.338   2.059
 5163TIP3    H215367   2.668   5.348   1.939
 5164TIP3   OH215368   3.803   4.930   2.884
 5164TIP3    H115369   3.884   4.971   2.915
 5164TIP3    H215370   3.794   4.851   2.938
 5165TIP3   OH215371   3.712   4.690   2.072
 5165TIP3    H115372   3.678   4.734   1.994
 5165TIP3    H215373   3.763   4.757   2.117
 5166TIP3   OH215374   3.180   5.787   1.728
 5166TIP3    H115375   3.096   5.811   1.767
 5166TIP3    H215376   3.203   5.861   1.672
 5167TIP3   OH215377   3.358   4.860   2.149
 5167TIP3    H115378   3.416   4.932   2.125
 5167TIP3    H215379   3.377   4.842   2.241
 5168TIP3   OH215380   3.645   5.165   2.925
 5168TIP3    H115381   3.666   5.203   3.010
 5168TIP3    H215382   3.692   5.081   2.924
 5169TIP3   OH215383   3.520   4.565   2.238
 5169TIP3    H115384   3.494   4.638   2.295
 5169TIP3    H215385   3.590   4.600   2.184
 5170TIP3   OH215386   2.932   5.876   1.808
 5170TIP3    H115387   2.911   5.948   1.748
 5170TIP3    H215388   2.921   5.913   1.895
 5171TIP3   OH215389   3.025   4.580   2.048
 5171TIP3    H115390   3.014   4.671   2.076
 5171TIP3    H215391   3.119   4.562   2.060
 5172TIP3   OH215392   4.264   5.057   2.921
 5172TIP3    H115393   4.170   5.069   2.936
 5172TIP3    H215394   4.269   5.001   2.844
 5173TIP3   OH215395   3.955   5.297   2.306
 5173TIP3    H115396   3.940   5.260   2.219
 5173TIP3    H215397   4.007   5.231   2.351
 5174TIP3   OH215398   2.668   5.469   1.790
 5174TIP3    H115399   2.741   5.530   1.799
 5174TIP3    H215400   2.699   5.403   1.729
 5175TIP3   OH215401   2.569   4.780   1.850
 5175TIP3    H115402   2.577   4.872   1.876
 5175TIP3    H215403   2.574   4.731   1.933
 5176TIP3   OH215404   3.907   6.243   2.253
 5176TIP3    H115405   3.866   6.294   2.184
 5176TIP3    H215406   4.001   6.251   2.236
 5177TIP3   OH215407   2.971   4.485   2.788
 5177TIP3    H115408   2.944   4.455   2.702
 5177TIP3    H215409   2.963   4.408   2.844
 5178TIP3   OH215410   2.498   5.743   2.176
 5178TIP3    H115411   2.449   5.773   2.252
 5178TIP3    H215412   2.455   5.784   2.101
 5179TIP3   OH215413   2.701   6.274   3.271
 5179TIP3    H115414   2.783   6.285   3.319
 5179TIP3    H215415   2.698   6.182   3.247
 5180TIP3   OH215416   3.166   6.189   3.278
 5180TIP3    H115417   3.252   6.151   3.294
 5180TIP3    H215418   3.130   6.136   3.207
 5181TIP3   OH215419   3.122   5.783   1.410
 5181TIP3    H115420   3.074   5.714   1.457
 5181TIP3    H215421   3.197   5.738   1.371
 5182TIP3   OH215422   3.779   6.124   3.050
 5182TIP3    H115423   3.796   6.052   3.111
 5182TIP3    H215424   3.854   6.183   3.061
 5183TIP3   OH215425   3.566   5.827   1.333
 5183TIP3    H115426   3.595   5.762   1.397
 5183TIP3    H215427   3.627   5.818   1.260
 5184TIP3   OH215428   2.804   5.727   3.421
 5184TIP3    H115429   2.860   5.651   3.404
 5184TIP3    H215430   2.720   5.705   3.381
 5185TIP3   OH215431   2.790   5.277   1.639
 5185TIP3    H115432   2.837   5.249   1.717
 5185TIP3    H215433   2.859   5.290   1.573
 5186TIP3   OH215434   3.414   5.755   3.219
 5186TIP3    H115435   3.366   5.773   3.138
 5186TIP3    H215436   3.445   5.665   3.208
 5187TIP3   OH215437   3.347   5.504   1.466
 5187TIP3    H115438   3.328   5.513   1.559
 5187TIP3    H215439   3.331   5.412   1.447
 5188TIP3   OH215440   3.905   5.808   2.846
 5188TIP3    H115441   3.978   5.835   2.790
 5188TIP3    H215442   3.833   5.865   2.820
 5189TIP3   OH215443   2.952   5.214   1.862
 5189TIP3    H115444   2.927   5.180   1.949
 5189TIP3    H215445   2.999   5.141   1.821
 5190TIP3   OH215446   3.280   5.312   3.118
 5190TIP3    H115447   3.192   5.349   3.130
 5190TIP3    H215448   3.305   5.336   3.029
 5191TIP3   OH215449   3.096   5.046   1.689
 5191TIP3    H115450   3.067   5.047   1.598
 5191TIP3    H215451   3.191   5.057   1.684
 5192TIP3   OH215452   3.785   5.678   3.190
 5192TIP3    H115453   3.846   5.635   3.131
 5192TIP3    H215454   3.778   5.619   3.265
 5193TIP3   OH215455   3.885   5.330   1.373
 5193TIP3    H115456   3.875   5.287   1.288
 5193TIP3    H215457   3.859   5.421   1.358
 5194TIP3   OH215458   3.388   5.074   3.205
 5194TIP3    H115459   3.385   5.005   3.139
 5194TIP3    H215460   3.350   5.151   3.162
 5195TIP3   OH215461   3.389   4.872   3.003
 5195TIP3    H115462   3.415   4.911   2.920
 5195TIP3    H215463   3.297   4.847   2.991
 5196TIP3   OH215464   3.390   5.393   2.883
 5196TIP3    H115465   3.477   5.411   2.847
 5196TIP3    H215466   3.332   5.450   2.832
 5197TIP3   OH215467   3.986   5.354   3.250
 5197TIP3    H115468   4.012   5.262   3.253
 5197TIP3    H215469   4.065   5.400   3.222
 5198TIP3   OH215470   4.016   5.619   3.005
 5198TIP3    H115471   3.965   5.684   2.957
 5198TIP3    H215472   4.106   5.631   2.973
 5199TIP3   OH215473   3.270   5.150   3.457
 5199TIP3    H115474   3.199   5.086   3.467
 5199TIP3    H215475   3.294   5.145   3.364
 5200TIP3   OH215476   3.510   4.643   3.109
 5200TIP3    H115477   3.470   4.722   3.073
 5200TIP3    H215478   3.446   4.574   3.092
 5201TIP3   OH215479   3.639   5.109   3.313
 5201TIP3    H115480   3.624   5.097   3.407
 5201TIP3    H215481   3.555   5.090   3.273
 5202TIP3   OH215482   3.889   5.076   3.191
 5202TIP3    H115483   3.807   5.070   3.241
 5202TIP3    H215484   3.956   5.042   3.250
 5203TIP3   OH215485   4.125   5.031   3.335
 5203TIP3    H115486   4.138   4.936   3.342
 5203TIP3    H215487   4.120   5.061   3.426
 5204TIP3   OH215488   3.090   4.941   3.517
 5204TIP3    H115489   3.096   4.854   3.479
 5204TIP3    H215490   3.129   4.932   3.604
 5205TIP3   OH215491   3.573   4.616   3.374
 5205TIP3    H115492   3.642   4.550   3.366
 5205TIP3    H215493   3.543   4.630   3.284
 5206TIP3   OH215494   3.675   4.829   3.519
 5206TIP3    H115495   3.642   4.759   3.462
 5206TIP3    H215496   3.604   4.893   3.520
 5207TIP3   OH215497   2.930   6.089   1.626
 5207TIP3    H115498   3.017   6.063   1.597
 5207TIP3    H215499   2.891   6.133   1.550
 5208TIP3   OH215500   2.395   5.470   1.796
 5208TIP3    H115501   2.490   5.479   1.797
 5208TIP3    H215502   2.379   5.382   1.761
 5209TIP3   OH215503   2.292   6.049   2.265
 5209TIP3    H115504   2.227   5.995   2.219
 5209TIP3    H215505   2.336   5.988   2.324
 5210TIP3   OH215506   2.434   5.882   2.434
 5210TIP3    H115507   2.432   5.811   2.497
 5210TIP3    H215508   2.485   5.951   2.477
 5211TIP3   OH215509   4.180   6.285   2.238
 5211TIP3    H115510   4.204   6.312   2.327
 5211TIP3    H215511   4.242   6.332   2.182
 5212TIP3   OH215512   4.204   6.313   2.519
 5212TIP3    H115513   4.155   6.231   2.513
 5212TIP3    H215514   4.272   6.296   2.585
 5213TIP3   OH215515   4.253   6.021   3.093
 5213TIP3    H115516   4.181   6.029   3.156
 5213TIP3    H215517   4.298   6.105   3.098
 5214TIP3   OH215518   4.070   5.527   1.711
 5214TIP3    H115519   4.136   5.595   1.696
 5214TIP3    H215520   4.102   5.480   1.789
 5215TIP3   OH215521   4.158   5.356   1.917
 5215TIP3    H115522   4.088   5.297   1.945
 5215TIP3    H215523   4.198   5.387   1.999
 5216TIP3   OH215524   4.247   5.792   2.338
 5216TIP3    H115525   4.297   5.721   2.299
 5216TIP3    H215526   4.247   5.861   2.271
 5217TIP3   OH215527   4.059   6.076   2.530
 5217TIP3    H115528   3.993   6.122   2.581
 5217TIP3    H215529   4.010   6.035   2.459
 5218TIP3   OH215530   4.106   5.319   1.535
 5218TIP3    H115531   4.027   5.317   1.480
 5218TIP3    H215532   4.088   5.388   1.599
 5219TIP3   OH215533   3.967   4.950   1.456
 5219TIP3    H115534   3.905   4.971   1.386
 5219TIP3    H215535   3.959   4.855   1.466
 5220TIP3   OH215536   2.603   5.319   2.774
 5220TIP3    H115537   2.604   5.281   2.686
 5220TIP3    H215538   2.695   5.321   2.800
 5221TIP3   OH215539   4.268   5.667   2.897
 5221TIP3    H115540   4.336   5.604   2.879
 5221TIP3    H215541   4.254   5.712   2.813
 5222TIP3   OH215542   4.452   5.460   2.892
 5222TIP3    H115543   4.376   5.419   2.934
 5222TIP3    H215544   4.526   5.404   2.915
 5223TIP3   OH215545   3.927   4.677   1.461
 5223TIP3    H115546   3.982   4.655   1.537
 5223TIP3    H215547   3.841   4.642   1.483
 5224TIP3   OH215548   4.147   5.128   2.449
 5224TIP3    H115549   4.227   5.147   2.401
 5224TIP3    H215550   4.157   5.175   2.532
 5225TIP3   OH215551   4.217   5.290   2.673
 5225TIP3    H115552   4.140   5.315   2.724
 5225TIP3    H215553   4.244   5.371   2.629
 5226TIP3   OH215554   2.821   4.989   3.451
 5226TIP3    H115555   2.915   4.995   3.467
 5226TIP3    H215556   2.795   4.906   3.491
 5227TIP3   OH215557   4.677   4.894   3.212
 5227TIP3    H115558   4.740   4.834   3.174
 5227TIP3    H215559   4.639   4.940   3.137
 5228TIP3   OH215560   4.151   4.671   1.965
 5228TIP3    H115561   4.171   4.681   2.058
 5228TIP3    H215562   4.064   4.630   1.963
 5229TIP3   OH215563   2.803   4.704   2.829
 5229TIP3    H115564   2.861   4.628   2.822
 5229TIP3    H215565   2.858   4.778   2.805
 5230TIP3   OH215566   2.580   4.964   2.873
 5230TIP3    H115567   2.638   4.952   2.798
 5230TIP3    H215568   2.601   5.051   2.905
 5231TIP3   OH215569   4.527   5.005   3.013
 5231TIP3    H115570   4.443   5.045   3.038
 5231TIP3    H215571   4.502   4.930   2.958
 5232TIP3   OH215572   4.157   4.633   1.616
 5232TIP3    H115573   4.205   4.572   1.559
 5232TIP3    H215574   4.216   4.708   1.625
 5233TIP3   OH215575   2.529   4.498   2.302
 5233TIP3    H115576   2.464   4.492   2.372
 5233TIP3    H215577   2.571   4.583   2.315
 5234TIP3   OH215578   3.736   6.208   1.883
 5234TIP3    H115579   3.790   6.191   1.805
 5234TIP3    H215580   3.784   6.275   1.932
 5235TIP3   OH215581   2.805   4.523   3.190
 5235TIP3    H115582   2.756   4.528   3.272
 5235TIP3    H215583   2.753   4.575   3.128
 5236TIP3   OH215584   2.827   5.980   3.246
 5236TIP3    H115585   2.732   5.969   3.247
 5236TIP3    H215586   2.861   5.906   3.296
 5237TIP3   OH215587   3.027   6.036   2.808
 5237TIP3    H115588   2.984   6.116   2.777
 5237TIP3    H215589   3.114   6.038   2.768
 5238TIP3   OH215590   3.435   6.276   2.958
 5238TIP3    H115591   3.475   6.264   3.044
 5238TIP3    H215592   3.499   6.329   2.909
 5239TIP3   OH215593   3.624   6.427   2.824
 5239TIP3    H115594   3.676   6.370   2.768
 5239TIP3    H215595   3.688   6.477   2.874
 5240TIP3   OH215596   4.439   4.758   2.906
 5240TIP3    H115597   4.352   4.756   2.866
 5240TIP3    H215598   4.469   4.667   2.902
 5241TIP3   OH215599   2.706   6.289   2.864
 5241TIP3    H115600   2.616   6.315   2.840
 5241TIP3    H215601   2.729   6.348   2.936
 5242TIP3   OH215602   2.934   6.277   2.711
 5242TIP3    H115603   2.852   6.283   2.758
 5242TIP3    H215604   2.912   6.298   2.620
 5243TIP3   OH215605   3.349   6.289   2.505
 5243TIP3    H115606   3.279   6.297   2.440
 5243TIP3    H215607   3.356   6.376   2.543
 5244TIP3   OH215608   3.617   6.245   2.562
 5244TIP3    H115609   3.525   6.253   2.537
 5244TIP3    H215610   3.663   6.306   2.504
 5245TIP3   OH215611   3.826   6.411   2.455
 5245TIP3    H115612   3.818   6.495   2.410
 5245TIP3    H215613   3.852   6.350   2.387
 5246TIP3   OH215614   2.604   6.062   2.577
 5246TIP3    H115615   2.629   6.033   2.665
 5246TIP3    H215616   2.676   6.032   2.521
 5247TIP3   OH215617   2.814   5.954   2.442
 5247TIP3    H115618   2.826   5.869   2.485
 5247TIP3    H215619   2.901   5.993   2.441
 5248TIP3   OH215620   3.083   6.038   2.459
 5248TIP3    H115621   3.102   5.946   2.441
 5248TIP3    H215622   3.136   6.059   2.537
 5249TIP3   OH215623   3.642   4.693   2.559
 5249TIP3    H115624   3.598   4.626   2.611
 5249TIP3    H215625   3.708   4.644   2.509
 5250TIP3   OH215626   4.141   4.596   2.447
 5250TIP3    H115627   4.184   4.644   2.376
 5250TIP3    H215628   4.052   4.631   2.449
 5251TIP3   OH215629   4.271   4.665   2.218
 5251TIP3    H115630   4.340   4.608   2.183
 5251TIP3    H215631   4.301   4.754   2.200
 5252TIP3   OH215632   2.894   4.374   2.547
 5252TIP3    H115633   2.803   4.344   2.556
 5252TIP3    H215634   2.945   4.293   2.538
 5253TIP3   OH215635   2.689   4.293   2.185
 5253TIP3    H115636   2.727   4.334   2.107
 5253TIP3    H215637   2.641   4.363   2.229
 5254TIP3   OH215638   3.341   4.428   2.425
 5254TIP3    H115639   3.407   4.472   2.371
 5254TIP3    H215640   3.269   4.492   2.431
 5255TIP3   OH215641   3.848   4.566   2.426
 5255TIP3    H115642   3.867   4.537   2.337
 5255TIP3    H215643   3.858   4.488   2.479
 5256TIP3   OH215644   3.914   4.516   1.978
 5256TIP3    H115645   3.842   4.573   2.007
 5256TIP3    H215646   3.897   4.432   2.020
 5257TIP3   OH215647   2.379   5.862   1.958
 5257TIP3    H115648   2.296   5.826   1.927
 5257TIP3    H215649   2.380   5.952   1.926
 5258TIP3   OH215650   2.816   4.416   1.958
 5258TIP3    H115651   2.863   4.357   1.900
 5258TIP3    H215652   2.883   4.473   1.995
 5259TIP3   OH215653   3.303   4.607   2.061
 5259TIP3    H115654   3.366   4.560   2.117
 5259TIP3    H215655   3.312   4.698   2.087
 5260TIP3   OH215656   3.181   6.008   1.552
 5260TIP3    H115657   3.265   6.035   1.515
 5260TIP3    H215658   3.152   5.936   1.497
 5261TIP3   OH215659   3.885   6.151   1.655
 5261TIP3    H115660   3.878   6.056   1.649
 5261TIP3    H215661   3.841   6.183   1.576
 5262TIP3   OH215662   3.104   4.668   3.425
 5262TIP3    H115663   3.070   4.600   3.483
 5262TIP3    H215664   3.197   4.676   3.449
 5263TIP3   OH215665   3.354   4.668   3.547
 5263TIP3    H115666   3.432   4.649   3.493
 5263TIP3    H215667   3.350   4.595   3.608
 5264TIP3   OH215668   2.495   5.856   1.614
 5264TIP3    H115669   2.495   5.856   1.710
 5264TIP3    H215670   2.574   5.808   1.590
 5265TIP3   OH215671   4.184   4.758   3.338
 5265TIP3    H115672   4.202   4.730   3.427
 5265TIP3    H215673   4.270   4.754   3.294
 5266TIP3   OH215674   4.103   6.294   2.844
 5266TIP3    H115675   4.031   6.261   2.791
 5266TIP3    H215676   4.087   6.388   2.852
 5267TIP3   OH215677   5.379   5.686   1.581
 5267TIP3    H115678   5.346   5.771   1.554
 5267TIP3    H215679   5.306   5.626   1.567
 5268TIP3   OH215680   5.381   5.670   2.004
 5268TIP3    H115681   5.431   5.653   2.084
 5268TIP3    H215682   5.333   5.589   1.988
 5269TIP3   OH215683   4.678   5.537   2.346
 5269TIP3    H115684   4.713   5.482   2.416
 5269TIP3    H215685   4.755   5.558   2.292
 5270TIP3   OH215686   5.643   5.974   1.678
 5270TIP3    H115687   5.631   5.908   1.746
 5270TIP3    H215688   5.664   6.054   1.726
 5271TIP3   OH215689   4.672   5.979   2.047
 5271TIP3    H115690   4.655   5.885   2.049
 5271TIP3    H215691   4.767   5.986   2.036
 5272TIP3   OH215692   4.342   5.161   1.827
 5272TIP3    H115693   4.288   5.230   1.864
 5272TIP3    H215694   4.281   5.105   1.778
 5273TIP3   OH215695   4.400   5.450   2.059
 5273TIP3    H115696   4.456   5.376   2.083
 5273TIP3    H215697   4.432   5.480   1.974
 5274TIP3   OH215698   5.293   6.411   1.692
 5274TIP3    H115699   5.332   6.345   1.635
 5274TIP3    H215700   5.288   6.369   1.778
 5275TIP3   OH215701   5.184   5.894   2.008
 5275TIP3    H115702   5.228   5.814   1.979
 5275TIP3    H215703   5.254   5.949   2.042
 5276TIP3   OH215704   6.216   5.213   2.035
 5276TIP3    H115705   6.231   5.297   2.077
 5276TIP3    H215706   6.252   5.222   1.947
 5277TIP3   OH215707   5.593   5.381   2.048
 5277TIP3    H115708   5.623   5.295   2.077
 5277TIP3    H215709   5.553   5.365   1.963
 5278TIP3   OH215710   4.950   5.039   1.999
 5278TIP3    H115711   4.923   5.112   1.943
 5278TIP3    H215712   4.893   4.967   1.972
 5279TIP3   OH215713   5.640   5.138   1.646
 5279TIP3    H115714   5.703   5.130   1.719
 5279TIP3    H215715   5.692   5.173   1.574
 5280TIP3   OH215716   4.571   5.249   2.136
 5280TIP3    H115717   4.655   5.231   2.179
 5280TIP3    H215718   4.574   5.197   2.056
 5281TIP3   OH215719   4.989   5.454   1.948
 5281TIP3    H115720   5.083   5.437   1.954
 5281TIP3    H215721   4.952   5.372   1.915
 5282TIP3   OH215722   6.271   5.438   2.191
 5282TIP3    H115723   6.180   5.470   2.190
 5282TIP3    H215724   6.307   5.471   2.273
 5283TIP3   OH215725   4.926   5.045   2.458
 5283TIP3    H115726   4.877   5.080   2.383
 5283TIP3    H215727   4.869   5.061   2.533
 5284TIP3   OH215728   5.275   5.901   1.439
 5284TIP3    H115729   5.231   5.870   1.360
 5284TIP3    H215730   5.222   5.975   1.469
 5285TIP3   OH215731   5.020   5.820   2.220
 5285TIP3    H115732   4.965   5.890   2.254
 5285TIP3    H215733   5.066   5.860   2.146
 5286TIP3   OH215734   5.801   5.157   1.866
 5286TIP3    H115735   5.755   5.135   1.947
 5286TIP3    H215736   5.854   5.234   1.888
 5287TIP3   OH215737   4.825   5.151   2.222
 5287TIP3    H115738   4.880   5.226   2.247
 5287TIP3    H215739   4.872   5.110   2.150
 5288TIP3   OH215740   4.864   6.022   2.328
 5288TIP3    H115741   4.848   6.112   2.297
 5288TIP3    H215742   4.787   6.000   2.379
 5289TIP3   OH215743   4.248   5.722   1.592
 5289TIP3    H115744   4.201   5.739   1.511
 5289TIP3    H215745   4.269   5.809   1.627
 5290TIP3   OH215746   5.681   6.217   1.819
 5290TIP3    H115747   5.596   6.210   1.862
 5290TIP3    H215748   5.680   6.302   1.776
 5291TIP3   OH215749   6.014   5.103   2.198
 5291TIP3    H115750   5.929   5.125   2.159
 5291TIP3    H215751   6.078   5.131   2.133
 5292TIP3   OH215752   5.270   4.735   2.190
 5292TIP3    H115753   5.261   4.643   2.215
 5292TIP3    H215754   5.193   4.777   2.229
 5293TIP3   OH215755   5.402   6.250   1.495
 5293TIP3    H115756   5.453   6.171   1.480
 5293TIP3    H215757   5.462   6.322   1.475
 5294TIP3   OH215758   5.530   6.014   1.431
 5294TIP3    H115759   5.451   5.961   1.433
 5294TIP3    H215760   5.576   5.991   1.512
 5295TIP3   OH215761   5.915   6.115   2.162
 5295TIP3    H115762   5.897   6.039   2.107
 5295TIP3    H215763   5.899   6.191   2.105
 5296TIP3   OH215764   5.196   5.517   1.452
 5296TIP3    H115765   5.115   5.562   1.430
 5296TIP3    H215766   5.244   5.513   1.369
 5297TIP3   OH215767   5.162   5.322   1.138
 5297TIP3    H115768   5.226   5.368   1.191
 5297TIP3    H215769   5.211   5.248   1.100
 5298TIP3   OH215770   6.100   5.772   2.025
 5298TIP3    H115771   6.015   5.816   2.025
 5298TIP3    H215772   6.136   5.792   1.939
 5299TIP3   OH215773   5.566   5.600   1.403
 5299TIP3    H115774   5.511   5.634   1.474
 5299TIP3    H215775   5.648   5.575   1.446
 5300TIP3   OH215776   5.793   5.637   2.340
 5300TIP3    H115777   5.790   5.720   2.387
 5300TIP3    H215778   5.711   5.634   2.292
 5301TIP3   OH215779   4.790   5.588   1.799
 5301TIP3    H115780   4.752   5.527   1.737
 5301TIP3    H215781   4.861   5.539   1.841
 5302TIP3   OH215782   4.933   6.019   1.941
 5302TIP3    H115783   4.903   5.998   1.852
 5302TIP3    H215784   5.018   5.976   1.948
 5303TIP3   OH215785   4.897   5.578   2.178
 5303TIP3    H115786   4.931   5.544   2.095
 5303TIP3    H215787   4.940   5.662   2.190
 5304TIP3   OH215788   5.448   6.218   1.956
 5304TIP3    H115789   5.432   6.299   2.004
 5304TIP3    H215790   5.428   6.148   2.019
 5305TIP3   OH215791   5.062   6.119   2.496
 5305TIP3    H115792   5.001   6.176   2.543
 5305TIP3    H215793   5.007   6.068   2.438
 5306TIP3   OH215794   5.382   5.464   1.250
 5306TIP3    H115795   5.445   5.523   1.291
 5306TIP3    H215796   5.404   5.465   1.157
 5307TIP3   OH215797   4.815   5.660   2.644
 5307TIP3    H115798   4.820   5.754   2.662
 5307TIP3    H215799   4.721   5.642   2.636
 5308TIP3   OH215800   5.144   6.136   1.496
 5308TIP3    H115801   5.224   6.188   1.510
 5308TIP3    H215802   5.082   6.198   1.458
 5309TIP3   OH215803   4.852   6.278   2.582
 5309TIP3    H115804   4.826   6.287   2.490
 5309TIP3    H215805   4.770   6.262   2.629
 5310TIP3   OH215806   5.898   4.698   1.282
 5310TIP3    H115807   5.822   4.715   1.337
 5310TIP3    H215808   5.906   4.776   1.227
 5311TIP3   OH215809   4.663   5.429   1.600
 5311TIP3    H115810   4.587   5.478   1.570
 5311TIP3    H215811   4.630   5.341   1.619
 5312TIP3   OH215812   5.683   6.049   0.948
 5312TIP3    H115813   5.674   6.143   0.929
 5312TIP3    H215814   5.777   6.033   0.943
 5313TIP3   OH215815   4.448   5.832   2.532
 5313TIP3    H115816   4.377   5.815   2.470
 5313TIP3    H215817   4.481   5.745   2.555
 5314TIP3   OH215818   4.297   6.020   2.174
 5314TIP3    H115819   4.391   6.033   2.183
 5314TIP3    H215820   4.258   6.098   2.215
 5315TIP3   OH215821   6.147   6.477   2.234
 5315TIP3    H115822   6.153   6.383   2.249
 5315TIP3    H215823   6.068   6.504   2.281
 5316TIP3   OH215824   5.251   6.264   2.359
 5316TIP3    H115825   5.242   6.355   2.389
 5316TIP3    H215826   5.183   6.217   2.407
 5317TIP3   OH215827   5.021   6.353   1.349
 5317TIP3    H115828   4.982   6.324   1.266
 5317TIP3    H215829   4.980   6.438   1.366
 5318TIP3   OH215830   4.462   6.219   1.691
 5318TIP3    H115831   4.507   6.212   1.775
 5318TIP3    H215832   4.414   6.137   1.683
 5319TIP3   OH215833   5.216   6.329   0.992
 5319TIP3    H115834   5.232   6.239   0.966
 5319TIP3    H215835   5.246   6.334   1.083
 5320TIP3   OH215836   5.276   6.330   1.259
 5320TIP3    H115837   5.187   6.330   1.293
 5320TIP3    H215838   5.328   6.286   1.327
 5321TIP3   OH215839   6.040   5.589   2.497
 5321TIP3    H115840   5.955   5.598   2.453
 5321TIP3    H215841   6.058   5.496   2.495
 5322TIP3   OH215842   4.647   6.020   2.499
 5322TIP3    H115843   4.698   6.005   2.579
 5322TIP3    H215844   4.575   5.956   2.505
 5323TIP3   OH215845   5.035   4.830   2.315
 5323TIP3    H115846   4.953   4.793   2.283
 5323TIP3    H215847   5.009   4.909   2.362
 5324TIP3   OH215848   5.574   4.948   2.519
 5324TIP3    H115849   5.642   4.923   2.581
 5324TIP3    H215850   5.491   4.932   2.565
 5325TIP3   OH215851   5.792   5.372   2.430
 5325TIP3    H115852   5.750   5.368   2.515
 5325TIP3    H215853   5.777   5.462   2.400
 5326TIP3   OH215854   5.438   5.409   0.988
 5326TIP3    H115855   5.391   5.417   0.906
 5326TIP3    H215856   5.525   5.445   0.970
 5327TIP3   OH215857   5.185   4.867   1.282
 5327TIP3    H115858   5.149   4.875   1.370
 5327TIP3    H215859   5.146   4.786   1.247
 5328TIP3   OH215860   4.976   5.360   2.327
 5328TIP3    H115861   4.926   5.365   2.409
 5328TIP3    H215862   4.954   5.440   2.280
 5329TIP3   OH215863   4.846   5.239   1.843
 5329TIP3    H115864   4.757   5.216   1.869
 5329TIP3    H215865   4.856   5.205   1.755
 5330TIP3   OH215866   5.330   5.314   1.578
 5330TIP3    H115867   5.280   5.386   1.541
 5330TIP3    H215868   5.384   5.282   1.506
 5331TIP3   OH215869   5.515   5.580   2.646
 5331TIP3    H115870   5.489   5.514   2.710
 5331TIP3    H215871   5.607   5.596   2.664
 5332TIP3   OH215872   5.499   5.328   1.797
 5332TIP3    H115873   5.429   5.348   1.735
 5332TIP3    H215874   5.544   5.253   1.759
 5333TIP3   OH215875   4.805   5.377   2.541
 5333TIP3    H115876   4.807   5.443   2.611
 5333TIP3    H215877   4.783   5.296   2.586
 5334TIP3   OH215878   4.849   4.852   1.259
 5334TIP3    H115879   4.841   4.853   1.355
 5334TIP3    H215880   4.770   4.895   1.228
 5335TIP3   OH215881   4.399   4.883   2.127
 5335TIP3    H115882   4.476   4.921   2.168
 5335TIP3    H215883   4.426   4.863   2.037
 5336TIP3   OH215884   4.335   4.851   1.618
 5336TIP3    H115885   4.388   4.878   1.543
 5336TIP3    H215886   4.274   4.923   1.631
 5337TIP3   OH215887   5.542   5.583   2.221
 5337TIP3    H115888   5.567   5.516   2.157
 5337TIP3    H215889   5.498   5.535   2.291
 5338TIP3   OH215890   5.215   5.029   1.895
 5338TIP3    H115891   5.135   5.029   1.947
 5338TIP3    H215892   5.285   5.019   1.959
 5339TIP3   OH215893   4.606   5.116   1.898
 5339TIP3    H115894   4.515   5.121   1.868
 5339TIP3    H215895   4.630   5.025   1.887
 5340TIP3   OH215896   4.865   5.114   1.600
 5340TIP3    H115897   4.959   5.126   1.587
 5340TIP3    H215898   4.826   5.132   1.515
 5341TIP3   OH215899   5.656   5.115   2.101
 5341TIP3    H115900   5.640   5.132   2.194
 5341TIP3    H215901   5.586   5.055   2.075
 5342TIP3   OH215902   4.746   5.140   1.357
 5342TIP3    H115903   4.681   5.090   1.306
 5342TIP3    H215904   4.797   5.187   1.291
 5343TIP3   OH215905   5.859   6.823   2.325
 5343TIP3    H115906   5.855   6.840   2.231
 5343TIP3    H215907   5.938   6.869   2.355
 5344TIP3   OH215908   4.803   5.930   2.732
 5344TIP3    H115909   4.883   5.949   2.781
 5344TIP3    H215910   4.733   5.938   2.797
 5345TIP3   OH215911   5.263   5.403   2.001
 5345TIP3    H115912   5.327   5.349   1.955
 5345TIP3    H215913   5.258   5.365   2.089
 5346TIP3   OH215914   4.755   4.866   1.890
 5346TIP3    H115915   4.725   4.792   1.943
 5346TIP3    H215916   4.768   4.828   1.803
 5347TIP3   OH215917   5.239   5.307   2.264
 5347TIP3    H115918   5.152   5.336   2.290
 5347TIP3    H215919   5.299   5.358   2.319
 5348TIP3   OH215920   4.971   5.658   1.374
 5348TIP3    H115921   4.896   5.602   1.352
 5348TIP3    H215922   4.946   5.700   1.456
 5349TIP3   OH215923   5.861   5.908   1.987
 5349TIP3    H115924   5.896   5.958   1.913
 5349TIP3    H215925   5.780   5.869   1.953
 5350TIP3   OH215926   5.435   4.974   1.268
 5350TIP3    H115927   5.343   4.948   1.273
 5350TIP3    H215928   5.435   5.067   1.291
 5351TIP3   OH215929   5.379   5.997   2.400
 5351TIP3    H115930   5.427   5.985   2.482
 5351TIP3    H215931   5.336   6.082   2.410
 5352TIP3   OH215932   5.491   5.231   1.360
 5352TIP3    H115933   5.586   5.238   1.373
 5352TIP3    H215934   5.467   5.313   1.316
 5353TIP3   OH215935   4.679   5.705   2.028
 5353TIP3    H115936   4.708   5.670   1.944
 5353TIP3    H215937   4.723   5.650   2.093
 5354TIP3   OH215938   5.131   5.808   1.208
 5354TIP3    H115939   5.081   5.890   1.206
 5354TIP3    H215940   5.077   5.749   1.261
 5355TIP3   OH215941   4.542   5.594   2.660
 5355TIP3    H115942   4.539   5.569   2.753
 5355TIP3    H215943   4.466   5.550   2.621
 5356TIP3   OH215944   5.283   5.739   2.682
 5356TIP3    H115945   5.212   5.680   2.656
 5356TIP3    H215946   5.363   5.695   2.653
 5357TIP3   OH215947   5.522   6.285   2.283
 5357TIP3    H115948   5.427   6.270   2.288
 5357TIP3    H215949   5.545   6.321   2.369
 5358TIP3   OH215950   5.924   5.316   1.193
 5358TIP3    H115951   5.865   5.270   1.133
 5358TIP3    H215952   5.923   5.407   1.163
 5359TIP3   OH215953   6.160   6.196   2.256
 5359TIP3    H115954   6.065   6.182   2.250
 5359TIP3    H215955   6.193   6.168   2.171
 5360TIP3   OH215956   5.625   6.142   1.205
 5360TIP3    H115957   5.596   6.090   1.280
 5360TIP3    H215958   5.625   6.080   1.132
 5361TIP3   OH215959   5.630   5.776   1.882
 5361TIP3    H115960   5.541   5.755   1.910
 5361TIP3    H215961   5.664   5.694   1.847
 5362TIP3   OH215962   4.785   6.006   1.702
 5362TIP3    H115963   4.778   6.084   1.647
 5362TIP3    H215964   4.695   5.989   1.731
 5363TIP3   OH215965   4.346   5.305   1.407
 5363TIP3    H115966   4.390   5.387   1.430
 5363TIP3    H215967   4.264   5.307   1.455
 5364TIP3   OH215968   4.878   5.766   1.603
 5364TIP3    H115969   4.858   5.855   1.632
 5364TIP3    H215970   4.849   5.710   1.674
 5365TIP3   OH215971   5.067   6.338   2.153
 5365TIP3    H115972   5.104   6.410   2.103
 5365TIP3    H215973   5.141   6.303   2.203
 5366TIP3   OH215974   4.702   6.230   1.558
 5366TIP3    H115975   4.613   6.237   1.591
 5366TIP3    H215976   4.737   6.319   1.563
 5367TIP3   OH215977   5.416   5.997   2.127
 5367TIP3    H115978   5.402   5.995   2.222
 5367TIP3    H215979   5.493   5.943   2.112
 5368TIP3   OH215980   5.359   5.859   1.054
 5368TIP3    H115981   5.438   5.832   1.102
 5368TIP3    H215982   5.287   5.834   1.111
 5369TIP3   OH215983   5.676   6.493   2.165
 5369TIP3    H115984   5.606   6.431   2.185
 5369TIP3    H215985   5.641   6.547   2.095
 5370TIP3   OH215986   5.674   6.313   0.864
 5370TIP3    H115987   5.734   6.367   0.812
 5370TIP3    H215988   5.608   6.375   0.896
 5371TIP3   OH215989   4.749   5.126   2.660
 5371TIP3    H115990   4.654   5.136   2.662
 5371TIP3    H215991   4.769   5.076   2.739
 5372TIP3   OH215992   5.581   5.773   1.190
 5372TIP3    H115993   5.572   5.722   1.270
 5372TIP3    H215994   5.676   5.786   1.181
 5373TIP3   OH215995   4.494   6.227   2.316
 5373TIP3    H115996   4.544   6.162   2.366
 5373TIP3    H215997   4.511   6.310   2.361
 5374TIP3   OH215998   4.760   5.840   1.007
 5374TIP3    H115999   4.778   5.750   0.981
 5374TIP3    H216000   4.742   5.834   1.101
 5375TIP3   OH216001   4.706   5.849   1.279
 5375TIP3    H116002   4.771   5.819   1.343
 5375TIP3    H216003   4.706   5.944   1.288
 5376TIP3   OH216004   4.443   5.554   1.490
 5376TIP3    H116005   4.377   5.599   1.543
 5376TIP3    H216006   4.458   5.611   1.415
 5377TIP3   OH216007   5.606   5.175   2.364
 5377TIP3    H116008   5.682   5.222   2.398
 5377TIP3    H216009   5.597   5.100   2.422
 5378TIP3   OH216010   5.492   4.924   1.546
 5378TIP3    H116011   5.472   4.946   1.455
 5378TIP3    H216012   5.534   5.003   1.581
 5379TIP3   OH216013   4.978   6.029   1.219
 5379TIP3    H116014   4.898   6.055   1.265
 5379TIP3    H216015   4.986   6.093   1.148
 5380TIP3   OH216016   5.146   5.120   1.642
 5380TIP3    H116017   5.207   5.191   1.620
 5380TIP3    H216018   5.165   5.100   1.734
 5381TIP3   OH216019   5.445   5.418   2.419
 5381TIP3    H116020   5.467   5.462   2.501
 5381TIP3    H216021   5.494   5.336   2.422
 5382TIP3   OH216022   5.309   4.821   1.730
 5382TIP3    H116023   5.285   4.898   1.782
 5382TIP3    H216024   5.376   4.852   1.670
 5383TIP3   OH216025   4.731   6.118   1.311
 5383TIP3    H116026   4.701   6.186   1.250
 5383TIP3    H216027   4.721   6.157   1.398
 5384TIP3   OH216028   4.821   4.842   1.537
 5384TIP3    H116029   4.809   4.932   1.568
 5384TIP3    H216030   4.916   4.827   1.545
 5385TIP3   OH216031   6.054   5.311   2.402
 5385TIP3    H116032   5.961   5.325   2.416
 5385TIP3    H216033   6.059   5.246   2.332
 5386TIP3   OH216034   5.720   5.517   1.799
 5386TIP3    H116035   5.641   5.463   1.811
 5386TIP3    H216036   5.785   5.477   1.857
 5387TIP3   OH216037   4.457   5.726   1.270
 5387TIP3    H116038   4.529   5.789   1.279
 5387TIP3    H216039   4.488   5.663   1.205
 5388TIP3   OH216040   4.361   5.026   1.391
 5388TIP3    H116041   4.385   5.118   1.399
 5388TIP3    H216042   4.272   5.021   1.426
 5389TIP3   OH216043   5.698   6.481   1.744
 5389TIP3    H116044   5.649   6.539   1.686
 5389TIP3    H216045   5.790   6.503   1.727
 5390TIP3   OH216046   4.780   4.735   2.271
 5390TIP3    H116047   4.747   4.705   2.186
 5390TIP3    H216048   4.766   4.661   2.329
 5391TIP3   OH216049   4.292   5.994   1.668
 5391TIP3    H116050   4.246   6.030   1.745
 5391TIP3    H216051   4.248   6.035   1.593
 5392TIP3   OH216052   4.492   6.532   2.738
 5392TIP3    H116053   4.576   6.533   2.784
 5392TIP3    H216054   4.471   6.439   2.728
 5393TIP3   OH216055   4.961   6.441   2.774
 5393TIP3    H116056   5.051   6.411   2.784
 5393TIP3    H216057   4.925   6.388   2.703
 5394TIP3   OH216058   4.938   6.031   0.919
 5394TIP3    H116059   4.878   5.968   0.958
 5394TIP3    H216060   4.986   5.981   0.853
 5395TIP3   OH216061   5.579   6.383   2.532
 5395TIP3    H116062   5.592   6.313   2.596
 5395TIP3    H216063   5.653   6.442   2.546
 5396TIP3   OH216064   5.282   6.080   0.911
 5396TIP3    H116065   5.302   6.010   0.973
 5396TIP3    H216066   5.361   6.089   0.858
 5397TIP3   OH216067   4.596   5.938   2.920
 5397TIP3    H116068   4.613   5.845   2.933
 5397TIP3    H216069   4.510   5.942   2.878
 5398TIP3   OH216070   4.587   5.536   1.122
 5398TIP3    H116071   4.635   5.514   1.202
 5398TIP3    H216072   4.656   5.553   1.057
 5399TIP3   OH216073   5.217   6.015   2.700
 5399TIP3    H116074   5.170   6.036   2.619
 5399TIP3    H216075   5.250   5.926   2.686
 5400TIP3   OH216076   5.090   5.740   0.931
 5400TIP3    H116077   5.093   5.757   1.025
 5400TIP3    H216078   5.087   5.645   0.925
 5401TIP3   OH216079   5.691   6.059   2.316
 5401TIP3    H116080   5.768   6.088   2.267
 5401TIP3    H216081   5.626   6.128   2.300
 5402TIP3   OH216082   4.707   5.684   2.932
 5402TIP3    H116083   4.781   5.656   2.878
 5402TIP3    H216084   4.744   5.697   3.019
 5403TIP3   OH216085   4.760   5.482   1.337
 5403TIP3    H116086   4.736   5.453   1.425
 5403TIP3    H216087   4.803   5.406   1.298
 5404TIP3   OH216088   5.079   5.563   2.591
 5404TIP3    H116089   4.990   5.598   2.601
 5404TIP3    H216090   5.106   5.591   2.504
 5405TIP3   OH216091   4.890   5.292   1.181
 5405TIP3    H116092   4.859   5.298   1.091
 5405TIP3    H216093   4.985   5.300   1.175
 5406TIP3   OH216094   5.571   5.934   2.669
 5406TIP3    H116095   5.640   5.895   2.615
 5406TIP3    H216096   5.568   5.879   2.747
 5407TIP3   OH216097   5.676   5.500   0.898
 5407TIP3    H116098   5.660   5.483   0.805
 5407TIP3    H216099   5.669   5.595   0.906
 5408TIP3   OH216100   5.187   5.330   2.689
 5408TIP3    H116101   5.184   5.259   2.625
 5408TIP3    H216102   5.148   5.405   2.645
 5409TIP3   OH216103   5.186   5.128   2.490
 5409TIP3    H116104   5.212   5.164   2.405
 5409TIP3    H216105   5.095   5.102   2.478
 5410TIP3   OH216106   5.190   5.658   2.361
 5410TIP3    H116107   5.277   5.696   2.350
 5410TIP3    H216108   5.132   5.716   2.312
 5411TIP3   OH216109   5.786   5.622   2.741
 5411TIP3    H116110   5.839   5.543   2.742
 5411TIP3    H216111   5.849   5.694   2.736
 5412TIP3   OH216112   5.813   5.881   2.480
 5412TIP3    H116113   5.760   5.943   2.430
 5412TIP3    H216114   5.903   5.896   2.449
 5413TIP3   OH216115   5.083   5.394   2.943
 5413TIP3    H116116   5.005   5.340   2.960
 5413TIP3    H216117   5.105   5.375   2.852
 5414TIP3   OH216118   5.308   4.897   2.596
 5414TIP3    H116119   5.267   4.977   2.562
 5414TIP3    H216120   5.241   4.829   2.583
 5415TIP3   OH216121   5.433   5.370   2.808
 5415TIP3    H116122   5.411   5.358   2.900
 5415TIP3    H216123   5.352   5.351   2.761
 5416TIP3   OH216124   5.673   5.323   2.666
 5416TIP3    H116125   5.597   5.320   2.724
 5416TIP3    H216126   5.747   5.298   2.721
 5417TIP3   OH216127   5.914   5.286   2.805
 5417TIP3    H116128   5.931   5.193   2.818
 5417TIP3    H216129   5.913   5.323   2.893
 5418TIP3   OH216130   4.892   5.190   2.996
 5418TIP3    H116131   4.898   5.100   2.963
 5418TIP3    H216132   4.927   5.184   3.085
 5419TIP3   OH216133   5.375   4.875   2.862
 5419TIP3    H116134   5.442   4.808   2.857
 5419TIP3    H216135   5.344   4.884   2.772
 5420TIP3   OH216136   5.485   5.094   2.988
 5420TIP3    H116137   5.449   5.022   2.936
 5420TIP3    H216138   5.412   5.155   2.999
 5421TIP3   OH216139   4.689   6.328   1.138
 5421TIP3    H116140   4.784   6.337   1.133
 5421TIP3    H216141   4.660   6.326   1.047
 5422TIP3   OH216142   4.183   5.722   1.286
 5422TIP3    H116143   4.278   5.735   1.287
 5422TIP3    H216144   4.171   5.635   1.248
 5423TIP3   OH216145   4.089   6.307   1.751
 5423TIP3    H116146   4.025   6.252   1.705
 5423TIP3    H216147   4.135   6.246   1.810
 5424TIP3   OH216148   4.234   6.139   1.918
 5424TIP3    H116149   4.225   6.069   1.982
 5424TIP3    H216150   4.286   6.207   1.962
 5425TIP3   OH216151   5.966   6.548   1.738
 5425TIP3    H116152   5.982   6.571   1.830
 5425TIP3    H216153   6.019   6.610   1.688
 5426TIP3   OH216154   5.990   6.572   2.014
 5426TIP3    H116155   5.941   6.489   2.010
 5426TIP3    H216156   6.059   6.556   2.078
 5427TIP3   OH216157   6.043   6.277   2.577
 5427TIP3    H116158   5.971   6.286   2.640
 5427TIP3    H216159   6.092   6.359   2.584
 5428TIP3   OH216160   5.862   5.775   1.202
 5428TIP3    H116161   5.918   5.852   1.191
 5428TIP3    H216162   5.900   5.728   1.276
 5429TIP3   OH216163   5.992   5.628   1.396
 5429TIP3    H116164   5.924   5.591   1.452
 5429TIP3    H216165   6.052   5.673   1.456
 5430TIP3   OH216166   6.041   6.048   1.827
 5430TIP3    H116167   6.096   5.984   1.781
 5430TIP3    H216168   6.043   6.126   1.772
 5431TIP3   OH216169   5.846   6.335   2.012
 5431TIP3    H116170   5.780   6.379   2.064
 5431TIP3    H216171   5.797   6.293   1.941
 5432TIP3   OH216172   5.904   5.550   1.054
 5432TIP3    H116173   5.830   5.537   0.993
 5432TIP3    H216174   5.884   5.632   1.098
 5433TIP3   OH216175   5.759   5.227   0.995
 5433TIP3    H116176   5.731   5.314   0.964
 5433TIP3    H216177   5.699   5.166   0.952
 5434TIP3   OH216178   5.791   5.499   1.534
 5434TIP3    H116179   5.792   5.404   1.523
 5434TIP3    H216180   5.771   5.512   1.627
 5435TIP3   OH216181   4.412   5.573   2.301
 5435TIP3    H116182   4.398   5.535   2.214
 5435TIP3    H216183   4.507   5.569   2.313
 5436TIP3   OH216184   6.072   5.927   2.388
 5436TIP3    H116185   6.139   5.860   2.373
 5436TIP3    H216186   6.091   5.994   2.323
 5437TIP3   OH216187   6.251   5.716   2.379
 5437TIP3    H116188   6.177   5.674   2.422
 5437TIP3    H216189   6.326   5.660   2.398
 5438TIP3   OH216190   5.724   4.918   0.924
 5438TIP3    H116191   5.787   4.917   0.996
 5438TIP3    H216192   5.641   4.894   0.965
 5439TIP3   OH216193   5.785   5.227   1.422
 5439TIP3    H116194   5.826   5.141   1.433
 5439TIP3    H216195   5.833   5.267   1.350
 5440TIP3   OH216196   5.930   5.392   1.942
 5440TIP3    H116197   6.011   5.411   1.894
 5440TIP3    H216198   5.943   5.432   2.028
 5441TIP3   OH216199   6.009   5.548   2.163
 5441TIP3    H116200   5.938   5.577   2.220
 5441TIP3    H216201   6.040   5.628   2.121
 5442TIP3   OH216202   4.628   5.254   2.945
 5442TIP3    H116203   4.723   5.250   2.960
 5442TIP3    H216204   4.594   5.173   2.981
 5443TIP3   OH216205   6.471   5.149   2.700
 5443TIP3    H116206   6.537   5.089   2.664
 5443TIP3    H216207   6.438   5.197   2.624
 5444TIP3   OH216208   5.896   4.977   1.466
 5444TIP3    H116209   5.944   4.965   1.548
 5444TIP3    H216210   5.833   4.905   1.466
 5445TIP3   OH216211   4.621   4.962   2.271
 5445TIP3    H116212   4.673   4.883   2.284
 5445TIP3    H216213   4.686   5.032   2.259
 5446TIP3   OH216214   4.395   5.216   2.358
 5446TIP3    H116215   4.443   5.204   2.277
 5446TIP3    H216216   4.406   5.309   2.379
 5447TIP3   OH216217   6.324   5.267   2.503
 5447TIP3    H116218   6.249   5.307   2.548
 5447TIP3    H216219   6.286   5.197   2.450
 5448TIP3   OH216220   5.945   4.896   1.091
 5448TIP3    H116221   6.006   4.844   1.039
 5448TIP3    H216222   5.996   4.972   1.118
 5449TIP3   OH216223   4.398   4.742   1.862
 5449TIP3    H116224   4.314   4.715   1.899
 5449TIP3    H216225   4.375   4.791   1.783
 5450TIP3   OH216226   5.550   6.461   1.413
 5450TIP3    H116227   5.592   6.446   1.328
 5450TIP3    H216228   5.582   6.547   1.441
 5451TIP3   OH216229   4.599   4.786   2.672
 5451TIP3    H116230   4.549   4.783   2.754
 5451TIP3    H216231   4.545   4.839   2.613
 5452TIP3   OH216232   4.631   6.251   2.750
 5452TIP3    H116233   4.537   6.234   2.740
 5452TIP3    H216234   4.649   6.232   2.842
 5453TIP3   OH216235   4.838   6.299   2.300
 5453TIP3    H116236   4.787   6.374   2.268
 5453TIP3    H216237   4.923   6.308   2.257
 5454TIP3   OH216238   5.236   6.531   2.438
 5454TIP3    H116239   5.273   6.522   2.526
 5454TIP3    H216240   5.299   6.585   2.390
 5455TIP3   OH216241   5.427   6.685   2.312
 5455TIP3    H116242   5.489   6.631   2.263
 5455TIP3    H216243   5.482   6.742   2.366
 5456TIP3   OH216244   6.234   5.013   2.400
 5456TIP3    H116245   6.146   5.006   2.361
 5456TIP3    H216246   6.269   4.924   2.395
 5457TIP3   OH216247   4.501   6.546   2.348
 5457TIP3    H116248   4.409   6.564   2.327
 5457TIP3    H216249   4.523   6.610   2.415
 5458TIP3   OH216250   4.731   6.532   2.197
 5458TIP3    H116251   4.648   6.537   2.245
 5458TIP3    H216252   4.708   6.554   2.107
 5459TIP3   OH216253   5.146   6.547   1.988
 5459TIP3    H116254   5.072   6.557   1.928
 5459TIP3    H216255   5.156   6.634   2.029
 5460TIP3   OH216256   5.409   6.482   2.037
 5460TIP3    H116257   5.317   6.502   2.018
 5460TIP3    H216258   5.458   6.550   1.991
 5461TIP3   OH216259   5.611   6.655   1.943
 5461TIP3    H116260   5.607   6.741   1.901
 5461TIP3    H216261   5.638   6.595   1.873
 5462TIP3   OH216262   4.409   6.317   2.067
 5462TIP3    H116263   4.437   6.291   2.155
 5462TIP3    H216264   4.480   6.287   2.010
 5463TIP3   OH216265   4.613   6.212   1.922
 5463TIP3    H116266   4.625   6.128   1.968
 5463TIP3    H216267   4.699   6.252   1.923
 5464TIP3   OH216268   4.883   6.293   1.948
 5464TIP3    H116269   4.901   6.200   1.931
 5464TIP3    H216270   4.935   6.314   2.025
 5465TIP3   OH216271   5.441   4.935   2.037
 5465TIP3    H116272   5.401   4.864   2.087
 5465TIP3    H216273   5.509   4.892   1.985
 5466TIP3   OH216274   5.949   4.851   1.910
 5466TIP3    H116275   5.984   4.906   1.841
 5466TIP3    H216276   5.857   4.876   1.916
 5467TIP3   OH216277   6.071   4.937   1.674
 5467TIP3    H116278   6.139   4.873   1.654
 5467TIP3    H216279   6.113   5.022   1.658
 5468TIP3   OH216280   4.685   4.638   2.031
 5468TIP3    H116281   4.594   4.608   2.040
 5468TIP3    H216282   4.736   4.557   2.022
 5469TIP3   OH216283   4.513   4.549   1.688
 5469TIP3    H116284   4.529   4.599   1.608
 5469TIP3    H216285   4.478   4.612   1.750
 5470TIP3   OH216286   5.166   4.674   1.928
 5470TIP3    H116287   5.212   4.725   1.862
 5470TIP3    H216288   5.203   4.704   2.011
 5471TIP3   OH216289   5.657   4.821   1.903
 5471TIP3    H116290   5.664   4.783   1.815
 5471TIP3    H216291   5.663   4.746   1.962
 5472TIP3   OH216292   5.711   4.769   1.472
 5472TIP3    H116293   5.631   4.816   1.494
 5472TIP3    H216294   5.701   4.683   1.511
 5473TIP3   OH216295   4.173   6.113   1.451
 5473TIP3    H116296   4.090   6.078   1.419
 5473TIP3    H216297   4.174   6.203   1.420
 5474TIP3   OH216298   4.608   4.681   1.444
 5474TIP3    H116299   4.653   4.617   1.390
 5474TIP3    H216300   4.679   4.734   1.482
 5475TIP3   OH216301   5.097   4.870   1.544
 5475TIP3    H116302   5.154   4.817   1.600
 5475TIP3    H216303   5.111   4.960   1.574
 5476TIP3   OH216304   4.962   6.276   1.088
 5476TIP3    H116305   5.039   6.318   1.051
 5476TIP3    H216306   4.910   6.250   1.011
 5477TIP3   OH216307   5.670   6.406   1.170
 5477TIP3    H116308   5.662   6.311   1.182
 5477TIP3    H216309   5.611   6.427   1.098
 5478TIP3   OH216310   4.914   4.918   2.917
 5478TIP3    H116311   4.879   4.852   2.977
 5478TIP3    H216312   5.006   4.928   2.943
 5479TIP3   OH216313   5.165   4.933   3.043
 5479TIP3    H116314   5.238   4.904   2.988
 5479TIP3    H216315   5.152   4.860   3.104
 5480TIP3   OH216316   4.281   6.111   1.100
 5480TIP3    H116317   4.283   6.116   1.196
 5480TIP3    H216318   4.362   6.067   1.077
 5481TIP3   OH216319   5.984   5.018   2.830
 5481TIP3    H116320   6.002   4.987   2.919
 5481TIP3    H216321   6.068   5.012   2.786
 5482TIP3   OH216322   5.898   6.549   2.328
 5482TIP3    H116323   5.822   6.519   2.277
 5482TIP3    H216324   5.883   6.643   2.338
 5483TIP3   OH216325   7.082   5.872   1.217
 5483TIP3    H116326   7.047   5.957   1.242
 5483TIP3    H216327   7.065   5.865   1.123
 5484TIP3   OH216328   7.159   5.943   1.488
 5484TIP3    H116329   7.195   5.900   1.565
 5484TIP3    H216330   7.149   5.873   1.424
 5485TIP3   OH216331   6.490   5.826   1.837
 5485TIP3    H116332   6.510   5.745   1.882
 5485TIP3    H216333   6.530   5.895   1.891
 5486TIP3   OH216334   7.442   6.206   1.210
 5486TIP3    H116335   7.424   6.149   1.285
 5486TIP3    H216336   7.503   6.272   1.243
 5487TIP3   OH216337   6.479   6.205   1.512
 5487TIP3    H116338   6.460   6.115   1.540
 5487TIP3    H216339   6.575   6.212   1.520
 5488TIP3   OH216340   6.166   5.423   1.318
 5488TIP3    H116341   6.121   5.502   1.345
 5488TIP3    H216342   6.098   5.368   1.279
 5489TIP3   OH216343   6.213   5.728   1.531
 5489TIP3    H116344   6.264   5.652   1.561
 5489TIP3    H216345   6.277   5.783   1.486
 5490TIP3   OH216346   6.992   6.585   1.252
 5490TIP3    H116347   7.021   6.497   1.273
 5490TIP3    H216348   6.979   6.627   1.337
 5491TIP3   OH216349   6.989   6.159   1.518
 5491TIP3    H116350   7.028   6.077   1.488
 5491TIP3    H216351   7.062   6.209   1.553
 5492TIP3   OH216352   7.946   5.481   1.565
 5492TIP3    H116353   7.987   5.561   1.599
 5492TIP3    H216354   7.994   5.463   1.484
 5493TIP3   OH216355   7.431   5.649   1.591
 5493TIP3    H116356   7.474   5.568   1.618
 5493TIP3    H216357   7.381   5.624   1.513
 5494TIP3   OH216358   7.424   5.384   1.214
 5494TIP3    H116359   7.500   5.365   1.268
 5494TIP3    H216360   7.460   5.404   1.128
 5495TIP3   OH216361   6.355   5.517   1.634
 5495TIP3    H116362   6.435   5.501   1.684
 5495TIP3    H216363   6.356   5.451   1.565
 5496TIP3   OH216364   8.055   5.692   1.707
 5496TIP3    H116365   7.967   5.730   1.705
 5496TIP3    H216366   8.098   5.735   1.781
 5497TIP3   OH216367   6.713   5.293   1.946
 5497TIP3    H116368   6.665   5.331   1.873
 5497TIP3    H216369   6.658   5.310   2.023
 5498TIP3   OH216370   6.968   6.123   1.182
 5498TIP3    H116371   7.041   6.110   1.121
 5498TIP3    H216372   6.935   6.211   1.162
 5499TIP3   OH216373   6.825   6.082   1.727
 5499TIP3    H116374   6.765   6.150   1.758
 5499TIP3    H216375   6.876   6.124   1.658
 5500TIP3   OH216376   7.643   5.357   1.371
 5500TIP3    H116377   7.622   5.390   1.458
 5500TIP3    H216378   7.684   5.431   1.326
 5501TIP3   OH216379   6.593   5.400   1.720
 5501TIP3    H116380   6.654   5.472   1.735
 5501TIP3    H216381   6.620   5.364   1.635
 5502TIP3   OH216382   6.655   6.280   1.816
 5502TIP3    H116383   6.644   6.371   1.790
 5502TIP3    H216384   6.578   6.261   1.870
 5503TIP3   OH216385   6.037   5.981   1.148
 5503TIP3    H116386   5.995   5.989   1.062
 5503TIP3    H216387   6.039   6.070   1.182
 5504TIP3   OH216388   7.497   6.444   1.371
 5504TIP3    H116389   7.406   6.441   1.400
 5504TIP3    H216390   7.498   6.508   1.299
 5505TIP3   OH216391   7.774   5.334   1.711
 5505TIP3    H116392   7.686   5.357   1.681
 5505TIP3    H216393   7.832   5.381   1.652
 5506TIP3   OH216394   7.058   4.985   1.687
 5506TIP3    H116395   7.053   4.894   1.715
 5506TIP3    H216396   6.982   5.027   1.728
 5507TIP3   OH216397   7.173   6.500   0.932
 5507TIP3    H116398   7.210   6.456   1.009
 5507TIP3    H216399   7.246   6.551   0.897
 5508TIP3   OH216400   7.374   6.301   0.929
 5508TIP3    H116401   7.370   6.235   0.860
 5508TIP3    H216402   7.448   6.274   0.983
 5509TIP3   OH216403   7.726   6.358   1.688
 5509TIP3    H116404   7.703   6.292   1.623
 5509TIP3    H216405   7.721   6.441   1.640
 5510TIP3   OH216406   7.003   5.848   0.956
 5510TIP3    H116407   6.916   5.888   0.955
 5510TIP3    H216408   7.048   5.886   0.881
 5511TIP3   OH216409   6.952   5.600   0.653
 5511TIP3    H116410   7.046   5.613   0.662
 5511TIP3    H216411   6.944   5.519   0.603
 5512TIP3   OH216412   7.849   6.040   1.615
 5512TIP3    H116413   7.769   6.081   1.584
 5512TIP3    H216414   7.912   6.053   1.545
 5513TIP3   OH216415   7.382   5.816   0.792
 5513TIP3    H116416   7.363   5.853   0.879
 5513TIP3    H216417   7.465   5.770   0.803
 5514TIP3   OH216418   7.565   5.888   1.843
 5514TIP3    H116419   7.572   5.971   1.891
 5514TIP3    H216420   7.484   5.895   1.794
 5515TIP3   OH216421   6.588   5.779   1.360
 5515TIP3    H116422   6.530   5.737   1.296
 5515TIP3    H216423   6.673   5.739   1.345
 5516TIP3   OH216424   6.745   6.255   1.434
 5516TIP3    H116425   6.730   6.226   1.344
 5516TIP3    H216426   6.833   6.221   1.455
 5517TIP3   OH216427   6.750   5.838   1.630
 5517TIP3    H116428   6.724   5.866   1.542
 5517TIP3    H216429   6.778   5.918   1.674
 5518TIP3   OH216430   7.232   6.450   1.444
 5518TIP3    H116431   7.221   6.535   1.487
 5518TIP3    H216432   7.223   6.386   1.515
 5519TIP3   OH216433   6.856   6.373   1.987
 5519TIP3    H116434   6.796   6.429   2.036
 5519TIP3    H216435   6.800   6.321   1.930
 5520TIP3   OH216436   7.224   5.633   0.647
 5520TIP3    H116437   7.271   5.700   0.697
 5520TIP3    H216438   7.212   5.672   0.560
 5521TIP3   OH216439   6.596   5.950   2.075
 5521TIP3    H116440   6.607   6.035   2.118
 5521TIP3    H216441   6.511   5.918   2.106
 5522TIP3   OH216442   6.942   6.364   1.047
 5522TIP3    H116443   7.026   6.406   1.027
 5522TIP3    H216444   6.881   6.437   1.058
 5523TIP3   OH216445   6.647   6.531   2.073
 5523TIP3    H116446   6.619   6.544   1.982
 5523TIP3    H216447   6.565   6.518   2.122
 5524TIP3   OH216448   7.658   4.895   0.716
 5524TIP3    H116449   7.591   4.885   0.785
 5524TIP3    H216450   7.655   4.988   0.695
 5525TIP3   OH216451   6.443   5.659   1.154
 5525TIP3    H116452   6.389   5.733   1.124
 5525TIP3    H216453   6.383   5.584   1.152
 5526TIP3   OH216454   6.243   6.090   2.019
 5526TIP3    H116455   6.171   6.070   1.959
 5526TIP3    H216456   6.274   6.005   2.049
 5527TIP3   OH216457   6.083   6.295   1.700
 5527TIP3    H116458   6.170   6.323   1.729
 5527TIP3    H216459   6.025   6.366   1.725
 5528TIP3   OH216460   7.943   6.747   1.739
 5528TIP3    H116461   7.948   6.651   1.742
 5528TIP3    H216462   7.863   6.768   1.787
 5529TIP3   OH216463   7.043   6.521   1.852
 5529TIP3    H116464   7.036   6.611   1.884
 5529TIP3    H216465   6.977   6.473   1.901
 5530TIP3   OH216466   6.711   6.682   0.811
 5530TIP3    H116467   6.755   6.668   0.726
 5530TIP3    H216468   6.768   6.744   0.857
 5531TIP3   OH216469   6.270   6.429   1.224
 5531TIP3    H116470   6.315   6.439   1.309
 5531TIP3    H216471   6.214   6.352   1.235
 5532TIP3   OH216472   6.992   6.568   0.748
 5532TIP3    H116473   6.922   6.504   0.761
 5532TIP3    H216474   7.051   6.554   0.821
 5533TIP3   OH216475   7.815   5.844   2.015
 5533TIP3    H116476   7.735   5.846   1.962
 5533TIP3    H216477   7.841   5.752   2.016
 5534TIP3   OH216478   6.438   6.281   1.987
 5534TIP3    H116479   6.490   6.272   2.068
 5534TIP3    H216480   6.369   6.216   1.996
 5535TIP3   OH216481   6.819   5.081   1.802
 5535TIP3    H116482   6.734   5.048   1.775
 5535TIP3    H216483   6.800   5.161   1.850
 5536TIP3   OH216484   7.368   5.204   2.005
 5536TIP3    H116485   7.439   5.179   2.063
 5536TIP3    H216486   7.288   5.183   2.053
 5537TIP3   OH216487   7.586   5.623   1.923
 5537TIP3    H116488   7.548   5.617   2.010
 5537TIP3    H216489   7.563   5.711   1.893
 5538TIP3   OH216490   6.755   5.610   1.776
 5538TIP3    H116491   6.713   5.631   1.860
 5538TIP3    H216492   6.754   5.692   1.727
 5539TIP3   OH216493   7.085   5.601   1.203
 5539TIP3    H116494   7.080   5.696   1.214
 5539TIP3    H216495   7.077   5.588   1.108
 5540TIP3   OH216496   7.313   5.838   2.134
 5540TIP3    H116497   7.285   5.771   2.195
 5540TIP3    H216498   7.406   5.852   2.154
 5541TIP3   OH216499   7.311   5.587   1.356
 5541TIP3    H116500   7.225   5.595   1.315
 5541TIP3    H216501   7.352   5.512   1.312
 5542TIP3   OH216502   6.593   5.624   2.004
 5542TIP3    H116503   6.652   5.674   2.061
 5542TIP3    H216504   6.573   5.545   2.054
 5543TIP3   OH216505   6.517   5.102   0.798
 5543TIP3    H116506   6.542   5.088   0.890
 5543TIP3    H216507   6.533   5.196   0.783
 5544TIP3   OH216508   6.211   5.161   1.605
 5544TIP3    H116509   6.260   5.185   1.684
 5544TIP3    H216510   6.256   5.207   1.534
 5545TIP3   OH216511   6.110   5.119   1.146
 5545TIP3    H116512   6.166   5.151   1.076
 5545TIP3    H216513   6.051   5.192   1.164
 5546TIP3   OH216514   7.300   5.849   1.711
 5546TIP3    H116515   7.352   5.785   1.663
 5546TIP3    H216516   7.265   5.799   1.785
 5547TIP3   OH216517   6.392   5.325   1.441
 5547TIP3    H116518   6.324   5.355   1.380
 5547TIP3    H216519   6.451   5.273   1.387
 5548TIP3   OH216520   6.701   5.372   1.129
 5548TIP3    H116521   6.737   5.458   1.107
 5548TIP3    H216522   6.619   5.367   1.081
 5549TIP3   OH216523   7.507   5.377   1.616
 5549TIP3    H116524   7.459   5.389   1.698
 5549TIP3    H216525   7.455   5.314   1.566
 5550TIP3   OH216526   6.478   5.350   0.976
 5550TIP3    H116527   6.401   5.294   0.963
 5550TIP3    H216528   6.456   5.432   0.932
 5551TIP3   OH216529   7.657   7.082   1.869
 5551TIP3    H116530   7.652   7.092   1.774
 5551TIP3    H216531   7.737   7.128   1.893
 5552TIP3   OH216532   6.600   6.193   2.216
 5552TIP3    H116533   6.681   6.208   2.265
 5552TIP3    H216534   6.531   6.197   2.282
 5553TIP3   OH216535   6.594   5.130   1.345
 5553TIP3    H116536   6.577   5.076   1.422
 5553TIP3    H216537   6.567   5.076   1.271
 5554TIP3   OH216538   7.022   5.524   1.803
 5554TIP3    H116539   6.940   5.570   1.783
 5554TIP3    H216540   7.084   5.593   1.824
 5555TIP3   OH216541   6.737   5.914   0.942
 5555TIP3    H116542   6.715   5.822   0.958
 5555TIP3    H216543   6.709   5.959   1.022
 5556TIP3   OH216544   7.645   6.180   1.502
 5556TIP3    H116545   7.672   6.228   1.424
 5556TIP3    H216546   7.560   6.142   1.478
 5557TIP3   OH216547   7.173   6.245   1.899
 5557TIP3    H116548   7.224   6.227   1.977
 5557TIP3    H216549   7.131   6.330   1.916
 5558TIP3   OH216550   7.342   5.255   0.800
 5558TIP3    H116551   7.319   5.334   0.851
 5558TIP3    H216552   7.278   5.190   0.829
 5559TIP3   OH216553   6.466   5.927   1.565
 5559TIP3    H116554   6.509   5.870   1.502
 5559TIP3    H216555   6.490   5.890   1.650
 5560TIP3   OH216556   6.928   6.137   0.831
 5560TIP3    H116557   6.916   6.227   0.799
 5560TIP3    H216558   6.854   6.122   0.889
 5561TIP3   OH216559   6.339   5.862   2.150
 5561TIP3    H116560   6.349   5.839   2.242
 5561TIP3    H216561   6.267   5.808   2.120
 5562TIP3   OH216562   7.086   5.998   2.166
 5562TIP3    H116563   7.022   5.948   2.115
 5562TIP3    H216564   7.170   5.957   2.145
 5563TIP3   OH216565   7.313   6.520   1.784
 5563TIP3    H116566   7.218   6.512   1.784
 5563TIP3    H216567   7.334   6.557   1.870
 5564TIP3   OH216568   7.773   5.536   0.632
 5564TIP3    H116569   7.813   5.469   0.576
 5564TIP3    H216570   7.714   5.584   0.574
 5565TIP3   OH216571   7.969   6.475   1.759
 5565TIP3    H116572   7.883   6.441   1.783
 5565TIP3    H216573   7.992   6.429   1.678
 5566TIP3   OH216574   7.409   6.052   1.432
 5566TIP3    H116575   7.318   6.034   1.456
 5566TIP3    H216576   7.444   5.967   1.405
 5567TIP3   OH216577   6.546   6.244   1.217
 5567TIP3    H116578   6.511   6.312   1.160
 5567TIP3    H216579   6.498   6.254   1.299
 5568TIP3   OH216580   6.164   5.474   1.006
 5568TIP3    H116581   6.214   5.543   0.963
 5568TIP3    H216582   6.086   5.517   1.040
 5569TIP3   OH216583   6.626   5.987   1.177
 5569TIP3    H116584   6.590   6.073   1.196
 5569TIP3    H216585   6.601   5.933   1.252
 5570TIP3   OH216586   6.870   6.594   1.645
 5570TIP3    H116587   6.905   6.670   1.599
 5570TIP3    H216588   6.941   6.565   1.701
 5571TIP3   OH216589   6.477   6.443   1.032
 5571TIP3    H116590   6.393   6.460   1.076
 5571TIP3    H216591   6.539   6.501   1.075
 5572TIP3   OH216592   7.226   6.247   1.629
 5572TIP3    H116593   7.206   6.245   1.723
 5572TIP3    H216594   7.310   6.202   1.621
 5573TIP3   OH216595   7.228   6.124   0.512
 5573TIP3    H116596   7.263   6.144   0.599
 5573TIP3    H216597   7.150   6.178   0.504
 5574TIP3   OH216598   7.478   6.726   1.710
 5574TIP3    H116599   7.411   6.660   1.722
 5574TIP3    H216600   7.449   6.776   1.634
 5575TIP3   OH216601   6.545   5.382   2.147
 5575TIP3    H116602   6.451   5.392   2.156
 5575TIP3    H216603   6.573   5.343   2.230
 5576TIP3   OH216604   7.357   6.103   0.750
 5576TIP3    H116605   7.323   6.016   0.771
 5576TIP3    H216606   7.447   6.087   0.721
 5577TIP3   OH216607   6.291   6.469   1.820
 5577TIP3    H116608   6.344   6.408   1.872
 5577TIP3    H216609   6.306   6.554   1.860
 5578TIP3   OH216610   6.523   6.069   0.455
 5578TIP3    H116611   6.536   5.978   0.428
 5578TIP3    H216612   6.597   6.088   0.514
 5579TIP3   OH216613   6.503   6.065   0.846
 5579TIP3    H116614   6.577   6.012   0.876
 5579TIP3    H216615   6.538   6.153   0.840
 5580TIP3   OH216616   6.263   5.847   1.075
 5580TIP3    H116617   6.192   5.888   1.123
 5580TIP3    H216618   6.221   5.807   0.999
 5581TIP3   OH216619   7.394   5.435   1.858
 5581TIP3    H116620   7.471   5.479   1.893
 5581TIP3    H216621   7.383   5.358   1.914
 5582TIP3   OH216622   7.150   5.227   1.054
 5582TIP3    H116623   7.137   5.163   0.984
 5582TIP3    H216624   7.245   5.232   1.065
 5583TIP3   OH216625   6.808   6.382   0.755
 5583TIP3    H116626   6.717   6.375   0.784
 5583TIP3    H216627   6.802   6.387   0.660
 5584TIP3   OH216628   6.978   5.351   1.224
 5584TIP3    H116629   7.010   5.440   1.241
 5584TIP3    H216630   7.045   5.312   1.168
 5585TIP3   OH216631   7.237   5.674   1.909
 5585TIP3    H116632   7.265   5.712   1.992
 5585TIP3    H216633   7.284   5.590   1.903
 5586TIP3   OH216634   7.104   5.044   1.252
 5586TIP3    H116635   7.142   5.085   1.329
 5586TIP3    H216636   7.130   5.101   1.179
 5587TIP3   OH216637   6.541   6.333   0.779
 5587TIP3    H116638   6.493   6.393   0.722
 5587TIP3    H216639   6.519   6.363   0.868
 5588TIP3   OH216640   6.576   5.065   1.067
 5588TIP3    H116641   6.557   5.159   1.073
 5588TIP3    H216642   6.671   5.059   1.080
 5589TIP3   OH216643   7.854   5.575   1.920
 5589TIP3    H116644   7.759   5.576   1.924
 5589TIP3    H216645   7.874   5.542   1.832
 5590TIP3   OH216646   7.491   5.808   1.342
 5590TIP3    H116647   7.424   5.740   1.336
 5590TIP3    H216648   7.558   5.769   1.398
 5591TIP3   OH216649   6.172   5.985   0.772
 5591TIP3    H116650   6.218   6.045   0.830
 5591TIP3    H216651   6.237   5.962   0.706
 5592TIP3   OH216652   6.238   5.227   0.929
 5592TIP3    H116653   6.210   5.316   0.949
 5592TIP3    H216654   6.169   5.192   0.874
 5593TIP3   OH216655   7.513   6.732   1.274
 5593TIP3    H116656   7.466   6.696   1.199
 5593TIP3    H216657   7.602   6.700   1.265
 5594TIP3   OH216658   6.556   5.000   1.763
 5594TIP3    H116659   6.530   4.968   1.676
 5594TIP3    H216660   6.552   4.922   1.819
 5595TIP3   OH216661   6.059   6.241   1.226
 5595TIP3    H116662   6.031   6.283   1.308
 5595TIP3    H216663   6.034   6.303   1.158
 5596TIP3   OH216664   6.290   6.789   2.225
 5596TIP3    H116665   6.372   6.794   2.273
 5596TIP3    H216666   6.272   6.695   2.216
 5597TIP3   OH216667   6.755   6.699   2.263
 5597TIP3    H116668   6.845   6.670   2.276
 5597TIP3    H216669   6.721   6.643   2.193
 5598TIP3   OH216670   7.372   6.637   2.023
 5598TIP3    H116671   7.383   6.567   2.087
 5598TIP3    H216672   7.446   6.696   2.039
 5599TIP3   OH216673   6.395   6.186   2.404
 5599TIP3    H116674   6.416   6.093   2.416
 5599TIP3    H216675   6.306   6.186   2.368
 5600TIP3   OH216676   6.360   5.869   0.614
 5600TIP3    H116677   6.422   5.857   0.686
 5600TIP3    H216678   6.414   5.868   0.535
 5601TIP3   OH216679   7.016   6.272   2.190
 5601TIP3    H116680   6.968   6.290   2.109
 5601TIP3    H216681   7.052   6.184   2.177
 5602TIP3   OH216682   6.949   6.058   0.504
 5602TIP3    H116683   6.887   6.091   0.568
 5602TIP3    H216684   6.902   5.988   0.457
 5603TIP3   OH216685   7.480   6.296   1.799
 5603TIP3    H116686   7.562   6.332   1.765
 5603TIP3    H216687   7.418   6.368   1.791
 5604TIP3   OH216688   6.515   5.930   2.413
 5604TIP3    H116689   6.593   5.886   2.380
 5604TIP3    H216690   6.537   5.954   2.503
 5605TIP3   OH216691   6.683   5.641   1.015
 5605TIP3    H116692   6.597   5.651   1.055
 5605TIP3    H216693   6.666   5.602   0.929
 5606TIP3   OH216694   6.828   5.792   2.049
 5606TIP3    H116695   6.759   5.858   2.059
 5606TIP3    H216696   6.886   5.830   1.983
 5607TIP3   OH216697   6.666   5.510   0.764
 5607TIP3    H116698   6.607   5.444   0.727
 5607TIP3    H216699   6.744   5.460   0.789
 5608TIP3   OH216700   7.365   6.186   2.151
 5608TIP3    H116701   7.440   6.153   2.102
 5608TIP3    H216702   7.364   6.133   2.231
 5609TIP3   OH216703   6.967   5.591   2.184
 5609TIP3    H116704   6.969   5.511   2.132
 5609TIP3    H216705   6.924   5.655   2.128
 5610TIP3   OH216706   6.969   5.367   2.015
 5610TIP3    H116707   7.000   5.412   1.937
 5610TIP3    H216708   6.879   5.340   1.994
 5611TIP3   OH216709   6.994   5.923   1.877
 5611TIP3    H116710   7.084   5.941   1.847
 5611TIP3    H216711   6.940   5.983   1.826
 5612TIP3   OH216712   7.580   5.867   2.231
 5612TIP3    H116713   7.616   5.779   2.241
 5612TIP3    H216714   7.656   5.923   2.213
 5613TIP3   OH216715   7.605   6.133   1.976
 5613TIP3    H116716   7.552   6.191   1.921
 5613TIP3    H216717   7.695   6.148   1.947
 5614TIP3   OH216718   6.853   5.672   2.426
 5614TIP3    H116719   6.785   5.609   2.447
 5614TIP3    H216720   6.884   5.646   2.339
 5615TIP3   OH216721   7.107   5.140   2.085
 5615TIP3    H116722   7.063   5.221   2.062
 5615TIP3    H216723   7.041   5.072   2.072
 5616TIP3   OH216724   7.225   5.628   2.286
 5616TIP3    H116725   7.215   5.613   2.380
 5616TIP3    H216726   7.138   5.609   2.250
 5617TIP3   OH216727   7.472   5.579   2.162
 5617TIP3    H116728   7.393   5.579   2.216
 5617TIP3    H216729   7.543   5.554   2.222
 5618TIP3   OH216730   7.709   5.545   2.307
 5618TIP3    H116731   7.725   5.451   2.313
 5618TIP3    H216732   7.706   5.575   2.398
 5619TIP3   OH216733   6.690   5.448   2.487
 5619TIP3    H116734   6.697   5.359   2.454
 5619TIP3    H216735   6.727   5.444   2.575
 5620TIP3   OH216736   7.173   5.128   2.350
 5620TIP3    H116737   7.243   5.063   2.346
 5620TIP3    H216738   7.142   5.137   2.260
 5621TIP3   OH216739   7.264   5.347   2.492
 5621TIP3    H116740   7.234   5.274   2.438
 5621TIP3    H216741   7.190   5.408   2.493
 5622TIP3   OH216742   6.431   6.489   0.542
 5622TIP3    H116743   6.497   6.557   0.548
 5622TIP3    H216744   6.364   6.514   0.606
 5623TIP3   OH216745   5.933   5.965   0.887
 5623TIP3    H116746   6.024   5.952   0.858
 5623TIP3    H216747   5.881   5.946   0.809
 5624TIP3   OH216748   5.869   6.557   1.278
 5624TIP3    H116749   5.806   6.504   1.229
 5624TIP3    H216750   5.911   6.495   1.338
 5625TIP3   OH216751   6.024   6.403   1.447
 5625TIP3    H116752   6.020   6.341   1.519
 5625TIP3    H216753   6.078   6.475   1.480
 5626TIP3   OH216754   7.819   6.824   1.231
 5626TIP3    H116755   7.814   6.818   1.326
 5626TIP3    H216756   7.860   6.910   1.215
 5627TIP3   OH216757   7.775   6.826   1.519
 5627TIP3    H116758   7.738   6.738   1.522
 5627TIP3    H216759   7.853   6.821   1.574
 5628TIP3   OH216760   7.830   6.531   2.060
 5628TIP3    H116761   7.761   6.537   2.125
 5628TIP3    H216762   7.877   6.615   2.067
 5629TIP3   OH216763   7.616   6.071   0.685
 5629TIP3    H116764   7.674   6.109   0.619
 5629TIP3    H216765   7.627   5.976   0.675
 5630TIP3   OH216766   7.819   5.898   0.889
 5630TIP3    H116767   7.796   5.911   0.981
 5630TIP3    H216768   7.905   5.938   0.880
 5631TIP3   OH216769   7.798   6.303   1.303
 5631TIP3    H116770   7.851   6.224   1.312
 5631TIP3    H216771   7.859   6.369   1.272
 5632TIP3   OH216772   7.656   6.583   1.548
 5632TIP3    H116773   7.590   6.621   1.606
 5632TIP3    H216774   7.605   6.532   1.485
 5633TIP3   OH216775   7.624   5.875   1.105
 5633TIP3    H116776   7.621   5.799   1.046
 5633TIP3    H216777   7.571   5.849   1.180
 5634TIP3   OH216778   6.217   5.835   1.785
 5634TIP3    H116779   6.205   5.800   1.696
 5634TIP3    H216780   6.312   5.838   1.796
 5635TIP3   OH216781   7.862   6.177   1.880
 5635TIP3    H116782   7.920   6.103   1.866
 5635TIP3    H216783   7.843   6.211   1.793
 5636TIP3   OH216784   8.027   5.954   1.883
 5636TIP3    H116785   7.954   5.915   1.931
 5636TIP3    H216786   8.104   5.905   1.912
 5637TIP3   OH216787   7.595   5.265   0.489
 5637TIP3    H116788   7.601   5.233   0.579
 5637TIP3    H216789   7.513   5.316   0.487
 5638TIP3   OH216790   7.547   5.385   0.965
 5638TIP3    H116791   7.639   5.409   0.970
 5638TIP3    H216792   7.518   5.418   0.880
 5639TIP3   OH216793   7.713   5.681   1.448
 5639TIP3    H116794   7.800   5.699   1.412
 5639TIP3    H216795   7.723   5.692   1.542
 5640TIP3   OH216796   7.788   5.788   1.695
 5640TIP3    H116797   7.707   5.806   1.743
 5640TIP3    H216798   7.818   5.874   1.665
 5641TIP3   OH216799   6.427   5.509   2.422
 5641TIP3    H116800   6.520   5.510   2.445
 5641TIP3    H216801   6.394   5.428   2.460
 5642TIP3   OH216802   8.266   5.401   2.190
 5642TIP3    H116803   8.327   5.342   2.146
 5642TIP3    H216804   8.227   5.452   2.118
 5643TIP3   OH216805   7.717   5.126   0.986
 5643TIP3    H116806   7.761   5.149   1.068
 5643TIP3    H216807   7.659   5.054   1.009
 5644TIP3   OH216808   6.390   5.219   1.808
 5644TIP3    H116809   6.444   5.140   1.805
 5644TIP3    H216810   6.451   5.290   1.786
 5645TIP3   OH216811   6.168   5.490   1.844
 5645TIP3    H116812   6.224   5.493   1.767
 5645TIP3    H216813   6.192   5.567   1.895
 5646TIP3   OH216814   8.118   5.516   1.990
 5646TIP3    H116815   8.033   5.554   2.011
 5646TIP3    H216816   8.098   5.439   1.937
 5647TIP3   OH216817   7.806   5.056   0.512
 5647TIP3    H116818   7.843   5.059   0.600
 5647TIP3    H216819   7.759   5.139   0.503
 5648TIP3   OH216820   6.153   4.926   1.328
 5648TIP3    H116821   6.082   4.934   1.392
 5648TIP3    H216822   6.148   5.005   1.276
 5649TIP3   OH216823   7.396   6.664   0.807
 5649TIP3    H116824   7.412   6.658   0.712
 5649TIP3    H216825   7.341   6.742   0.817
 5650TIP3   OH216826   6.391   5.040   2.163
 5650TIP3    H116827   6.347   5.039   2.248
 5650TIP3    H216828   6.335   5.095   2.108
 5651TIP3   OH216829   6.422   6.506   2.239
 5651TIP3    H116830   6.329   6.487   2.230
 5651TIP3    H216831   6.441   6.494   2.332
 5652TIP3   OH216832   6.636   6.553   1.789
 5652TIP3    H116833   6.583   6.625   1.754
 5652TIP3    H216834   6.722   6.567   1.749
 5653TIP3   OH216835   7.033   6.788   1.929
 5653TIP3    H116836   7.068   6.778   2.018
 5653TIP3    H216837   7.100   6.838   1.883
 5654TIP3   OH216838   7.233   6.933   1.808
 5654TIP3    H116839   7.303   6.875   1.778
 5654TIP3    H216840   7.277   6.999   1.861
 5655TIP3   OH216841   8.025   5.273   1.881
 5655TIP3    H116842   7.936   5.266   1.845
 5655TIP3    H216843   8.061   5.185   1.874
 5656TIP3   OH216844   6.294   6.794   1.839
 5656TIP3    H116845   6.202   6.810   1.816
 5656TIP3    H216846   6.314   6.862   1.903
 5657TIP3   OH216847   6.518   6.777   1.684
 5657TIP3    H116848   6.438   6.783   1.736
 5657TIP3    H216849   6.493   6.810   1.598
 5658TIP3   OH216850   6.954   6.797   1.471
 5658TIP3    H116851   6.871   6.808   1.425
 5658TIP3    H216852   6.969   6.880   1.515
 5659TIP3   OH216853   7.204   6.705   1.535
 5659TIP3    H116854   7.120   6.744   1.511
 5659TIP3    H216855   7.268   6.774   1.517
 5660TIP3   OH216856   7.420   6.871   1.492
 5660TIP3    H116857   7.403   6.960   1.462
 5660TIP3    H216858   7.453   6.825   1.414
 5661TIP3   OH216859   6.207   6.578   1.577
 5661TIP3    H116860   6.226   6.549   1.666
 5661TIP3    H216861   6.281   6.546   1.526
 5662TIP3   OH216862   6.416   6.462   1.452
 5662TIP3    H116863   6.430   6.375   1.490
 5662TIP3    H216864   6.504   6.500   1.448
 5663TIP3   OH216865   6.684   6.523   1.455
 5663TIP3    H116866   6.707   6.432   1.440
 5663TIP3    H216867   6.743   6.551   1.526
 5664TIP3   OH216868   7.197   5.147   1.483
 5664TIP3    H116869   7.176   5.101   1.564
 5664TIP3    H216870   7.290   5.126   1.467
 5665TIP3   OH216871   7.745   5.091   1.415
 5665TIP3    H116872   7.801   5.138   1.354
 5665TIP3    H216873   7.668   5.147   1.425
 5666TIP3   OH216874   7.888   5.170   1.198
 5666TIP3    H116875   7.943   5.097   1.171
 5666TIP3    H216876   7.940   5.248   1.177
 5667TIP3   OH216877   6.487   4.905   1.510
 5667TIP3    H116878   6.396   4.876   1.522
 5667TIP3    H216879   6.538   4.825   1.511
 5668TIP3   OH216880   6.269   4.756   1.151
 5668TIP3    H116881   6.359   4.788   1.149
 5668TIP3    H216882   6.226   4.811   1.217
 5669TIP3   OH216883   6.928   4.945   1.436
 5669TIP3    H116884   6.991   4.971   1.369
 5669TIP3    H216885   6.971   4.966   1.519
 5670TIP3   OH216886   7.449   5.071   1.402
 5670TIP3    H116887   7.487   5.040   1.320
 5670TIP3    H216888   7.459   4.998   1.462
 5671TIP3   OH216889   7.516   4.931   0.947
 5671TIP3    H116890   7.460   4.998   0.986
 5671TIP3    H216891   7.492   4.850   0.991
 5672TIP3   OH216892   6.003   6.420   1.031
 5672TIP3    H116893   5.987   6.355   0.963
 5672TIP3    H216894   5.956   6.498   1.001
 5673TIP3   OH216895   6.482   4.806   0.983
 5673TIP3    H116896   6.556   4.769   0.935
 5673TIP3    H216897   6.511   4.895   1.006
 5674TIP3   OH216898   6.849   5.099   1.112
 5674TIP3    H116899   6.906   5.031   1.149
 5674TIP3    H216900   6.853   5.085   1.018
 5675TIP3   OH216901   6.705   5.178   2.400
 5675TIP3    H116902   6.670   5.112   2.460
 5675TIP3    H216903   6.797   5.185   2.424
 5676TIP3   OH216904   6.954   5.183   2.519
 5676TIP3    H116905   7.032   5.160   2.470
 5676TIP3    H216906   6.946   5.114   2.585
 5677TIP3   OH216907   6.136   6.483   0.575
 5677TIP3    H116908   6.146   6.552   0.641
 5677TIP3    H216909   6.169   6.404   0.617
 5678TIP3   OH216910   7.775   5.275   2.311
 5678TIP3    H116911   7.792   5.245   2.401
 5678TIP3    H216912   7.860   5.268   2.267
 5679TIP3   OH216913   7.702   6.811   1.846
 5679TIP3    H116914   7.623   6.777   1.804
 5679TIP3    H216915   7.683   6.903   1.863
 5680TIP3   OH216916   8.941   6.186   0.971
 5680TIP3    H116917   9.026   6.207   0.933
 5680TIP3    H216918   8.912   6.108   0.924
 5681TIP3   OH216919   8.263   6.093   1.399
 5681TIP3    H116920   8.278   6.013   1.450
 5681TIP3    H216921   8.338   6.099   1.340
 5682TIP3   OH216922   8.162   6.456   1.009
 5682TIP3    H116923   8.151   6.373   1.057
 5682TIP3    H216924   8.237   6.498   1.051
 5683TIP3   OH216925   7.954   5.673   0.791
 5683TIP3    H116926   7.902   5.721   0.856
 5683TIP3    H216927   7.893   5.609   0.754
 5684TIP3   OH216928   8.081   5.958   0.897
 5684TIP3    H116929   8.068   5.917   0.982
 5684TIP3    H216930   8.156   6.017   0.910
 5685TIP3   OH216931   8.798   6.408   1.024
 5685TIP3    H116932   8.840   6.328   0.994
 5685TIP3    H216933   8.865   6.476   1.012
 5686TIP3   OH216934   9.164   5.972   1.020
 5686TIP3    H116935   9.170   5.883   1.055
 5686TIP3    H216936   9.231   5.976   0.951
 5687TIP3   OH216937   8.553   5.574   0.908
 5687TIP3    H116938   8.537   5.658   0.865
 5687TIP3    H216939   8.508   5.581   0.992
 5688TIP3   OH216940   8.037   5.667   1.093
 5688TIP3    H116941   8.102   5.733   1.117
 5688TIP3    H216942   8.075   5.621   1.019
 5689TIP3   OH216943   8.728   6.068   0.811
 5689TIP3    H116944   8.797   6.001   0.820
 5689TIP3    H216945   8.702   6.063   0.719
 5690TIP3   OH216946   8.500   5.532   1.484
 5690TIP3    H116947   8.453   5.556   1.404
 5690TIP3    H216948   8.441   5.558   1.554
 5691TIP3   OH216949   8.565   6.344   1.271
 5691TIP3    H116950   8.591   6.421   1.322
 5691TIP3    H216951   8.559   6.376   1.181
 5692TIP3   OH216952   8.293   5.628   1.316
 5692TIP3    H116953   8.311   5.721   1.303
 5692TIP3    H216954   8.338   5.584   1.243
 5693TIP3   OH216955   8.464   6.586   1.434
 5693TIP3    H116956   8.446   6.647   1.363
 5693TIP3    H216957   8.377   6.556   1.463
 5694TIP3   OH216958   8.860   5.193   1.161
 5694TIP3    H116959   8.828   5.113   1.203
 5694TIP3    H216960   8.798   5.261   1.187
 5695TIP3   OH216961   8.408   6.123   0.717
 5695TIP3    H116962   8.343   6.157   0.656
 5695TIP3    H216963   8.480   6.093   0.662
 5696TIP3   OH216964   8.536   6.469   1.031
 5696TIP3    H116965   8.522   6.384   0.990
 5696TIP3    H216966   8.631   6.479   1.034
 5697TIP3   OH216967   8.519   6.082   1.242
 5697TIP3    H116968   8.553   6.058   1.156
 5697TIP3    H216969   8.547   6.172   1.255
 5698TIP3   OH216970   8.682   6.745   1.513
 5698TIP3    H116971   8.683   6.768   1.606
 5698TIP3    H216972   8.604   6.691   1.502
 5699TIP3   OH216973   8.423   6.203   1.627
 5699TIP3    H116974   8.409   6.293   1.656
 5699TIP3    H216975   8.349   6.184   1.569
 5700TIP3   OH216976   8.403   6.824   1.610
 5700TIP3    H116977   8.404   6.774   1.528
 5700TIP3    H216978   8.339   6.780   1.665
 5701TIP3   OH216979   8.044   6.321   1.546
 5701TIP3    H116980   8.001   6.280   1.471
 5701TIP3    H216981   8.082   6.247   1.595
 5702TIP3   OH216982   7.967   6.506   1.218
 5702TIP3    H116983   8.042   6.508   1.159
 5702TIP3    H216984   7.992   6.563   1.291
 5703TIP3   OH216985   8.842   6.832   1.314
 5703TIP3    H116986   8.822   6.925   1.329
 5703TIP3    H216987   8.783   6.785   1.373
 5704TIP3   OH216988   8.225   6.524   1.543
 5704TIP3    H116989   8.273   6.510   1.625
 5704TIP3    H216990   8.168   6.447   1.535
 5705TIP3   OH216991   8.557   5.229   1.317
 5705TIP3    H116992   8.465   5.247   1.303
 5705TIP3    H216993   8.603   5.304   1.280
 5706TIP3   OH216994   9.141   5.428   1.555
 5706TIP3    H116995   9.187   5.366   1.612
 5706TIP3    H216996   9.052   5.394   1.550
 5707TIP3   OH216997   8.575   5.884   1.429
 5707TIP3    H116998   8.494   5.881   1.479
 5707TIP3    H216999   8.570   5.966   1.380
 5708TIP3   OH217000   8.466   5.803   0.777
 5708TIP3    H117001   8.394   5.798   0.714
 5708TIP3    H217002   8.545   5.810   0.723
 5709TIP3   OH217003   9.122   6.106   1.683
 5709TIP3    H117004   9.116   6.026   1.736
 5709TIP3    H217005   9.214   6.130   1.686
 5710TIP3   OH217006   8.339   5.884   1.570
 5710TIP3    H117007   8.306   5.931   1.647
 5710TIP3    H217008   8.334   5.792   1.595
 5711TIP3   OH217009   8.054   5.372   1.117
 5711TIP3    H117010   8.068   5.395   1.209
 5711TIP3    H217011   8.118   5.426   1.070
 5712TIP3   OH217012   8.132   5.510   0.608
 5712TIP3    H117013   8.199   5.577   0.620
 5712TIP3    H217014   8.069   5.549   0.547
 5713TIP3   OH217015   9.156   6.178   1.207
 5713TIP3    H117016   9.132   6.136   1.124
 5713TIP3    H217017   9.162   6.106   1.270
 5714TIP3   OH217018   8.790   5.448   0.945
 5714TIP3    H117019   8.704   5.486   0.927
 5714TIP3    H217020   8.852   5.510   0.908
 5715TIP3   OH217021   8.190   5.512   0.907
 5715TIP3    H117022   8.131   5.522   0.832
 5715TIP3    H217023   8.248   5.440   0.883
 5716TIP3   OH217024   9.183   5.718   1.108
 5716TIP3    H117025   9.200   5.658   1.180
 5716TIP3    H217026   9.187   5.664   1.029
 5717TIP3   OH217027   8.393   6.448   1.749
 5717TIP3    H117028   8.476   6.467   1.793
 5717TIP3    H217029   8.328   6.456   1.818
 5718TIP3   OH217030   8.953   5.934   0.853
 5718TIP3    H117031   8.950   5.841   0.833
 5718TIP3    H217032   9.030   5.944   0.909
 5719TIP3   OH217033   8.442   5.276   0.952
 5719TIP3    H117034   8.393   5.208   0.996
 5719TIP3    H217035   8.400   5.285   0.866
 5720TIP3   OH217036   8.823   5.781   1.381
 5720TIP3    H117037   8.747   5.838   1.397
 5720TIP3    H217038   8.898   5.830   1.414
 5721TIP3   OH217039   8.991   6.605   1.325
 5721TIP3    H117040   8.996   6.569   1.413
 5721TIP3    H217041   8.947   6.689   1.335
 5722TIP3   OH217042   8.301   6.091   0.970
 5722TIP3    H117043   8.334   6.104   0.881
 5722TIP3    H217044   8.376   6.054   1.017
 5723TIP3   OH217045   8.142   6.117   1.695
 5723TIP3    H117046   8.199   6.140   1.769
 5723TIP3    H217047   8.082   6.051   1.731
 5724TIP3   OH217048   8.888   6.241   1.707
 5724TIP3    H117049   8.811   6.186   1.693
 5724TIP3    H217050   8.963   6.183   1.692
 5725TIP3   OH217051   9.142   6.755   1.148
 5725TIP3    H117052   9.104   6.686   1.202
 5725TIP3    H217053   9.223   6.778   1.193
 5726TIP3   OH217054   8.640   6.986   1.177
 5726TIP3    H117055   8.662   7.034   1.098
 5726TIP3    H217056   8.654   6.894   1.154
 5727TIP3   OH217057   9.101   6.435   1.062
 5727TIP3    H117058   9.135   6.386   1.136
 5727TIP3    H217059   9.153   6.406   0.987
 5728TIP3   OH217060   8.328   5.622   1.678
 5728TIP3    H117061   8.232   5.621   1.678
 5728TIP3    H217062   8.353   5.555   1.742
 5729TIP3   OH217063   8.034   6.674   1.422
 5729TIP3    H117064   8.100   6.625   1.472
 5729TIP3    H217065   8.040   6.764   1.456
 5730TIP3   OH217066   9.089   5.665   1.436
 5730TIP3    H117067   9.134   5.729   1.491
 5730TIP3    H217068   9.104   5.581   1.479
 5731TIP3   OH217069   9.015   5.963   1.479
 5731TIP3    H117070   9.053   6.007   1.555
 5731TIP3    H217071   9.090   5.939   1.425
 5732TIP3   OH217072   8.282   5.217   1.282
 5732TIP3    H117073   8.268   5.184   1.194
 5732TIP3    H217074   8.298   5.139   1.335
 5733TIP3   OH217075   8.056   7.004   1.759
 5733TIP3    H117076   8.132   6.993   1.817
 5733TIP3    H217077   8.021   6.916   1.747
 5734TIP3   OH217078   8.524   6.981   1.800
 5734TIP3    H117079   8.615   6.952   1.810
 5734TIP3    H217080   8.488   6.924   1.732
 5735TIP3   OH217081   9.261   7.007   1.629
 5735TIP3    H117082   9.209   6.971   1.557
 5735TIP3    H217083   9.345   6.962   1.621
 5736TIP3   OH217084   8.183   6.439   1.929
 5736TIP3    H117085   8.192   6.344   1.939
 5736TIP3    H217086   8.102   6.452   1.880
 5737TIP3   OH217087   8.844   6.523   1.731
 5737TIP3    H117088   8.799   6.507   1.649
 5737TIP3    H217089   8.885   6.439   1.753
 5738TIP3   OH217090   8.310   6.178   1.903
 5738TIP3    H117091   8.389   6.177   1.848
 5738TIP3    H217092   8.342   6.201   1.990
 5739TIP3   OH217093   8.662   6.073   1.659
 5739TIP3    H117094   8.577   6.117   1.654
 5739TIP3    H217095   8.693   6.072   1.568
 5740TIP3   OH217096   9.181   6.468   1.696
 5740TIP3    H117097   9.138   6.423   1.623
 5740TIP3    H217098   9.185   6.403   1.766
 5741TIP3   OH217099   8.801   5.818   1.694
 5741TIP3    H117100   8.783   5.731   1.658
 5741TIP3    H217101   8.739   5.876   1.650
 5742TIP3   OH217102   8.756   5.582   1.551
 5742TIP3    H117103   8.784   5.640   1.480
 5742TIP3    H217104   8.666   5.560   1.529
 5743TIP3   OH217105   8.788   6.088   1.418
 5743TIP3    H117106   8.871   6.046   1.442
 5743TIP3    H217107   8.813   6.172   1.380
 5744TIP3   OH217108   9.386   6.157   1.737
 5744TIP3    H117109   9.442   6.086   1.768
 5744TIP3    H217110   9.418   6.176   1.649
 5745TIP3   OH217111   8.650   5.943   1.927
 5745TIP3    H117112   8.587   5.872   1.935
 5745TIP3    H217113   8.656   5.960   1.833
 5746TIP3   OH217114   8.884   5.346   1.577
 5746TIP3    H117115   8.841   5.431   1.566
 5746TIP3    H217116   8.813   5.282   1.570
 5747TIP3   OH217117   9.056   5.865   1.786
 5747TIP3    H117118   9.033   5.857   1.879
 5747TIP3    H217119   8.975   5.845   1.740
 5748TIP3   OH217120   9.264   5.784   1.609
 5748TIP3    H117121   9.203   5.804   1.680
 5748TIP3    H217122   9.350   5.780   1.652
 5749TIP3   OH217123   9.514   5.769   1.737
 5749TIP3    H117124   9.531   5.690   1.788
 5749TIP3    H217125   9.502   5.838   1.803
 5750TIP3   OH217126   8.489   5.715   1.975
 5750TIP3    H117127   8.492   5.628   1.935
 5750TIP3    H217128   8.526   5.701   2.063
 5751TIP3   OH217129   8.969   5.390   1.836
 5751TIP3    H117130   9.027   5.317   1.854
 5751TIP3    H217131   8.941   5.376   1.745
 5752TIP3   OH217132   9.057   5.609   1.976
 5752TIP3    H117133   9.031   5.542   1.913
 5752TIP3    H217134   8.987   5.675   1.970
 5753TIP3   OH217135   7.838   6.577   0.902
 5753TIP3    H117136   7.895   6.504   0.928
 5753TIP3    H217137   7.880   6.613   0.823
 5754TIP3   OH217138   7.981   6.104   1.385
 5754TIP3    H117139   7.950   6.058   1.307
 5754TIP3    H217140   8.077   6.096   1.381
 5755TIP3   OH217141   8.221   5.769   1.934
 5755TIP3    H117142   8.316   5.763   1.942
 5755TIP3    H217143   8.189   5.684   1.966
 5756TIP3   OH217144   8.134   5.421   1.379
 5756TIP3    H117145   8.192   5.350   1.353
 5756TIP3    H217146   8.185   5.500   1.366
 5757TIP3   OH217147   7.952   5.747   1.345
 5757TIP3    H117148   7.969   5.704   1.261
 5757TIP3    H217149   8.005   5.826   1.343
 5758TIP3   OH217150   7.992   5.312   0.854
 5758TIP3    H117151   8.016   5.310   0.947
 5758TIP3    H217152   8.076   5.309   0.808
 5759TIP3   OH217153   8.198   5.330   1.661
 5759TIP3    H117154   8.128   5.319   1.726
 5759TIP3    H217155   8.152   5.355   1.581
 5760TIP3   OH217156   8.216   6.728   1.778
 5760TIP3    H117157   8.123   6.725   1.756
 5760TIP3    H217158   8.219   6.724   1.873
 5761TIP3   OH217159   8.431   6.842   1.310
 5761TIP3    H117160   8.368   6.903   1.271
 5761TIP3    H217161   8.516   6.886   1.301
 5762TIP3   OH217162   8.834   7.072   1.430
 5762TIP3    H117163   8.891   7.030   1.494
 5762TIP3    H217164   8.893   7.124   1.376
 5763TIP3   OH217165   9.021   7.196   1.272
 5763TIP3    H117166   9.087   7.152   1.219
 5763TIP3    H217167   9.067   7.221   1.352
 5764TIP3   OH217168   8.068   6.944   1.445
 5764TIP3    H117169   8.020   7.017   1.405
 5764TIP3    H217170   8.149   6.984   1.477
 5765TIP3   OH217171   8.279   7.034   1.154
 5765TIP3    H117172   8.232   7.112   1.126
 5765TIP3    H217173   8.281   6.977   1.077
 5766TIP3   OH217174   7.929   6.833   0.968
 5766TIP3    H117175   7.974   6.887   1.033
 5766TIP3    H217176   7.999   6.787   0.922
 5767TIP3   OH217177   8.117   6.683   0.855
 5767TIP3    H117178   8.146   6.606   0.904
 5767TIP3    H217179   8.195   6.716   0.812
 5768TIP3   OH217180   8.422   6.844   0.990
 5768TIP3    H117181   8.385   6.767   0.947
 5768TIP3    H217182   8.464   6.893   0.920
 5769TIP3   OH217183   9.071   5.364   0.939
 5769TIP3    H117184   8.985   5.369   0.982
 5769TIP3    H217185   9.101   5.274   0.957
 5770TIP3   OH217186   8.256   5.093   1.038
 5770TIP3    H117187   8.169   5.054   1.044
 5770TIP3    H217188   8.314   5.019   1.020
 5771TIP3   OH217189   8.147   5.025   0.685
 5771TIP3    H117190   8.136   5.090   0.615
 5771TIP3    H217191   8.063   5.024   0.731
 5772TIP3   OH217192   8.780   5.166   0.896
 5772TIP3    H117193   8.780   5.258   0.871
 5772TIP3    H217194   8.815   5.166   0.985
 5773TIP3   OH217195   8.495   5.442   1.898
 5773TIP3    H117196   8.460   5.375   1.957
 5773TIP3    H217197   8.588   5.447   1.920
 5774TIP3   OH217198   8.751   5.437   2.010
 5774TIP3    H117199   8.822   5.435   1.946
 5774TIP3    H217200   8.757   5.353   2.056
 5775TIP3   OH217201   9.703   7.011   2.891
 5775TIP3    H117202   9.725   6.952   2.963
 5775TIP3    H217203   9.671   7.090   2.933
 5776TIP3   OH217204   0.490   6.273   3.190
 5776TIP3    H117205   0.505   6.358   3.233
 5776TIP3    H217206   0.529   6.283   3.104
 5777TIP3   OH217207   9.717   6.418   3.259
 5777TIP3    H117208   9.709   6.330   3.223
 5777TIP3    H217209   9.736   6.473   3.182
 5778TIP3   OH217210  -0.015   6.298   2.822
 5778TIP3    H117211   0.034   6.248   2.887
 5778TIP3    H217212   0.012   6.261   2.738
 5779TIP3   OH217213   0.532   6.490   3.372
 5779TIP3    H117214   0.446   6.528   3.358
 5779TIP3    H217215   0.567   6.537   3.448
 5780TIP3   OH217216   0.134   6.186   3.021
 5780TIP3    H117217   0.187   6.117   3.059
 5780TIP3    H217218   0.178   6.268   3.045
 5781TIP3   OH217219   0.252   6.172   3.290
 5781TIP3    H117220   0.199   6.251   3.304
 5781TIP3    H217221   0.334   6.205   3.252
 5782TIP3   OH217222   0.161   7.213   3.342
 5782TIP3    H117223   0.143   7.132   3.293
 5782TIP3    H217224   0.138   7.283   3.280
 5783TIP3   OH217225   0.363   6.828   3.201
 5783TIP3    H117226   0.284   6.880   3.212
 5783TIP3    H217227   0.389   6.843   3.110
 5784TIP3   OH217228   9.616   6.569   2.507
 5784TIP3    H117229   9.546   6.601   2.450
 5784TIP3    H217230   9.675   6.644   2.516
 5785TIP3   OH217231   0.051   6.750   3.344
 5785TIP3    H117232   0.060   6.837   3.382
 5785TIP3    H217233  -0.004   6.763   3.266
 5786TIP3   OH217234   0.164   5.739   2.433
 5786TIP3    H117235   0.089   5.759   2.490
 5786TIP3    H217236   0.177   5.819   2.382
 5787TIP3   OH217237   0.407   7.521   3.385
 5787TIP3    H117238   0.413   7.427   3.400
 5787TIP3    H217239   0.330   7.549   3.434
 5788TIP3   OH217240   0.351   6.607   3.646
 5788TIP3    H117241   0.259   6.629   3.635
 5788TIP3    H217242   0.352   6.543   3.717
 5789TIP3   OH217243   9.839   6.405   3.498
 5789TIP3    H117244   9.768   6.390   3.561
 5789TIP3    H217245   9.795   6.413   3.414
 5790TIP3   OH217246   9.557   6.338   3.028
 5790TIP3    H117247   9.538   6.338   2.935
 5790TIP3    H217248   9.587   6.249   3.047
 5791TIP3   OH217249   0.134   6.988   3.177
 5791TIP3    H117250   0.172   7.032   3.102
 5791TIP3    H217251   0.062   6.936   3.141
 5792TIP3   OH217252   9.453   6.105   2.488
 5792TIP3    H117253   9.398   6.130   2.414
 5792TIP3    H217254   9.530   6.064   2.448
 5793TIP3   OH217255   9.685   6.320   2.404
 5793TIP3    H117256   9.751   6.307   2.471
 5793TIP3    H217257   9.647   6.406   2.423
 5794TIP3   OH217258   0.206   6.375   2.340
 5794TIP3    H117259   0.148   6.329   2.279
 5794TIP3    H217260   0.202   6.466   2.312
 5795TIP3   OH217261   0.414   7.238   3.432
 5795TIP3    H117262   0.319   7.237   3.419
 5795TIP3    H217263   0.450   7.210   3.348
 5796TIP3   OH217264   9.722   6.813   3.098
 5796TIP3    H117265   9.629   6.830   3.108
 5796TIP3    H217266   9.727   6.726   3.058
 5797TIP3   OH217267   9.652   6.056   2.677
 5797TIP3    H117268   9.573   6.079   2.628
 5797TIP3    H217269   9.632   6.077   2.768
 5798TIP3   OH217270   0.319   6.308   3.567
 5798TIP3    H117271   0.268   6.348   3.638
 5798TIP3    H217272   0.339   6.381   3.508
 5799TIP3   OH217273  -0.014   6.540   3.011
 5799TIP3    H117274  -0.056   6.467   2.965
 5799TIP3    H217275   0.075   6.510   3.028
 5800TIP3   OH217276   9.800   7.483   2.933
 5800TIP3    H117277   9.733   7.474   2.865
 5800TIP3    H217278   9.860   7.549   2.899
 5801TIP3   OH217279   9.755   6.609   3.888
 5801TIP3    H117280   9.800   6.562   3.958
 5801TIP3    H217281   9.804   6.691   3.878
 5802TIP3   OH217282   0.048   6.969   3.523
 5802TIP3    H117283   0.015   7.050   3.562
 5802TIP3    H217284   0.144   6.977   3.529
 5803TIP3   OH217285   9.682   6.410   3.726
 5803TIP3    H117286   9.617   6.359   3.773
 5803TIP3    H217287   9.692   6.491   3.777
 5804TIP3   OH217288   0.300   6.237   3.971
 5804TIP3    H117289   0.300   6.144   3.993
 5804TIP3    H217290   0.324   6.282   4.052
 5805TIP3   OH217291   0.203   7.664   2.884
 5805TIP3    H117292   0.237   7.667   2.974
 5805TIP3    H217293   0.281   7.669   2.829
 5806TIP3   OH217294   0.262   7.633   3.162
 5806TIP3    H117295   0.206   7.555   3.164
 5806TIP3    H217296   0.333   7.613   3.223
 5807TIP3   OH217297   0.277   7.334   3.779
 5807TIP3    H117298   0.276   7.325   3.874
 5807TIP3    H217299   0.319   7.419   3.764
 5808TIP3   OH217300   0.138   6.828   2.360
 5808TIP3    H117301   0.190   6.903   2.332
 5808TIP3    H217302   0.184   6.794   2.437
 5809TIP3   OH217303   0.268   6.695   2.566
 5809TIP3    H117304   0.205   6.655   2.626
 5809TIP3    H217305   0.333   6.735   2.623
 5810TIP3   OH217306   0.302   7.105   2.993
 5810TIP3    H117307   0.351   7.031   2.957
 5810TIP3    H217308   0.320   7.177   2.932
 5811TIP3   OH217309   0.072   7.426   3.186
 5811TIP3    H117310   0.010   7.490   3.221
 5811TIP3    H217311   0.055   7.424   3.092
 5812TIP3   OH217312   0.163   6.608   2.206
 5812TIP3    H117313   0.090   6.605   2.144
 5812TIP3    H217314   0.147   6.687   2.258
 5813TIP3   OH217315   9.823   6.274   2.167
 5813TIP3    H117316   9.753   6.285   2.231
 5813TIP3    H217317   9.814   6.184   2.137
 5814TIP3   OH217318   0.091   6.561   2.727
 5814TIP3    H117319   0.081   6.466   2.718
 5814TIP3    H217320   0.039   6.583   2.804
 5815TIP3   OH217321   0.323   6.986   3.545
 5815TIP3    H117322   0.391   6.920   3.544
 5815TIP3    H217323   0.363   7.063   3.505
 5816TIP3   OH217324   0.521   6.796   3.559
 5816TIP3    H117325   0.460   6.727   3.585
 5816TIP3    H217326   0.608   6.759   3.577
 5817TIP3   OH217327  -0.001   6.006   2.104
 5817TIP3    H117328   0.072   5.994   2.165
 5817TIP3    H217329  -0.068   5.946   2.136
 5818TIP3   OH217330   0.093   6.261   2.571
 5818TIP3    H117331   0.133   6.175   2.588
 5818TIP3    H217332   0.151   6.302   2.507
 5819TIP3   OH217333   0.227   6.438   3.099
 5819TIP3    H117334   0.306   6.462   3.051
 5819TIP3    H217335   0.236   6.481   3.184
 5820TIP3   OH217336   0.281   6.596   3.319
 5820TIP3    H117337   0.195   6.627   3.346
 5820TIP3    H217338   0.322   6.671   3.276
 5821TIP3   OH217339   0.740   6.214   3.862
 5821TIP3    H117340   0.805   6.150   3.834
 5821TIP3    H217341   0.712   6.257   3.781
 5822TIP3   OH217342   0.187   6.009   2.629
 5822TIP3    H117343   0.222   5.998   2.718
 5822TIP3    H217344   0.121   5.940   2.621
 5823TIP3   OH217345   0.607   6.328   3.652
 5823TIP3    H117346   0.545   6.364   3.715
 5823TIP3    H217347   0.560   6.256   3.609
 5824TIP3   OH217348   0.219   5.953   2.266
 5824TIP3    H117349   0.264   5.889   2.212
 5824TIP3    H217350   0.282   6.025   2.275
 5825TIP3   OH217351   0.500   6.082   3.578
 5825TIP3    H117352   0.410   6.089   3.548
 5825TIP3    H217353   0.524   5.991   3.560
 5826TIP3   OH217354   9.440   5.987   3.148
 5826TIP3    H117355   9.361   6.014   3.194
 5826TIP3    H217356   9.505   5.972   3.217
 5827TIP3   OH217357   0.218   5.906   3.102
 5827TIP3    H117358   0.263   5.920   3.019
 5827TIP3    H217359   0.125   5.904   3.079
 5828TIP3   OH217360   0.329   5.973   2.863
 5828TIP3    H117361   0.398   5.914   2.829
 5828TIP3    H217362   0.363   6.061   2.847
 5829TIP3   OH217363   9.760   5.878   3.015
 5829TIP3    H117364   9.802   5.828   2.944
 5829TIP3    H217365   9.687   5.823   3.043
 5830TIP3   OH217366   9.781   5.824   2.615
 5830TIP3    H117367   9.723   5.893   2.649
 5830TIP3    H217368   9.756   5.745   2.663
 5831TIP3   OH217369   0.300   5.958   3.991
 5831TIP3    H117370   0.326   5.951   4.083
 5831TIP3    H217371   0.381   5.977   3.944
 5832TIP3   OH217372   0.176   7.571   3.530
 5832TIP3    H117373   0.150   7.491   3.575
 5832TIP3    H217374   0.203   7.631   3.600
 5833TIP3   OH217375   1.423   6.985   2.250
 5833TIP3    H117376   1.394   7.072   2.225
 5833TIP3    H217377   1.350   6.927   2.225
 5834TIP3   OH217378   1.419   6.972   2.670
 5834TIP3    H117379   1.474   6.956   2.748
 5834TIP3    H217380   1.377   6.888   2.654
 5835TIP3   OH217381   0.719   6.829   3.016
 5835TIP3    H117382   0.758   6.780   3.088
 5835TIP3    H217383   0.793   6.855   2.962
 5836TIP3   OH217384   1.690   7.270   2.334
 5836TIP3    H117385   1.678   7.206   2.404
 5836TIP3    H217386   1.709   7.352   2.379
 5837TIP3   OH217387   0.698   7.256   2.716
 5837TIP3    H117388   0.687   7.161   2.711
 5837TIP3    H217389   0.793   7.269   2.707
 5838TIP3   OH217390   0.417   6.468   2.494
 5838TIP3    H117391   0.377   6.551   2.521
 5838TIP3    H217392   0.350   6.425   2.441
 5839TIP3   OH217393   0.490   6.783   2.705
 5839TIP3    H117394   0.540   6.706   2.730
 5839TIP3    H217395   0.556   6.849   2.683
 5840TIP3   OH217396   1.360   7.696   2.367
 5840TIP3    H117397   1.386   7.636   2.297
 5840TIP3    H217398   1.376   7.646   2.447
 5841TIP3   OH217399   1.227   7.193   2.677
 5841TIP3    H117400   1.273   7.114   2.648
 5841TIP3    H217401   1.297   7.252   2.706
 5842TIP3   OH217402   2.259   6.515   2.687
 5842TIP3    H117403   2.275   6.601   2.725
 5842TIP3    H217404   2.287   6.524   2.596
 5843TIP3   OH217405   1.634   6.680   2.710
 5843TIP3    H117406   1.669   6.595   2.737
 5843TIP3    H217407   1.597   6.664   2.623
 5844TIP3   OH217408   0.995   6.335   2.669
 5844TIP3    H117409   0.976   6.410   2.613
 5844TIP3    H217410   0.942   6.264   2.634
 5845TIP3   OH217411   1.686   6.443   2.305
 5845TIP3    H117412   1.749   6.438   2.377
 5845TIP3    H217413   1.736   6.477   2.231
 5846TIP3   OH217414   0.628   6.561   2.793
 5846TIP3    H117415   0.711   6.541   2.836
 5846TIP3    H217416   0.629   6.507   2.714
 5847TIP3   OH217417   1.039   6.755   2.622
 5847TIP3    H117418   1.133   6.742   2.627
 5847TIP3    H217419   1.004   6.674   2.587
 5848TIP3   OH217420   2.317   6.736   2.856
 5848TIP3    H117421   2.230   6.773   2.849
 5848TIP3    H217422   2.354   6.775   2.935
 5849TIP3   OH217423   0.971   6.342   3.122
 5849TIP3    H117424   0.921   6.378   3.049
 5849TIP3    H217425   0.917   6.357   3.199
 5850TIP3   OH217426   1.322   7.204   2.110
 5850TIP3    H117427   1.285   7.175   2.027
 5850TIP3    H217428   1.268   7.279   2.135
 5851TIP3   OH217429   1.065   7.118   2.888
 5851TIP3    H117430   1.012   7.191   2.920
 5851TIP3    H217431   1.115   7.156   2.815
 5852TIP3   OH217432   1.842   6.469   2.528
 5852TIP3    H117433   1.804   6.445   2.612
 5852TIP3    H217434   1.901   6.542   2.548
 5853TIP3   OH217435   0.867   6.450   2.889
 5853TIP3    H117436   0.923   6.524   2.912
 5853TIP3    H217437   0.914   6.406   2.818
 5854TIP3   OH217438   0.910   7.322   2.992
 5854TIP3    H117439   0.900   7.412   2.962
 5854TIP3    H217440   0.831   7.306   3.044
 5855TIP3   OH217441   0.305   7.022   2.250
 5855TIP3    H117442   0.297   7.042   2.157
 5855TIP3    H217443   0.313   7.108   2.292
 5856TIP3   OH217444   1.726   7.508   2.476
 5856TIP3    H117445   1.639   7.512   2.515
 5856TIP3    H217446   1.747   7.599   2.454
 5857TIP3   OH217447   2.062   6.404   2.857
 5857TIP3    H117448   1.977   6.420   2.817
 5857TIP3    H217449   2.125   6.429   2.790
 5858TIP3   OH217450   1.318   6.037   2.848
 5858TIP3    H117451   1.309   5.945   2.873
 5858TIP3    H217452   1.241   6.079   2.886
 5859TIP3   OH217453   1.445   7.557   2.141
 5859TIP3    H117454   1.498   7.478   2.128
 5859TIP3    H217455   1.502   7.629   2.111
 5860TIP3   OH217456   1.576   7.323   2.088
 5860TIP3    H117457   1.499   7.267   2.092
 5860TIP3    H217458   1.627   7.299   2.166
 5861TIP3   OH217459   1.941   7.440   2.801
 5861TIP3    H117460   1.932   7.358   2.753
 5861TIP3    H217461   1.918   7.508   2.737
 5862TIP3   OH217462   1.246   6.825   2.101
 5862TIP3    H117463   1.166   6.874   2.081
 5862TIP3    H217464   1.295   6.826   2.019
 5863TIP3   OH217465   1.232   6.602   1.821
 5863TIP3    H117466   1.295   6.656   1.868
 5863TIP3    H217467   1.286   6.544   1.767
 5864TIP3   OH217468   2.138   7.078   2.695
 5864TIP3    H117469   2.054   7.125   2.694
 5864TIP3    H217470   2.173   7.091   2.607
 5865TIP3   OH217471   1.611   6.910   2.067
 5865TIP3    H117472   1.558   6.940   2.140
 5865TIP3    H217473   1.695   6.885   2.107
 5866TIP3   OH217474   1.837   6.936   3.006
 5866TIP3    H117475   1.834   7.020   3.051
 5866TIP3    H217476   1.756   6.933   2.955
 5867TIP3   OH217477   0.838   6.879   2.470
 5867TIP3    H117478   0.804   6.815   2.408
 5867TIP3    H217479   0.913   6.836   2.511
 5868TIP3   OH217480   0.966   7.308   2.619
 5868TIP3    H117481   0.937   7.292   2.529
 5868TIP3    H217482   1.054   7.271   2.623
 5869TIP3   OH217483   0.931   6.885   2.841
 5869TIP3    H117484   0.972   6.848   2.763
 5869TIP3    H217485   0.980   6.965   2.858
 5870TIP3   OH217486   1.481   7.519   2.602
 5870TIP3    H117487   1.476   7.599   2.653
 5870TIP3    H217488   1.468   7.449   2.667
 5871TIP3   OH217489   1.108   7.418   3.162
 5871TIP3    H117490   1.048   7.478   3.207
 5871TIP3    H217491   1.052   7.367   3.104
 5872TIP3   OH217492   1.440   6.773   1.901
 5872TIP3    H117493   1.501   6.829   1.950
 5872TIP3    H217494   1.463   6.788   1.809
 5873TIP3   OH217495   0.870   6.973   3.306
 5873TIP3    H117496   0.871   7.068   3.322
 5873TIP3    H217497   0.777   6.952   3.298
 5874TIP3   OH217498   1.192   7.449   2.153
 5874TIP3    H117499   1.278   7.490   2.160
 5874TIP3    H217500   1.137   7.515   2.111
 5875TIP3   OH217501   0.902   7.583   3.246
 5875TIP3    H117502   0.875   7.592   3.154
 5875TIP3    H217503   0.821   7.567   3.293
 5876TIP3   OH217504   1.948   5.996   1.947
 5876TIP3    H117505   1.872   6.017   2.001
 5876TIP3    H217506   1.959   6.072   1.890
 5877TIP3   OH217507   0.723   6.705   2.282
 5877TIP3    H117508   0.647   6.755   2.254
 5877TIP3    H217509   0.690   6.615   2.291
 5878TIP3   OH217510   1.762   7.371   1.498
 5878TIP3    H117511   1.766   7.465   1.479
 5878TIP3    H217512   1.850   7.339   1.479
 5879TIP3   OH217513   0.498   7.143   3.193
 5879TIP3    H117514   0.432   7.124   3.127
 5879TIP3    H217515   0.535   7.057   3.215
 5880TIP3   OH217516   0.425   7.304   2.833
 5880TIP3    H117517   0.509   7.284   2.792
 5880TIP3    H217518   0.444   7.377   2.892
 5881TIP3   OH217519   2.210   7.768   2.936
 5881TIP3    H117520   2.200   7.673   2.938
 5881TIP3    H217521   2.122   7.802   2.954
 5882TIP3   OH217522   1.301   7.556   3.024
 5882TIP3    H117523   1.294   7.647   3.051
 5882TIP3    H217524   1.232   7.511   3.073
 5883TIP3   OH217525   1.091   7.675   1.998
 5883TIP3    H117526   1.028   7.667   1.927
 5883TIP3    H217527   1.079   7.764   2.030
 5884TIP3   OH217528   0.512   7.534   2.402
 5884TIP3    H117529   0.578   7.534   2.471
 5884TIP3    H217530   0.436   7.492   2.443
 5885TIP3   OH217531   1.288   7.585   1.600
 5885TIP3    H117532   1.350   7.524   1.560
 5885TIP3    H217533   1.323   7.601   1.688
 5886TIP3   OH217534   1.337   7.631   1.875
 5886TIP3    H117535   1.251   7.639   1.917
 5886TIP3    H217536   1.394   7.597   1.943
 5887TIP3   OH217537   2.083   6.898   3.160
 5887TIP3    H117538   1.999   6.906   3.116
 5887TIP3    H217539   2.099   6.804   3.166
 5888TIP3   OH217540   0.692   7.334   3.163
 5888TIP3    H117541   0.743   7.323   3.243
 5888TIP3    H217542   0.622   7.268   3.170
 5889TIP3   OH217543   1.079   6.130   2.973
 5889TIP3    H117544   0.997   6.102   2.932
 5889TIP3    H217545   1.056   6.209   3.021
 5890TIP3   OH217546   1.608   6.258   3.173
 5890TIP3    H117547   1.676   6.229   3.234
 5890TIP3    H217548   1.525   6.240   3.219
 5891TIP3   OH217549   1.849   6.672   3.098
 5891TIP3    H117550   1.807   6.669   3.184
 5891TIP3    H217551   1.830   6.760   3.065
 5892TIP3   OH217552   1.500   6.787   1.633
 5892TIP3    H117553   1.486   6.754   1.544
 5892TIP3    H217554   1.584   6.833   1.629
 5893TIP3   OH217555   1.224   6.174   1.944
 5893TIP3    H117556   1.188   6.180   2.033
 5893TIP3    H217557   1.191   6.090   1.911
 5894TIP3   OH217558   1.015   6.662   2.986
 5894TIP3    H117559   0.971   6.669   3.071
 5894TIP3    H217560   0.993   6.743   2.941
 5895TIP3   OH217561   0.904   6.541   2.513
 5895TIP3    H117562   0.816   6.515   2.538
 5895TIP3    H217563   0.913   6.511   2.422
 5896TIP3   OH217564   1.372   6.617   2.233
 5896TIP3    H117565   1.326   6.691   2.194
 5896TIP3    H217566   1.431   6.586   2.165
 5897TIP3   OH217567   1.564   6.881   3.304
 5897TIP3    H117568   1.539   6.813   3.366
 5897TIP3    H217569   1.656   6.899   3.324
 5898TIP3   OH217570   1.539   6.627   2.459
 5898TIP3    H117571   1.472   6.650   2.394
 5898TIP3    H217572   1.587   6.555   2.419
 5899TIP3   OH217573   0.852   6.673   3.210
 5899TIP3    H117574   0.877   6.734   3.279
 5899TIP3    H217575   0.835   6.591   3.255
 5900TIP3   OH217576   0.894   6.148   1.925
 5900TIP3    H117577   0.883   6.154   2.019
 5900TIP3    H217578   0.817   6.193   1.889
 5901TIP3   OH217579   0.444   6.203   2.785
 5901TIP3    H117580   0.515   6.242   2.835
 5901TIP3    H217581   0.482   6.185   2.699
 5902TIP3   OH217582   0.386   6.173   2.290
 5902TIP3    H117583   0.432   6.202   2.211
 5902TIP3    H217584   0.327   6.245   2.312
 5903TIP3   OH217585   1.586   6.883   2.883
 5903TIP3    H117586   1.610   6.816   2.819
 5903TIP3    H217587   1.540   6.835   2.952
 5904TIP3   OH217588   1.263   6.328   2.558
 5904TIP3    H117589   1.186   6.326   2.614
 5904TIP3    H217590   1.337   6.320   2.618
 5905TIP3   OH217591   0.671   6.409   2.571
 5905TIP3    H117592   0.583   6.416   2.534
 5905TIP3    H217593   0.700   6.321   2.549
 5906TIP3   OH217594   0.910   6.417   2.267
 5906TIP3    H117595   1.004   6.426   2.255
 5906TIP3    H217596   0.873   6.431   2.180
 5907TIP3   OH217597   1.707   6.418   2.769
 5907TIP3    H117598   1.687   6.438   2.860
 5907TIP3    H217599   1.639   6.356   2.742
 5908TIP3   OH217600   0.793   6.430   2.021
 5908TIP3    H117601   0.726   6.387   1.968
 5908TIP3    H217602   0.849   6.473   1.956
 5909TIP3   OH217603   1.914   8.124   2.994
 5909TIP3    H117604   1.908   8.116   2.899
 5909TIP3    H217605   1.996   8.172   3.009
 5910TIP3   OH217606   0.845   7.236   3.397
 5910TIP3    H117607   0.926   7.259   3.443
 5910TIP3    H217608   0.777   7.239   3.464
 5911TIP3   OH217609   1.310   6.701   2.665
 5911TIP3    H117610   1.377   6.654   2.614
 5911TIP3    H217611   1.310   6.657   2.750
 5912TIP3   OH217612   0.809   6.165   2.538
 5912TIP3    H117613   0.781   6.088   2.587
 5912TIP3    H217614   0.830   6.132   2.450
 5913TIP3   OH217615   1.280   6.600   2.930
 5913TIP3    H117616   1.193   6.633   2.952
 5913TIP3    H217617   1.340   6.653   2.982
 5914TIP3   OH217618   1.012   6.978   2.042
 5914TIP3    H117619   0.950   6.906   2.030
 5914TIP3    H217620   0.995   7.010   2.131
 5915TIP3   OH217621   1.904   7.215   2.645
 5915TIP3    H117622   1.939   7.263   2.571
 5915TIP3    H217623   1.824   7.174   2.611
 5916TIP3   OH217624   1.478   6.275   1.949
 5916TIP3    H117625   1.385   6.255   1.945
 5916TIP3    H217626   1.482   6.370   1.961
 5917TIP3   OH217627   1.423   7.294   3.061
 5917TIP3    H117628   1.476   7.289   3.141
 5917TIP3    H217629   1.387   7.382   3.062
 5918TIP3   OH217630   1.540   6.539   2.019
 5918TIP3    H117631   1.635   6.540   2.031
 5918TIP3    H217632   1.521   6.618   1.969
 5919TIP3   OH217633   0.704   6.972   2.692
 5919TIP3    H117634   0.742   6.951   2.606
 5919TIP3    H217635   0.771   6.944   2.755
 5920TIP3   OH217636   1.183   7.113   1.877
 5920TIP3    H117637   1.143   7.200   1.875
 5920TIP3    H217638   1.124   7.061   1.930
 5921TIP3   OH217639   0.598   6.913   3.320
 5921TIP3    H117640   0.595   6.888   3.412
 5921TIP3    H217641   0.525   6.866   3.280
 5922TIP3   OH217642   1.335   7.039   3.346
 5922TIP3    H117643   1.267   6.984   3.306
 5922TIP3    H217644   1.417   6.998   3.319
 5923TIP3   OH217645   1.573   7.578   2.952
 5923TIP3    H117646   1.478   7.569   2.951
 5923TIP3    H217647   1.592   7.621   3.035
 5924TIP3   OH217648   1.954   6.627   1.840
 5924TIP3    H117649   1.896   6.581   1.779
 5924TIP3    H217650   1.959   6.716   1.804
 5925TIP3   OH217651   2.189   7.476   2.921
 5925TIP3    H117652   2.095   7.478   2.900
 5925TIP3    H217653   2.232   7.456   2.838
 5926TIP3   OH217654   1.692   7.451   1.771
 5926TIP3    H117655   1.670   7.387   1.839
 5926TIP3    H217656   1.715   7.398   1.695
 5927TIP3   OH217657   1.675   7.076   2.545
 5927TIP3    H117658   1.585   7.056   2.569
 5927TIP3    H217659   1.709   6.994   2.508
 5928TIP3   OH217660   0.822   7.295   2.380
 5928TIP3    H117661   0.818   7.373   2.325
 5928TIP3    H217662   0.731   7.273   2.397
 5929TIP3   OH217663   0.416   6.592   2.100
 5929TIP3    H117664   0.457   6.675   2.122
 5929TIP3    H217665   0.329   6.595   2.142
 5930TIP3   OH217666   0.935   7.063   2.285
 5930TIP3    H117667   0.908   7.150   2.314
 5930TIP3    H217668   0.902   7.004   2.353
 5931TIP3   OH217669   1.120   7.639   2.820
 5931TIP3    H117670   1.156   7.712   2.770
 5931TIP3    H217671   1.194   7.603   2.868
 5932TIP3   OH217672   0.733   7.512   2.234
 5932TIP3    H117673   0.645   7.522   2.270
 5932TIP3    H217674   0.773   7.598   2.246
 5933TIP3   OH217675   1.461   7.302   2.786
 5933TIP3    H117676   1.449   7.296   2.880
 5933TIP3    H217677   1.544   7.257   2.769
 5934TIP3   OH217678   1.460   7.164   1.666
 5934TIP3    H117679   1.520   7.136   1.735
 5934TIP3    H217680   1.374   7.131   1.693
 5935TIP3   OH217681   1.704   7.823   2.859
 5935TIP3    H117682   1.657   7.740   2.853
 5935TIP3    H217683   1.697   7.861   2.772
 5936TIP3   OH217684   1.782   7.642   1.458
 5936TIP3    H117685   1.821   7.696   1.389
 5936TIP3    H217686   1.705   7.691   1.487
 5937TIP3   OH217687   0.803   6.417   3.332
 5937TIP3    H117688   0.709   6.431   3.342
 5937TIP3    H217689   0.829   6.369   3.411
 5938TIP3   OH217690   1.640   7.077   1.847
 5938TIP3    H117691   1.625   7.030   1.930
 5938TIP3    H217692   1.735   7.090   1.845
 5939TIP3   OH217693   0.532   7.518   2.993
 5939TIP3    H117694   0.590   7.465   3.046
 5939TIP3    H217695   0.542   7.607   3.028
 5940TIP3   OH217696   0.852   7.145   1.679
 5940TIP3    H117697   0.842   7.052   1.661
 5940TIP3    H217698   0.826   7.155   1.771
 5941TIP3   OH217699   0.800   7.166   1.954
 5941TIP3    H117700   0.877   7.121   1.989
 5941TIP3    H217701   0.816   7.258   1.973
 5942TIP3   OH217702   0.506   6.842   2.184
 5942TIP3    H117703   0.437   6.889   2.231
 5942TIP3    H217704   0.536   6.904   2.117
 5943TIP3   OH217705   1.648   6.489   3.029
 5943TIP3    H117706   1.729   6.529   3.062
 5943TIP3    H217707   1.636   6.411   3.084
 5944TIP3   OH217708   1.538   6.224   2.217
 5944TIP3    H117709   1.518   6.243   2.125
 5944TIP3    H217710   1.582   6.303   2.248
 5945TIP3   OH217711   1.059   7.351   1.882
 5945TIP3    H117712   0.984   7.379   1.935
 5945TIP3    H217713   1.076   7.425   1.823
 5946TIP3   OH217714   1.189   6.424   2.306
 5946TIP3    H117715   1.251   6.493   2.280
 5946TIP3    H217716   1.215   6.403   2.396
 5947TIP3   OH217717   1.484   6.718   3.079
 5947TIP3    H117718   1.511   6.762   3.160
 5947TIP3    H217719   1.537   6.638   3.076
 5948TIP3   OH217720   1.351   6.118   2.391
 5948TIP3    H117721   1.329   6.195   2.443
 5948TIP3    H217722   1.422   6.148   2.333
 5949TIP3   OH217723   0.819   7.441   1.986
 5949TIP3    H117724   0.808   7.523   1.938
 5949TIP3    H217725   0.790   7.461   2.075
 5950TIP3   OH217726   0.865   6.144   2.208
 5950TIP3    H117727   0.854   6.235   2.234
 5950TIP3    H217728   0.959   6.129   2.210
 5951TIP3   OH217729   2.113   6.613   3.075
 5951TIP3    H117730   2.019   6.624   3.088
 5951TIP3    H217731   2.120   6.566   2.992
 5952TIP3   OH217732   1.766   6.818   2.459
 5952TIP3    H117733   1.690   6.761   2.471
 5952TIP3    H217734   1.834   6.779   2.514
 5953TIP3   OH217735   0.554   7.053   2.004
 5953TIP3    H117736   0.638   7.098   1.995
 5953TIP3    H217737   0.558   6.982   1.939
 5954TIP3   OH217738   0.446   6.319   2.067
 5954TIP3    H117739   0.451   6.413   2.081
 5954TIP3    H217740   0.389   6.308   1.991
 5955TIP3   OH217741   1.771   7.786   2.426
 5955TIP3    H117742   1.744   7.836   2.349
 5955TIP3    H217743   1.860   7.815   2.444
 5956TIP3   OH217744   0.815   6.055   2.917
 5956TIP3    H117745   0.790   6.021   2.831
 5956TIP3    H217746   0.803   5.981   2.976
 5957TIP3   OH217747   0.322   7.283   2.330
 5957TIP3    H117748   0.305   7.333   2.410
 5957TIP3    H217749   0.347   7.350   2.266
 5958TIP3   OH217750   0.534   7.833   3.400
 5958TIP3    H117751   0.614   7.837   3.452
 5958TIP3    H217752   0.513   7.739   3.395
 5959TIP3   OH217753   1.009   7.742   3.444
 5959TIP3    H117754   1.099   7.712   3.452
 5959TIP3    H217755   0.973   7.692   3.371
 5960TIP3   OH217756   0.927   7.385   1.567
 5960TIP3    H117757   0.899   7.304   1.611
 5960TIP3    H217758   0.941   7.359   1.476
 5961TIP3   OH217759   1.619   7.685   3.202
 5961TIP3    H117760   1.638   7.614   3.264
 5961TIP3    H217761   1.695   7.743   3.209
 5962TIP3   OH217762   1.455   7.388   1.511
 5962TIP3    H117763   1.468   7.321   1.578
 5962TIP3    H217764   1.543   7.409   1.481
 5963TIP3   OH217765   0.644   7.227   3.589
 5963TIP3    H117766   0.627   7.155   3.650
 5963TIP3    H217767   0.561   7.238   3.541
 5964TIP3   OH217768   0.639   6.838   1.864
 5964TIP3    H117769   0.706   6.810   1.926
 5964TIP3    H217770   0.687   6.857   1.783
 5965TIP3   OH217771   1.265   7.316   3.365
 5965TIP3    H117772   1.220   7.337   3.283
 5965TIP3    H217773   1.302   7.229   3.351
 5966TIP3   OH217774   1.178   7.060   1.605
 5966TIP3    H117775   1.161   7.083   1.696
 5966TIP3    H217776   1.188   6.965   1.606
 5967TIP3   OH217777   1.742   7.359   2.977
 5967TIP3    H117778   1.814   7.389   2.922
 5967TIP3    H217779   1.675   7.427   2.968
 5968TIP3   OH217780   0.799   6.922   3.602
 5968TIP3    H117781   0.853   6.954   3.530
 5968TIP3    H217782   0.820   6.980   3.675
 5969TIP3   OH217783   0.843   6.763   2.034
 5969TIP3    H117784   0.814   6.730   2.119
 5969TIP3    H217785   0.881   6.687   1.990
 5970TIP3   OH217786   1.113   6.849   3.248
 5970TIP3    H117787   1.033   6.899   3.263
 5970TIP3    H217788   1.149   6.886   3.167
 5971TIP3   OH217789   0.958   6.578   1.858
 5971TIP3    H117790   0.933   6.606   1.770
 5971TIP3    H217791   1.054   6.578   1.857
 5972TIP3   OH217792   1.618   7.234   3.334
 5972TIP3    H117793   1.684   7.192   3.279
 5972TIP3    H217794   1.614   7.179   3.413
 5973TIP3   OH217795   1.738   6.889   1.529
 5973TIP3    H117796   1.736   6.845   1.444
 5973TIP3    H217797   1.711   6.979   1.510
 5974TIP3   OH217798   1.227   6.628   3.360
 5974TIP3    H117799   1.229   6.556   3.296
 5974TIP3    H217800   1.189   6.701   3.311
 5975TIP3   OH217801   1.230   6.428   3.157
 5975TIP3    H117802   1.258   6.467   3.074
 5975TIP3    H217803   1.139   6.403   3.143
 5976TIP3   OH217804   1.239   6.972   3.042
 5976TIP3    H117805   1.326   7.007   3.026
 5976TIP3    H217806   1.181   7.026   2.988
 5977TIP3   OH217807   1.828   6.934   3.402
 5977TIP3    H117808   1.884   6.857   3.404
 5977TIP3    H217809   1.889   7.008   3.402
 5978TIP3   OH217810   1.861   7.183   3.145
 5978TIP3    H117811   1.809   7.244   3.094
 5978TIP3    H217812   1.951   7.196   3.115
 5979TIP3   OH217813   1.114   6.714   3.605
 5979TIP3    H117814   1.045   6.650   3.623
 5979TIP3    H217815   1.141   6.695   3.515
 5980TIP3   OH217816   1.350   6.200   3.261
 5980TIP3    H117817   1.308   6.279   3.227
 5980TIP3    H217818   1.287   6.130   3.244
 5981TIP3   OH217819   1.484   6.668   3.460
 5981TIP3    H117820   1.471   6.657   3.555
 5981TIP3    H217821   1.398   6.649   3.422
 5982TIP3   OH217822   1.735   6.629   3.338
 5982TIP3    H117823   1.655   6.628   3.391
 5982TIP3    H217824   1.802   6.592   3.395
 5983TIP3   OH217825   1.967   6.544   3.478
 5983TIP3    H117826   1.975   6.451   3.496
 5983TIP3    H217827   1.959   6.585   3.564
 5984TIP3   OH217828   0.951   6.492   3.667
 5984TIP3    H117829   0.952   6.404   3.630
 5984TIP3    H217830   0.989   6.482   3.754
 5985TIP3   OH217831   1.416   6.178   3.526
 5985TIP3    H117832   1.483   6.110   3.521
 5985TIP3    H217833   1.388   6.190   3.436
 5986TIP3   OH217834   1.514   6.390   3.674
 5986TIP3    H117835   1.484   6.319   3.617
 5986TIP3    H217836   1.443   6.454   3.671
 5987TIP3   OH217837   0.320   7.426   2.576
 5987TIP3    H117838   0.315   7.353   2.638
 5987TIP3    H217839   0.334   7.504   2.631
 5988TIP3   OH217840   2.098   7.569   3.254
 5988TIP3    H117841   2.024   7.581   3.312
 5988TIP3    H217842   2.143   7.654   3.254
 5989TIP3   OH217843   1.918   7.093   1.853
 5989TIP3    H117844   1.975   7.164   1.824
 5989TIP3    H217845   1.963   7.055   1.929
 5990TIP3   OH217846   2.045   6.949   2.054
 5990TIP3    H117847   1.978   6.912   2.112
 5990TIP3    H217848   2.110   6.987   2.113
 5991TIP3   OH217849   2.090   7.358   2.489
 5991TIP3    H117850   2.139   7.294   2.438
 5991TIP3    H217851   2.085   7.435   2.432
 5992TIP3   OH217852   1.948   6.866   1.702
 5992TIP3    H117853   1.874   6.867   1.641
 5992TIP3    H217854   1.936   6.944   1.756
 5993TIP3   OH217855   1.799   6.509   1.650
 5993TIP3    H117856   1.761   6.542   1.568
 5993TIP3    H217857   1.794   6.414   1.642
 5994TIP3   OH217858   1.841   6.811   2.192
 5994TIP3    H117859   1.845   6.717   2.177
 5994TIP3    H217860   1.821   6.820   2.285
 5995TIP3   OH217861   0.461   6.886   2.955
 5995TIP3    H117862   0.453   6.852   2.866
 5995TIP3    H217863   0.555   6.878   2.975
 5996TIP3   OH217864   2.121   7.232   3.055
 5996TIP3    H117865   2.187   7.167   3.032
 5996TIP3    H217866   2.144   7.309   3.004
 5997TIP3   OH217867   2.298   7.017   3.042
 5997TIP3    H117868   2.221   6.978   3.083
 5997TIP3    H217869   2.370   6.960   3.067
 5998TIP3   OH217870   1.762   6.238   1.604
 5998TIP3    H117871   1.830   6.212   1.665
 5998TIP3    H217872   1.682   6.199   1.638
 5999TIP3   OH217873   1.829   6.532   2.076
 5999TIP3    H117874   1.874   6.449   2.089
 5999TIP3    H217875   1.871   6.572   2.000
 6000TIP3   OH217876   1.983   6.700   2.600
 6000TIP3    H117877   2.063   6.718   2.550
 6000TIP3    H217878   1.998   6.739   2.686
 6001TIP3   OH217879   2.058   6.849   2.828
 6001TIP3    H117880   1.985   6.878   2.883
 6001TIP3    H217881   2.088   6.928   2.784
 6002TIP3   OH217882   0.698   6.579   3.595
 6002TIP3    H117883   0.791   6.575   3.617
 6002TIP3    H217884   0.663   6.493   3.619
 6003TIP3   OH217885   1.945   6.283   2.128
 6003TIP3    H117886   1.990   6.268   2.211
 6003TIP3    H217887   1.883   6.211   2.120
 6004TIP3   OH217888   0.654   6.276   2.958
 6004TIP3    H117889   0.706   6.196   2.952
 6004TIP3    H217890   0.716   6.346   2.936
 6005TIP3   OH217891   0.461   6.552   3.015
 6005TIP3    H117892   0.507   6.541   2.932
 6005TIP3    H217893   0.494   6.635   3.049
 6006TIP3   OH217894   2.361   6.561   3.177
 6006TIP3    H117895   2.273   6.593   3.157
 6006TIP3    H217896   2.371   6.483   3.121
 6007TIP3   OH217897   1.988   6.197   1.761
 6007TIP3    H117898   2.038   6.135   1.707
 6007TIP3    H217899   2.045   6.274   1.767
 6008TIP3   OH217900   0.447   6.048   2.524
 6008TIP3    H117901   0.359   6.028   2.558
 6008TIP3    H217902   0.431   6.099   2.445
 6009TIP3   OH217903   1.583   7.761   2.030
 6009TIP3    H117904   1.639   7.755   1.952
 6009TIP3    H217905   1.630   7.820   2.089
 6010TIP3   OH217906   0.631   6.080   3.328
 6010TIP3    H117907   0.595   6.096   3.416
 6010TIP3    H217908   0.582   6.139   3.271
 6011TIP3   OH217909   0.681   7.548   3.412
 6011TIP3    H117910   0.588   7.533   3.397
 6011TIP3    H217911   0.691   7.546   3.507
 6012TIP3   OH217912   0.888   7.596   2.962
 6012TIP3    H117913   0.832   7.665   2.926
 6012TIP3    H217914   0.973   7.609   2.921
 6013TIP3   OH217915   1.292   7.822   3.096
 6013TIP3    H117916   1.328   7.819   3.185
 6013TIP3    H217917   1.356   7.872   3.046
 6014TIP3   OH217918   1.483   7.972   2.968
 6014TIP3    H117919   1.545   7.917   2.920
 6014TIP3    H217920   1.539   8.024   3.026
 6015TIP3   OH217921   2.291   6.311   3.059
 6015TIP3    H117922   2.204   6.305   3.021
 6015TIP3    H217923   2.327   6.223   3.052
 6016TIP3   OH217924   0.531   7.837   3.002
 6016TIP3    H117925   0.448   7.877   2.975
 6016TIP3    H217926   0.564   7.894   3.071
 6017TIP3   OH217927   0.764   7.814   2.853
 6017TIP3    H117928   0.681   7.824   2.898
 6017TIP3    H217929   0.748   7.844   2.764
 6018TIP3   OH217930   1.196   7.848   2.655
 6018TIP3    H117931   1.122   7.857   2.595
 6018TIP3    H217932   1.203   7.934   2.697
 6019TIP3   OH217933   1.455   7.772   2.702
 6019TIP3    H117934   1.365   7.797   2.678
 6019TIP3    H217935   1.510   7.840   2.664
 6020TIP3   OH217936   1.650   7.951   2.611
 6020TIP3    H117937   1.653   8.036   2.567
 6020TIP3    H217938   1.689   7.890   2.547
 6021TIP3   OH217939   0.450   7.619   2.745
 6021TIP3    H117940   0.469   7.594   2.835
 6021TIP3    H217941   0.527   7.591   2.696
 6022TIP3   OH217942   0.671   7.519   2.623
 6022TIP3    H117943   0.682   7.430   2.657
 6022TIP3    H217944   0.760   7.554   2.621
 6023TIP3   OH217945   0.939   7.589   2.616
 6023TIP3    H117946   0.956   7.497   2.600
 6023TIP3    H217947   0.997   7.612   2.689
 6024TIP3   OH217948   1.491   6.236   2.698
 6024TIP3    H117949   1.449   6.165   2.746
 6024TIP3    H217950   1.558   6.192   2.645
 6025TIP3   OH217951   1.985   6.157   2.590
 6025TIP3    H117952   2.022   6.204   2.515
 6025TIP3    H217953   1.891   6.175   2.585
 6026TIP3   OH217954   2.100   6.230   2.351
 6026TIP3    H117955   2.169   6.168   2.325
 6026TIP3    H217956   2.140   6.317   2.338
 6027TIP3   OH217957   0.739   5.939   2.680
 6027TIP3    H117958   0.649   5.907   2.688
 6027TIP3    H217959   0.792   5.859   2.680
 6028TIP3   OH217960   0.540   5.846   2.346
 6028TIP3    H117961   0.572   5.894   2.270
 6028TIP3    H217962   0.518   5.913   2.410
 6029TIP3   OH217963   1.205   5.979   2.590
 6029TIP3    H117964   1.252   6.023   2.519
 6029TIP3    H217965   1.250   6.007   2.670
 6030TIP3   OH217966   1.700   6.108   2.569
 6030TIP3    H117967   1.722   6.071   2.483
 6030TIP3    H217968   1.709   6.034   2.629
 6031TIP3   OH217969   1.758   6.073   2.133
 6031TIP3    H117970   1.679   6.120   2.159
 6031TIP3    H217971   1.749   5.986   2.171
 6032TIP3   OH217972   0.656   5.976   2.118
 6032TIP3    H117973   0.702   5.914   2.061
 6032TIP3    H217974   0.725   6.032   2.153
 6033TIP3   OH217975   1.139   6.173   2.208
 6033TIP3    H117976   1.199   6.119   2.260
 6033TIP3    H217977   1.157   6.263   2.237
 6034TIP3   OH217978   1.043   7.579   1.717
 6034TIP3    H117979   1.128   7.578   1.673
 6034TIP3    H217980   0.988   7.519   1.666
 6035TIP3   OH217981   1.721   7.723   1.788
 6035TIP3    H117982   1.716   7.628   1.787
 6035TIP3    H217983   1.684   7.751   1.704
 6036TIP3   OH217984   0.956   6.218   3.570
 6036TIP3    H117985   0.921   6.151   3.630
 6036TIP3    H217986   1.048   6.227   3.595
 6037TIP3   OH217987   1.202   6.225   3.701
 6037TIP3    H117988   1.279   6.207   3.647
 6037TIP3    H217989   1.201   6.155   3.766
 6038TIP3   OH217990   2.055   6.249   3.477
 6038TIP3    H117991   2.052   6.256   3.572
 6038TIP3    H217992   2.094   6.162   3.461
 6039TIP3   OH217993   1.947   7.848   2.996
 6039TIP3    H117994   1.870   7.823   2.945
 6039TIP3    H217995   1.943   7.944   3.001
 6040TIP3   OH217996   3.219   7.239   1.734
 6040TIP3    H117997   3.190   7.325   1.706
 6040TIP3    H217998   3.149   7.179   1.708
 6041TIP3   OH217999   3.219   7.229   2.158
 6041TIP3    H118000   3.273   7.209   2.235
 6041TIP3    H218001   3.175   7.147   2.138
 6042TIP3   OH218002   2.516   7.089   2.502
 6042TIP3    H118003   2.555   7.037   2.572
 6042TIP3    H218004   2.590   7.114   2.446
 6043TIP3   OH218005   3.486   7.539   1.830
 6043TIP3    H118006   3.474   7.472   1.897
 6043TIP3    H218007   3.507   7.618   1.880
 6044TIP3   OH218008   2.514   7.509   2.174
 6044TIP3    H118009   2.494   7.416   2.187
 6044TIP3    H218010   2.610   7.513   2.171
 6045TIP3   OH218011   2.192   6.722   1.972
 6045TIP3    H118012   2.154   6.807   1.997
 6045TIP3    H218013   2.119   6.674   1.933
 6046TIP3   OH218014   2.273   7.035   2.194
 6046TIP3    H118015   2.323   6.958   2.219
 6046TIP3    H218016   2.339   7.101   2.172
 6047TIP3   OH218017   3.144   7.965   1.841
 6047TIP3    H118018   3.173   7.903   1.774
 6047TIP3    H218019   3.143   7.914   1.922
 6048TIP3   OH218020   3.028   7.449   2.159
 6048TIP3    H118021   3.073   7.369   2.134
 6048TIP3    H218022   3.097   7.507   2.189
 6049TIP3   OH218023   4.059   6.771   2.173
 6049TIP3    H118024   4.074   6.857   2.212
 6049TIP3    H218025   4.086   6.781   2.082
 6050TIP3   OH218026   3.432   6.938   2.196
 6050TIP3    H118027   3.465   6.852   2.223
 6050TIP3    H218028   3.395   6.923   2.109
 6051TIP3   OH218029   2.787   6.596   2.155
 6051TIP3    H118030   2.765   6.669   2.096
 6051TIP3    H218031   2.732   6.524   2.125
 6052TIP3   OH218032   3.482   6.699   1.791
 6052TIP3    H118033   3.546   6.693   1.863
 6052TIP3    H218034   3.533   6.732   1.717
 6053TIP3   OH218035   2.410   6.811   2.284
 6053TIP3    H118036   2.494   6.793   2.328
 6053TIP3    H218037   2.414   6.760   2.204
 6054TIP3   OH218038   2.830   7.011   2.102
 6054TIP3    H118039   2.924   6.996   2.108
 6054TIP3    H218040   2.794   6.929   2.068
 6055TIP3   OH218041   4.114   6.994   2.339
 6055TIP3    H118042   4.024   7.027   2.335
 6055TIP3    H218043   4.148   7.027   2.422
 6056TIP3   OH218044   2.767   6.602   2.607
 6056TIP3    H118045   2.717   6.636   2.532
 6056TIP3    H218046   2.711   6.619   2.683
 6057TIP3   OH218047   3.121   7.457   1.593
 6057TIP3    H118048   3.079   7.426   1.512
 6057TIP3    H218049   3.068   7.531   1.620
 6058TIP3   OH218050   2.859   7.376   2.368
 6058TIP3    H118051   2.805   7.447   2.403
 6058TIP3    H218052   2.908   7.416   2.296
 6059TIP3   OH218053   3.639   6.725   2.013
 6059TIP3    H118054   3.599   6.700   2.097
 6059TIP3    H218055   3.696   6.798   2.035
 6060TIP3   OH218056   2.657   6.707   2.376
 6060TIP3    H118057   2.713   6.782   2.398
 6060TIP3    H218058   2.704   6.664   2.304
 6061TIP3   OH218059   2.703   7.576   2.478
 6061TIP3    H118060   2.690   7.666   2.448
 6061TIP3    H218061   2.626   7.557   2.532
 6062TIP3   OH218062   2.085   7.284   1.736
 6062TIP3    H118063   2.050   7.303   1.649
 6062TIP3    H218064   2.109   7.369   1.773
 6063TIP3   OH218065   3.522   7.785   1.972
 6063TIP3    H118066   3.434   7.779   2.010
 6063TIP3    H218067   3.522   7.869   1.925
 6064TIP3   OH218068   3.853   6.673   2.342
 6064TIP3    H118069   3.769   6.689   2.300
 6064TIP3    H218070   3.918   6.696   2.276
 6065TIP3   OH218071   3.111   6.294   2.338
 6065TIP3    H118072   3.104   6.202   2.364
 6065TIP3    H218073   3.033   6.335   2.376
 6066TIP3   OH218074   3.234   7.820   1.621
 6066TIP3    H118075   3.286   7.740   1.611
 6066TIP3    H218076   3.293   7.890   1.595
 6067TIP3   OH218077   3.372   7.589   1.583
 6067TIP3    H118078   3.301   7.525   1.578
 6067TIP3    H218079   3.422   7.564   1.661
 6068TIP3   OH218080   3.761   7.668   2.316
 6068TIP3    H118081   3.740   7.595   2.258
 6068TIP3    H218082   3.746   7.746   2.262
 6069TIP3   OH218083   3.045   7.076   1.587
 6069TIP3    H118084   2.962   7.120   1.568
 6069TIP3    H218085   3.091   7.073   1.503
 6070TIP3   OH218086   3.013   6.883   1.271
 6070TIP3    H118087   3.078   6.932   1.323
 6070TIP3    H218088   3.064   6.815   1.227
 6071TIP3   OH218089   3.935   7.336   2.183
 6071TIP3    H118090   3.850   7.379   2.179
 6071TIP3    H218091   3.971   7.347   2.095
 6072TIP3   OH218092   3.404   7.164   1.546
 6072TIP3    H118093   3.350   7.193   1.620
 6072TIP3    H218094   3.487   7.139   1.585
 6073TIP3   OH218095   3.634   7.195   2.492
 6073TIP3    H118096   3.628   7.277   2.540
 6073TIP3    H218097   3.553   7.190   2.441
 6074TIP3   OH218098   2.633   7.144   1.948
 6074TIP3    H118099   2.596   7.083   1.884
 6074TIP3    H218100   2.706   7.096   1.988
 6075TIP3   OH218101   2.779   7.568   2.088
 6075TIP3    H118102   2.754   7.554   1.997
 6075TIP3    H218103   2.865   7.527   2.096
 6076TIP3   OH218104   2.728   7.139   2.325
 6076TIP3    H118105   2.767   7.102   2.246
 6076TIP3    H218106   2.776   7.221   2.340
 6077TIP3   OH218107   3.283   7.784   2.104
 6077TIP3    H118108   3.272   7.862   2.158
 6077TIP3    H218109   3.269   7.711   2.164
 6078TIP3   OH218110   2.901   7.675   2.646
 6078TIP3    H118111   2.841   7.734   2.692
 6078TIP3    H218112   2.845   7.624   2.588
 6079TIP3   OH218113   3.232   7.026   1.380
 6079TIP3    H118114   3.293   7.083   1.427
 6079TIP3    H218115   3.261   7.030   1.289
 6080TIP3   OH218116   2.655   7.217   2.800
 6080TIP3    H118117   2.659   7.312   2.815
 6080TIP3    H218118   2.562   7.199   2.789
 6081TIP3   OH218119   2.986   7.696   1.636
 6081TIP3    H118120   3.067   7.747   1.638
 6081TIP3    H218121   2.924   7.752   1.588
 6082TIP3   OH218122   2.695   7.836   2.735
 6082TIP3    H118123   2.667   7.844   2.643
 6082TIP3    H218124   2.614   7.816   2.782
 6083TIP3   OH218125   3.744   6.250   1.436
 6083TIP3    H118126   3.668   6.271   1.490
 6083TIP3    H218127   3.755   6.326   1.379
 6084TIP3   OH218128   2.506   6.985   1.750
 6084TIP3    H118129   2.428   7.033   1.720
 6084TIP3    H218130   2.474   6.897   1.767
 6085TIP3   OH218131   3.546   7.629   0.989
 6085TIP3    H118132   3.547   7.724   0.976
 6085TIP3    H218133   3.638   7.603   0.981
 6086TIP3   OH218134   2.291   7.390   2.684
 6086TIP3    H118135   2.222   7.376   2.619
 6086TIP3    H218136   2.324   7.302   2.703
 6087TIP3   OH218137   2.113   7.608   2.351
 6087TIP3    H118138   2.205   7.633   2.361
 6087TIP3    H218139   2.064   7.676   2.397
 6088TIP3   OH218140   3.989   8.040   2.384
 6088TIP3    H118141   3.996   7.945   2.394
 6088TIP3    H218142   3.910   8.064   2.431
 6089TIP3   OH218143   3.093   7.815   2.509
 6089TIP3    H118144   3.085   7.906   2.537
 6089TIP3    H218145   3.023   7.769   2.555
 6090TIP3   OH218146   2.872   7.915   1.466
 6090TIP3    H118147   2.825   7.895   1.384
 6090TIP3    H218148   2.835   7.998   1.495
 6091TIP3   OH218149   2.308   7.775   1.847
 6091TIP3    H118150   2.351   7.770   1.932
 6091TIP3    H218151   2.260   7.693   1.840
 6092TIP3   OH218152   3.073   7.858   1.094
 6092TIP3    H118153   3.122   7.783   1.058
 6092TIP3    H218154   3.108   7.869   1.182
 6093TIP3   OH218155   3.125   7.894   1.364
 6093TIP3    H118156   3.038   7.896   1.403
 6093TIP3    H218157   3.181   7.855   1.432
 6094TIP3   OH218158   3.875   7.149   2.651
 6094TIP3    H118159   3.795   7.157   2.599
 6094TIP3    H218160   3.895   7.055   2.652
 6095TIP3   OH218161   2.491   7.576   2.656
 6095TIP3    H118162   2.540   7.564   2.737
 6095TIP3    H218163   2.418   7.515   2.662
 6096TIP3   OH218164   2.871   6.384   2.463
 6096TIP3    H118165   2.787   6.350   2.431
 6096TIP3    H218166   2.847   6.465   2.509
 6097TIP3   OH218167   3.410   6.512   2.664
 6097TIP3    H118168   3.478   6.483   2.724
 6097TIP3    H218169   3.328   6.493   2.710
 6098TIP3   OH218170   3.638   6.930   2.585
 6098TIP3    H118171   3.597   6.928   2.671
 6098TIP3    H218172   3.620   7.018   2.552
 6099TIP3   OH218173   3.312   7.008   1.119
 6099TIP3    H118174   3.264   7.008   1.036
 6099TIP3    H218175   3.394   7.053   1.100
 6100TIP3   OH218176   3.021   6.428   1.432
 6100TIP3    H118177   2.985   6.435   1.521
 6100TIP3    H218178   2.986   6.346   1.398
 6101TIP3   OH218179   2.810   6.918   2.473
 6101TIP3    H118180   2.765   6.924   2.557
 6101TIP3    H218181   2.789   6.999   2.428
 6102TIP3   OH218182   2.690   6.796   1.994
 6102TIP3    H118183   2.601   6.772   2.019
 6102TIP3    H218184   2.700   6.764   1.904
 6103TIP3   OH218185   3.169   6.871   1.723
 6103TIP3    H118186   3.122   6.944   1.682
 6103TIP3    H218187   3.227   6.839   1.654
 6104TIP3   OH218188   3.351   7.139   2.794
 6104TIP3    H118189   3.326   7.070   2.855
 6104TIP3    H218190   3.444   7.156   2.813
 6105TIP3   OH218191   3.339   6.887   1.943
 6105TIP3    H118192   3.270   6.907   1.880
 6105TIP3    H218193   3.386   6.813   1.905
 6106TIP3   OH218194   2.650   6.934   2.696
 6106TIP3    H118195   2.657   6.999   2.766
 6106TIP3    H218196   2.631   6.852   2.742
 6107TIP3   OH218197   2.689   6.408   1.409
 6107TIP3    H118198   2.680   6.411   1.504
 6107TIP3    H218199   2.611   6.452   1.376
 6108TIP3   OH218200   2.236   6.451   2.275
 6108TIP3    H118201   2.308   6.487   2.326
 6108TIP3    H218202   2.274   6.431   2.190
 6109TIP3   OH218203   2.141   6.430   1.777
 6109TIP3    H118204   2.187   6.466   1.701
 6109TIP3    H218205   2.079   6.498   1.802
 6110TIP3   OH218206   3.384   7.139   2.370
 6110TIP3    H118207   3.408   7.072   2.306
 6110TIP3    H218208   3.339   7.091   2.439
 6111TIP3   OH218209   3.057   6.587   2.046
 6111TIP3    H118210   2.979   6.585   2.102
 6111TIP3    H218211   3.130   6.576   2.107
 6112TIP3   OH218212   2.451   6.671   2.053
 6112TIP3    H118213   2.363   6.675   2.015
 6112TIP3    H218214   2.480   6.580   2.037
 6113TIP3   OH218215   2.703   6.675   1.748
 6113TIP3    H118216   2.798   6.684   1.737
 6113TIP3    H218217   2.668   6.692   1.660
 6114TIP3   OH218218   3.502   6.676   2.255
 6114TIP3    H118219   3.481   6.693   2.347
 6114TIP3    H218220   3.436   6.612   2.227
 6115TIP3   OH218221   2.590   6.698   1.499
 6115TIP3    H118222   2.527   6.648   1.447
 6115TIP3    H218223   2.644   6.743   1.434
 6116TIP3   OH218224   3.703   8.376   2.473
 6116TIP3    H118225   3.700   8.388   2.378
 6116TIP3    H218226   3.781   8.424   2.501
 6117TIP3   OH218227   2.641   7.484   2.889
 6117TIP3    H118228   2.721   7.507   2.937
 6117TIP3    H218229   2.570   7.500   2.951
 6118TIP3   OH218230   3.104   6.960   2.150
 6118TIP3    H118231   3.168   6.909   2.101
 6118TIP3    H218232   3.101   6.918   2.236
 6119TIP3   OH218233   2.594   6.422   2.041
 6119TIP3    H118234   2.565   6.347   2.093
 6119TIP3    H218235   2.619   6.384   1.956
 6120TIP3   OH218236   3.076   6.861   2.413
 6120TIP3    H118237   2.988   6.892   2.438
 6120TIP3    H218238   3.135   6.913   2.467
 6121TIP3   OH218239   2.808   7.211   1.530
 6121TIP3    H118240   2.734   7.156   1.505
 6121TIP3    H218241   2.781   7.253   1.611
 6122TIP3   OH218242   3.699   7.470   2.135
 6122TIP3    H118243   3.735   7.518   2.061
 6122TIP3    H218244   3.620   7.428   2.101
 6123TIP3   OH218245   3.274   6.530   1.436
 6123TIP3    H118246   3.181   6.509   1.432
 6123TIP3    H218247   3.276   6.625   1.449
 6124TIP3   OH218248   3.221   7.554   2.543
 6124TIP3    H118249   3.267   7.545   2.626
 6124TIP3    H218250   3.177   7.639   2.549
 6125TIP3   OH218251   3.332   6.795   1.506
 6125TIP3    H118252   3.428   6.798   1.515
 6125TIP3    H218253   3.311   6.872   1.454
 6126TIP3   OH218254   2.496   7.218   2.177
 6126TIP3    H118255   2.535   7.203   2.091
 6126TIP3    H218256   2.564   7.191   2.239
 6127TIP3   OH218257   2.961   7.373   1.374
 6127TIP3    H118258   2.914   7.457   1.372
 6127TIP3    H218259   2.906   7.315   1.426
 6128TIP3   OH218260   2.382   7.151   2.811
 6128TIP3    H118261   2.380   7.123   2.902
 6128TIP3    H218262   2.305   7.110   2.771
 6129TIP3   OH218263   3.123   7.296   2.836
 6129TIP3    H118264   3.053   7.237   2.809
 6129TIP3    H218265   3.203   7.254   2.805
 6130TIP3   OH218266   3.364   7.845   2.434
 6130TIP3    H118267   3.270   7.827   2.438
 6130TIP3    H218268   3.386   7.878   2.521
 6131TIP3   OH218269   3.748   6.880   1.325
 6131TIP3    H118270   3.691   6.835   1.263
 6131TIP3    H218271   3.752   6.970   1.292
 6132TIP3   OH218272   4.005   7.765   2.402
 6132TIP3    H118273   3.912   7.742   2.401
 6132TIP3    H218274   4.039   7.730   2.319
 6133TIP3   OH218275   3.486   7.698   1.262
 6133TIP3    H118276   3.458   7.630   1.324
 6133TIP3    H218277   3.494   7.652   1.178
 6134TIP3   OH218278   3.471   7.334   2.032
 6134TIP3    H118279   3.381   7.311   2.055
 6134TIP3    H218280   3.507   7.253   1.994
 6135TIP3   OH218281   2.626   7.571   1.851
 6135TIP3    H118282   2.618   7.646   1.791
 6135TIP3    H218283   2.542   7.568   1.896
 6136TIP3   OH218284   2.182   6.856   1.558
 6136TIP3    H118285   2.226   6.938   1.580
 6136TIP3    H218286   2.103   6.856   1.611
 6137TIP3   OH218287   2.707   7.328   1.751
 6137TIP3    H118288   2.689   7.416   1.782
 6137TIP3    H218289   2.682   7.271   1.824
 6138TIP3   OH218290   2.909   7.897   2.302
 6138TIP3    H118291   2.946   7.970   2.252
 6138TIP3    H218292   2.984   7.862   2.351
 6139TIP3   OH218293   2.539   7.792   1.698
 6139TIP3    H118294   2.453   7.796   1.739
 6139TIP3    H218295   2.574   7.881   1.703
 6140TIP3   OH218296   3.261   7.558   2.270
 6140TIP3    H118297   3.249   7.553   2.365
 6140TIP3    H218298   3.332   7.497   2.251
 6141TIP3   OH218299   3.250   7.433   1.145
 6141TIP3    H118300   3.300   7.408   1.223
 6141TIP3    H218301   3.166   7.388   1.154
 6142TIP3   OH218302   3.522   8.050   2.314
 6142TIP3    H118303   3.451   7.989   2.334
 6142TIP3    H218304   3.486   8.105   2.244
 6143TIP3   OH218305   3.564   7.902   0.969
 6143TIP3    H118306   3.608   7.983   0.942
 6143TIP3    H218307   3.479   7.931   1.002
 6144TIP3   OH218308   2.592   6.678   2.813
 6144TIP3    H118309   2.497   6.688   2.814
 6144TIP3    H218310   2.610   6.609   2.876
 6145TIP3   OH218311   3.422   7.353   1.342
 6145TIP3    H118312   3.406   7.297   1.418
 6145TIP3    H218313   3.518   7.361   1.338
 6146TIP3   OH218314   2.330   7.759   2.459
 6146TIP3    H118315   2.381   7.717   2.528
 6146TIP3    H218316   2.251   7.789   2.504
 6147TIP3   OH218317   2.614   7.399   1.166
 6147TIP3    H118318   2.625   7.307   1.140
 6147TIP3    H218319   2.594   7.394   1.260
 6148TIP3   OH218320   2.542   7.417   1.434
 6148TIP3    H118321   2.604   7.391   1.503
 6148TIP3    H218322   2.542   7.513   1.437
 6149TIP3   OH218323   2.279   7.106   1.640
 6149TIP3    H118324   2.216   7.154   1.693
 6149TIP3    H218325   2.298   7.164   1.566
 6150TIP3   OH218326   3.442   6.742   2.517
 6150TIP3    H118327   3.523   6.783   2.548
 6150TIP3    H218328   3.433   6.663   2.571
 6151TIP3   OH218329   3.334   6.480   1.704
 6151TIP3    H118330   3.314   6.498   1.612
 6151TIP3    H218331   3.378   6.560   1.735
 6152TIP3   OH218332   2.818   7.603   1.371
 6152TIP3    H118333   2.732   7.627   1.407
 6152TIP3    H218334   2.841   7.677   1.313
 6153TIP3   OH218335   2.983   6.681   1.794
 6153TIP3    H118336   3.046   6.748   1.768
 6153TIP3    H218337   3.007   6.660   1.885
 6154TIP3   OH218338   3.282   6.974   2.565
 6154TIP3    H118339   3.306   7.014   2.648
 6154TIP3    H218340   3.331   6.892   2.562
 6155TIP3   OH218341   3.147   6.376   1.880
 6155TIP3    H118342   3.125   6.454   1.932
 6155TIP3    H218343   3.217   6.406   1.822
 6156TIP3   OH218344   2.567   7.691   1.444
 6156TIP3    H118345   2.547   7.763   1.385
 6156TIP3    H218346   2.555   7.727   1.532
 6157TIP3   OH218347   2.660   6.401   1.688
 6157TIP3    H118348   2.648   6.492   1.717
 6157TIP3    H218349   2.754   6.386   1.694
 6158TIP3   OH218350   3.900   6.867   2.559
 6158TIP3    H118351   3.807   6.881   2.573
 6158TIP3    H218352   3.905   6.806   2.485
 6159TIP3   OH218353   3.563   7.076   1.944
 6159TIP3    H118354   3.487   7.019   1.954
 6159TIP3    H218355   3.630   7.036   1.999
 6160TIP3   OH218356   2.296   7.284   1.422
 6160TIP3    H118357   2.366   7.349   1.432
 6160TIP3    H218358   2.330   7.222   1.358
 6161TIP3   OH218359   2.211   6.578   1.558
 6161TIP3    H118360   2.222   6.673   1.566
 6161TIP3    H218361   2.165   6.566   1.475
 6162TIP3   OH218362   3.544   8.053   1.891
 6162TIP3    H118363   3.501   8.105   1.823
 6162TIP3    H218364   3.638   8.063   1.873
 6163TIP3   OH218365   2.607   6.299   2.425
 6163TIP3    H118366   2.578   6.267   2.339
 6163TIP3    H218367   2.597   6.225   2.484
 6164TIP3   OH218368   2.133   7.551   1.826
 6164TIP3    H118369   2.091   7.589   1.904
 6164TIP3    H218370   2.090   7.593   1.752
 6165TIP3   OH218371   2.322   8.068   2.884
 6165TIP3    H118372   2.408   8.063   2.925
 6165TIP3    H218373   2.294   7.977   2.875
 6166TIP3   OH218374   2.805   7.993   2.931
 6166TIP3    H118375   2.896   7.963   2.936
 6166TIP3    H218376   2.767   7.944   2.858
 6167TIP3   OH218377   2.764   7.600   1.053
 6167TIP3    H118378   2.717   7.530   1.099
 6167TIP3    H218379   2.838   7.556   1.011
 6168TIP3   OH218380   3.420   7.936   2.688
 6168TIP3    H118381   3.436   7.866   2.751
 6168TIP3    H218382   3.494   7.996   2.699
 6169TIP3   OH218383   3.198   7.645   0.980
 6169TIP3    H118384   3.234   7.579   1.039
 6169TIP3    H218385   3.254   7.640   0.902
 6170TIP3   OH218386   2.428   7.488   3.073
 6170TIP3    H118387   2.450   7.395   3.084
 6170TIP3    H218388   2.340   7.487   3.035
 6171TIP3   OH218389   2.428   7.095   1.275
 6171TIP3    H118390   2.478   7.071   1.354
 6171TIP3    H218391   2.495   7.109   1.208
 6172TIP3   OH218392   3.055   7.571   2.850
 6172TIP3    H118393   3.009   7.592   2.769
 6172TIP3    H218394   3.090   7.483   2.837
 6173TIP3   OH218395   2.999   7.312   1.109
 6173TIP3    H118396   2.974   7.323   1.201
 6173TIP3    H218397   2.979   7.221   1.090
 6174TIP3   OH218398   3.537   7.621   2.475
 6174TIP3    H118399   3.614   7.646   2.423
 6174TIP3    H218400   3.471   7.687   2.454
 6175TIP3   OH218401   2.550   7.237   3.085
 6175TIP3    H118402   2.622   7.222   3.023
 6175TIP3    H218403   2.594   7.255   3.168
 6176TIP3   OH218404   2.601   7.033   1.485
 6176TIP3    H118405   2.580   7.002   1.573
 6176TIP3    H218406   2.648   6.961   1.443
 6177TIP3   OH218407   2.918   7.122   2.745
 6177TIP3    H118408   2.830   7.159   2.754
 6177TIP3    H218409   2.946   7.149   2.657
 6178TIP3   OH218410   2.740   6.850   1.326
 6178TIP3    H118411   2.710   6.852   1.235
 6178TIP3    H218412   2.835   6.858   1.320
 6179TIP3   OH218413   3.419   7.493   2.822
 6179TIP3    H118414   3.485   7.454   2.765
 6179TIP3    H218415   3.415   7.435   2.898
 6180TIP3   OH218416   3.532   7.139   1.003
 6180TIP3    H118417   3.509   7.095   0.922
 6180TIP3    H218418   3.495   7.227   0.994
 6181TIP3   OH218419   3.017   6.887   2.848
 6181TIP3    H118420   3.019   6.817   2.783
 6181TIP3    H218421   2.984   6.963   2.800
 6182TIP3   OH218422   3.025   6.690   2.644
 6182TIP3    H118423   3.053   6.724   2.559
 6182TIP3    H218424   2.935   6.661   2.629
 6183TIP3   OH218425   3.027   7.214   2.514
 6183TIP3    H118426   3.116   7.244   2.497
 6183TIP3    H218427   2.971   7.274   2.463
 6184TIP3   OH218428   3.621   7.170   2.888
 6184TIP3    H118429   3.640   7.076   2.888
 6184TIP3    H218430   3.705   7.211   2.865
 6185TIP3   OH218431   3.652   7.438   2.640
 6185TIP3    H118432   3.601   7.502   2.589
 6185TIP3    H218433   3.742   7.449   2.609
 6186TIP3   OH218434   2.901   6.965   3.092
 6186TIP3    H118435   2.832   6.902   3.111
 6186TIP3    H218436   2.930   6.945   3.003
 6187TIP3   OH218437   3.148   6.458   2.745
 6187TIP3    H118438   3.105   6.537   2.712
 6187TIP3    H218439   3.083   6.389   2.732
 6188TIP3   OH218440   3.274   6.925   2.949
 6188TIP3    H118441   3.263   6.912   3.043
 6188TIP3    H218442   3.188   6.904   2.911
 6189TIP3   OH218443   3.527   6.897   2.829
 6189TIP3    H118444   3.446   6.886   2.878
 6189TIP3    H218445   3.595   6.856   2.883
 6190TIP3   OH218446   3.757   6.837   2.971
 6190TIP3    H118447   3.771   6.742   2.978
 6190TIP3    H218448   3.753   6.867   3.062
 6191TIP3   OH218449   2.732   6.746   3.160
 6191TIP3    H118450   2.737   6.659   3.120
 6191TIP3    H218451   2.774   6.736   3.245
 6192TIP3   OH218452   3.212   6.437   3.011
 6192TIP3    H118453   3.279   6.368   3.007
 6192TIP3    H218454   3.184   6.447   2.920
 6193TIP3   OH218455   3.311   6.648   3.157
 6193TIP3    H118456   3.282   6.576   3.102
 6193TIP3    H218457   3.238   6.710   3.156
 6194TIP3   OH218458   2.566   7.906   1.267
 6194TIP3    H118459   2.654   7.883   1.237
 6194TIP3    H218460   2.526   7.949   1.191
 6195TIP3   OH218461   2.022   7.275   1.449
 6195TIP3    H118462   2.117   7.286   1.444
 6195TIP3    H218463   2.005   7.191   1.406
 6196TIP3   OH218464   1.931   7.868   1.899
 6196TIP3    H118465   1.867   7.815   1.851
 6196TIP3    H218466   1.973   7.806   1.959
 6197TIP3   OH218467   2.070   7.698   2.071
 6197TIP3    H118468   2.058   7.639   2.145
 6197TIP3    H218469   2.125   7.769   2.106
 6198TIP3   OH218470   3.817   8.097   1.876
 6198TIP3    H118471   3.842   8.125   1.963
 6198TIP3    H218472   3.875   8.144   1.817
 6199TIP3   OH218473   3.842   8.124   2.157
 6199TIP3    H118474   3.794   8.042   2.150
 6199TIP3    H218475   3.910   8.106   2.222
 6200TIP3   OH218476   3.890   7.833   2.732
 6200TIP3    H118477   3.821   7.843   2.797
 6200TIP3    H218478   3.935   7.918   2.732
 6201TIP3   OH218479   3.700   7.345   1.345
 6201TIP3    H118480   3.755   7.419   1.320
 6201TIP3    H218481   3.745   7.306   1.419
 6202TIP3   OH218482   3.835   7.204   1.541
 6202TIP3    H118483   3.768   7.165   1.597
 6202TIP3    H218484   3.900   7.239   1.602
 6203TIP3   OH218485   3.884   7.606   1.975
 6203TIP3    H118486   3.936   7.536   1.935
 6203TIP3    H218487   3.887   7.677   1.911
 6204TIP3   OH218488   3.694   7.889   2.165
 6204TIP3    H118489   3.627   7.937   2.215
 6204TIP3    H218490   3.645   7.850   2.093
 6205TIP3   OH218491   3.732   7.120   1.192
 6205TIP3    H118492   3.658   7.118   1.131
 6205TIP3    H218493   3.717   7.199   1.245
 6206TIP3   OH218494   3.588   6.773   1.131
 6206TIP3    H118495   3.543   6.807   1.053
 6206TIP3    H218496   3.584   6.678   1.122
 6207TIP3   OH218497   3.632   7.065   1.675
 6207TIP3    H118498   3.635   6.970   1.660
 6207TIP3    H218499   3.613   7.074   1.768
 6208TIP3   OH218500   2.251   7.123   2.452
 6208TIP3    H118501   2.242   7.096   2.361
 6208TIP3    H218502   2.346   7.122   2.468
 6209TIP3   OH218503   3.907   7.479   2.537
 6209TIP3    H118504   3.976   7.414   2.521
 6209TIP3    H218505   3.906   7.533   2.458
 6210TIP3   OH218506   4.090   7.271   2.531
 6210TIP3    H118507   4.015   7.229   2.574
 6210TIP3    H218508   4.164   7.215   2.552
 6211TIP3   OH218509   3.556   6.503   1.098
 6211TIP3    H118510   3.623   6.473   1.159
 6211TIP3    H218511   3.476   6.461   1.128
 6212TIP3   OH218512   3.625   6.789   1.563
 6212TIP3    H118513   3.670   6.705   1.576
 6212TIP3    H218514   3.667   6.827   1.486
 6213TIP3   OH218515   3.779   6.956   2.085
 6213TIP3    H118516   3.859   6.973   2.037
 6213TIP3    H218517   3.794   6.995   2.171
 6214TIP3   OH218518   3.853   7.106   2.313
 6214TIP3    H118519   3.779   7.134   2.367
 6214TIP3    H218520   3.883   7.185   2.270
 6215TIP3   OH218521   2.467   6.805   3.097
 6215TIP3    H118522   2.562   6.799   3.110
 6215TIP3    H218523   2.433   6.723   3.132
 6216TIP3   OH218524   4.312   6.705   2.848
 6216TIP3    H118525   4.377   6.649   2.808
 6216TIP3    H218526   4.272   6.753   2.775
 6217TIP3   OH218527   3.740   6.540   1.615
 6217TIP3    H118528   3.785   6.524   1.698
 6217TIP3    H218529   3.678   6.467   1.607
 6218TIP3   OH218530   2.446   6.524   2.445
 6218TIP3    H118531   2.499   6.445   2.449
 6218TIP3    H218532   2.508   6.594   2.425
 6219TIP3   OH218533   2.224   6.794   2.499
 6219TIP3    H118534   2.278   6.779   2.421
 6219TIP3    H218535   2.243   6.884   2.523
 6220TIP3   OH218536   4.160   6.810   2.644
 6220TIP3    H118537   4.072   6.848   2.651
 6220TIP3    H218538   4.147   6.729   2.595
 6221TIP3   OH218539   3.783   6.451   1.252
 6221TIP3    H118540   3.831   6.390   1.196
 6221TIP3    H218541   3.839   6.529   1.257
 6222TIP3   OH218542   2.215   6.301   2.007
 6222TIP3    H118543   2.129   6.287   2.047
 6222TIP3    H218544   2.197   6.354   1.929
 6223TIP3   OH218545   3.380   8.022   1.520
 6223TIP3    H118546   3.430   8.006   1.440
 6223TIP3    H218547   3.426   8.095   1.562
 6224TIP3   OH218548   2.452   6.390   2.842
 6224TIP3    H118549   2.396   6.361   2.914
 6224TIP3    H218550   2.391   6.421   2.775
 6225TIP3   OH218551   2.482   7.796   2.911
 6225TIP3    H118552   2.388   7.779   2.906
 6225TIP3    H218553   2.501   7.801   3.005
 6226TIP3   OH218554   2.683   7.851   2.453
 6226TIP3    H118555   2.624   7.919   2.420
 6226TIP3    H218556   2.766   7.866   2.407
 6227TIP3   OH218557   3.081   8.080   2.587
 6227TIP3    H118558   3.120   8.076   2.675
 6227TIP3    H218559   3.140   8.137   2.537
 6228TIP3   OH218560   3.265   8.240   2.456
 6228TIP3    H118561   3.319   8.186   2.398
 6228TIP3    H218562   3.328   8.289   2.509
 6229TIP3   OH218563   4.078   6.556   2.550
 6229TIP3    H118564   3.988   6.539   2.521
 6229TIP3    H218565   4.122   6.471   2.544
 6230TIP3   OH218566   2.332   8.086   2.457
 6230TIP3    H118567   2.256   8.144   2.463
 6230TIP3    H218568   2.299   8.001   2.484
 6231TIP3   OH218569   2.576   8.077   2.337
 6231TIP3    H118570   2.492   8.086   2.383
 6231TIP3    H218571   2.555   8.094   2.245
 6232TIP3   OH218572   2.990   8.104   2.136
 6232TIP3    H118573   2.918   8.110   2.073
 6232TIP3    H218574   2.995   8.191   2.175
 6233TIP3   OH218575   3.255   8.051   2.193
 6233TIP3    H118576   3.163   8.064   2.170
 6233TIP3    H218577   3.302   8.112   2.137
 6234TIP3   OH218578   3.464   8.222   2.092
 6234TIP3    H118579   3.454   8.307   2.048
 6234TIP3    H218580   3.490   8.162   2.023
 6235TIP3   OH218581   2.244   7.880   2.195
 6235TIP3    H118582   2.243   7.870   2.290
 6235TIP3    H218583   2.325   7.837   2.167
 6236TIP3   OH218584   2.459   7.757   2.078
 6236TIP3    H118585   2.470   7.672   2.120
 6236TIP3    H218586   2.546   7.798   2.084
 6237TIP3   OH218587   2.728   7.844   2.096
 6237TIP3    H118588   2.748   7.751   2.082
 6237TIP3    H218589   2.779   7.867   2.174
 6238TIP3   OH218590   3.284   6.492   2.185
 6238TIP3    H118591   3.243   6.421   2.235
 6238TIP3    H218592   3.352   6.448   2.134
 6239TIP3   OH218593   3.786   6.416   2.078
 6239TIP3    H118594   3.820   6.463   2.002
 6239TIP3    H218595   3.691   6.430   2.074
 6240TIP3   OH218596   3.898   6.488   1.837
 6240TIP3    H118597   3.966   6.427   1.810
 6240TIP3    H218598   3.936   6.575   1.823
 6241TIP3   OH218599   2.518   6.195   2.184
 6241TIP3    H118600   2.430   6.161   2.194
 6241TIP3    H218601   2.574   6.118   2.177
 6242TIP3   OH218602   2.330   6.104   1.834
 6242TIP3    H118603   2.362   6.153   1.758
 6242TIP3    H218604   2.300   6.171   1.895
 6243TIP3   OH218605   3.000   6.235   2.078
 6243TIP3    H118606   3.050   6.280   2.010
 6243TIP3    H218607   3.043   6.261   2.160
 6244TIP3   OH218608   3.500   6.372   2.057
 6244TIP3    H118609   3.515   6.335   1.970
 6244TIP3    H218610   3.506   6.297   2.116
 6245TIP3   OH218611   3.555   6.329   1.621
 6245TIP3    H118612   3.475   6.375   1.646
 6245TIP3    H218613   3.545   6.242   1.659
 6246TIP3   OH218614   2.018   7.666   1.606
 6246TIP3    H118615   1.935   7.632   1.571
 6246TIP3    H218616   2.022   7.756   1.575
 6247TIP3   OH218617   2.451   6.232   1.601
 6247TIP3    H118618   2.497   6.169   1.545
 6247TIP3    H218619   2.520   6.288   1.636
 6248TIP3   OH218620   2.935   6.429   1.696
 6248TIP3    H118621   2.993   6.375   1.749
 6248TIP3    H218622   2.951   6.519   1.726
 6249TIP3   OH218623   2.819   7.826   1.195
 6249TIP3    H118624   2.902   7.854   1.157
 6249TIP3    H218625   2.790   7.754   1.139
 6250TIP3   OH218626   3.521   7.967   1.287
 6250TIP3    H118627   3.514   7.872   1.281
 6250TIP3    H218628   3.475   7.999   1.209
 6251TIP3   OH218629   2.746   6.474   3.080
 6251TIP3    H118630   2.710   6.411   3.143
 6251TIP3    H218631   2.839   6.480   3.102
 6252TIP3   OH218632   3.000   6.483   3.189
 6252TIP3    H118633   3.075   6.466   3.131
 6252TIP3    H218634   3.001   6.410   3.250
 6253TIP3   OH218635   2.127   7.645   1.267
 6253TIP3    H118636   2.133   7.659   1.362
 6253TIP3    H218637   2.213   7.609   1.243
 6254TIP3   OH218638   3.820   6.567   2.973
 6254TIP3    H118639   3.837   6.537   3.062
 6254TIP3    H218640   3.905   6.563   2.930
 6255TIP3   OH218641   3.739   8.102   2.482
 6255TIP3    H118642   3.666   8.073   2.427
 6255TIP3    H218643   3.727   8.197   2.488
 6256TIP3   OH218644   5.012   7.476   1.270
 6256TIP3    H118645   4.986   7.567   1.276
 6256TIP3    H218646   4.936   7.431   1.232
 6257TIP3   OH218647   5.010   7.484   1.648
 6257TIP3    H118648   5.060   7.467   1.727
 6257TIP3    H218649   4.967   7.400   1.628
 6258TIP3   OH218650   4.311   7.344   1.989
 6258TIP3    H118651   4.350   7.292   2.059
 6258TIP3    H218652   4.385   7.369   1.934
 6259TIP3   OH218653   5.328   7.770   1.355
 6259TIP3    H118654   5.296   7.706   1.418
 6259TIP3    H218655   5.338   7.851   1.406
 6260TIP3   OH218656   4.303   7.778   1.681
 6260TIP3    H118657   4.284   7.684   1.685
 6260TIP3    H218658   4.397   7.783   1.666
 6261TIP3   OH218659   3.988   6.982   1.456
 6261TIP3    H118660   3.946   7.064   1.481
 6261TIP3    H218661   3.917   6.929   1.419
 6262TIP3   OH218662   4.064   7.287   1.683
 6262TIP3    H118663   4.114   7.210   1.708
 6262TIP3    H218664   4.129   7.350   1.653
 6263TIP3   OH218665   4.943   8.240   1.340
 6263TIP3    H118666   4.952   8.154   1.299
 6263TIP3    H218667   4.935   8.222   1.434
 6264TIP3   OH218668   4.820   7.706   1.644
 6264TIP3    H118669   4.864   7.624   1.620
 6264TIP3    H218670   4.890   7.762   1.677
 6265TIP3   OH218671   5.853   7.025   1.675
 6265TIP3    H118672   5.861   7.113   1.711
 6265TIP3    H218673   5.890   7.032   1.587
 6266TIP3   OH218674   5.235   7.195   1.702
 6266TIP3    H118675   5.267   7.108   1.728
 6266TIP3    H218676   5.197   7.181   1.615
 6267TIP3   OH218677   4.581   6.846   1.645
 6267TIP3    H118678   4.560   6.920   1.589
 6267TIP3    H218679   4.526   6.775   1.611
 6268TIP3   OH218680   5.296   6.961   1.301
 6268TIP3    H118681   5.349   6.941   1.378
 6268TIP3    H218682   5.358   7.001   1.240
 6269TIP3   OH218683   4.207   7.067   1.772
 6269TIP3    H118684   4.290   7.048   1.815
 6269TIP3    H218685   4.209   7.016   1.691
 6270TIP3   OH218686   4.630   7.271   1.595
 6270TIP3    H118687   4.724   7.255   1.599
 6270TIP3    H218688   4.593   7.188   1.563
 6271TIP3   OH218689   5.906   7.246   1.842
 6271TIP3    H118690   5.817   7.280   1.835
 6271TIP3    H218691   5.942   7.288   1.920
 6272TIP3   OH218692   4.563   6.858   2.094
 6272TIP3    H118693   4.513   6.892   2.020
 6272TIP3    H218694   4.507   6.874   2.170
 6273TIP3   OH218695   4.909   7.725   1.223
 6273TIP3    H118696   4.850   7.681   1.163
 6273TIP3    H218697   4.855   7.791   1.267
 6274TIP3   OH218698   4.656   7.634   1.857
 6274TIP3    H118699   4.603   7.706   1.891
 6274TIP3    H218700   4.703   7.672   1.783
 6275TIP3   OH218701   5.451   6.953   1.523
 6275TIP3    H118702   5.400   6.936   1.602
 6275TIP3    H218703   5.498   7.034   1.543
 6276TIP3   OH218704   4.453   6.963   1.863
 6276TIP3    H118705   4.510   7.037   1.884
 6276TIP3    H218706   4.499   6.918   1.792
 6277TIP3   OH218707   4.501   7.836   1.965
 6277TIP3    H118708   4.487   7.926   1.935
 6277TIP3    H218709   4.423   7.816   2.016
 6278TIP3   OH218710   3.869   7.537   1.243
 6278TIP3    H118711   3.837   7.556   1.155
 6278TIP3    H218712   3.899   7.622   1.277
 6279TIP3   OH218713   5.320   8.015   1.488
 6279TIP3    H118714   5.232   8.015   1.527
 6279TIP3    H218715   5.308   8.056   1.402
 6280TIP3   OH218716   5.653   6.920   1.839
 6280TIP3    H118717   5.569   6.934   1.797
 6280TIP3    H218718   5.718   6.948   1.774
 6281TIP3   OH218719   4.907   6.551   1.833
 6281TIP3    H118720   4.899   6.459   1.857
 6281TIP3    H218721   4.829   6.593   1.870
 6282TIP3   OH218722   4.976   8.024   1.169
 6282TIP3    H118723   5.035   7.949   1.174
 6282TIP3    H218724   5.023   8.088   1.116
 6283TIP3   OH218725   5.185   7.840   1.136
 6283TIP3    H118726   5.182   7.770   1.071
 6283TIP3    H218727   5.228   7.801   1.212
 6284TIP3   OH218728   5.554   7.922   1.810
 6284TIP3    H118729   5.533   7.846   1.756
 6284TIP3    H218730   5.539   7.997   1.753
 6285TIP3   OH218731   4.844   7.333   1.092
 6285TIP3    H118732   4.750   7.348   1.088
 6285TIP3    H218733   4.872   7.332   1.001
 6286TIP3   OH218734   4.812   7.059   0.975
 6286TIP3    H118735   4.868   7.133   0.994
 6286TIP3    H218736   4.840   7.030   0.888
 6287TIP3   OH218737   5.730   7.575   1.668
 6287TIP3    H118738   5.646   7.619   1.677
 6287TIP3    H218739   5.760   7.598   1.580
 6288TIP3   OH218740   5.188   7.412   1.078
 6288TIP3    H118741   5.127   7.437   1.147
 6288TIP3    H218742   5.261   7.371   1.124
 6289TIP3   OH218743   5.424   7.452   1.984
 6289TIP3    H118744   5.421   7.535   2.031
 6289TIP3    H218745   5.342   7.450   1.935
 6290TIP3   OH218746   4.424   7.396   1.449
 6290TIP3    H118747   4.381   7.329   1.396
 6290TIP3    H218748   4.499   7.350   1.488
 6291TIP3   OH218749   4.563   7.822   1.575
 6291TIP3    H118750   4.537   7.810   1.484
 6291TIP3    H218751   4.651   7.785   1.581
 6292TIP3   OH218752   4.524   7.397   1.816
 6292TIP3    H118753   4.563   7.360   1.737
 6292TIP3    H218754   4.572   7.479   1.831
 6293TIP3   OH218755   5.072   8.025   1.594
 6293TIP3    H118756   5.057   8.105   1.644
 6293TIP3    H218757   5.056   7.955   1.657
 6294TIP3   OH218758   4.698   7.933   2.135
 6294TIP3    H118759   4.637   7.990   2.181
 6294TIP3    H218760   4.643   7.881   2.076
 6295TIP3   OH218761   5.056   7.215   0.938
 6295TIP3    H118762   5.102   7.283   0.988
 6295TIP3    H218763   5.091   7.223   0.849
 6296TIP3   OH218764   4.452   7.477   2.284
 6296TIP3    H118765   4.456   7.572   2.298
 6296TIP3    H218766   4.359   7.458   2.275
 6297TIP3   OH218767   4.727   7.934   1.243
 6297TIP3    H118768   4.807   7.981   1.219
 6297TIP3    H218769   4.672   7.938   1.166
 6298TIP3   OH218770   4.489   8.093   2.219
 6298TIP3    H118771   4.466   8.103   2.127
 6298TIP3    H218772   4.406   8.079   2.264
 6299TIP3   OH218773   5.499   6.496   0.966
 6299TIP3    H118774   5.428   6.520   1.026
 6299TIP3    H218775   5.540   6.580   0.944
 6300TIP3   OH218776   4.278   7.216   1.289
 6300TIP3    H118777   4.197   7.259   1.261
 6300TIP3    H218778   4.254   7.123   1.298
 6301TIP3   OH218779   4.085   7.648   2.169
 6301TIP3    H118780   4.016   7.630   2.106
 6301TIP3    H218781   4.119   7.561   2.193
 6302TIP3   OH218782   3.937   7.834   1.815
 6302TIP3    H118783   4.032   7.849   1.819
 6302TIP3    H218784   3.899   7.913   1.853
 6303TIP3   OH218785   5.781   8.287   1.885
 6303TIP3    H118786   5.786   8.192   1.893
 6303TIP3    H218787   5.701   8.311   1.931
 6304TIP3   OH218788   4.887   8.077   1.998
 6304TIP3    H118789   4.878   8.168   2.027
 6304TIP3    H218790   4.819   8.030   2.046
 6305TIP3   OH218791   4.561   8.220   1.044
 6305TIP3    H118792   4.576   8.125   1.035
 6305TIP3    H218793   4.649   8.258   1.046
 6306TIP3   OH218794   4.090   8.031   1.342
 6306TIP3    H118795   4.138   8.023   1.425
 6306TIP3    H218796   4.042   7.948   1.335
 6307TIP3   OH218797   4.885   8.140   0.563
 6307TIP3    H118798   4.897   8.046   0.556
 6307TIP3    H218799   4.840   8.153   0.647
 6308TIP3   OH218800   4.904   8.055   0.879
 6308TIP3    H118801   4.867   8.118   0.941
 6308TIP3    H218802   4.972   8.103   0.833
 6309TIP3   OH218803   5.669   7.405   2.145
 6309TIP3    H118804   5.589   7.413   2.093
 6309TIP3    H218805   5.690   7.311   2.143
 6310TIP3   OH218806   4.284   7.836   2.136
 6310TIP3    H118807   4.335   7.823   2.216
 6310TIP3    H218808   4.212   7.773   2.142
 6311TIP3   OH218809   4.668   6.642   1.952
 6311TIP3    H118810   4.585   6.607   1.918
 6311TIP3    H218811   4.644   6.722   1.998
 6312TIP3   OH218812   5.209   6.764   2.152
 6312TIP3    H118813   5.278   6.738   2.214
 6312TIP3    H218814   5.127   6.747   2.199
 6313TIP3   OH218815   5.432   7.186   2.071
 6313TIP3    H118816   5.392   7.183   2.158
 6313TIP3    H218817   5.414   7.275   2.040
 6314TIP3   OH218818   5.263   7.206   0.711
 6314TIP3    H118819   5.214   7.174   0.635
 6314TIP3    H218820   5.269   7.301   0.698
 6315TIP3   OH218821   4.877   6.560   1.029
 6315TIP3    H118822   4.797   6.589   1.074
 6315TIP3    H218823   4.846   6.496   0.965
 6316TIP3   OH218824   4.606   7.174   1.960
 6316TIP3    H118825   4.561   7.180   2.044
 6316TIP3    H218826   4.585   7.255   1.915
 6317TIP3   OH218827   4.488   7.056   1.496
 6317TIP3    H118828   4.397   7.034   1.520
 6317TIP3    H218829   4.499   7.020   1.408
 6318TIP3   OH218830   4.945   7.140   1.262
 6318TIP3    H118831   4.909   7.210   1.208
 6318TIP3    H218832   4.996   7.086   1.201
 6319TIP3   OH218833   5.150   7.394   2.281
 6319TIP3    H118834   5.125   7.326   2.343
 6319TIP3    H218835   5.243   7.411   2.300
 6320TIP3   OH218836   5.143   7.145   1.449
 6320TIP3    H118837   5.068   7.164   1.394
 6320TIP3    H218838   5.189   7.074   1.404
 6321TIP3   OH218839   4.445   7.189   2.182
 6321TIP3    H118840   4.456   7.253   2.253
 6321TIP3    H218841   4.426   7.107   2.227
 6322TIP3   OH218842   4.468   6.684   0.969
 6322TIP3    H118843   4.465   6.661   1.062
 6322TIP3    H218844   4.379   6.712   0.948
 6323TIP3   OH218845   4.032   6.709   1.760
 6323TIP3    H118846   4.107   6.743   1.810
 6323TIP3    H218847   4.069   6.685   1.675
 6324TIP3   OH218848   3.935   6.683   1.267
 6324TIP3    H118849   3.977   6.715   1.187
 6324TIP3    H218850   3.872   6.751   1.291
 6325TIP3   OH218851   5.172   7.401   1.864
 6325TIP3    H118852   5.202   7.334   1.802
 6325TIP3    H218853   5.128   7.353   1.933
 6326TIP3   OH218854   4.849   6.843   1.544
 6326TIP3    H118855   4.770   6.840   1.598
 6326TIP3    H218856   4.921   6.835   1.606
 6327TIP3   OH218857   4.246   6.930   1.540
 6327TIP3    H118858   4.158   6.933   1.502
 6327TIP3    H218859   4.276   6.840   1.524
 6328TIP3   OH218860   4.486   6.919   1.261
 6328TIP3    H118861   4.577   6.929   1.233
 6328TIP3    H218862   4.435   6.939   1.183
 6329TIP3   OH218863   5.293   6.927   1.751
 6329TIP3    H118864   5.274   6.946   1.842
 6329TIP3    H218865   5.222   6.868   1.723
 6330TIP3   OH218866   4.306   6.949   1.054
 6330TIP3    H118867   4.250   6.892   1.001
 6330TIP3    H218868   4.382   6.967   0.998
 6331TIP3   OH218869   5.495   8.634   1.975
 6331TIP3    H118870   5.490   8.642   1.879
 6331TIP3    H218871   5.573   8.684   1.999
 6332TIP3   OH218872   4.437   7.747   2.370
 6332TIP3    H118873   4.518   7.767   2.417
 6332TIP3    H218874   4.368   7.756   2.436
 6333TIP3   OH218875   4.902   7.217   1.642
 6333TIP3    H118876   4.963   7.163   1.591
 6333TIP3    H218877   4.898   7.174   1.728
 6334TIP3   OH218878   4.383   6.680   1.525
 6334TIP3    H118879   4.358   6.602   1.575
 6334TIP3    H218880   4.396   6.648   1.436
 6335TIP3   OH218881   4.872   7.116   1.903
 6335TIP3    H118882   4.784   7.147   1.926
 6335TIP3    H218883   4.931   7.168   1.957
 6336TIP3   OH218884   4.586   7.408   1.063
 6336TIP3    H118885   4.510   7.358   1.034
 6336TIP3    H218886   4.552   7.464   1.134
 6337TIP3   OH218887   5.488   7.707   1.650
 6337TIP3    H118888   5.526   7.753   1.575
 6337TIP3    H218889   5.409   7.666   1.616
 6338TIP3   OH218890   5.063   6.749   0.964
 6338TIP3    H118891   4.986   6.692   0.968
 6338TIP3    H218892   5.029   6.835   0.988
 6339TIP3   OH218893   5.013   7.810   2.037
 6339TIP3    H118894   5.065   7.801   2.117
 6339TIP3    H218895   4.974   7.897   2.043
 6340TIP3   OH218896   5.091   6.996   1.081
 6340TIP3    H118897   5.184   6.982   1.064
 6340TIP3    H218898   5.066   7.067   1.021
 6341TIP3   OH218899   4.294   7.492   1.671
 6341TIP3    H118900   4.332   7.470   1.586
 6341TIP3    H218901   4.359   7.461   1.734
 6342TIP3   OH218902   4.743   7.625   1.039
 6342TIP3    H118903   4.673   7.691   1.028
 6342TIP3    H218904   4.696   7.543   1.049
 6343TIP3   OH218905   4.177   7.414   2.301
 6343TIP3    H118906   4.179   7.387   2.393
 6343TIP3    H218907   4.103   7.367   2.264
 6344TIP3   OH218908   4.920   7.550   2.322
 6344TIP3    H118909   4.850   7.491   2.295
 6344TIP3    H218910   5.001   7.508   2.292
 6345TIP3   OH218911   5.158   8.093   1.929
 6345TIP3    H118912   5.063   8.084   1.928
 6345TIP3    H218913   5.178   8.128   2.016
 6346TIP3   OH218914   5.571   7.199   0.825
 6346TIP3    H118915   5.530   7.150   0.754
 6346TIP3    H218916   5.626   7.263   0.782
 6347TIP3   OH218917   5.799   8.010   1.895
 6347TIP3    H118918   5.705   7.994   1.894
 6347TIP3    H218919   5.830   7.976   1.811
 6348TIP3   OH218920   5.423   7.853   0.705
 6348TIP3    H118921   5.369   7.868   0.782
 6348TIP3    H218922   5.375   7.894   0.633
 6349TIP3   OH218923   5.261   7.579   1.540
 6349TIP3    H118924   5.170   7.557   1.562
 6349TIP3    H218925   5.298   7.498   1.506
 6350TIP3   OH218926   4.410   7.820   1.334
 6350TIP3    H118927   4.407   7.902   1.285
 6350TIP3    H218928   4.319   7.795   1.346
 6351TIP3   OH218929   3.963   7.106   1.045
 6351TIP3    H118930   4.012   7.181   1.078
 6351TIP3    H218931   3.883   7.106   1.096
 6352TIP3   OH218932   4.516   7.577   1.261
 6352TIP3    H118933   4.489   7.666   1.282
 6352TIP3    H218934   4.483   7.524   1.334
 6353TIP3   OH218935   4.706   8.149   1.790
 6353TIP3    H118936   4.741   8.223   1.740
 6353TIP3    H218937   4.780   8.116   1.840
 6354TIP3   OH218938   4.318   8.051   1.200
 6354TIP3    H118939   4.230   8.047   1.237
 6354TIP3    H218940   4.346   8.142   1.213
 6355TIP3   OH218941   5.052   7.806   1.764
 6355TIP3    H118942   5.039   7.804   1.859
 6355TIP3    H218943   5.130   7.753   1.749
 6356TIP3   OH218944   5.119   7.706   0.685
 6356TIP3    H118945   5.167   7.719   0.766
 6356TIP3    H218946   5.041   7.656   0.710
 6357TIP3   OH218947   5.316   8.294   1.820
 6357TIP3    H118948   5.249   8.229   1.842
 6357TIP3    H218949   5.274   8.348   1.753
 6358TIP3   OH218950   4.388   6.936   2.299
 6358TIP3    H118951   4.293   6.946   2.301
 6358TIP3    H218952   4.407   6.875   2.370
 6359TIP3   OH218953   5.230   7.641   0.937
 6359TIP3    H118954   5.224   7.562   0.991
 6359TIP3    H218955   5.324   7.658   0.931
 6360TIP3   OH218956   4.131   8.047   1.954
 6360TIP3    H118957   4.183   7.986   2.006
 6360TIP3    H218958   4.148   8.132   1.994
 6361TIP3   OH218959   4.378   7.762   0.653
 6361TIP3    H118960   4.418   7.693   0.600
 6361TIP3    H218961   4.417   7.750   0.740
 6362TIP3   OH218962   4.273   7.699   0.999
 6362TIP3    H118963   4.361   7.668   0.978
 6362TIP3    H218964   4.277   7.793   0.985
 6363TIP3   OH218965   4.057   7.336   1.177
 6363TIP3    H118966   3.992   7.383   1.230
 6363TIP3    H218967   4.075   7.395   1.104
 6364TIP3   OH218968   5.236   6.998   2.010
 6364TIP3    H118969   5.316   7.040   2.040
 6364TIP3    H218970   5.228   6.919   2.064
 6365TIP3   OH218971   5.133   6.735   1.232
 6365TIP3    H118972   5.106   6.740   1.141
 6365TIP3    H218973   5.168   6.822   1.251
 6366TIP3   OH218974   4.597   7.950   1.001
 6366TIP3    H118975   4.503   7.953   0.982
 6366TIP3    H218976   4.639   7.953   0.915
 6367TIP3   OH218977   4.767   6.930   1.293
 6367TIP3    H118978   4.821   7.005   1.270
 6367TIP3    H218979   4.793   6.907   1.382
 6368TIP3   OH218980   5.076   7.230   2.056
 6368TIP3    H118981   5.102   7.271   2.138
 6368TIP3    H218982   5.126   7.149   2.052
 6369TIP3   OH218983   4.935   6.628   1.388
 6369TIP3    H118984   4.911   6.707   1.437
 6369TIP3    H218985   5.006   6.656   1.330
 6370TIP3   OH218986   4.330   7.962   0.945
 6370TIP3    H118987   4.322   8.041   0.891
 6370TIP3    H218988   4.313   7.993   1.034
 6371TIP3   OH218989   4.438   6.644   1.245
 6371TIP3    H118990   4.434   6.739   1.258
 6371TIP3    H218991   4.531   6.624   1.243
 6372TIP3   OH218992   5.696   7.127   2.054
 6372TIP3    H118993   5.601   7.138   2.064
 6372TIP3    H218994   5.705   7.072   1.977
 6373TIP3   OH218995   5.358   7.331   1.454
 6373TIP3    H118996   5.281   7.276   1.457
 6373TIP3    H218997   5.421   7.288   1.511
 6374TIP3   OH218998   4.070   7.522   0.977
 6374TIP3    H118999   4.135   7.588   1.001
 6374TIP3    H219000   4.112   7.471   0.909
 6375TIP3   OH219001   3.999   6.829   1.046
 6375TIP3    H119002   4.013   6.921   1.068
 6375TIP3    H219003   3.963   6.830   0.958
 6376TIP3   OH219004   5.329   8.340   1.411
 6376TIP3    H119005   5.299   8.360   1.322
 6376TIP3    H219006   5.425   8.335   1.402
 6377TIP3   OH219007   4.406   6.554   1.911
 6377TIP3    H119008   4.376   6.522   1.826
 6377TIP3    H219009   4.396   6.479   1.970
 6378TIP3   OH219010   3.927   7.804   1.311
 6378TIP3    H119011   3.878   7.843   1.384
 6378TIP3    H219012   3.890   7.845   1.233
 6379TIP3   OH219013   4.129   8.351   2.369
 6379TIP3    H119014   4.212   8.356   2.416
 6379TIP3    H219015   4.114   8.258   2.356
 6380TIP3   OH219016   4.596   8.251   2.418
 6380TIP3    H119017   4.688   8.226   2.424
 6380TIP3    H219018   4.562   8.200   2.345
 6381TIP3   OH219019   4.555   7.907   0.505
 6381TIP3    H119020   4.491   7.854   0.552
 6381TIP3    H219021   4.557   7.870   0.417
 6382TIP3   OH219022   5.214   8.192   2.178
 6382TIP3    H119023   5.231   8.123   2.242
 6382TIP3    H219024   5.287   8.253   2.188
 6383TIP3   OH219025   4.232   7.749   2.560
 6383TIP3    H119026   4.250   7.655   2.571
 6383TIP3    H219027   4.146   7.752   2.518
 6384TIP3   OH219028   4.190   7.302   0.838
 6384TIP3    H119029   4.244   7.279   0.913
 6384TIP3    H219030   4.247   7.356   0.783
 6385TIP3   OH219031   4.853   7.826   2.338
 6385TIP3    H119032   4.808   7.847   2.256
 6385TIP3    H219033   4.888   7.738   2.324
 6386TIP3   OH219034   4.660   7.660   0.646
 6386TIP3    H119035   4.749   7.638   0.673
 6386TIP3    H219036   4.641   7.598   0.576
 6387TIP3   OH219037   5.326   7.871   1.960
 6387TIP3    H119038   5.404   7.898   1.911
 6387TIP3    H219039   5.262   7.940   1.943
 6388TIP3   OH219040   4.346   7.494   2.568
 6388TIP3    H119041   4.420   7.476   2.510
 6388TIP3    H219042   4.387   7.512   2.653
 6389TIP3   OH219043   4.371   7.246   1.031
 6389TIP3    H119044   4.342   7.236   1.121
 6389TIP3    H219045   4.422   7.166   1.013
 6390TIP3   OH219046   4.713   7.377   2.230
 6390TIP3    H119047   4.626   7.416   2.239
 6390TIP3    H219048   4.742   7.405   2.143
 6391TIP3   OH219049   4.542   7.041   0.955
 6391TIP3    H119050   4.556   7.092   0.875
 6391TIP3    H219051   4.631   7.025   0.989
 6392TIP3   OH219052   5.212   7.749   2.310
 6392TIP3    H119053   5.280   7.712   2.253
 6392TIP3    H219054   5.209   7.691   2.385
 6393TIP3   OH219055   5.265   7.353   0.374
 6393TIP3    H119056   5.347   7.367   0.327
 6393TIP3    H219057   5.273   7.409   0.451
 6394TIP3   OH219058   4.815   7.143   2.334
 6394TIP3    H119059   4.817   7.073   2.269
 6394TIP3    H219060   4.781   7.219   2.286
 6395TIP3   OH219061   4.822   6.944   2.131
 6395TIP3    H119062   4.850   6.980   2.047
 6395TIP3    H219063   4.731   6.916   2.117
 6396TIP3   OH219064   4.824   7.472   2.001
 6396TIP3    H119065   4.913   7.505   1.987
 6396TIP3    H219066   4.769   7.531   1.950
 6397TIP3   OH219067   5.419   7.428   2.376
 6397TIP3    H119068   5.449   7.337   2.380
 6397TIP3    H219069   5.498   7.478   2.356
 6398TIP3   OH219070   5.448   7.695   2.125
 6398TIP3    H119071   5.395   7.756   2.074
 6398TIP3    H219072   5.537   7.707   2.093
 6399TIP3   OH219073   4.700   7.224   2.578
 6399TIP3    H119074   4.631   7.161   2.597
 6399TIP3    H219075   4.728   7.202   2.489
 6400TIP3   OH219076   4.944   6.713   2.233
 6400TIP3    H119077   4.903   6.793   2.200
 6400TIP3    H219078   4.878   6.645   2.220
 6401TIP3   OH219079   5.071   7.182   2.436
 6401TIP3    H119080   5.059   7.168   2.530
 6401TIP3    H219081   4.985   7.161   2.398
 6402TIP3   OH219082   5.322   7.146   2.314
 6402TIP3    H119083   5.241   7.141   2.366
 6402TIP3    H219084   5.390   7.114   2.372
 6403TIP3   OH219085   5.555   7.100   2.460
 6403TIP3    H119086   5.568   7.005   2.467
 6403TIP3    H219087   5.551   7.130   2.551
 6404TIP3   OH219088   4.529   7.007   2.642
 6404TIP3    H119089   4.535   6.919   2.603
 6404TIP3    H219090   4.570   6.998   2.728
 6405TIP3   OH219091   5.010   6.689   2.499
 6405TIP3    H119092   5.077   6.622   2.493
 6405TIP3    H219093   4.980   6.701   2.408
 6406TIP3   OH219094   5.107   6.903   2.643
 6406TIP3    H119095   5.076   6.831   2.589
 6406TIP3    H219096   5.034   6.965   2.644
 6407TIP3   OH219097   4.286   8.029   0.568
 6407TIP3    H119098   4.374   8.024   0.604
 6407TIP3    H219099   4.263   8.121   0.572
 6408TIP3   OH219100   3.801   7.534   0.955
 6408TIP3    H119101   3.897   7.534   0.963
 6408TIP3    H219102   3.780   7.445   0.925
 6409TIP3   OH219103   3.725   8.117   1.389
 6409TIP3    H119104   3.661   8.064   1.342
 6409TIP3    H219105   3.770   8.055   1.447
 6410TIP3   OH219106   3.868   7.949   1.557
 6410TIP3    H119107   3.863   7.881   1.624
 6410TIP3    H219108   3.919   8.019   1.599
 6411TIP3   OH219109   5.602   8.354   1.384
 6411TIP3    H119110   5.636   8.370   1.471
 6411TIP3    H219111   5.625   8.432   1.334
 6412TIP3   OH219112   5.637   8.371   1.659
 6412TIP3    H119113   5.590   8.288   1.653
 6412TIP3    H219114   5.703   8.357   1.726
 6413TIP3   OH219115   5.690   8.092   2.211
 6413TIP3    H119116   5.615   8.099   2.271
 6413TIP3    H219117   5.735   8.176   2.219
 6414TIP3   OH219118   5.505   7.665   0.926
 6414TIP3    H119119   5.589   7.686   0.885
 6414TIP3    H219120   5.494   7.571   0.913
 6415TIP3   OH219121   5.664   7.441   1.069
 6415TIP3    H119122   5.591   7.478   1.118
 6415TIP3    H219123   5.742   7.484   1.104
 6416TIP3   OH219124   5.652   7.840   1.480
 6416TIP3    H119125   5.706   7.780   1.428
 6416TIP3    H219126   5.653   7.922   1.431
 6417TIP3   OH219127   5.487   8.143   1.662
 6417TIP3    H119128   5.420   8.188   1.714
 6417TIP3    H219129   5.438   8.101   1.591
 6418TIP3   OH219130   5.551   7.363   0.566
 6418TIP3    H119131   5.461   7.340   0.591
 6418TIP3    H219132   5.561   7.454   0.593
 6419TIP3   OH219133   5.472   6.999   0.668
 6419TIP3    H119134   5.408   7.029   0.603
 6419TIP3    H219135   5.465   6.904   0.666
 6420TIP3   OH219136   5.402   7.296   1.182
 6420TIP3    H119137   5.449   7.212   1.179
 6420TIP3    H219138   5.405   7.321   1.275
 6421TIP3   OH219139   4.048   7.384   1.938
 6421TIP3    H119140   4.037   7.352   1.849
 6421TIP3    H219141   4.142   7.380   1.955
 6422TIP3   OH219142   5.704   7.735   2.026
 6422TIP3    H119143   5.772   7.670   2.012
 6422TIP3    H219144   5.711   7.795   1.952
 6423TIP3   OH219145   5.884   7.526   2.023
 6423TIP3    H119146   5.809   7.484   2.067
 6423TIP3    H219147   5.959   7.473   2.047
 6424TIP3   OH219148   5.435   6.730   0.658
 6424TIP3    H119149   5.511   6.673   0.660
 6424TIP3    H219150   5.398   6.723   0.746
 6425TIP3   OH219151   5.516   7.047   1.137
 6425TIP3    H119152   5.527   6.952   1.148
 6425TIP3    H219153   5.606   7.081   1.133
 6426TIP3   OH219154   5.555   7.196   1.604
 6426TIP3    H119155   5.637   7.219   1.563
 6426TIP3    H219156   5.560   7.234   1.692
 6427TIP3   OH219157   5.641   7.359   1.822
 6427TIP3    H119158   5.566   7.393   1.871
 6427TIP3    H219159   5.672   7.433   1.770
 6428TIP3   OH219160   4.264   7.061   2.581
 6428TIP3    H119161   4.358   7.057   2.598
 6428TIP3    H219162   4.230   6.979   2.616
 6429TIP3   OH219163   6.110   6.960   2.339
 6429TIP3    H119164   6.175   6.903   2.297
 6429TIP3    H219165   6.071   7.009   2.266
 6430TIP3   OH219166   5.534   6.775   1.165
 6430TIP3    H119167   5.584   6.766   1.246
 6430TIP3    H219168   5.467   6.706   1.172
 6431TIP3   OH219169   4.243   6.779   1.930
 6431TIP3    H119170   4.296   6.699   1.934
 6431TIP3    H219171   4.306   6.849   1.910
 6432TIP3   OH219172   4.023   7.045   1.987
 6432TIP3    H119173   4.073   7.031   1.907
 6432TIP3    H219174   4.053   7.128   2.021
 6433TIP3   OH219175   5.960   7.072   2.138
 6433TIP3    H119176   5.876   7.112   2.159
 6433TIP3    H219177   5.938   6.996   2.085
 6434TIP3   OH219178   5.663   6.705   0.884
 6434TIP3    H119179   5.653   6.659   0.801
 6434TIP3    H219180   5.671   6.797   0.860
 6435TIP3   OH219181   4.010   6.558   1.498
 6435TIP3    H119182   3.924   6.544   1.536
 6435TIP3    H219183   3.994   6.608   1.418
 6436TIP3   OH219184   5.113   8.246   1.068
 6436TIP3    H119185   5.162   8.232   0.987
 6436TIP3    H219186   5.149   8.327   1.105
 6437TIP3   OH219187   4.238   6.622   2.324
 6437TIP3    H119188   4.181   6.602   2.398
 6437TIP3    H219189   4.181   6.666   2.261
 6438TIP3   OH219190   4.264   8.069   2.382
 6438TIP3    H119191   4.171   8.049   2.375
 6438TIP3    H219192   4.285   8.058   2.475
 6439TIP3   OH219193   4.477   8.112   1.938
 6439TIP3    H119194   4.424   8.183   1.903
 6439TIP3    H219195   4.562   8.122   1.895
 6440TIP3   OH219196   4.874   8.342   2.079
 6440TIP3    H119197   4.912   8.336   2.166
 6440TIP3    H219198   4.936   8.396   2.029
 6441TIP3   OH219199   5.065   8.496   1.951
 6441TIP3    H119200   5.127   8.447   1.897
 6441TIP3    H219201   5.119   8.551   2.007
 6442TIP3   OH219202   5.873   6.825   2.035
 6442TIP3    H119203   5.785   6.821   1.997
 6442TIP3    H219204   5.904   6.734   2.033
 6443TIP3   OH219205   4.137   8.349   1.987
 6443TIP3    H119206   4.046   8.368   1.965
 6443TIP3    H219207   4.161   8.417   2.051
 6444TIP3   OH219208   4.362   8.335   1.829
 6444TIP3    H119209   4.280   8.342   1.878
 6444TIP3    H219210   4.339   8.362   1.740
 6445TIP3   OH219211   4.783   8.359   1.622
 6445TIP3    H119212   4.705   8.368   1.567
 6445TIP3    H219213   4.792   8.445   1.664
 6446TIP3   OH219214   5.031   8.277   1.694
 6446TIP3    H119215   4.943   8.306   1.670
 6446TIP3    H219216   5.088   8.347   1.662
 6447TIP3   OH219217   5.221   8.460   1.623
 6447TIP3    H119218   5.216   8.551   1.593
 6447TIP3    H219219   5.256   8.412   1.548
 6448TIP3   OH219220   4.044   8.131   1.705
 6448TIP3    H119221   4.072   8.108   1.793
 6448TIP3    H219222   4.115   8.101   1.648
 6449TIP3   OH219223   4.249   8.020   1.568
 6449TIP3    H119224   4.261   7.934   1.609
 6449TIP3    H219225   4.336   8.059   1.569
 6450TIP3   OH219226   4.520   8.098   1.589
 6450TIP3    H119227   4.537   8.006   1.569
 6450TIP3    H219228   4.575   8.118   1.664
 6451TIP3   OH219229   5.076   6.752   1.683
 6451TIP3    H119230   5.035   6.679   1.730
 6451TIP3    H219231   5.143   6.711   1.629
 6452TIP3   OH219232   5.559   6.680   1.620
 6452TIP3    H119233   5.597   6.728   1.546
 6452TIP3    H219234   5.464   6.685   1.605
 6453TIP3   OH219235   5.690   6.734   1.384
 6453TIP3    H119236   5.763   6.682   1.351
 6453TIP3    H219237   5.723   6.824   1.383
 6454TIP3   OH219238   4.315   6.452   1.671
 6454TIP3    H119239   4.226   6.418   1.680
 6454TIP3    H219240   4.370   6.374   1.661
 6455TIP3   OH219241   4.123   6.355   1.332
 6455TIP3    H119242   4.153   6.404   1.255
 6455TIP3    H219243   4.092   6.423   1.392
 6456TIP3   OH219244   4.793   6.486   1.580
 6456TIP3    H119245   4.838   6.533   1.510
 6456TIP3    H219246   4.836   6.516   1.661
 6457TIP3   OH219247   5.287   6.640   1.545
 6457TIP3    H119248   5.294   6.612   1.454
 6457TIP3    H219249   5.290   6.558   1.596
 6458TIP3   OH219250   5.349   6.578   1.182
 6458TIP3    H119251   5.266   6.625   1.193
 6458TIP3    H219252   5.331   6.490   1.214
 6459TIP3   OH219253   3.831   7.927   1.084
 6459TIP3    H119254   3.737   7.920   1.067
 6459TIP3    H219255   3.851   8.019   1.070
 6460TIP3   OH219256   4.236   6.490   1.111
 6460TIP3    H119257   4.282   6.436   1.047
 6460TIP3    H219258   4.305   6.537   1.158
 6461TIP3   OH219259   4.709   6.669   1.224
 6461TIP3    H119260   4.778   6.627   1.275
 6461TIP3    H219261   4.727   6.763   1.232
 6462TIP3   OH219262   4.539   8.135   0.647
 6462TIP3    H119263   4.615   8.175   0.689
 6462TIP3    H219264   4.572   8.052   0.612
 6463TIP3   OH219265   5.325   8.184   0.899
 6463TIP3    H119266   5.369   8.109   0.939
 6463TIP3    H219267   5.295   8.151   0.814
 6464TIP3   OH219268   4.547   6.736   2.557
 6464TIP3    H119269   4.513   6.668   2.615
 6464TIP3    H219270   4.639   6.744   2.581
 6465TIP3   OH219271   4.796   6.743   2.678
 6465TIP3    H119272   4.872   6.720   2.625
 6465TIP3    H219273   4.789   6.672   2.742
 6466TIP3   OH219274   3.853   7.882   0.801
 6466TIP3    H119275   3.860   7.892   0.896
 6466TIP3    H219276   3.941   7.859   0.773
 6467TIP3   OH219277   5.616   6.829   2.463
 6467TIP3    H119278   5.633   6.799   2.552
 6467TIP3    H219279   5.701   6.824   2.419
 6468TIP3   OH219280   5.534   8.361   1.977
 6468TIP3    H119281   5.460   8.330   1.925
 6468TIP3    H219282   5.521   8.456   1.982
 6469TIP3   OH219283   6.676   7.683   1.262
 6469TIP3    H119284   6.743   7.746   1.234
 6469TIP3    H219285   6.698   7.603   1.213
 6470TIP3   OH219286   6.075   7.573   1.519
 6470TIP3    H119287   6.110   7.523   1.593
 6470TIP3    H219288   6.153   7.604   1.473
 6471TIP3   OH219289   5.924   7.936   1.278
 6471TIP3    H119290   5.967   7.851   1.270
 6471TIP3    H219291   5.996   7.998   1.286
 6472TIP3   OH219292   5.749   7.185   1.042
 6472TIP3    H119293   5.720   7.271   1.070
 6472TIP3    H219294   5.698   7.167   0.963
 6473TIP3   OH219295   5.888   7.540   1.172
 6473TIP3    H119296   5.932   7.463   1.207
 6473TIP3    H219297   5.957   7.606   1.165
 6474TIP3   OH219298   6.602   7.966   1.172
 6474TIP3    H119299   6.598   7.899   1.103
 6474TIP3    H219300   6.686   7.950   1.216
 6475TIP3   OH219301   7.590   7.273   1.274
 6475TIP3    H119302   7.574   7.347   1.332
 6475TIP3    H219303   7.547   7.296   1.192
 6476TIP3   OH219304   6.951   7.383   1.253
 6476TIP3    H119305   7.026   7.389   1.312
 6476TIP3    H219306   6.942   7.471   1.217
 6477TIP3   OH219307   6.347   7.126   1.173
 6477TIP3    H119308   6.350   7.167   1.087
 6477TIP3    H219309   6.300   7.044   1.159
 6478TIP3   OH219310   6.955   7.262   0.762
 6478TIP3    H119311   6.976   7.221   0.845
 6478TIP3    H219312   7.008   7.215   0.697
 6479TIP3   OH219313   5.963   7.326   1.340
 6479TIP3    H119314   6.053   7.332   1.372
 6479TIP3    H219315   5.964   7.253   1.278
 6480TIP3   OH219316   6.523   7.569   0.964
 6480TIP3    H119317   6.589   7.527   1.019
 6480TIP3    H219318   6.512   7.510   0.890
 6481TIP3   OH219319   7.752   7.598   1.305
 6481TIP3    H119320   7.660   7.574   1.318
 6481TIP3    H219321   7.801   7.524   1.340
 6482TIP3   OH219322   6.350   7.112   1.601
 6482TIP3    H119323   6.300   7.154   1.531
 6482TIP3    H219324   6.295   7.122   1.679
 6483TIP3   OH219325   6.420   7.884   1.432
 6483TIP3    H119326   6.354   7.945   1.464
 6483TIP3    H219327   6.486   7.940   1.390
 6484TIP3   OH219328   7.246   7.323   0.909
 6484TIP3    H119329   7.163   7.291   0.943
 6484TIP3    H219330   7.256   7.410   0.947
 6485TIP3   OH219331   6.227   7.236   1.389
 6485TIP3    H119332   6.283   7.310   1.413
 6485TIP3    H219333   6.267   7.200   1.310
 6486TIP3   OH219334   6.266   8.094   1.514
 6486TIP3    H119335   6.270   8.189   1.503
 6486TIP3    H219336   6.187   8.079   1.565
 6487TIP3   OH219337   5.746   7.741   0.819
 6487TIP3    H119338   5.721   7.801   0.749
 6487TIP3    H219339   5.760   7.798   0.895
 6488TIP3   OH219340   7.192   8.319   0.918
 6488TIP3    H119341   7.103   8.355   0.923
 6488TIP3    H219342   7.194   8.274   0.833
 6489TIP3   OH219343   7.403   7.142   1.444
 6489TIP3    H119344   7.311   7.138   1.417
 6489TIP3    H219345   7.448   7.177   1.368
 6490TIP3   OH219346   6.696   6.795   1.377
 6490TIP3    H119347   6.676   6.701   1.381
 6490TIP3    H219348   6.614   6.837   1.403
 6491TIP3   OH219349   7.366   7.898   1.121
 6491TIP3    H119350   7.318   7.944   1.053
 6491TIP3    H219351   7.452   7.880   1.083
 6492TIP3   OH219352   7.193   7.710   1.477
 6492TIP3    H119353   7.193   7.786   1.535
 6492TIP3    H219354   7.101   7.700   1.451
 6493TIP3   OH219355   6.210   7.659   0.984
 6493TIP3    H119356   6.199   7.583   0.927
 6493TIP3    H219357   6.253   7.724   0.929
 6494TIP3   OH219358   6.341   8.038   1.131
 6494TIP3    H119359   6.379   8.092   1.062
 6494TIP3    H219360   6.417   7.993   1.169
 6495TIP3   OH219361   6.297   7.645   1.376
 6495TIP3    H119362   6.331   7.617   1.291
 6495TIP3    H219363   6.340   7.729   1.392
 6496TIP3   OH219364   6.951   8.160   1.087
 6496TIP3    H119365   6.946   8.243   1.040
 6496TIP3    H219366   6.884   8.105   1.045
 6497TIP3   OH219367   6.456   8.122   1.715
 6497TIP3    H119368   6.409   8.201   1.741
 6497TIP3    H219369   6.407   8.089   1.640
 6498TIP3   OH219370   6.240   7.737   1.779
 6498TIP3    H119371   6.239   7.832   1.792
 6498TIP3    H219372   6.148   7.713   1.769
 6499TIP3   OH219373   6.273   8.325   1.761
 6499TIP3    H119374   6.243   8.341   1.671
 6499TIP3    H219375   6.193   8.322   1.813
 6500TIP3   OH219376   6.205   7.459   0.804
 6500TIP3    H119377   6.266   7.474   0.732
 6500TIP3    H219378   6.120   7.447   0.761
 6501TIP3   OH219379   5.868   7.893   1.658
 6501TIP3    H119380   5.799   7.871   1.595
 6501TIP3    H219381   5.906   7.809   1.682
 6502TIP3   OH219382   5.702   8.073   1.351
 6502TIP3    H119383   5.784   8.034   1.320
 6502TIP3    H219384   5.727   8.162   1.376
 6503TIP3   OH219385   7.574   8.518   1.258
 6503TIP3    H119386   7.595   8.425   1.244
 6503TIP3    H219387   7.488   8.517   1.301
 6504TIP3   OH219388   6.580   8.358   1.572
 6504TIP3    H119389   6.674   8.376   1.571
 6504TIP3    H219390   6.573   8.264   1.557
 6505TIP3   OH219391   5.927   8.282   0.799
 6505TIP3    H119392   5.951   8.232   0.877
 6505TIP3    H219393   5.868   8.224   0.751
 6506TIP3   OH219394   7.505   7.614   1.654
 6506TIP3    H119395   7.413   7.586   1.649
 6506TIP3    H219396   7.541   7.562   1.726
 6507TIP3   OH219397   6.036   8.107   1.655
 6507TIP3    H119398   6.085   8.090   1.735
 6507TIP3    H219399   5.973   8.035   1.650
 6508TIP3   OH219400   6.450   6.903   1.449
 6508TIP3    H119401   6.362   6.873   1.429
 6508TIP3    H219402   6.437   6.986   1.495
 6509TIP3   OH219403   7.001   6.998   1.656
 6509TIP3    H119404   7.072   6.976   1.716
 6509TIP3    H219405   6.922   6.973   1.702
 6510TIP3   OH219406   7.263   7.486   1.610
 6510TIP3    H119407   7.196   7.461   1.674
 6510TIP3    H219408   7.226   7.561   1.564
 6511TIP3   OH219409   6.397   7.423   1.499
 6511TIP3    H119410   6.351   7.425   1.583
 6511TIP3    H219411   6.371   7.504   1.455
 6512TIP3   OH219412   6.301   7.238   0.926
 6512TIP3    H119413   6.258   7.320   0.900
 6512TIP3    H219414   6.324   7.196   0.844
 6513TIP3   OH219415   6.967   7.649   1.775
 6513TIP3    H119416   6.932   7.586   1.839
 6513TIP3    H219417   7.058   7.660   1.801
 6514TIP3   OH219418   6.839   7.481   0.891
 6514TIP3    H119419   6.787   7.522   0.821
 6514TIP3    H219420   6.886   7.410   0.847
 6515TIP3   OH219421   6.222   7.431   1.710
 6515TIP3    H119422   6.245   7.490   1.782
 6515TIP3    H219423   6.207   7.347   1.753
 6516TIP3   OH219424   5.792   6.978   1.330
 6516TIP3    H119425   5.873   7.015   1.366
 6516TIP3    H219426   5.814   6.957   1.239
 6517TIP3   OH219427   5.719   6.965   0.834
 6517TIP3    H119428   5.784   7.008   0.778
 6517TIP3    H219429   5.636   7.007   0.811
 6518TIP3   OH219430   6.940   7.662   1.409
 6518TIP3    H119431   6.904   7.661   1.321
 6518TIP3    H219432   6.886   7.601   1.458
 6519TIP3   OH219433   6.623   7.161   1.220
 6519TIP3    H119434   6.529   7.148   1.211
 6519TIP3    H219435   6.633   7.212   1.300
 6520TIP3   OH219436   6.002   7.126   1.163
 6520TIP3    H119437   5.919   7.115   1.115
 6520TIP3    H219438   6.054   7.049   1.138
 6521TIP3   OH219439   6.370   7.169   0.665
 6521TIP3    H119440   6.425   7.099   0.630
 6521TIP3    H219441   6.291   7.166   0.611
 6522TIP3   OH219442   7.129   7.108   1.382
 6522TIP3    H119443   7.099   7.172   1.447
 6522TIP3    H219444   7.048   7.077   1.341
 6523TIP3   OH219445   7.217   8.864   1.444
 6523TIP3    H119446   7.198   8.823   1.359
 6523TIP3    H219447   7.290   8.923   1.426
 6524TIP3   OH219448   6.214   8.005   1.858
 6524TIP3    H119449   6.300   8.033   1.888
 6524TIP3    H219450   6.158   8.012   1.935
 6525TIP3   OH219451   6.699   7.445   1.128
 6525TIP3    H119452   6.762   7.446   1.056
 6525TIP3    H219453   6.734   7.381   1.190
 6526TIP3   OH219454   6.184   6.911   1.107
 6526TIP3    H119455   6.145   6.830   1.139
 6526TIP3    H219456   6.138   6.929   1.025
 6527TIP3   OH219457   6.646   7.340   1.427
 6527TIP3    H119458   6.563   7.381   1.453
 6527TIP3    H219459   6.713   7.393   1.469
 6528TIP3   OH219460   6.798   8.061   1.586
 6528TIP3    H119461   6.787   8.073   1.680
 6528TIP3    H219462   6.709   8.067   1.550
 6529TIP3   OH219463   6.086   7.727   1.210
 6529TIP3    H119464   6.133   7.706   1.129
 6529TIP3    H219465   6.147   7.705   1.280
 6530TIP3   OH219466   5.966   7.668   1.796
 6530TIP3    H119467   5.966   7.639   1.887
 6530TIP3    H219468   5.898   7.616   1.754
 6531TIP3   OH219469   6.726   7.800   1.816
 6531TIP3    H119470   6.659   7.751   1.769
 6531TIP3    H219471   6.809   7.769   1.780
 6532TIP3   OH219472   6.993   8.252   1.381
 6532TIP3    H119473   6.930   8.296   1.438
 6532TIP3    H219474   7.076   8.297   1.397
 6533TIP3   OH219475   6.929   7.899   0.948
 6533TIP3    H119476   6.836   7.879   0.939
 6533TIP3    H219477   6.973   7.828   0.903
 6534TIP3   OH219478   5.804   7.311   0.485
 6534TIP3    H119479   5.844   7.383   0.435
 6534TIP3    H219480   5.731   7.352   0.531
 6535TIP3   OH219481   6.421   8.534   1.443
 6535TIP3    H119482   6.483   8.566   1.378
 6535TIP3    H219483   6.475   8.494   1.510
 6536TIP3   OH219484   6.851   7.894   1.224
 6536TIP3    H119485   6.907   7.916   1.299
 6536TIP3    H219486   6.908   7.905   1.148
 6537TIP3   OH219487   7.123   8.655   1.280
 6537TIP3    H119488   7.057   8.588   1.262
 6537TIP3    H219489   7.127   8.707   1.200
 6538TIP3   OH219490   6.180   7.172   1.811
 6538TIP3    H119491   6.084   7.182   1.813
 6538TIP3    H219492   6.200   7.118   1.888
 6539TIP3   OH219493   5.911   8.296   1.472
 6539TIP3    H119494   5.954   8.234   1.530
 6539TIP3    H219495   5.910   8.378   1.521
 6540TIP3   OH219496   5.820   7.698   0.553
 6540TIP3    H119497   5.848   7.713   0.643
 6540TIP3    H219498   5.862   7.768   0.502
 6541TIP3   OH219499   7.020   7.261   1.584
 6541TIP3    H119500   7.058   7.296   1.664
 6541TIP3    H219501   6.999   7.170   1.605
 6542TIP3   OH219502   6.681   7.226   0.615
 6542TIP3    H119503   6.771   7.254   0.626
 6542TIP3    H219504   6.637   7.250   0.697
 6543TIP3   OH219505   6.839   7.471   1.576
 6543TIP3    H119506   6.872   7.529   1.645
 6543TIP3    H219507   6.900   7.397   1.576
 6544TIP3   OH219508   6.748   6.986   0.814
 6544TIP3    H119509   6.776   7.057   0.872
 6544TIP3    H219510   6.824   6.969   0.759
 6545TIP3   OH219511   6.253   6.880   0.615
 6545TIP3    H119512   6.226   6.967   0.586
 6545TIP3    H219513   6.347   6.888   0.631
 6546TIP3   OH219514   7.455   7.295   1.664
 6546TIP3    H119515   7.385   7.361   1.663
 6546TIP3    H219516   7.436   7.238   1.590
 6547TIP3   OH219517   7.073   7.690   0.856
 6547TIP3    H119518   7.071   7.623   0.787
 6547TIP3    H219519   7.166   7.705   0.871
 6548TIP3   OH219520   5.895   7.056   0.414
 6548TIP3    H119521   5.849   7.138   0.429
 6548TIP3    H219522   5.830   6.988   0.432
 6549TIP3   OH219523   6.194   6.813   1.434
 6549TIP3    H119524   6.158   6.773   1.354
 6549TIP3    H219525   6.191   6.744   1.499
 6550TIP3   OH219526   5.713   7.968   0.956
 6550TIP3    H119527   5.745   8.028   1.023
 6550TIP3    H219528   5.681   8.025   0.886
 6551TIP3   OH219529   5.926   8.599   1.879
 6551TIP3    H119530   6.006   8.598   1.932
 6551TIP3    H219531   5.912   8.507   1.857
 6552TIP3   OH219532   6.393   8.501   1.934
 6552TIP3    H119533   6.487   8.490   1.926
 6552TIP3    H219534   6.356   8.442   1.868
 6553TIP3   OH219535   7.038   8.448   1.709
 6553TIP3    H119536   7.036   8.375   1.770
 6553TIP3    H219537   7.107   8.505   1.742
 6554TIP3   OH219538   6.023   7.999   2.060
 6554TIP3    H119539   6.042   7.906   2.070
 6554TIP3    H219540   5.938   8.002   2.016
 6555TIP3   OH219541   6.681   8.074   1.848
 6555TIP3    H119542   6.604   8.084   1.792
 6555TIP3    H219543   6.702   7.981   1.844
 6556TIP3   OH219544   7.184   8.170   1.608
 6556TIP3    H119545   7.207   8.257   1.576
 6556TIP3    H219546   7.107   8.183   1.663
 6557TIP3   OH219547   6.142   7.745   2.061
 6557TIP3    H119548   6.212   7.735   1.997
 6557TIP3    H219549   6.187   7.766   2.143
 6558TIP3   OH219550   6.484   7.608   1.737
 6558TIP3    H119551   6.404   7.659   1.747
 6558TIP3    H219552   6.524   7.641   1.656
 6559TIP3   OH219553   7.012   7.976   1.824
 6559TIP3    H119554   7.056   7.924   1.757
 6559TIP3    H219555   7.013   7.920   1.902
 6560TIP3   OH219556   6.615   7.390   1.835
 6560TIP3    H119557   6.615   7.316   1.775
 6560TIP3    H219558   6.573   7.461   1.786
 6561TIP3   OH219559   6.611   7.177   1.649
 6561TIP3    H119560   6.637   7.220   1.568
 6561TIP3    H219561   6.519   7.156   1.637
 6562TIP3   OH219562   6.614   7.722   1.530
 6562TIP3    H119563   6.656   7.699   1.447
 6562TIP3    H219564   6.547   7.786   1.506
 6563TIP3   OH219565   7.232   7.672   1.895
 6563TIP3    H119566   7.280   7.592   1.916
 6563TIP3    H219567   7.299   7.739   1.887
 6564TIP3   OH219568   7.270   7.914   1.649
 6564TIP3    H119569   7.242   8.003   1.629
 6564TIP3    H219570   7.344   7.898   1.590
 6565TIP3   OH219571   6.495   7.483   2.071
 6565TIP3    H119572   6.425   7.420   2.090
 6565TIP3    H219573   6.524   7.461   1.983
 6566TIP3   OH219574   6.738   6.945   1.730
 6566TIP3    H119575   6.698   7.027   1.702
 6566TIP3    H219576   6.671   6.879   1.712
 6567TIP3   OH219577   6.868   7.447   1.932
 6567TIP3    H119578   6.856   7.434   2.026
 6567TIP3    H219579   6.783   7.423   1.894
 6568TIP3   OH219580   7.108   7.377   1.811
 6568TIP3    H119581   7.033   7.393   1.868
 6568TIP3    H219582   7.182   7.367   1.871
 6569TIP3   OH219583   7.346   7.366   1.953
 6569TIP3    H119584   7.360   7.271   1.955
 6569TIP3    H219585   7.343   7.391   2.046
 6570TIP3   OH219586   6.327   7.263   2.129
 6570TIP3    H119587   6.334   7.176   2.091
 6570TIP3    H219588   6.367   7.255   2.216
 6571TIP3   OH219589   6.807   6.944   1.993
 6571TIP3    H119590   6.877   6.879   1.989
 6571TIP3    H219591   6.774   6.949   1.904
 6572TIP3   OH219592   6.905   7.163   2.127
 6572TIP3    H119593   6.872   7.090   2.076
 6572TIP3    H219594   6.832   7.225   2.130
 6573TIP3   OH219595   5.480   8.404   0.881
 6573TIP3    H119596   5.430   8.326   0.907
 6573TIP3    H219597   5.527   8.429   0.960
 6574TIP3   OH219598   5.740   8.216   1.069
 6574TIP3    H119599   5.656   8.209   1.112
 6574TIP3    H219600   5.784   8.289   1.113
 6575TIP3   OH219601   7.478   8.713   1.094
 6575TIP3    H119602   7.447   8.659   1.021
 6575TIP3    H219603   7.506   8.649   1.160
 6576TIP3   OH219604   7.437   8.327   1.731
 6576TIP3    H119605   7.365   8.314   1.793
 6576TIP3    H219606   7.477   8.410   1.759
 6577TIP3   OH219607   7.305   8.463   1.159
 6577TIP3    H119608   7.232   8.520   1.136
 6577TIP3    H219609   7.361   8.462   1.081
 6578TIP3   OH219610   5.829   7.635   1.423
 6578TIP3    H119611   5.824   7.602   1.333
 6578TIP3    H219612   5.919   7.617   1.450
 6579TIP3   OH219613   7.650   7.842   1.624
 6579TIP3    H119614   7.607   7.757   1.634
 6579TIP3    H219615   7.735   7.831   1.667
 6580TIP3   OH219616   7.496   7.447   1.076
 6580TIP3    H119617   7.554   7.483   1.010
 6580TIP3    H219618   7.464   7.523   1.125
 6581TIP3   OH219619   7.380   7.659   1.257
 6581TIP3    H119620   7.291   7.650   1.291
 6581TIP3    H219621   7.376   7.734   1.198
 6582TIP3   OH219622   6.063   7.323   2.074
 6582TIP3    H119623   6.157   7.319   2.090
 6582TIP3    H219624   6.028   7.241   2.109
 6583TIP3   OH219625   7.908   7.214   1.854
 6583TIP3    H119626   7.961   7.141   1.822
 6583TIP3    H219627   7.875   7.256   1.774
 6584TIP3   OH219628   6.032   7.037   1.458
 6584TIP3    H119629   6.091   6.962   1.456
 6584TIP3    H219630   6.086   7.111   1.431
 6585TIP3   OH219631   5.791   7.313   1.545
 6585TIP3    H119632   5.848   7.316   1.469
 6585TIP3    H219633   5.795   7.401   1.582
 6586TIP3   OH219634   7.738   7.316   1.664
 6586TIP3    H119635   7.671   7.367   1.711
 6586TIP3    H219636   7.692   7.240   1.630
 6587TIP3   OH219637   5.808   6.876   1.078
 6587TIP3    H119638   5.734   6.816   1.085
 6587TIP3    H219639   5.793   6.923   0.996
 6588TIP3   OH219640   6.030   6.855   1.802
 6588TIP3    H119641   5.981   6.850   1.884
 6588TIP3    H219642   5.976   6.910   1.745
 6589TIP3   OH219643   6.049   8.321   1.915
 6589TIP3    H119644   5.957   8.302   1.897
 6589TIP3    H219645   6.058   8.309   2.010
 6590TIP3   OH219646   6.220   8.359   1.494
 6590TIP3    H119647   6.149   8.391   1.438
 6590TIP3    H219648   6.289   8.426   1.486
 6591TIP3   OH219649   6.650   8.655   1.583
 6591TIP3    H119650   6.697   8.615   1.656
 6591TIP3    H219651   6.704   8.730   1.558
 6592TIP3   OH219652   6.918   8.679   1.470
 6592TIP3    H119653   6.991   8.686   1.407
 6592TIP3    H219654   6.935   8.749   1.533
 6593TIP3   OH219655   7.645   7.059   1.594
 6593TIP3    H119656   7.555   7.061   1.562
 6593TIP3    H219657   7.675   6.970   1.578
 6594TIP3   OH219658   5.908   8.572   1.545
 6594TIP3    H119659   5.833   8.594   1.490
 6594TIP3    H219660   5.920   8.649   1.601
 6595TIP3   OH219661   6.086   8.545   1.342
 6595TIP3    H119662   6.027   8.560   1.416
 6595TIP3    H219663   6.058   8.608   1.276
 6596TIP3   OH219664   6.623   8.704   0.963
 6596TIP3    H119665   6.542   8.674   0.922
 6596TIP3    H219666   6.602   8.711   1.056
 6597TIP3   OH219667   6.883   8.651   0.968
 6597TIP3    H119668   6.788   8.661   0.958
 6597TIP3    H219669   6.906   8.709   1.040
 6598TIP3   OH219670   7.180   8.658   1.002
 6598TIP3    H119671   7.096   8.701   0.988
 6598TIP3    H219672   7.225   8.666   0.918
 6599TIP3   OH219673   5.874   8.399   1.217
 6599TIP3    H119674   5.883   8.358   1.303
 6599TIP3    H219675   5.964   8.415   1.189
 6600TIP3   OH219676   6.026   8.161   1.021
 6600TIP3    H119677   6.003   8.147   1.113
 6600TIP3    H219678   6.101   8.220   1.024
 6601TIP3   OH219679   6.237   8.321   1.058
 6601TIP3    H119680   6.295   8.272   1.000
 6601TIP3    H219681   6.281   8.320   1.143
 6602TIP3   OH219682   6.911   7.020   1.250
 6602TIP3    H119683   6.820   7.000   1.232
 6602TIP3    H219684   6.959   6.982   1.175
 6603TIP3   OH219685   7.392   6.922   0.949
 6603TIP3    H119686   7.401   6.958   1.037
 6603TIP3    H219687   7.320   6.973   0.911
 6604TIP3   OH219688   7.610   6.997   0.729
 6604TIP3    H119689   7.699   7.008   0.764
 6604TIP3    H219690   7.564   7.077   0.756
 6605TIP3   OH219691   6.106   6.675   1.218
 6605TIP3    H119692   6.020   6.637   1.229
 6605TIP3    H219693   6.161   6.603   1.188
 6606TIP3   OH219694   5.923   6.664   0.939
 6606TIP3    H119695   5.833   6.662   0.907
 6606TIP3    H219696   5.925   6.737   1.001
 6607TIP3   OH219697   6.491   6.678   1.195
 6607TIP3    H119698   6.473   6.731   1.117
 6607TIP3    H219699   6.420   6.699   1.255
 6608TIP3   OH219700   7.092   6.958   1.051
 6608TIP3    H119701   7.121   6.980   0.962
 6608TIP3    H219702   7.148   6.885   1.077
 6609TIP3   OH219703   5.983   6.689   0.465
 6609TIP3    H119704   6.041   6.620   0.498
 6609TIP3    H219705   5.977   6.751   0.538
 6610TIP3   OH219706   6.516   6.897   0.691
 6610TIP3    H119707   6.532   6.851   0.773
 6610TIP3    H219708   6.596   6.947   0.675
 6611TIP3   OH219709   6.339   6.991   2.041
 6611TIP3    H119710   6.306   6.925   2.101
 6611TIP3    H219711   6.431   7.001   2.064
 6612TIP3   OH219712   6.587   6.997   2.164
 6612TIP3    H119713   6.666   6.976   2.115
 6612TIP3    H219714   6.581   6.929   2.231
 6613TIP3   OH219715   7.400   7.093   1.965
 6613TIP3    H119716   7.412   7.062   2.055
 6613TIP3    H219717   7.488   7.091   1.928
 6614TIP3   OH219718   7.363   8.630   1.407
 6614TIP3    H119719   7.300   8.621   1.336
 6614TIP3    H219720   7.334   8.707   1.456
 6615TIP3   OH219721   8.143   7.271   1.066
 6615TIP3    H119722   8.106   7.302   0.984
 6615TIP3    H219723   8.093   7.315   1.134
 6616TIP3   OH219724   8.066   8.046   1.223
 6616TIP3    H119725   8.064   8.133   1.262
 6616TIP3    H219726   8.010   8.053   1.146
 6617TIP3   OH219727   7.890   8.141   1.031
 6617TIP3    H119728   7.915   8.227   0.997
 6617TIP3    H219729   7.794   8.145   1.037
 6618TIP3   OH219730   8.890   7.333   1.078
 6618TIP3    H119731   8.943   7.295   1.149
 6618TIP3    H219732   8.847   7.258   1.037
 6619TIP3   OH219733   7.889   7.789   1.158
 6619TIP3    H119734   7.976   7.792   1.198
 6619TIP3    H219735   7.842   7.723   1.210
 6620TIP3   OH219736   8.026   8.265   1.375
 6620TIP3    H119737   8.101   8.311   1.338
 6620TIP3    H219738   8.054   8.239   1.463
 6621TIP3   OH219739   8.050   7.496   1.227
 6621TIP3    H119740   7.965   7.459   1.202
 6621TIP3    H219741   8.059   7.476   1.320
 6622TIP3   OH219742   7.855   7.066   0.836
 6622TIP3    H119743   7.905   7.050   0.756
 6622TIP3    H219744   7.880   6.995   0.895
 6623TIP3   OH219745   7.666   8.891   1.393
 6623TIP3    H119746   7.739   8.918   1.448
 6623TIP3    H219747   7.699   8.894   1.304
 6624TIP3   OH219748   7.668   8.114   1.538
 6624TIP3    H119749   7.756   8.114   1.577
 6624TIP3    H219750   7.647   8.207   1.527
 6625TIP3   OH219751   7.892   7.990   1.673
 6625TIP3    H119752   7.936   7.995   1.588
 6625TIP3    H219753   7.948   8.040   1.732
 6626TIP3   OH219754   8.266   7.933   1.043
 6626TIP3    H119755   8.236   7.943   1.134
 6626TIP3    H219756   8.189   7.902   0.995
 6627TIP3   OH219757   8.376   7.630   1.343
 6627TIP3    H119758   8.443   7.603   1.406
 6627TIP3    H219759   8.421   7.691   1.285
 6628TIP3   OH219760   8.569   7.409   1.077
 6628TIP3    H119761   8.625   7.483   1.100
 6628TIP3    H219762   8.480   7.439   1.095
 6629TIP3   OH219763   8.415   7.858   1.583
 6629TIP3    H119764   8.337   7.814   1.549
 6629TIP3    H219765   8.476   7.858   1.509
 6630TIP3   OH219766   8.588   7.228   1.289
 6630TIP3    H119767   8.561   7.271   1.208
 6630TIP3    H219768   8.606   7.137   1.263
 6631TIP3   OH219769   8.597   7.822   1.386
 6631TIP3    H119770   8.678   7.866   1.361
 6631TIP3    H219771   8.624   7.735   1.414
 6632TIP3   OH219772   8.072   7.506   1.759
 6632TIP3    H119773   8.122   7.489   1.679
 6632TIP3    H219774   8.134   7.489   1.830
 6633TIP3   OH219775   8.627   7.191   1.557
 6633TIP3    H119776   8.706   7.139   1.543
 6633TIP3    H219777   8.608   7.228   1.471
 6634TIP3   OH219778   8.611   7.400   1.741
 6634TIP3    H119779   8.592   7.329   1.680
 6634TIP3    H219780   8.540   7.463   1.726
 6635TIP3   OH219781   7.847   7.671   1.758
 6635TIP3    H119782   7.862   7.682   1.664
 6635TIP3    H219783   7.905   7.598   1.783
 6636TIP3   OH219784   7.765   7.363   0.769
 6636TIP3    H119785   7.763   7.269   0.788
 6636TIP3    H219786   7.849   7.392   0.804
 6637TIP3   OH219787   7.583   7.566   0.826
 6637TIP3    H119788   7.642   7.493   0.807
 6637TIP3    H219789   7.626   7.643   0.788
 6638TIP3   OH219790   7.770   7.087   1.350
 6638TIP3    H119791   7.755   7.074   1.443
 6638TIP3    H219792   7.714   7.161   1.326
 6639TIP3   OH219793   7.870   8.513   1.466
 6639TIP3    H119794   7.788   8.531   1.419
 6639TIP3    H219795   7.877   8.584   1.530
 6640TIP3   OH219796   8.126   7.216   1.602
 6640TIP3    H119797   8.083   7.142   1.646
 6640TIP3    H219798   8.214   7.219   1.639
 6641TIP3   OH219799   8.359   7.224   1.762
 6641TIP3    H119800   8.444   7.180   1.756
 6641TIP3    H219801   8.308   7.171   1.823
 6642TIP3   OH219802   9.287   7.259   1.430
 6642TIP3    H119803   9.223   7.205   1.477
 6642TIP3    H219804   9.318   7.321   1.496
 6643TIP3   OH219805   0.351   8.009   3.515
 6643TIP3    H119806   0.415   7.952   3.473
 6643TIP3    H219807   0.302   8.047   3.442
 6644TIP3   OH219808   0.196   8.107   3.307
 6644TIP3    H119809   0.115   8.127   3.354
 6644TIP3    H219810   0.173   8.033   3.251
 6645TIP3   OH219811   0.121   7.877   3.163
 6645TIP3    H119812   0.031   7.846   3.168
 6645TIP3    H219813   0.175   7.798   3.168
 6646TIP3   OH219814   1.886   8.300   2.312
 6646TIP3    H119815   1.905   8.389   2.344
 6646TIP3    H219816   1.919   8.300   2.223
 6647TIP3   OH219817   1.262   8.462   2.369
 6647TIP3    H119818   1.302   8.377   2.382
 6647TIP3    H219819   1.232   8.461   2.278
 6648TIP3   OH219820   1.347   8.261   1.949
 6648TIP3    H119821   1.398   8.235   2.026
 6648TIP3    H219822   1.413   8.272   1.880
 6649TIP3   OH219823   1.954   8.512   2.489
 6649TIP3    H119824   1.892   8.576   2.457
 6649TIP3    H219825   1.910   8.469   2.563
 6650TIP3   OH219826   0.597   8.139   2.742
 6650TIP3    H119827   0.552   8.172   2.665
 6650TIP3    H219828   0.538   8.157   2.815
 6651TIP3   OH219829   1.494   8.221   2.174
 6651TIP3    H119830   1.457   8.211   2.261
 6651TIP3    H219831   1.551   8.298   2.181
 6652TIP3   OH219832   0.490   8.233   2.506
 6652TIP3    H119833   0.518   8.323   2.524
 6652TIP3    H219834   0.497   8.224   2.411
 6653TIP3   OH219835   1.690   8.208   2.495
 6653TIP3    H119836   1.604   8.225   2.455
 6653TIP3    H219837   1.752   8.227   2.425
 6654TIP3   OH219838   0.963   7.855   2.502
 6654TIP3    H119839   0.955   7.761   2.520
 6654TIP3    H219840   0.882   7.893   2.536
 6655TIP3   OH219841   1.532   8.830   2.626
 6655TIP3    H119842   1.547   8.925   2.622
 6655TIP3    H219843   1.459   8.816   2.566
 6656TIP3   OH219844   1.578   7.809   1.542
 6656TIP3    H119845   1.508   7.833   1.602
 6656TIP3    H219846   1.597   7.889   1.493
 6657TIP3   OH219847   1.749   8.684   2.726
 6657TIP3    H119848   1.661   8.709   2.696
 6657TIP3    H219849   1.751   8.589   2.718
 6658TIP3   OH219850   0.715   7.930   2.607
 6658TIP3    H119851   0.634   7.893   2.571
 6658TIP3    H219852   0.687   8.012   2.648
 6659TIP3   OH219853   1.255   8.058   2.829
 6659TIP3    H119854   1.328   8.025   2.881
 6659TIP3    H219855   1.177   8.026   2.874
 6660TIP3   OH219856   1.531   8.440   2.788
 6660TIP3    H119857   1.483   8.445   2.871
 6660TIP3    H219858   1.479   8.493   2.727
 6661TIP3   OH219859   0.558   8.487   2.580
 6661TIP3    H119860   0.523   8.485   2.669
 6661TIP3    H219861   0.531   8.573   2.546
 6662TIP3   OH219862   1.214   8.655   2.911
 6662TIP3    H119863   1.212   8.578   2.967
 6662TIP3    H219864   1.306   8.682   2.910
 6663TIP3   OH219865   1.173   8.418   2.116
 6663TIP3    H119866   1.110   8.472   2.069
 6663TIP3    H219867   1.197   8.349   2.054
 6664TIP3   OH219868   0.478   8.459   2.849
 6664TIP3    H119869   0.406   8.509   2.888
 6664TIP3    H219870   0.474   8.374   2.892
 6665TIP3   OH219871   1.308   8.790   2.471
 6665TIP3    H119872   1.316   8.786   2.375
 6665TIP3    H219873   1.214   8.800   2.487
 6666TIP3   OH219874   0.924   8.124   2.203
 6666TIP3    H119875   0.855   8.183   2.234
 6666TIP3    H219876   0.990   8.128   2.271
 6667TIP3   OH219877   1.371   8.218   2.429
 6667TIP3    H119878   1.355   8.235   2.521
 6667TIP3    H219879   1.303   8.157   2.403
 6668TIP3   OH219880   0.908   8.440   2.335
 6668TIP3    H119881   0.968   8.423   2.263
 6668TIP3    H219882   0.943   8.518   2.379
 6669TIP3   OH219883   0.868   8.386   2.626
 6669TIP3    H119884   0.862   8.392   2.530
 6669TIP3    H219885   0.956   8.419   2.646
 6670TIP3   OH219886   1.035   8.824   3.039
 6670TIP3    H119887   0.963   8.827   2.977
 6670TIP3    H219888   1.101   8.769   2.996
 6671TIP3   OH219889   0.462   8.206   2.976
 6671TIP3    H119890   0.393   8.140   2.972
 6671TIP3    H219891   0.513   8.184   3.055
 6672TIP3   OH219892   1.308   8.285   2.691
 6672TIP3    H119893   1.391   8.311   2.732
 6672TIP3    H219894   1.282   8.205   2.738
 6673TIP3   OH219895   1.159   8.112   1.825
 6673TIP3    H119896   1.203   8.080   1.747
 6673TIP3    H219897   1.225   8.165   1.870
 6674TIP3   OH219898   1.109   8.482   2.713
 6674TIP3    H119899   1.132   8.534   2.790
 6674TIP3    H219900   1.175   8.413   2.709
 6675TIP3   OH219901   1.068   7.953   2.035
 6675TIP3    H119902   1.027   8.010   2.100
 6675TIP3    H219903   1.103   8.013   1.969
 6676TIP3   OH219904   1.776   8.393   2.690
 6676TIP3    H119905   1.696   8.401   2.741
 6676TIP3    H219906   1.755   8.330   2.621
 6677TIP3   OH219907   1.408   8.557   2.028
 6677TIP3    H119908   1.339   8.499   2.060
 6677TIP3    H219909   1.485   8.533   2.080
 6678TIP3   OH219910   0.459   7.829   2.558
 6678TIP3    H119911   0.446   7.781   2.476
 6678TIP3    H219912   0.445   7.763   2.626
 6679TIP3   OH219913   0.506   8.756   3.211
 6679TIP3    H119914   0.535   8.666   3.196
 6679TIP3    H219915   0.425   8.748   3.260
 6680TIP3   OH219916   0.737   8.550   2.820
 6680TIP3    H119917   0.645   8.525   2.831
 6680TIP3    H219918   0.765   8.505   2.741
 6681TIP3   OH219919   0.845   8.379   3.012
 6681TIP3    H119920   0.843   8.299   2.959
 6681TIP3    H219921   0.810   8.447   2.954
 6682TIP3   OH219922   0.851   8.187   2.814
 6682TIP3    H119923   0.869   8.250   2.744
 6682TIP3    H219924   0.760   8.160   2.799
 6683TIP3   OH219925   1.449   8.640   3.171
 6683TIP3    H119926   1.439   8.564   3.113
 6683TIP3    H219927   1.521   8.690   3.132
 6684TIP3   OH219928   0.628   8.519   3.189
 6684TIP3    H119929   0.610   8.431   3.222
 6684TIP3    H219930   0.721   8.517   3.166
 6685TIP3   OH219931   0.995   7.971   2.896
 6685TIP3    H119932   0.952   8.051   2.866
 6685TIP3    H219933   0.930   7.902   2.882
 6686TIP3   OH219934   1.114   8.416   3.044
 6686TIP3    H119935   1.112   8.465   3.127
 6686TIP3    H219936   1.023   8.392   3.028
 6687TIP3   OH219937   1.382   8.426   3.012
 6687TIP3    H119938   1.295   8.390   3.027
 6687TIP3    H219939   1.440   8.370   3.063
 6688TIP3   OH219940   1.612   8.360   3.151
 6688TIP3    H119941   1.630   8.266   3.147
 6688TIP3    H219942   1.606   8.380   3.244
 6689TIP3   OH219943   0.581   8.272   3.301
 6689TIP3    H119944   0.587   8.184   3.264
 6689TIP3    H219945   0.620   8.265   3.388
 6690TIP3   OH219946   1.060   7.960   3.160
 6690TIP3    H119947   1.132   7.898   3.152
 6690TIP3    H219948   1.026   7.970   3.071
 6691TIP3   OH219949   1.153   8.172   3.305
 6691TIP3    H119950   1.129   8.098   3.250
 6691TIP3    H219951   1.077   8.229   3.305
 6692TIP3   OH219952   1.522   8.571   1.769
 6692TIP3    H119953   1.509   8.479   1.747
 6692TIP3    H219954   1.479   8.582   1.854
 6693TIP3   OH219955   2.069   8.860   2.647
 6693TIP3    H119956   1.990   8.862   2.593
 6693TIP3    H219957   2.073   8.770   2.680
 6694TIP3   OH219958   1.469   8.311   1.703
 6694TIP3    H119959   1.518   8.229   1.702
 6694TIP3    H219960   1.440   8.322   1.612
 6695TIP3   OH219961   1.624   8.460   2.200
 6695TIP3    H119962   1.705   8.490   2.160
 6695TIP3    H219963   1.635   8.478   2.294
 6696TIP3   OH219964   1.647   8.552   2.462
 6696TIP3    H119965   1.567   8.544   2.515
 6696TIP3    H219966   1.637   8.635   2.416
 6697TIP3   OH219967   0.320   8.358   3.285
 6697TIP3    H119968   0.411   8.330   3.273
 6697TIP3    H219969   0.270   8.277   3.287
 6698TIP3   OH219970   2.164   8.262   2.992
 6698TIP3    H119971   2.225   8.198   2.955
 6698TIP3    H219972   2.126   8.305   2.915
 6699TIP3   OH219973   1.587   8.068   1.762
 6699TIP3    H119974   1.627   8.058   1.849
 6699TIP3    H219975   1.521   7.999   1.758
 6700TIP3   OH219976   0.318   8.053   2.662
 6700TIP3    H119977   0.362   7.977   2.625
 6700TIP3    H219978   0.344   8.126   2.606
 6701TIP3   OH219979   2.034   8.349   2.766
 6701TIP3    H119980   1.939   8.361   2.761
 6701TIP3    H219981   2.052   8.276   2.707
 6702TIP3   OH219982   1.657   8.014   1.366
 6702TIP3    H119983   1.701   7.955   1.305
 6702TIP3    H219984   1.719   8.086   1.379
 6703TIP3   OH219985   0.297   7.984   2.957
 6703TIP3    H119986   0.222   7.956   3.010
 6703TIP3    H219987   0.262   7.994   2.869
 6704TIP3   OH219988   1.912   8.080   2.724
 6704TIP3    H119989   1.829   8.080   2.677
 6704TIP3    H219990   1.966   8.017   2.678
 6705TIP3   OH219991   1.149   8.053   2.360
 6705TIP3    H119992   1.101   7.982   2.403
 6705TIP3    H219993   1.214   8.008   2.305
 6706TIP3   OH219994   1.653   7.950   2.229
 6706TIP3    H119995   1.685   8.006   2.159
 6706TIP3    H219996   1.560   7.972   2.237
 6707TIP3   OH219997   1.746   8.053   1.989
 6707TIP3    H119998   1.818   7.996   1.963
 6707TIP3    H219999   1.776   8.141   1.969
 6708TIP3   OH220000   0.825   7.762   2.269
 6708TIP3    H120001   0.793   7.827   2.206
 6708TIP3    H220002   0.882   7.812   2.328
 6709TIP3   OH220003   1.357   7.930   2.227
 6709TIP3    H120004   1.359   7.898   2.137
 6709TIP3    H220005   1.360   7.851   2.280
 6710TIP3   OH220006   1.394   7.869   1.744
 6710TIP3    H120007   1.303   7.867   1.716
 6710TIP3    H220008   1.402   7.795   1.804
 6711TIP3   OH220009   0.603   8.015   3.206
 6711TIP3    H120010   0.564   7.955   3.269
 6711TIP3    H220011   0.695   8.021   3.233
 6712TIP3   OH220012   0.846   8.022   3.333
 6712TIP3    H120013   0.924   7.999   3.283
 6712TIP3    H220014   0.839   7.954   3.400
 6713TIP3   OH220015   1.672   8.098   3.127
 6713TIP3    H120016   1.693   8.068   3.216
 6713TIP3    H220017   1.756   8.098   3.082
 6714TIP3   OH220018   1.811   8.459   1.613
 6714TIP3    H120019   1.755   8.527   1.577
 6714TIP3    H220020   1.781   8.448   1.704
 6715TIP3   OH220021   3.694   8.578   1.815
 6715TIP3    H120022   3.719   8.663   1.853
 6715TIP3    H220023   3.732   8.579   1.727
 6716TIP3   OH220024   3.072   8.767   1.831
 6716TIP3    H120025   3.103   8.679   1.853
 6716TIP3    H220026   3.028   8.757   1.747
 6717TIP3   OH220027   2.428   8.402   1.772
 6717TIP3    H120028   2.404   8.479   1.722
 6717TIP3    H220029   2.372   8.332   1.738
 6718TIP3   OH220030   3.112   8.509   1.434
 6718TIP3    H120031   3.175   8.498   1.505
 6718TIP3    H220032   3.163   8.542   1.361
 6719TIP3   OH220033   2.055   8.580   1.938
 6719TIP3    H120034   2.148   8.568   1.961
 6719TIP3    H220035   2.051   8.559   1.845
 6720TIP3   OH220036   2.477   8.782   1.779
 6720TIP3    H120037   2.568   8.765   1.753
 6720TIP3    H220038   2.424   8.736   1.714
 6721TIP3   OH220039   3.773   8.798   1.974
 6721TIP3    H120040   3.683   8.831   1.966
 6721TIP3    H220041   3.804   8.833   2.058
 6722TIP3   OH220042   2.405   8.384   2.244
 6722TIP3    H120043   2.343   8.411   2.177
 6722TIP3    H220044   2.355   8.389   2.326
 6723TIP3   OH220045   3.274   8.517   1.652
 6723TIP3    H120046   3.231   8.505   1.737
 6723TIP3    H220047   3.334   8.590   1.665
 6724TIP3   OH220048   2.308   8.487   2.006
 6724TIP3    H120049   2.378   8.549   2.026
 6724TIP3    H220050   2.340   8.438   1.930
 6725TIP3   OH220051   3.489   8.483   1.979
 6725TIP3    H120052   3.405   8.497   1.934
 6725TIP3    H220053   3.555   8.505   1.914
 6726TIP3   OH220054   2.755   8.102   1.973
 6726TIP3    H120055   2.748   8.009   1.997
 6726TIP3    H220056   2.676   8.142   2.009
 6727TIP3   OH220057   2.643   8.703   0.979
 6727TIP3    H120058   2.735   8.684   1.001
 6727TIP3    H220059   2.630   8.662   0.894
 6728TIP3   OH220060   3.321   9.042   2.061
 6728TIP3    H120061   3.306   9.136   2.057
 6728TIP3    H220062   3.234   9.003   2.053
 6729TIP3   OH220063   3.365   8.061   1.074
 6729TIP3    H120064   3.291   8.085   1.129
 6729TIP3    H220065   3.382   8.138   1.020
 6730TIP3   OH220066   3.524   8.963   2.241
 6730TIP3    H120067   3.457   8.977   2.174
 6730TIP3    H220068   3.543   8.869   2.236
 6731TIP3   OH220069   2.514   8.184   2.087
 6731TIP3    H120070   2.431   8.149   2.053
 6731TIP3    H220071   2.488   8.257   2.143
 6732TIP3   OH220072   3.047   8.323   2.300
 6732TIP3    H120073   3.118   8.298   2.359
 6732TIP3    H220074   2.967   8.296   2.347
 6733TIP3   OH220075   3.285   8.763   2.204
 6733TIP3    H120076   3.251   8.732   2.288
 6733TIP3    H220077   3.215   8.820   2.170
 6734TIP3   OH220078   2.654   8.248   1.059
 6734TIP3    H120079   2.626   8.252   1.150
 6734TIP3    H220080   2.622   8.162   1.029
 6735TIP3   OH220081   2.464   8.726   2.038
 6735TIP3    H120082   2.372   8.739   2.061
 6735TIP3    H220083   2.470   8.752   1.946
 6736TIP3   OH220084   2.322   8.610   1.627
 6736TIP3    H120085   2.231   8.590   1.647
 6736TIP3    H220086   2.335   8.575   1.540
 6737TIP3   OH220087   2.818   8.698   1.340
 6737TIP3    H120088   2.765   8.768   1.302
 6737TIP3    H220089   2.877   8.671   1.269
 6738TIP3   OH220090   3.017   8.910   2.422
 6738TIP3    H120091   2.987   8.831   2.467
 6738TIP3    H220092   3.106   8.925   2.455
 6739TIP3   OH220093   2.964   8.694   1.583
 6739TIP3    H120094   2.905   8.718   1.512
 6739TIP3    H220095   3.015   8.621   1.548
 6740TIP3   OH220096   2.327   8.686   2.328
 6740TIP3    H120097   2.295   8.750   2.392
 6740TIP3    H220098   2.301   8.601   2.365
 6741TIP3   OH220099   2.317   8.220   1.023
 6741TIP3    H120100   2.319   8.227   1.119
 6741TIP3    H220101   2.225   8.225   1.000
 6742TIP3   OH220102   1.856   8.283   1.882
 6742TIP3    H120103   1.928   8.300   1.944
 6742TIP3    H220104   1.897   8.233   1.812
 6743TIP3   OH220105   1.815   8.253   1.424
 6743TIP3    H120106   1.863   8.286   1.348
 6743TIP3    H220107   1.810   8.328   1.484
 6744TIP3   OH220108   3.071   8.922   2.056
 6744TIP3    H120109   3.075   8.883   1.969
 6744TIP3    H220110   3.000   8.875   2.100
 6745TIP3   OH220111   2.698   8.392   1.676
 6745TIP3    H120112   2.615   8.394   1.725
 6745TIP3    H220113   2.766   8.391   1.744
 6746TIP3   OH220114   2.084   8.478   1.681
 6746TIP3    H120115   1.996   8.469   1.645
 6746TIP3    H220116   2.123   8.391   1.670
 6747TIP3   OH220117   2.356   8.479   1.390
 6747TIP3    H120118   2.448   8.497   1.371
 6747TIP3    H220119   2.309   8.503   1.310
 6748TIP3   OH220120   3.131   8.502   1.894
 6748TIP3    H120121   3.113   8.518   1.987
 6748TIP3    H220122   3.065   8.438   1.868
 6749TIP3   OH220123   2.191   8.490   1.167
 6749TIP3    H120124   2.163   8.418   1.111
 6749TIP3    H220125   2.252   8.540   1.113
 6750TIP3   OH220126   2.742   8.707   1.763
 6750TIP3    H120127   2.820   8.695   1.709
 6750TIP3    H220128   2.761   8.661   1.845
 6751TIP3   OH220129   2.228   8.233   1.666
 6751TIP3    H120130   2.201   8.158   1.719
 6751TIP3    H220131   2.254   8.195   1.583
 6752TIP3   OH220132   2.724   8.619   2.036
 6752TIP3    H120133   2.638   8.661   2.030
 6752TIP3    H220134   2.776   8.680   2.087
 6753TIP3   OH220135   2.904   8.356   1.079
 6753TIP3    H120136   2.812   8.333   1.068
 6753TIP3    H220137   2.906   8.451   1.073
 6754TIP3   OH220138   2.982   8.632   1.117
 6754TIP3    H120139   3.067   8.608   1.155
 6754TIP3    H220140   3.003   8.674   1.034
 6755TIP3   OH220141   2.833   9.097   2.530
 6755TIP3    H120142   2.778   9.109   2.452
 6755TIP3    H220143   2.908   9.047   2.499
 6756TIP3   OH220144   3.383   8.706   0.993
 6756TIP3    H120145   3.332   8.674   0.918
 6756TIP3    H220146   3.389   8.800   0.980
 6757TIP3   OH220147   2.242   8.456   2.464
 6757TIP3    H120148   2.147   8.463   2.471
 6757TIP3    H220149   2.265   8.390   2.530
 6758TIP3   OH220150   3.075   8.556   2.161
 6758TIP3    H120151   3.154   8.588   2.203
 6758TIP3    H220152   3.055   8.474   2.206
 6759TIP3   OH220153   2.965   8.293   1.342
 6759TIP3    H120154   2.943   8.315   1.252
 6759TIP3    H220155   3.009   8.371   1.376
 6760TIP3   OH220156   2.641   8.495   1.422
 6760TIP3    H120157   2.703   8.564   1.397
 6760TIP3    H220158   2.661   8.476   1.513
 6761TIP3   OH220159   2.896   8.768   2.200
 6761TIP3    H120160   2.918   8.805   2.285
 6761TIP3    H220161   2.948   8.688   2.194
 6762TIP3   OH220162   2.787   8.182   1.520
 6762TIP3    H120163   2.762   8.259   1.571
 6762TIP3    H220164   2.855   8.214   1.460
 6763TIP3   OH220165   2.315   8.212   1.309
 6763TIP3    H120166   2.304   8.301   1.344
 6763TIP3    H220167   2.409   8.196   1.315
 6764TIP3   OH220168   3.542   8.679   2.185
 6764TIP3    H120169   3.450   8.704   2.196
 6764TIP3    H220170   3.541   8.613   2.116
 6765TIP3   OH220171   3.219   8.848   1.539
 6765TIP3    H120172   3.133   8.816   1.566
 6765TIP3    H220173   3.279   8.816   1.607
 6766TIP3   OH220174   2.249   8.112   2.048
 6766TIP3    H120175   2.219   8.078   1.964
 6766TIP3    H220176   2.240   8.038   2.108
 6767TIP3   OH220177   2.306   9.013   2.740
 6767TIP3    H120178   2.357   8.938   2.707
 6767TIP3    H220179   2.216   8.994   2.713
 6768TIP3   OH220180   2.566   8.808   2.284
 6768TIP3    H120181   2.488   8.761   2.314
 6768TIP3    H220182   2.570   8.790   2.190
 6769TIP3   OH220183   2.380   8.607   1.014
 6769TIP3    H120184   2.351   8.602   0.923
 6769TIP3    H220185   2.467   8.647   1.009
 6770TIP3   OH220186   2.672   8.616   2.465
 6770TIP3    H120187   2.667   8.542   2.404
 6770TIP3    H220188   2.648   8.692   2.412
 6771TIP3   OH220189   2.670   8.447   2.250
 6771TIP3    H120190   2.692   8.487   2.166
 6771TIP3    H220191   2.577   8.426   2.243
 6772TIP3   OH220192   3.246   8.880   2.600
 6772TIP3    H120193   3.300   8.801   2.596
 6772TIP3    H220194   3.295   8.944   2.548
 6773TIP3   OH220195   2.464   8.788   2.712
 6773TIP3    H120196   2.435   8.699   2.729
 6773TIP3    H220197   2.534   8.778   2.647
 6774TIP3   OH220198   2.794   8.242   2.379
 6774TIP3    H120199   2.754   8.317   2.336
 6774TIP3    H220200   2.730   8.172   2.370
 6775TIP3   OH220201   2.935   8.665   2.523
 6775TIP3    H120202   2.932   8.690   2.616
 6775TIP3    H220203   2.847   8.636   2.503
 6776TIP3   OH220204   3.190   8.640   2.423
 6776TIP3    H120205   3.103   8.631   2.463
 6776TIP3    H220206   3.251   8.621   2.494
 6777TIP3   OH220207   3.398   8.638   2.618
 6777TIP3    H120208   3.418   8.545   2.612
 6777TIP3    H220209   3.399   8.657   2.712
 6778TIP3   OH220210   2.376   8.547   2.796
 6778TIP3    H120211   2.372   8.461   2.753
 6778TIP3    H220212   2.418   8.530   2.880
 6779TIP3   OH220213   2.847   8.223   2.648
 6779TIP3    H120214   2.916   8.157   2.639
 6779TIP3    H220215   2.816   8.237   2.558
 6780TIP3   OH220216   2.961   8.427   2.789
 6780TIP3    H120217   2.930   8.354   2.736
 6780TIP3    H220218   2.890   8.491   2.787
 6781TIP3   OH220219   3.232   8.612   0.791
 6781TIP3    H120220   3.184   8.640   0.713
 6781TIP3    H220221   3.227   8.517   0.789
 6782TIP3   OH220222   3.355   8.832   1.299
 6782TIP3    H120223   3.314   8.748   1.280
 6782TIP3    H220224   3.314   8.862   1.380
 6783TIP3   OH220225   3.766   9.087   2.292
 6783TIP3    H120226   3.678   9.063   2.263
 6783TIP3    H220227   3.823   9.020   2.255
 6784TIP3   OH220228   3.185   8.343   0.759
 6784TIP3    H120229   3.258   8.307   0.810
 6784TIP3    H220230   3.111   8.286   0.778
 6785TIP3   OH220231   3.250   8.581   1.201
 6785TIP3    H120232   3.296   8.498   1.217
 6785TIP3    H220233   3.297   8.621   1.128
 6786TIP3   OH220234   3.418   8.745   1.713
 6786TIP3    H120235   3.492   8.777   1.661
 6786TIP3    H220236   3.439   8.770   1.803
 6787TIP3   OH220237   3.517   8.899   1.926
 6787TIP3    H120238   3.446   8.946   1.969
 6787TIP3    H220239   3.534   8.949   1.846
 6788TIP3   OH220240   2.118   8.613   2.748
 6788TIP3    H120241   2.211   8.589   2.747
 6788TIP3    H220242   2.072   8.529   2.749
 6789TIP3   OH220243   3.946   8.521   2.481
 6789TIP3    H120244   4.012   8.462   2.446
 6789TIP3    H220245   3.909   8.565   2.405
 6790TIP3   OH220246   3.375   8.344   1.263
 6790TIP3    H120247   3.420   8.328   1.346
 6790TIP3    H220248   3.313   8.272   1.256
 6791TIP3   OH220249   2.057   8.308   2.075
 6791TIP3    H120250   2.123   8.239   2.077
 6791TIP3    H220251   2.106   8.388   2.059
 6792TIP3   OH220252   1.877   8.568   2.148
 6792TIP3    H120253   1.930   8.554   2.069
 6792TIP3    H220254   1.885   8.662   2.166
 6793TIP3   OH220255   3.796   8.618   2.273
 6793TIP3    H120256   3.709   8.658   2.266
 6793TIP3    H220257   3.788   8.534   2.229
 6794TIP3   OH220258   3.410   8.276   0.903
 6794TIP3    H120259   3.456   8.213   0.848
 6794TIP3    H220260   3.471   8.349   0.912
 6795TIP3   OH220261   1.850   8.100   1.652
 6795TIP3    H120262   1.762   8.082   1.687
 6795TIP3    H220263   1.834   8.154   1.575
 6796TIP3   OH220264   2.078   8.198   2.487
 6796TIP3    H120265   2.064   8.103   2.495
 6796TIP3    H220266   2.013   8.226   2.423
 6797TIP3   OH220267   3.716   8.365   2.186
 6797TIP3    H120268   3.627   8.348   2.156
 6797TIP3    H220269   3.760   8.281   2.180
 6798TIP3   OH220270   2.928   8.312   1.827
 6798TIP3    H120271   2.886   8.239   1.873
 6798TIP3    H220272   2.994   8.271   1.772
 6799TIP3   OH220273   3.421   8.233   1.724
 6799TIP3    H120274   3.458   8.277   1.648
 6799TIP3    H220275   3.326   8.247   1.715
 6800TIP3   OH220276   3.537   8.295   1.483
 6800TIP3    H120277   3.606   8.236   1.451
 6800TIP3    H220278   3.573   8.382   1.471
 6801TIP3   OH220279   2.158   8.006   1.810
 6801TIP3    H120280   2.070   7.972   1.824
 6801TIP3    H220281   2.214   7.928   1.808
 6802TIP3   OH220282   1.978   7.909   1.486
 6802TIP3    H120283   2.011   7.960   1.411
 6802TIP3    H220284   1.942   7.975   1.546
 6803TIP3   OH220285   2.637   8.046   1.717
 6803TIP3    H120286   2.685   8.090   1.647
 6803TIP3    H220287   2.681   8.074   1.798
 6804TIP3   OH220288   3.136   8.191   1.689
 6804TIP3    H120289   3.151   8.157   1.601
 6804TIP3    H220290   3.141   8.114   1.746
 6805TIP3   OH220291   3.185   8.142   1.265
 6805TIP3    H120292   3.104   8.188   1.287
 6805TIP3    H220293   3.175   8.055   1.302
 6806TIP3   OH220294   2.098   8.043   1.264
 6806TIP3    H120295   2.126   7.976   1.201
 6806TIP3    H220296   2.179   8.089   1.287
 6807TIP3   OH220297   2.588   8.243   1.326
 6807TIP3    H120298   2.642   8.189   1.383
 6807TIP3    H220299   2.604   8.333   1.356
 6808TIP3   OH220300   2.371   8.292   2.706
 6808TIP3    H120301   2.336   8.208   2.735
 6808TIP3    H220302   2.465   8.287   2.726
 6809TIP3   OH220303   2.628   8.289   2.826
 6809TIP3    H120304   2.703   8.265   2.772
 6809TIP3    H220305   2.617   8.215   2.886
 6810TIP3   OH220306   3.462   8.371   2.608
 6810TIP3    H120307   3.479   8.344   2.698
 6810TIP3    H220308   3.548   8.368   2.565
 6811TIP3   OH220309   3.601   8.771   1.164
 6811TIP3    H120310   3.553   8.816   1.233
 6811TIP3    H220311   3.534   8.734   1.107
 6812TIP3   OH220312   5.475   8.852   1.412
 6812TIP3    H120313   5.520   8.925   1.455
 6812TIP3    H220314   5.405   8.894   1.362
 6813TIP3   OH220315   4.864   9.029   1.348
 6813TIP3    H120316   4.867   8.937   1.373
 6813TIP3    H220317   4.794   9.034   1.283
 6814TIP3   OH220318   4.169   8.737   1.332
 6814TIP3    H120319   4.149   8.792   1.256
 6814TIP3    H220320   4.201   8.655   1.294
 6815TIP3   OH220321   4.824   8.821   1.022
 6815TIP3    H120322   4.889   8.752   1.036
 6815TIP3    H220323   4.809   8.820   0.928
 6816TIP3   OH220324   3.820   8.851   1.426
 6816TIP3    H120325   3.907   8.846   1.464
 6816TIP3    H220326   3.831   8.823   1.335
 6817TIP3   OH220327   4.229   9.065   1.310
 6817TIP3    H120328   4.324   9.077   1.308
 6817TIP3    H220329   4.206   9.036   1.222
 6818TIP3   OH220330   5.569   9.088   1.512
 6818TIP3    H120331   5.484   9.129   1.502
 6818TIP3    H220332   5.605   9.126   1.592
 6819TIP3   OH220333   4.203   8.653   1.742
 6819TIP3    H120334   4.151   8.699   1.676
 6819TIP3    H220335   4.154   8.665   1.824
 6820TIP3   OH220336   5.159   8.734   1.267
 6820TIP3    H120337   5.101   8.724   1.191
 6820TIP3    H220338   5.178   8.827   1.270
 6821TIP3   OH220339   4.061   8.803   1.564
 6821TIP3    H120340   4.114   8.879   1.588
 6821TIP3    H220341   4.098   8.774   1.480
 6822TIP3   OH220342   5.273   8.702   1.514
 6822TIP3    H120343   5.209   8.711   1.443
 6822TIP3    H220344   5.354   8.737   1.477
 6823TIP3   OH220345   4.542   8.355   1.481
 6823TIP3    H120346   4.534   8.264   1.509
 6823TIP3    H220347   4.462   8.397   1.516
 6824TIP3   OH220348   8.376   0.062   1.593
 6824TIP3    H120349   8.372   0.158   1.598
 6824TIP3    H220350   8.287   0.036   1.569
 6825TIP3   OH220351   5.236   8.362   0.521
 6825TIP3    H120352   5.157   8.368   0.466
 6825TIP3    H220353   5.269   8.452   0.525
 6826TIP3   OH220354   5.353   9.241   1.750
 6826TIP3    H120355   5.267   9.261   1.711
 6826TIP3    H220356   5.358   9.146   1.750
 6827TIP3   OH220357   4.303   8.450   1.584
 6827TIP3    H120358   4.218   8.418   1.554
 6827TIP3    H220359   4.283   8.530   1.632
 6828TIP3   OH220360   4.846   8.570   1.792
 6828TIP3    H120361   4.917   8.548   1.852
 6828TIP3    H220362   4.766   8.546   1.840
 6829TIP3   OH220363   5.077   8.998   1.710
 6829TIP3    H120364   5.046   8.982   1.799
 6829TIP3    H220365   5.039   9.082   1.686
 6830TIP3   OH220366   4.463   8.464   0.479
 6830TIP3    H120367   4.473   8.552   0.442
 6830TIP3    H220368   4.546   8.421   0.459
 6831TIP3   OH220369   4.238   9.026   1.578
 6831TIP3    H120370   4.168   9.083   1.611
 6831TIP3    H220371   4.237   9.039   1.483
 6832TIP3   OH220372   4.114   8.846   1.084
 6832TIP3    H120373   4.023   8.836   1.112
 6832TIP3    H220374   4.119   8.798   1.002
 6833TIP3   OH220375   4.603   8.899   0.837
 6833TIP3    H120376   4.545   8.971   0.859
 6833TIP3    H220377   4.664   8.935   0.772
 6834TIP3   OH220378   4.887   9.186   1.846
 6834TIP3    H120379   4.906   9.108   1.898
 6834TIP3    H220380   4.928   9.257   1.895
 6835TIP3   OH220381   4.685   9.017   1.145
 6835TIP3    H120382   4.650   9.070   1.073
 6835TIP3    H220383   4.721   8.939   1.102
 6836TIP3   OH220384   4.089   8.994   1.855
 6836TIP3    H120385   3.996   9.018   1.864
 6836TIP3    H220386   4.093   8.903   1.886
 6837TIP3   OH220387   4.067   8.637   0.432
 6837TIP3    H120388   4.122   8.629   0.510
 6837TIP3    H220389   4.106   8.576   0.369
 6838TIP3   OH220390   3.663   8.522   1.415
 6838TIP3    H120391   3.736   8.563   1.462
 6838TIP3    H220392   3.695   8.511   1.326
 6839TIP3   OH220393   3.566   8.507   0.934
 6839TIP3    H120394   3.614   8.552   0.864
 6839TIP3    H220395   3.500   8.571   0.962
 6840TIP3   OH220396   4.850   9.234   1.521
 6840TIP3    H120397   4.858   9.159   1.462
 6840TIP3    H220398   4.785   9.207   1.586
 6841TIP3   OH220399   4.480   8.759   1.219
 6841TIP3    H120400   4.405   8.715   1.260
 6841TIP3    H220401   4.556   8.726   1.267
 6842TIP3   OH220402   3.874   8.739   1.172
 6842TIP3    H120403   3.780   8.747   1.155
 6842TIP3    H220404   3.895   8.649   1.148
 6843TIP3   OH220405   4.116   8.717   0.834
 6843TIP3    H120406   4.162   8.659   0.772
 6843TIP3    H220407   4.051   8.762   0.781
 6844TIP3   OH220408   4.865   8.767   1.401
 6844TIP3    H120409   4.853   8.770   1.496
 6844TIP3    H220410   4.825   8.684   1.375
 6845TIP3   OH220411   3.974   8.831   0.614
 6845TIP3    H120412   3.911   8.900   0.597
 6845TIP3    H220413   4.014   8.813   0.529
 6846TIP3   OH220414   4.501   9.056   1.348
 6846TIP3    H120415   4.565   9.053   1.276
 6846TIP3    H220416   4.524   8.981   1.403
 6847TIP3   OH220417   3.993   8.478   1.135
 6847TIP3    H120418   3.969   8.409   1.197
 6847TIP3    H220419   4.084   8.499   1.158
 6848TIP3   OH220420   4.492   8.899   1.582
 6848TIP3    H120421   4.410   8.948   1.576
 6848TIP3    H220422   4.556   8.962   1.616
 6849TIP3   OH220423   4.434   9.268   2.075
 6849TIP3    H120424   4.420   9.250   1.982
 6849TIP3    H220425   4.390   9.196   2.120
 6850TIP3   OH220426   4.047   8.729   1.955
 6850TIP3    H120427   3.951   8.737   1.955
 6850TIP3    H220428   4.065   8.672   2.030
 6851TIP3   OH220429   4.855   8.818   1.671
 6851TIP3    H120430   4.943   8.853   1.686
 6851TIP3    H220431   4.853   8.736   1.721
 6852TIP3   OH220432   4.576   8.682   0.676
 6852TIP3    H120433   4.661   8.679   0.631
 6852TIP3    H220434   4.582   8.759   0.733
 6853TIP3   OH220435   4.441   8.697   0.957
 6853TIP3    H120436   4.469   8.769   0.900
 6853TIP3    H220437   4.449   8.732   1.046
 6854TIP3   OH220438   4.697   9.047   1.695
 6854TIP3    H120439   4.744   9.099   1.760
 6854TIP3    H220440   4.747   8.966   1.688
 6855TIP3   OH220441   4.617   8.516   1.054
 6855TIP3    H120442   4.620   8.539   1.147
 6855TIP3    H220443   4.552   8.576   1.017
 6856TIP3   OH220444   4.046   8.411   0.817
 6856TIP3    H120445   4.001   8.495   0.809
 6856TIP3    H220446   4.121   8.430   0.874
 6857TIP3   OH220447   5.342   8.940   1.694
 6857TIP3    H120448   5.250   8.963   1.705
 6857TIP3    H220449   5.341   8.864   1.635
 6858TIP3   OH220450   8.183   0.047   1.079
 6858TIP3    H120451   8.165  -0.015   1.008
 6858TIP3    H220452   8.278   0.058   1.077
 6859TIP3   OH220453   3.632   8.717   0.756
 6859TIP3    H120454   3.655   8.807   0.779
 6859TIP3    H220455   3.580   8.725   0.676
 6860TIP3   OH220456   4.039   8.372   1.555
 6860TIP3    H120457   4.008   8.342   1.469
 6860TIP3    H220458   4.029   8.296   1.611
 6861TIP3   OH220459   7.317   0.027   2.233
 6861TIP3    H120460   7.326   0.024   2.138
 6861TIP3    H220461   7.233   0.072   2.248
 6862TIP3   OH220462   4.335   9.125   1.839
 6862TIP3    H120463   4.248   9.085   1.848
 6862TIP3    H220464   4.350   9.126   1.744
 6863TIP3   OH220465   4.464   8.926   1.978
 6863TIP3    H120466   4.469   8.849   1.921
 6863TIP3    H220467   4.435   8.997   1.921
 6864TIP3   OH220468   4.462   8.724   1.787
 6864TIP3    H120469   4.486   8.774   1.710
 6864TIP3    H220470   4.370   8.699   1.773
 6865TIP3   OH220471   5.084   9.241   2.070
 6865TIP3    H120472   5.120   9.155   2.049
 6865TIP3    H220473   5.151   9.282   2.124
 6866TIP3   OH220474   4.333   9.034   2.195
 6866TIP3    H120475   4.261   8.977   2.223
 6866TIP3    H220476   4.371   8.989   2.120
 6867TIP3   OH220477   4.587   8.497   1.870
 6867TIP3    H120478   4.548   8.579   1.841
 6867TIP3    H220479   4.519   8.431   1.856
 6868TIP3   OH220480   4.727   8.959   2.067
 6868TIP3    H120481   4.713   8.973   2.160
 6868TIP3    H220482   4.640   8.949   2.030
 6869TIP3   OH220483   4.975   8.950   1.956
 6869TIP3    H120484   4.892   8.939   2.003
 6869TIP3    H220485   5.042   8.922   2.018
 6870TIP3   OH220486   5.200   8.902   2.108
 6870TIP3    H120487   5.211   8.807   2.113
 6870TIP3    H220488   5.191   8.930   2.199
 6871TIP3   OH220489   4.168   8.822   2.284
 6871TIP3    H120490   4.173   8.736   2.242
 6871TIP3    H220491   4.213   8.811   2.367
 6872TIP3   OH220492   4.646   8.497   2.137
 6872TIP3    H120493   4.717   8.433   2.135
 6872TIP3    H220494   4.617   8.503   2.046
 6873TIP3   OH220495   4.739   8.712   2.283
 6873TIP3    H120496   4.709   8.642   2.224
 6873TIP3    H220497   4.670   8.779   2.276
 6874TIP3   OH220498   5.138   9.127   0.861
 6874TIP3    H120499   5.159   9.042   0.898
 6874TIP3    H220500   5.043   9.135   0.867
 6875TIP3   OH220501   8.866   0.162   1.746
 6875TIP3    H120502   8.775   0.160   1.716
 6875TIP3    H220503   8.893   0.070   1.744
 6876TIP3   OH220504   5.053   8.872   0.800
 6876TIP3    H120505   5.110   8.807   0.758
 6876TIP3    H220506   5.060   8.949   0.744
 6877TIP3   OH220507   5.286   8.988   1.279
 6877TIP3    H120508   5.341   9.030   1.213
 6877TIP3    H220509   5.272   9.055   1.345
 6878TIP3   OH220510   5.322   9.201   1.444
 6878TIP3    H120511   5.248   9.235   1.495
 6878TIP3    H220512   5.338   9.269   1.378
 6879TIP3   OH220513   3.904   8.866   2.212
 6879TIP3    H120514   3.997   8.869   2.233
 6879TIP3    H220515   3.875   8.782   2.247
 6880TIP3   OH220516   5.743   8.771   1.987
 6880TIP3    H120517   5.807   8.716   1.941
 6880TIP3    H220518   5.702   8.823   1.918
 6881TIP3   OH220519   5.148   8.659   0.669
 6881TIP3    H120520   5.239   8.660   0.640
 6881TIP3    H220521   5.138   8.575   0.715
 6882TIP3   OH220522   3.870   8.590   1.597
 6882TIP3    H120523   3.931   8.516   1.587
 6882TIP3    H220524   3.925   8.668   1.588
 6883TIP3   OH220525   3.642   8.893   1.632
 6883TIP3    H120526   3.691   8.851   1.561
 6883TIP3    H220527   3.661   8.986   1.623
 6884TIP3   OH220528   5.597   8.904   1.800
 6884TIP3    H120529   5.503   8.921   1.787
 6884TIP3    H220530   5.625   8.862   1.719
 6885TIP3   OH220531   3.639   8.364   1.155
 6885TIP3    H120532   3.550   8.355   1.190
 6885TIP3    H220533   3.629   8.419   1.078
 6886TIP3   OH220534   3.876   8.426   1.960
 6886TIP3    H120535   3.819   8.409   2.035
 6886TIP3    H220536   3.820   8.471   1.897
 6887TIP3   OH220537   5.491   8.601   1.699
 6887TIP3    H120538   5.404   8.592   1.660
 6887TIP3    H220539   5.533   8.516   1.685
 6888TIP3   OH220540   4.661   8.560   1.325
 6888TIP3    H120541   4.628   8.491   1.382
 6888TIP3    H220542   4.747   8.529   1.296
 6889TIP3   OH220543   5.231   8.474   1.177
 6889TIP3    H120544   5.261   8.528   1.104
 6889TIP3    H220545   5.193   8.537   1.239
 6890TIP3   OH220546   5.331   8.630   0.971
 6890TIP3    H120547   5.408   8.630   0.914
 6890TIP3    H220548   5.323   8.721   1.001
 6891TIP3   OH220549   3.948   8.273   1.317
 6891TIP3    H120550   3.858   8.240   1.323
 6891TIP3    H220551   4.001   8.195   1.298
 6892TIP3   OH220552   3.680   8.151   0.977
 6892TIP3    H120553   3.707   8.205   0.903
 6892TIP3    H220554   3.679   8.211   1.051
 6893TIP3   OH220555   4.408   8.309   1.242
 6893TIP3    H120556   4.466   8.286   1.170
 6893TIP3    H220557   4.466   8.320   1.317
 6894TIP3   OH220558   4.905   8.490   1.236
 6894TIP3    H120559   4.957   8.503   1.156
 6894TIP3    H220560   4.932   8.405   1.269
 6895TIP3   OH220561   4.919   8.436   0.630
 6895TIP3    H120562   4.890   8.527   0.634
 6895TIP3    H220563   4.870   8.391   0.699
 6896TIP3   OH220564   3.767   8.308   0.764
 6896TIP3    H120565   3.794   8.237   0.706
 6896TIP3    H220566   3.848   8.349   0.791
 6897TIP3   OH220567   4.312   8.451   0.934
 6897TIP3    H120568   4.392   8.405   0.960
 6897TIP3    H220569   4.342   8.536   0.902
 6898TIP3   OH220570   4.177   8.555   2.185
 6898TIP3    H120571   4.144   8.488   2.245
 6898TIP3    H220572   4.270   8.562   2.206
 6899TIP3   OH220573   4.427   8.556   2.303
 6899TIP3    H120574   4.506   8.535   2.253
 6899TIP3    H220575   4.421   8.487   2.368
 6900TIP3   OH220576   5.252   8.631   2.106
 6900TIP3    H120577   5.270   8.604   2.196
 6900TIP3    H220578   5.338   8.630   2.063
 6901TIP3   OH220579   5.512   9.185   0.842
 6901TIP3    H120580   5.525   9.276   0.870
 6901TIP3    H220581   5.596   9.161   0.801
 6902TIP3   OH220582   6.034   8.953   1.320
 6902TIP3    H120583   5.974   8.917   1.255
 6902TIP3    H220584   5.983   8.957   1.401
 6903TIP3   OH220585   5.937   8.938   1.040
 6903TIP3    H120586   5.973   9.026   1.044
 6903TIP3    H220587   5.913   8.925   0.948
 6904TIP3   OH220588   6.370   8.640   0.908
 6904TIP3    H120589   6.309   8.591   0.853
 6904TIP3    H220590   6.341   8.731   0.900
 6905TIP3   OH220591   6.051   8.699   1.117
 6905TIP3    H120592   6.034   8.652   1.036
 6905TIP3    H220593   6.024   8.789   1.099
 6906TIP3   OH220594   6.730   8.890   1.263
 6906TIP3    H120595   6.754   8.879   1.355
 6906TIP3    H220596   6.658   8.830   1.249
 6907TIP3   OH220597   0.409   0.168   1.098
 6907TIP3    H120598   0.406   0.150   1.192
 6907TIP3    H220599   0.365   0.252   1.088
 6908TIP3   OH220600   9.267   0.264   1.070
 6908TIP3    H120601   9.182   0.248   1.111
 6908TIP3    H220602   9.249   0.261   0.976
 6909TIP3   OH220603  -0.001   0.245   1.490
 6909TIP3    H120604  -0.028   0.179   1.553
 6909TIP3    H220605   0.090   0.223   1.470
 6910TIP3   OH220606   5.869   9.257   1.493
 6910TIP3    H120607   5.812   9.247   1.416
 6910TIP3    H220608   5.880   9.168   1.526
 6911TIP3   OH220609   5.527   8.725   0.802
 6911TIP3    H120610   5.573   8.799   0.843
 6911TIP3    H220611   5.593   8.683   0.746
 6912TIP3   OH220612   6.311   9.200   1.109
 6912TIP3    H120613   6.310   9.201   1.013
 6912TIP3    H220614   6.361   9.277   1.133
 6913TIP3   OH220615   9.523   0.225   1.547
 6913TIP3    H120616   9.472   0.255   1.472
 6913TIP3    H220617   9.605   0.275   1.542
 6914TIP3   OH220618   5.846   8.986   1.522
 6914TIP3    H120619   5.753   9.002   1.507
 6914TIP3    H220620   5.848   8.906   1.574
 6915TIP3   OH220621   6.573   9.106   1.201
 6915TIP3    H120622   6.607   9.162   1.130
 6915TIP3    H220623   6.643   9.042   1.216
 6916TIP3   OH220624   9.705   0.182   1.224
 6916TIP3    H120625   9.755   0.220   1.296
 6916TIP3    H220626   9.766   0.180   1.150
 6917TIP3   OH220627   0.652  -0.004   1.169
 6917TIP3    H120628   0.581   0.007   1.232
 6917TIP3    H220629   0.638   0.064   1.104
 6918TIP3   OH220630   5.751   8.701   1.037
 6918TIP3    H120631   5.834   8.705   0.989
 6918TIP3    H220632   5.717   8.613   1.020
 6919TIP3   OH220633   9.091   0.279   1.643
 6919TIP3    H120634   9.012   0.245   1.686
 6919TIP3    H220635   9.058   0.345   1.582
 6920TIP3   OH220636   9.307   0.222   1.377
 6920TIP3    H120637   9.335   0.135   1.348
 6920TIP3    H220638   9.289   0.270   1.297
 6921TIP3   OH220639   6.210   9.131   1.591
 6921TIP3    H120640   6.232   9.039   1.579
 6921TIP3    H220641   6.211   9.168   1.503
 6922TIP3   OH220642   6.286   8.945   1.204
 6922TIP3    H120643   6.306   9.035   1.180
 6922TIP3    H220644   6.195   8.946   1.233
 6923TIP3   OH220645   0.271   0.296   1.566
 6923TIP3    H120646   0.350   0.250   1.592
 6923TIP3    H220647   0.291   0.331   1.479
 6924TIP3   OH220648   9.320   0.090   1.708
 6924TIP3    H120649   9.281   0.011   1.746
 6924TIP3    H220650   9.402   0.060   1.669
 6925TIP3   OH220651   6.293   8.779   1.439
 6925TIP3    H120652   6.264   8.810   1.353
 6925TIP3    H220653   6.315   8.687   1.426
 6926TIP3   OH220654   6.501   9.252   1.632
 6926TIP3    H120655   6.450   9.223   1.708
 6926TIP3    H220656   6.451   9.221   1.557
 6927TIP3   OH220657   6.755   9.220   1.504
 6927TIP3    H120658   6.669   9.208   1.546
 6927TIP3    H220659   6.818   9.193   1.571
 6928TIP3   OH220660   6.953   9.142   1.677
 6928TIP3    H120661   6.997   9.057   1.672
 6928TIP3    H220662   6.910   9.141   1.763
 6929TIP3   OH220663   5.961   9.084   1.796
 6929TIP3    H120664   5.965   9.001   1.749
 6929TIP3    H220665   6.007   9.067   1.878
 6930TIP3   OH220666   6.410   8.745   1.684
 6930TIP3    H120667   6.490   8.698   1.661
 6930TIP3    H220668   6.360   8.750   1.603
 6931TIP3   OH220669   6.540   8.966   1.790
 6931TIP3    H120670   6.498   8.901   1.735
 6931TIP3    H220671   6.473   9.032   1.805
 6932TIP3   OH220672   5.698   9.151   1.752
 6932TIP3    H120673   5.792   9.140   1.767
 6932TIP3    H220674   5.658   9.073   1.789
 6933TIP3   OH220675   7.433   9.023   1.404
 6933TIP3    H120676   7.507   8.965   1.389
 6933TIP3    H220677   7.448   9.098   1.346
 6934TIP3   OH220678   5.643   8.931   0.932
 6934TIP3    H120679   5.695   8.869   0.982
 6934TIP3    H220680   5.662   9.016   0.972
 6935TIP3   OH220681   5.474   9.103   1.108
 6935TIP3    H120682   5.484   9.112   1.013
 6935TIP3    H220683   5.456   9.192   1.138
 6936TIP3   OH220684   5.682   8.759   1.585
 6936TIP3    H120685   5.621   8.697   1.625
 6936TIP3    H220686   5.666   8.752   1.491
 6937TIP3   OH220687   7.280   8.883   1.169
 6937TIP3    H120688   7.227   8.918   1.098
 6937TIP3    H220689   7.331   8.813   1.129
 6938TIP3   OH220690   5.692   8.566   0.656
 6938TIP3    H120691   5.690   8.524   0.742
 6938TIP3    H220692   5.746   8.509   0.602
 6939TIP3   OH220693   5.975   8.808   1.710
 6939TIP3    H120694   5.942   8.739   1.768
 6939TIP3    H220695   6.067   8.819   1.736
 6940TIP3   OH220696   6.211   8.821   1.852
 6940TIP3    H120697   6.289   8.794   1.803
 6940TIP3    H220698   6.197   8.751   1.916
 6941TIP3   OH220699   7.026   8.867   1.645
 6941TIP3    H120700   7.058   8.853   1.735
 6941TIP3    H220701   7.105   8.864   1.591
 6942TIP3   OH220702   1.808   0.264   6.059
 6942TIP3    H120703   1.901   0.246   6.071
 6942TIP3    H220704   1.790   0.336   6.120
 6943TIP3   OH220705   1.399   0.661   6.083
 6943TIP3    H120706   1.437   0.589   6.033
 6943TIP3    H220707   1.412   0.635   6.174
 6944TIP3   OH220708   1.790   0.485   6.247
 6944TIP3    H120709   1.711   0.511   6.295
 6944TIP3    H220710   1.813   0.562   6.196
 6945TIP3   OH220711   1.535   0.495   5.909
 6945TIP3    H120712   1.570   0.409   5.884
 6945TIP3    H220713   1.602   0.557   5.882
 6946TIP3   OH220714   1.667   0.271   5.818
 6946TIP3    H120715   1.675   0.186   5.774
 6946TIP3    H220716   1.715   0.260   5.900
 6947TIP3   OH220717   2.097   0.330   6.590
 6947TIP3    H120718   2.065   0.260   6.533
 6947TIP3    H220719   2.067   0.411   6.549
 6948TIP3   OH220720   2.260   0.002   6.408
 6948TIP3    H120721   2.170   0.030   6.420
 6948TIP3    H220722   2.280   0.023   6.316
 6949TIP3   OH220723   1.956   0.355   5.240
 6949TIP3    H120724   1.943   0.449   5.253
 6949TIP3    H220725   2.047   0.340   5.264
 6950TIP3   OH220726   2.301   0.741   6.636
 6950TIP3    H120727   2.310   0.646   6.641
 6950TIP3    H220728   2.219   0.759   6.684
 6951TIP3   OH220729   1.160   0.649   5.698
 6951TIP3    H120730   1.080   0.599   5.684
 6951TIP3    H220731   1.132   0.726   5.748
 6952TIP3   OH220732   1.330   0.615   5.373
 6952TIP3    H120733   1.408   0.569   5.404
 6952TIP3    H220734   1.308   0.674   5.445
 6953TIP3   OH220735   1.423   0.597   5.678
 6953TIP3    H120736   1.329   0.609   5.692
 6953TIP3    H220737   1.455   0.557   5.759
 6954TIP3   OH220738   2.004   1.059   6.730
 6954TIP3    H120739   1.998   1.076   6.636
 6954TIP3    H220740   2.083   1.105   6.758
 6955TIP3   OH220741   2.019   0.151   6.396
 6955TIP3    H120742   2.063   0.202   6.328
 6955TIP3    H220743   1.929   0.141   6.365
 6956TIP3   OH220744   2.333   0.469   6.652
 6956TIP3    H120745   2.250   0.428   6.678
 6956TIP3    H220746   2.357   0.426   6.570
 6957TIP3   OH220747   1.845   0.374   5.558
 6957TIP3    H120748   1.848   0.320   5.636
 6957TIP3    H220749   1.806   0.318   5.491
 6958TIP3   OH220750   1.457   0.145   5.508
 6958TIP3    H120751   1.427   0.224   5.554
 6958TIP3    H220752   1.427   0.072   5.562
 6959TIP3   OH220753   1.812   0.747   6.566
 6959TIP3    H120754   1.736   0.696   6.539
 6959TIP3    H220755   1.821   0.814   6.498
 6960TIP3   OH220756   1.925   0.633   5.245
 6960TIP3    H120757   1.976   0.711   5.223
 6960TIP3    H220758   1.844   0.669   5.283
 6961TIP3   OH220759   1.736   0.021   5.705
 6961TIP3    H120760   1.733  -0.029   5.787
 6961TIP3    H220761   1.829   0.034   5.689
 6962TIP3   OH220762   1.852   0.729   6.138
 6962TIP3    H120763   1.811   0.784   6.071
 6962TIP3    H220764   1.946   0.738   6.122
 6963TIP3   OH220765   1.765   0.593   6.959
 6963TIP3    H120766   1.702   0.633   6.899
 6963TIP3    H220767   1.835   0.657   6.968
 6964TIP3   OH220768   1.428   0.223   5.246
 6964TIP3    H120769   1.432   0.214   5.341
 6964TIP3    H220770   1.458   0.312   5.229
 6965TIP3   OH220771   8.424   9.100   5.202
 6965TIP3    H120772   8.415   9.019   5.152
 6965TIP3    H220773   8.347   9.152   5.178
 6966TIP3   OH220774   2.121   0.772   6.127
 6966TIP3    H120775   2.148   0.813   6.209
 6966TIP3    H220776   2.186   0.802   6.063
 6967TIP3   OH220777   2.131   0.806   6.416
 6967TIP3    H120778   2.093   0.719   6.408
 6967TIP3    H220779   2.205   0.794   6.475
 6968TIP3   OH220780   2.211   0.508   6.977
 6968TIP3    H120781   2.137   0.516   7.037
 6968TIP3    H220782   2.251   0.595   6.977
 6969TIP3   OH220783   2.004   0.048   5.676
 6969TIP3    H120784   2.064   0.110   5.635
 6969TIP3    H220785   2.059  -0.003   5.736
 6970TIP3   OH220786   8.685   9.138   5.855
 6970TIP3    H120787   8.656   9.105   5.940
 6970TIP3    H220788   8.771   9.176   5.871
 6971TIP3   OH220789   2.169   0.284   6.214
 6971TIP3    H120790   2.233   0.220   6.182
 6971TIP3    H220791   2.187   0.362   6.162
 6972TIP3   OH220792   1.991   0.555   6.444
 6972TIP3    H120793   1.928   0.607   6.494
 6972TIP3    H220794   1.940   0.520   6.371
 6973TIP3   OH220795   8.647   9.144   5.425
 6973TIP3    H120796   8.587   9.142   5.350
 6973TIP3    H220797   8.619   9.220   5.476
 6974TIP3   OH220798   2.222   0.166   6.790
 6974TIP3    H120799   2.269   0.095   6.747
 6974TIP3    H220800   2.174   0.210   6.719
 6975TIP3   OH220801   8.968   9.210   6.778
 6975TIP3    H120802   8.949   9.145   6.845
 6975TIP3    H220803   9.046   9.255   6.810
 6976TIP3   OH220804   1.689   0.689   5.798
 6976TIP3    H120805   1.741   0.677   5.719
 6976TIP3    H220806   1.732   0.761   5.844
 6977TIP3   OH220807   1.609   0.922   6.700
 6977TIP3    H120808   1.679   0.866   6.667
 6977TIP3    H220809   1.651   0.979   6.764
 6978TIP3   OH220810   1.357   0.792   6.380
 6978TIP3    H120811   1.295   0.821   6.313
 6978TIP3    H220812   1.356   0.861   6.446
 6979TIP3   OH220813   1.607   0.678   6.388
 6979TIP3    H120814   1.514   0.700   6.395
 6979TIP3    H220815   1.648   0.758   6.353
 6980TIP3   OH220816   1.787   0.904   6.339
 6980TIP3    H120817   1.770   0.989   6.298
 6980TIP3    H220818   1.815   0.848   6.267
 6981TIP3   OH220819   1.088   0.488   5.343
 6981TIP3    H120820   1.176   0.522   5.328
 6981TIP3    H220821   1.061   0.454   5.258
 6982TIP3   OH220822   1.823   0.643   5.562
 6982TIP3    H120823   1.837   0.548   5.556
 6982TIP3    H220824   1.780   0.667   5.481
 6983TIP3   OH220825   2.044   0.787   6.733
 6983TIP3    H120826   1.969   0.755   6.683
 6983TIP3    H220827   2.030   0.882   6.739
 6984TIP3   OH220828   3.310   0.152   5.480
 6984TIP3    H120829   3.275   0.239   5.463
 6984TIP3    H220830   3.240   0.093   5.452
 6985TIP3   OH220831   3.314   0.163   5.895
 6985TIP3    H120832   3.362   0.140   5.975
 6985TIP3    H220833   3.269   0.082   5.870
 6986TIP3   OH220834   2.612   0.048   6.230
 6986TIP3    H120835   2.642  -0.008   6.302
 6986TIP3    H220836   2.690   0.065   6.178
 6987TIP3   OH220837   3.589   0.469   5.566
 6987TIP3    H120838   3.567   0.404   5.633
 6987TIP3    H220839   3.606   0.549   5.615
 6988TIP3   OH220840   2.612   0.437   5.939
 6988TIP3    H120841   2.595   0.343   5.940
 6988TIP3    H220842   2.707   0.444   5.928
 6989TIP3   OH220843   8.835   8.912   5.782
 6989TIP3    H120844   8.789   8.993   5.801
 6989TIP3    H220845   8.770   8.855   5.741
 6990TIP3   OH220846   8.936   9.210   5.923
 6990TIP3    H120847   8.981   9.132   5.956
 6990TIP3    H220848   9.005   9.274   5.910
 6991TIP3   OH220849   3.238   0.890   5.576
 6991TIP3    H120850   3.267   0.818   5.520
 6991TIP3    H220851   3.235   0.853   5.664
 6992TIP3   OH220852   3.129   0.381   5.904
 6992TIP3    H120853   3.174   0.300   5.878
 6992TIP3    H220854   3.199   0.439   5.934
 6993TIP3   OH220855   0.270   9.106   5.945
 6993TIP3    H120856   0.352   9.058   5.947
 6993TIP3    H220857   0.234   9.089   5.857
 6994TIP3   OH220858   9.052   8.983   6.031
 6994TIP3    H120859   9.136   8.965   6.073
 6994TIP3    H220860   9.049   8.922   5.957
 6995TIP3   OH220861   9.467   9.180   5.848
 6995TIP3    H120862   9.561   9.164   5.847
 6995TIP3    H220863   9.428   9.098   5.820
 6996TIP3   OH220864   0.831   9.066   6.096
 6996TIP3    H120865   0.766   9.136   6.084
 6996TIP3    H220866   0.891   9.100   6.163
 6997TIP3   OH220867   3.186   0.371   5.366
 6997TIP3    H120868   3.196   0.359   5.272
 6997TIP3    H220869   3.143   0.457   5.375
 6998TIP3   OH220870   2.969   0.307   6.119
 6998TIP3    H120871   2.911   0.376   6.152
 6998TIP3    H220872   3.014   0.347   6.044
 6999TIP3   OH220873   9.302   8.906   6.109
 6999TIP3    H120874   9.366   8.961   6.154
 6999TIP3    H220875   9.352   8.863   6.039
 7000TIP3   OH220876   2.807   0.507   6.221
 7000TIP3    H120877   2.792   0.597   6.190
 7000TIP3    H220878   2.729   0.487   6.274
 7001TIP3   OH220879   2.185   0.200   5.534
 7001TIP3    H120880   2.156   0.212   5.443
 7001TIP3    H220881   2.206   0.288   5.564
 7002TIP3   OH220882   3.624   0.713   5.710
 7002TIP3    H120883   3.537   0.706   5.749
 7002TIP3    H220884   3.622   0.797   5.664
 7003TIP3   OH220885   3.325   0.723   5.367
 7003TIP3    H120886   3.380   0.646   5.355
 7003TIP3    H220887   3.381   0.797   5.343
 7004TIP3   OH220888   3.491   0.517   5.312
 7004TIP3    H120889   3.500   0.439   5.257
 7004TIP3    H220890   3.528   0.492   5.396
 7005TIP3   OH220891   3.854   0.604   6.057
 7005TIP3    H120892   3.832   0.532   5.999
 7005TIP3    H220893   3.840   0.683   6.005
 7006TIP3   OH220894   9.665   9.229   5.336
 7006TIP3    H120895   9.573   9.218   5.314
 7006TIP3    H220896   9.709   9.241   5.252
 7007TIP3   OH220897   9.663   9.042   5.040
 7007TIP3    H120898   9.725   9.107   5.073
 7007TIP3    H220899   9.715   8.961   5.031
 7008TIP3   OH220900   4.017   0.277   5.935
 7008TIP3    H120901   3.932   0.319   5.929
 7008TIP3    H220902   4.056   0.288   5.849
 7009TIP3   OH220903   3.503   0.112   5.288
 7009TIP3    H120904   3.444   0.125   5.363
 7009TIP3    H220905   3.583   0.077   5.326
 7010TIP3   OH220906   3.715   0.138   6.227
 7010TIP3    H120907   3.710   0.222   6.272
 7010TIP3    H220908   3.632   0.131   6.180
 7011TIP3   OH220909   2.754   0.080   5.689
 7011TIP3    H120910   2.722   0.018   5.623
 7011TIP3    H220911   2.822   0.031   5.735
 7012TIP3   OH220912   2.874   0.477   5.839
 7012TIP3    H120913   2.856   0.464   5.746
 7012TIP3    H220914   2.963   0.445   5.851
 7013TIP3   OH220915   2.838   0.070   6.071
 7013TIP3    H120916   2.877   0.031   5.993
 7013TIP3    H220917   2.889   0.150   6.086
 7014TIP3   OH220918   3.386   0.707   5.841
 7014TIP3    H120919   3.372   0.787   5.891
 7014TIP3    H220920   3.370   0.636   5.903
 7015TIP3   OH220921   3.003   0.605   6.391
 7015TIP3    H120922   2.943   0.664   6.435
 7015TIP3    H220923   2.948   0.553   6.332
 7016TIP3   OH220924   3.298   0.008   5.118
 7016TIP3    H120925   3.378   0.016   5.171
 7016TIP3    H220926   3.329   0.011   5.028
 7017TIP3   OH220927   2.747   0.169   6.512
 7017TIP3    H120928   2.754   0.257   6.551
 7017TIP3    H220929   2.653   0.150   6.512
 7018TIP3   OH220930   3.071   0.631   5.333
 7018TIP3    H120931   3.160   0.659   5.356
 7018TIP3    H220932   3.022   0.713   5.325
 7019TIP3   OH220933   2.800   0.769   6.472
 7019TIP3    H120934   2.774   0.779   6.381
 7019TIP3    H220935   2.718   0.752   6.519
 7020TIP3   OH220936   9.171   9.165   5.486
 7020TIP3    H120937   9.084   9.202   5.474
 7020TIP3    H220938   9.155   9.073   5.509
 7021TIP3   OH220939   3.681   0.553   4.736
 7021TIP3    H120940   3.665   0.645   4.714
 7021TIP3    H220941   3.761   0.531   4.690
 7022TIP3   OH220942   2.390   0.326   6.424
 7022TIP3    H120943   2.318   0.305   6.365
 7022TIP3    H220944   2.423   0.242   6.453
 7023TIP3   OH220945   2.244   0.506   6.068
 7023TIP3    H120946   2.339   0.516   6.057
 7023TIP3    H220947   2.215   0.590   6.103
 7024TIP3   OH220948   4.085   0.971   6.127
 7024TIP3    H120949   4.090   0.876   6.139
 7024TIP3    H220950   4.006   0.997   6.173
 7025TIP3   OH220951   3.191   0.751   6.253
 7025TIP3    H120952   3.183   0.842   6.281
 7025TIP3    H220953   3.122   0.705   6.302
 7026TIP3   OH220954   2.964   0.853   5.203
 7026TIP3    H120955   2.915   0.842   5.121
 7026TIP3    H220956   2.924   0.929   5.245
 7027TIP3   OH220957   3.169   0.775   4.833
 7027TIP3    H120958   3.224   0.704   4.799
 7027TIP3    H220959   3.204   0.793   4.920
 7028TIP3   OH220960   3.220   0.827   5.102
 7028TIP3    H120961   3.134   0.833   5.144
 7028TIP3    H220962   3.279   0.799   5.171
 7029TIP3   OH220963   3.952   0.077   6.418
 7029TIP3    H120964   3.885   0.113   6.358
 7029TIP3    H220965   4.007   0.023   6.362
 7030TIP3   OH220966   2.591   0.513   6.395
 7030TIP3    H120967   2.637   0.502   6.478
 7030TIP3    H220968   2.520   0.449   6.398
 7031TIP3   OH220969   0.386   9.150   6.378
 7031TIP3    H120970   0.455   9.085   6.363
 7031TIP3    H220971   0.412   9.226   6.327
 7032TIP3   OH220972   3.384   0.031   4.859
 7032TIP3    H120973   3.337  -0.013   4.788
 7032TIP3    H220974   3.476   0.033   4.830
 7033TIP3   OH220975   9.462   9.096   6.232
 7033TIP3    H120976   9.407   9.102   6.310
 7033TIP3    H220977   9.436   9.171   6.178
 7034TIP3   OH220978   9.329   8.963   5.751
 7034TIP3    H120979   9.248   8.920   5.778
 7034TIP3    H220980   9.342   8.936   5.660
 7035TIP3   OH220981   0.044   9.036   5.434
 7035TIP3    H120982  -0.015   9.105   5.403
 7035TIP3    H220983   0.095   9.011   5.357
 7036TIP3   OH220984   3.446   0.141   6.503
 7036TIP3    H120985   3.457   0.236   6.504
 7036TIP3    H220986   3.533   0.107   6.525
 7037TIP3   OH220987   0.183   9.056   5.683
 7037TIP3    H120988   0.124   9.084   5.614
 7037TIP3    H220989   0.224   8.976   5.650
 7038TIP3   OH220990   9.274   9.140   6.430
 7038TIP3    H120991   9.287   9.222   6.477
 7038TIP3    H220992   9.230   9.083   6.493
 7039TIP3   OH220993   3.461   0.066   6.116
 7039TIP3    H120994   3.488  -0.003   6.055
 7039TIP3    H220995   3.417   0.018   6.187
 7040TIP3   OH220996   9.090   8.827   5.797
 7040TIP3    H120997   9.003   8.864   5.784
 7040TIP3    H220998   9.084   8.738   5.763
 7041TIP3   OH220999   9.346   8.877   5.490
 7041TIP3    H121000   9.441   8.871   5.484
 7041TIP3    H221001   9.314   8.854   5.403
 7042TIP3   OH221002   9.225   8.831   5.240
 7042TIP3    H121003   9.172   8.782   5.177
 7042TIP3    H221004   9.274   8.893   5.187
 7043TIP3   OH221005   3.801   1.312   6.215
 7043TIP3    H121006   3.796   1.331   6.122
 7043TIP3    H221007   3.879   1.357   6.245
 7044TIP3   OH221008   2.738   0.418   6.638
 7044TIP3    H121009   2.819   0.438   6.684
 7044TIP3    H221010   2.671   0.416   6.707
 7045TIP3   OH221011   9.743   9.138   5.881
 7045TIP3    H121012   9.812   9.086   5.841
 7045TIP3    H221013   9.740   9.109   5.972
 7046TIP3   OH221014   9.728   9.068   6.145
 7046TIP3    H121015   9.640   9.070   6.182
 7046TIP3    H221016   9.786   9.091   6.218
 7047TIP3   OH221017   2.803   0.264   5.249
 7047TIP3    H121018   2.797   0.171   5.227
 7047TIP3    H221019   2.816   0.264   5.344
 7048TIP3   OH221020   3.784   0.409   5.876
 7048TIP3    H121021   3.818   0.460   5.803
 7048TIP3    H221022   3.705   0.367   5.842
 7049TIP3   OH221023   3.318   0.489   6.284
 7049TIP3    H121024   3.360   0.481   6.370
 7049TIP3    H221025   3.272   0.573   6.288
 7050TIP3   OH221026   2.614   0.152   5.915
 7050TIP3    H121027   2.656   0.137   5.830
 7050TIP3    H221028   2.678   0.123   5.979
 7051TIP3   OH221029   3.073   0.304   5.107
 7051TIP3    H121030   3.021   0.384   5.114
 7051TIP3    H221031   3.035   0.245   5.172
 7052TIP3   OH221032   2.484   0.087   6.535
 7052TIP3    H121033   2.478   0.054   6.625
 7052TIP3    H221034   2.412   0.044   6.489
 7053TIP3   OH221035   3.202   0.238   6.593
 7053TIP3    H121036   3.125   0.189   6.565
 7053TIP3    H221037   3.275   0.200   6.545
 7054TIP3   OH221038   3.464   0.770   6.180
 7054TIP3    H121039   3.369   0.759   6.182
 7054TIP3    H221040   3.486   0.807   6.265
 7055TIP3   OH221041   0.647   9.069   5.040
 7055TIP3    H121042   0.611   8.985   5.012
 7055TIP3    H221043   0.597   9.134   4.991
 7056TIP3   OH221044   4.098   0.692   6.149
 7056TIP3    H121045   4.005   0.673   6.144
 7056TIP3    H221046   4.133   0.664   6.064
 7057TIP3   OH221047   3.612   0.620   5.001
 7057TIP3    H121048   3.570   0.556   5.059
 7057TIP3    H221049   3.616   0.577   4.916
 7058TIP3   OH221050   3.557   0.274   5.775
 7058TIP3    H121051   3.468   0.252   5.801
 7058TIP3    H221052   3.592   0.194   5.736
 7059TIP3   OH221053   2.679   0.510   5.606
 7059TIP3    H121054   2.664   0.584   5.547
 7059TIP3    H221055   2.617   0.523   5.678
 7060TIP3   OH221056   8.894   9.034   5.421
 7060TIP3    H121057   8.948   9.088   5.363
 7060TIP3    H221058   8.811   9.081   5.428
 7061TIP3   OH221059   2.807   0.287   5.515
 7061TIP3    H121060   2.762   0.363   5.553
 7061TIP3    H221061   2.798   0.218   5.580
 7062TIP3   OH221062   3.012   0.818   6.040
 7062TIP3    H121063   3.044   0.894   5.993
 7062TIP3    H221064   3.086   0.789   6.093
 7063TIP3   OH221065   2.603   0.728   5.445
 7063TIP3    H121066   2.534   0.769   5.496
 7063TIP3    H221067   2.667   0.798   5.430
 7064TIP3   OH221068   3.363   0.487   6.013
 7064TIP3    H121069   3.350   0.485   6.108
 7064TIP3    H221070   3.441   0.435   5.998
 7065TIP3   OH221071   3.360   0.357   4.896
 7065TIP3    H121072   3.411   0.345   4.976
 7065TIP3    H221073   3.291   0.292   4.901
 7066TIP3   OH221074   3.617   0.983   6.059
 7066TIP3    H121075   3.545   0.922   6.077
 7066TIP3    H221076   3.584   1.037   5.987
 7067TIP3   OH221077   3.656   0.822   4.689
 7067TIP3    H121078   3.647   0.867   4.606
 7067TIP3    H221079   3.595   0.866   4.748
 7068TIP3   OH221080   3.530   0.319   5.112
 7068TIP3    H121081   3.509   0.243   5.167
 7068TIP3    H221082   3.623   0.309   5.091
 7069TIP3   OH221083   2.441   0.716   6.219
 7069TIP3    H121084   2.494   0.658   6.273
 7069TIP3    H221085   2.459   0.804   6.254
 7070TIP3   OH221086   2.415   0.092   5.419
 7070TIP3    H121087   2.342   0.113   5.476
 7070TIP3    H221088   2.475   0.166   5.427
 7071TIP3   OH221089   2.914   0.532   5.136
 7071TIP3    H121090   2.972   0.565   5.205
 7071TIP3    H221091   2.918   0.599   5.067
 7072TIP3   OH221092   9.621   8.882   5.518
 7072TIP3    H121093   9.698   8.925   5.480
 7072TIP3    H221094   9.651   8.854   5.604
 7073TIP3   OH221095   0.109   9.161   6.340
 7073TIP3    H121096   0.098   9.237   6.397
 7073TIP3    H221097   0.198   9.129   6.359
 7074TIP3   OH221098   2.629   0.584   5.208
 7074TIP3    H121099   2.605   0.642   5.136
 7074TIP3    H221100   2.605   0.632   5.287
 7075TIP3   OH221101   0.379   9.264   5.687
 7075TIP3    H121102   0.309   9.199   5.688
 7075TIP3    H221103   0.448   9.227   5.742
 7076TIP3   OH221104   8.822   8.772   5.389
 7076TIP3    H121105   8.846   8.857   5.424
 7076TIP3    H221106   8.733   8.756   5.422
 7077TIP3   OH221107   3.642   0.979   5.624
 7077TIP3    H121108   3.600   1.029   5.554
 7077TIP3    H221109   3.735   0.995   5.612
 7078TIP3   OH221110   2.240   0.463   5.573
 7078TIP3    H121111   2.228   0.521   5.648
 7078TIP3    H221112   2.235   0.521   5.497
 7079TIP3   OH221113   2.427   1.016   6.626
 7079TIP3    H121114   2.511   1.013   6.671
 7079TIP3    H221115   2.400   0.924   6.620
 7080TIP3   OH221116   2.900   0.929   6.672
 7080TIP3    H121117   2.992   0.905   6.680
 7080TIP3    H221118   2.868   0.877   6.599
 7081TIP3   OH221119   2.883   0.503   4.792
 7081TIP3    H121120   2.870   0.417   4.832
 7081TIP3    H221121   2.957   0.490   4.733
 7082TIP3   OH221122   3.518   0.866   6.431
 7082TIP3    H121123   3.532   0.795   6.494
 7082TIP3    H221124   3.592   0.925   6.444
 7083TIP3   OH221125   3.312   0.568   4.722
 7083TIP3    H121126   3.343   0.499   4.782
 7083TIP3    H221127   3.368   0.559   4.645
 7084TIP3   OH221128   2.536   0.423   6.833
 7084TIP3    H121129   2.503   0.352   6.888
 7084TIP3    H221130   2.464   0.441   6.772
 7085TIP3   OH221131   3.161   0.514   6.595
 7085TIP3    H121132   3.112   0.532   6.515
 7085TIP3    H221133   3.184   0.421   6.588
 7086TIP3   OH221134   3.066   0.249   4.839
 7086TIP3    H121135   3.071   0.259   4.934
 7086TIP3    H221136   3.067   0.154   4.824
 7087TIP3   OH221137   3.632   0.545   6.212
 7087TIP3    H121138   3.708   0.574   6.162
 7087TIP3    H221139   3.565   0.612   6.198
 7088TIP3   OH221140   2.666   0.106   6.832
 7088TIP3    H121141   2.752   0.085   6.795
 7088TIP3    H221142   2.685   0.156   6.911
 7089TIP3   OH221143   9.340   9.225   5.261
 7089TIP3    H121144   9.289   9.197   5.338
 7089TIP3    H221145   9.338   9.150   5.202
 7090TIP3   OH221146   3.010   0.085   6.471
 7090TIP3    H121147   2.922   0.122   6.467
 7090TIP3    H221148   3.050   0.107   6.387
 7091TIP3   OH221149   9.385   9.005   5.078
 7091TIP3    H121150   9.351   9.024   4.990
 7091TIP3    H221151   9.479   9.019   5.070
 7092TIP3   OH221152   3.517   0.403   6.567
 7092TIP3    H121153   3.605   0.398   6.530
 7092TIP3    H221154   3.525   0.364   6.654
 7093TIP3   OH221155   3.630   0.064   4.727
 7093TIP3    H121156   3.607   0.026   4.642
 7093TIP3    H221157   3.608   0.157   4.718
 7094TIP3   OH221158   9.584   9.098   6.619
 7094TIP3    H121159   9.629   9.038   6.559
 7094TIP3    H221160   9.569   9.177   6.567
 7095TIP3   OH221161   3.162   0.170   6.258
 7095TIP3    H121162   3.246   0.193   6.219
 7095TIP3    H221163   3.097   0.221   6.209
 7096TIP3   OH221164   3.704   0.112   6.613
 7096TIP3    H121165   3.707   0.016   6.617
 7096TIP3    H221166   3.794   0.138   6.596
 7097TIP3   OH221167   3.756   0.374   6.382
 7097TIP3    H121168   3.701   0.435   6.332
 7097TIP3    H221169   3.844   0.385   6.345
 7098TIP3   OH221170   9.474   9.218   6.843
 7098TIP3    H121171   9.423   9.157   6.898
 7098TIP3    H221172   9.510   9.163   6.774
 7099TIP3   OH221173   0.187   9.206   6.733
 7099TIP3    H121174   0.117   9.203   6.798
 7099TIP3    H221175   0.150   9.255   6.660
 7100TIP3   OH221176   2.639   0.742   4.968
 7100TIP3    H121177   2.735   0.748   4.963
 7100TIP3    H221178   2.608   0.816   4.917
 7101TIP3   OH221179   2.212   0.222   5.252
 7101TIP3    H121180   2.290   0.172   5.279
 7101TIP3    H221181   2.157   0.158   5.207
 7102TIP3   OH221182   2.010   0.796   5.685
 7102TIP3    H121183   1.955   0.740   5.631
 7102TIP3    H221184   2.078   0.738   5.719
 7103TIP3   OH221185   2.190   0.619   5.802
 7103TIP3    H121186   2.180   0.556   5.874
 7103TIP3    H221187   2.245   0.688   5.839
 7104TIP3   OH221188   3.911   1.038   5.624
 7104TIP3    H121189   3.926   1.058   5.716
 7104TIP3    H221190   3.954   1.110   5.577
 7105TIP3   OH221191   3.926   1.065   5.902
 7105TIP3    H121192   3.880   0.981   5.901
 7105TIP3    H221193   3.997   1.052   5.965
 7106TIP3   OH221194   3.982   0.767   6.468
 7106TIP3    H121195   3.910   0.774   6.531
 7106TIP3    H221196   4.028   0.851   6.474
 7107TIP3   OH221197   3.802   0.292   5.066
 7107TIP3    H121198   3.866   0.357   5.038
 7107TIP3    H221199   3.834   0.259   5.150
 7108TIP3   OH221200   3.907   0.195   5.296
 7108TIP3    H121201   3.847   0.146   5.352
 7108TIP3    H221202   3.974   0.228   5.356
 7109TIP3   OH221203   3.974   0.553   5.722
 7109TIP3    H121204   4.018   0.482   5.674
 7109TIP3    H221205   3.975   0.627   5.662
 7110TIP3   OH221206   3.788   0.824   5.907
 7110TIP3    H121207   3.720   0.869   5.959
 7110TIP3    H221208   3.740   0.784   5.835
 7111TIP3   OH221209   3.827   0.061   4.914
 7111TIP3    H121210   3.756   0.061   4.850
 7111TIP3    H221211   3.807   0.135   4.972
 7112TIP3   OH221212   0.422   8.973   4.854
 7112TIP3    H121213   0.399   9.066   4.855
 7112TIP3    H221214   0.380   8.937   4.932
 7113TIP3   OH221215   0.467   9.264   5.423
 7113TIP3    H121216   0.466   9.172   5.396
 7113TIP3    H221217   0.440   9.263   5.514
 7114TIP3   OH221218   2.352   0.090   6.165
 7114TIP3    H121219   2.352   0.048   6.079
 7114TIP3    H221220   2.444   0.087   6.192
 7115TIP3   OH221221   4.009   0.405   6.274
 7115TIP3    H121222   4.086   0.349   6.271
 7115TIP3    H221223   4.020   0.465   6.200
 7116TIP3   OH221224   4.245   0.259   6.323
 7116TIP3    H121225   4.221   0.239   6.414
 7116TIP3    H221226   4.321   0.316   6.331
 7117TIP3   OH221227   0.449   9.004   5.338
 7117TIP3    H121228   0.491   8.918   5.342
 7117TIP3    H221229   0.386   8.998   5.266
 7118TIP3   OH221230   0.589   9.170   5.836
 7118TIP3    H121231   0.663   9.195   5.780
 7118TIP3    H221232   0.616   9.196   5.924
 7119TIP3   OH221233   3.936   0.051   6.077
 7119TIP3    H121234   3.857   0.084   6.120
 7119TIP3    H221235   3.972   0.128   6.032
 7120TIP3   OH221236   8.840   8.990   6.216
 7120TIP3    H121237   8.916   8.982   6.158
 7120TIP3    H221238   8.872   9.041   6.291
 7121TIP3   OH221239   3.462   0.931   5.265
 7121TIP3    H121240   3.524   0.925   5.193
 7121TIP3    H221241   3.496   1.001   5.320
 7122TIP3   OH221242   2.581   0.735   6.638
 7122TIP3    H121243   2.486   0.726   6.629
 7122TIP3    H221244   2.598   0.721   6.731
 7123TIP3   OH221245   2.784   0.784   6.191
 7123TIP3    H121246   2.731   0.857   6.160
 7123TIP3    H221247   2.867   0.792   6.144
 7124TIP3   OH221248   3.176   1.018   6.330
 7124TIP3    H121249   3.213   1.012   6.418
 7124TIP3    H221250   3.237   1.073   6.282
 7125TIP3   OH221251   3.367   1.174   6.208
 7125TIP3    H121252   3.430   1.124   6.155
 7125TIP3    H221253   3.422   1.232   6.261
 7126TIP3   OH221254   2.441   1.021   6.245
 7126TIP3    H121255   2.351   1.042   6.219
 7126TIP3    H221256   2.464   1.090   6.308
 7127TIP3   OH221257   2.672   1.014   6.091
 7127TIP3    H121258   2.587   1.019   6.133
 7127TIP3    H221259   2.655   1.037   5.999
 7128TIP3   OH221260   3.094   1.034   5.888
 7128TIP3    H121261   3.022   1.042   5.825
 7128TIP3    H221262   3.102   1.121   5.928
 7129TIP3   OH221263   3.354   0.965   5.934
 7129TIP3    H121264   3.262   0.986   5.918
 7129TIP3    H221265   3.403   1.032   5.887
 7130TIP3   OH221266   3.550   1.135   5.832
 7130TIP3    H121267   3.551   1.223   5.795
 7130TIP3    H221268   3.580   1.079   5.760
 7131TIP3   OH221269   2.348   0.784   5.967
 7131TIP3    H121270   2.389   0.767   6.052
 7131TIP3    H221271   2.418   0.771   5.903
 7132TIP3   OH221272   2.555   0.678   5.823
 7132TIP3    H121273   2.569   0.598   5.874
 7132TIP3    H221274   2.640   0.722   5.823
 7133TIP3   OH221275   2.822   0.752   5.844
 7133TIP3    H121276   2.843   0.658   5.841
 7133TIP3    H221277   2.880   0.787   5.912
 7134TIP3   OH221278   2.189   0.617   5.340
 7134TIP3    H121279   2.096   0.600   5.328
 7134TIP3    H221280   2.197   0.712   5.332
 7135TIP3   OH221281   2.914   0.732   4.938
 7135TIP3    H121282   2.995   0.772   4.905
 7135TIP3    H221283   2.897   0.661   4.876
 7136TIP3   OH221284   3.627   0.891   5.043
 7136TIP3    H121285   3.624   0.796   5.034
 7136TIP3    H221286   3.581   0.924   4.966
 7137TIP3   OH221287   2.243   0.604   5.028
 7137TIP3    H121288   2.245   0.603   5.124
 7137TIP3    H221289   2.323   0.558   5.003
 7138TIP3   OH221290   3.836   1.038   6.224
 7138TIP3    H121291   3.761   1.008   6.172
 7138TIP3    H221292   3.824   1.133   6.230
 7139TIP3   OH221293   5.115   0.441   4.994
 7139TIP3    H121294   5.096   0.532   4.969
 7139TIP3    H221295   5.046   0.390   4.953
 7140TIP3   OH221296   5.082   0.424   5.358
 7140TIP3    H121297   5.132   0.404   5.437
 7140TIP3    H221298   5.043   0.341   5.332
 7141TIP3   OH221299   4.390   0.353   5.741
 7141TIP3    H121300   4.436   0.323   5.819
 7141TIP3    H221301   4.458   0.396   5.688
 7142TIP3   OH221302   5.382   0.721   5.065
 7142TIP3    H121303   5.360   0.665   5.139
 7142TIP3    H221304   5.402   0.806   5.103
 7143TIP3   OH221305   4.399   0.714   5.411
 7143TIP3    H121306   4.373   0.622   5.416
 7143TIP3    H221307   4.495   0.712   5.409
 7144TIP3   OH221308   0.785   9.217   5.211
 7144TIP3    H121309   0.736   9.294   5.241
 7144TIP3    H221310   0.723   9.168   5.158
 7145TIP3   OH221311   4.146   0.266   5.422
 7145TIP3    H121312   4.190   0.181   5.430
 7145TIP3    H221313   4.216   0.327   5.399
 7146TIP3   OH221314   5.039   1.146   5.075
 7146TIP3    H121315   5.064   1.079   5.012
 7146TIP3    H221316   5.053   1.104   5.160
 7147TIP3   OH221317   4.917   0.648   5.396
 7147TIP3    H121318   4.957   0.567   5.365
 7147TIP3    H221319   4.991   0.705   5.417
 7148TIP3   OH221320   5.403   0.166   5.413
 7148TIP3    H121321   5.471   0.126   5.468
 7148TIP3    H221322   5.342   0.095   5.395
 7149TIP3   OH221323   0.981   9.256   5.481
 7149TIP3    H121324   1.070   9.234   5.510
 7149TIP3    H221325   0.970   9.208   5.399
 7150TIP3   OH221326   4.700   0.279   5.342
 7150TIP3    H121327   4.790   0.245   5.342
 7150TIP3    H221328   4.646   0.202   5.325
 7151TIP3   OH221329   5.963   0.070   5.572
 7151TIP3    H121330   5.940   0.161   5.553
 7151TIP3    H221331   6.050   0.075   5.611
 7152TIP3   OH221332   5.004   0.643   4.843
 7152TIP3    H121333   4.976   0.614   4.757
 7152TIP3    H221334   4.956   0.724   4.858
 7153TIP3   OH221335   4.792   0.584   5.636
 7153TIP3    H121336   4.729   0.651   5.662
 7153TIP3    H221337   4.830   0.617   5.555
 7154TIP3   OH221338   1.247   9.191   5.519
 7154TIP3    H121339   1.279   9.262   5.575
 7154TIP3    H221340   1.313   9.185   5.449
 7155TIP3   OH221341   4.600   0.767   5.709
 7155TIP3    H121342   4.585   0.856   5.676
 7155TIP3    H221343   4.521   0.747   5.760
 7156TIP3   OH221344   3.958   0.498   4.939
 7156TIP3    H121345   3.870   0.529   4.921
 7156TIP3    H221346   4.000   0.571   4.986
 7157TIP3   OH221347   5.417   0.971   5.196
 7157TIP3    H121348   5.328   0.966   5.230
 7157TIP3    H221349   5.420   1.054   5.149
 7158TIP3   OH221350   5.122   0.991   4.860
 7158TIP3    H121351   5.177   0.914   4.848
 7158TIP3    H221352   5.177   1.064   4.832
 7159TIP3   OH221353   5.289   0.784   4.810
 7159TIP3    H121354   5.270   0.703   4.762
 7159TIP3    H221355   5.327   0.753   4.893
 7160TIP3   OH221356   5.656   0.878   5.553
 7160TIP3    H121357   5.638   0.807   5.491
 7160TIP3    H221358   5.638   0.958   5.503
 7161TIP3   OH221359   4.945   0.295   4.825
 7161TIP3    H121360   4.856   0.329   4.815
 7161TIP3    H221361   4.983   0.301   4.737
 7162TIP3   OH221362   4.899   0.092   4.533
 7162TIP3    H121363   4.970   0.150   4.561
 7162TIP3    H221364   4.908   0.014   4.587
 7163TIP3   OH221365   5.827   0.548   5.379
 7163TIP3    H121366   5.742   0.593   5.384
 7163TIP3    H221367   5.867   0.584   5.300
 7164TIP3   OH221368   5.292   0.385   4.777
 7164TIP3    H121369   5.247   0.399   4.860
 7164TIP3    H221370   5.374   0.341   4.802
 7165TIP3   OH221371   5.459   0.418   5.727
 7165TIP3    H121372   5.477   0.506   5.761
 7165TIP3    H221373   5.384   0.431   5.667
 7166TIP3   OH221374   4.504   0.375   5.162
 7166TIP3    H121375   4.467   0.305   5.108
 7166TIP3    H221376   4.576   0.334   5.209
 7167TIP3   OH221377   4.666   0.753   5.323
 7167TIP3    H121378   4.651   0.737   5.230
 7167TIP3    H221379   4.753   0.717   5.340
 7168TIP3   OH221380   4.597   0.409   5.555
 7168TIP3    H121381   4.639   0.373   5.477
 7168TIP3    H221382   4.662   0.470   5.590
 7169TIP3   OH221383   5.170   0.971   5.311
 7169TIP3    H121384   5.159   1.050   5.365
 7169TIP3    H221385   5.159   0.899   5.373
 7170TIP3   OH221386   4.794   0.876   5.873
 7170TIP3    H121387   4.731   0.934   5.917
 7170TIP3    H221388   4.740   0.820   5.818
 7171TIP3   OH221389   5.114   0.262   4.607
 7171TIP3    H121390   5.176   0.308   4.663
 7171TIP3    H221391   5.137   0.289   4.518
 7172TIP3   OH221392   4.501   0.475   5.998
 7172TIP3    H121393   4.499   0.563   6.036
 7172TIP3    H221394   4.414   0.439   6.018
 7173TIP3   OH221395   4.868   0.889   4.830
 7173TIP3    H121396   4.954   0.925   4.851
 7173TIP3    H221397   4.817   0.964   4.801
 7174TIP3   OH221398   4.584   1.030   5.959
 7174TIP3    H121399   4.557   1.038   5.868
 7174TIP3    H221400   4.502   1.014   6.007
 7175TIP3   OH221401   4.382   0.202   4.981
 7175TIP3    H121402   4.305   0.249   4.950
 7175TIP3    H221403   4.349   0.114   5.001
 7176TIP3   OH221404   5.464   0.820   4.222
 7176TIP3    H121405   5.459   0.913   4.201
 7176TIP3    H221406   5.554   0.796   4.201
 7177TIP3   OH221407   4.180   0.591   5.909
 7177TIP3    H121408   4.108   0.577   5.848
 7177TIP3    H221409   4.210   0.503   5.931
 7178TIP3   OH221410   4.022   0.786   5.570
 7178TIP3    H121411   4.112   0.811   5.593
 7178TIP3    H221412   3.970   0.863   5.592
 7179TIP3   OH221413   5.885   1.245   5.613
 7179TIP3    H121414   5.892   1.150   5.624
 7179TIP3    H221415   5.804   1.268   5.658
 7180TIP3   OH221416   4.988   1.013   5.737
 7180TIP3    H121417   4.984   1.104   5.766
 7180TIP3    H221418   4.919   0.969   5.786
 7181TIP3   OH221419   4.759   1.105   4.686
 7181TIP3    H121420   4.724   1.101   4.597
 7181TIP3    H221421   4.731   1.190   4.719
 7182TIP3   OH221422   4.209   0.958   5.060
 7182TIP3    H121423   4.253   0.957   5.145
 7182TIP3    H221424   4.158   0.877   5.058
 7183TIP3   OH221425   4.965   1.043   4.321
 7183TIP3    H121426   5.017   0.972   4.283
 7183TIP3    H221427   5.002   1.057   4.408
 7184TIP3   OH221428   5.020   1.088   4.588
 7184TIP3    H121429   4.938   1.086   4.636
 7184TIP3    H221430   5.087   1.065   4.652
 7185TIP3   OH221431   5.794   0.393   5.797
 7185TIP3    H121432   5.770   0.458   5.863
 7185TIP3    H221433   5.730   0.322   5.809
 7186TIP3   OH221434   4.376   0.783   5.874
 7186TIP3    H121435   4.421   0.782   5.958
 7186TIP3    H221436   4.307   0.717   5.882
 7187TIP3   OH221437   5.588   0.246   5.886
 7187TIP3    H121438   5.526   0.174   5.900
 7187TIP3    H221439   5.536   0.313   5.842
 7188TIP3   OH221440   5.197   0.327   4.360
 7188TIP3    H121441   5.148   0.302   4.282
 7188TIP3    H221442   5.277   0.366   4.327
 7189TIP3   OH221443   4.618   0.157   5.664
 7189TIP3    H121444   4.583   0.160   5.753
 7189TIP3    H221445   4.596   0.242   5.626
 7190TIP3   OH221446   4.523   0.090   5.262
 7190TIP3    H121447   4.459   0.018   5.264
 7190TIP3    H221448   4.579   0.069   5.188
 7191TIP3   OH221449   5.158   0.149   4.908
 7191TIP3    H121450   5.078   0.195   4.883
 7191TIP3    H221451   5.150   0.063   4.866
 7192TIP3   OH221452   5.257   0.467   5.973
 7192TIP3    H121453   5.210   0.416   6.039
 7192TIP3    H221454   5.348   0.438   5.981
 7193TIP3   OH221455   5.197   0.229   5.161
 7193TIP3    H121456   5.171   0.320   5.146
 7193TIP3    H221457   5.203   0.192   5.073
 7194TIP3   OH221458   4.529   0.178   5.921
 7194TIP3    H121459   4.582   0.183   6.001
 7194TIP3    H221460   4.459   0.117   5.943
 7195TIP3   OH221461   5.244   0.336   5.560
 7195TIP3    H121462   5.299   0.274   5.511
 7195TIP3    H221463   5.214   0.287   5.637
 7196TIP3   OH221464   1.067   9.114   5.252
 7196TIP3    H121465   1.027   9.165   5.181
 7196TIP3    H221466   1.009   9.039   5.263
 7197TIP3   OH221467   1.327   9.060   4.969
 7197TIP3    H121468   1.423   9.054   4.974
 7197TIP3    H221469   1.311   9.132   4.908
 7198TIP3   OH221470   1.129   9.207   4.772
 7198TIP3    H121471   1.076   9.206   4.851
 7198TIP3    H221472   1.065   9.217   4.701
 7199TIP3   OH221473   5.597   1.571   5.700
 7199TIP3    H121474   5.592   1.592   5.607
 7199TIP3    H221475   5.676   1.616   5.731
 7200TIP3   OH221476   4.517   0.718   6.121
 7200TIP3    H121477   4.602   0.727   6.165
 7200TIP3    H221478   4.453   0.726   6.192
 7201TIP3   OH221479   4.944   0.145   5.379
 7201TIP3    H121480   4.891   0.070   5.354
 7201TIP3    H221481   4.957   0.134   5.474
 7202TIP3   OH221482   4.977   0.060   5.636
 7202TIP3    H121483   4.900   0.006   5.654
 7202TIP3    H221484   5.031   0.053   5.714
 7203TIP3   OH221485   4.706   0.411   4.760
 7203TIP3    H121486   4.633   0.351   4.743
 7203TIP3    H221487   4.678   0.461   4.837
 7204TIP3   OH221488   5.595   0.697   5.362
 7204TIP3    H121489   5.629   0.748   5.289
 7204TIP3    H221490   5.510   0.665   5.332
 7205TIP3   OH221491   5.109   0.749   5.756
 7205TIP3    H121492   5.133   0.733   5.847
 7205TIP3    H221493   5.072   0.837   5.756
 7206TIP3   OH221494   5.185   0.003   4.665
 7206TIP3    H121495   5.272  -0.006   4.703
 7206TIP3    H221496   5.175   0.098   4.651
 7207TIP3   OH221497   4.368   0.433   5.395
 7207TIP3    H121498   4.407   0.418   5.309
 7207TIP3    H221499   4.439   0.417   5.457
 7208TIP3   OH221500   4.863   0.573   4.612
 7208TIP3    H121501   4.809   0.651   4.606
 7208TIP3    H221502   4.810   0.510   4.662
 7209TIP3   OH221503   4.253   0.357   6.054
 7209TIP3    H121504   4.268   0.314   6.138
 7209TIP3    H221505   4.177   0.311   6.017
 7210TIP3   OH221506   4.986   0.542   6.051
 7210TIP3    H121507   4.903   0.496   6.042
 7210TIP3    H221508   5.038   0.512   5.976
 7211TIP3   OH221509   5.258   1.026   5.656
 7211TIP3    H121510   5.162   1.022   5.661
 7211TIP3    H221511   5.284   1.064   5.740
 7212TIP3   OH221512   5.698   0.055   4.632
 7212TIP3    H121513   5.713  -0.023   4.579
 7212TIP3    H221514   5.619   0.094   4.595
 7213TIP3   OH221515   5.900   0.969   5.632
 7213TIP3    H121516   5.806   0.953   5.629
 7213TIP3    H221517   5.932   0.938   5.547
 7214TIP3   OH221518   5.382   0.889   4.484
 7214TIP3    H121519   5.358   0.817   4.541
 7214TIP3    H221520   5.404   0.848   4.401
 7215TIP3   OH221521   5.349   0.566   5.303
 7215TIP3    H121522   5.262   0.525   5.304
 7215TIP3    H221523   5.409   0.497   5.330
 7216TIP3   OH221524   4.518   0.777   5.077
 7216TIP3    H121525   4.504   0.844   5.010
 7216TIP3    H221526   4.444   0.786   5.136
 7217TIP3   OH221527   4.063   0.083   4.775
 7217TIP3    H121528   4.106   0.162   4.809
 7217TIP3    H221529   3.988   0.070   4.832
 7218TIP3   OH221530   4.609   0.541   4.973
 7218TIP3    H121531   4.588   0.629   5.004
 7218TIP3    H221532   4.575   0.483   5.041
 7219TIP3   OH221533   4.806   1.082   5.529
 7219TIP3    H121534   4.838   1.157   5.479
 7219TIP3    H221535   4.880   1.053   5.581
 7220TIP3   OH221536   4.425   0.969   4.891
 7220TIP3    H121537   4.344   0.975   4.940
 7220TIP3    H221538   4.466   1.055   4.900
 7221TIP3   OH221539   5.161   0.751   5.483
 7221TIP3    H121540   5.154   0.749   5.578
 7221TIP3    H221541   5.245   0.708   5.465
 7222TIP3   OH221542   5.149   0.638   4.375
 7222TIP3    H121543   5.196   0.617   4.456
 7222TIP3    H221544   5.066   0.592   4.383
 7223TIP3   OH221545   5.405   1.243   5.544
 7223TIP3    H121546   5.335   1.180   5.561
 7223TIP3    H221547   5.373   1.296   5.472
 7224TIP3   OH221548   5.459   1.091   4.177
 7224TIP3    H121549   5.475   1.149   4.102
 7224TIP3    H221550   5.390   1.134   4.227
 7225TIP3   OH221551   5.314   0.581   4.589
 7225TIP3    H121552   5.301   0.510   4.652
 7225TIP3    H221553   5.408   0.580   4.572
 7226TIP3   OH221554   4.233   0.973   5.688
 7226TIP3    H121555   4.285   0.915   5.743
 7226TIP3    H221556   4.244   1.060   5.725
 7227TIP3   OH221557   4.166   0.329   4.864
 7227TIP3    H121558   4.096   0.381   4.904
 7227TIP3    H221559   4.217   0.393   4.814
 7228TIP3   OH221560   4.688   0.783   4.576
 7228TIP3    H121561   4.649   0.801   4.661
 7228TIP3    H221562   4.731   0.865   4.551
 7229TIP3   OH221563   1.602   9.032   5.015
 7229TIP3    H121564   1.635   9.116   5.050
 7229TIP3    H221565   1.653   8.966   5.062
 7230TIP3   OH221566   5.167   0.243   5.813
 7230TIP3    H121567   5.120   0.326   5.808
 7230TIP3    H221568   5.241   0.260   5.872
 7231TIP3   OH221569   4.410   0.828   4.656
 7231TIP3    H121570   4.408   0.902   4.596
 7231TIP3    H221571   4.412   0.867   4.743
 7232TIP3   OH221572   5.481   0.252   5.137
 7232TIP3    H121573   5.396   0.255   5.181
 7232TIP3    H221574   5.540   0.301   5.194
 7233TIP3   OH221575   5.439   1.233   5.108
 7233TIP3    H121576   5.397   1.286   5.039
 7233TIP3    H221577   5.532   1.252   5.097
 7234TIP3   OH221578   4.027   0.745   5.049
 7234TIP3    H121579   3.989   0.783   5.128
 7234TIP3    H221580   3.977   0.784   4.977
 7235TIP3   OH221581   4.229   1.278   6.111
 7235TIP3    H121582   4.311   1.284   6.162
 7235TIP3    H221583   4.216   1.184   6.098
 7236TIP3   OH221584   4.689   1.193   6.155
 7236TIP3    H121585   4.781   1.170   6.165
 7236TIP3    H221586   4.657   1.140   6.083
 7237TIP3   OH221587   4.679   0.791   4.284
 7237TIP3    H121588   4.690   0.744   4.366
 7237TIP3    H221589   4.748   0.757   4.227
 7238TIP3   OH221590   5.320   1.129   5.901
 7238TIP3    H121591   5.330   1.067   5.973
 7238TIP3    H221592   5.390   1.193   5.915
 7239TIP3   OH221593   5.097   0.839   4.197
 7239TIP3    H121594   5.133   0.777   4.261
 7239TIP3    H221595   5.156   0.832   4.121
 7240TIP3   OH221596   4.320   0.695   6.313
 7240TIP3    H121597   4.346   0.603   6.320
 7240TIP3    H221598   4.234   0.693   6.270
 7241TIP3   OH221599   4.419   0.479   4.572
 7241TIP3    H121600   4.442   0.412   4.638
 7241TIP3    H221601   4.413   0.430   4.490
 7242TIP3   OH221602   4.948   0.807   6.087
 7242TIP3    H121603   4.898   0.825   6.007
 7242TIP3    H221604   4.975   0.716   6.079
 7243TIP3   OH221605   4.887   0.534   4.344
 7243TIP3    H121606   4.876   0.542   4.439
 7243TIP3    H221607   4.875   0.441   4.326
 7244TIP3   OH221608   5.416   0.796   5.668
 7244TIP3    H121609   5.496   0.833   5.630
 7244TIP3    H221610   5.352   0.867   5.663
 7245TIP3   OH221611   4.444   0.445   6.319
 7245TIP3    H121612   4.530   0.430   6.278
 7245TIP3    H221613   4.464   0.466   6.410
 7246TIP3   OH221614   4.485   0.255   4.721
 7246TIP3    H121615   4.460   0.217   4.805
 7246TIP3    H221616   4.508   0.179   4.667
 7247TIP3   OH221617   4.757   0.400   6.019
 7247TIP3    H121618   4.667   0.429   6.008
 7247TIP3    H221619   4.778   0.355   5.938
 7248TIP3   OH221620   4.621   0.069   4.547
 7248TIP3    H121621   4.586   0.078   4.459
 7248TIP3    H221622   4.715   0.082   4.537
 7249TIP3   OH221623   5.311   0.706   6.098
 7249TIP3    H121624   5.292   0.639   6.031
 7249TIP3    H221625   5.320   0.656   6.179
 7250TIP3   OH221626   5.435   0.363   4.202
 7250TIP3    H121627   5.420   0.315   4.121
 7250TIP3    H221628   5.405   0.452   4.183
 7251TIP3   OH221629   4.909   0.126   6.027
 7251TIP3    H121630   4.958   0.057   5.982
 7251TIP3    H221631   4.875   0.181   5.956
 7252TIP3   OH221632   5.020   0.473   5.751
 7252TIP3    H121633   5.082   0.541   5.726
 7252TIP3    H221634   4.935   0.506   5.724
 7253TIP3   OH221635   5.625   0.346   6.196
 7253TIP3    H121636   5.541   0.321   6.157
 7253TIP3    H221637   5.602   0.386   6.280
 7254TIP3   OH221638   5.549   0.652   5.855
 7254TIP3    H121639   5.492   0.708   5.802
 7254TIP3    H221640   5.636   0.665   5.819
 7255TIP3   OH221641   4.716   0.374   6.293
 7255TIP3    H121642   4.690   0.282   6.294
 7255TIP3    H221643   4.744   0.390   6.203
 7256TIP3   OH221644   5.120   0.280   6.135
 7256TIP3    H121645   5.119   0.253   6.227
 7256TIP3    H221646   5.038   0.244   6.099
 7257TIP3   OH221647   4.431   1.012   4.455
 7257TIP3    H121648   4.525   1.029   4.447
 7257TIP3    H221649   4.390   1.080   4.401
 7258TIP3   OH221650   3.927   0.467   4.638
 7258TIP3    H121651   3.962   0.453   4.726
 7258TIP3    H221652   3.914   0.379   4.603
 7259TIP3   OH221653   3.834   1.048   5.126
 7259TIP3    H121654   3.764   0.994   5.088
 7259TIP3    H221655   3.876   0.991   5.190
 7260TIP3   OH221656   3.977   0.884   5.297
 7260TIP3    H121657   3.966   0.817   5.365
 7260TIP3    H221658   4.030   0.952   5.339
 7261TIP3   OH221659   5.707   1.299   5.109
 7261TIP3    H121660   5.721   1.323   5.201
 7261TIP3    H221661   5.754   1.365   5.059
 7262TIP3   OH221662   5.719   1.329   5.387
 7262TIP3    H121663   5.676   1.244   5.386
 7262TIP3    H221664   5.791   1.318   5.450
 7263TIP3   OH221665   5.767   1.035   5.942
 7263TIP3    H121666   5.699   1.045   6.008
 7263TIP3    H221667   5.819   1.116   5.949
 7264TIP3   OH221668   5.587   0.568   4.558
 7264TIP3    H121669   5.649   0.635   4.529
 7264TIP3    H221670   5.626   0.531   4.637
 7265TIP3   OH221671   5.698   0.440   4.773
 7265TIP3    H121672   5.643   0.384   4.826
 7265TIP3    H221673   5.763   0.476   4.835
 7266TIP3   OH221674   5.770   0.827   5.198
 7266TIP3    H121675   5.823   0.762   5.153
 7266TIP3    H221676   5.773   0.904   5.141
 7267TIP3   OH221677   5.581   1.088   5.394
 7267TIP3    H121678   5.512   1.134   5.442
 7267TIP3    H221679   5.535   1.046   5.321
 7268TIP3   OH221680   5.625   0.352   4.396
 7268TIP3    H121681   5.563   0.359   4.324
 7268TIP3    H221682   5.611   0.431   4.448
 7269TIP3   OH221683   2.340   9.249   4.290
 7269TIP3    H121684   2.255   9.292   4.284
 7269TIP3    H221685   2.328   9.179   4.354
 7270TIP3   OH221686   5.515   0.235   4.868
 7270TIP3    H121687   5.471   0.153   4.845
 7270TIP3    H221688   5.506   0.241   4.963
 7271TIP3   OH221689   4.128   0.315   5.687
 7271TIP3    H121690   4.124   0.303   5.593
 7271TIP3    H221691   4.220   0.331   5.706
 7272TIP3   OH221692   5.798   0.695   5.743
 7272TIP3    H121693   5.874   0.645   5.712
 7272TIP3    H221694   5.784   0.761   5.676
 7273TIP3   OH221695   6.030   0.523   5.755
 7273TIP3    H121696   5.963   0.480   5.808
 7273TIP3    H221697   6.089   0.564   5.818
 7274TIP3   OH221698   2.168   9.197   4.760
 7274TIP3    H121699   2.207   9.114   4.789
 7274TIP3    H221700   2.197   9.207   4.670
 7275TIP3   OH221701   5.760   0.127   5.334
 7275TIP3    H121702   5.773   0.210   5.288
 7275TIP3    H221703   5.750   0.151   5.426
 7276TIP3   OH221704   5.857   0.323   5.535
 7276TIP3    H121705   5.840   0.353   5.624
 7276TIP3    H221706   5.852   0.403   5.482
 7277TIP3   OH221707   4.078   0.033   5.699
 7277TIP3    H121708   4.127   0.021   5.618
 7277TIP3    H221709   4.079   0.128   5.714
 7278TIP3   OH221710   5.251   1.201   4.748
 7278TIP3    H121711   5.311   1.192   4.675
 7278TIP3    H221712   5.291   1.267   4.805
 7279TIP3   OH221713   4.360   1.002   6.124
 7279TIP3    H121714   4.267   0.980   6.121
 7279TIP3    H221715   4.382   1.001   6.217
 7280TIP3   OH221716   4.576   1.042   5.675
 7280TIP3    H121717   4.524   1.117   5.644
 7280TIP3    H221718   4.661   1.052   5.632
 7281TIP3   OH221719   4.978   1.278   5.817
 7281TIP3    H121720   5.015   1.273   5.905
 7281TIP3    H221721   5.039   1.332   5.768
 7282TIP3   OH221722   5.170   1.432   5.693
 7282TIP3    H121723   5.237   1.382   5.646
 7282TIP3    H221724   5.220   1.493   5.747
 7283TIP3   OH221725   4.234   1.276   5.727
 7283TIP3    H121726   4.143   1.293   5.702
 7283TIP3    H221727   4.255   1.345   5.790
 7284TIP3   OH221728   4.464   1.273   5.575
 7284TIP3    H121729   4.382   1.277   5.623
 7284TIP3    H221730   4.442   1.300   5.486
 7285TIP3   OH221731   4.876   1.294   5.367
 7285TIP3    H121732   4.807   1.310   5.303
 7285TIP3    H221733   4.888   1.379   5.410
 7286TIP3   OH221734   5.138   1.223   5.414
 7286TIP3    H121735   5.047   1.249   5.396
 7286TIP3    H221736   5.191   1.290   5.372
 7287TIP3   OH221737   5.340   1.387   5.315
 7287TIP3    H121738   5.346   1.476   5.282
 7287TIP3    H221739   5.371   1.332   5.243
 7288TIP3   OH221740   4.151   1.061   5.434
 7288TIP3    H121741   4.170   1.036   5.524
 7288TIP3    H221742   4.226   1.029   5.384
 7289TIP3   OH221743   4.356   0.950   5.291
 7289TIP3    H121744   4.363   0.869   5.341
 7289TIP3    H221745   4.442   0.992   5.302
 7290TIP3   OH221746   4.621   1.030   5.326
 7290TIP3    H121747   4.640   0.937   5.314
 7290TIP3    H221748   4.675   1.057   5.400
 7291TIP3   OH221749   3.902   0.841   4.822
 7291TIP3    H121750   3.817   0.817   4.786
 7291TIP3    H221751   3.913   0.933   4.797
 7292TIP3   OH221752   4.706   1.031   4.417
 7292TIP3    H121753   4.790   1.063   4.385
 7292TIP3    H221754   4.686   0.957   4.359
 7293TIP3   OH221755   5.413   1.157   4.526
 7293TIP3    H121756   5.408   1.062   4.517
 7293TIP3    H221757   5.373   1.192   4.446
 7294TIP3   OH221758   3.997   0.900   4.499
 7294TIP3    H121759   3.966   0.962   4.564
 7294TIP3    H221760   4.026   0.824   4.549
 7295TIP3   OH221761   5.630   1.298   5.705
 7295TIP3    H121762   5.554   1.268   5.654
 7295TIP3    H221763   5.618   1.393   5.712
 7296TIP3   OH221764   6.905   0.699   4.476
 7296TIP3    H121765   6.890   0.792   4.455
 7296TIP3    H221766   6.834   0.653   4.432
 7297TIP3   OH221767   6.886   0.688   4.841
 7297TIP3    H121768   6.927   0.675   4.927
 7297TIP3    H221769   6.839   0.607   4.824
 7298TIP3   OH221770   6.195   0.608   5.221
 7298TIP3    H121771   6.239   0.574   5.298
 7298TIP3    H221772   6.264   0.651   5.170
 7299TIP3   OH221773   7.176   0.978   4.558
 7299TIP3    H121774   7.157   0.924   4.634
 7299TIP3    H221775   7.198   1.064   4.595
 7300TIP3   OH221776   6.192   0.975   4.907
 7300TIP3    H121777   6.167   0.882   4.906
 7300TIP3    H221778   6.287   0.973   4.898
 7301TIP3   OH221779   5.879   0.255   4.677
 7301TIP3    H121780   5.828   0.332   4.702
 7301TIP3    H221781   5.815   0.186   4.665
 7302TIP3   OH221782   5.944   0.519   4.889
 7302TIP3    H121783   5.996   0.445   4.919
 7302TIP3    H221784   6.008   0.585   4.863
 7303TIP3   OH221785   6.837   1.420   4.558
 7303TIP3    H121786   6.861   1.353   4.494
 7303TIP3    H221787   6.843   1.375   4.643
 7304TIP3   OH221788   6.712   0.908   4.878
 7304TIP3    H121789   6.751   0.829   4.842
 7304TIP3    H221790   6.786   0.964   4.901
 7305TIP3   OH221791   7.175   0.451   4.900
 7305TIP3    H121792   7.243   0.418   4.959
 7305TIP3    H221793   7.119   0.376   4.882
 7306TIP3   OH221794   6.061   0.310   5.023
 7306TIP3    H121795   6.154   0.291   5.024
 7306TIP3    H221796   6.021   0.234   4.982
 7307TIP3   OH221797   6.508   0.550   4.825
 7307TIP3    H121798   6.596   0.517   4.842
 7307TIP3    H221799   6.453   0.472   4.817
 7308TIP3   OH221800   7.765   0.330   5.078
 7308TIP3    H121801   7.751   0.422   5.054
 7308TIP3    H221802   7.851   0.329   5.121
 7309TIP3   OH221803   6.816   0.910   4.319
 7309TIP3    H121804   6.776   0.875   4.239
 7309TIP3    H221805   6.759   0.983   4.343
 7310TIP3   OH221806   6.591   0.845   5.120
 7310TIP3    H121807   6.527   0.911   5.146
 7310TIP3    H221808   6.625   0.877   5.036
 7311TIP3   OH221809   6.314   0.216   5.031
 7311TIP3    H121810   6.363   0.289   5.068
 7311TIP3    H221811   6.378   0.167   4.980
 7312TIP3   OH221812   6.398   1.024   5.196
 7312TIP3    H121813   6.383   1.112   5.161
 7312TIP3    H221814   6.320   1.006   5.248
 7313TIP3   OH221815   5.769   0.743   4.447
 7313TIP3    H121816   5.740   0.762   4.358
 7313TIP3    H221817   5.794   0.828   4.483
 7314TIP3   OH221818   7.215   1.233   4.681
 7314TIP3    H121819   7.126   1.229   4.717
 7314TIP3    H221820   7.218   1.317   4.634
 7315TIP3   OH221821   6.920   1.264   4.343
 7315TIP3    H121822   6.974   1.185   4.335
 7315TIP3    H221823   6.977   1.335   4.312
 7316TIP3   OH221824   7.064   1.035   4.311
 7316TIP3    H121825   6.988   0.976   4.307
 7316TIP3    H221826   7.112   1.007   4.389
 7317TIP3   OH221827   7.454   1.136   5.041
 7317TIP3    H121828   7.431   1.064   4.982
 7317TIP3    H221829   7.437   1.215   4.990
 7318TIP3   OH221830   6.729   0.572   4.300
 7318TIP3    H121831   6.639   0.599   4.287
 7318TIP3    H221832   6.770   0.580   4.214
 7319TIP3   OH221833   6.700   0.351   4.021
 7319TIP3    H121834   6.768   0.410   4.053
 7319TIP3    H221835   6.712   0.271   4.071
 7320TIP3   OH221836   7.630   0.805   4.870
 7320TIP3    H121837   7.542   0.841   4.875
 7320TIP3    H221838   7.665   0.838   4.787
 7321TIP3   OH221839   7.082   0.639   4.268
 7321TIP3    H121840   7.034   0.663   4.347
 7321TIP3    H221841   7.166   0.606   4.300
 7322TIP3   OH221842   7.272   0.721   5.151
 7322TIP3    H121843   7.278   0.807   5.193
 7322TIP3    H221844   7.180   0.714   5.125
 7323TIP3   OH221845   6.302   0.640   4.653
 7323TIP3    H121846   6.269   0.573   4.595
 7323TIP3    H221847   6.375   0.599   4.699
 7324TIP3   OH221848   6.456   1.011   4.813
 7324TIP3    H121849   6.435   1.000   4.720
 7324TIP3    H221850   6.544   0.975   4.823
 7325TIP3   OH221851   6.394   0.674   5.036
 7325TIP3    H121852   6.435   0.642   4.956
 7325TIP3    H221853   6.458   0.735   5.073
 7326TIP3   OH221854   6.971   1.232   4.801
 7326TIP3    H121855   6.961   1.311   4.855
 7326TIP3    H221856   6.958   1.160   4.862
 7327TIP3   OH221857   6.592   1.132   5.361
 7327TIP3    H121858   6.531   1.190   5.405
 7327TIP3    H221859   6.537   1.077   5.305
 7328TIP3   OH221860   6.911   0.523   4.090
 7328TIP3    H121861   6.970   0.573   4.146
 7328TIP3    H221862   6.932   0.550   4.001
 7329TIP3   OH221863   6.313   0.741   5.477
 7329TIP3    H121864   6.308   0.829   5.515
 7329TIP3    H221865   6.224   0.707   5.485
 7330TIP3   OH221866   6.672   1.144   4.352
 7330TIP3    H121867   6.753   1.194   4.357
 7330TIP3    H221868   6.613   1.199   4.301
 7331TIP3   OH221869   6.383   1.287   5.445
 7331TIP3    H121870   6.355   1.294   5.354
 7331TIP3    H221871   6.302   1.271   5.494
 7332TIP3   OH221872   6.196   0.469   4.463
 7332TIP3    H121873   6.119   0.517   4.432
 7332TIP3    H221874   6.164   0.381   4.480
 7333TIP3   OH221875   7.259   1.080   3.707
 7333TIP3    H121876   7.256   1.173   3.686
 7333TIP3    H221877   7.349   1.054   3.688
 7334TIP3   OH221878   5.972   0.865   5.392
 7334TIP3    H121879   5.904   0.849   5.327
 7334TIP3    H221880   6.006   0.778   5.413
 7335TIP3   OH221881   5.823   1.053   5.050
 7335TIP3    H121882   5.913   1.075   5.071
 7335TIP3    H221883   5.772   1.130   5.074
 7336TIP3   OH221884   7.682   1.497   5.100
 7336TIP3    H121885   7.691   1.403   5.112
 7336TIP3    H221886   7.602   1.520   5.146
 7337TIP3   OH221887   6.781   1.273   5.221
 7337TIP3    H121888   6.778   1.363   5.251
 7337TIP3    H221889   6.714   1.228   5.272
 7338TIP3   OH221890   6.565   1.364   4.180
 7338TIP3    H121891   6.522   1.345   4.096
 7338TIP3    H221892   6.526   1.447   4.208
 7339TIP3   OH221893   5.999   1.223   4.555
 7339TIP3    H121894   6.044   1.216   4.639
 7339TIP3    H221895   5.950   1.141   4.547
 7340TIP3   OH221896   6.767   1.306   3.805
 7340TIP3    H121897   6.816   1.232   3.768
 7340TIP3    H221898   6.804   1.316   3.893
 7341TIP3   OH221899   6.819   1.342   4.076
 7341TIP3    H121900   6.733   1.344   4.118
 7341TIP3    H221901   6.876   1.300   4.141
 7342TIP3   OH221902   7.599   0.638   5.284
 7342TIP3    H121903   7.558   0.703   5.340
 7342TIP3    H221904   7.541   0.563   5.287
 7343TIP3   OH221905   6.177   1.047   5.362
 7343TIP3    H121906   6.220   1.046   5.447
 7343TIP3    H221907   6.105   0.984   5.370
 7344TIP3   OH221908   7.355   0.552   5.359
 7344TIP3    H121909   7.301   0.473   5.359
 7344TIP3    H221910   7.323   0.603   5.284
 7345TIP3   OH221911   6.995   0.571   3.841
 7345TIP3    H121912   6.952   0.543   3.761
 7345TIP3    H221913   7.069   0.625   3.811
 7346TIP3   OH221914   6.438   0.427   5.148
 7346TIP3    H121915   6.397   0.427   5.234
 7346TIP3    H221916   6.408   0.509   5.107
 7347TIP3   OH221917   6.321   0.363   4.770
 7347TIP3    H121918   6.263   0.290   4.792
 7347TIP3    H221919   6.364   0.337   4.689
 7348TIP3   OH221920   6.903   0.388   4.400
 7348TIP3    H121921   6.835   0.450   4.373
 7348TIP3    H221922   6.921   0.336   4.322
 7349TIP3   OH221923   7.072   0.714   5.464
 7349TIP3    H121924   7.016   0.684   5.536
 7349TIP3    H221925   7.160   0.683   5.488
 7350TIP3   OH221926   6.977   0.482   4.642
 7350TIP3    H121927   6.963   0.576   4.629
 7350TIP3    H221928   6.977   0.446   4.553
 7351TIP3   OH221929   6.338   0.440   5.402
 7351TIP3    H121930   6.395   0.445   5.478
 7351TIP3    H221931   6.270   0.377   5.426
 7352TIP3   OH221932   7.021   0.616   5.068
 7352TIP3    H121933   7.076   0.561   5.011
 7352TIP3    H221934   7.006   0.561   5.145
 7353TIP3   OH221935   6.119   0.162   4.770
 7353TIP3    H121936   6.045   0.215   4.738
 7353TIP3    H221937   6.153   0.118   4.692
 7354TIP3   OH221938   6.397   0.064   4.414
 7354TIP3    H121939   6.490   0.085   4.429
 7354TIP3    H221940   6.369   0.130   4.350
 7355TIP3   OH221941   6.208   0.208   4.242
 7355TIP3    H121942   6.152   0.226   4.317
 7355TIP3    H221943   6.149   0.207   4.167
 7356TIP3   OH221944   7.395   1.827   5.193
 7356TIP3    H121945   7.395   1.843   5.098
 7356TIP3    H221946   7.475   1.871   5.224
 7357TIP3   OH221947   6.318   0.979   5.609
 7357TIP3    H121948   6.401   0.988   5.654
 7357TIP3    H221949   6.252   0.985   5.678
 7358TIP3   OH221950   6.751   0.435   4.885
 7358TIP3    H121951   6.739   0.365   4.820
 7358TIP3    H221952   6.762   0.388   4.968
 7359TIP3   OH221953   6.786   0.307   5.130
 7359TIP3    H121954   6.701   0.264   5.144
 7359TIP3    H221955   6.837   0.284   5.208
 7360TIP3   OH221956   6.481   0.673   4.233
 7360TIP3    H121957   6.406   0.617   4.214
 7360TIP3    H221958   6.460   0.713   4.317
 7361TIP3   OH221959   7.393   0.952   4.852
 7361TIP3    H121960   7.427   1.003   4.778
 7361TIP3    H221961   7.309   0.919   4.821
 7362TIP3   OH221962   6.943   1.032   5.237
 7362TIP3    H121963   6.903   0.951   5.268
 7362TIP3    H221964   6.882   1.100   5.264
 7363TIP3   OH221965   6.987   0.271   4.162
 7363TIP3    H121966   7.074   0.268   4.201
 7363TIP3    H221967   6.977   0.361   4.130
 7364TIP3   OH221968   6.160   0.695   4.881
 7364TIP3    H121969   6.201   0.682   4.795
 7364TIP3    H221970   6.231   0.680   4.944
 7365TIP3   OH221971   6.659   0.830   4.101
 7365TIP3    H121972   6.614   0.915   4.095
 7365TIP3    H221973   6.594   0.773   4.143
 7366TIP3   OH221974   6.062   0.632   5.509
 7366TIP3    H121975   6.073   0.596   5.598
 7366TIP3    H221976   5.998   0.574   5.467
 7367TIP3   OH221977   6.789   0.793   5.529
 7367TIP3    H121978   6.706   0.744   5.530
 7367TIP3    H221979   6.821   0.785   5.440
 7368TIP3   OH221980   7.055   1.295   5.135
 7368TIP3    H121981   6.962   1.275   5.144
 7368TIP3    H221982   7.082   1.323   5.222
 7369TIP3   OH221983   7.461   0.352   4.041
 7369TIP3    H121984   7.386   0.297   4.020
 7369TIP3    H221985   7.444   0.434   3.995
 7370TIP3   OH221986   7.702   1.223   5.118
 7370TIP3    H121987   7.607   1.206   5.120
 7370TIP3    H221988   7.731   1.189   5.034
 7371TIP3   OH221989   7.177   1.140   3.971
 7371TIP3    H121990   7.151   1.065   4.024
 7371TIP3    H221991   7.198   1.103   3.885
 7372TIP3   OH221992   7.147   0.818   4.791
 7372TIP3    H121993   7.060   0.777   4.787
 7372TIP3    H221994   7.206   0.746   4.813
 7373TIP3   OH221995   6.322   1.029   4.566
 7373TIP3    H121996   6.314   1.105   4.508
 7373TIP3    H221997   6.232   1.010   4.593
 7374TIP3   OH221998   5.869   0.329   4.279
 7374TIP3    H121999   5.917   0.409   4.300
 7374TIP3    H222000   5.785   0.338   4.325
 7375TIP3   OH222001   6.417   0.795   4.461
 7375TIP3    H122002   6.404   0.886   4.489
 7375TIP3    H222003   6.379   0.742   4.531
 7376TIP3   OH222004   6.601   1.339   5.014
 7376TIP3    H122005   6.637   1.413   4.964
 7376TIP3    H222006   6.674   1.309   5.068
 7377TIP3   OH222007   6.232   1.243   4.411
 7377TIP3    H122008   6.145   1.248   4.450
 7377TIP3    H222009   6.266   1.333   4.418
 7378TIP3   OH222010   6.958   1.007   4.964
 7378TIP3    H122011   6.960   1.016   5.059
 7378TIP3    H222012   7.039   0.960   4.943
 7379TIP3   OH222013   6.943   0.890   3.850
 7379TIP3    H122014   6.990   0.863   3.928
 7379TIP3    H222015   6.857   0.848   3.858
 7380TIP3   OH222016   7.207   1.501   5.030
 7380TIP3    H122017   7.142   1.435   5.051
 7380TIP3    H222018   7.168   1.552   4.958
 7381TIP3   OH222019   7.267   1.351   3.674
 7381TIP3    H122020   7.317   1.421   3.631
 7381TIP3    H222021   7.189   1.396   3.707
 7382TIP3   OH222022   7.108   0.810   4.050
 7382TIP3    H122023   7.096   0.762   4.132
 7382TIP3    H222024   7.203   0.819   4.041
 7383TIP3   OH222025   6.029   1.233   5.177
 7383TIP3    H122026   6.084   1.176   5.230
 7383TIP3    H222027   6.042   1.321   5.215
 7384TIP3   OH222028   6.293   0.883   3.885
 7384TIP3    H122029   6.303   0.793   3.854
 7384TIP3    H222030   6.280   0.874   3.980
 7385TIP3   OH222031   6.240   0.867   4.156
 7385TIP3    H122032   6.314   0.837   4.209
 7385TIP3    H222033   6.241   0.962   4.164
 7386TIP3   OH222034   5.969   0.576   4.353
 7386TIP3    H122035   5.903   0.624   4.404
 7386TIP3    H222036   5.987   0.634   4.279
 7387TIP3   OH222037   6.512   1.056   4.082
 7387TIP3    H122038   6.427   1.079   4.118
 7387TIP3    H222039   6.533   1.128   4.022
 7388TIP3   OH222040   6.683   0.052   4.484
 7388TIP3    H122041   6.772   0.074   4.456
 7388TIP3    H222042   6.694  -0.009   4.557
 7389TIP3   OH222043   6.986   0.500   5.315
 7389TIP3    H122044   6.985   0.586   5.357
 7389TIP3    H222045   7.069   0.461   5.342
 7390TIP3   OH222046   6.262   1.138   4.162
 7390TIP3    H122047   6.241   1.209   4.100
 7390TIP3    H222048   6.250   1.177   4.248
 7391TIP3   OH222049   7.287   0.502   4.645
 7391TIP3    H122050   7.224   0.498   4.717
 7391TIP3    H222051   7.358   0.556   4.678
 7392TIP3   OH222052   5.990   0.749   4.136
 7392TIP3    H122053   6.065   0.807   4.149
 7392TIP3    H222054   6.019   0.686   4.071
 7393TIP3   OH222055   5.878   0.054   4.303
 7393TIP3    H122056   5.888   0.149   4.301
 7393TIP3    H222057   5.783   0.040   4.302
 7394TIP3   OH222058   7.237   1.500   4.597
 7394TIP3    H122059   7.196   1.552   4.527
 7394TIP3    H222060   7.330   1.518   4.589
 7395TIP3   OH222061   5.822   1.004   4.534
 7395TIP3    H122062   5.782   1.042   4.612
 7395TIP3    H222063   5.777   1.046   4.461
 7396TIP3   OH222064   6.024   1.534   5.597
 7396TIP3    H122065   6.106   1.536   5.646
 7396TIP3    H222066   6.003   1.440   5.589
 7397TIP3   OH222067   6.486   1.451   5.641
 7397TIP3    H122068   6.577   1.425   5.652
 7397TIP3    H222069   6.454   1.397   5.569
 7398TIP3   OH222070   6.459   1.059   3.758
 7398TIP3    H122071   6.409   0.995   3.809
 7398TIP3    H222072   6.530   1.009   3.719
 7399TIP3   OH222073   7.119   1.385   5.385
 7399TIP3    H122074   7.127   1.322   5.457
 7399TIP3    H222075   7.189   1.448   5.401
 7400TIP3   OH222076   6.888   1.096   3.681
 7400TIP3    H122077   6.923   1.032   3.742
 7400TIP3    H222078   6.945   1.089   3.604
 7401TIP3   OH222079   6.118   0.957   5.798
 7401TIP3    H122080   6.142   0.865   5.809
 7401TIP3    H222081   6.034   0.955   5.752
 7402TIP3   OH222082   6.106   0.558   3.982
 7402TIP3    H122083   6.156   0.530   4.059
 7402TIP3    H222084   6.173   0.585   3.919
 7403TIP3   OH222085   6.743   1.059   5.576
 7403TIP3    H122086   6.695   1.078   5.495
 7403TIP3    H222087   6.778   0.971   5.563
 7404TIP3   OH222088   6.688   0.785   3.833
 7404TIP3    H122089   6.668   0.797   3.926
 7404TIP3    H222090   6.677   0.691   3.818
 7405TIP3   OH222091   7.217   1.025   5.159
 7405TIP3    H122092   7.273   1.093   5.122
 7405TIP3    H222093   7.134   1.070   5.178
 7406TIP3   OH222094   6.244   0.703   5.787
 7406TIP3    H122095   6.321   0.705   5.729
 7406TIP3    H222096   6.278   0.733   5.872
 7407TIP3   OH222097   6.273   0.497   4.195
 7407TIP3    H122098   6.256   0.474   4.287
 7407TIP3    H222099   6.314   0.420   4.158
 7408TIP3   OH222100   6.561   0.646   5.502
 7408TIP3    H122101   6.472   0.681   5.490
 7408TIP3    H222102   6.586   0.614   5.415
 7409TIP3   OH222103   6.426   0.327   4.036
 7409TIP3    H122104   6.382   0.340   3.951
 7409TIP3    H222105   6.519   0.342   4.017
 7410TIP3   OH222106   7.106   0.965   5.582
 7410TIP3    H122107   7.093   0.904   5.509
 7410TIP3    H222108   7.122   0.909   5.658
 7411TIP3   OH222109   7.242   0.606   3.701
 7411TIP3    H122110   7.222   0.560   3.620
 7411TIP3    H222111   7.217   0.697   3.683
 7412TIP3   OH222112   6.719   0.396   5.521
 7412TIP3    H122113   6.755   0.324   5.469
 7412TIP3    H222114   6.687   0.459   5.456
 7413TIP3   OH222115   6.827   0.780   5.252
 7413TIP3    H122116   6.879   0.738   5.183
 7413TIP3    H222117   6.740   0.789   5.213
 7414TIP3   OH222118   7.436   0.593   5.693
 7414TIP3    H122119   7.349   0.570   5.658
 7414TIP3    H222120   7.417   0.643   5.773
 7415TIP3   OH222121   7.354   0.917   5.364
 7415TIP3    H122122   7.291   0.963   5.308
 7415TIP3    H222123   7.436   0.923   5.316
 7416TIP3   OH222124   6.536   0.619   5.786
 7416TIP3    H122125   6.470   0.551   5.798
 7416TIP3    H222126   6.549   0.624   5.692
 7417TIP3   OH222127   6.935   0.533   5.641
 7417TIP3    H122128   6.951   0.481   5.720
 7417TIP3    H222129   6.851   0.501   5.608
 7418TIP3   OH222130   6.258   1.347   3.979
 7418TIP3    H122131   6.347   1.328   3.952
 7418TIP3    H222132   6.217   1.389   3.903
 7419TIP3   OH222133   5.719   0.737   4.162
 7419TIP3    H122134   5.813   0.751   4.154
 7419TIP3    H222135   5.703   0.652   4.120
 7420TIP3   OH222136   5.625   1.308   4.615
 7420TIP3    H122137   5.558   1.255   4.572
 7420TIP3    H222138   5.670   1.248   4.674
 7421TIP3   OH222139   5.771   1.143   4.781
 7421TIP3    H122140   5.764   1.077   4.850
 7421TIP3    H222141   5.823   1.213   4.822
 7422TIP3   OH222142   7.498   1.576   4.589
 7422TIP3    H122143   7.531   1.592   4.678
 7422TIP3    H222144   7.571   1.599   4.532
 7423TIP3   OH222145   7.532   1.581   4.873
 7423TIP3    H122146   7.484   1.499   4.866
 7423TIP3    H222147   7.599   1.564   4.939
 7424TIP3   OH222148   7.559   1.300   5.424
 7424TIP3    H122149   7.492   1.305   5.493
 7424TIP3    H222150   7.611   1.379   5.436
 7425TIP3   OH222151   7.383   0.821   4.040
 7425TIP3    H122152   7.444   0.888   4.008
 7425TIP3    H222153   7.420   0.791   4.122
 7426TIP3   OH222154   7.487   0.710   4.265
 7426TIP3    H122155   7.427   0.668   4.326
 7426TIP3    H222156   7.554   0.751   4.321
 7427TIP3   OH222157   7.567   1.080   4.683
 7427TIP3    H122158   7.619   1.011   4.642
 7427TIP3    H222159   7.577   1.155   4.624
 7428TIP3   OH222160   7.382   1.346   4.878
 7428TIP3    H122161   7.314   1.393   4.927
 7428TIP3    H222162   7.336   1.305   4.806
 7429TIP3   OH222163   7.418   0.586   3.905
 7429TIP3    H122164   7.356   0.588   3.831
 7429TIP3    H222165   7.400   0.667   3.953
 7430TIP3   OH222166   7.391   0.279   3.757
 7430TIP3    H122167   7.315   0.327   3.789
 7430TIP3    H222168   7.360   0.188   3.748
 7431TIP3   OH222169   7.305   0.513   4.374
 7431TIP3    H122170   7.280   0.425   4.344
 7431TIP3    H222171   7.300   0.509   4.469
 7432TIP3   OH222172   5.938   0.620   5.143
 7432TIP3    H122173   5.935   0.595   5.050
 7432TIP3    H222174   6.031   0.619   5.165
 7433TIP3   OH222175   7.587   0.950   5.225
 7433TIP3    H122176   7.666   0.908   5.192
 7433TIP3    H222177   7.561   1.011   5.156
 7434TIP3   OH222178   7.820   0.787   5.242
 7434TIP3    H122179   7.748   0.738   5.283
 7434TIP3    H222180   7.871   0.821   5.316
 7435TIP3   OH222181   7.231   0.250   4.288
 7435TIP3    H122182   7.254   0.176   4.344
 7435TIP3    H222183   7.253   0.222   4.200
 7436TIP3   OH222184   7.564   0.381   4.825
 7436TIP3    H122185   7.563   0.460   4.772
 7436TIP3    H222186   7.572   0.413   4.915
 7437TIP3   OH222187   7.654   0.574   5.019
 7437TIP3    H122188   7.636   0.604   5.108
 7437TIP3    H222189   7.640   0.651   4.964
 7438TIP3   OH222190   5.823   0.340   5.173
 7438TIP3    H122191   5.902   0.362   5.125
 7438TIP3    H222192   5.807   0.416   5.229
 7439TIP3   OH222193   7.064   1.463   4.235
 7439TIP3    H122194   7.117   1.447   4.158
 7439TIP3    H222195   7.116   1.524   4.288
 7440TIP3   OH222196   6.162   1.256   5.613
 7440TIP3    H122197   6.067   1.242   5.609
 7440TIP3    H222198   6.183   1.254   5.706
 7441TIP3   OH222199   6.372   1.299   5.161
 7441TIP3    H122200   6.321   1.374   5.131
 7441TIP3    H222201   6.457   1.309   5.117
 7442TIP3   OH222202   6.773   1.537   5.304
 7442TIP3    H122203   6.812   1.529   5.392
 7442TIP3    H222204   6.836   1.590   5.255
 7443TIP3   OH222205   6.966   1.687   5.177
 7443TIP3    H122206   7.030   1.629   5.135
 7443TIP3    H222207   7.018   1.746   5.231
 7444TIP3   OH222208   6.031   1.536   5.213
 7444TIP3    H122209   5.939   1.553   5.189
 7444TIP3    H222210   6.051   1.603   5.278
 7445TIP3   OH222211   6.262   1.532   5.063
 7445TIP3    H122212   6.179   1.536   5.111
 7445TIP3    H222213   6.240   1.557   4.974
 7446TIP3   OH222214   6.676   1.552   4.853
 7446TIP3    H122215   6.601   1.564   4.794
 7446TIP3    H222216   6.685   1.637   4.897
 7447TIP3   OH222217   6.941   1.490   4.895
 7447TIP3    H122218   6.849   1.511   4.878
 7447TIP3    H222219   6.990   1.560   4.852
 7448TIP3   OH222220   7.146   1.661   4.804
 7448TIP3    H122221   7.144   1.747   4.763
 7448TIP3    H222222   7.177   1.602   4.734
 7449TIP3   OH222223   5.944   1.322   4.925
 7449TIP3    H122224   5.966   1.298   5.015
 7449TIP3    H222225   6.017   1.289   4.873
 7450TIP3   OH222226   6.148   1.212   4.785
 7450TIP3    H122227   6.157   1.129   4.831
 7450TIP3    H222228   6.235   1.251   4.789
 7451TIP3   OH222229   6.416   1.290   4.811
 7451TIP3    H122230   6.432   1.197   4.798
 7451TIP3    H222231   6.471   1.313   4.886
 7452TIP3   OH222232   5.702   1.119   4.316
 7452TIP3    H122233   5.619   1.088   4.280
 7452TIP3    H222234   5.710   1.209   4.284
 7453TIP3   OH222235   6.514   1.279   3.908
 7453TIP3    H122236   6.598   1.308   3.872
 7453TIP3    H222237   6.485   1.210   3.849
 7454TIP3   OH222238   7.209   1.409   4.007
 7454TIP3    H122239   7.204   1.314   3.999
 7454TIP3    H222240   7.170   1.442   3.926
 7455TIP3   OH222241   5.812   1.108   3.967
 7455TIP3    H122242   5.817   1.124   4.062
 7455TIP3    H222243   5.894   1.065   3.946
 7456TIP3   OH222244   7.429   1.554   5.192
 7456TIP3    H122245   7.354   1.524   5.141
 7456TIP3    H222246   7.416   1.648   5.203
 7457TIP3   OH222247   8.710   0.921   3.954
 7457TIP3    H122248   8.688   1.013   3.937
 7457TIP3    H222249   8.643   0.871   3.906
 7458TIP3   OH222250   8.652   0.944   4.354
 7458TIP3    H122251   8.692   0.930   4.440
 7458TIP3    H222252   8.631   0.856   4.323
 7459TIP3   OH222253   7.992   0.855   4.688
 7459TIP3    H122254   8.030   0.808   4.763
 7459TIP3    H222255   8.067   0.878   4.634
 7460TIP3   OH222256   8.947   1.236   4.036
 7460TIP3    H122257   8.929   1.176   4.108
 7460TIP3    H222258   8.978   1.316   4.078
 7461TIP3   OH222259   7.973   1.228   4.405
 7461TIP3    H122260   7.956   1.134   4.398
 7461TIP3    H222261   8.068   1.237   4.393
 7462TIP3   OH222262   7.655   0.490   4.280
 7462TIP3    H122263   7.593   0.561   4.260
 7462TIP3    H222264   7.694   0.468   4.196
 7463TIP3   OH222265   7.739   0.783   4.374
 7463TIP3    H122266   7.786   0.700   4.378
 7463TIP3    H222267   7.806   0.847   4.350
 7464TIP3   OH222268   8.644   1.650   4.056
 7464TIP3    H122269   8.657   1.586   3.987
 7464TIP3    H222270   8.663   1.602   4.137
 7465TIP3   OH222271   8.495   1.171   4.363
 7465TIP3    H122272   8.536   1.087   4.340
 7465TIP3    H222273   8.569   1.230   4.379
 7466TIP3   OH222274   8.946   0.789   4.395
 7466TIP3    H122275   9.038   0.772   4.413
 7466TIP3    H222276   8.935   0.770   4.302
 7467TIP3   OH222277   7.832   0.536   4.508
 7467TIP3    H122278   7.927   0.527   4.497
 7467TIP3    H222279   7.795   0.496   4.430
 7468TIP3   OH222280   8.312   0.759   4.281
 7468TIP3    H122281   8.405   0.749   4.301
 7468TIP3    H222282   8.300   0.707   4.201
 7469TIP3   OH222283   8.613   1.154   3.805
 7469TIP3    H122284   8.572   1.124   3.724
 7469TIP3    H222285   8.556   1.225   3.835
 7470TIP3   OH222286   8.362   1.087   4.589
 7470TIP3    H122287   8.301   1.153   4.622
 7470TIP3    H222288   8.401   1.127   4.511
 7471TIP3   OH222289   8.108   0.460   4.479
 7471TIP3    H122290   8.139   0.517   4.548
 7471TIP3    H222291   8.187   0.417   4.446
 7472TIP3   OH222292   8.190   1.282   4.682
 7472TIP3    H122293   8.179   1.371   4.649
 7472TIP3    H222294   8.112   1.266   4.735
 7473TIP3   OH222295   7.570   0.996   3.936
 7473TIP3    H122296   7.540   1.016   3.847
 7473TIP3    H222297   7.595   1.081   3.972
 7474TIP3   OH222298   8.994   1.481   4.174
 7474TIP3    H122299   8.903   1.482   4.203
 7474TIP3    H222300   9.010   1.569   4.140
 7475TIP3   OH222301   8.715   1.501   3.827
 7475TIP3    H122302   8.776   1.429   3.814
 7475TIP3    H222303   8.765   1.580   3.805
 7476TIP3   OH222304   8.865   1.262   3.770
 7476TIP3    H122305   8.779   1.221   3.781
 7476TIP3    H222306   8.907   1.252   3.855
 7477TIP3   OH222307   8.548   0.798   3.767
 7477TIP3    H122308   8.456   0.826   3.766
 7477TIP3    H222309   8.582   0.824   3.682
 7478TIP3   OH222310   8.502   0.599   3.525
 7478TIP3    H122311   8.581   0.648   3.547
 7478TIP3    H222312   8.507   0.520   3.578
 7479TIP3   OH222313   8.890   0.851   3.754
 7479TIP3    H122314   8.836   0.876   3.828
 7479TIP3    H222315   8.970   0.815   3.793
 7480TIP3   OH222316   9.061   0.974   4.670
 7480TIP3    H122317   9.042   0.990   4.762
 7480TIP3    H222318   9.060   1.060   4.630
 7481TIP3   OH222319   8.097   0.891   4.138
 7481TIP3    H122320   8.059   0.828   4.078
 7481TIP3    H222321   8.169   0.844   4.181
 7482TIP3   OH222322   8.236   1.267   4.304
 7482TIP3    H122323   8.216   1.258   4.211
 7482TIP3    H222324   8.326   1.235   4.312
 7483TIP3   OH222325   8.204   0.878   4.509
 7483TIP3    H122326   8.245   0.845   4.429
 7483TIP3    H222327   8.262   0.948   4.538
 7484TIP3   OH222328   8.740   1.497   4.275
 7484TIP3    H122329   8.737   1.570   4.338
 7484TIP3    H222330   8.737   1.419   4.330
 7485TIP3   OH222331   8.388   1.383   4.849
 7485TIP3    H122332   8.327   1.443   4.892
 7485TIP3    H222333   8.332   1.329   4.792
 7486TIP3   OH222334   8.752   0.705   3.561
 7486TIP3    H122335   8.806   0.748   3.627
 7486TIP3    H222336   8.775   0.749   3.479
 7487TIP3   OH222337   8.130   0.964   4.996
 7487TIP3    H122338   8.136   1.056   5.021
 7487TIP3    H222339   8.036   0.945   4.993
 7488TIP3   OH222340   8.464   1.386   3.844
 7488TIP3    H122341   8.544   1.438   3.844
 7488TIP3    H222342   8.404   1.433   3.786
 7489TIP3   OH222343   8.180   1.542   4.932
 7489TIP3    H122344   8.153   1.551   4.840
 7489TIP3    H222345   8.098   1.527   4.979
 7490TIP3   OH222346   7.994   0.712   3.948
 7490TIP3    H122347   7.914   0.757   3.920
 7490TIP3    H222348   7.988   0.625   3.908
 7491TIP3   OH222349   7.770   1.111   4.881
 7491TIP3    H122350   7.701   1.096   4.816
 7491TIP3    H222351   7.806   1.024   4.898
 7492TIP3   OH222352   7.667   1.284   4.523
 7492TIP3    H122353   7.756   1.268   4.493
 7492TIP3    H222354   7.674   1.360   4.581
 7493TIP3   OH222355   8.582   1.518   4.708
 7493TIP3    H122356   8.572   1.609   4.737
 7493TIP3    H222357   8.516   1.470   4.758
 7494TIP3   OH222358   8.351   1.620   3.662
 7494TIP3    H122359   8.308   1.599   3.579
 7494TIP3    H222360   8.314   1.704   3.688
 7495TIP3   OH222361   7.795   1.480   4.045
 7495TIP3    H122362   7.841   1.472   4.129
 7495TIP3    H222363   7.748   1.397   4.036
 7496TIP3   OH222364   8.560   1.551   3.293
 7496TIP3    H122365   8.609   1.474   3.264
 7496TIP3    H222366   8.591   1.567   3.382
 7497TIP3   OH222367   8.606   1.597   3.564
 7497TIP3    H122368   8.518   1.600   3.602
 7497TIP3    H222369   8.661   1.560   3.633
 7498TIP3   OH222370   7.971   1.297   4.850
 7498TIP3    H122371   8.020   1.290   4.933
 7498TIP3    H222372   7.900   1.233   4.859
 7499TIP3   OH222373   8.792   0.814   3.311
 7499TIP3    H122374   8.774   0.801   3.218
 7499TIP3    H222375   8.807   0.908   3.320
 7500TIP3   OH222376   8.228   0.636   4.643
 7500TIP3    H122377   8.198   0.652   4.732
 7500TIP3    H222378   8.218   0.721   4.599
 7501TIP3   OH222379   8.043   0.609   4.225
 7501TIP3    H122380   8.116   0.595   4.286
 7501TIP3    H222381   8.085   0.620   4.139
 7502TIP3   OH222382   8.741   0.611   3.889
 7502TIP3    H122383   8.690   0.652   3.819
 7502TIP3    H222384   8.784   0.537   3.845
 7503TIP3   OH222385   8.844   0.971   4.895
 7503TIP3    H122386   8.784   0.951   4.967
 7503TIP3    H222387   8.861   1.065   4.905
 7504TIP3   OH222388   8.838   0.719   4.151
 7504TIP3    H122389   8.799   0.772   4.081
 7504TIP3    H222390   8.874   0.643   4.106
 7505TIP3   OH222391   8.129   0.711   4.883
 7505TIP3    H122392   8.136   0.789   4.939
 7505TIP3    H222393   8.078   0.649   4.935
 7506TIP3   OH222394   8.785   0.891   4.597
 7506TIP3    H122395   8.845   0.853   4.533
 7506TIP3    H222396   8.840   0.914   4.671
 7507TIP3   OH222397   7.936   0.372   4.291
 7507TIP3    H122398   7.939   0.455   4.243
 7507TIP3    H222399   7.996   0.385   4.365
 7508TIP3   OH222400   8.225   0.327   3.921
 7508TIP3    H122401   8.319   0.324   3.936
 7508TIP3    H222402   8.213   0.394   3.854
 7509TIP3   OH222403   7.985   0.484   3.803
 7509TIP3    H122404   7.958   0.406   3.850
 7509TIP3    H222405   8.021   0.452   3.720
 7510TIP3   OH222406   9.159   2.068   4.655
 7510TIP3    H122407   9.135   2.090   4.565
 7510TIP3    H222408   9.250   2.096   4.663
 7511TIP3   OH222409   8.122   1.222   5.089
 7511TIP3    H122410   8.204   1.237   5.135
 7511TIP3    H222411   8.055   1.230   5.157
 7512TIP3   OH222412   8.582   0.677   4.329
 7512TIP3    H122413   8.671   0.640   4.323
 7512TIP3    H222414   8.550   0.648   4.414
 7513TIP3   OH222415   8.511   0.592   4.574
 7513TIP3    H122416   8.436   0.542   4.604
 7513TIP3    H222417   8.585   0.558   4.625
 7514TIP3   OH222418   8.299   0.916   3.729
 7514TIP3    H122419   8.218   0.871   3.705
 7514TIP3    H222420   8.277   0.962   3.810
 7515TIP3   OH222421   8.764   1.277   4.704
 7515TIP3    H122422   8.706   1.205   4.730
 7515TIP3    H222423   8.714   1.356   4.725
 7516TIP3   OH222424   7.965   0.950   4.370
 7516TIP3    H122425   8.000   0.938   4.282
 7516TIP3    H222426   8.035   0.922   4.428
 7517TIP3   OH222427   8.457   1.083   3.583
 7517TIP3    H122428   8.411   1.167   3.576
 7517TIP3    H222429   8.396   1.026   3.628
 7518TIP3   OH222430   7.870   0.874   4.992
 7518TIP3    H122431   7.869   0.845   5.084
 7518TIP3    H222432   7.799   0.825   4.951
 7519TIP3   OH222433   8.580   1.043   5.009
 7519TIP3    H122434   8.520   0.969   5.022
 7519TIP3    H222435   8.590   1.048   4.914
 7520TIP3   OH222436   8.846   1.566   4.628
 7520TIP3    H122437   8.752   1.548   4.633
 7520TIP3    H222438   8.870   1.589   4.718
 7521TIP3   OH222439   8.919   1.384   3.509
 7521TIP3    H122440   8.906   1.343   3.595
 7521TIP3    H222441   8.899   1.314   3.446
 7522TIP3   OH222442   8.889   1.072   4.272
 7522TIP3    H122443   8.803   1.031   4.272
 7522TIP3    H222444   8.949   1.004   4.303
 7523TIP3   OH222445   8.116   1.281   4.053
 7523TIP3    H122446   8.114   1.360   3.998
 7523TIP3    H222447   8.025   1.252   4.056
 7524TIP3   OH222448   7.673   0.566   3.813
 7524TIP3    H122449   7.714   0.652   3.816
 7524TIP3    H222450   7.583   0.581   3.842
 7525TIP3   OH222451   8.220   1.047   3.949
 7525TIP3    H122452   8.208   1.139   3.976
 7525TIP3    H222453   8.177   0.997   4.019
 7526TIP3   OH222454   8.397   1.593   4.502
 7526TIP3    H122455   8.430   1.668   4.452
 7526TIP3    H222456   8.473   1.561   4.551
 7527TIP3   OH222457   8.031   1.500   3.904
 7527TIP3    H122458   7.943   1.506   3.939
 7527TIP3    H222459   8.064   1.590   3.906
 7528TIP3   OH222460   8.749   1.268   4.426
 7528TIP3    H122461   8.771   1.269   4.519
 7528TIP3    H222462   8.815   1.211   4.386
 7529TIP3   OH222463   8.760   1.097   3.329
 7529TIP3    H122464   8.792   1.088   3.418
 7529TIP3    H222465   8.666   1.079   3.335
 7530TIP3   OH222466   9.021   1.724   4.494
 7530TIP3    H122467   8.948   1.672   4.527
 7530TIP3    H222468   8.982   1.780   4.426
 7531TIP3   OH222469   8.878   1.058   3.571
 7531TIP3    H122470   8.887   0.978   3.624
 7531TIP3    H222471   8.904   1.129   3.630
 7532TIP3   OH222472   7.812   1.495   4.673
 7532TIP3    H122473   7.869   1.436   4.723
 7532TIP3    H222474   7.828   1.581   4.711
 7533TIP3   OH222475   8.159   1.095   3.377
 7533TIP3    H122476   8.142   1.007   3.344
 7533TIP3    H222477   8.105   1.102   3.456
 7534TIP3   OH222478   8.031   1.122   3.628
 7534TIP3    H122479   8.100   1.093   3.687
 7534TIP3    H222480   8.033   1.217   3.631
 7535TIP3   OH222481   7.765   0.824   3.842
 7535TIP3    H122482   7.702   0.875   3.892
 7535TIP3    H222483   7.785   0.878   3.766
 7536TIP3   OH222484   8.318   1.317   3.572
 7536TIP3    H122485   8.232   1.335   3.609
 7536TIP3    H222486   8.331   1.386   3.507
 7537TIP3   OH222487   8.489   0.325   3.985
 7537TIP3    H122488   8.512   0.411   4.022
 7537TIP3    H222489   8.539   0.262   4.037
 7538TIP3   OH222490   8.826   0.699   4.888
 7538TIP3    H122491   8.846   0.792   4.885
 7538TIP3    H222492   8.884   0.659   4.824
 7539TIP3   OH222493   8.066   1.390   3.655
 7539TIP3    H122494   8.039   1.456   3.591
 7539TIP3    H222495   8.053   1.432   3.740
 7540TIP3   OH222496   7.784   0.997   3.624
 7540TIP3    H122497   7.856   1.059   3.631
 7540TIP3    H222498   7.810   0.937   3.554
 7541TIP3   OH222499   7.664   0.297   3.755
 7541TIP3    H122500   7.681   0.390   3.768
 7541TIP3    H222501   7.569   0.289   3.763
 7542TIP3   OH222502   9.041   1.745   4.083
 7542TIP3    H122503   8.994   1.802   4.022
 7542TIP3    H222504   9.128   1.737   4.045
 7543TIP3   OH222505   7.627   1.254   4.035
 7543TIP3    H122506   7.587   1.290   4.114
 7543TIP3    H222507   7.580   1.296   3.963
 7544TIP3   OH222508   7.823   1.794   5.085
 7544TIP3    H122509   7.905   1.797   5.134
 7544TIP3    H222510   7.804   1.700   5.076
 7545TIP3   OH222511   8.285   1.705   5.128
 7545TIP3    H122512   8.377   1.680   5.139
 7545TIP3    H222513   8.253   1.651   5.055
 7546TIP3   OH222514   8.258   1.312   3.246
 7546TIP3    H122515   8.221   1.241   3.298
 7546TIP3    H222516   8.333   1.272   3.202
 7547TIP3   OH222517   8.904   1.646   4.885
 7547TIP3    H122518   8.914   1.576   4.950
 7547TIP3    H222519   8.981   1.702   4.898
 7548TIP3   OH222520   8.689   1.329   3.193
 7548TIP3    H122521   8.733   1.253   3.231
 7548TIP3    H222522   8.728   1.339   3.107
 7549TIP3   OH222523   7.922   1.210   5.282
 7549TIP3    H122524   7.946   1.117   5.289
 7549TIP3    H222525   7.837   1.209   5.236
 7550TIP3   OH222526   7.897   0.811   3.463
 7550TIP3    H122527   7.949   0.790   3.541
 7550TIP3    H222528   7.963   0.829   3.395
 7551TIP3   OH222529   8.545   1.311   5.060
 7551TIP3    H122530   8.498   1.330   4.979
 7551TIP3    H222531   8.578   1.222   5.047
 7552TIP3   OH222532   8.491   1.028   3.314
 7552TIP3    H122533   8.462   1.048   3.403
 7552TIP3    H222534   8.470   0.935   3.302
 7553TIP3   OH222535   9.039   1.269   4.632
 7553TIP3    H122536   9.069   1.332   4.567
 7553TIP3    H222537   8.951   1.298   4.655
 7554TIP3   OH222538   8.041   0.962   5.294
 7554TIP3    H122539   8.120   0.927   5.252
 7554TIP3    H222540   8.070   0.987   5.382
 7555TIP3   OH222541   8.075   0.764   3.671
 7555TIP3    H122542   8.057   0.723   3.756
 7555TIP3    H222543   8.123   0.697   3.622
 7556TIP3   OH222544   8.377   0.849   5.023
 7556TIP3    H122545   8.296   0.899   5.010
 7556TIP3    H222546   8.404   0.825   4.935
 7557TIP3   OH222547   8.228   0.593   3.518
 7557TIP3    H122548   8.191   0.591   3.430
 7557TIP3    H222549   8.323   0.601   3.505
 7558TIP3   OH222550   8.911   1.206   5.030
 7558TIP3    H122551   8.995   1.196   4.984
 7558TIP3    H222552   8.920   1.151   5.108
 7559TIP3   OH222553   8.473   0.515   4.907
 7559TIP3    H122554   8.492   0.516   5.001
 7559TIP3    H222555   8.431   0.600   4.891
 7560TIP3   OH222556   8.598   1.055   4.733
 7560TIP3    H122557   8.653   0.999   4.679
 7560TIP3    H222558   8.513   1.056   4.687
 7561TIP3   OH222559   9.236   0.898   5.244
 7561TIP3    H122560   9.155   0.875   5.199
 7561TIP3    H222561   9.214   0.975   5.297
 7562TIP3   OH222562   9.137   1.178   4.870
 7562TIP3    H122563   9.111   1.222   4.789
 7562TIP3    H222564   9.213   1.126   4.845
 7563TIP3   OH222565   8.305   0.868   5.290
 7563TIP3    H122566   8.306   0.778   5.323
 7563TIP3    H222567   8.352   0.863   5.207
 7564TIP3   OH222568   8.713   0.795   5.120
 7564TIP3    H122569   8.776   0.757   5.182
 7564TIP3    H222570   8.729   0.748   5.038
 7565TIP3   OH222571   8.005   1.580   3.466
 7565TIP3    H122572   8.073   1.609   3.406
 7565TIP3    H222573   7.925   1.580   3.414
 7566TIP3   OH222574   7.513   0.989   3.655
 7566TIP3    H122575   7.607   1.004   3.642
 7566TIP3    H222576   7.495   0.906   3.610
 7567TIP3   OH222577   7.416   1.562   4.105
 7567TIP3    H122578   7.356   1.507   4.055
 7567TIP3    H222579   7.463   1.500   4.162
 7568TIP3   OH222580   7.564   1.398   4.276
 7568TIP3    H122581   7.558   1.333   4.345
 7568TIP3    H222582   7.614   1.470   4.315
 7569TIP3   OH222583   9.103   1.458   4.437
 7569TIP3    H122584   9.093   1.550   4.460
 7569TIP3    H222585   9.082   1.454   4.344
 7570TIP3   OH222586   7.731   0.870   4.629
 7570TIP3    H122587   7.725   0.845   4.537
 7570TIP3    H222588   7.825   0.871   4.648
 7571TIP3   OH222589   7.599   0.591   4.654
 7571TIP3    H122590   7.680   0.597   4.604
 7571TIP3    H222591   7.598   0.671   4.707
 7572TIP3   OH222592   8.834   1.727   3.740
 7572TIP3    H122593   8.883   1.710   3.660
 7572TIP3    H222594   8.887   1.791   3.788
 7573TIP3   OH222595   7.959   1.513   5.098
 7573TIP3    H122596   7.864   1.498   5.095
 7573TIP3    H222597   7.980   1.509   5.191
 7574TIP3   OH222598   8.167   1.557   4.649
 7574TIP3    H122599   8.118   1.633   4.618
 7574TIP3    H222600   8.253   1.566   4.606
 7575TIP3   OH222601   8.561   1.784   4.788
 7575TIP3    H122602   8.600   1.781   4.875
 7575TIP3    H222603   8.622   1.837   4.736
 7576TIP3   OH222604   8.751   1.940   4.662
 7576TIP3    H122605   8.811   1.885   4.612
 7576TIP3    H222606   8.808   1.993   4.718
 7577TIP3   OH222607   7.822   1.797   4.701
 7577TIP3    H122608   7.731   1.821   4.680
 7577TIP3    H222609   7.850   1.861   4.766
 7578TIP3   OH222610   8.055   1.789   4.550
 7578TIP3    H122611   7.971   1.794   4.597
 7578TIP3    H222612   8.033   1.810   4.459
 7579TIP3   OH222613   8.461   1.811   4.342
 7579TIP3    H122614   8.389   1.822   4.279
 7579TIP3    H222615   8.472   1.897   4.381
 7580TIP3   OH222616   8.720   1.740   4.400
 7580TIP3    H122617   8.632   1.766   4.372
 7580TIP3    H222618   8.778   1.800   4.355
 7581TIP3   OH222619   8.922   1.889   4.289
 7581TIP3    H122620   8.917   1.979   4.257
 7581TIP3    H222621   8.962   1.840   4.217
 7582TIP3   OH222622   7.735   1.582   4.421
 7582TIP3    H122623   7.765   1.560   4.509
 7582TIP3    H222624   7.805   1.551   4.364
 7583TIP3   OH222625   7.938   1.470   4.280
 7583TIP3    H122626   7.948   1.385   4.323
 7583TIP3    H222627   8.026   1.508   4.281
 7584TIP3   OH222628   8.207   1.548   4.302
 7584TIP3    H122629   8.223   1.454   4.288
 7584TIP3    H222630   8.266   1.571   4.374
 7585TIP3   OH222631   7.496   1.375   3.833
 7585TIP3    H122632   7.416   1.337   3.796
 7585TIP3    H222633   7.508   1.457   3.785
 7586TIP3   OH222634   8.302   1.538   3.395
 7586TIP3    H122635   8.385   1.562   3.354
 7586TIP3    H222636   8.265   1.471   3.338
 7587TIP3   OH222637   8.969   1.657   3.515
 7587TIP3    H122638   8.962   1.562   3.505
 7587TIP3    H222639   8.949   1.692   3.428
 7588TIP3   OH222640   9.171   1.797   4.714
 7588TIP3    H122641   9.130   1.756   4.638
 7588TIP3    H222642   9.173   1.890   4.694
 7589TIP3   OH222643   1.165   1.725   5.636
 7589TIP3    H122644   1.129   1.812   5.619
 7589TIP3    H222645   1.094   1.665   5.612
 7590TIP3   OH222646   1.170   1.729   6.045
 7590TIP3    H122647   1.218   1.709   6.125
 7590TIP3    H222648   1.127   1.647   6.021
 7591TIP3   OH222649   0.520   1.661   6.444
 7591TIP3    H122650   0.461   1.587   6.433
 7591TIP3    H222651   0.577   1.659   6.366
 7592TIP3   OH222652   1.431   2.024   5.719
 7592TIP3    H122653   1.417   1.960   5.789
 7592TIP3    H222654   1.450   2.105   5.766
 7593TIP3   OH222655   0.454   2.016   6.089
 7593TIP3    H122656   0.442   1.921   6.094
 7593TIP3    H222657   0.549   2.028   6.083
 7594TIP3   OH222658   1.076   2.451   5.732
 7594TIP3    H122659   1.109   2.385   5.671
 7594TIP3    H222660   1.088   2.413   5.818
 7595TIP3   OH222661   0.967   1.940   6.058
 7595TIP3    H122662   1.014   1.863   6.026
 7595TIP3    H222663   1.035   1.999   6.090
 7596TIP3   OH222664   1.999   1.261   6.066
 7596TIP3    H122665   2.016   1.346   6.107
 7596TIP3    H222666   2.021   1.273   5.974
 7597TIP3   OH222667   1.384   1.428   6.088
 7597TIP3    H122668   1.419   1.345   6.120
 7597TIP3    H222669   1.342   1.407   6.005
 7598TIP3   OH222670   1.435   1.200   5.688
 7598TIP3    H122671   1.498   1.193   5.760
 7598TIP3    H222672   1.486   1.236   5.615
 7599TIP3   OH222673   0.790   1.507   5.992
 7599TIP3    H122674   0.886   1.510   5.990
 7599TIP3    H222675   0.769   1.415   5.982
 7600TIP3   OH222676   2.054   1.479   6.235
 7600TIP3    H122677   1.968   1.520   6.228
 7600TIP3    H222678   2.093   1.517   6.315
 7601TIP3   OH222679   1.020   1.927   5.517
 7601TIP3    H122680   1.021   1.912   5.422
 7601TIP3    H222681   0.981   2.014   5.527
 7602TIP3   OH222682   0.814   1.861   6.276
 7602TIP3    H122683   0.753   1.929   6.303
 7602TIP3    H222684   0.862   1.899   6.202
 7603TIP3   OH222685   1.587   1.217   5.911
 7603TIP3    H122686   1.550   1.193   5.996
 7603TIP3    H222687   1.644   1.291   5.930
 7604TIP3   OH222688   0.642   2.058   6.364
 7604TIP3    H122689   0.634   2.150   6.339
 7604TIP3    H222690   0.561   2.038   6.410
 7605TIP3   OH222691   0.048   1.790   5.611
 7605TIP3    H122692  -0.045   1.809   5.603
 7605TIP3    H222693   0.086   1.871   5.647
 7606TIP3   OH222694   1.464   2.271   5.862
 7606TIP3    H122695   1.376   2.264   5.900
 7606TIP3    H222696   1.464   2.355   5.816
 7607TIP3   OH222697   1.791   1.159   6.229
 7607TIP3    H122698   1.706   1.182   6.192
 7607TIP3    H222699   1.855   1.186   6.162
 7608TIP3   OH222700   1.170   2.295   5.521
 7608TIP3    H122701   1.217   2.213   5.509
 7608TIP3    H222702   1.235   2.363   5.500
 7609TIP3   OH222703   1.315   2.072   5.473
 7609TIP3    H122704   1.341   2.004   5.411
 7609TIP3    H222705   1.359   2.048   5.554
 7610TIP3   OH222706   1.702   2.160   6.209
 7610TIP3    H122707   1.682   2.087   6.150
 7610TIP3    H222708   1.684   2.238   6.156
 7611TIP3   OH222709   0.988   1.567   5.486
 7611TIP3    H122710   0.909   1.617   5.468
 7611TIP3    H222711   1.038   1.571   5.405
 7612TIP3   OH222712   0.937   1.463   5.166
 7612TIP3    H122713   1.017   1.492   5.209
 7612TIP3    H222714   0.942   1.368   5.166
 7613TIP3   OH222715   1.876   1.823   6.077
 7613TIP3    H122716   1.792   1.869   6.074
 7613TIP3    H222717   1.913   1.835   5.989
 7614TIP3   OH222718   1.354   1.669   5.448
 7614TIP3    H122719   1.299   1.693   5.522
 7614TIP3    H222720   1.437   1.641   5.487
 7615TIP3   OH222721   1.575   1.684   6.381
 7615TIP3    H122722   1.571   1.767   6.429
 7615TIP3    H222723   1.494   1.681   6.331
 7616TIP3   OH222724   0.594   1.650   5.850
 7616TIP3    H122725   0.555   1.593   5.783
 7616TIP3    H222726   0.666   1.599   5.887
 7617TIP3   OH222727   0.716   2.059   5.988
 7617TIP3    H122728   0.695   2.041   5.896
 7617TIP3    H222729   0.802   2.019   6.001
 7618TIP3   OH222730   0.685   1.626   6.219
 7618TIP3    H122731   0.722   1.590   6.139
 7618TIP3    H222732   0.736   1.706   6.235
 7619TIP3   OH222733   1.224   2.264   5.990
 7619TIP3    H122734   1.211   2.346   6.037
 7619TIP3    H222735   1.208   2.196   6.055
 7620TIP3   OH222736   0.845   2.140   6.538
 7620TIP3    H122737   0.783   2.196   6.585
 7620TIP3    H222738   0.790   2.090   6.478
 7621TIP3   OH222739   1.180   1.541   5.281
 7621TIP3    H122740   1.240   1.595   5.333
 7621TIP3    H222741   1.212   1.548   5.191
 7622TIP3   OH222742   0.640   1.754   6.676
 7622TIP3    H122743   0.608   1.838   6.708
 7622TIP3    H222744   0.587   1.736   6.599
 7623TIP3   OH222745   0.918   2.187   5.479
 7623TIP3    H122746   1.001   2.226   5.506
 7623TIP3    H222747   0.862   2.262   5.460
 7624TIP3   OH222748   0.630   2.292   6.613
 7624TIP3    H122749   0.620   2.317   6.521
 7624TIP3    H222750   0.590   2.364   6.662
 7625TIP3   OH222751   1.695   0.750   5.342
 7625TIP3    H122752   1.623   0.772   5.400
 7625TIP3    H222753   1.706   0.827   5.286
 7626TIP3   OH222754   0.471   1.499   5.651
 7626TIP3    H122755   0.381   1.522   5.627
 7626TIP3    H222756   0.469   1.405   5.665
 7627TIP3   OH222757   1.505   2.114   4.880
 7627TIP3    H122758   1.501   2.207   4.858
 7627TIP3    H222759   1.595   2.088   4.860
 7628TIP3   OH222760   0.114   2.086   6.185
 7628TIP3    H122761   0.179   2.017   6.171
 7628TIP3    H222762   0.151   2.140   6.255
 7629TIP3   OH222763   1.929   2.530   6.275
 7629TIP3    H122764   1.934   2.435   6.286
 7629TIP3    H222765   1.849   2.554   6.321
 7630TIP3   OH222766   1.035   2.281   6.395
 7630TIP3    H122767   1.036   2.373   6.422
 7630TIP3    H222768   0.965   2.241   6.447
 7631TIP3   OH222769   0.795   2.389   5.313
 7631TIP3    H122770   0.772   2.385   5.220
 7631TIP3    H222771   0.762   2.474   5.342
 7632TIP3   OH222772   0.256   2.265   5.734
 7632TIP3    H122773   0.298   2.255   5.820
 7632TIP3    H222774   0.203   2.186   5.724
 7633TIP3   OH222775   1.068   2.422   5.286
 7633TIP3    H122776   0.976   2.398   5.296
 7633TIP3    H222777   1.114   2.370   5.352
 7634TIP3   OH222778   1.817   1.642   6.548
 7634TIP3    H122779   1.736   1.653   6.499
 7634TIP3    H222780   1.837   1.549   6.542
 7635TIP3   OH222781   0.417   2.068   6.530
 7635TIP3    H122782   0.478   2.086   6.602
 7635TIP3    H222783   0.359   1.999   6.565
 7636TIP3   OH222784   1.375   0.992   6.575
 7636TIP3    H122785   1.458   0.967   6.616
 7636TIP3    H222786   1.316   1.006   6.649
 7637TIP3   OH222787   1.582   1.416   6.458
 7637TIP3    H122788   1.544   1.411   6.546
 7637TIP3    H222789   1.566   1.507   6.430
 7638TIP3   OH222790   1.269   1.552   5.028
 7638TIP3    H122791   1.219   1.544   4.947
 7638TIP3    H222792   1.355   1.584   5.001
 7639TIP3   OH222793   0.963   0.995   5.329
 7639TIP3    H122794   0.892   0.990   5.392
 7639TIP3    H222795   1.003   0.908   5.332
 7640TIP3   OH222796   0.804   1.421   6.376
 7640TIP3    H122797   0.804   1.458   6.464
 7640TIP3    H222798   0.754   1.484   6.324
 7641TIP3   OH222799   0.722   1.242   5.949
 7641TIP3    H122800   0.641   1.213   5.990
 7641TIP3    H222801   0.700   1.250   5.856
 7642TIP3   OH222802   1.124   1.367   5.612
 7642TIP3    H122803   1.072   1.439   5.575
 7642TIP3    H222804   1.187   1.347   5.543
 7643TIP3   OH222805   1.318   1.629   6.674
 7643TIP3    H122806   1.291   1.564   6.738
 7643TIP3    H222807   1.409   1.647   6.695
 7644TIP3   OH222808   1.278   1.374   5.842
 7644TIP3    H122809   1.215   1.396   5.773
 7644TIP3    H222810   1.331   1.304   5.804
 7645TIP3   OH222811   1.326   1.630   6.259
 7645TIP3    H122812   1.352   1.564   6.195
 7645TIP3    H222813   1.283   1.580   6.329
 7646TIP3   OH222814   0.986   1.126   5.940
 7646TIP3    H122815   0.899   1.159   5.962
 7646TIP3    H222816   1.042   1.152   6.013
 7647TIP3   OH222817   0.663   1.253   5.684
 7647TIP3    H122818   0.753   1.250   5.654
 7647TIP3    H222819   0.619   1.181   5.638
 7648TIP3   OH222820   1.460   1.169   6.154
 7648TIP3    H122821   1.437   1.184   6.246
 7648TIP3    H222822   1.391   1.112   6.121
 7649TIP3   OH222823   0.410   1.226   5.370
 7649TIP3    H122824   0.458   1.182   5.299
 7649TIP3    H222825   0.451   1.313   5.375
 7650TIP3   OH222826   1.644   2.866   6.366
 7650TIP3    H122827   1.638   2.883   6.272
 7650TIP3    H222828   1.723   2.913   6.394
 7651TIP3   OH222829   0.566   2.012   6.780
 7651TIP3    H122830   0.646   2.013   6.833
 7651TIP3    H222831   0.515   2.088   6.812
 7652TIP3   OH222832   1.065   1.470   6.013
 7652TIP3    H122833   1.134   1.425   5.965
 7652TIP3    H222834   1.065   1.428   6.100
 7653TIP3   OH222835   1.049   1.360   6.263
 7653TIP3    H122836   0.962   1.369   6.302
 7653TIP3    H222837   1.109   1.390   6.331
 7654TIP3   OH222838   0.769   1.725   5.421
 7654TIP3    H122839   0.686   1.683   5.398
 7654TIP3    H222840   0.752   1.768   5.504
 7655TIP3   OH222841   1.642   1.960   6.028
 7655TIP3    H122842   1.679   2.010   5.955
 7655TIP3    H222843   1.563   1.921   5.993
 7656TIP3   OH222844   1.233   1.055   5.344
 7656TIP3    H122845   1.138   1.051   5.347
 7656TIP3    H222846   1.254   1.147   5.357
 7657TIP3   OH222847   1.163   2.029   6.441
 7657TIP3    H122848   1.211   2.031   6.524
 7657TIP3    H222849   1.117   2.113   6.438
 7658TIP3   OH222850   1.298   1.313   5.401
 7658TIP3    H122851   1.393   1.322   5.413
 7658TIP3    H222852   1.273   1.389   5.348
 7659TIP3   OH222853   0.468   1.743   6.079
 7659TIP3    H122854   0.496   1.718   5.991
 7659TIP3    H222855   0.529   1.699   6.138
 7660TIP3   OH222856   0.928   1.868   5.251
 7660TIP3    H122857   0.877   1.949   5.252
 7660TIP3    H222858   0.880   1.809   5.309
 7661TIP3   OH222859   1.092   1.790   6.710
 7661TIP3    H122860   1.038   1.774   6.633
 7661TIP3    H222861   1.174   1.743   6.693
 7662TIP3   OH222862   1.307   2.327   6.331
 7662TIP3    H122863   1.213   2.309   6.332
 7662TIP3    H222864   1.325   2.367   6.416
 7663TIP3   OH222865   1.691   1.382   5.217
 7663TIP3    H122866   1.635   1.334   5.155
 7663TIP3    H222867   1.697   1.470   5.181
 7664TIP3   OH222868   1.946   2.252   6.296
 7664TIP3    H122869   1.852   2.233   6.292
 7664TIP3    H222870   1.981   2.219   6.213
 7665TIP3   OH222871   1.440   2.187   5.143
 7665TIP3    H122872   1.407   2.113   5.194
 7665TIP3    H222873   1.457   2.150   5.056
 7666TIP3   OH222874   1.415   1.826   5.925
 7666TIP3    H122875   1.326   1.806   5.951
 7666TIP3    H222876   1.448   1.745   5.887
 7667TIP3   OH222877   0.570   2.068   5.742
 7667TIP3    H122878   0.561   2.142   5.682
 7667TIP3    H222879   0.486   2.065   5.788
 7668TIP3   OH222880   0.665   1.828   5.648
 7668TIP3    H122881   0.641   1.916   5.677
 7668TIP3    H222882   0.643   1.772   5.721
 7669TIP3   OH222883   0.857   2.376   6.190
 7669TIP3    H122884   0.892   2.455   6.148
 7669TIP3    H222885   0.930   2.343   6.242
 7670TIP3   OH222886   0.486   2.284   5.583
 7670TIP3    H122887   0.400   2.287   5.626
 7670TIP3    H222888   0.518   2.374   5.589
 7671TIP3   OH222889   1.201   2.046   6.167
 7671TIP3    H122890   1.190   2.038   6.262
 7671TIP3    H222891   1.281   1.996   6.148
 7672TIP3   OH222892   1.190   1.933   5.070
 7672TIP3    H122893   1.255   1.918   5.138
 7672TIP3    H222894   1.106   1.913   5.111
 7673TIP3   OH222895   1.454   2.544   6.210
 7673TIP3    H122896   1.383   2.482   6.226
 7673TIP3    H222897   1.423   2.597   6.137
 7674TIP3   OH222898   1.509   2.386   4.843
 7674TIP3    H122899   1.533   2.448   4.774
 7674TIP3    H222900   1.438   2.430   4.891
 7675TIP3   OH222901   1.380   1.880   5.269
 7675TIP3    H122902   1.363   1.806   5.328
 7675TIP3    H222903   1.472   1.873   5.247
 7676TIP3   OH222904   0.267   2.256   6.353
 7676TIP3    H122905   0.321   2.198   6.406
 7676TIP3    H222906   0.287   2.344   6.384
 7677TIP3   OH222907   0.591   1.948   5.045
 7677TIP3    H122908   0.597   1.861   5.005
 7677TIP3    H222909   0.553   1.933   5.131
 7678TIP3   OH222910   0.497   1.915   5.304
 7678TIP3    H122911   0.540   1.872   5.378
 7678TIP3    H222912   0.500   2.008   5.326
 7679TIP3   OH222913   0.239   1.601   5.542
 7679TIP3    H122914   0.169   1.653   5.583
 7679TIP3    H222915   0.263   1.652   5.464
 7680TIP3   OH222916   1.391   1.219   6.415
 7680TIP3    H122917   1.469   1.268   6.441
 7680TIP3    H222918   1.389   1.144   6.473
 7681TIP3   OH222919   1.288   0.984   5.610
 7681TIP3    H122920   1.260   1.007   5.521
 7681TIP3    H222921   1.334   1.062   5.641
 7682TIP3   OH222922   0.770   2.096   5.228
 7682TIP3    H122923   0.689   2.115   5.274
 7682TIP3    H222924   0.834   2.157   5.265
 7683TIP3   OH222925   0.936   1.178   5.671
 7683TIP3    H122926   0.999   1.245   5.644
 7683TIP3    H222927   0.953   1.166   5.765
 7684TIP3   OH222928   1.233   1.458   6.453
 7684TIP3    H122929   1.253   1.504   6.535
 7684TIP3    H222930   1.283   1.376   6.458
 7685TIP3   OH222931   1.102   0.903   5.802
 7685TIP3    H122932   1.072   0.980   5.850
 7685TIP3    H222933   1.174   0.935   5.747
 7686TIP3   OH222934   0.528   2.182   5.332
 7686TIP3    H122935   0.499   2.250   5.272
 7686TIP3    H222936   0.515   2.220   5.419
 7687TIP3   OH222937   1.849   1.372   6.456
 7687TIP3    H122938   1.753   1.375   6.461
 7687TIP3    H222939   1.868   1.332   6.371
 7688TIP3   OH222940   1.507   1.566   5.839
 7688TIP3    H122941   1.429   1.513   5.856
 7688TIP3    H222942   1.575   1.529   5.896
 7689TIP3   OH222943   0.255   1.781   5.316
 7689TIP3    H122944   0.324   1.846   5.322
 7689TIP3    H222945   0.286   1.719   5.249
 7690TIP3   OH222946   1.487   2.538   5.779
 7690TIP3    H122947   1.445   2.592   5.712
 7690TIP3    H222948   1.580   2.548   5.763
 7691TIP3   OH222949   0.065   2.065   5.686
 7691TIP3    H122950   0.006   2.105   5.750
 7691TIP3    H222951   0.028   2.088   5.601
 7692TIP3   OH222952   0.248   2.608   6.751
 7692TIP3    H122953   0.321   2.587   6.809
 7692TIP3    H222954   0.175   2.556   6.785
 7693TIP3   OH222955   1.361   2.430   6.581
 7693TIP3    H122956   1.375   2.361   6.646
 7693TIP3    H222957   1.434   2.491   6.594
 7694TIP3   OH222958   1.100   2.093   4.832
 7694TIP3    H122959   1.148   2.064   4.909
 7694TIP3    H222960   1.167   2.108   4.766
 7695TIP3   OH222961   0.380   1.601   5.154
 7695TIP3    H122962   0.430   1.591   5.235
 7695TIP3    H222963   0.445   1.626   5.088
 7696TIP3   OH222964   0.999   2.052   6.749
 7696TIP3    H122965   0.953   2.072   6.667
 7696TIP3    H222966   1.039   1.966   6.733
 7697TIP3   OH222967   0.860   1.821   4.988
 7697TIP3    H122968   0.889   1.820   5.080
 7697TIP3    H222969   0.865   1.730   4.960
 7698TIP3   OH222970   1.475   2.103   6.359
 7698TIP3    H122971   1.552   2.132   6.311
 7698TIP3    H222972   1.411   2.173   6.347
 7699TIP3   OH222973   0.524   1.596   5.394
 7699TIP3    H122974   0.515   1.566   5.485
 7699TIP3    H222975   0.578   1.530   5.352
 7700TIP3   OH222976   0.831   1.565   6.614
 7700TIP3    H122977   0.762   1.621   6.649
 7700TIP3    H222978   0.886   1.625   6.563
 7701TIP3   OH222979   0.665   1.440   5.230
 7701TIP3    H122980   0.635   1.378   5.164
 7701TIP3    H222981   0.756   1.458   5.206
 7702TIP3   OH222982   1.359   1.983   6.714
 7702TIP3    H122983   1.421   1.940   6.656
 7702TIP3    H222984   1.351   1.923   6.789
 7703TIP3   OH222985   1.492   1.641   4.890
 7703TIP3    H122986   1.474   1.601   4.805
 7703TIP3    H222987   1.459   1.730   4.882
 7704TIP3   OH222988   0.993   1.389   6.754
 7704TIP3    H122989   0.965   1.312   6.704
 7704TIP3    H222990   0.939   1.460   6.720
 7705TIP3   OH222991   0.980   1.740   6.461
 7705TIP3    H122992   1.064   1.753   6.416
 7705TIP3    H222993   0.916   1.785   6.406
 7706TIP3   OH222994   1.579   1.670   6.782
 7706TIP3    H122995   1.636   1.593   6.781
 7706TIP3    H222996   1.639   1.744   6.774
 7707TIP3   OH222997   1.592   1.925   6.526
 7707TIP3    H122998   1.539   1.987   6.475
 7707TIP3    H222999   1.682   1.940   6.495
 7708TIP3   OH223000   1.253   1.426   6.843
 7708TIP3    H123001   1.268   1.406   6.935
 7708TIP3    H223002   1.159   1.410   6.830
 7709TIP3   OH223003   1.478   1.363   6.699
 7709TIP3    H123004   1.401   1.377   6.754
 7709TIP3    H223005   1.550   1.347   6.761
 7710TIP3   OH223006   1.698   1.334   6.867
 7710TIP3    H123007   1.714   1.240   6.877
 7710TIP3    H223008   1.685   1.366   6.956
 7711TIP3   OH223009   0.475   2.371   5.137
 7711TIP3    H123010   0.559   2.356   5.095
 7711TIP3    H223011   0.419   2.405   5.067
 7712TIP3   OH223012  -0.006   1.720   5.280
 7712TIP3    H123013   0.080   1.757   5.301
 7712TIP3    H223014  -0.038   1.686   5.364
 7713TIP3   OH223015   9.689   2.312   5.750
 7713TIP3    H123016   9.614   2.372   5.756
 7713TIP3    H223017   9.719   2.303   5.841
 7714TIP3   OH223018  -0.021   2.244   5.996
 7714TIP3    H123019  -0.014   2.165   6.050
 7714TIP3    H223020   0.050   2.300   6.026
 7715TIP3   OH223021   1.760   2.582   5.767
 7715TIP3    H123022   1.780   2.615   5.855
 7715TIP3    H223023   1.814   2.635   5.709
 7716TIP3   OH223024   1.769   2.622   6.050
 7716TIP3    H123025   1.722   2.538   6.045
 7716TIP3    H223026   1.840   2.606   6.112
 7717TIP3   OH223027   1.836   2.318   6.626
 7717TIP3    H123028   1.764   2.330   6.687
 7717TIP3    H223029   1.880   2.403   6.624
 7718TIP3   OH223030   1.651   1.839   5.234
 7718TIP3    H123031   1.709   1.908   5.201
 7718TIP3    H223032   1.698   1.801   5.308
 7719TIP3   OH223033   1.782   1.701   5.434
 7719TIP3    H123034   1.716   1.664   5.494
 7719TIP3    H223035   1.849   1.737   5.493
 7720TIP3   OH223036   1.828   2.096   5.868
 7720TIP3    H123037   1.878   2.028   5.823
 7720TIP3    H223038   1.829   2.170   5.808
 7721TIP3   OH223039   1.628   2.381   6.061
 7721TIP3    H123040   1.560   2.427   6.111
 7721TIP3    H223041   1.582   2.341   5.988
 7722TIP3   OH223042   1.692   1.617   5.076
 7722TIP3    H123043   1.625   1.619   5.008
 7722TIP3    H223044   1.675   1.695   5.129
 7723TIP3   OH223045   1.542   1.261   5.024
 7723TIP3    H123046   1.492   1.289   4.947
 7723TIP3    H223047   1.540   1.165   5.020
 7724TIP3   OH223048   1.580   1.562   5.572
 7724TIP3    H123049   1.590   1.468   5.557
 7724TIP3    H223050   1.560   1.569   5.666
 7725TIP3   OH223051   1.848   1.970   6.430
 7725TIP3    H123052   1.917   1.906   6.410
 7725TIP3    H223053   1.852   2.031   6.356
 7726TIP3   OH223054   2.030   1.760   6.421
 7726TIP3    H123055   1.956   1.721   6.468
 7726TIP3    H223056   2.105   1.705   6.444
 7727TIP3   OH223057   1.532   0.986   5.025
 7727TIP3    H123058   1.608   0.980   5.082
 7727TIP3    H223059   1.462   0.943   5.073
 7728TIP3   OH223060   1.580   1.290   5.460
 7728TIP3    H123061   1.622   1.205   5.472
 7728TIP3    H223062   1.621   1.327   5.382
 7729TIP3   OH223063   1.723   1.447   5.981
 7729TIP3    H123064   1.804   1.465   5.933
 7729TIP3    H223065   1.738   1.487   6.067
 7730TIP3   OH223066   1.796   1.595   6.209
 7730TIP3    H123067   1.722   1.623   6.263
 7730TIP3    H223068   1.826   1.675   6.166
 7731TIP3   OH223069   2.256   1.192   6.744
 7731TIP3    H123070   2.320   1.136   6.700
 7731TIP3    H223071   2.216   1.243   6.673
 7732TIP3   OH223072   1.680   1.035   5.509
 7732TIP3    H123073   1.728   1.024   5.591
 7732TIP3    H223074   1.619   0.961   5.508
 7733TIP3   OH223075   2.103   1.304   6.547
 7733TIP3    H123076   2.018   1.346   6.560
 7733TIP3    H223077   2.085   1.227   6.494
 7734TIP3   OH223078   1.758   0.958   5.172
 7734TIP3    H123079   1.809   0.905   5.111
 7734TIP3    H223080   1.805   1.041   5.176
 7735TIP3   OH223081   1.334   2.491   5.435
 7735TIP3    H123082   1.379   2.482   5.350
 7735TIP3    H223083   1.373   2.570   5.473
 7736TIP3   OH223084   0.406   2.231   6.866
 7736TIP3    H123085   0.313   2.253   6.875
 7736TIP3    H223086   0.452   2.310   6.896
 7737TIP3   OH223087   0.630   2.335   6.338
 7737TIP3    H123088   0.580   2.411   6.307
 7737TIP3    H223089   0.715   2.344   6.295
 7738TIP3   OH223090   1.047   2.543   6.456
 7738TIP3    H123091   1.055   2.557   6.550
 7738TIP3    H223092   1.100   2.613   6.416
 7739TIP3   OH223093   1.224   2.732   6.353
 7739TIP3    H123094   1.293   2.680   6.311
 7739TIP3    H223095   1.272   2.792   6.411
 7740TIP3   OH223096   2.019   1.058   6.442
 7740TIP3    H123097   1.932   1.048   6.403
 7740TIP3    H223098   2.059   0.971   6.434
 7741TIP3   OH223099   0.302   2.533   6.402
 7741TIP3    H123100   0.210   2.560   6.399
 7741TIP3    H223101   0.342   2.592   6.466
 7742TIP3   OH223102   0.522   2.566   6.234
 7742TIP3    H123103   0.437   2.560   6.278
 7742TIP3    H223104   0.502   2.594   6.145
 7743TIP3   OH223105   0.930   2.592   6.030
 7743TIP3    H123106   0.858   2.602   5.968
 7743TIP3    H223107   0.934   2.675   6.077
 7744TIP3   OH223108   1.193   2.524   6.074
 7744TIP3    H123109   1.101   2.548   6.060
 7744TIP3    H223110   1.242   2.595   6.034
 7745TIP3   OH223111   1.393   2.699   5.982
 7745TIP3    H123112   1.392   2.786   5.943
 7745TIP3    H223113   1.424   2.641   5.912
 7746TIP3   OH223114   0.198   2.375   6.101
 7746TIP3    H123115   0.203   2.345   6.191
 7746TIP3    H223116   0.270   2.331   6.056
 7747TIP3   OH223117   0.401   2.251   5.967
 7747TIP3    H123118   0.410   2.169   6.016
 7747TIP3    H223119   0.487   2.293   5.973
 7748TIP3   OH223120   0.669   2.334   5.989
 7748TIP3    H123121   0.688   2.241   5.977
 7748TIP3    H223122   0.723   2.360   6.063
 7749TIP3   OH223123   1.266   1.003   6.049
 7749TIP3    H123124   1.192   0.942   6.043
 7749TIP3    H223125   1.332   0.966   5.990
 7750TIP3   OH223126   1.728   0.908   5.973
 7750TIP3    H123127   1.766   0.959   5.901
 7750TIP3    H223128   1.633   0.922   5.965
 7751TIP3   OH223129   1.832   0.993   5.735
 7751TIP3    H123130   1.899   0.927   5.719
 7751TIP3    H223131   1.874   1.077   5.717
 7752TIP3   OH223132   1.455   0.861   5.909
 7752TIP3    H123133   1.492   0.814   5.834
 7752TIP3    H223134   1.434   0.793   5.973
 7753TIP3   OH223135   1.496   0.818   5.534
 7753TIP3    H123136   1.425   0.874   5.567
 7753TIP3    H223137   1.493   0.740   5.589
 7754TIP3   OH223138   9.732   2.130   5.443
 7754TIP3    H123139   9.650   2.097   5.405
 7754TIP3    H223140   9.727   2.225   5.432
 7755TIP3   OH223141   0.902   0.910   5.615
 7755TIP3    H123142   0.967   0.889   5.682
 7755TIP3    H223143   0.895   1.006   5.617
 7756TIP3   OH223144   1.461   2.456   5.189
 7756TIP3    H123145   1.458   2.361   5.178
 7756TIP3    H223146   1.418   2.490   5.110
 7757TIP3   OH223147   0.047   2.154   5.148
 7757TIP3    H123148   0.039   2.138   5.242
 7757TIP3    H223149   0.129   2.112   5.123
 7758TIP3   OH223150   1.767   1.066   6.877
 7758TIP3    H123151   1.782   1.032   6.965
 7758TIP3    H223152   1.853   1.062   6.835
 7759TIP3   OH223153   1.677   2.593   6.373
 7759TIP3    H123154   1.603   2.563   6.321
 7759TIP3    H223155   1.666   2.688   6.380
 7760TIP3   OH223156   2.927   1.960   5.113
 7760TIP3    H123157   2.903   2.037   5.060
 7760TIP3    H223158   2.899   1.983   5.201
 7761TIP3   OH223159   3.003   1.967   5.506
 7761TIP3    H123160   3.032   1.947   5.595
 7761TIP3    H223161   2.911   1.991   5.516
 7762TIP3   OH223162   2.254   1.842   5.883
 7762TIP3    H123163   2.293   1.789   5.952
 7762TIP3    H223164   2.328   1.863   5.825
 7763TIP3   OH223165   3.224   2.279   5.196
 7763TIP3    H123166   3.221   2.215   5.268
 7763TIP3    H223167   3.245   2.362   5.239
 7764TIP3   OH223168   2.220   2.261   5.602
 7764TIP3    H123169   2.204   2.170   5.579
 7764TIP3    H223170   2.301   2.259   5.653
 7765TIP3   OH223171   1.926   1.477   5.348
 7765TIP3    H123172   1.890   1.561   5.376
 7765TIP3    H223173   1.851   1.429   5.312
 7766TIP3   OH223174   2.010   1.780   5.575
 7766TIP3    H123175   2.061   1.702   5.598
 7766TIP3    H223176   2.075   1.847   5.555
 7767TIP3   OH223177   2.846   2.698   5.219
 7767TIP3    H123178   2.905   2.644   5.166
 7767TIP3    H223179   2.797   2.634   5.271
 7768TIP3   OH223180   2.751   2.188   5.546
 7768TIP3    H123181   2.708   2.236   5.476
 7768TIP3    H223182   2.832   2.236   5.562
 7769TIP3   OH223183   3.796   1.516   5.560
 7769TIP3    H123184   3.814   1.598   5.605
 7769TIP3    H223185   3.810   1.536   5.467
 7770TIP3   OH223186   3.193   1.684   5.589
 7770TIP3    H123187   3.218   1.596   5.615
 7770TIP3    H223188   3.140   1.672   5.511
 7771TIP3   OH223189   2.546   1.356   5.549
 7771TIP3    H123190   2.502   1.388   5.471
 7771TIP3    H223191   2.529   1.262   5.550
 7772TIP3   OH223192   3.200   1.470   5.179
 7772TIP3    H123193   3.262   1.458   5.252
 7772TIP3    H223194   3.255   1.497   5.105
 7773TIP3   OH223195   2.147   1.554   5.663
 7773TIP3    H123196   2.230   1.535   5.706
 7773TIP3    H223197   2.149   1.503   5.582
 7774TIP3   OH223198   2.558   1.734   5.476
 7774TIP3    H123199   2.651   1.717   5.491
 7774TIP3    H223200   2.523   1.651   5.442
 7775TIP3   OH223201   3.851   1.734   5.725
 7775TIP3    H123202   3.765   1.776   5.717
 7775TIP3    H223203   3.889   1.772   5.804
 7776TIP3   OH223204   2.496   1.331   5.979
 7776TIP3    H123205   2.452   1.374   5.905
 7776TIP3    H223206   2.442   1.352   6.055
 7777TIP3   OH223207   2.865   2.180   4.953
 7777TIP3    H123208   2.814   2.168   4.873
 7777TIP3    H223209   2.825   2.256   4.996
 7778TIP3   OH223210   2.589   2.117   5.753
 7778TIP3    H123211   2.538   2.193   5.781
 7778TIP3    H223212   2.641   2.148   5.679
 7779TIP3   OH223213   3.373   1.467   5.393
 7779TIP3    H123214   3.332   1.443   5.476
 7779TIP3    H223215   3.432   1.539   5.415
 7780TIP3   OH223216   2.395   1.456   5.755
 7780TIP3    H123217   2.445   1.532   5.783
 7780TIP3    H223218   2.446   1.419   5.683
 7781TIP3   OH223219   2.430   2.327   5.843
 7781TIP3    H123220   2.423   2.420   5.821
 7781TIP3    H223221   2.358   2.311   5.904
 7782TIP3   OH223222   1.823   2.022   5.115
 7782TIP3    H123223   1.787   2.042   5.029
 7782TIP3    H223224   1.843   2.107   5.154
 7783TIP3   OH223225   3.273   2.524   5.334
 7783TIP3    H123226   3.195   2.514   5.388
 7783TIP3    H223227   3.262   2.609   5.291
 7784TIP3   OH223228   3.597   1.393   5.723
 7784TIP3    H123229   3.510   1.420   5.691
 7784TIP3    H223230   3.657   1.427   5.657
 7785TIP3   OH223231   2.876   1.054   5.721
 7785TIP3    H123232   2.851   0.966   5.694
 7785TIP3    H223233   2.798   1.091   5.761
 7786TIP3   OH223234   3.015   2.570   5.047
 7786TIP3    H123235   3.049   2.486   5.017
 7786TIP3    H223236   3.058   2.635   4.991
 7787TIP3   OH223237   3.111   2.327   4.947
 7787TIP3    H123238   3.034   2.271   4.947
 7787TIP3    H223239   3.158   2.305   5.028
 7788TIP3   OH223240   3.492   2.422   5.697
 7788TIP3    H123241   3.476   2.348   5.639
 7788TIP3    H223242   3.474   2.499   5.642
 7789TIP3   OH223243   2.728   1.862   4.876
 7789TIP3    H123244   2.671   1.937   4.894
 7789TIP3    H223245   2.808   1.901   4.841
 7790TIP3   OH223246   2.754   1.604   4.743
 7790TIP3    H123247   2.821   1.672   4.739
 7790TIP3    H223248   2.784   1.537   4.681
 7791TIP3   OH223249   3.673   2.073   5.560
 7791TIP3    H123250   3.591   2.122   5.561
 7791TIP3    H223251   3.709   2.088   5.473
 7792TIP3   OH223252   3.134   1.909   4.934
 7792TIP3    H123253   3.076   1.934   5.005
 7792TIP3    H223254   3.218   1.891   4.977
 7793TIP3   OH223255   3.374   1.937   5.874
 7793TIP3    H123256   3.370   2.022   5.919
 7793TIP3    H223257   3.292   1.933   5.824
 7794TIP3   OH223258   2.365   1.885   5.340
 7794TIP3    H123259   2.337   1.833   5.265
 7794TIP3    H223260   2.438   1.836   5.378
 7795TIP3   OH223261   2.463   1.880   5.698
 7795TIP3    H123262   2.500   1.843   5.618
 7795TIP3    H223263   2.511   1.961   5.712
 7796TIP3   OH223264   3.068   2.513   5.506
 7796TIP3    H123265   3.026   2.594   5.537
 7796TIP3    H223266   3.026   2.444   5.557
 7797TIP3   OH223267   2.634   2.415   6.022
 7797TIP3    H123268   2.574   2.473   6.068
 7797TIP3    H223269   2.579   2.367   5.961
 7798TIP3   OH223270   2.982   1.764   4.757
 7798TIP3    H123271   3.038   1.824   4.807
 7798TIP3    H223272   3.010   1.775   4.666
 7799TIP3   OH223273   2.394   1.964   6.178
 7799TIP3    H123274   2.398   2.059   6.192
 7799TIP3    H223275   2.300   1.946   6.167
 7800TIP3   OH223276   2.721   2.394   5.037
 7800TIP3    H123277   2.687   2.383   5.126
 7800TIP3    H223278   2.669   2.465   5.000
 7801TIP3   OH223279   2.431   2.579   6.112
 7801TIP3    H123280   2.407   2.595   6.020
 7801TIP3    H223281   2.347   2.565   6.156
 7802TIP3   OH223282   3.492   0.995   4.824
 7802TIP3    H123283   3.413   1.016   4.874
 7802TIP3    H223284   3.504   1.071   4.766
 7803TIP3   OH223285   2.260   1.732   5.117
 7803TIP3    H123286   2.193   1.792   5.082
 7803TIP3    H223287   2.210   1.659   5.153
 7804TIP3   OH223288   3.301   2.369   4.364
 7804TIP3    H123289   3.297   2.464   4.352
 7804TIP3    H223290   3.393   2.347   4.353
 7805TIP3   OH223291   2.027   2.138   6.063
 7805TIP3    H123292   1.958   2.121   5.999
 7805TIP3    H223293   2.061   2.051   6.085
 7806TIP3   OH223294   1.872   2.325   5.712
 7806TIP3    H123295   1.966   2.345   5.710
 7806TIP3    H223296   1.832   2.406   5.742
 7807TIP3   OH223297   3.719   2.779   5.764
 7807TIP3    H123298   3.725   2.684   5.778
 7807TIP3    H223299   3.640   2.805   5.810
 7808TIP3   OH223300   2.828   2.561   5.891
 7808TIP3    H123301   2.818   2.653   5.916
 7808TIP3    H223302   2.758   2.515   5.937
 7809TIP3   OH223303   2.609   2.683   4.826
 7809TIP3    H123304   2.554   2.665   4.749
 7809TIP3    H223305   2.570   2.761   4.864
 7810TIP3   OH223306   2.043   2.516   5.227
 7810TIP3    H123307   2.099   2.504   5.304
 7810TIP3    H223308   2.006   2.429   5.211
 7811TIP3   OH223309   2.814   2.600   4.465
 7811TIP3    H123310   2.867   2.527   4.431
 7811TIP3    H223311   2.843   2.612   4.555
 7812TIP3   OH223312   2.863   2.633   4.739
 7812TIP3    H123313   2.776   2.641   4.777
 7812TIP3    H223314   2.918   2.601   4.810
 7813TIP3   OH223315   3.613   1.897   6.038
 7813TIP3    H123316   3.531   1.908   5.989
 7813TIP3    H223317   3.632   1.804   6.032
 7814TIP3   OH223318   2.231   2.322   6.031
 7814TIP3    H123319   2.279   2.308   6.112
 7814TIP3    H223320   2.156   2.262   6.037
 7815TIP3   OH223321   2.631   1.121   5.840
 7815TIP3    H123322   2.584   1.095   5.761
 7815TIP3    H223323   2.580   1.194   5.875
 7816TIP3   OH223324   3.148   1.255   6.048
 7816TIP3    H123325   3.215   1.230   6.112
 7816TIP3    H223326   3.065   1.238   6.093
 7817TIP3   OH223327   3.374   1.671   5.962
 7817TIP3    H123328   3.333   1.667   6.048
 7817TIP3    H223329   3.358   1.760   5.931
 7818TIP3   OH223330   3.053   1.751   4.495
 7818TIP3    H123331   2.999   1.754   4.416
 7818TIP3    H223332   3.129   1.805   4.474
 7819TIP3   OH223333   2.754   1.173   4.842
 7819TIP3    H123334   2.712   1.188   4.927
 7819TIP3    H223335   2.718   1.090   4.812
 7820TIP3   OH223336   2.546   1.666   5.854
 7820TIP3    H123337   2.500   1.676   5.937
 7820TIP3    H223338   2.523   1.744   5.804
 7821TIP3   OH223339   2.425   1.519   5.351
 7821TIP3    H123340   2.339   1.494   5.385
 7821TIP3    H223341   2.417   1.510   5.256
 7822TIP3   OH223342   2.840   1.641   5.029
 7822TIP3    H123343   2.879   1.721   5.065
 7822TIP3    H223344   2.915   1.589   5.000
 7823TIP3   OH223345   3.094   1.882   6.174
 7823TIP3    H123346   3.067   1.814   6.236
 7823TIP3    H223347   3.186   1.897   6.194
 7824TIP3   OH223348   3.065   1.647   5.353
 7824TIP3    H123349   3.002   1.697   5.301
 7824TIP3    H223350   3.097   1.580   5.293
 7825TIP3   OH223351   2.384   1.681   6.074
 7825TIP3    H123352   2.395   1.744   6.146
 7825TIP3    H223353   2.367   1.598   6.119
 7826TIP3   OH223354   2.432   1.147   4.773
 7826TIP3    H123355   2.418   1.149   4.868
 7826TIP3    H223356   2.356   1.192   4.736
 7827TIP3   OH223357   1.973   1.202   5.641
 7827TIP3    H123358   2.049   1.230   5.692
 7827TIP3    H223359   2.009   1.166   5.561
 7828TIP3   OH223360   1.892   1.198   5.164
 7828TIP3    H123361   1.937   1.230   5.085
 7828TIP3    H223362   1.827   1.265   5.183
 7829TIP3   OH223363   3.123   1.887   5.754
 7829TIP3    H123364   3.153   1.818   5.694
 7829TIP3    H223365   3.073   1.841   5.821
 7830TIP3   OH223366   2.798   1.314   5.422
 7830TIP3    H123367   2.721   1.338   5.474
 7830TIP3    H223368   2.870   1.313   5.485
 7831TIP3   OH223369   2.183   1.419   5.426
 7831TIP3    H123370   2.093   1.425   5.394
 7831TIP3    H223371   2.211   1.330   5.403
 7832TIP3   OH223372   3.242   1.416   5.637
 7832TIP3    H123373   3.222   1.434   5.728
 7832TIP3    H223374   3.171   1.358   5.607
 7833TIP3   OH223375   2.329   1.402   4.910
 7833TIP3    H123376   2.252   1.371   4.862
 7833TIP3    H223377   2.382   1.446   4.843
 7834TIP3   OH223378   3.438   3.124   5.853
 7834TIP3    H123379   3.436   3.140   5.759
 7834TIP3    H223380   3.517   3.169   5.884
 7835TIP3   OH223381   2.378   2.231   6.266
 7835TIP3    H123382   2.459   2.254   6.312
 7835TIP3    H223383   2.309   2.243   6.331
 7836TIP3   OH223384   2.818   1.663   5.533
 7836TIP3    H123385   2.906   1.645   5.500
 7836TIP3    H223386   2.821   1.631   5.624
 7837TIP3   OH223387   2.313   1.188   5.356
 7837TIP3    H123388   2.359   1.140   5.425
 7837TIP3    H223389   2.323   1.134   5.278
 7838TIP3   OH223390   2.810   1.599   5.806
 7838TIP3    H123391   2.723   1.634   5.825
 7838TIP3    H223392   2.870   1.656   5.855
 7839TIP3   OH223393   2.498   2.015   4.935
 7839TIP3    H123394   2.449   1.935   4.950
 7839TIP3    H223395   2.515   2.051   5.022
 7840TIP3   OH223396   3.446   2.220   5.516
 7840TIP3    H123397   3.484   2.272   5.445
 7840TIP3    H223398   3.368   2.180   5.478
 7841TIP3   OH223399   3.007   1.270   4.809
 7841TIP3    H123400   2.915   1.245   4.818
 7841TIP3    H223401   3.008   1.365   4.821
 7842TIP3   OH223402   2.947   2.293   5.926
 7842TIP3    H123403   3.002   2.291   6.005
 7842TIP3    H223404   2.910   2.381   5.925
 7843TIP3   OH223405   3.059   1.532   4.888
 7843TIP3    H123406   3.153   1.532   4.904
 7843TIP3    H223407   3.043   1.609   4.834
 7844TIP3   OH223408   2.224   1.967   5.562
 7844TIP3    H123409   2.262   1.955   5.475
 7844TIP3    H223410   2.294   1.939   5.622
 7845TIP3   OH223411   2.670   2.129   4.753
 7845TIP3    H123412   2.645   2.220   4.741
 7845TIP3    H223413   2.601   2.092   4.808
 7846TIP3   OH223414   2.119   1.901   6.193
 7846TIP3    H123415   2.120   1.874   6.285
 7846TIP3    H223416   2.043   1.857   6.156
 7847TIP3   OH223417   2.862   2.038   6.216
 7847TIP3    H123418   2.793   1.980   6.186
 7847TIP3    H223419   2.943   1.997   6.185
 7848TIP3   OH223420   3.101   2.580   5.826
 7848TIP3    H123421   3.005   2.571   5.828
 7848TIP3    H223422   3.123   2.621   5.909
 7849TIP3   OH223423   3.738   2.498   5.787
 7849TIP3    H123424   3.643   2.485   5.777
 7849TIP3    H223425   3.774   2.471   5.703
 7850TIP3   OH223426   3.229   2.447   4.647
 7850TIP3    H123427   3.198   2.391   4.718
 7850TIP3    H223428   3.238   2.388   4.572
 7851TIP3   OH223429   3.234   2.080   5.400
 7851TIP3    H123430   3.148   2.056   5.435
 7851TIP3    H223431   3.271   1.998   5.369
 7852TIP3   OH223432   2.325   2.301   5.157
 7852TIP3    H123433   2.403   2.313   5.212
 7852TIP3    H223434   2.307   2.388   5.121
 7853TIP3   OH223435   1.933   1.610   4.940
 7853TIP3    H123436   1.973   1.695   4.961
 7853TIP3    H223437   1.851   1.610   4.989
 7854TIP3   OH223438   2.541   2.062   5.197
 7854TIP3    H123439   2.565   2.148   5.230
 7854TIP3    H223440   2.472   2.031   5.256
 7855TIP3   OH223441   2.643   2.625   5.675
 7855TIP3    H123442   2.674   2.701   5.626
 7855TIP3    H223443   2.720   2.592   5.720
 7856TIP3   OH223444   2.255   2.554   5.053
 7856TIP3    H123445   2.175   2.554   5.106
 7856TIP3    H223446   2.293   2.641   5.067
 7857TIP3   OH223447   2.996   2.284   5.654
 7857TIP3    H123448   2.975   2.282   5.747
 7857TIP3    H223449   3.085   2.250   5.648
 7858TIP3   OH223450   2.999   2.171   4.512
 7858TIP3    H123451   3.049   2.140   4.587
 7858TIP3    H223452   2.914   2.128   4.521
 7859TIP3   OH223453   3.248   2.798   5.693
 7859TIP3    H123454   3.176   2.737   5.706
 7859TIP3    H223455   3.219   2.855   5.621
 7860TIP3   OH223456   3.300   2.643   4.330
 7860TIP3    H123457   3.319   2.699   4.255
 7860TIP3    H223458   3.230   2.688   4.378
 7861TIP3   OH223459   2.331   1.423   6.188
 7861TIP3    H123460   2.236   1.432   6.194
 7861TIP3    H223461   2.354   1.366   6.262
 7862TIP3   OH223462   3.165   2.069   4.705
 7862TIP3    H123463   3.149   2.031   4.792
 7862TIP3    H223464   3.260   2.083   4.702
 7863TIP3   OH223465   2.072   2.545   5.842
 7863TIP3    H123466   2.125   2.488   5.898
 7863TIP3    H223467   2.086   2.633   5.877
 7864TIP3   OH223468   2.358   2.145   4.533
 7864TIP3    H123469   2.363   2.052   4.510
 7864TIP3    H223470   2.336   2.145   4.627
 7865TIP3   OH223471   2.287   2.161   4.800
 7865TIP3    H123472   2.352   2.134   4.865
 7865TIP3    H223473   2.281   2.256   4.810
 7866TIP3   OH223474   2.033   1.863   5.013
 7866TIP3    H123475   1.969   1.903   5.072
 7866TIP3    H223476   2.040   1.924   4.940
 7867TIP3   OH223477   3.182   1.482   5.895
 7867TIP3    H123478   3.259   1.527   5.930
 7867TIP3    H223479   3.171   1.406   5.953
 7868TIP3   OH223480   3.086   1.236   5.077
 7868TIP3    H123481   3.061   1.255   4.986
 7868TIP3    H223482   3.116   1.320   5.111
 7869TIP3   OH223483   2.556   2.371   4.740
 7869TIP3    H123484   2.470   2.386   4.778
 7869TIP3    H223485   2.574   2.449   4.689
 7870TIP3   OH223486   3.019   1.720   5.948
 7870TIP3    H123487   3.044   1.764   6.029
 7870TIP3    H223488   3.068   1.639   5.948
 7871TIP3   OH223489   2.892   1.131   5.244
 7871TIP3    H123490   2.872   1.202   5.304
 7871TIP3    H223491   2.965   1.163   5.191
 7872TIP3   OH223492   2.297   2.435   4.812
 7872TIP3    H123493   2.278   2.505   4.750
 7872TIP3    H223494   2.280   2.473   4.898
 7873TIP3   OH223495   2.388   1.162   5.046
 7873TIP3    H123496   2.362   1.253   5.029
 7873TIP3    H223497   2.479   1.168   5.076
 7874TIP3   OH223498   3.641   1.629   5.945
 7874TIP3    H123499   3.546   1.629   5.955
 7874TIP3    H223500   3.656   1.593   5.858
 7875TIP3   OH223501   3.313   1.816   5.334
 7875TIP3    H123502   3.234   1.774   5.368
 7875TIP3    H223503   3.384   1.777   5.384
 7876TIP3   OH223504   2.034   2.039   4.798
 7876TIP3    H123505   2.103   2.105   4.808
 7876TIP3    H223506   2.061   1.987   4.723
 7877TIP3   OH223507   1.961   1.333   4.934
 7877TIP3    H123508   1.964   1.428   4.943
 7877TIP3    H223509   1.906   1.319   4.856
 7878TIP3   OH223510   3.280   2.797   5.266
 7878TIP3    H123511   3.238   2.846   5.196
 7878TIP3    H223512   3.374   2.810   5.251
 7879TIP3   OH223513   1.860   2.287   5.202
 7879TIP3    H123514   1.828   2.333   5.279
 7879TIP3    H223515   1.821   2.334   5.128
 7880TIP3   OH223516   2.072   2.834   6.261
 7880TIP3    H123517   2.154   2.837   6.310
 7880TIP3    H223518   2.055   2.741   6.248
 7881TIP3   OH223519   2.537   2.739   6.310
 7881TIP3    H123520   2.629   2.717   6.316
 7881TIP3    H223521   2.504   2.686   6.238
 7882TIP3   OH223522   2.502   2.348   4.417
 7882TIP3    H123523   2.457   2.279   4.467
 7882TIP3    H223524   2.578   2.304   4.380
 7883TIP3   OH223525   3.156   2.687   6.073
 7883TIP3    H123526   3.174   2.617   6.135
 7883TIP3    H223527   3.230   2.747   6.082
 7884TIP3   OH223528   2.950   2.388   4.351
 7884TIP3    H123529   2.980   2.324   4.416
 7884TIP3    H223530   3.017   2.386   4.282
 7885TIP3   OH223531   2.172   2.234   6.456
 7885TIP3    H123532   2.188   2.140   6.466
 7885TIP3    H223533   2.087   2.239   6.414
 7886TIP3   OH223534   2.145   1.853   4.629
 7886TIP3    H123535   2.183   1.801   4.700
 7886TIP3    H223536   2.217   1.868   4.568
 7887TIP3   OH223537   2.791   2.315   6.228
 7887TIP3    H123538   2.747   2.336   6.146
 7887TIP3    H223539   2.828   2.228   6.214
 7888TIP3   OH223540   2.746   2.055   4.496
 7888TIP3    H123541   2.709   2.073   4.583
 7888TIP3    H223542   2.724   1.964   4.479
 7889TIP3   OH223543   3.266   2.355   5.844
 7889TIP3    H123544   3.344   2.385   5.797
 7889TIP3    H223545   3.203   2.426   5.834
 7890TIP3   OH223546   2.288   1.976   6.464
 7890TIP3    H123547   2.360   1.967   6.402
 7890TIP3    H223548   2.330   2.000   6.546
 7891TIP3   OH223549   2.496   1.679   4.966
 7891TIP3    H123550   2.426   1.697   5.028
 7891TIP3    H223551   2.452   1.637   4.892
 7892TIP3   OH223552   2.655   1.863   6.120
 7892TIP3    H123553   2.569   1.903   6.131
 7892TIP3    H223554   2.686   1.895   6.036
 7893TIP3   OH223555   2.468   1.558   4.720
 7893TIP3    H123556   2.428   1.572   4.634
 7893TIP3    H223557   2.562   1.560   4.704
 7894TIP3   OH223558   3.153   2.237   6.203
 7894TIP3    H123559   3.217   2.195   6.146
 7894TIP3    H223560   3.148   2.179   6.280
 7895TIP3   OH223561   3.265   1.886   4.378
 7895TIP3    H123562   3.249   1.843   4.294
 7895TIP3    H223563   3.245   1.978   4.362
 7896TIP3   OH223564   2.755   1.629   6.224
 7896TIP3    H123565   2.753   1.557   6.160
 7896TIP3    H223566   2.722   1.704   6.176
 7897TIP3   OH223567   2.753   1.425   6.025
 7897TIP3    H123568   2.782   1.464   5.942
 7897TIP3    H223569   2.666   1.392   6.006
 7898TIP3   OH223570   2.770   1.973   5.900
 7898TIP3    H123571   2.854   2.018   5.890
 7898TIP3    H223572   2.709   2.024   5.847
 7899TIP3   OH223573   3.363   1.921   6.270
 7899TIP3    H123574   3.409   1.838   6.272
 7899TIP3    H223575   3.431   1.987   6.258
 7900TIP3   OH223576   3.391   2.182   6.013
 7900TIP3    H123577   3.337   2.242   5.962
 7900TIP3    H223578   3.480   2.198   5.982
 7901TIP3   OH223579   2.642   1.709   6.469
 7901TIP3    H123580   2.572   1.648   6.487
 7901TIP3    H223581   2.670   1.689   6.379
 7902TIP3   OH223582   2.883   1.200   6.126
 7902TIP3    H123583   2.841   1.279   6.091
 7902TIP3    H223584   2.819   1.130   6.111
 7903TIP3   OH223585   3.011   1.668   6.327
 7903TIP3    H123586   2.997   1.656   6.421
 7903TIP3    H223587   2.926   1.648   6.288
 7904TIP3   OH223588   3.259   1.627   6.201
 7904TIP3    H123589   3.179   1.626   6.254
 7904TIP3    H223590   3.329   1.604   6.262
 7905TIP3   OH223591   3.496   1.592   6.350
 7905TIP3    H123592   3.508   1.497   6.357
 7905TIP3    H223593   3.490   1.622   6.441
 7906TIP3   OH223594   2.469   1.495   6.533
 7906TIP3    H123595   2.475   1.407   6.496
 7906TIP3    H223596   2.509   1.487   6.620
 7907TIP3   OH223597   2.948   1.176   6.391
 7907TIP3    H123598   3.016   1.109   6.383
 7907TIP3    H223599   2.917   1.189   6.301
 7908TIP3   OH223600   3.047   1.388   6.537
 7908TIP3    H123601   3.015   1.317   6.481
 7908TIP3    H223602   2.975   1.452   6.537
 7909TIP3   OH223603   2.296   2.642   4.629
 7909TIP3    H123604   2.386   2.626   4.599
 7909TIP3    H223605   2.255   2.690   4.557
 7910TIP3   OH223606   1.761   2.023   4.827
 7910TIP3    H123607   1.855   2.040   4.820
 7910TIP3    H223608   1.749   1.939   4.784
 7911TIP3   OH223609   1.667   2.610   5.282
 7911TIP3    H123610   1.603   2.556   5.236
 7911TIP3    H223611   1.714   2.548   5.339
 7912TIP3   OH223612   1.811   2.438   5.446
 7912TIP3    H123613   1.802   2.372   5.514
 7912TIP3    H223614   1.871   2.503   5.483
 7913TIP3   OH223615   3.552   2.847   5.259
 7913TIP3    H123616   3.569   2.871   5.350
 7913TIP3    H223617   3.603   2.910   5.208
 7914TIP3   OH223618   3.567   2.876   5.539
 7914TIP3    H123619   3.518   2.793   5.536
 7914TIP3    H223620   3.637   2.859   5.603
 7915TIP3   OH223621   3.632   2.577   6.114
 7915TIP3    H123622   3.560   2.589   6.177
 7915TIP3    H223623   3.676   2.662   6.113
 7916TIP3   OH223624   3.446   2.082   4.716
 7916TIP3    H123625   3.500   2.157   4.689
 7916TIP3    H223626   3.492   2.046   4.791
 7917TIP3   OH223627   3.578   1.943   4.921
 7917TIP3    H123628   3.509   1.913   4.981
 7917TIP3    H223629   3.643   1.985   4.978
 7918TIP3   OH223630   3.624   2.356   5.354
 7918TIP3    H123631   3.674   2.290   5.307
 7918TIP3    H223632   3.623   2.432   5.295
 7919TIP3   OH223633   3.423   2.638   5.542
 7919TIP3    H123634   3.352   2.681   5.590
 7919TIP3    H223635   3.380   2.598   5.467
 7920TIP3   OH223636   3.487   1.868   4.545
 7920TIP3    H123637   3.412   1.870   4.485
 7920TIP3    H223638   3.470   1.940   4.606
 7921TIP3   OH223639   3.263   1.494   4.528
 7921TIP3    H123640   3.294   1.585   4.526
 7921TIP3    H223641   3.244   1.473   4.437
 7922TIP3   OH223642   3.365   1.814   5.063
 7922TIP3    H123643   3.373   1.719   5.050
 7922TIP3    H223644   3.352   1.824   5.157
 7923TIP3   OH223645   1.989   1.865   5.834
 7923TIP3    H123646   1.981   1.838   5.742
 7923TIP3    H223647   2.083   1.868   5.850
 7924TIP3   OH223648   3.648   2.228   5.918
 7924TIP3    H123649   3.715   2.162   5.900
 7924TIP3    H223650   3.663   2.296   5.853
 7925TIP3   OH223651   3.825   2.015   5.907
 7925TIP3    H123652   3.752   1.976   5.955
 7925TIP3    H223653   3.900   1.961   5.930
 7926TIP3   OH223654   3.299   1.217   4.485
 7926TIP3    H123655   3.306   1.301   4.531
 7926TIP3    H223656   3.208   1.191   4.497
 7927TIP3   OH223657   3.345   1.527   4.946
 7927TIP3    H123658   3.393   1.445   4.958
 7927TIP3    H223659   3.383   1.566   4.867
 7928TIP3   OH223660   3.525   1.691   5.468
 7928TIP3    H123661   3.606   1.711   5.421
 7928TIP3    H223662   3.536   1.734   5.553
 7929TIP3   OH223663   3.591   1.846   5.695
 7929TIP3    H123664   3.518   1.874   5.751
 7929TIP3    H223665   3.620   1.926   5.651
 7930TIP3   OH223666   2.205   1.551   6.469
 7930TIP3    H123667   2.299   1.549   6.487
 7930TIP3    H223668   2.172   1.470   6.508
 7931TIP3   OH223669   4.053   1.445   6.234
 7931TIP3    H123670   4.118   1.390   6.190
 7931TIP3    H223671   4.014   1.497   6.164
 7932TIP3   OH223672   3.476   1.283   4.980
 7932TIP3    H123673   3.528   1.271   5.060
 7932TIP3    H223674   3.413   1.211   4.981
 7933TIP3   OH223675   2.192   1.255   5.805
 7933TIP3    H123676   2.244   1.175   5.800
 7933TIP3    H223677   2.255   1.325   5.789
 7934TIP3   OH223678   1.965   1.534   5.879
 7934TIP3    H123679   2.017   1.520   5.800
 7934TIP3    H223680   1.985   1.624   5.905
 7935TIP3   OH223681   3.903   1.565   6.041
 7935TIP3    H123682   3.824   1.606   6.076
 7935TIP3    H223683   3.870   1.495   5.984
 7936TIP3   OH223684   1.959   1.055   5.389
 7936TIP3    H123685   1.870   1.040   5.423
 7936TIP3    H223686   1.946   1.116   5.316
 7937TIP3   OH223687   3.112   2.763   4.884
 7937TIP3    H123688   3.171   2.754   4.809
 7937TIP3    H223689   3.152   2.833   4.937
 7938TIP3   OH223690   2.182   1.110   6.214
 7938TIP3    H123691   2.126   1.101   6.291
 7938TIP3    H223692   2.126   1.152   6.149
 7939TIP3   OH223693   2.205   2.554   6.275
 7939TIP3    H123694   2.112   2.535   6.268
 7939TIP3    H223695   2.224   2.548   6.369
 7940TIP3   OH223696   2.418   2.604   5.830
 7940TIP3    H123697   2.368   2.680   5.799
 7940TIP3    H223698   2.500   2.609   5.781
 7941TIP3   OH223699   2.812   2.830   5.966
 7941TIP3    H123700   2.849   2.825   6.054
 7941TIP3    H223701   2.873   2.884   5.917
 7942TIP3   OH223702   3.002   2.988   5.842
 7942TIP3    H123703   3.065   2.937   5.789
 7942TIP3    H223704   3.057   3.045   5.895
 7943TIP3   OH223705   3.811   1.323   5.923
 7943TIP3    H123706   3.727   1.326   5.877
 7943TIP3    H223707   3.838   1.232   5.919
 7944TIP3   OH223708   2.076   2.835   5.881
 7944TIP3    H123709   1.986   2.853   5.857
 7944TIP3    H223710   2.099   2.904   5.944
 7945TIP3   OH223711   2.307   2.835   5.728
 7945TIP3    H123712   2.223   2.838   5.774
 7945TIP3    H223713   2.286   2.857   5.638
 7946TIP3   OH223714   2.719   2.844   5.523
 7946TIP3    H123715   2.650   2.858   5.458
 7946TIP3    H223716   2.732   2.930   5.563
 7947TIP3   OH223717   2.984   2.774   5.565
 7947TIP3    H123718   2.892   2.790   5.546
 7947TIP3    H223719   3.031   2.839   5.513
 7948TIP3   OH223720   3.191   2.958   5.471
 7948TIP3    H123721   3.185   3.045   5.430
 7948TIP3    H223722   3.220   2.901   5.400
 7949TIP3   OH223723   1.993   2.612   5.586
 7949TIP3    H123724   2.019   2.593   5.676
 7949TIP3    H223725   2.066   2.580   5.533
 7950TIP3   OH223726   2.202   2.498   5.454
 7950TIP3    H123727   2.212   2.412   5.495
 7950TIP3    H223728   2.292   2.531   5.447
 7951TIP3   OH223729   2.470   2.596   5.450
 7951TIP3    H123730   2.505   2.522   5.399
 7951TIP3    H223731   2.521   2.595   5.531
 7952TIP3   OH223732   3.027   1.244   5.571
 7952TIP3    H123733   2.981   1.178   5.622
 7952TIP3    H223734   3.091   1.195   5.520
 7953TIP3   OH223735   3.521   1.142   5.439
 7953TIP3    H123736   3.556   1.194   5.366
 7953TIP3    H223737   3.430   1.171   5.447
 7954TIP3   OH223738   3.635   1.229   5.203
 7954TIP3    H123739   3.706   1.171   5.179
 7954TIP3    H223740   3.671   1.317   5.193
 7955TIP3   OH223741   2.083   0.858   5.227
 7955TIP3    H123742   2.104   0.904   5.145
 7955TIP3    H223743   2.054   0.928   5.286
 7956TIP3   OH223744   2.750   0.955   5.410
 7956TIP3    H123745   2.793   1.032   5.373
 7956TIP3    H223746   2.676   0.991   5.461
 7957TIP3   OH223747   3.234   1.121   5.432
 7957TIP3    H123748   3.237   1.087   5.342
 7957TIP3    H223749   3.237   1.043   5.487
 7958TIP3   OH223750   3.293   1.072   4.997
 7958TIP3    H123751   3.217   1.124   5.022
 7958TIP3    H223752   3.277   0.986   5.036
 7959TIP3   OH223753   1.749   2.413   4.985
 7959TIP3    H123754   1.666   2.380   4.950
 7959TIP3    H223755   1.753   2.504   4.956
 7960TIP3   OH223756   2.184   0.980   4.984
 7960TIP3    H123757   2.227   0.916   4.927
 7960TIP3    H223758   2.254   1.039   5.011
 7961TIP3   OH223759   2.658   1.204   5.108
 7961TIP3    H123760   2.726   1.148   5.145
 7961TIP3    H223761   2.658   1.282   5.163
 7962TIP3   OH223762   2.553   2.579   4.555
 7962TIP3    H123763   2.638   2.606   4.521
 7962TIP3    H223764   2.527   2.505   4.501
 7963TIP3   OH223765   3.270   2.717   4.661
 7963TIP3    H123766   3.261   2.622   4.658
 7963TIP3    H223767   3.222   2.749   4.585
 7964TIP3   OH223768   2.485   1.223   6.448
 7964TIP3    H123769   2.451   1.154   6.505
 7964TIP3    H223770   2.577   1.231   6.472
 7965TIP3   OH223771   2.734   1.230   6.568
 7965TIP3    H123772   2.810   1.208   6.515
 7965TIP3    H223773   2.727   1.158   6.631
 7966TIP3   OH223774   1.854   2.398   4.631
 7966TIP3    H123775   1.862   2.427   4.722
 7966TIP3    H223776   1.939   2.358   4.612
 7967TIP3   OH223777   3.558   1.320   6.354
 7967TIP3    H123778   3.575   1.291   6.444
 7967TIP3    H223779   3.643   1.315   6.311
 7968TIP3   OH223780   3.469   2.849   5.859
 7968TIP3    H123781   3.395   2.820   5.806
 7968TIP3    H223782   3.458   2.944   5.866
 7969TIP3   OH223783   4.754   2.235   4.596
 7969TIP3    H123784   4.724   2.323   4.573
 7969TIP3    H223785   4.682   2.178   4.569
 7970TIP3   OH223786   4.762   2.240   5.019
 7970TIP3    H123787   4.816   2.224   5.097
 7970TIP3    H223788   4.714   2.158   5.007
 7971TIP3   OH223789   4.049   2.096   5.369
 7971TIP3    H123790   4.087   2.043   5.439
 7971TIP3    H223791   4.124   2.125   5.317
 7972TIP3   OH223792   5.020   2.539   4.693
 7972TIP3    H123793   5.013   2.473   4.762
 7972TIP3    H223794   5.042   2.620   4.740
 7973TIP3   OH223795   4.044   2.510   5.046
 7973TIP3    H123796   4.026   2.417   5.060
 7973TIP3    H223797   4.139   2.516   5.041
 7974TIP3   OH223798   3.742   1.744   4.808
 7974TIP3    H123799   3.688   1.813   4.847
 7974TIP3    H223800   3.693   1.718   4.730
 7975TIP3   OH223801   3.806   2.037   5.059
 7975TIP3    H123802   3.856   1.959   5.082
 7975TIP3    H223803   3.873   2.103   5.041
 7976TIP3   OH223804   4.670   2.984   4.701
 7976TIP3    H123805   4.700   2.917   4.639
 7976TIP3    H223806   4.659   2.938   4.783
 7977TIP3   OH223807   4.554   2.448   5.051
 7977TIP3    H123808   4.605   2.375   5.016
 7977TIP3    H223809   4.620   2.507   5.088
 7978TIP3   OH223810   5.588   1.776   5.050
 7978TIP3    H123811   5.607   1.857   5.097
 7978TIP3    H223812   5.598   1.799   4.957
 7979TIP3   OH223813   4.934   1.924   5.069
 7979TIP3    H123814   4.973   1.842   5.097
 7979TIP3    H223815   4.922   1.915   4.974
 7980TIP3   OH223816   4.325   1.608   5.030
 7980TIP3    H123817   4.305   1.679   4.969
 7980TIP3    H223818   4.272   1.535   5.000
 7981TIP3   OH223819   5.017   1.694   4.654
 7981TIP3    H123820   5.081   1.688   4.725
 7981TIP3    H223821   5.066   1.732   4.581
 7982TIP3   OH223822   3.942   1.809   5.140
 7982TIP3    H123823   4.024   1.793   5.187
 7982TIP3    H223824   3.951   1.760   5.058
 7983TIP3   OH223825   4.370   2.017   4.962
 7983TIP3    H123826   4.464   2.002   4.975
 7983TIP3    H223827   4.337   1.932   4.932
 7984TIP3   OH223828   5.647   1.993   5.215
 7984TIP3    H123829   5.562   2.036   5.204
 7984TIP3    H223830   5.684   2.033   5.293
 7985TIP3   OH223831   4.300   1.604   5.474
 7985TIP3    H123832   4.250   1.642   5.401
 7985TIP3    H223833   4.246   1.620   5.551
 7986TIP3   OH223834   4.651   2.456   4.462
 7986TIP3    H123835   4.612   2.427   4.379
 7986TIP3    H223836   4.598   2.531   4.488
 7987TIP3   OH223837   4.390   2.366   5.272
 7987TIP3    H123838   4.351   2.441   5.315
 7987TIP3    H223839   4.454   2.403   5.212
 7988TIP3   OH223840   5.183   1.714   4.871
 7988TIP3    H123841   5.132   1.695   4.950
 7988TIP3    H223842   5.235   1.791   4.894
 7989TIP3   OH223843   4.187   1.713   5.245
 7989TIP3    H123844   4.237   1.790   5.271
 7989TIP3    H223845   4.238   1.673   5.175
 7990TIP3   OH223846   4.262   2.586   5.383
 7990TIP3    H123847   4.256   2.675   5.349
 7990TIP3    H223848   4.177   2.571   5.426
 7991TIP3   OH223849   3.612   2.283   4.607
 7991TIP3    H123850   3.579   2.300   4.519
 7991TIP3    H223851   3.634   2.369   4.642
 7992TIP3   OH223852   5.059   2.782   4.835
 7992TIP3    H123853   4.976   2.773   4.882
 7992TIP3    H223854   5.053   2.869   4.794
 7993TIP3   OH223855   5.395   1.642   5.209
 7993TIP3    H123856   5.310   1.677   5.184
 7993TIP3    H223857   5.456   1.679   5.145
 7994TIP3   OH223858   4.635   1.289   5.197
 7994TIP3    H123859   4.632   1.199   5.229
 7994TIP3    H223860   4.561   1.332   5.239
 7995TIP3   OH223861   4.763   2.818   4.497
 7995TIP3    H123862   4.815   2.738   4.485
 7995TIP3    H223863   4.821   2.888   4.467
 7996TIP3   OH223864   4.899   2.585   4.450
 7996TIP3    H123865   4.825   2.525   4.452
 7996TIP3    H223866   4.950   2.563   4.528
 7997TIP3   OH223867   5.208   2.675   5.220
 7997TIP3    H123868   5.218   2.600   5.161
 7997TIP3    H223869   5.250   2.748   5.173
 7998TIP3   OH223870   4.580   2.075   4.448
 7998TIP3    H123871   4.498   2.121   4.430
 7998TIP3    H223872   4.626   2.074   4.364
 7999TIP3   OH223873   4.557   1.877   4.146
 7999TIP3    H123874   4.624   1.926   4.196
 7999TIP3    H223875   4.608   1.815   4.094
 8000TIP3   OH223876   5.461   2.315   5.038
 8000TIP3    H123877   5.384   2.372   5.048
 8000TIP3    H223878   5.502   2.346   4.957
 8001TIP3   OH223879   4.943   2.166   4.412
 8001TIP3    H123880   4.887   2.195   4.483
 8001TIP3    H223881   5.026   2.144   4.453
 8002TIP3   OH223882   5.177   2.190   5.355
 8002TIP3    H123883   5.187   2.277   5.393
 8002TIP3    H223884   5.094   2.194   5.307
 8003TIP3   OH223885   4.168   2.148   4.817
 8003TIP3    H123886   4.132   2.084   4.755
 8003TIP3    H223887   4.243   2.103   4.856
 8004TIP3   OH223888   4.308   2.561   4.960
 8004TIP3    H123889   4.304   2.541   4.867
 8004TIP3    H223890   4.392   2.525   4.989
 8005TIP3   OH223891   4.262   2.143   5.189
 8005TIP3    H123892   4.306   2.115   5.109
 8005TIP3    H223893   4.309   2.222   5.216
 8006TIP3   OH223894   4.833   2.770   4.984
 8006TIP3    H123895   4.804   2.852   5.025
 8006TIP3    H223896   4.809   2.702   5.047
 8007TIP3   OH223897   4.434   2.679   5.633
 8007TIP3    H123898   4.359   2.738   5.620
 8007TIP3    H223899   4.440   2.630   5.551
 8008TIP3   OH223900   4.778   2.021   4.245
 8008TIP3    H123901   4.835   2.081   4.293
 8008TIP3    H223902   4.805   2.029   4.154
 8009TIP3   OH223903   4.186   2.220   5.668
 8009TIP3    H123904   4.191   2.315   5.679
 8009TIP3    H223905   4.092   2.202   5.658
 8010TIP3   OH223906   4.516   2.696   4.497
 8010TIP3    H123907   4.597   2.746   4.505
 8010TIP3    H223908   4.457   2.753   4.448
 8011TIP3   OH223909   4.219   2.848   5.603
 8011TIP3    H123910   4.201   2.853   5.509
 8011TIP3    H223911   4.133   2.832   5.643
 8012TIP3   OH223912   5.278   1.255   4.304
 8012TIP3    H123913   5.201   1.278   4.356
 8012TIP3    H223914   5.290   1.330   4.246
 8013TIP3   OH223915   4.025   1.986   4.625
 8013TIP3    H123916   3.957   2.043   4.590
 8013TIP3    H223917   3.976   1.916   4.669
 8014TIP3   OH223918   5.093   2.632   3.857
 8014TIP3    H123919   5.089   2.726   3.839
 8014TIP3    H223920   5.183   2.607   3.836
 8015TIP3   OH223921   3.822   2.395   5.550
 8015TIP3    H123922   3.753   2.378   5.485
 8015TIP3    H223923   3.856   2.309   5.572
 8016TIP3   OH223924   3.663   2.595   5.206
 8016TIP3    H123925   3.752   2.622   5.229
 8016TIP3    H223926   3.608   2.669   5.230
 8017TIP3   OH223927   5.520   3.070   5.248
 8017TIP3    H123928   5.521   2.974   5.241
 8017TIP3    H223929   5.438   3.090   5.294
 8018TIP3   OH223930   4.572   2.843   5.367
 8018TIP3    H123931   4.590   2.925   5.413
 8018TIP3    H223932   4.624   2.778   5.414
 8019TIP3   OH223933   4.406   2.910   4.327
 8019TIP3    H123934   4.364   2.891   4.243
 8019TIP3    H223935   4.369   2.994   4.354
 8020TIP3   OH223936   3.837   2.776   4.705
 8020TIP3    H123937   3.882   2.766   4.789
 8020TIP3    H223938   3.789   2.694   4.695
 8021TIP3   OH223939   4.607   2.855   3.955
 8021TIP3    H123940   4.657   2.781   3.920
 8021TIP3    H223941   4.643   2.869   4.042
 8022TIP3   OH223942   4.662   2.899   4.225
 8022TIP3    H123943   4.576   2.897   4.267
 8022TIP3    H223944   4.723   2.869   4.293
 8023TIP3   OH223945   5.407   2.148   5.533
 8023TIP3    H123946   5.330   2.169   5.480
 8023TIP3    H223947   5.424   2.056   5.517
 8024TIP3   OH223948   4.018   2.588   5.518
 8024TIP3    H123949   4.067   2.574   5.599
 8024TIP3    H223950   3.946   2.524   5.522
 8025TIP3   OH223951   4.405   1.387   5.330
 8025TIP3    H123952   4.320   1.355   5.300
 8025TIP3    H223953   4.385   1.469   5.375
 8026TIP3   OH223954   4.946   1.502   5.536
 8026TIP3    H123955   5.015   1.483   5.599
 8026TIP3    H223956   4.865   1.490   5.586
 8027TIP3   OH223957   5.158   1.924   5.442
 8027TIP3    H123958   5.120   1.918   5.530
 8027TIP3    H223959   5.150   2.016   5.418
 8028TIP3   OH223960   4.853   2.000   3.979
 8028TIP3    H123961   4.801   2.011   3.899
 8028TIP3    H223962   4.934   2.048   3.963
 8029TIP3   OH223963   4.482   1.426   4.286
 8029TIP3    H123964   4.484   1.440   4.381
 8029TIP3    H223965   4.444   1.338   4.276
 8030TIP3   OH223966   4.340   1.922   5.335
 8030TIP3    H123967   4.302   1.935   5.422
 8030TIP3    H223968   4.318   2.002   5.287
 8031TIP3   OH223969   4.236   1.797   4.853
 8031TIP3    H123970   4.146   1.766   4.866
 8031TIP3    H223971   4.252   1.787   4.759
 8032TIP3   OH223972   4.707   1.872   4.585
 8032TIP3    H123973   4.659   1.945   4.545
 8032TIP3    H223974   4.763   1.839   4.516
 8033TIP3   OH223975   4.899   2.135   5.669
 8033TIP3    H123976   4.872   2.065   5.730
 8033TIP3    H223977   4.991   2.152   5.691
 8034TIP3   OH223978   4.883   1.889   4.804
 8034TIP3    H123979   4.810   1.912   4.746
 8034TIP3    H223980   4.924   1.813   4.762
 8035TIP3   OH223981   4.177   1.934   5.560
 8035TIP3    H123982   4.195   1.999   5.628
 8035TIP3    H223983   4.161   1.853   5.607
 8036TIP3   OH223984   3.761   1.456   5.133
 8036TIP3    H123985   3.836   1.490   5.182
 8036TIP3    H223986   3.795   1.439   5.045
 8037TIP3   OH223987   4.926   2.147   5.229
 8037TIP3    H123988   4.935   2.068   5.175
 8037TIP3    H223989   4.872   2.118   5.303
 8038TIP3   OH223990   4.586   1.579   4.917
 8038TIP3    H123991   4.510   1.589   4.974
 8038TIP3    H223992   4.661   1.573   4.977
 8039TIP3   OH223993   3.992   1.673   4.899
 8039TIP3    H123994   3.904   1.687   4.864
 8039TIP3    H223995   4.007   1.579   4.888
 8040TIP3   OH223996   5.032   1.663   5.095
 8040TIP3    H123997   5.031   1.672   5.190
 8040TIP3    H223998   4.958   1.605   5.075
 8041TIP3   OH223999   5.232   3.389   5.339
 8041TIP3    H124000   5.233   3.408   5.245
 8041TIP3    H224001   5.312   3.432   5.372
 8042TIP3   OH224002   4.167   2.490   5.747
 8042TIP3    H124003   4.250   2.517   5.786
 8042TIP3    H224004   4.103   2.502   5.817
 8043TIP3   OH224005   4.636   1.959   5.031
 8043TIP3    H124006   4.722   1.929   4.999
 8043TIP3    H224007   4.629   1.922   5.118
 8044TIP3   OH224008   4.165   1.412   4.919
 8044TIP3    H124009   4.117   1.343   4.966
 8044TIP3    H224010   4.222   1.364   4.859
 8045TIP3   OH224011   4.609   1.868   5.296
 8045TIP3    H124012   4.520   1.897   5.314
 8045TIP3    H224013   4.664   1.928   5.345
 8046TIP3   OH224014   4.344   2.214   4.398
 8046TIP3    H124015   4.267   2.163   4.373
 8046TIP3    H224016   4.318   2.259   4.478
 8047TIP3   OH224017   5.235   2.477   5.017
 8047TIP3    H124018   5.274   2.532   4.949
 8047TIP3    H224019   5.157   2.439   4.976
 8048TIP3   OH224020   4.767   1.533   4.309
 8048TIP3    H124021   4.673   1.534   4.291
 8048TIP3    H224022   4.792   1.625   4.315
 8049TIP3   OH224023   4.869   1.787   4.367
 8049TIP3    H124024   4.964   1.793   4.380
 8049TIP3    H224025   4.847   1.867   4.318
 8050TIP3   OH224026   4.027   2.215   5.045
 8050TIP3    H124027   4.068   2.204   4.959
 8050TIP3    H224028   4.097   2.191   5.107
 8051TIP3   OH224029   4.496   2.377   4.240
 8051TIP3    H124030   4.448   2.459   4.236
 8051TIP3    H224031   4.441   2.319   4.293
 8052TIP3   OH224032   3.911   2.158   5.680
 8052TIP3    H124033   3.913   2.131   5.772
 8052TIP3    H224034   3.836   2.112   5.642
 8053TIP3   OH224035   5.283   1.884   4.189
 8053TIP3    H124036   5.228   1.839   4.125
 8053TIP3    H224037   5.289   1.974   4.157
 8054TIP3   OH224038   5.516   2.798   5.237
 8054TIP3    H124039   5.485   2.738   5.305
 8054TIP3    H224040   5.551   2.741   5.168
 8055TIP3   OH224041   5.025   2.700   4.127
 8055TIP3    H124042   4.991   2.634   4.188
 8055TIP3    H224043   5.033   2.653   4.044
 8056TIP3   OH224044   5.012   2.339   4.894
 8056TIP3    H124045   4.923   2.320   4.922
 8056TIP3    H224046   5.045   2.256   4.859
 8057TIP3   OH224047   4.154   2.574   4.706
 8057TIP3    H124048   4.147   2.649   4.648
 8057TIP3    H224049   4.077   2.580   4.764
 8058TIP3   OH224050   3.728   1.870   4.413
 8058TIP3    H124051   3.765   1.954   4.441
 8058TIP3    H224052   3.648   1.861   4.464
 8059TIP3   OH224053   4.238   2.329   4.617
 8059TIP3    H124054   4.217   2.419   4.643
 8059TIP3    H224055   4.215   2.276   4.693
 8060TIP3   OH224056   4.424   2.906   5.150
 8060TIP3    H124057   4.471   2.976   5.105
 8060TIP3    H224058   4.483   2.877   5.219
 8061TIP3   OH224059   4.069   2.797   4.558
 8061TIP3    H124060   3.982   2.800   4.599
 8061TIP3    H224061   4.101   2.887   4.564
 8062TIP3   OH224062   4.787   2.556   5.158
 8062TIP3    H124063   4.784   2.561   5.254
 8062TIP3    H224064   4.855   2.491   5.140
 8063TIP3   OH224065   4.788   2.435   4.005
 8063TIP3    H124066   4.838   2.404   4.080
 8063TIP3    H224067   4.703   2.391   4.012
 8064TIP3   OH224068   5.029   3.074   5.177
 8064TIP3    H124069   4.947   3.026   5.163
 8064TIP3    H224070   5.033   3.136   5.104
 8065TIP3   OH224071   5.096   2.905   3.815
 8065TIP3    H124072   5.108   2.963   3.740
 8065TIP3    H224073   5.028   2.947   3.867
 8066TIP3   OH224074   4.129   1.679   5.682
 8066TIP3    H124075   4.034   1.689   5.688
 8066TIP3    H224076   4.154   1.634   5.762
 8067TIP3   OH224077   4.963   2.339   4.194
 8067TIP3    H124078   4.947   2.292   4.276
 8067TIP3    H224079   5.058   2.351   4.192
 8068TIP3   OH224080   3.871   2.784   5.328
 8068TIP3    H124081   3.927   2.726   5.380
 8068TIP3    H224082   3.884   2.871   5.368
 8069TIP3   OH224083   4.141   2.404   4.028
 8069TIP3    H124084   4.154   2.313   4.002
 8069TIP3    H224085   4.128   2.400   4.123
 8070TIP3   OH224086   4.081   2.421   4.301
 8070TIP3    H124087   4.140   2.399   4.373
 8070TIP3    H224088   4.077   2.517   4.300
 8071TIP3   OH224089   3.816   2.121   4.508
 8071TIP3    H124090   3.750   2.166   4.560
 8071TIP3    H224091   3.832   2.180   4.433
 8072TIP3   OH224092   5.016   1.701   5.358
 8072TIP3    H124093   5.066   1.771   5.401
 8072TIP3    H224094   4.991   1.642   5.429
 8073TIP3   OH224095   4.861   1.480   4.568
 8073TIP3    H124096   4.829   1.502   4.481
 8073TIP3    H224097   4.906   1.559   4.598
 8074TIP3   OH224098   4.347   2.603   4.230
 8074TIP3    H124099   4.263   2.628   4.268
 8074TIP3    H224100   4.372   2.677   4.175
 8075TIP3   OH224101   4.518   1.692   4.674
 8075TIP3    H124102   4.580   1.759   4.646
 8075TIP3    H224103   4.544   1.669   4.763
 8076TIP3   OH224104   4.800   2.013   5.441
 8076TIP3    H124105   4.817   2.074   5.513
 8076TIP3    H224106   4.854   1.936   5.462
 8077TIP3   OH224107   4.679   1.374   4.747
 8077TIP3    H124108   4.656   1.448   4.804
 8077TIP3    H224109   4.751   1.406   4.693
 8078TIP3   OH224110   4.098   2.693   4.307
 8078TIP3    H124111   4.079   2.765   4.246
 8078TIP3    H224112   4.086   2.732   4.393
 8079TIP3   OH224113   4.204   1.471   4.504
 8079TIP3    H124114   4.207   1.376   4.514
 8079TIP3    H224115   4.294   1.500   4.522
 8080TIP3   OH224116   5.429   1.887   5.428
 8080TIP3    H124117   5.333   1.882   5.436
 8080TIP3    H224118   5.446   1.870   5.336
 8081TIP3   OH224119   5.097   2.077   4.811
 8081TIP3    H124120   5.020   2.020   4.818
 8081TIP3    H224121   5.162   2.035   4.868
 8082TIP3   OH224122   3.833   2.293   4.288
 8082TIP3    H124123   3.902   2.359   4.297
 8082TIP3    H224124   3.868   2.229   4.226
 8083TIP3   OH224125   5.072   3.051   4.751
 8083TIP3    H124126   5.033   3.101   4.679
 8083TIP3    H224127   5.166   3.062   4.740
 8084TIP3   OH224128   4.146   1.299   5.287
 8084TIP3    H124129   4.116   1.266   5.203
 8084TIP3    H224130   4.137   1.224   5.347
 8085TIP3   OH224131   3.660   2.553   4.684
 8085TIP3    H124132   3.620   2.593   4.761
 8085TIP3    H224133   3.618   2.596   4.610
 8086TIP3   OH224134   3.865   3.093   5.751
 8086TIP3    H124135   3.944   3.101   5.804
 8086TIP3    H224136   3.854   2.999   5.738
 8087TIP3   OH224137   4.320   3.022   5.792
 8087TIP3    H124138   4.414   3.006   5.796
 8087TIP3    H224139   4.288   2.966   5.721
 8088TIP3   OH224140   4.293   2.604   3.913
 8088TIP3    H124141   4.246   2.534   3.960
 8088TIP3    H224142   4.367   2.560   3.871
 8089TIP3   OH224143   4.734   2.643   3.835
 8089TIP3    H124144   4.769   2.578   3.896
 8089TIP3    H224145   4.793   2.639   3.759
 8090TIP3   OH224146   3.967   2.488   5.943
 8090TIP3    H124147   3.984   2.395   5.954
 8090TIP3    H224148   3.881   2.492   5.902
 8091TIP3   OH224149   3.971   2.104   4.147
 8091TIP3    H124150   4.022   2.078   4.224
 8091TIP3    H224151   4.037   2.116   4.078
 8092TIP3   OH224152   4.536   2.316   3.976
 8092TIP3    H124153   4.512   2.329   4.068
 8092TIP3    H224154   4.518   2.223   3.960
 8093TIP3   OH224155   5.095   2.666   5.471
 8093TIP3    H124156   5.137   2.685   5.387
 8093TIP3    H224157   5.007   2.639   5.448
 8094TIP3   OH224158   4.080   2.230   5.952
 8094TIP3    H124159   4.152   2.223   5.889
 8094TIP3    H224160   4.123   2.254   6.034
 8095TIP3   OH224161   4.135   2.032   4.364
 8095TIP3    H124162   4.102   2.017   4.452
 8095TIP3    H224163   4.189   1.956   4.345
 8096TIP3   OH224164   4.430   2.114   5.572
 8096TIP3    H124165   4.351   2.157   5.604
 8096TIP3    H224166   4.473   2.181   5.519
 8097TIP3   OH224167   5.009   2.512   5.705
 8097TIP3    H124168   4.942   2.494   5.638
 8097TIP3    H224169   4.994   2.444   5.771
 8098TIP3   OH224170   5.069   2.136   3.869
 8098TIP3    H124171   5.053   2.098   3.782
 8098TIP3    H224172   5.045   2.228   3.859
 8099TIP3   OH224173   4.547   1.900   5.704
 8099TIP3    H124174   4.552   1.826   5.644
 8099TIP3    H224175   4.512   1.971   5.651
 8100TIP3   OH224176   4.560   1.688   5.512
 8100TIP3    H124177   4.588   1.730   5.431
 8100TIP3    H224178   4.469   1.663   5.497
 8101TIP3   OH224179   5.169   2.164   5.758
 8101TIP3    H124180   5.219   2.084   5.772
 8101TIP3    H224181   5.231   2.224   5.717
 8102TIP3   OH224182   5.245   2.428   5.475
 8102TIP3    H124183   5.181   2.499   5.474
 8102TIP3    H224184   5.323   2.465   5.433
 8103TIP3   OH224185   4.440   1.971   5.954
 8103TIP3    H124186   4.368   1.910   5.972
 8103TIP3    H224187   4.465   1.952   5.864
 8104TIP3   OH224188   4.678   1.455   5.615
 8104TIP3    H124189   4.640   1.536   5.582
 8104TIP3    H224190   4.611   1.389   5.600
 8105TIP3   OH224191   4.806   1.918   5.813
 8105TIP3    H124192   4.790   1.904   5.907
 8105TIP3    H224193   4.719   1.909   5.773
 8106TIP3   OH224194   5.049   1.865   5.682
 8106TIP3    H124195   4.970   1.871   5.736
 8106TIP3    H224196   5.121   1.855   5.745
 8107TIP3   OH224197   5.289   1.856   5.835
 8107TIP3    H124198   5.302   1.761   5.841
 8107TIP3    H224199   5.283   1.885   5.926
 8108TIP3   OH224200   4.268   1.752   6.017
 8108TIP3    H124201   4.275   1.663   5.983
 8108TIP3    H224202   4.306   1.747   6.105
 8109TIP3   OH224203   4.747   1.431   5.879
 8109TIP3    H124204   4.818   1.367   5.871
 8109TIP3    H224205   4.716   1.444   5.789
 8110TIP3   OH224206   4.842   1.645   6.025
 8110TIP3    H124207   4.811   1.575   5.969
 8110TIP3    H224208   4.771   1.709   6.025
 8111TIP3   OH224209   4.095   2.902   4.125
 8111TIP3    H124210   4.185   2.884   4.097
 8111TIP3    H224211   4.056   2.947   4.050
 8112TIP3   OH224212   3.560   2.281   4.321
 8112TIP3    H124213   3.653   2.300   4.310
 8112TIP3    H224214   3.547   2.199   4.273
 8113TIP3   OH224215   3.467   2.872   4.772
 8113TIP3    H124216   3.405   2.818   4.722
 8113TIP3    H224217   3.511   2.810   4.830
 8114TIP3   OH224218   3.611   2.698   4.935
 8114TIP3    H124219   3.601   2.630   5.001
 8114TIP3    H224220   3.665   2.765   4.977
 8115TIP3   OH224221   5.342   3.106   4.745
 8115TIP3    H124222   5.358   3.126   4.837
 8115TIP3    H224223   5.387   3.175   4.697
 8116TIP3   OH224224   5.360   3.137   5.023
 8116TIP3    H124225   5.312   3.054   5.024
 8116TIP3    H224226   5.430   3.126   5.086
 8117TIP3   OH224227   5.244   2.345   4.204
 8117TIP3    H124228   5.299   2.419   4.179
 8117TIP3    H224229   5.288   2.308   4.282
 8118TIP3   OH224230   5.376   2.207   4.408
 8118TIP3    H124231   5.308   2.172   4.466
 8118TIP3    H224232   5.440   2.246   4.467
 8119TIP3   OH224233   5.412   2.612   4.848
 8119TIP3    H124234   5.464   2.546   4.802
 8119TIP3    H224235   5.413   2.688   4.790
 8120TIP3   OH224236   5.218   2.903   5.034
 8120TIP3    H124237   5.144   2.931   5.088
 8120TIP3    H224238   5.178   2.850   4.965
 8121TIP3   OH224239   5.278   2.122   4.048
 8121TIP3    H124240   5.205   2.120   3.986
 8121TIP3    H224241   5.260   2.199   4.103
 8122TIP3   OH224242   5.136   1.776   3.986
 8122TIP3    H124243   5.085   1.814   3.914
 8122TIP3    H224244   5.123   1.681   3.977
 8123TIP3   OH224245   5.171   2.071   4.544
 8123TIP3    H124246   5.173   1.976   4.532
 8123TIP3    H224247   5.150   2.082   4.637
 8124TIP3   OH224248   3.784   2.126   5.317
 8124TIP3    H124249   3.777   2.098   5.226
 8124TIP3    H224250   3.879   2.126   5.334
 8125TIP3   OH224251   5.486   2.530   5.381
 8125TIP3    H124252   5.544   2.456   5.395
 8125TIP3    H224253   5.501   2.587   5.456
 8126TIP3   OH224254   5.616   2.281   5.410
 8126TIP3    H124255   5.541   2.242   5.456
 8126TIP3    H224256   5.689   2.222   5.428
 8127TIP3   OH224257   5.087   1.506   3.970
 8127TIP3    H124258   5.155   1.478   4.032
 8127TIP3    H224259   5.007   1.466   4.002
 8128TIP3   OH224260   5.158   1.790   4.427
 8128TIP3    H124261   5.206   1.708   4.440
 8128TIP3    H224262   5.200   1.830   4.351
 8129TIP3   OH224263   5.308   1.950   4.954
 8129TIP3    H124264   5.389   1.969   4.907
 8129TIP3    H224265   5.320   1.991   5.040
 8130TIP3   OH224266   5.386   2.096   5.183
 8130TIP3    H124267   5.315   2.126   5.240
 8130TIP3    H224268   5.414   2.175   5.136
 8131TIP3   OH224269   4.004   1.808   5.955
 8131TIP3    H124270   4.097   1.807   5.975
 8131TIP3    H224271   3.970   1.728   5.996
 8132TIP3   OH224272   5.850   1.703   5.721
 8132TIP3    H124273   5.914   1.647   5.676
 8132TIP3    H224274   5.812   1.756   5.650
 8133TIP3   OH224275   5.277   1.541   4.478
 8133TIP3    H124276   5.321   1.527   4.561
 8133TIP3    H224277   5.212   1.471   4.472
 8134TIP3   OH224278   3.980   1.523   5.292
 8134TIP3    H124279   4.035   1.445   5.302
 8134TIP3    H224280   4.041   1.595   5.283
 8135TIP3   OH224281   3.765   1.784   5.365
 8135TIP3    H124282   3.814   1.776   5.283
 8135TIP3    H224283   3.785   1.872   5.396
 8136TIP3   OH224284   5.698   1.831   5.534
 8136TIP3    H124285   5.629   1.871   5.587
 8136TIP3    H224286   5.652   1.771   5.476
 8137TIP3   OH224287   5.319   1.454   4.119
 8137TIP3    H124288   5.365   1.394   4.060
 8137TIP3    H224289   5.373   1.532   4.122
 8138TIP3   OH224290   3.760   1.320   4.864
 8138TIP3    H124291   3.665   1.318   4.880
 8138TIP3    H224292   3.768   1.350   4.773
 8139TIP3   OH224293   4.908   3.014   4.386
 8139TIP3    H124294   4.966   3.006   4.310
 8139TIP3    H224295   4.947   3.084   4.438
 8140TIP3   OH224296   3.969   1.338   5.684
 8140TIP3    H124297   3.925   1.341   5.769
 8140TIP3    H224298   3.917   1.394   5.628
 8141TIP3   OH224299   3.993   2.814   5.767
 8141TIP3    H124300   3.900   2.792   5.760
 8141TIP3    H224301   4.013   2.807   5.860
 8142TIP3   OH224302   4.211   2.857   5.321
 8142TIP3    H124303   4.158   2.930   5.290
 8142TIP3    H224304   4.293   2.864   5.273
 8143TIP3   OH224305   4.622   3.103   5.470
 8143TIP3    H124306   4.672   3.084   5.549
 8143TIP3    H224307   4.683   3.153   5.415
 8144TIP3   OH224308   4.810   3.248   5.325
 8144TIP3    H124309   4.876   3.194   5.281
 8144TIP3    H224310   4.860   3.306   5.382
 8145TIP3   OH224311   5.602   1.587   5.411
 8145TIP3    H124312   5.521   1.593   5.361
 8145TIP3    H224313   5.628   1.495   5.404
 8146TIP3   OH224314   3.869   3.096   5.364
 8146TIP3    H124315   3.778   3.114   5.341
 8146TIP3    H224316   3.891   3.163   5.429
 8147TIP3   OH224317   4.100   3.086   5.214
 8147TIP3    H124318   4.017   3.092   5.262
 8147TIP3    H224319   4.079   3.112   5.125
 8148TIP3   OH224320   4.525   3.114   4.992
 8148TIP3    H124321   4.446   3.124   4.939
 8148TIP3    H224322   4.532   3.196   5.040
 8149TIP3   OH224323   4.786   3.040   5.044
 8149TIP3    H124324   4.693   3.060   5.029
 8149TIP3    H224325   4.833   3.109   4.996
 8150TIP3   OH224326   4.998   3.228   4.950
 8150TIP3    H124327   4.994   3.313   4.905
 8150TIP3    H224328   5.024   3.167   4.881
 8151TIP3   OH224329   3.789   2.873   5.076
 8151TIP3    H124330   3.811   2.849   5.166
 8151TIP3    H224331   3.860   2.837   5.023
 8152TIP3   OH224332   3.987   2.751   4.934
 8152TIP3    H124333   3.998   2.668   4.981
 8152TIP3    H224334   4.073   2.792   4.939
 8153TIP3   OH224335   4.250   2.838   4.951
 8153TIP3    H124336   4.273   2.746   4.941
 8153TIP3    H224337   4.302   2.867   5.026
 8154TIP3   OH224338   4.813   1.486   5.048
 8154TIP3    H124339   4.771   1.415   5.096
 8154TIP3    H224340   4.879   1.443   4.994
 8155TIP3   OH224341   5.317   1.404   4.929
 8155TIP3    H124342   5.359   1.452   4.858
 8155TIP3    H224343   5.234   1.450   4.944
 8156TIP3   OH224344   5.435   1.490   4.700
 8156TIP3    H124345   5.504   1.429   4.672
 8156TIP3    H224346   5.472   1.577   4.686
 8157TIP3   OH224347   4.059   1.190   5.048
 8157TIP3    H124348   3.970   1.158   5.063
 8157TIP3    H224349   4.113   1.111   5.040
 8158TIP3   OH224350   3.892   1.100   4.718
 8158TIP3    H124351   3.865   1.163   4.652
 8158TIP3    H224352   3.876   1.143   4.802
 8159TIP3   OH224353   4.528   1.221   4.933
 8159TIP3    H124354   4.577   1.274   4.870
 8159TIP3    H224355   4.562   1.248   5.019
 8160TIP3   OH224356   5.017   1.364   4.911
 8160TIP3    H124357   5.062   1.334   4.832
 8160TIP3    H224358   5.027   1.292   4.973
 8161TIP3   OH224359   5.085   1.336   4.484
 8161TIP3    H124360   5.006   1.385   4.509
 8161TIP3    H224361   5.073   1.250   4.523
 8162TIP3   OH224362   3.547   2.673   4.463
 8162TIP3    H124363   3.462   2.641   4.433
 8162TIP3    H224364   3.552   2.763   4.431
 8163TIP3   OH224365   4.081   1.247   4.412
 8163TIP3    H124366   4.071   1.168   4.359
 8163TIP3    H224367   4.005   1.247   4.471
 8164TIP3   OH224368   4.479   1.451   4.560
 8164TIP3    H124369   4.538   1.399   4.614
 8164TIP3    H224370   4.490   1.541   4.592
 8165TIP3   OH224371   4.352   2.827   4.058
 8165TIP3    H124372   4.435   2.856   4.019
 8165TIP3    H224373   4.322   2.757   4.000
 8166TIP3   OH224374   5.061   2.969   4.159
 8166TIP3    H124375   5.052   2.874   4.151
 8166TIP3    H224376   5.015   3.003   4.082
 8167TIP3   OH224377   4.281   1.480   5.927
 8167TIP3    H124378   4.246   1.415   5.988
 8167TIP3    H224379   4.374   1.488   5.951
 8168TIP3   OH224380   4.529   1.484   6.052
 8168TIP3    H124381   4.607   1.463   6.001
 8168TIP3    H224382   4.524   1.415   6.118
 8169TIP3   OH224383   3.673   2.681   4.124
 8169TIP3    H124384   3.675   2.689   4.219
 8169TIP3    H224385   3.752   2.632   4.102
 8170TIP3   OH224386   5.354   1.584   5.841
 8170TIP3    H124387   5.371   1.555   5.931
 8170TIP3    H224388   5.439   1.578   5.798
 8171TIP3   OH224389   5.258   3.115   5.337
 8171TIP3    H124390   5.181   3.085   5.287
 8171TIP3    H224391   5.245   3.210   5.346
 8172TIP3   OH224392   6.557   2.495   4.086
 8172TIP3    H124393   6.515   2.580   4.075
 8172TIP3    H224394   6.490   2.432   4.060
 8173TIP3   OH224395   6.550   2.480   4.508
 8173TIP3    H124396   6.600   2.469   4.589
 8173TIP3    H224397   6.506   2.396   4.496
 8174TIP3   OH224398   5.851   2.378   4.861
 8174TIP3    H124399   5.873   2.299   4.910
 8174TIP3    H224400   5.900   2.447   4.905
 8175TIP3   OH224401   6.823   2.789   4.176
 8175TIP3    H124402   6.800   2.732   4.249
 8175TIP3    H224403   6.840   2.874   4.216
 8176TIP3   OH224404   5.843   2.765   4.532
 8176TIP3    H124405   5.818   2.678   4.561
 8176TIP3    H224406   5.938   2.768   4.543
 8177TIP3   OH224407   5.523   1.982   4.324
 8177TIP3    H124408   5.483   2.064   4.352
 8177TIP3    H224409   5.450   1.932   4.286
 8178TIP3   OH224410   5.605   2.294   4.547
 8178TIP3    H124411   5.652   2.217   4.578
 8178TIP3    H224412   5.673   2.362   4.539
 8179TIP3   OH224413   6.462   3.232   4.187
 8179TIP3    H124414   6.492   3.162   4.128
 8179TIP3    H224415   6.458   3.190   4.273
 8180TIP3   OH224416   6.367   2.708   4.521
 8180TIP3    H124417   6.410   2.627   4.494
 8180TIP3    H224418   6.438   2.763   4.555
 8181TIP3   OH224419   7.369   2.047   4.522
 8181TIP3    H124420   7.403   2.114   4.582
 8181TIP3    H224421   7.434   2.044   4.451
 8182TIP3   OH224422   6.789   2.197   4.533
 8182TIP3    H124423   6.810   2.111   4.571
 8182TIP3    H224424   6.733   2.177   4.458
 8183TIP3   OH224425   6.115   1.866   4.501
 8183TIP3    H124426   6.089   1.938   4.444
 8183TIP3    H224427   6.060   1.792   4.474
 8184TIP3   OH224428   6.813   1.962   4.140
 8184TIP3    H124429   6.878   1.951   4.209
 8184TIP3    H224430   6.863   1.992   4.065
 8185TIP3   OH224431   5.739   2.073   4.645
 8185TIP3    H124432   5.822   2.055   4.688
 8185TIP3    H224433   5.740   2.019   4.566
 8186TIP3   OH224434   6.192   2.268   4.434
 8186TIP3    H124435   6.283   2.245   4.451
 8186TIP3    H224436   6.151   2.186   4.406
 8187TIP3   OH224437   7.442   2.243   4.699
 8187TIP3    H124438   7.354   2.280   4.704
 8187TIP3    H224439   7.488   2.280   4.774
 8188TIP3   OH224440   6.095   1.859   4.961
 8188TIP3    H124441   6.046   1.897   4.889
 8188TIP3    H224442   6.040   1.872   5.038
 8189TIP3   OH224443   6.391   2.695   3.985
 8189TIP3    H124444   6.396   2.691   3.890
 8189TIP3    H224445   6.357   2.782   4.004
 8190TIP3   OH224446   6.192   2.636   4.726
 8190TIP3    H124447   6.136   2.705   4.761
 8190TIP3    H224448   6.243   2.679   4.657
 8191TIP3   OH224449   6.977   1.975   4.359
 8191TIP3    H124450   6.927   1.944   4.434
 8191TIP3    H224451   7.029   2.048   4.394
 8192TIP3   OH224452   5.989   1.969   4.730
 8192TIP3    H124453   6.042   2.045   4.756
 8192TIP3    H224454   6.038   1.931   4.657
 8193TIP3   OH224455   6.029   2.835   4.829
 8193TIP3    H124456   6.016   2.926   4.802
 8193TIP3    H224457   5.953   2.815   4.884
 8194TIP3   OH224458   5.408   2.545   4.087
 8194TIP3    H124459   5.357   2.560   4.007
 8194TIP3    H224460   5.418   2.631   4.126
 8195TIP3   OH224461   6.852   3.036   4.313
 8195TIP3    H124462   6.768   3.028   4.358
 8195TIP3    H224463   6.849   3.121   4.270
 8196TIP3   OH224464   7.176   1.921   4.698
 8196TIP3    H124465   7.089   1.938   4.661
 8196TIP3    H224466   7.237   1.949   4.629
 8197TIP3   OH224467   6.438   1.551   4.693
 8197TIP3    H124468   6.431   1.459   4.718
 8197TIP3    H224469   6.362   1.593   4.732
 8198TIP3   OH224470   6.555   3.062   3.990
 8198TIP3    H124471   6.603   2.980   3.974
 8198TIP3    H224472   6.614   3.130   3.958
 8199TIP3   OH224473   6.700   2.841   3.932
 8199TIP3    H124474   6.725   2.776   3.866
 8199TIP3    H224475   6.748   2.814   4.011
 8200TIP3   OH224476   7.083   2.934   4.665
 8200TIP3    H124477   7.069   2.859   4.606
 8200TIP3    H224478   7.067   3.011   4.610
 8201TIP3   OH224479   6.389   2.327   3.939
 8201TIP3    H124480   6.310   2.377   3.921
 8201TIP3    H224481   6.436   2.325   3.856
 8202TIP3   OH224482   6.348   2.143   3.627
 8202TIP3    H124483   6.416   2.190   3.675
 8202TIP3    H224484   6.396   2.075   3.579
 8203TIP3   OH224485   7.251   2.571   4.512
 8203TIP3    H124486   7.174   2.628   4.515
 8203TIP3    H224487   7.301   2.604   4.437
 8204TIP3   OH224488   6.741   2.439   3.894
 8204TIP3    H124489   6.681   2.460   3.965
 8204TIP3    H224490   6.828   2.459   3.928
 8205TIP3   OH224491   6.964   2.452   4.846
 8205TIP3    H124492   6.964   2.537   4.891
 8205TIP3    H224493   6.882   2.451   4.797
 8206TIP3   OH224494   5.980   2.406   4.338
 8206TIP3    H124495   5.928   2.326   4.326
 8206TIP3    H224496   6.064   2.375   4.370
 8207TIP3   OH224497   6.118   2.824   4.442
 8207TIP3    H124498   6.104   2.804   4.349
 8207TIP3    H224499   6.205   2.790   4.461
 8208TIP3   OH224500   6.092   2.388   4.664
 8208TIP3    H124501   6.138   2.361   4.584
 8208TIP3    H224502   6.128   2.475   4.684
 8209TIP3   OH224503   6.625   3.026   4.461
 8209TIP3    H124504   6.604   3.110   4.501
 8209TIP3    H224505   6.604   2.961   4.528
 8210TIP3   OH224506   6.231   2.929   4.998
 8210TIP3    H124507   6.172   2.988   5.045
 8210TIP3    H224508   6.174   2.879   4.940
 8211TIP3   OH224509   6.573   2.284   3.732
 8211TIP3    H124510   6.635   2.342   3.777
 8211TIP3    H224511   6.598   2.290   3.640
 8212TIP3   OH224512   5.987   2.503   5.082
 8212TIP3    H124513   5.998   2.589   5.123
 8212TIP3    H224514   5.903   2.472   5.113
 8213TIP3   OH224515   6.301   2.958   3.987
 8213TIP3    H124516   6.388   2.997   3.995
 8213TIP3    H224517   6.248   3.024   3.943
 8214TIP3   OH224518   6.027   3.093   5.082
 8214TIP3    H124519   6.001   3.106   4.991
 8214TIP3    H224520   5.945   3.076   5.128
 8215TIP3   OH224521   7.073   1.515   3.788
 8215TIP3    H124522   6.997   1.538   3.841
 8215TIP3    H224523   7.085   1.589   3.729
 8216TIP3   OH224524   5.842   2.290   4.060
 8216TIP3    H124525   5.760   2.248   4.083
 8216TIP3    H224526   5.907   2.219   4.060
 8217TIP3   OH224527   6.901   2.886   3.339
 8217TIP3    H124528   6.896   2.979   3.316
 8217TIP3    H224529   6.991   2.861   3.318
 8218TIP3   OH224530   5.621   2.632   5.040
 8218TIP3    H124531   5.546   2.616   4.983
 8218TIP3    H224532   5.643   2.545   5.075
 8219TIP3   OH224533   5.456   2.853   4.697
 8219TIP3    H124534   5.542   2.883   4.726
 8219TIP3    H224535   5.397   2.926   4.717
 8220TIP3   OH224536   7.315   3.291   4.737
 8220TIP3    H124537   7.319   3.197   4.753
 8220TIP3    H224538   7.236   3.320   4.782
 8221TIP3   OH224539   6.420   3.078   4.863
 8221TIP3    H124540   6.412   3.169   4.893
 8221TIP3    H224541   6.352   3.031   4.911
 8222TIP3   OH224542   6.205   3.174   3.820
 8222TIP3    H124543   6.162   3.155   3.736
 8222TIP3    H224544   6.168   3.257   3.848
 8223TIP3   OH224545   5.634   3.031   4.189
 8223TIP3    H124546   5.680   3.024   4.272
 8223TIP3    H224547   5.583   2.951   4.182
 8224TIP3   OH224548   6.397   3.110   3.442
 8224TIP3    H124549   6.449   3.038   3.407
 8224TIP3    H224550   6.434   3.126   3.529
 8225TIP3   OH224551   6.459   3.156   3.710
 8225TIP3    H124552   6.376   3.156   3.758
 8225TIP3    H224553   6.525   3.137   3.777
 8226TIP3   OH224554   7.208   2.398   5.006
 8226TIP3    H124555   7.122   2.410   4.965
 8226TIP3    H224556   7.223   2.304   5.003
 8227TIP3   OH224557   5.813   2.827   5.000
 8227TIP3    H124558   5.853   2.831   5.087
 8227TIP3    H224559   5.743   2.762   5.009
 8228TIP3   OH224560   6.203   1.645   4.817
 8228TIP3    H124561   6.119   1.610   4.786
 8228TIP3    H224562   6.179   1.725   4.864
 8229TIP3   OH224563   6.743   1.764   5.020
 8229TIP3    H124564   6.813   1.740   5.081
 8229TIP3    H224565   6.663   1.749   5.069
 8230TIP3   OH224566   6.958   2.187   4.933
 8230TIP3    H124567   6.918   2.181   5.019
 8230TIP3    H224568   6.944   2.278   4.907
 8231TIP3   OH224569   6.642   2.281   3.470
 8231TIP3    H124570   6.597   2.277   3.386
 8231TIP3    H224571   6.728   2.319   3.449
 8232TIP3   OH224572   6.351   1.683   3.788
 8232TIP3    H124573   6.312   1.690   3.875
 8232TIP3    H224574   6.316   1.602   3.752
 8233TIP3   OH224575   6.136   2.179   4.833
 8233TIP3    H124576   6.085   2.190   4.913
 8233TIP3    H224577   6.116   2.257   4.781
 8234TIP3   OH224578   6.011   2.067   4.339
 8234TIP3    H124579   5.925   2.036   4.370
 8234TIP3    H224580   6.021   2.027   4.253
 8235TIP3   OH224581   6.501   2.117   4.071
 8235TIP3    H124582   6.457   2.192   4.031
 8235TIP3    H224583   6.561   2.086   4.003
 8236TIP3   OH224584   6.684   2.397   5.149
 8236TIP3    H124585   6.657   2.330   5.211
 8236TIP3    H224586   6.775   2.415   5.170
 8237TIP3   OH224587   6.658   2.134   4.298
 8237TIP3    H124588   6.586   2.149   4.236
 8237TIP3    H224589   6.710   2.065   4.257
 8238TIP3   OH224590   5.955   2.185   5.043
 8238TIP3    H124591   5.933   2.247   5.112
 8238TIP3    H224592   5.946   2.099   5.085
 8239TIP3   OH224593   6.019   1.666   3.762
 8239TIP3    H124594   6.008   1.669   3.857
 8239TIP3    H224595   5.941   1.710   3.727
 8240TIP3   OH224596   5.566   1.711   4.621
 8240TIP3    H124597   5.639   1.746   4.672
 8240TIP3    H224598   5.604   1.689   4.536
 8241TIP3   OH224599   5.471   1.687   4.130
 8241TIP3    H124600   5.516   1.723   4.053
 8241TIP3    H224601   5.408   1.754   4.155
 8242TIP3   OH224602   6.719   2.391   4.718
 8242TIP3    H124603   6.746   2.322   4.656
 8242TIP3    H224604   6.674   2.343   4.788
 8243TIP3   OH224605   6.385   1.849   4.398
 8243TIP3    H124606   6.307   1.848   4.453
 8243TIP3    H224607   6.457   1.833   4.459
 8244TIP3   OH224608   5.781   1.933   4.410
 8244TIP3    H124609   5.693   1.938   4.373
 8244TIP3    H224610   5.808   1.842   4.396
 8245TIP3   OH224611   6.031   1.944   4.096
 8245TIP3    H124612   6.126   1.944   4.086
 8245TIP3    H224613   5.998   1.955   4.007
 8246TIP3   OH224614   6.831   1.928   4.590
 8246TIP3    H124615   6.820   1.940   4.684
 8246TIP3    H224616   6.762   1.867   4.565
 8247TIP3   OH224617   5.920   1.971   3.848
 8247TIP3    H124618   5.864   1.916   3.793
 8247TIP3    H224619   5.972   2.023   3.787
 8248TIP3   OH224620   7.031   3.639   4.825
 8248TIP3    H124621   7.026   3.659   4.732
 8248TIP3    H224622   7.109   3.684   4.856
 8249TIP3   OH224623   5.971   2.729   5.245
 8249TIP3    H124624   6.047   2.758   5.295
 8249TIP3    H224625   5.909   2.697   5.311
 8250TIP3   OH224626   6.449   2.207   4.511
 8250TIP3    H124627   6.509   2.147   4.467
 8250TIP3    H224628   6.440   2.172   4.599
 8251TIP3   OH224629   5.925   1.684   4.394
 8251TIP3    H124630   5.896   1.610   4.447
 8251TIP3    H224631   5.947   1.645   4.309
 8252TIP3   OH224632   6.405   2.128   4.776
 8252TIP3    H124633   6.317   2.159   4.799
 8252TIP3    H224634   6.464   2.182   4.829
 8253TIP3   OH224635   6.158   2.469   3.886
 8253TIP3    H124636   6.085   2.428   3.841
 8253TIP3    H224637   6.120   2.510   3.963
 8254TIP3   OH224638   7.029   2.732   4.483
 8254TIP3    H124639   7.065   2.783   4.411
 8254TIP3    H224640   6.945   2.700   4.450
 8255TIP3   OH224641   6.605   1.783   3.795
 8255TIP3    H124642   6.512   1.762   3.787
 8255TIP3    H224643   6.607   1.879   3.799
 8256TIP3   OH224644   6.542   2.805   4.914
 8256TIP3    H124645   6.591   2.797   4.995
 8256TIP3    H224646   6.501   2.892   4.919
 8257TIP3   OH224647   6.667   2.052   3.854
 8257TIP3    H124648   6.763   2.055   3.856
 8257TIP3    H224649   6.641   2.127   3.801
 8258TIP3   OH224650   5.824   2.468   4.570
 8258TIP3    H124651   5.888   2.462   4.499
 8258TIP3    H224652   5.872   2.439   4.647
 8259TIP3   OH224653   6.301   2.633   3.717
 8259TIP3    H124654   6.246   2.712   3.718
 8259TIP3    H224655   6.260   2.575   3.780
 8260TIP3   OH224656   5.753   2.407   5.190
 8260TIP3    H124657   5.793   2.427   5.274
 8260TIP3    H224658   5.671   2.362   5.212
 8261TIP3   OH224659   6.449   2.552   5.189
 8261TIP3    H124660   6.379   2.494   5.160
 8261TIP3    H224661   6.530   2.509   5.160
 8262TIP3   OH224662   6.691   3.092   4.790
 8262TIP3    H124663   6.596   3.082   4.796
 8262TIP3    H224664   6.716   3.133   4.873
 8263TIP3   OH224665   7.060   2.141   3.675
 8263TIP3    H124666   7.004   2.103   3.608
 8263TIP3    H224667   7.081   2.229   3.643
 8264TIP3   OH224668   7.328   3.007   4.762
 8264TIP3    H124669   7.234   2.995   4.753
 8264TIP3    H224670   7.364   2.982   4.676
 8265TIP3   OH224671   6.820   2.956   3.598
 8265TIP3    H124672   6.784   2.881   3.646
 8265TIP3    H224673   6.843   2.920   3.512
 8266TIP3   OH224674   6.791   2.604   4.388
 8266TIP3    H124675   6.703   2.588   4.423
 8266TIP3    H224676   6.816   2.522   4.346
 8267TIP3   OH224677   5.940   2.817   4.188
 8267TIP3    H124678   5.934   2.891   4.128
 8267TIP3    H224679   5.881   2.839   4.260
 8268TIP3   OH224680   5.513   2.122   3.907
 8268TIP3    H124681   5.523   2.217   3.899
 8268TIP3    H224682   5.435   2.112   3.961
 8269TIP3   OH224683   5.985   2.558   4.110
 8269TIP3    H124684   5.984   2.652   4.129
 8269TIP3    H224685   6.000   2.517   4.194
 8270TIP3   OH224686   6.239   3.153   4.655
 8270TIP3    H124687   6.273   3.228   4.605
 8270TIP3    H224688   6.313   3.124   4.707
 8271TIP3   OH224689   5.865   3.043   4.037
 8271TIP3    H124690   5.780   3.055   4.079
 8271TIP3    H224691   5.908   3.129   4.045
 8272TIP3   OH224692   6.597   2.810   4.643
 8272TIP3    H124693   6.572   2.806   4.736
 8272TIP3    H224694   6.690   2.790   4.642
 8273TIP3   OH224695   6.587   2.700   3.501
 8273TIP3    H124696   6.627   2.685   3.586
 8273TIP3    H224697   6.503   2.654   3.506
 8274TIP3   OH224698   6.841   3.310   4.667
 8274TIP3    H124699   6.769   3.249   4.682
 8274TIP3    H224700   6.811   3.365   4.595
 8275TIP3   OH224701   6.894   3.158   3.299
 8275TIP3    H124702   6.906   3.216   3.224
 8275TIP3    H224703   6.826   3.201   3.351
 8276TIP3   OH224704   5.921   1.931   5.167
 8276TIP3    H124705   5.826   1.941   5.176
 8276TIP3    H224706   5.949   1.888   5.248
 8277TIP3   OH224707   6.757   2.656   3.721
 8277TIP3    H124708   6.737   2.577   3.771
 8277TIP3    H224709   6.850   2.648   3.701
 8278TIP3   OH224710   5.663   3.036   4.810
 8278TIP3    H124711   5.713   2.979   4.868
 8278TIP3    H224712   5.672   3.123   4.849
 8279TIP3   OH224713   5.964   2.640   3.524
 8279TIP3    H124714   5.964   2.551   3.488
 8279TIP3    H224715   5.929   2.630   3.612
 8280TIP3   OH224716   5.914   2.637   3.829
 8280TIP3    H124717   6.004   2.667   3.816
 8280TIP3    H224718   5.861   2.717   3.822
 8281TIP3   OH224719   5.654   2.504   3.975
 8281TIP3    H124720   5.574   2.511   4.027
 8281TIP3    H224721   5.630   2.537   3.888
 8282TIP3   OH224722   6.795   1.976   4.852
 8282TIP3    H124723   6.858   2.035   4.895
 8282TIP3    H224724   6.778   1.908   4.917
 8283TIP3   OH224725   6.663   1.739   4.061
 8283TIP3    H124726   6.642   1.754   3.969
 8283TIP3    H224727   6.707   1.820   4.089
 8284TIP3   OH224728   6.121   2.839   3.730
 8284TIP3    H124729   6.036   2.871   3.758
 8284TIP3    H224730   6.160   2.914   3.684
 8285TIP3   OH224731   6.310   1.936   4.146
 8285TIP3    H124732   6.374   2.001   4.118
 8285TIP3    H224733   6.334   1.917   4.237
 8286TIP3   OH224734   6.618   2.239   4.925
 8286TIP3    H124735   6.633   2.294   5.002
 8286TIP3    H224736   6.661   2.156   4.947
 8287TIP3   OH224737   6.475   1.635   4.235
 8287TIP3    H124738   6.453   1.713   4.285
 8287TIP3    H224739   6.545   1.664   4.176
 8288TIP3   OH224740   5.866   2.917   3.793
 8288TIP3    H124741   5.850   2.984   3.727
 8288TIP3    H224742   5.861   2.963   3.877
 8289TIP3   OH224743   5.985   1.663   4.040
 8289TIP3    H124744   5.972   1.753   4.069
 8289TIP3    H224745   6.080   1.649   4.047
 8290TIP3   OH224746   7.219   2.120   4.903
 8290TIP3    H124747   7.126   2.137   4.917
 8290TIP3    H224748   7.221   2.050   4.838
 8291TIP3   OH224749   6.870   2.334   4.305
 8291TIP3    H124750   6.785   2.301   4.274
 8291TIP3    H224751   6.872   2.310   4.397
 8292TIP3   OH224752   5.601   2.574   3.717
 8292TIP3    H124753   5.624   2.653   3.667
 8292TIP3    H224754   5.648   2.504   3.673
 8293TIP3   OH224755   5.535   1.839   3.910
 8293TIP3    H124756   5.550   1.934   3.917
 8293TIP3    H224757   5.468   1.831   3.843
 8294TIP3   OH224758   6.869   3.303   4.234
 8294TIP3    H124759   6.826   3.353   4.165
 8294TIP3    H224760   6.962   3.320   4.222
 8295TIP3   OH224761   5.944   1.556   4.774
 8295TIP3    H124762   5.913   1.523   4.689
 8295TIP3    H224763   5.934   1.481   4.833
 8296TIP3   OH224764   5.454   2.807   4.173
 8296TIP3    H124765   5.419   2.847   4.253
 8296TIP3    H224766   5.409   2.853   4.102
 8297TIP3   OH224767   5.651   3.342   5.234
 8297TIP3    H124768   5.735   3.340   5.281
 8297TIP3    H224769   5.620   3.252   5.236
 8298TIP3   OH224770   6.128   3.258   5.278
 8298TIP3    H124771   6.220   3.233   5.289
 8298TIP3    H224772   6.097   3.204   5.206
 8299TIP3   OH224773   6.089   2.854   3.405
 8299TIP3    H124774   6.050   2.780   3.451
 8299TIP3    H224775   6.164   2.816   3.358
 8300TIP3   OH224776   6.751   3.198   5.036
 8300TIP3    H124777   6.765   3.129   5.101
 8300TIP3    H224778   6.824   3.259   5.049
 8301TIP3   OH224779   6.530   2.902   3.323
 8301TIP3    H124780   6.567   2.839   3.384
 8301TIP3    H224781   6.587   2.897   3.246
 8302TIP3   OH224782   5.740   2.359   3.612
 8302TIP3    H124783   5.766   2.279   3.657
 8302TIP3    H224784   5.809   2.374   3.547
 8303TIP3   OH224785   6.385   2.828   5.204
 8303TIP3    H124786   6.338   2.849   5.123
 8303TIP3    H224787   6.417   2.739   5.192
 8304TIP3   OH224788   6.336   2.573   3.452
 8304TIP3    H124789   6.311   2.585   3.544
 8304TIP3    H224790   6.317   2.481   3.434
 8305TIP3   OH224791   6.855   2.864   4.803
 8305TIP3    H124792   6.934   2.897   4.761
 8305TIP3    H224793   6.794   2.939   4.801
 8306TIP3   OH224794   5.916   2.459   5.412
 8306TIP3    H124795   6.007   2.430   5.410
 8306TIP3    H224796   5.907   2.503   5.497
 8307TIP3   OH224797   6.244   2.381   5.082
 8307TIP3    H124798   6.157   2.420   5.082
 8307TIP3    H224799   6.282   2.407   4.997
 8308TIP3   OH224800   6.071   2.126   3.679
 8308TIP3    H124801   6.044   2.124   3.587
 8308TIP3    H224802   6.167   2.129   3.675
 8309TIP3   OH224803   6.736   2.751   5.172
 8309TIP3    H124804   6.808   2.714   5.121
 8309TIP3    H224805   6.732   2.697   5.252
 8310TIP3   OH224806   6.870   2.397   3.362
 8310TIP3    H124807   6.858   2.355   3.277
 8310TIP3    H224808   6.845   2.489   3.346
 8311TIP3   OH224809   6.344   2.151   5.197
 8311TIP3    H124810   6.345   2.080   5.134
 8311TIP3    H224811   6.308   2.226   5.149
 8312TIP3   OH224812   6.354   1.947   4.997
 8312TIP3    H124813   6.379   1.988   4.914
 8312TIP3    H224814   6.263   1.920   4.984
 8313TIP3   OH224815   6.372   2.477   4.861
 8313TIP3    H124816   6.452   2.530   4.863
 8313TIP3    H224817   6.309   2.532   4.814
 8314TIP3   OH224818   6.952   2.436   5.248
 8314TIP3    H124819   7.004   2.357   5.260
 8314TIP3    H224820   7.016   2.507   5.244
 8315TIP3   OH224821   6.988   2.700   4.978
 8315TIP3    H124822   6.932   2.758   4.926
 8315TIP3    H224823   7.077   2.718   4.947
 8316TIP3   OH224824   6.227   2.230   5.442
 8316TIP3    H124825   6.158   2.167   5.462
 8316TIP3    H224826   6.255   2.206   5.353
 8317TIP3   OH224827   6.476   1.714   5.098
 8317TIP3    H124828   6.436   1.795   5.066
 8317TIP3    H224829   6.409   1.647   5.086
 8318TIP3   OH224830   6.600   2.185   5.301
 8318TIP3    H124831   6.591   2.172   5.396
 8318TIP3    H224832   6.513   2.167   5.266
 8319TIP3   OH224833   6.842   2.133   5.169
 8319TIP3    H124834   6.765   2.137   5.225
 8319TIP3    H224835   6.915   2.115   5.229
 8320TIP3   OH224836   7.084   2.108   5.317
 8320TIP3    H124837   7.098   2.013   5.325
 8320TIP3    H224838   7.078   2.139   5.407
 8321TIP3   OH224839   6.061   2.008   5.505
 8321TIP3    H124840   6.067   1.919   5.470
 8321TIP3    H224841   6.100   2.002   5.592
 8322TIP3   OH224842   6.544   1.691   5.364
 8322TIP3    H124843   6.614   1.626   5.358
 8322TIP3    H224844   6.513   1.702   5.274
 8323TIP3   OH224845   6.638   1.907   5.508
 8323TIP3    H124846   6.607   1.834   5.454
 8323TIP3    H224847   6.565   1.968   5.509
 8324TIP3   OH224848   5.869   3.106   3.590
 8324TIP3    H124849   5.964   3.110   3.577
 8324TIP3    H224850   5.835   3.174   3.532
 8325TIP3   OH224851   5.344   2.533   3.799
 8325TIP3    H124852   5.434   2.555   3.775
 8325TIP3    H224853   5.328   2.447   3.758
 8326TIP3   OH224854   5.268   3.119   4.255
 8326TIP3    H124855   5.202   3.067   4.209
 8326TIP3    H224856   5.311   3.058   4.314
 8327TIP3   OH224857   5.413   2.947   4.420
 8327TIP3    H124858   5.404   2.883   4.491
 8327TIP3    H224859   5.464   3.018   4.459
 8328TIP3   OH224860   7.139   3.361   4.232
 8328TIP3    H124861   7.155   3.388   4.323
 8328TIP3    H224862   7.186   3.425   4.180
 8329TIP3   OH224863   7.153   3.394   4.512
 8329TIP3    H124864   7.107   3.310   4.509
 8329TIP3    H224865   7.224   3.380   4.575
 8330TIP3   OH224866   7.217   3.088   5.081
 8330TIP3    H124867   7.144   3.098   5.142
 8330TIP3    H224868   7.264   3.172   5.086
 8331TIP3   OH224869   7.030   2.611   3.699
 8331TIP3    H124870   7.089   2.678   3.665
 8331TIP3    H224871   7.072   2.581   3.779
 8332TIP3   OH224872   7.146   2.494   3.924
 8332TIP3    H124873   7.137   2.408   3.966
 8332TIP3    H224874   7.233   2.525   3.949
 8333TIP3   OH224875   7.216   2.866   4.325
 8333TIP3    H124876   7.268   2.802   4.277
 8333TIP3    H224877   7.217   2.944   4.270
 8334TIP3   OH224878   7.013   3.152   4.514
 8334TIP3    H124879   6.946   3.196   4.565
 8334TIP3    H224880   6.966   3.113   4.440
 8335TIP3   OH224881   7.076   2.385   3.543
 8335TIP3    H124882   7.006   2.382   3.478
 8335TIP3    H224883   7.057   2.464   3.595
 8336TIP3   OH224884   6.903   2.041   3.476
 8336TIP3    H124885   6.866   2.068   3.392
 8336TIP3    H224886   6.902   1.945   3.474
 8337TIP3   OH224887   7.051   2.252   4.110
 8337TIP3    H124888   7.033   2.188   4.041
 8337TIP3    H224889   6.965   2.284   4.136
 8338TIP3   OH224890   5.582   2.393   4.804
 8338TIP3    H124891   5.574   2.361   4.714
 8338TIP3    H224892   5.676   2.397   4.819
 8339TIP3   OH224893   7.250   2.744   4.890
 8339TIP3    H124894   7.310   2.673   4.869
 8339TIP3    H224895   7.275   2.816   4.832
 8340TIP3   OH224896   7.409   2.518   4.867
 8340TIP3    H124897   7.339   2.479   4.920
 8340TIP3    H224898   7.487   2.468   4.891
 8341TIP3   OH224899   6.884   1.770   3.460
 8341TIP3    H124900   6.955   1.738   3.515
 8341TIP3    H224901   6.807   1.720   3.487
 8342TIP3   OH224902   6.972   2.055   3.923
 8342TIP3    H124903   7.011   1.968   3.931
 8342TIP3    H224904   7.002   2.087   3.838
 8343TIP3   OH224905   7.147   2.188   4.441
 8343TIP3    H124906   7.221   2.132   4.462
 8343TIP3    H224907   7.135   2.242   4.519
 8344TIP3   OH224908   7.167   2.355   4.657
 8344TIP3    H124909   7.104   2.386   4.722
 8344TIP3    H224910   7.202   2.435   4.617
 8345TIP3   OH224911   5.797   2.072   5.442
 8345TIP3    H124912   5.891   2.070   5.461
 8345TIP3    H224913   5.763   1.992   5.483
 8346TIP3   OH224914   7.645   1.963   5.205
 8346TIP3    H124915   7.710   1.905   5.165
 8346TIP3    H224916   7.608   2.011   5.131
 8347TIP3   OH224917   7.070   1.804   3.981
 8347TIP3    H124918   7.123   1.787   4.059
 8347TIP3    H224919   7.011   1.729   3.975
 8348TIP3   OH224920   5.783   1.781   4.778
 8348TIP3    H124921   5.836   1.702   4.789
 8348TIP3    H224922   5.846   1.852   4.767
 8349TIP3   OH224923   5.554   2.039   4.863
 8349TIP3    H124924   5.610   2.041   4.785
 8349TIP3    H224925   5.561   2.127   4.900
 8350TIP3   OH224926   7.491   2.084   5.015
 8350TIP3    H124927   7.422   2.123   5.069
 8350TIP3    H224928   7.445   2.023   4.957
 8351TIP3   OH224929   7.117   1.716   3.606
 8351TIP3    H124930   7.162   1.655   3.548
 8351TIP3    H224931   7.176   1.792   3.610
 8352TIP3   OH224932   5.546   1.555   4.357
 8352TIP3    H124933   5.460   1.543   4.398
 8352TIP3    H224934   5.527   1.609   4.280
 8353TIP3   OH224935   6.699   3.256   3.872
 8353TIP3    H124936   6.759   3.253   3.798
 8353TIP3    H224937   6.730   3.329   3.925
 8354TIP3   OH224938   5.766   1.600   5.175
 8354TIP3    H124939   5.722   1.606   5.260
 8354TIP3    H224940   5.712   1.655   5.117
 8355TIP3   OH224941   5.804   3.050   5.239
 8355TIP3    H124942   5.708   3.046   5.239
 8355TIP3    H224943   5.829   3.038   5.331
 8356TIP3   OH224944   6.009   3.111   4.800
 8356TIP3    H124945   5.957   3.185   4.770
 8356TIP3    H224946   6.094   3.123   4.758
 8357TIP3   OH224947   6.408   3.345   4.939
 8357TIP3    H124948   6.444   3.339   5.028
 8357TIP3    H224949   6.470   3.400   4.892
 8358TIP3   OH224950   6.601   3.501   4.817
 8358TIP3    H124951   6.667   3.452   4.769
 8358TIP3    H224952   6.652   3.562   4.872
 8359TIP3   OH224953   7.401   1.824   4.905
 8359TIP3    H124954   7.312   1.804   4.878
 8359TIP3    H224955   7.448   1.741   4.899
 8360TIP3   OH224956   5.667   3.346   4.850
 8360TIP3    H124957   5.576   3.363   4.825
 8360TIP3    H224958   5.687   3.412   4.916
 8361TIP3   OH224959   5.899   3.343   4.699
 8361TIP3    H124960   5.816   3.347   4.747
 8361TIP3    H224961   5.876   3.370   4.610
 8362TIP3   OH224962   6.315   3.363   4.490
 8362TIP3    H124963   6.241   3.376   4.430
 8362TIP3    H224964   6.327   3.449   4.532
 8363TIP3   OH224965   6.576   3.288   4.534
 8363TIP3    H124966   6.485   3.314   4.518
 8363TIP3    H224967   6.628   3.357   4.492
 8364TIP3   OH224968   6.776   3.461   4.441
 8364TIP3    H124969   6.779   3.550   4.406
 8364TIP3    H224970   6.806   3.406   4.369
 8365TIP3   OH224971   5.586   3.129   4.554
 8365TIP3    H124972   5.604   3.104   4.644
 8365TIP3    H224973   5.660   3.094   4.504
 8366TIP3   OH224974   5.790   3.006   4.416
 8366TIP3    H124975   5.799   2.924   4.464
 8366TIP3    H224976   5.874   3.050   4.428
 8367TIP3   OH224977   6.052   3.097   4.455
 8367TIP3    H124978   6.077   3.006   4.442
 8367TIP3    H224979   6.105   3.127   4.529
 8368TIP3   OH224980   6.615   1.747   4.528
 8368TIP3    H124981   6.579   1.677   4.582
 8368TIP3    H224982   6.683   1.705   4.476
 8369TIP3   OH224983   7.127   1.673   4.412
 8369TIP3    H124984   7.164   1.725   4.341
 8369TIP3    H224985   7.033   1.692   4.409
 8370TIP3   OH224986   7.256   1.769   4.184
 8370TIP3    H124987   7.309   1.694   4.156
 8370TIP3    H224988   7.317   1.844   4.179
 8371TIP3   OH224989   5.850   1.456   4.534
 8371TIP3    H124990   5.761   1.422   4.543
 8371TIP3    H224991   5.904   1.377   4.526
 8372TIP3   OH224992   5.676   1.362   4.191
 8372TIP3    H124993   5.699   1.411   4.112
 8372TIP3    H224994   5.638   1.428   4.249
 8373TIP3   OH224995   6.330   1.497   4.433
 8373TIP3    H124996   6.380   1.542   4.365
 8373TIP3    H224997   6.372   1.523   4.515
 8374TIP3   OH224998   6.838   1.639   4.397
 8374TIP3    H124999   6.850   1.599   4.311
 8374TIP3    H225000   6.841   1.566   4.458
 8375TIP3   OH225001   6.888   1.592   3.981
 8375TIP3    H125002   6.806   1.635   4.002
 8375TIP3    H225003   6.878   1.503   4.015
 8376TIP3   OH225004   5.340   2.928   3.955
 8376TIP3    H125005   5.254   2.903   3.921
 8376TIP3    H225006   5.354   3.016   3.921
 8377TIP3   OH225007   5.779   1.489   3.950
 8377TIP3    H125008   5.825   1.427   3.894
 8377TIP3    H225009   5.848   1.546   3.985
 8378TIP3   OH225010   6.260   1.685   4.050
 8378TIP3    H125011   6.318   1.630   4.102
 8378TIP3    H225012   6.279   1.775   4.080
 8379TIP3   OH225013   6.146   3.073   3.558
 8379TIP3    H125014   6.227   3.107   3.518
 8379TIP3    H225015   6.118   3.003   3.499
 8380TIP3   OH225016   6.855   3.224   3.644
 8380TIP3    H125017   6.848   3.130   3.634
 8380TIP3    H225018   6.812   3.260   3.567
 8381TIP3   OH225019   6.077   1.737   5.415
 8381TIP3    H125020   6.042   1.671   5.475
 8381TIP3    H225021   6.170   1.745   5.440
 8382TIP3   OH225022   6.325   1.741   5.539
 8382TIP3    H125023   6.404   1.719   5.488
 8382TIP3    H225024   6.319   1.672   5.605
 8383TIP3   OH225025   5.445   2.935   3.596
 8383TIP3    H125026   5.436   2.975   3.683
 8383TIP3    H225027   5.524   2.881   3.602
 8384TIP3   OH225028   7.150   1.837   5.327
 8384TIP3    H125029   7.165   1.809   5.417
 8384TIP3    H225030   7.236   1.831   5.285
 8385TIP3   OH225031   7.065   3.364   4.829
 8385TIP3    H125032   6.989   3.335   4.779
 8385TIP3    H225033   7.053   3.459   4.837
 8386TIP3   OH225034   8.337   2.750   3.578
 8386TIP3    H125035   8.302   2.836   3.557
 8386TIP3    H225036   8.268   2.689   3.550
 8387TIP3   OH225037   8.332   2.743   3.995
 8387TIP3    H125038   8.386   2.724   4.072
 8387TIP3    H225039   8.290   2.659   3.975
 8388TIP3   OH225040   7.639   2.600   4.343
 8388TIP3    H125041   7.676   2.548   4.415
 8388TIP3    H225042   7.715   2.628   4.293
 8389TIP3   OH225043   8.618   3.045   3.665
 8389TIP3    H125044   8.594   2.982   3.733
 8389TIP3    H225045   8.630   3.128   3.711
 8390TIP3   OH225046   7.635   3.025   4.021
 8390TIP3    H125047   7.618   2.931   4.030
 8390TIP3    H225048   7.730   3.030   4.012
 8391TIP3   OH225049   7.407   2.548   4.017
 8391TIP3    H125050   7.460   2.469   4.029
 8391TIP3    H225051   7.471   2.617   3.998
 8392TIP3   OH225052   8.268   3.484   3.676
 8392TIP3    H125053   8.293   3.417   3.612
 8392TIP3    H225054   8.264   3.438   3.759
 8393TIP3   OH225055   8.148   2.963   4.003
 8393TIP3    H125056   8.194   2.884   3.975
 8393TIP3    H225057   8.218   3.022   4.033
 8394TIP3   OH225058   9.095   2.255   4.013
 8394TIP3    H125059   9.148   2.315   4.065
 8394TIP3    H225060   9.104   2.287   3.923
 8395TIP3   OH225061   8.551   2.448   4.039
 8395TIP3    H125062   8.593   2.366   4.066
 8395TIP3    H225063   8.515   2.429   3.953
 8396TIP3   OH225064   7.917   2.111   4.002
 8396TIP3    H125065   7.895   2.181   3.941
 8396TIP3    H225066   7.872   2.034   3.967
 8397TIP3   OH225067   8.599   2.214   3.637
 8397TIP3    H125068   8.664   2.201   3.706
 8397TIP3    H225069   8.648   2.249   3.563
 8398TIP3   OH225070   7.540   2.310   4.090
 8398TIP3    H125071   7.621   2.292   4.138
 8398TIP3    H225072   7.544   2.253   4.013
 8399TIP3   OH225073   7.951   2.522   3.942
 8399TIP3    H125074   8.046   2.508   3.947
 8399TIP3    H225075   7.917   2.439   3.908
 8400TIP3   OH225076   9.222   2.428   4.185
 8400TIP3    H125077   9.180   2.514   4.192
 8400TIP3    H225078   9.293   2.431   4.249
 8401TIP3   OH225079   7.893   2.115   4.445
 8401TIP3    H125080   7.840   2.149   4.374
 8401TIP3    H225081   7.840   2.129   4.524
 8402TIP3   OH225082   8.203   2.958   3.460
 8402TIP3    H125083   8.182   2.942   3.368
 8402TIP3    H225084   8.165   3.043   3.478
 8403TIP3   OH225085   7.989   2.887   4.217
 8403TIP3    H125086   7.935   2.959   4.249
 8403TIP3    H225087   8.038   2.924   4.143
 8404TIP3   OH225088   8.768   2.222   3.851
 8404TIP3    H125089   8.733   2.206   3.939
 8404TIP3    H225090   8.820   2.302   3.861
 8405TIP3   OH225091   7.774   2.218   4.215
 8405TIP3    H125092   7.827   2.294   4.239
 8405TIP3    H225093   7.826   2.174   4.148
 8406TIP3   OH225094   7.832   3.093   4.317
 8406TIP3    H125095   7.818   3.182   4.286
 8406TIP3    H225096   7.754   3.074   4.370
 8407TIP3   OH225097   7.203   2.794   3.574
 8407TIP3    H125098   7.172   2.812   3.485
 8407TIP3    H225099   7.226   2.881   3.609
 8408TIP3   OH225100   8.637   3.301   3.794
 8408TIP3    H125101   8.551   3.292   3.835
 8408TIP3    H225102   8.633   3.385   3.748
 8409TIP3   OH225103   8.923   2.152   4.198
 8409TIP3    H125104   8.834   2.173   4.168
 8409TIP3    H225105   8.979   2.181   4.126
 8410TIP3   OH225106   8.228   1.808   4.179
 8410TIP3    H125107   8.224   1.715   4.203
 8410TIP3    H225108   8.150   1.847   4.216
 8411TIP3   OH225109   8.354   3.331   3.460
 8411TIP3    H125110   8.404   3.250   3.451
 8411TIP3    H225111   8.416   3.400   3.437
 8412TIP3   OH225112   8.506   3.112   3.420
 8412TIP3    H125113   8.511   3.039   3.358
 8412TIP3    H225114   8.547   3.079   3.499
 8413TIP3   OH225115   8.838   3.172   4.135
 8413TIP3    H125116   8.836   3.099   4.072
 8413TIP3    H225117   8.831   3.250   4.080
 8414TIP3   OH225118   8.168   2.588   3.423
 8414TIP3    H125119   8.088   2.636   3.405
 8414TIP3    H225120   8.215   2.588   3.340
 8415TIP3   OH225121   8.136   2.398   3.112
 8415TIP3    H125122   8.202   2.447   3.162
 8415TIP3    H225123   8.186   2.329   3.068
 8416TIP3   OH225124   9.095   2.873   3.955
 8416TIP3    H125125   9.001   2.887   3.963
 8416TIP3    H225126   9.116   2.897   3.865
 8417TIP3   OH225127   8.515   2.690   3.380
 8417TIP3    H125128   8.461   2.715   3.455
 8417TIP3    H225129   8.596   2.656   3.418
 8418TIP3   OH225130   8.728   2.711   4.342
 8418TIP3    H125131   8.722   2.794   4.389
 8418TIP3    H225132   8.648   2.706   4.290
 8419TIP3   OH225133   7.754   2.655   3.788
 8419TIP3    H125134   7.720   2.595   3.721
 8419TIP3    H225135   7.829   2.608   3.826
 8420TIP3   OH225136   7.897   3.078   3.930
 8420TIP3    H125137   7.876   3.067   3.837
 8420TIP3    H225138   7.985   3.041   3.940
 8421TIP3   OH225139   7.852   2.655   4.164
 8421TIP3    H125140   7.891   2.619   4.085
 8421TIP3    H225141   7.902   2.735   4.181
 8422TIP3   OH225142   8.408   3.289   3.939
 8422TIP3    H125143   8.392   3.371   3.986
 8422TIP3    H225144   8.392   3.220   4.004
 8423TIP3   OH225145   8.027   3.189   4.490
 8423TIP3    H125146   7.966   3.246   4.536
 8423TIP3    H225147   7.972   3.138   4.430
 8424TIP3   OH225148   8.356   2.540   3.214
 8424TIP3    H125149   8.414   2.601   3.260
 8424TIP3    H225150   8.385   2.543   3.123
 8425TIP3   OH225151   7.790   2.756   4.621
 8425TIP3    H125152   7.789   2.849   4.644
 8425TIP3    H225153   7.698   2.733   4.610
 8426TIP3   OH225154   8.102   3.218   3.476
 8426TIP3    H125155   8.188   3.260   3.476
 8426TIP3    H225156   8.046   3.277   3.425
 8427TIP3   OH225157   7.817   3.348   4.574
 8427TIP3    H125158   7.792   3.359   4.483
 8427TIP3    H225159   7.735   3.334   4.621
 8428TIP3   OH225160   8.875   1.781   3.287
 8428TIP3    H125161   8.795   1.805   3.334
 8428TIP3    H225162   8.883   1.848   3.218
 8429TIP3   OH225163   7.634   2.498   3.584
 8429TIP3    H125164   7.555   2.546   3.557
 8429TIP3    H225165   7.610   2.406   3.576
 8430TIP3   OH225166   8.690   3.140   2.835
 8430TIP3    H125167   8.685   3.231   2.805
 8430TIP3    H225168   8.783   3.119   2.833
 8431TIP3   OH225169   7.414   2.908   4.523
 8431TIP3    H125170   7.345   2.888   4.459
 8431TIP3    H225171   7.446   2.823   4.552
 8432TIP3   OH225172   7.254   3.109   4.185
 8432TIP3    H125173   7.342   3.138   4.206
 8432TIP3    H225174   7.198   3.184   4.206
 8433TIP3   OH225175   9.028   3.503   4.202
 8433TIP3    H125176   9.039   3.411   4.224
 8433TIP3    H225177   8.951   3.530   4.252
 8434TIP3   OH225178   8.212   3.337   4.350
 8434TIP3    H125179   8.204   3.427   4.380
 8434TIP3    H225180   8.145   3.289   4.400
 8435TIP3   OH225181   7.998   3.435   3.301
 8435TIP3    H125182   7.952   3.414   3.220
 8435TIP3    H225183   7.959   3.518   3.329
 8436TIP3   OH225184   7.432   3.288   3.679
 8436TIP3    H125185   7.476   3.279   3.764
 8436TIP3    H225186   7.383   3.206   3.670
 8437TIP3   OH225187   8.201   3.367   2.930
 8437TIP3    H125188   8.250   3.293   2.894
 8437TIP3    H225189   8.238   3.380   3.018
 8438TIP3   OH225190   8.252   3.412   3.201
 8438TIP3    H125191   8.165   3.416   3.239
 8438TIP3    H225192   8.305   3.367   3.267
 8439TIP3   OH225193   8.966   2.663   4.505
 8439TIP3    H125194   8.888   2.685   4.454
 8439TIP3    H225195   8.987   2.573   4.479
 8440TIP3   OH225196   7.614   3.095   4.488
 8440TIP3    H125197   7.663   3.086   4.570
 8440TIP3    H225198   7.542   3.034   4.496
 8441TIP3   OH225199   7.988   1.894   4.304
 8441TIP3    H125200   7.903   1.865   4.271
 8441TIP3    H225201   7.970   1.976   4.349
 8442TIP3   OH225202   8.534   2.023   4.506
 8442TIP3    H125203   8.606   1.997   4.563
 8442TIP3    H225204   8.455   2.004   4.556
 8443TIP3   OH225205   8.732   2.439   4.411
 8443TIP3    H125206   8.705   2.434   4.502
 8443TIP3    H225207   8.723   2.532   4.388
 8444TIP3   OH225208   8.434   2.517   2.952
 8444TIP3    H125209   8.392   2.519   2.866
 8444TIP3    H225210   8.517   2.563   2.939
 8445TIP3   OH225211   8.150   1.955   3.275
 8445TIP3    H125212   8.109   1.957   3.361
 8445TIP3    H225213   8.118   1.873   3.235
 8446TIP3   OH225214   7.928   2.429   4.306
 8446TIP3    H125215   7.889   2.438   4.392
 8446TIP3    H225216   7.907   2.510   4.261
 8447TIP3   OH225217   7.813   2.302   3.834
 8447TIP3    H125218   7.723   2.275   3.851
 8447TIP3    H225219   7.830   2.275   3.744
 8448TIP3   OH225220   8.293   2.386   3.560
 8448TIP3    H125221   8.245   2.458   3.519
 8448TIP3    H225222   8.352   2.354   3.492
 8449TIP3   OH225223   8.482   2.652   4.632
 8449TIP3    H125224   8.453   2.585   4.694
 8449TIP3    H225225   8.574   2.666   4.653
 8450TIP3   OH225226   8.452   2.396   3.789
 8450TIP3    H125227   8.386   2.418   3.723
 8450TIP3    H225228   8.501   2.323   3.750
 8451TIP3   OH225229   7.769   2.438   4.534
 8451TIP3    H125230   7.827   2.490   4.589
 8451TIP3    H225231   7.754   2.358   4.584
 8452TIP3   OH225232   7.824   1.922   3.254
 8452TIP3    H125233   7.809   1.906   3.347
 8452TIP3    H225234   7.743   1.960   3.222
 8453TIP3   OH225235   7.267   1.958   3.638
 8453TIP3    H125236   7.311   1.989   3.559
 8453TIP3    H225237   7.198   2.022   3.655
 8454TIP3   OH225238   8.490   2.650   4.209
 8454TIP3    H125239   8.520   2.585   4.146
 8454TIP3    H225240   8.448   2.600   4.279
 8455TIP3   OH225241   8.186   2.105   3.887
 8455TIP3    H125242   8.110   2.104   3.946
 8455TIP3    H225243   8.261   2.093   3.945
 8456TIP3   OH225244   7.579   2.149   3.871
 8456TIP3    H125245   7.514   2.125   3.804
 8456TIP3    H225246   7.635   2.071   3.878
 8457TIP3   OH225247   7.829   2.191   3.585
 8457TIP3    H125248   7.924   2.199   3.574
 8457TIP3    H225249   7.794   2.208   3.498
 8458TIP3   OH225250   8.635   2.184   4.098
 8458TIP3    H125251   8.603   2.205   4.186
 8458TIP3    H225252   8.572   2.122   4.063
 8459TIP3   OH225253   7.709   2.222   3.341
 8459TIP3    H125254   7.653   2.163   3.290
 8459TIP3    H225255   7.766   2.264   3.276
 8460TIP3   OH225256   8.812   3.893   4.313
 8460TIP3    H125257   8.814   3.901   4.217
 8460TIP3    H225258   8.886   3.946   4.343
 8461TIP3   OH225259   7.766   3.013   4.725
 8461TIP3    H125260   7.847   3.032   4.772
 8461TIP3    H225261   7.697   3.024   4.791
 8462TIP3   OH225262   8.225   2.472   3.988
 8462TIP3    H125263   8.292   2.426   3.939
 8462TIP3    H225264   8.224   2.429   4.074
 8463TIP3   OH225265   7.743   1.927   3.877
 8463TIP3    H125266   7.709   1.853   3.928
 8463TIP3    H225267   7.768   1.888   3.793
 8464TIP3   OH225268   8.196   2.373   4.252
 8464TIP3    H125269   8.108   2.402   4.276
 8464TIP3    H225270   8.254   2.424   4.308
 8465TIP3   OH225271   7.935   2.729   3.366
 8465TIP3    H125272   7.859   2.675   3.341
 8465TIP3    H225273   7.908   2.770   3.449
 8466TIP3   OH225274   8.827   2.965   3.951
 8466TIP3    H125275   8.854   3.015   3.874
 8466TIP3    H225276   8.744   2.926   3.926
 8467TIP3   OH225277   8.402   2.051   3.269
 8467TIP3    H125278   8.309   2.030   3.270
 8467TIP3    H225279   8.406   2.145   3.285
 8468TIP3   OH225280   8.336   3.067   4.390
 8468TIP3    H125281   8.389   3.057   4.469
 8468TIP3    H225282   8.297   3.154   4.398
 8469TIP3   OH225283   8.458   2.313   3.345
 8469TIP3    H125284   8.553   2.318   3.356
 8469TIP3    H225285   8.435   2.389   3.292
 8470TIP3   OH225286   7.621   2.732   4.016
 8470TIP3    H125287   7.661   2.718   3.930
 8470TIP3    H225288   7.689   2.707   4.079
 8471TIP3   OH225289   8.088   2.889   3.208
 8471TIP3    H125290   8.040   2.972   3.206
 8471TIP3    H225291   8.034   2.832   3.262
 8472TIP3   OH225292   7.518   2.695   4.670
 8472TIP3    H125293   7.557   2.705   4.757
 8472TIP3    H225294   7.464   2.616   4.677
 8473TIP3   OH225295   8.257   2.815   4.662
 8473TIP3    H125296   8.200   2.783   4.592
 8473TIP3    H225297   8.341   2.772   4.646
 8474TIP3   OH225298   8.477   3.356   4.268
 8474TIP3    H125299   8.383   3.343   4.276
 8474TIP3    H225300   8.504   3.393   4.352
 8475TIP3   OH225301   8.866   2.406   3.183
 8475TIP3    H125302   8.824   2.353   3.115
 8475TIP3    H225303   8.880   2.491   3.142
 8476TIP3   OH225304   9.072   3.238   4.255
 8476TIP3    H125305   8.980   3.216   4.247
 8476TIP3    H225306   9.110   3.212   4.171
 8477TIP3   OH225307   8.598   3.203   3.090
 8477TIP3    H125308   8.580   3.125   3.143
 8477TIP3    H225309   8.628   3.168   3.006
 8478TIP3   OH225310   8.582   2.848   3.869
 8478TIP3    H125311   8.491   2.829   3.895
 8478TIP3    H225312   8.613   2.767   3.830
 8479TIP3   OH225313   7.754   3.086   3.687
 8479TIP3    H125314   7.753   3.161   3.627
 8479TIP3    H225315   7.665   3.081   3.722
 8480TIP3   OH225316   7.310   2.371   3.397
 8480TIP3    H125317   7.353   2.454   3.417
 8480TIP3    H225318   7.230   2.372   3.448
 8481TIP3   OH225319   7.829   2.839   3.589
 8481TIP3    H125320   7.816   2.928   3.620
 8481TIP3    H225321   7.805   2.784   3.664
 8482TIP3   OH225322   8.032   3.408   4.140
 8482TIP3    H125323   8.068   3.481   4.091
 8482TIP3    H225324   8.106   3.376   4.192
 8483TIP3   OH225325   7.668   3.308   3.536
 8483TIP3    H125326   7.581   3.314   3.575
 8483TIP3    H225327   7.703   3.396   3.541
 8484TIP3   OH225328   8.380   3.071   4.116
 8484TIP3    H125329   8.366   3.066   4.211
 8484TIP3    H225330   8.459   3.019   4.101
 8485TIP3   OH225331   8.377   2.952   2.991
 8485TIP3    H125332   8.417   2.940   3.077
 8485TIP3    H225333   8.292   2.908   2.997
 8486TIP3   OH225334   8.618   3.578   4.156
 8486TIP3    H125335   8.550   3.511   4.165
 8486TIP3    H225336   8.592   3.629   4.080
 8487TIP3   OH225337   8.679   3.411   2.779
 8487TIP3    H125338   8.688   3.462   2.699
 8487TIP3    H225339   8.612   3.456   2.830
 8488TIP3   OH225340   7.730   2.186   4.661
 8488TIP3    H125341   7.635   2.189   4.669
 8488TIP3    H225342   7.759   2.133   4.736
 8489TIP3   OH225343   8.539   2.912   3.217
 8489TIP3    H125344   8.520   2.836   3.272
 8489TIP3    H225345   8.631   2.901   3.192
 8490TIP3   OH225346   7.461   3.301   4.300
 8490TIP3    H125347   7.516   3.244   4.354
 8490TIP3    H225348   7.473   3.388   4.337
 8491TIP3   OH225349   7.731   2.914   2.997
 8491TIP3    H125350   7.741   2.822   2.971
 8491TIP3    H225351   7.717   2.910   3.092
 8492TIP3   OH225352   7.673   2.931   3.270
 8492TIP3    H125353   7.737   2.905   3.335
 8492TIP3    H225354   7.671   3.026   3.274
 8493TIP3   OH225355   7.405   2.621   3.481
 8493TIP3    H125356   7.340   2.669   3.532
 8493TIP3    H225357   7.426   2.680   3.408
 8494TIP3   OH225358   8.547   2.249   4.350
 8494TIP3    H125359   8.624   2.299   4.378
 8494TIP3    H225360   8.545   2.173   4.409
 8495TIP3   OH225361   8.449   1.999   3.541
 8495TIP3    H125362   8.433   2.018   3.449
 8495TIP3    H225363   8.494   2.078   3.574
 8496TIP3   OH225364   7.942   3.117   3.206
 8496TIP3    H125365   7.858   3.141   3.244
 8496TIP3    H225366   7.965   3.191   3.150
 8497TIP3   OH225367   8.108   2.197   3.636
 8497TIP3    H125368   8.170   2.264   3.608
 8497TIP3    H225369   8.134   2.176   3.726
 8498TIP3   OH225370   8.396   2.488   4.409
 8498TIP3    H125371   8.426   2.530   4.490
 8498TIP3    H225372   8.445   2.406   4.405
 8499TIP3   OH225373   8.271   1.892   3.721
 8499TIP3    H125374   8.250   1.969   3.773
 8499TIP3    H225375   8.339   1.921   3.661
 8500TIP3   OH225376   7.692   3.203   3.283
 8500TIP3    H125377   7.673   3.275   3.223
 8500TIP3    H225378   7.681   3.242   3.371
 8501TIP3   OH225379   7.787   1.915   3.538
 8501TIP3    H125380   7.780   2.008   3.559
 8501TIP3    H225381   7.881   1.897   3.537
 8502TIP3   OH225382   9.003   2.416   4.391
 8502TIP3    H125383   8.908   2.401   4.388
 8502TIP3    H225384   9.034   2.389   4.305
 8503TIP3   OH225385   8.663   2.593   3.777
 8503TIP3    H125386   8.588   2.536   3.793
 8503TIP3    H225387   8.736   2.552   3.824
 8504TIP3   OH225388   7.429   2.797   3.264
 8504TIP3    H125389   7.499   2.861   3.272
 8504TIP3    H225390   7.460   2.735   3.198
 8505TIP3   OH225391   7.338   2.094   3.413
 8505TIP3    H125392   7.342   2.189   3.407
 8505TIP3    H225393   7.321   2.065   3.323
 8506TIP3   OH225394   8.655   3.576   3.718
 8506TIP3    H125395   8.600   3.631   3.663
 8506TIP3    H225396   8.744   3.608   3.704
 8507TIP3   OH225397   7.719   1.820   4.268
 8507TIP3    H125398   7.694   1.787   4.181
 8507TIP3    H225399   7.715   1.743   4.325
 8508TIP3   OH225400   7.253   3.065   3.656
 8508TIP3    H125401   7.213   3.104   3.734
 8508TIP3    H225402   7.210   3.109   3.583
 8509TIP3   OH225403   7.461   3.603   4.723
 8509TIP3    H125404   7.543   3.608   4.773
 8509TIP3    H225405   7.446   3.509   4.712
 8510TIP3   OH225406   7.925   3.512   4.768
 8510TIP3    H125407   8.017   3.485   4.777
 8510TIP3    H225408   7.891   3.458   4.697
 8511TIP3   OH225409   7.884   3.116   2.886
 8511TIP3    H125410   7.837   3.045   2.931
 8511TIP3    H225411   7.958   3.073   2.845
 8512TIP3   OH225412   8.536   3.450   4.517
 8512TIP3    H125413   8.547   3.379   4.581
 8512TIP3    H225414   8.607   3.511   4.537
 8513TIP3   OH225415   8.325   3.155   2.811
 8513TIP3    H125416   8.362   3.092   2.872
 8513TIP3    H225417   8.382   3.149   2.734
 8514TIP3   OH225418   7.560   3.007   4.914
 8514TIP3    H125419   7.579   2.914   4.925
 8514TIP3    H225420   7.473   3.010   4.876
 8515TIP3   OH225421   7.550   2.608   3.108
 8515TIP3    H125422   7.601   2.585   3.185
 8515TIP3    H225423   7.615   2.622   3.039
 8516TIP3   OH225424   8.186   3.090   4.693
 8516TIP3    H125425   8.139   3.110   4.611
 8516TIP3    H225426   8.225   3.003   4.678
 8517TIP3   OH225427   8.122   2.829   2.943
 8517TIP3    H125428   8.099   2.841   3.036
 8517TIP3    H225429   8.103   2.737   2.925
 8518TIP3   OH225430   8.636   3.127   4.310
 8518TIP3    H125431   8.709   3.144   4.251
 8518TIP3    H225432   8.574   3.198   4.294
 8519TIP3   OH225433   7.673   2.746   4.907
 8519TIP3    H125434   7.754   2.735   4.857
 8519TIP3    H225435   7.701   2.765   4.996
 8520TIP3   OH225436   7.725   2.554   3.318
 8520TIP3    H125437   7.708   2.524   3.408
 8520TIP3    H225438   7.774   2.482   3.278
 8521TIP3   OH225439   8.006   2.600   4.559
 8521TIP3    H125440   7.940   2.664   4.583
 8521TIP3    H225441   8.060   2.644   4.493
 8522TIP3   OH225442   7.866   2.368   3.169
 8522TIP3    H125443   7.835   2.371   3.078
 8522TIP3    H225444   7.961   2.374   3.162
 8523TIP3   OH225445   8.524   3.002   4.660
 8523TIP3    H125446   8.594   2.967   4.604
 8523TIP3    H225447   8.525   2.944   4.737
 8524TIP3   OH225448   8.655   2.649   2.856
 8524TIP3    H125449   8.648   2.609   2.769
 8524TIP3    H225450   8.633   2.741   2.842
 8525TIP3   OH225451   8.141   2.397   4.685
 8525TIP3    H125452   8.149   2.324   4.623
 8525TIP3    H225453   8.100   2.467   4.635
 8526TIP3   OH225454   8.152   2.199   4.482
 8526TIP3    H125455   8.181   2.235   4.398
 8526TIP3    H225456   8.062   2.172   4.467
 8527TIP3   OH225457   8.158   2.748   4.388
 8527TIP3    H125458   8.246   2.763   4.353
 8527TIP3    H225459   8.101   2.798   4.330
 8528TIP3   OH225460   8.744   2.685   4.738
 8528TIP3    H125461   8.789   2.601   4.733
 8528TIP3    H225462   8.814   2.750   4.732
 8529TIP3   OH225463   8.746   2.953   4.484
 8529TIP3    H125464   8.699   3.015   4.430
 8529TIP3    H225465   8.838   2.961   4.456
 8530TIP3   OH225466   8.027   2.483   4.928
 8530TIP3    H125467   7.957   2.420   4.949
 8530TIP3    H225468   8.057   2.458   4.841
 8531TIP3   OH225469   8.270   1.969   4.588
 8531TIP3    H125470   8.232   2.049   4.553
 8531TIP3    H225471   8.204   1.902   4.573
 8532TIP3   OH225472   8.397   2.443   4.789
 8532TIP3    H125473   8.387   2.430   4.883
 8532TIP3    H225474   8.311   2.422   4.753
 8533TIP3   OH225475   8.646   2.399   4.662
 8533TIP3    H125476   8.568   2.398   4.718
 8533TIP3    H225477   8.717   2.371   4.720
 8534TIP3   OH225478   8.882   2.354   4.807
 8534TIP3    H125479   8.890   2.260   4.818
 8534TIP3    H225480   8.875   2.388   4.896
 8535TIP3   OH225481   7.859   2.265   4.994
 8535TIP3    H125482   7.866   2.177   4.958
 8535TIP3    H225483   7.897   2.259   5.081
 8536TIP3   OH225484   8.338   1.945   4.852
 8536TIP3    H125485   8.407   1.878   4.846
 8536TIP3    H225486   8.309   1.957   4.762
 8537TIP3   OH225487   8.434   2.161   4.995
 8537TIP3    H125488   8.404   2.089   4.940
 8537TIP3    H225489   8.361   2.223   4.996
 8538TIP3   OH225490   7.691   3.413   3.102
 8538TIP3    H125491   7.780   3.392   3.073
 8538TIP3    H225492   7.652   3.458   3.027
 8539TIP3   OH225493   7.155   2.793   3.283
 8539TIP3    H125494   7.250   2.805   3.278
 8539TIP3    H225495   7.140   2.708   3.241
 8540TIP3   OH225496   7.061   3.378   3.741
 8540TIP3    H125497   6.996   3.325   3.695
 8540TIP3    H225498   7.105   3.316   3.800
 8541TIP3   OH225499   7.205   3.207   3.908
 8541TIP3    H125500   7.196   3.141   3.976
 8541TIP3    H225501   7.256   3.276   3.948
 8542TIP3   OH225502   8.898   3.708   3.693
 8542TIP3    H125503   8.924   3.682   3.781
 8542TIP3    H225504   8.970   3.680   3.637
 8543TIP3   OH225505   8.936   3.644   3.958
 8543TIP3    H125506   8.899   3.558   3.979
 8543TIP3    H225507   9.021   3.645   4.002
 8544TIP3   OH225508   8.950   3.348   4.552
 8544TIP3    H125509   8.883   3.353   4.620
 8544TIP3    H225510   8.986   3.437   4.548
 8545TIP3   OH225511   8.806   2.865   3.175
 8545TIP3    H125512   8.868   2.933   3.146
 8545TIP3    H225513   8.846   2.829   3.254
 8546TIP3   OH225514   8.913   2.738   3.391
 8546TIP3    H125515   8.844   2.688   3.436
 8546TIP3    H225516   8.969   2.769   3.462
 8547TIP3   OH225517   8.989   3.108   3.775
 8547TIP3    H125518   9.049   3.050   3.728
 8547TIP3    H225519   8.981   3.185   3.719
 8548TIP3   OH225520   8.793   3.407   3.997
 8548TIP3    H125521   8.727   3.452   4.049
 8548TIP3    H225522   8.745   3.371   3.923
 8549TIP3   OH225523   8.866   2.638   3.030
 8549TIP3    H125524   8.792   2.631   2.970
 8549TIP3    H225525   8.848   2.718   3.080
 8550TIP3   OH225526   8.731   2.282   2.977
 8550TIP3    H125527   8.685   2.321   2.903
 8550TIP3    H225528   8.708   2.189   2.973
 8551TIP3   OH225529   8.730   2.576   3.512
 8551TIP3    H125530   8.738   2.482   3.497
 8551TIP3    H225531   8.709   2.585   3.605
 8552TIP3   OH225532   7.380   2.640   4.277
 8552TIP3    H125533   7.379   2.619   4.183
 8552TIP3    H225534   7.473   2.640   4.300
 8553TIP3   OH225535   9.012   2.974   4.417
 8553TIP3    H125536   9.075   2.906   4.439
 8553TIP3    H225537   9.042   3.008   4.333
 8554TIP3   OH225538   9.206   2.785   4.476
 8554TIP3    H125539   9.128   2.731   4.487
 8554TIP3    H225540   9.269   2.727   4.434
 8555TIP3   OH225541   8.667   2.015   2.962
 8555TIP3    H125542   8.718   1.969   3.029
 8555TIP3    H225543   8.579   1.980   2.970
 8556TIP3   OH225544   8.740   2.310   3.410
 8556TIP3    H125545   8.782   2.225   3.425
 8556TIP3    H225546   8.786   2.347   3.335
 8557TIP3   OH225547   8.887   2.470   3.888
 8557TIP3    H125548   8.975   2.492   3.857
 8557TIP3    H225549   8.883   2.509   3.976
 8558TIP3   OH225550   8.894   2.600   4.129
 8558TIP3    H125551   8.834   2.641   4.191
 8558TIP3    H225552   8.980   2.634   4.152
 8559TIP3   OH225553   7.597   2.322   4.923
 8559TIP3    H125554   7.690   2.320   4.943
 8559TIP3    H225555   7.562   2.242   4.964
 8560TIP3   OH225556   8.843   2.061   3.476
 8560TIP3    H125557   8.892   2.043   3.557
 8560TIP3    H225558   8.784   1.986   3.466
 8561TIP3   OH225559   7.569   2.046   4.331
 8561TIP3    H125560   7.616   1.964   4.315
 8561TIP3    H225561   7.623   2.114   4.291
 8562TIP3   OH225562   7.331   2.350   4.265
 8562TIP3    H125563   7.403   2.329   4.206
 8562TIP3    H225564   7.360   2.428   4.312
 8563TIP3   OH225565   9.273   2.358   4.484
 8563TIP3    H125566   9.208   2.400   4.541
 8563TIP3    H225567   9.223   2.293   4.435
 8564TIP3   OH225568   8.924   1.947   3.067
 8564TIP3    H125569   8.999   1.893   3.042
 8564TIP3    H225570   8.913   2.008   2.995
 8565TIP3   OH225571   7.328   1.797   3.850
 8565TIP3    H125572   7.240   1.791   3.886
 8565TIP3    H225573   7.319   1.859   3.777
 8566TIP3   OH225574   8.515   3.530   3.371
 8566TIP3    H125575   8.543   3.509   3.282
 8566TIP3    H225576   8.592   3.569   3.411
 8567TIP3   OH225577   7.562   1.886   4.678
 8567TIP3    H125578   7.510   1.874   4.757
 8567TIP3    H225579   7.499   1.916   4.613
 8568TIP3   OH225580   7.592   3.320   4.740
 8568TIP3    H125581   7.498   3.301   4.733
 8568TIP3    H225582   7.610   3.316   4.834
 8569TIP3   OH225583   7.805   3.370   4.291
 8569TIP3    H125584   7.754   3.445   4.260
 8569TIP3    H225585   7.889   3.379   4.246
 8570TIP3   OH225586   8.202   3.604   4.427
 8570TIP3    H125587   8.239   3.596   4.515
 8570TIP3    H225588   8.266   3.655   4.378
 8571TIP3   OH225589   8.397   3.752   4.300
 8571TIP3    H125590   8.464   3.699   4.257
 8571TIP3    H225591   8.446   3.813   4.355
 8572TIP3   OH225592   9.137   2.130   4.383
 8572TIP3    H125593   9.056   2.147   4.336
 8572TIP3    H225594   9.177   2.057   4.336
 8573TIP3   OH225595   7.464   3.603   4.339
 8573TIP3    H125596   7.373   3.620   4.314
 8573TIP3    H225597   7.485   3.671   4.402
 8574TIP3   OH225598   7.696   3.602   4.188
 8574TIP3    H125599   7.612   3.605   4.235
 8574TIP3    H225600   7.673   3.627   4.099
 8575TIP3   OH225601   8.105   3.620   3.977
 8575TIP3    H125602   8.031   3.630   3.917
 8575TIP3    H225603   8.115   3.706   4.018
 8576TIP3   OH225604   8.368   3.552   4.015
 8576TIP3    H125605   8.276   3.573   4.000
 8576TIP3    H225606   8.415   3.624   3.972
 8577TIP3   OH225607   8.573   3.736   3.930
 8577TIP3    H125608   8.559   3.821   3.889
 8577TIP3    H225609   8.603   3.679   3.859
 8578TIP3   OH225610   7.377   3.387   4.047
 8578TIP3    H125611   7.398   3.364   4.137
 8578TIP3    H225612   7.450   3.353   3.996
 8579TIP3   OH225613   7.581   3.269   3.911
 8579TIP3    H125614   7.592   3.184   3.955
 8579TIP3    H225615   7.667   3.310   3.917
 8580TIP3   OH225616   7.847   3.356   3.938
 8580TIP3    H125617   7.868   3.264   3.923
 8580TIP3    H225618   7.901   3.381   4.013
 8581TIP3   OH225619   8.412   2.004   4.021
 8581TIP3    H125620   8.371   1.935   4.072
 8581TIP3    H225621   8.481   1.960   3.971
 8582TIP3   OH225622   8.917   1.925   3.919
 8582TIP3    H125623   8.952   1.982   3.850
 8582TIP3    H225624   8.825   1.950   3.926
 8583TIP3   OH225625   9.027   2.018   3.682
 8583TIP3    H125626   9.094   1.961   3.645
 8583TIP3    H225627   9.063   2.106   3.674
 8584TIP3   OH225628   7.646   1.710   4.024
 8584TIP3    H125629   7.557   1.677   4.025
 8584TIP3    H225630   7.701   1.632   4.017
 8585TIP3   OH225631   7.433   1.600   3.680
 8585TIP3    H125632   7.474   1.652   3.610
 8585TIP3    H225633   7.404   1.665   3.743
 8586TIP3   OH225634   8.122   1.757   3.919
 8586TIP3    H125635   8.172   1.798   3.849
 8586TIP3    H225636   8.166   1.783   4.000
 8587TIP3   OH225637   8.629   1.878   3.906
 8587TIP3    H125638   8.658   1.842   3.823
 8587TIP3    H225639   8.634   1.804   3.967
 8588TIP3   OH225640   8.669   1.846   3.462
 8588TIP3    H125641   8.587   1.890   3.487
 8588TIP3    H225642   8.661   1.758   3.498
 8589TIP3   OH225643   7.136   3.188   3.440
 8589TIP3    H125644   7.053   3.158   3.403
 8589TIP3    H225645   7.145   3.279   3.408
 8590TIP3   OH225646   7.553   1.767   3.488
 8590TIP3    H125647   7.581   1.698   3.428
 8590TIP3    H225648   7.633   1.816   3.508
 8591TIP3   OH225649   8.061   1.946   3.538
 8591TIP3    H125650   8.122   1.893   3.590
 8591TIP3    H225651   8.077   2.035   3.567
 8592TIP3   OH225652   7.946   3.338   3.031
 8592TIP3    H125653   8.030   3.366   2.994
 8592TIP3    H225654   7.916   3.268   2.974
 8593TIP3   OH225655   8.623   3.471   3.126
 8593TIP3    H125656   8.620   3.376   3.117
 8593TIP3    H225657   8.586   3.504   3.044
 8594TIP3   OH225658   7.875   1.996   4.901
 8594TIP3    H125659   7.839   1.931   4.961
 8594TIP3    H225660   7.967   2.004   4.925
 8595TIP3   OH225661   8.122   1.998   5.025
 8595TIP3    H125662   8.200   1.977   4.974
 8595TIP3    H225663   8.117   1.929   5.091
 8596TIP3   OH225664   7.252   3.182   3.087
 8596TIP3    H125665   7.255   3.198   3.181
 8596TIP3    H225666   7.334   3.135   3.069
 8597TIP3   OH225667   8.936   2.082   4.823
 8597TIP3    H125668   8.959   2.052   4.910
 8597TIP3    H225669   9.017   2.073   4.772
 8598TIP3   OH225670   8.821   3.617   4.336
 8598TIP3    H125671   8.747   3.597   4.280
 8598TIP3    H225672   8.825   3.713   4.337
 8599TIP3   OH225673   9.082   2.508   3.395
 8599TIP3    H125674   9.015   2.569   3.364
 8599TIP3    H225675   9.065   2.427   3.348
 8600TIP3   OH225676   9.182   2.749   3.501
 8600TIP3    H125677   9.164   2.656   3.488
 8600TIP3    H225678   9.206   2.781   3.414
 8601TIP3   OH225679   8.991   3.045   3.089
 8601TIP3    H125680   8.986   3.050   2.994
 8601TIP3    H225681   9.013   3.134   3.116
 8602TIP3   OH225682   9.158   3.178   3.990
 8602TIP3    H125683   9.094   3.159   3.921
 8602TIP3    H225684   9.241   3.147   3.955
 8603TIP3   OH225685   9.057   3.330   3.621
 8603TIP3    H125686   9.128   3.325   3.557
 8603TIP3    H225687   9.092   3.381   3.694
 8604TIP3   OH225688   9.178   3.553   3.154
 8604TIP3    H125689   9.228   3.530   3.232
 8604TIP3    H225690   9.146   3.469   3.120
 8605TIP3   OH225691   9.305   3.384   4.098
 8605TIP3    H125692   9.349   3.312   4.143
 8605TIP3    H225693   9.229   3.344   4.056
 8606TIP3   OH225694   9.128   2.263   3.613
 8606TIP3    H125695   9.135   2.359   3.616
 8606TIP3    H225696   9.119   2.243   3.520
 8607TIP3   OH225697   9.353   2.784   4.044
 8607TIP3    H125698   9.393   2.830   4.118
 8607TIP3    H225699   9.277   2.837   4.021
 8608TIP3   OH225700   9.021   2.699   2.805
 8608TIP3    H125701   9.113   2.703   2.834
 8608TIP3    H225702   8.973   2.671   2.883
 8609TIP3   OH225703   9.203   3.464   3.815
 8609TIP3    H125704   9.279   3.423   3.857
 8609TIP3    H225705   9.176   3.533   3.876
 8610TIP3   OH225706   9.025   3.315   3.143
 8610TIP3    H125707   8.984   3.360   3.217
 8610TIP3    H225708   8.982   3.353   3.066
 8611TIP3   OH225709   9.231   3.950   4.245
 8611TIP3    H125710   9.317   3.951   4.286
 8611TIP3    H225711   9.199   3.861   4.256
 8612TIP3   OH225712   9.385   3.158   4.235
 8612TIP3    H125713   9.432   3.077   4.255
 8612TIP3    H225714   9.356   3.191   4.320
 8613TIP3   OH225715   8.956   3.063   2.815
 8613TIP3    H125716   8.999   3.121   2.751
 8613TIP3    H225717   8.939   2.982   2.766
 8614TIP3   OH225718   8.813   3.638   3.231
 8614TIP3    H125719   8.756   3.583   3.178
 8614TIP3    H225720   8.866   3.575   3.281
 8615TIP3   OH225721   8.950   3.457   3.386
 8615TIP3    H125722   8.939   3.391   3.454
 8615TIP3    H225723   9.009   3.522   3.425
 8616TIP3   OH225724   9.192   2.930   3.706
 8616TIP3    H125725   9.185   2.865   3.636
 8616TIP3    H225726   9.286   2.951   3.709
 8617TIP3   OH225727   9.383   2.593   4.390
 8617TIP3    H125728   9.466   2.619   4.429
 8617TIP3    H225729   9.360   2.511   4.434
 8618TIP3   OH225730   9.148   2.556   3.840
 8618TIP3    H125731   9.241   2.539   3.852
 8618TIP3    H225732   9.137   2.649   3.860
 8619TIP3   OH225733   9.062   2.182   3.357
 8619TIP3    H125734   8.986   2.132   3.387
 8619TIP3    H225735   9.073   2.156   3.266
 8620TIP3   OH225736   9.440   3.592   4.202
 8620TIP3    H125737   9.398   3.527   4.147
 8620TIP3    H225738   9.465   3.544   4.281
 8621TIP3   OH225739   9.196   3.789   3.737
 8621TIP3    H125740   9.188   3.884   3.735
 8621TIP3    H225741   9.191   3.767   3.830
 8622TIP3   OH225742   9.465   3.854   3.654
 8622TIP3    H125743   9.373   3.838   3.676
 8622TIP3    H225744   9.464   3.877   3.561
 8623TIP3   OH225745   9.121   3.638   3.519
 8623TIP3    H125746   9.163   3.683   3.592
 8623TIP3    H225747   9.191   3.585   3.480
 8624TIP3   OH225748   9.305   3.468   3.386
 8624TIP3    H125749   9.345   3.390   3.347
 8624TIP3    H225750   9.379   3.521   3.415
 8625TIP3   OH225751   8.920   3.436   2.920
 8625TIP3    H125752   8.837   3.411   2.879
 8625TIP3    H225753   8.933   3.527   2.893
 8626TIP3   OH225754   9.015   3.404   2.556
 8626TIP3    H125755   9.031   3.426   2.648
 8626TIP3    H225756   9.022   3.308   2.553
 8627TIP3   OH225757   0.797   3.537   5.261
 8627TIP3    H125758   0.760   3.624   5.245
 8627TIP3    H225759   0.727   3.476   5.238
 8628TIP3   OH225760   0.811   3.520   5.682
 8628TIP3    H125761   0.860   3.505   5.762
 8628TIP3    H225762   0.765   3.438   5.665
 8629TIP3   OH225763   0.188   3.424   6.092
 8629TIP3    H125764   0.223   3.363   6.156
 8629TIP3    H225765   0.254   3.427   6.023
 8630TIP3   OH225766   1.061   3.841   5.357
 8630TIP3    H125767   1.051   3.773   5.423
 8630TIP3    H225768   1.083   3.920   5.406
 8631TIP3   OH225769   0.141   3.811   5.629
 8631TIP3    H125770   0.119   3.726   5.665
 8631TIP3    H225771   0.237   3.813   5.630
 8632TIP3   OH225772   9.417   3.139   5.485
 8632TIP3    H125773   9.383   3.184   5.562
 8632TIP3    H225774   9.485   3.080   5.519
 8633TIP3   OH225775   9.666   3.315   5.718
 8633TIP3    H125776   9.733   3.246   5.716
 8633TIP3    H225777   9.671   3.355   5.631
 8634TIP3   OH225778   0.727   4.273   5.375
 8634TIP3    H125779   0.747   4.207   5.308
 8634TIP3    H225780   0.741   4.227   5.458
 8635TIP3   OH225781   0.648   3.745   5.686
 8635TIP3    H125782   0.693   3.664   5.664
 8635TIP3    H225783   0.717   3.802   5.720
 8636TIP3   OH225784   1.638   3.070   5.705
 8636TIP3    H125785   1.654   3.155   5.746
 8636TIP3    H225786   1.664   3.083   5.614
 8637TIP3   OH225787   1.012   3.241   5.728
 8637TIP3    H125788   1.046   3.155   5.756
 8637TIP3    H225789   0.977   3.225   5.641
 8638TIP3   OH225790   0.376   2.912   5.682
 8638TIP3    H125791   0.360   2.982   5.619
 8638TIP3    H225792   0.330   2.836   5.646
 8639TIP3   OH225793   1.061   3.001   5.316
 8639TIP3    H125794   1.123   2.995   5.388
 8639TIP3    H225795   1.112   3.035   5.243
 8640TIP3   OH225796   0.042   3.109   5.732
 8640TIP3    H125797   0.101   3.073   5.799
 8640TIP3    H225798   0.050   3.049   5.658
 8641TIP3   OH225799   0.426   3.315   5.631
 8641TIP3    H125800   0.521   3.303   5.637
 8641TIP3    H225801   0.394   3.236   5.589
 8642TIP3   OH225802   1.691   3.290   5.872
 8642TIP3    H125803   1.604   3.328   5.867
 8642TIP3    H225804   1.729   3.329   5.951
 8643TIP3   OH225805   0.364   2.892   6.135
 8643TIP3    H125806   0.307   2.938   6.073
 8643TIP3    H225807   0.325   2.910   6.220
 8644TIP3   OH225808   0.648   3.743   5.154
 8644TIP3    H125809   0.648   3.736   5.059
 8644TIP3    H225810   0.609   3.828   5.172
 8645TIP3   OH225811   0.474   3.669   5.886
 8645TIP3    H125812   0.429   3.745   5.924
 8645TIP3    H225813   0.527   3.706   5.815
 8646TIP3   OH225814   1.214   3.031   5.540
 8646TIP3    H125815   1.177   3.005   5.624
 8646TIP3    H225816   1.274   3.102   5.561
 8647TIP3   OH225817   0.248   3.009   5.904
 8647TIP3    H125818   0.301   3.083   5.936
 8647TIP3    H225819   0.301   2.971   5.834
 8648TIP3   OH225820   0.338   3.879   5.999
 8648TIP3    H125821   0.310   3.967   5.972
 8648TIP3    H225822   0.268   3.849   6.058
 8649TIP3   OH225823   9.468   3.537   5.261
 8649TIP3    H125824   9.403   3.532   5.331
 8649TIP3    H225825   9.521   3.614   5.283
 8650TIP3   OH225826   1.093   4.088   5.499
 8650TIP3    H125827   1.003   4.081   5.530
 8650TIP3    H225828   1.096   4.172   5.452
 8651TIP3   OH225829   1.439   2.961   5.876
 8651TIP3    H125830   1.354   2.982   5.839
 8651TIP3    H225831   1.502   2.988   5.808
 8652TIP3   OH225832   0.695   2.588   5.859
 8652TIP3    H125833   0.690   2.497   5.888
 8652TIP3    H225834   0.622   2.631   5.903
 8653TIP3   OH225835   0.803   4.112   5.161
 8653TIP3    H125836   0.854   4.032   5.148
 8653TIP3    H225837   0.862   4.182   5.132
 8654TIP3   OH225838   0.955   3.894   5.107
 8654TIP3    H125839   0.972   3.820   5.049
 8654TIP3    H225840   0.994   3.869   5.190
 8655TIP3   OH225841   1.332   3.980   5.836
 8655TIP3    H125842   1.317   3.906   5.777
 8655TIP3    H225843   1.317   4.057   5.781
 8656TIP3   OH225844   0.623   3.375   5.112
 8656TIP3    H125845   0.547   3.429   5.091
 8656TIP3    H225846   0.674   3.375   5.031
 8657TIP3   OH225847   0.598   3.183   4.805
 8657TIP3    H125848   0.661   3.235   4.854
 8657TIP3    H225849   0.652   3.116   4.761
 8658TIP3   OH225850   1.513   3.633   5.713
 8658TIP3    H125851   1.430   3.680   5.711
 8658TIP3    H225852   1.550   3.646   5.626
 8659TIP3   OH225853   0.984   3.473   5.072
 8659TIP3    H125854   0.929   3.498   5.146
 8659TIP3    H225855   1.067   3.444   5.112
 8660TIP3   OH225856   1.212   3.495   6.024
 8660TIP3    H125857   1.210   3.579   6.069
 8660TIP3    H225858   1.130   3.491   5.976
 8661TIP3   OH225859   0.215   3.436   5.493
 8661TIP3    H125860   0.192   3.379   5.419
 8661TIP3    H225861   0.293   3.395   5.530
 8662TIP3   OH225862   0.413   3.858   5.603
 8662TIP3    H125863   0.403   3.846   5.509
 8662TIP3    H225864   0.498   3.820   5.623
 8663TIP3   OH225865   0.340   3.434   5.863
 8663TIP3    H125866   0.369   3.395   5.781
 8663TIP3    H225867   0.389   3.515   5.870
 8664TIP3   OH225868   0.849   4.075   5.621
 8664TIP3    H125869   0.851   4.157   5.671
 8664TIP3    H225870   0.848   4.006   5.688
 8665TIP3   OH225871   0.538   3.964   6.170
 8665TIP3    H125872   0.482   4.023   6.219
 8665TIP3    H225873   0.478   3.919   6.110
 8666TIP3   OH225874   0.814   3.331   4.909
 8666TIP3    H125875   0.875   3.388   4.956
 8666TIP3    H225876   0.841   3.337   4.817
 8667TIP3   OH225877   0.368   3.604   6.236
 8667TIP3    H125878   0.367   3.686   6.284
 8667TIP3    H225879   0.278   3.592   6.206
 8668TIP3   OH225880   0.549   4.003   5.176
 8668TIP3    H125881   0.637   4.038   5.185
 8668TIP3    H225882   0.505   4.062   5.115
 8669TIP3   OH225883   0.347   4.146   6.250
 8669TIP3    H125884   0.331   4.150   6.156
 8669TIP3    H225885   0.265   4.111   6.287
 8670TIP3   OH225886   1.327   2.555   4.966
 8670TIP3    H125887   1.249   2.577   5.017
 8670TIP3    H225888   1.341   2.631   4.909
 8671TIP3   OH225889   0.108   3.303   5.273
 8671TIP3    H125890   0.046   3.352   5.221
 8671TIP3    H225891   0.058   3.229   5.307
 8672TIP3   OH225892   1.146   3.930   4.521
 8672TIP3    H125893   1.143   4.023   4.497
 8672TIP3    H225894   1.236   3.904   4.502
 8673TIP3   OH225895   9.703   3.716   6.252
 8673TIP3    H125896   9.620   3.723   6.204
 8673TIP3    H225897   9.698   3.631   6.296
 8674TIP3   OH225898   1.542   4.309   5.912
 8674TIP3    H125899   1.549   4.215   5.929
 8674TIP3    H225900   1.465   4.337   5.961
 8675TIP3   OH225901   0.694   4.124   6.015
 8675TIP3    H125902   0.694   4.211   6.053
 8675TIP3    H225903   0.638   4.072   6.072
 8676TIP3   OH225904   0.463   4.205   5.000
 8676TIP3    H125905   0.409   4.220   4.922
 8676TIP3    H225906   0.425   4.262   5.067
 8677TIP3   OH225907   0.029   4.001   5.413
 8677TIP3    H125908   0.051   4.052   5.491
 8677TIP3    H225909  -0.014   3.923   5.447
 8678TIP3   OH225910   0.654   4.149   4.620
 8678TIP3    H125911   0.704   4.074   4.586
 8678TIP3    H225912   0.690   4.163   4.708
 8679TIP3   OH225913   0.711   4.190   4.887
 8679TIP3    H125914   0.627   4.193   4.933
 8679TIP3    H225915   0.773   4.158   4.953
 8680TIP3   OH225916   1.451   3.452   6.189
 8680TIP3    H125917   1.371   3.461   6.137
 8680TIP3    H225918   1.472   3.359   6.184
 8681TIP3   OH225919   0.145   3.836   6.191
 8681TIP3    H125920   0.200   3.852   6.268
 8681TIP3    H225921   0.065   3.799   6.227
 8682TIP3   OH225922   0.464   2.680   5.988
 8682TIP3    H125923   0.380   2.649   5.956
 8682TIP3    H225924   0.443   2.760   6.036
 8683TIP3   OH225925   1.010   2.811   6.192
 8683TIP3    H125926   1.077   2.785   6.255
 8683TIP3    H225927   0.927   2.789   6.234
 8684TIP3   OH225928   1.214   3.228   6.109
 8684TIP3    H125929   1.176   3.225   6.197
 8684TIP3    H225930   1.200   3.318   6.081
 8685TIP3   OH225931   0.889   3.325   4.647
 8685TIP3    H125932   0.849   3.317   4.561
 8685TIP3    H225933   0.975   3.364   4.630
 8686TIP3   OH225934   0.579   2.709   4.947
 8686TIP3    H125935   0.548   2.715   5.037
 8686TIP3    H225936   0.631   2.628   4.945
 8687TIP3   OH225937   0.407   3.206   6.012
 8687TIP3    H125938   0.385   3.224   6.104
 8687TIP3    H225939   0.395   3.291   5.969
 8688TIP3   OH225940   0.303   3.108   5.502
 8688TIP3    H125941   0.212   3.079   5.514
 8688TIP3    H225942   0.327   3.075   5.415
 8689TIP3   OH225943   0.756   3.176   5.247
 8689TIP3    H125944   0.706   3.246   5.206
 8689TIP3    H225945   0.815   3.145   5.178
 8690TIP3   OH225946   0.944   3.439   6.317
 8690TIP3    H125947   0.917   3.373   6.380
 8690TIP3    H225948   1.036   3.456   6.337
 8691TIP3   OH225949   0.917   3.186   5.476
 8691TIP3    H125950   0.852   3.209   5.410
 8691TIP3    H225951   0.966   3.113   5.438
 8692TIP3   OH225952   0.280   3.232   6.264
 8692TIP3    H125953   0.302   3.274   6.347
 8692TIP3    H225954   0.255   3.143   6.289
 8693TIP3   OH225955   0.255   2.716   4.936
 8693TIP3    H125956   0.252   2.722   5.032
 8693TIP3    H225957   0.199   2.787   4.906
 8694TIP3   OH225958   9.765   2.795   5.722
 8694TIP3    H125959   9.794   2.791   5.813
 8694TIP3    H225960   9.765   2.704   5.693
 8695TIP3   OH225961   9.665   2.895   5.342
 8695TIP3    H125962   9.724   2.871   5.271
 8695TIP3    H225963   9.581   2.910   5.298
 8696TIP3   OH225964   0.959   3.438   5.907
 8696TIP3    H125965   0.986   3.372   5.843
 8696TIP3    H225966   0.914   3.388   5.975
 8697TIP3   OH225967   0.640   2.882   5.568
 8697TIP3    H125968   0.565   2.891   5.626
 8697TIP3    H225969   0.715   2.872   5.627
 8698TIP3   OH225970   0.080   2.951   5.510
 8698TIP3    H125971   0.001   2.929   5.461
 8698TIP3    H225972   0.121   2.867   5.528
 8699TIP3   OH225973   0.309   2.965   5.269
 8699TIP3    H125974   0.402   2.978   5.253
 8699TIP3    H225975   0.267   2.988   5.186
 8700TIP3   OH225976   1.081   2.976   5.781
 8700TIP3    H125977   1.062   2.992   5.873
 8700TIP3    H225978   1.014   2.913   5.753
 8701TIP3   OH225979   0.170   2.997   5.040
 8701TIP3    H125980   0.083   2.967   5.014
 8701TIP3    H225981   0.206   3.037   4.961
 8702TIP3   OH225982   1.286   4.680   6.004
 8702TIP3    H125983   1.284   4.690   5.908
 8702TIP3    H225984   1.367   4.724   6.030
 8703TIP3   OH225985   0.325   3.830   6.396
 8703TIP3    H125986   0.380   3.864   6.467
 8703TIP3    H225987   0.267   3.768   6.440
 8704TIP3   OH225988   0.694   3.257   5.674
 8704TIP3    H125989   0.762   3.210   5.625
 8704TIP3    H225990   0.694   3.216   5.761
 8705TIP3   OH225991   0.227   2.711   5.559
 8705TIP3    H125992   0.188   2.641   5.611
 8705TIP3    H225993   0.281   2.665   5.494
 8706TIP3   OH225994   0.669   3.156   5.935
 8706TIP3    H125995   0.582   3.181   5.965
 8706TIP3    H225996   0.729   3.205   5.991
 8707TIP3   OH225997   0.397   3.535   5.044
 8707TIP3    H125998   0.331   3.469   5.023
 8707TIP3    H225999   0.376   3.562   5.133
 8708TIP3   OH226000   1.281   3.775   5.659
 8708TIP3    H126001   1.319   3.823   5.586
 8708TIP3    H226002   1.203   3.733   5.623
 8709TIP3   OH226003   0.835   2.837   4.959
 8709TIP3    H126004   0.740   2.833   4.948
 8709TIP3    H226005   0.853   2.931   4.969
 8710TIP3   OH226006   0.811   3.835   6.080
 8710TIP3    H126007   0.864   3.822   6.158
 8710TIP3    H226008   0.746   3.900   6.105
 8711TIP3   OH226009   0.916   3.096   5.028
 8711TIP3    H126010   1.011   3.098   5.039
 8711TIP3    H226011   0.896   3.174   4.976
 8712TIP3   OH226012   0.097   3.547   5.712
 8712TIP3    H126013   0.133   3.507   5.632
 8712TIP3    H226014   0.157   3.520   5.781
 8713TIP3   OH226015   0.569   3.672   4.881
 8713TIP3    H126016   0.526   3.758   4.880
 8713TIP3    H226017   0.515   3.618   4.939
 8714TIP3   OH226018   9.776   3.458   6.346
 8714TIP3    H126019   9.753   3.455   6.439
 8714TIP3    H226020   9.746   3.373   6.311
 8715TIP3   OH226021   0.716   3.589   6.359
 8715TIP3    H126022   0.651   3.529   6.324
 8715TIP3    H226023   0.800   3.553   6.331
 8716TIP3   OH226024   0.961   4.143   5.952
 8716TIP3    H126025   0.868   4.123   5.955
 8716TIP3    H226026   0.981   4.182   6.037
 8717TIP3   OH226027   1.334   3.189   4.848
 8717TIP3    H126028   1.273   3.146   4.788
 8717TIP3    H226029   1.340   3.279   4.816
 8718TIP3   OH226030   1.576   4.029   5.940
 8718TIP3    H126031   1.483   4.020   5.920
 8718TIP3    H226032   1.620   4.014   5.857
 8719TIP3   OH226033   1.063   4.001   4.781
 8719TIP3    H126034   1.042   3.926   4.836
 8719TIP3    H226035   1.087   3.963   4.696
 8720TIP3   OH226036   1.054   3.636   5.557
 8720TIP3    H126037   0.966   3.613   5.587
 8720TIP3    H226038   1.089   3.555   5.520
 8721TIP3   OH226039   0.283   3.864   5.359
 8721TIP3    H126040   0.308   3.934   5.299
 8721TIP3    H226041   0.200   3.893   5.397
 8722TIP3   OH226042   9.581   3.168   5.054
 8722TIP3    H126043   9.627   3.251   5.064
 8722TIP3    H226044   9.492   3.187   5.086
 8723TIP3   OH226045   0.303   3.604   5.287
 8723TIP3    H126046   0.303   3.695   5.314
 8723TIP3    H226047   0.274   3.556   5.364
 8724TIP3   OH226048   0.530   4.216   5.818
 8724TIP3    H126049   0.572   4.291   5.776
 8724TIP3    H226050   0.600   4.178   5.872
 8725TIP3   OH226051   0.196   4.083   5.203
 8725TIP3    H126052   0.137   4.092   5.277
 8725TIP3    H226053   0.259   4.154   5.213
 8726TIP3   OH226054   0.866   3.862   5.809
 8726TIP3    H126055   0.845   3.855   5.902
 8726TIP3    H226056   0.955   3.829   5.802
 8727TIP3   OH226057   0.836   3.738   4.697
 8727TIP3    H126058   0.891   3.725   4.774
 8727TIP3    H226059   0.751   3.702   4.722
 8728TIP3   OH226060   1.093   4.376   5.856
 8728TIP3    H126061   1.027   4.306   5.860
 8728TIP3    H226062   1.072   4.423   5.775
 8729TIP3   OH226063   1.151   4.202   4.477
 8729TIP3    H126064   1.184   4.268   4.416
 8729TIP3    H226065   1.078   4.245   4.521
 8730TIP3   OH226066   0.261   2.963   6.382
 8730TIP3    H126067   0.181   2.993   6.425
 8730TIP3    H226068   0.297   2.897   6.441
 8731TIP3   OH226069   1.013   3.694   4.908
 8731TIP3    H126070   0.994   3.617   4.962
 8731TIP3    H226071   1.107   3.686   4.888
 8732TIP3   OH226072   9.629   4.134   6.044
 8732TIP3    H126073   9.568   4.062   6.029
 8732TIP3    H226074   9.715   4.093   6.051
 8733TIP3   OH226075   0.209   3.700   4.679
 8733TIP3    H126076   0.223   3.610   4.650
 8733TIP3    H226077   0.199   3.693   4.774
 8734TIP3   OH226078   0.194   3.734   4.952
 8734TIP3    H126079   0.279   3.706   4.986
 8734TIP3    H226080   0.201   3.829   4.943
 8735TIP3   OH226081   9.681   3.407   5.144
 8735TIP3    H126082   9.605   3.443   5.189
 8735TIP3    H226083   9.716   3.480   5.093
 8736TIP3   OH226084   1.025   3.039   6.042
 8736TIP3    H126085   1.103   3.085   6.072
 8736TIP3    H226086   1.020   2.961   6.098
 8737TIP3   OH226087   0.907   2.786   5.225
 8737TIP3    H126088   0.885   2.806   5.134
 8737TIP3    H226089   0.953   2.864   5.257
 8738TIP3   OH226090   0.440   3.910   4.885
 8738TIP3    H126091   0.355   3.949   4.904
 8738TIP3    H226092   0.491   3.982   4.848
 8739TIP3   OH226093   0.582   2.974   5.312
 8739TIP3    H126094   0.642   3.045   5.290
 8739TIP3    H226095   0.603   2.953   5.404
 8740TIP3   OH226096   0.863   3.266   6.101
 8740TIP3    H126097   0.892   3.311   6.180
 8740TIP3    H226098   0.916   3.186   6.098
 8741TIP3   OH226099   0.730   2.669   5.401
 8741TIP3    H126100   0.709   2.745   5.456
 8741TIP3    H226101   0.800   2.700   5.344
 8742TIP3   OH226102   0.189   4.011   4.938
 8742TIP3    H126103   0.150   4.080   4.884
 8742TIP3    H226104   0.187   4.045   5.027
 8743TIP3   OH226105   0.245   2.698   5.217
 8743TIP3    H126106   0.240   2.789   5.248
 8743TIP3    H226107   0.339   2.678   5.217
 8744TIP3   OH226108   1.481   3.181   6.094
 8744TIP3    H126109   1.385   3.185   6.103
 8744TIP3    H226110   1.495   3.131   6.014
 8745TIP3   OH226111   1.143   3.378   5.472
 8745TIP3    H126112   1.067   3.321   5.485
 8745TIP3    H226113   1.211   3.339   5.527
 8746TIP3   OH226114   9.751   3.621   5.001
 8746TIP3    H126115   9.835   3.651   4.966
 8746TIP3    H226116   9.698   3.605   4.923
 8747TIP3   OH226117   9.708   2.860   5.075
 8747TIP3    H126118   9.622   2.899   5.090
 8747TIP3    H226119   9.688   2.776   5.033
 8748TIP3   OH226120   1.125   4.353   5.412
 8748TIP3    H126121   1.081   4.404   5.345
 8748TIP3    H226122   1.218   4.374   5.402
 8749TIP3   OH226123   0.203   2.598   5.943
 8749TIP3    H126124   0.177   2.562   5.858
 8749TIP3    H226125   0.197   2.525   6.004
 8750TIP3   OH226126   9.617   3.760   5.299
 8750TIP3    H126127   9.555   3.831   5.280
 8750TIP3    H226128   9.694   3.782   5.247
 8751TIP3   OH226129   0.420   4.312   6.454
 8751TIP3    H126130   0.508   4.283   6.480
 8751TIP3    H226131   0.398   4.256   6.379
 8752TIP3   OH226132   0.351   3.914   4.584
 8752TIP3    H126133   0.305   3.840   4.623
 8752TIP3    H226134   0.428   3.875   4.543
 8753TIP3   OH226135   1.001   4.246   6.203
 8753TIP3    H126136   1.006   4.171   6.262
 8753TIP3    H226137   1.078   4.298   6.225
 8754TIP3   OH226138   0.784   3.936   4.508
 8754TIP3    H126139   0.819   3.873   4.570
 8754TIP3    H226140   0.842   3.931   4.432
 8755TIP3   OH226141  -0.004   3.753   6.645
 8755TIP3    H126142   0.066   3.713   6.593
 8755TIP3    H226143  -0.042   3.818   6.586
 8756TIP3   OH226144   0.044   3.410   4.808
 8756TIP3    H126145   0.087   3.390   4.891
 8756TIP3    H226146   0.115   3.416   4.744
 8757TIP3   OH226147   0.671   3.863   6.386
 8757TIP3    H126148   0.625   3.884   6.304
 8757TIP3    H226149   0.699   3.772   6.375
 8758TIP3   OH226150   0.549   3.613   4.613
 8758TIP3    H126151   0.547   3.622   4.709
 8758TIP3    H226152   0.542   3.519   4.598
 8759TIP3   OH226153   1.116   3.913   5.990
 8759TIP3    H126154   1.194   3.940   5.943
 8759TIP3    H226155   1.054   3.986   5.978
 8760TIP3   OH226156   0.260   3.422   6.598
 8760TIP3    H126157   0.343   3.374   6.605
 8760TIP3    H226158   0.254   3.472   6.680
 8761TIP3   OH226159   0.213   3.333   5.015
 8761TIP3    H126160   0.196   3.303   5.105
 8761TIP3    H226161   0.251   3.258   4.971
 8762TIP3   OH226162   0.546   3.401   6.231
 8762TIP3    H126163   0.477   3.467   6.239
 8762TIP3    H226164   0.593   3.424   6.151
 8763TIP3   OH226165   0.322   3.138   4.854
 8763TIP3    H126166   0.292   3.145   4.763
 8763TIP3    H226167   0.417   3.148   4.848
 8764TIP3   OH226168   0.993   3.783   6.338
 8764TIP3    H126169   1.069   3.750   6.290
 8764TIP3    H226170   0.992   3.730   6.418
 8765TIP3   OH226171   1.114   3.445   4.538
 8765TIP3    H126172   1.107   3.402   4.453
 8765TIP3    H226173   1.086   3.535   4.521
 8766TIP3   OH226174   0.615   3.175   6.368
 8766TIP3    H126175   0.622   3.101   6.307
 8766TIP3    H226176   0.593   3.249   6.312
 8767TIP3   OH226177   0.622   2.982   6.168
 8767TIP3    H126178   0.652   3.013   6.083
 8767TIP3    H226179   0.532   2.952   6.152
 8768TIP3   OH226180   0.659   3.507   6.011
 8768TIP3    H126181   0.745   3.549   6.001
 8768TIP3    H226182   0.598   3.568   5.971
 8769TIP3   OH226183   1.206   3.473   6.419
 8769TIP3    H126184   1.236   3.382   6.423
 8769TIP3    H226185   1.286   3.523   6.401
 8770TIP3   OH226186   1.236   3.741   6.162
 8770TIP3    H126187   1.183   3.801   6.110
 8770TIP3    H226188   1.325   3.755   6.132
 8771TIP3   OH226189   0.485   3.260   6.591
 8771TIP3    H126190   0.442   3.181   6.624
 8771TIP3    H226191   0.531   3.232   6.512
 8772TIP3   OH226192   0.750   2.741   6.238
 8772TIP3    H126193   0.703   2.824   6.229
 8772TIP3    H226194   0.680   2.676   6.254
 8773TIP3   OH226195   0.862   3.236   6.479
 8773TIP3    H126196   0.852   3.226   6.574
 8773TIP3    H226197   0.779   3.203   6.443
 8774TIP3   OH226198   1.109   3.191   6.354
 8774TIP3    H126199   1.029   3.187   6.407
 8774TIP3    H226200   1.178   3.159   6.413
 8775TIP3   OH226201   1.340   3.149   6.504
 8775TIP3    H126202   1.353   3.055   6.510
 8775TIP3    H226203   1.332   3.178   6.595
 8776TIP3   OH226204   0.359   3.039   6.707
 8776TIP3    H126205   0.380   2.961   6.656
 8776TIP3    H226206   0.407   3.027   6.790
 8777TIP3   OH226207   0.868   2.957   6.665
 8777TIP3    H126208   0.810   2.881   6.662
 8777TIP3    H226209   0.810   3.031   6.681
 8778TIP3   OH226210   0.145   4.242   4.782
 8778TIP3    H126211   0.237   4.218   4.769
 8778TIP3    H226212   0.111   4.257   4.694
 8779TIP3   OH226213   9.353   3.616   5.027
 8779TIP3    H126214   9.394   3.591   5.110
 8779TIP3    H226215   9.267   3.574   5.029
 8780TIP3   OH226216   1.383   4.443   5.402
 8780TIP3    H126217   1.419   4.447   5.491
 8780TIP3    H226218   1.459   4.454   5.345
 8781TIP3   OH226219   1.415   4.432   5.687
 8781TIP3    H126220   1.366   4.351   5.677
 8781TIP3    H226221   1.485   4.410   5.749
 8782TIP3   OH226222   1.459   4.135   6.271
 8782TIP3    H126223   1.391   4.145   6.337
 8782TIP3    H226224   1.507   4.218   6.273
 8783TIP3   OH226225   1.285   3.656   4.872
 8783TIP3    H126226   1.345   3.723   4.840
 8783TIP3    H226227   1.333   3.614   4.944
 8784TIP3   OH226228   1.418   3.511   5.069
 8784TIP3    H126229   1.352   3.473   5.127
 8784TIP3    H226230   1.484   3.547   5.128
 8785TIP3   OH226231   1.466   3.914   5.500
 8785TIP3    H126232   1.518   3.840   5.467
 8785TIP3    H226233   1.485   3.986   5.440
 8786TIP3   OH226234   1.261   4.202   5.691
 8786TIP3    H126235   1.193   4.242   5.745
 8786TIP3    H226236   1.213   4.160   5.620
 8787TIP3   OH226237   1.324   3.430   4.715
 8787TIP3    H126238   1.252   3.428   4.651
 8787TIP3    H226239   1.306   3.508   4.767
 8788TIP3   OH226240   1.164   3.092   4.659
 8788TIP3    H126241   1.121   3.113   4.576
 8788TIP3    H226242   1.155   2.997   4.667
 8789TIP3   OH226243   1.210   3.371   5.202
 8789TIP3    H126244   1.218   3.277   5.188
 8789TIP3    H226245   1.193   3.380   5.296
 8790TIP3   OH226246   9.601   3.461   5.941
 8790TIP3    H126247   9.618   3.409   5.862
 8790TIP3    H226248   9.683   3.506   5.958
 8791TIP3   OH226249   1.495   3.787   6.072
 8791TIP3    H126250   1.558   3.717   6.054
 8791TIP3    H226251   1.525   3.861   6.019
 8792TIP3   OH226252   1.664   3.571   6.061
 8792TIP3    H126253   1.591   3.529   6.107
 8792TIP3    H226254   1.740   3.515   6.080
 8793TIP3   OH226255   1.125   2.825   4.668
 8793TIP3    H126256   1.200   2.786   4.713
 8793TIP3    H226257   1.059   2.756   4.668
 8794TIP3   OH226258   1.204   3.093   5.086
 8794TIP3    H126259   1.250   3.010   5.101
 8794TIP3    H226260   1.248   3.131   5.010
 8795TIP3   OH226261   1.357   3.259   5.614
 8795TIP3    H126262   1.439   3.276   5.566
 8795TIP3    H226263   1.372   3.297   5.701
 8796TIP3   OH226264   1.431   3.404   5.845
 8796TIP3    H126265   1.359   3.433   5.900
 8796TIP3    H226266   1.462   3.484   5.802
 8797TIP3   OH226267   0.104   3.072   6.599
 8797TIP3    H126268   0.192   3.085   6.634
 8797TIP3    H226269   0.053   3.145   6.635
 8798TIP3   OH226270   1.895   3.002   6.384
 8798TIP3    H126271   1.960   2.948   6.339
 8798TIP3    H226272   1.855   3.053   6.314
 8799TIP3   OH226273   1.320   2.846   5.143
 8799TIP3    H126274   1.365   2.828   5.226
 8799TIP3    H226275   1.258   2.774   5.133
 8800TIP3   OH226276   0.058   2.826   5.981
 8800TIP3    H126277   0.108   2.745   5.990
 8800TIP3    H226278   0.123   2.892   5.957
 8801TIP3   OH226279   9.570   3.120   6.010
 8801TIP3    H126280   9.653   3.167   6.009
 8801TIP3    H226281   9.503   3.189   6.015
 8802TIP3   OH226282   1.742   3.118   6.191
 8802TIP3    H126283   1.660   3.160   6.218
 8802TIP3    H226284   1.714   3.045   6.135
 8803TIP3   OH226285   1.371   2.757   4.784
 8803TIP3    H126286   1.413   2.694   4.726
 8803TIP3    H226287   1.428   2.833   4.783
 8804TIP3   OH226288   9.649   2.573   5.599
 8804TIP3    H126289   9.594   2.597   5.673
 8804TIP3    H226290   9.607   2.614   5.523
 8805TIP3   OH226291   0.945   4.315   5.052
 8805TIP3    H126292   1.002   4.304   4.975
 8805TIP3    H226293   0.991   4.380   5.106
 8806TIP3   OH226294   0.050   2.643   6.422
 8806TIP3    H126295   0.047   2.695   6.502
 8806TIP3    H226296   0.008   2.698   6.356
 8807TIP3   OH226297   0.118   4.085   6.384
 8807TIP3    H126298   0.068   4.160   6.415
 8807TIP3    H226299   0.153   4.045   6.464
 8808TIP3   OH226300   0.320   4.165   5.983
 8808TIP3    H126301   0.246   4.202   5.934
 8808TIP3    H226302   0.396   4.185   5.929
 8809TIP3   OH226303   0.701   4.379   6.104
 8809TIP3    H126304   0.736   4.374   6.193
 8809TIP3    H226305   0.764   4.434   6.057
 8810TIP3   OH226306   0.882   4.544   5.981
 8810TIP3    H126307   0.951   4.491   5.941
 8810TIP3    H226308   0.929   4.604   6.039
 8811TIP3   OH226309   1.652   2.875   6.077
 8811TIP3    H126310   1.567   2.874   6.033
 8811TIP3    H226311   1.684   2.785   6.070
 8812TIP3   OH226312   0.160   4.331   5.830
 8812TIP3    H126313   0.087   4.345   5.889
 8812TIP3    H226314   0.138   4.380   5.751
 8813TIP3   OH226315   0.604   4.434   5.664
 8813TIP3    H126316   0.525   4.435   5.611
 8813TIP3    H226317   0.605   4.518   5.709
 8814TIP3   OH226318   0.853   4.336   5.703
 8814TIP3    H126319   0.763   4.368   5.689
 8814TIP3    H226320   0.909   4.403   5.664
 8815TIP3   OH226321   1.045   4.516   5.618
 8815TIP3    H126322   1.042   4.604   5.579
 8815TIP3    H226323   1.077   4.460   5.547
 8816TIP3   OH226324   9.659   4.148   5.770
 8816TIP3    H126325   9.656   4.151   5.865
 8816TIP3    H226326   9.750   4.128   5.749
 8817TIP3   OH226327   0.097   4.076   5.668
 8817TIP3    H126328   0.114   3.982   5.671
 8817TIP3    H226329   0.183   4.116   5.659
 8818TIP3   OH226330   0.367   4.129   5.622
 8818TIP3    H126331   0.385   4.036   5.608
 8818TIP3    H226332   0.423   4.155   5.695
 8819TIP3   OH226333   0.864   2.790   5.707
 8819TIP3    H126334   0.827   2.718   5.759
 8819TIP3    H226335   0.934   2.749   5.656
 8820TIP3   OH226336   1.364   2.719   5.610
 8820TIP3    H126337   1.399   2.764   5.534
 8820TIP3    H226338   1.269   2.733   5.605
 8821TIP3   OH226339   1.474   2.788   5.368
 8821TIP3    H126340   1.542   2.727   5.340
 8821TIP3    H226341   1.512   2.875   5.355
 8822TIP3   OH226342   0.116   2.496   5.699
 8822TIP3    H126343   0.026   2.466   5.685
 8822TIP3    H226344   0.168   2.416   5.703
 8823TIP3   OH226345   9.705   2.400   5.382
 8823TIP3    H126346   9.752   2.443   5.311
 8823TIP3    H226347   9.718   2.458   5.457
 8824TIP3   OH226348   0.576   2.541   5.602
 8824TIP3    H126349   0.631   2.581   5.535
 8824TIP3    H226350   0.618   2.566   5.685
 8825TIP3   OH226351   1.079   2.675   5.575
 8825TIP3    H126352   1.096   2.638   5.488
 8825TIP3    H226353   1.082   2.599   5.634
 8826TIP3   OH226354   1.132   2.640   5.140
 8826TIP3    H126355   1.051   2.687   5.162
 8826TIP3    H226356   1.124   2.556   5.186
 8827TIP3   OH226357   0.026   2.533   5.158
 8827TIP3    H126358   0.067   2.466   5.104
 8827TIP3    H226359   0.098   2.590   5.184
 8828TIP3   OH226360   0.523   2.722   5.218
 8828TIP3    H126361   0.583   2.672   5.273
 8828TIP3    H226362   0.539   2.813   5.243
 8829TIP3   OH226363   0.395   4.152   4.717
 8829TIP3    H126364   0.481   4.171   4.680
 8829TIP3    H226365   0.366   4.073   4.672
 8830TIP3   OH226366   1.097   4.269   4.823
 8830TIP3    H126367   1.091   4.174   4.815
 8830TIP3    H226368   1.060   4.303   4.742
 8831TIP3   OH226369   0.358   2.781   6.575
 8831TIP3    H126370   0.319   2.717   6.635
 8831TIP3    H226371   0.450   2.784   6.600
 8832TIP3   OH226372   9.606   4.070   4.788
 8832TIP3    H126373   9.596   4.042   4.879
 8832TIP3    H226374   9.670   4.008   4.751
 8833TIP3   OH226375   1.403   2.881   6.507
 8833TIP3    H126376   1.418   2.850   6.597
 8833TIP3    H226377   1.489   2.873   6.465
 8834TIP3   OH226378   1.310   4.405   6.024
 8834TIP3    H126379   1.236   4.382   5.968
 8834TIP3    H226380   1.309   4.500   6.027
 8835TIP3   OH226381   2.597   3.800   4.742
 8835TIP3    H126382   2.565   3.887   4.719
 8835TIP3    H226383   2.524   3.741   4.721
 8836TIP3   OH226384   2.597   3.787   5.171
 8836TIP3    H126385   2.647   3.770   5.250
 8836TIP3    H226386   2.550   3.706   5.154
 8837TIP3   OH226387   1.887   3.654   5.521
 8837TIP3    H126388   1.923   3.598   5.590
 8837TIP3    H226389   1.964   3.684   5.472
 8838TIP3   OH226390   2.861   4.083   4.834
 8838TIP3    H126391   2.846   4.024   4.908
 8838TIP3    H226392   2.884   4.167   4.875
 8839TIP3   OH226393   1.844   4.073   5.253
 8839TIP3    H126394   1.851   3.980   5.234
 8839TIP3    H226395   1.921   4.092   5.307
 8840TIP3   OH226396   1.567   3.282   4.988
 8840TIP3    H126397   1.528   3.366   5.012
 8840TIP3    H226398   1.495   3.233   4.948
 8841TIP3   OH226399   1.647   3.596   5.212
 8841TIP3    H126400   1.697   3.519   5.237
 8841TIP3    H226401   1.713   3.662   5.190
 8842TIP3   OH226402   2.512   4.545   4.841
 8842TIP3    H126403   2.540   4.462   4.801
 8842TIP3    H226404   2.535   4.536   4.934
 8843TIP3   OH226405   2.401   4.010   5.192
 8843TIP3    H126406   2.447   3.934   5.156
 8843TIP3    H226407   2.470   4.062   5.233
 8844TIP3   OH226408   3.429   3.335   5.198
 8844TIP3    H126409   3.448   3.417   5.243
 8844TIP3    H226410   3.443   3.355   5.105
 8845TIP3   OH226411   2.811   3.498   5.213
 8845TIP3    H126412   2.841   3.411   5.241
 8845TIP3    H226413   2.769   3.482   5.128
 8846TIP3   OH226414   2.163   3.153   5.172
 8846TIP3    H126415   2.139   3.228   5.117
 8846TIP3    H226416   2.108   3.081   5.140
 8847TIP3   OH226417   2.854   3.257   4.815
 8847TIP3    H126418   2.917   3.250   4.887
 8847TIP3    H226419   2.905   3.291   4.741
 8848TIP3   OH226420   1.783   3.372   5.302
 8848TIP3    H126421   1.866   3.352   5.346
 8848TIP3    H226422   1.786   3.320   5.222
 8849TIP3   OH226423   2.205   3.578   5.121
 8849TIP3    H126424   2.299   3.561   5.127
 8849TIP3    H226425   2.167   3.495   5.091
 8850TIP3   OH226426   3.486   3.556   5.359
 8850TIP3    H126427   3.396   3.588   5.356
 8850TIP3    H226428   3.520   3.585   5.443
 8851TIP3   OH226429   2.140   3.161   5.624
 8851TIP3    H126430   2.090   3.196   5.551
 8851TIP3    H226431   2.085   3.176   5.700
 8852TIP3   OH226432   2.492   4.018   4.606
 8852TIP3    H126433   2.449   3.986   4.527
 8852TIP3    H226434   2.439   4.093   4.633
 8853TIP3   OH226435   2.235   3.946   5.405
 8853TIP3    H126436   2.182   4.020   5.433
 8853TIP3    H226437   2.286   3.979   5.331
 8854TIP3   OH226438   3.017   3.279   5.032
 8854TIP3    H126439   2.974   3.256   5.114
 8854TIP3    H226440   3.070   3.356   5.054
 8855TIP3   OH226441   2.030   3.264   5.391
 8855TIP3    H126442   2.083   3.341   5.412
 8855TIP3    H226443   2.077   3.220   5.320
 8856TIP3   OH226444   2.075   4.165   5.466
 8856TIP3    H126445   2.122   4.248   5.473
 8856TIP3    H226446   2.006   4.171   5.532
 8857TIP3   OH226447   1.458   3.840   4.752
 8857TIP3    H126448   1.427   3.858   4.664
 8857TIP3    H226449   1.481   3.926   4.788
 8858TIP3   OH226450   2.917   4.321   4.970
 8858TIP3    H126451   2.844   4.317   5.031
 8858TIP3    H226452   2.930   4.415   4.954
 8859TIP3   OH226453   3.227   3.223   5.363
 8859TIP3    H126454   3.142   3.244   5.324
 8859TIP3    H226455   3.291   3.252   5.298
 8860TIP3   OH226456   2.485   2.859   5.352
 8860TIP3    H126457   2.479   2.766   5.375
 8860TIP3    H226458   2.408   2.898   5.393
 8861TIP3   OH226459   2.609   4.363   4.642
 8861TIP3    H126460   2.665   4.287   4.627
 8861TIP3    H226461   2.663   4.438   4.619
 8862TIP3   OH226462   2.748   4.130   4.585
 8862TIP3    H126463   2.667   4.080   4.591
 8862TIP3    H226464   2.795   4.109   4.665
 8863TIP3   OH226465   2.420   3.635   4.601
 8863TIP3    H126466   2.336   3.677   4.583
 8863TIP3    H226467   2.465   3.633   4.516
 8864TIP3   OH226468   2.390   3.433   4.280
 8864TIP3    H126469   2.449   3.483   4.338
 8864TIP3    H226470   2.445   3.363   4.245
 8865TIP3   OH226471   3.305   3.900   5.205
 8865TIP3    H126472   3.220   3.945   5.204
 8865TIP3    H226473   3.337   3.907   5.115
 8866TIP3   OH226474   2.782   3.720   4.560
 8866TIP3    H126475   2.725   3.754   4.629
 8866TIP3    H226476   2.862   3.694   4.605
 8867TIP3   OH226477   3.009   3.753   5.510
 8867TIP3    H126478   3.008   3.837   5.554
 8867TIP3    H226479   2.926   3.750   5.462
 8868TIP3   OH226480   2.005   3.705   4.966
 8868TIP3    H126481   1.972   3.644   4.901
 8868TIP3    H226482   2.078   3.660   5.007
 8869TIP3   OH226483   2.161   4.162   5.103
 8869TIP3    H126484   2.140   4.135   5.013
 8869TIP3    H226485   2.241   4.113   5.124
 8870TIP3   OH226486   2.102   3.711   5.344
 8870TIP3    H126487   2.143   3.679   5.264
 8870TIP3    H226488   2.149   3.792   5.364
 8871TIP3   OH226489   2.705   4.319   5.140
 8871TIP3    H126490   2.651   4.397   5.134
 8871TIP3    H226491   2.659   4.262   5.201
 8872TIP3   OH226492   2.611   3.580   4.394
 8872TIP3    H126493   2.668   3.638   4.444
 8872TIP3    H226494   2.642   3.586   4.304
 8873TIP3   OH226495   2.027   3.791   5.818
 8873TIP3    H126496   2.028   3.886   5.826
 8873TIP3    H226497   1.935   3.769   5.805
 8874TIP3   OH226498   2.356   4.255   4.644
 8874TIP3    H126499   2.439   4.302   4.655
 8874TIP3    H226500   2.298   4.318   4.601
 8875TIP3   OH226501   3.117   2.813   4.449
 8875TIP3    H126502   3.041   2.830   4.504
 8875TIP3    H226503   3.124   2.890   4.392
 8876TIP3   OH226504   1.887   3.546   4.759
 8876TIP3    H126505   1.809   3.593   4.731
 8876TIP3    H226506   1.855   3.458   4.782
 8877TIP3   OH226507   2.938   4.179   4.009
 8877TIP3    H126508   2.929   4.273   3.990
 8877TIP3    H226509   3.030   4.160   3.992
 8878TIP3   OH226510   1.670   3.957   5.696
 8878TIP3    H126511   1.601   3.937   5.632
 8878TIP3    H226512   1.704   3.871   5.722
 8879TIP3   OH226513   1.578   4.122   5.340
 8879TIP3    H126514   1.663   4.098   5.303
 8879TIP3    H226515   1.597   4.195   5.399
 8880TIP3   OH226516   2.246   4.469   4.478
 8880TIP3    H126517   2.202   4.453   4.395
 8880TIP3    H226518   2.213   4.554   4.508
 8881TIP3   OH226519   1.680   4.334   4.862
 8881TIP3    H126520   1.728   4.322   4.944
 8881TIP3    H226521   1.634   4.251   4.849
 8882TIP3   OH226522   2.449   4.410   4.107
 8882TIP3    H126523   2.500   4.337   4.073
 8882TIP3    H226524   2.484   4.425   4.195
 8883TIP3   OH226525   2.502   4.453   4.378
 8883TIP3    H126526   2.416   4.454   4.418
 8883TIP3    H226527   2.561   4.423   4.447
 8884TIP3   OH226528   3.251   3.701   5.667
 8884TIP3    H126529   3.169   3.715   5.620
 8884TIP3    H226530   3.267   3.607   5.661
 8885TIP3   OH226531   1.859   4.155   5.651
 8885TIP3    H126532   1.916   4.147   5.727
 8885TIP3    H226533   1.793   4.087   5.662
 8886TIP3   OH226534   2.246   2.944   5.482
 8886TIP3    H126535   2.164   2.909   5.449
 8886TIP3    H226536   2.222   3.025   5.527
 8887TIP3   OH226537   2.784   3.066   5.680
 8887TIP3    H126538   2.852   3.043   5.742
 8887TIP3    H226539   2.702   3.051   5.728
 8888TIP3   OH226540   3.006   3.488   5.601
 8888TIP3    H126541   2.966   3.479   5.687
 8888TIP3    H226542   2.988   3.578   5.575
 8889TIP3   OH226543   2.711   3.588   4.136
 8889TIP3    H126544   2.668   3.571   4.053
 8889TIP3    H226545   2.743   3.678   4.129
 8890TIP3   OH226546   2.402   2.977   4.442
 8890TIP3    H126547   2.367   2.986   4.530
 8890TIP3    H226548   2.356   2.901   4.405
 8891TIP3   OH226549   2.180   3.479   5.476
 8891TIP3    H126550   2.139   3.485   5.562
 8891TIP3    H226551   2.157   3.561   5.432
 8892TIP3   OH226552   2.063   3.360   5.021
 8892TIP3    H126553   1.974   3.334   5.045
 8892TIP3    H226554   2.075   3.328   4.932
 8893TIP3   OH226555   2.544   3.435   4.742
 8893TIP3    H126556   2.496   3.507   4.700
 8893TIP3    H226557   2.600   3.399   4.672
 8894TIP3   OH226558   2.743   3.683   5.795
 8894TIP3    H126559   2.716   3.621   5.862
 8894TIP3    H226560   2.828   3.715   5.824
 8895TIP3   OH226561   2.710   3.447   4.964
 8895TIP3    H126562   2.642   3.468   4.900
 8895TIP3    H226563   2.756   3.372   4.926
 8896TIP3   OH226564   2.013   3.478   5.699
 8896TIP3    H126565   2.074   3.529   5.752
 8896TIP3    H226566   1.995   3.399   5.752
 8897TIP3   OH226567   2.030   2.938   4.395
 8897TIP3    H126568   2.018   2.988   4.476
 8897TIP3    H226569   2.048   3.004   4.328
 8898TIP3   OH226570   1.606   3.010   5.292
 8898TIP3    H126571   1.681   3.045   5.341
 8898TIP3    H226572   1.641   2.990   5.206
 8899TIP3   OH226573   1.525   2.991   4.787
 8899TIP3    H126574   1.575   3.021   4.711
 8899TIP3    H226575   1.463   3.062   4.805
 8900TIP3   OH226576   2.758   3.699   5.386
 8900TIP3    H126577   2.784   3.632   5.322
 8900TIP3    H226578   2.713   3.650   5.455
 8901TIP3   OH226579   2.432   3.151   5.066
 8901TIP3    H126580   2.353   3.147   5.119
 8901TIP3    H226581   2.504   3.138   5.128
 8902TIP3   OH226582   1.826   3.229   5.071
 8902TIP3    H126583   1.738   3.234   5.033
 8902TIP3    H226584   1.854   3.139   5.056
 8903TIP3   OH226585   2.086   3.240   4.778
 8903TIP3    H126586   2.181   3.246   4.766
 8903TIP3    H226587   2.050   3.260   4.692
 8904TIP3   OH226588   2.874   3.233   5.269
 8904TIP3    H126589   2.855   3.250   5.361
 8904TIP3    H226590   2.806   3.171   5.242
 8905TIP3   OH226591   1.961   3.267   4.538
 8905TIP3    H126592   1.877   3.232   4.509
 8905TIP3    H226593   2.007   3.288   4.457
 8906TIP3   OH226594   3.113   4.931   5.537
 8906TIP3    H126595   3.124   4.842   5.503
 8906TIP3    H226596   3.040   4.924   5.598
 8907TIP3   OH226597   2.007   4.059   5.891
 8907TIP3    H126598   2.091   4.083   5.930
 8907TIP3    H226599   1.944   4.072   5.961
 8908TIP3   OH226600   2.478   3.520   5.168
 8908TIP3    H126601   2.541   3.468   5.118
 8908TIP3    H226602   2.473   3.476   5.254
 8909TIP3   OH226603   1.968   2.980   5.057
 8909TIP3    H126604   1.941   2.904   5.108
 8909TIP3    H226605   1.987   2.945   4.970
 8910TIP3   OH226606   2.446   3.416   5.429
 8910TIP3    H126607   2.359   3.448   5.451
 8910TIP3    H226608   2.505   3.468   5.484
 8911TIP3   OH226609   2.181   3.763   4.543
 8911TIP3    H126610   2.108   3.706   4.517
 8911TIP3    H226611   2.151   3.806   4.623
 8912TIP3   OH226612   3.063   4.032   5.180
 8912TIP3    H126613   3.098   4.091   5.114
 8912TIP3    H226614   2.986   3.992   5.139
 8913TIP3   OH226615   2.652   3.086   4.452
 8913TIP3    H126616   2.560   3.059   4.448
 8913TIP3    H226617   2.649   3.181   4.464
 8914TIP3   OH226618   2.704   3.351   4.527
 8914TIP3    H126619   2.799   3.358   4.538
 8914TIP3    H226620   2.680   3.426   4.473
 8915TIP3   OH226621   1.869   3.787   5.196
 8915TIP3    H126622   1.907   3.772   5.110
 8915TIP3    H226623   1.936   3.759   5.258
 8916TIP3   OH226624   2.333   3.930   4.390
 8916TIP3    H126625   2.285   4.013   4.387
 8916TIP3    H226626   2.278   3.872   4.443
 8917TIP3   OH226627   1.751   3.726   5.834
 8917TIP3    H126628   1.762   3.699   5.925
 8917TIP3    H226629   1.677   3.674   5.803
 8918TIP3   OH226630   2.506   3.816   5.861
 8918TIP3    H126631   2.452   3.832   5.783
 8918TIP3    H226632   2.591   3.788   5.827
 8919TIP3   OH226633   3.137   3.426   4.354
 8919TIP3    H126634   3.068   3.383   4.304
 8919TIP3    H226635   3.136   3.517   4.324
 8920TIP3   OH226636   2.863   4.262   4.279
 8920TIP3    H126637   2.832   4.200   4.344
 8920TIP3    H226638   2.876   4.210   4.200
 8921TIP3   OH226639   2.842   3.894   5.056
 8921TIP3    H126640   2.752   3.868   5.078
 8921TIP3    H226641   2.881   3.816   5.017
 8922TIP3   OH226642   2.002   4.132   4.857
 8922TIP3    H126643   1.996   4.207   4.798
 8922TIP3    H226644   1.927   4.141   4.916
 8923TIP3   OH226645   1.564   3.409   4.579
 8923TIP3    H126646   1.607   3.492   4.600
 8923TIP3    H226647   1.481   3.412   4.627
 8924TIP3   OH226648   2.077   3.884   4.761
 8924TIP3    H126649   2.062   3.974   4.791
 8924TIP3    H226650   2.054   3.830   4.837
 8925TIP3   OH226651   1.910   4.355   4.709
 8925TIP3    H126652   1.825   4.359   4.753
 8925TIP3    H226653   1.944   4.444   4.713
 8926TIP3   OH226654   2.648   4.092   5.303
 8926TIP3    H126655   2.698   4.106   5.382
 8926TIP3    H226656   2.705   4.040   5.247
 8927TIP3   OH226657   2.629   3.983   4.152
 8927TIP3    H126658   2.677   3.949   4.228
 8927TIP3    H226659   2.541   3.945   4.161
 8928TIP3   OH226660   2.933   4.454   3.965
 8928TIP3    H126661   2.947   4.511   3.889
 8928TIP3    H226662   2.866   4.498   4.017
 8929TIP3   OH226663   1.968   3.230   5.832
 8929TIP3    H126664   1.873   3.240   5.838
 8929TIP3    H226665   1.992   3.178   5.910
 8930TIP3   OH226666   2.806   3.861   4.324
 8930TIP3    H126667   2.793   3.828   4.412
 8930TIP3    H226668   2.900   3.881   4.320
 8931TIP3   OH226669   1.703   4.338   5.485
 8931TIP3    H126670   1.761   4.284   5.539
 8931TIP3    H226671   1.721   4.428   5.512
 8932TIP3   OH226672   1.976   3.969   4.180
 8932TIP3    H126673   1.984   3.877   4.153
 8932TIP3    H226674   1.964   3.964   4.275
 8933TIP3   OH226675   1.919   3.977   4.453
 8933TIP3    H126676   1.978   3.952   4.525
 8933TIP3    H226677   1.918   4.072   4.456
 8934TIP3   OH226678   1.655   3.664   4.656
 8934TIP3    H126679   1.592   3.710   4.711
 8934TIP3    H226680   1.673   3.723   4.583
 8935TIP3   OH226681   2.817   3.296   5.530
 8935TIP3    H126682   2.893   3.342   5.566
 8935TIP3    H226683   2.806   3.219   5.587
 8936TIP3   OH226684   2.710   3.038   4.722
 8936TIP3    H126685   2.689   3.057   4.630
 8936TIP3    H226686   2.751   3.118   4.754
 8937TIP3   OH226687   2.188   4.157   4.377
 8937TIP3    H126688   2.104   4.182   4.418
 8937TIP3    H226689   2.215   4.235   4.329
 8938TIP3   OH226690   2.364   3.239   4.811
 8938TIP3    H126691   2.425   3.309   4.787
 8938TIP3    H226692   2.385   3.219   4.903
 8939TIP3   OH226693   2.651   3.533   5.578
 8939TIP3    H126694   2.679   3.578   5.657
 8939TIP3    H226695   2.702   3.451   5.578
 8940TIP3   OH226696   2.519   2.942   4.899
 8940TIP3    H126697   2.497   3.019   4.951
 8940TIP3    H226698   2.589   2.971   4.840
 8941TIP3   OH226699   1.940   4.249   4.459
 8941TIP3    H126700   1.920   4.320   4.398
 8941TIP3    H226701   1.929   4.288   4.546
 8942TIP3   OH226702   2.036   2.974   4.692
 8942TIP3    H126703   2.030   3.062   4.730
 8942TIP3    H226704   2.129   2.955   4.689
 8943TIP3   OH226705   3.268   3.426   5.570
 8943TIP3    H126706   3.174   3.439   5.585
 8943TIP3    H226707   3.272   3.361   5.500
 8944TIP3   OH226708   2.937   3.637   4.962
 8944TIP3    H126709   2.858   3.585   4.976
 8944TIP3    H226710   3.002   3.597   5.019
 8945TIP3   OH226711   1.676   3.842   4.440
 8945TIP3    H126712   1.748   3.905   4.450
 8945TIP3    H226713   1.709   3.779   4.376
 8946TIP3   OH226714   1.597   3.133   4.557
 8946TIP3    H126715   1.591   3.228   4.567
 8946TIP3    H226716   1.524   3.111   4.499
 8947TIP3   OH226717   2.948   4.605   4.942
 8947TIP3    H126718   2.890   4.652   4.882
 8947TIP3    H226719   3.036   4.630   4.915
 8948TIP3   OH226720   1.985   2.855   5.441
 8948TIP3    H126721   1.956   2.824   5.355
 8948TIP3    H226722   1.979   2.778   5.497
 8949TIP3   OH226723   1.504   4.110   4.836
 8949TIP3    H126724   1.464   4.148   4.915
 8949TIP3    H226725   1.462   4.155   4.764
 8950TIP3   OH226726   1.723   4.661   5.897
 8950TIP3    H126727   1.803   4.681   5.945
 8950TIP3    H226728   1.721   4.565   5.894
 8951TIP3   OH226729   2.150   4.561   5.894
 8951TIP3    H126730   2.188   4.479   5.925
 8951TIP3    H226731   2.177   4.568   5.803
 8952TIP3   OH226732   2.132   4.164   4.061
 8952TIP3    H126733   2.085   4.096   4.110
 8952TIP3    H226734   2.206   4.118   4.022
 8953TIP3   OH226735   2.577   4.198   3.987
 8953TIP3    H126736   2.613   4.132   4.046
 8953TIP3    H226737   2.635   4.197   3.911
 8954TIP3   OH226738   1.809   4.048   6.093
 8954TIP3    H126739   1.835   3.956   6.101
 8954TIP3    H226740   1.723   4.046   6.052
 8955TIP3   OH226741   1.800   3.654   4.285
 8955TIP3    H126742   1.853   3.623   4.358
 8955TIP3    H226743   1.864   3.670   4.215
 8956TIP3   OH226744   2.374   3.869   4.127
 8956TIP3    H126745   2.350   3.885   4.218
 8956TIP3    H226746   2.346   3.779   4.111
 8957TIP3   OH226747   2.906   4.163   5.445
 8957TIP3    H126748   2.952   4.158   5.361
 8957TIP3    H226749   2.887   4.256   5.456
 8958TIP3   OH226750   1.922   3.793   6.094
 8958TIP3    H126751   1.992   3.786   6.029
 8958TIP3    H226752   1.967   3.811   6.176
 8959TIP3   OH226753   1.983   3.574   4.484
 8959TIP3    H126754   1.961   3.547   4.573
 8959TIP3    H226755   2.025   3.498   4.445
 8960TIP3   OH226756   2.241   3.638   5.739
 8960TIP3    H126757   2.177   3.701   5.772
 8960TIP3    H226758   2.299   3.689   5.683
 8961TIP3   OH226759   2.115   3.357   4.328
 8961TIP3    H126760   2.103   3.289   4.261
 8961TIP3    H226761   2.206   3.384   4.320
 8962TIP3   OH226762   2.791   4.030   5.870
 8962TIP3    H126763   2.883   4.056   5.878
 8962TIP3    H226764   2.775   3.976   5.947
 8963TIP3   OH226765   2.938   3.677   3.953
 8963TIP3    H126766   2.901   3.653   3.868
 8963TIP3    H226767   2.911   3.767   3.967
 8964TIP3   OH226768   2.394   3.445   5.862
 8964TIP3    H126769   2.400   3.372   5.800
 8964TIP3    H226770   2.349   3.514   5.814
 8965TIP3   OH226771   2.400   3.245   5.659
 8965TIP3    H126772   2.427   3.281   5.575
 8965TIP3    H226773   2.309   3.219   5.646
 8966TIP3   OH226774   2.398   3.801   5.581
 8966TIP3    H126775   2.482   3.805   5.537
 8966TIP3    H226776   2.340   3.856   5.528
 8967TIP3   OH226777   3.000   3.728   5.914
 8967TIP3    H126778   3.050   3.646   5.920
 8967TIP3    H226779   3.062   3.792   5.880
 8968TIP3   OH226780   3.044   4.003   5.631
 8968TIP3    H126781   2.984   4.058   5.582
 8968TIP3    H226782   3.131   4.022   5.595
 8969TIP3   OH226783   2.279   3.524   6.108
 8969TIP3    H126784   2.209   3.461   6.122
 8969TIP3    H226785   2.308   3.508   6.018
 8970TIP3   OH226786   2.520   3.017   5.765
 8970TIP3    H126787   2.480   3.096   5.730
 8970TIP3    H226788   2.454   2.949   5.750
 8971TIP3   OH226789   2.652   3.485   5.964
 8971TIP3    H126790   2.639   3.475   6.058
 8971TIP3    H226791   2.565   3.471   5.926
 8972TIP3   OH226792   2.895   3.425   5.838
 8972TIP3    H126793   2.816   3.432   5.891
 8972TIP3    H226794   2.965   3.409   5.901
 8973TIP3   OH226795   3.135   3.408   5.987
 8973TIP3    H126796   3.147   3.313   5.993
 8973TIP3    H226797   3.129   3.436   6.078
 8974TIP3   OH226798   2.105   3.309   6.170
 8974TIP3    H126799   2.112   3.221   6.133
 8974TIP3    H226800   2.146   3.302   6.256
 8975TIP3   OH226801   2.586   2.988   6.029
 8975TIP3    H126802   2.654   2.922   6.021
 8975TIP3    H226803   2.556   3.003   5.939
 8976TIP3   OH226804   2.683   3.202   6.175
 8976TIP3    H126805   2.652   3.132   6.118
 8976TIP3    H226806   2.613   3.267   6.174
 8977TIP3   OH226807   1.935   4.456   4.275
 8977TIP3    H126808   2.026   4.437   4.251
 8977TIP3    H226809   1.899   4.502   4.199
 8978TIP3   OH226810   1.403   3.843   4.468
 8978TIP3    H126811   1.498   3.854   4.459
 8978TIP3    H226812   1.384   3.760   4.424
 8979TIP3   OH226813   1.305   4.419   4.925
 8979TIP3    H126814   1.241   4.364   4.879
 8979TIP3    H226815   1.349   4.359   4.985
 8980TIP3   OH226816   1.452   4.251   5.092
 8980TIP3    H126817   1.449   4.181   5.157
 8980TIP3    H226818   1.504   4.320   5.133
 8981TIP3   OH226819   3.206   4.677   4.880
 8981TIP3    H126820   3.213   4.763   4.923
 8981TIP3    H226821   3.259   4.686   4.801
 8982TIP3   OH226822   3.234   4.394   5.769
 8982TIP3    H126823   3.159   4.400   5.829
 8982TIP3    H226824   3.270   4.482   5.766
 8983TIP3   OH226825   3.088   3.877   4.327
 8983TIP3    H126826   3.134   3.958   4.306
 8983TIP3    H226827   3.126   3.848   4.410
 8984TIP3   OH226828   3.203   3.749   4.551
 8984TIP3    H126829   3.132   3.713   4.604
 8984TIP3    H226830   3.261   3.792   4.614
 8985TIP3   OH226831   3.251   4.153   5.000
 8985TIP3    H126832   3.292   4.086   4.945
 8985TIP3    H226833   3.232   4.225   4.940
 8986TIP3   OH226834   3.131   3.648   4.176
 8986TIP3    H126835   3.088   3.723   4.218
 8986TIP3    H226836   3.223   3.674   4.170
 8987TIP3   OH226837   2.931   3.406   4.161
 8987TIP3    H126838   2.841   3.434   4.173
 8987TIP3    H226839   2.926   3.311   4.148
 8988TIP3   OH226840   3.005   3.619   4.694
 8988TIP3    H126841   3.005   3.524   4.687
 8988TIP3    H226842   2.986   3.636   4.787
 8989TIP3   OH226843   1.624   3.689   5.469
 8989TIP3    H126844   1.616   3.657   5.379
 8989TIP3    H226845   1.718   3.686   5.487
 8990TIP3   OH226846   3.298   4.038   5.532
 8990TIP3    H126847   3.361   3.967   5.543
 8990TIP3    H226848   3.303   4.061   5.440
 8991TIP3   OH226849   3.467   3.825   5.556
 8991TIP3    H126850   3.393   3.781   5.598
 8991TIP3    H226851   3.542   3.769   5.575
 8992TIP3   OH226852   2.927   3.132   4.153
 8992TIP3    H126853   3.000   3.083   4.190
 8992TIP3    H226854   2.852   3.073   4.161
 8993TIP3   OH226855   3.000   3.342   4.589
 8993TIP3    H126856   3.038   3.255   4.602
 8993TIP3    H226857   3.051   3.380   4.517
 8994TIP3   OH226858   3.152   3.513   5.103
 8994TIP3    H126859   3.233   3.531   5.056
 8994TIP3    H226860   3.165   3.553   5.189
 8995TIP3   OH226861   3.224   3.665   5.330
 8995TIP3    H126862   3.151   3.689   5.387
 8995TIP3    H226863   3.252   3.747   5.290
 8996TIP3   OH226864   1.841   3.363   6.105
 8996TIP3    H126865   1.935   3.362   6.123
 8996TIP3    H226866   1.808   3.282   6.145
 8997TIP3   OH226867   3.686   3.265   5.868
 8997TIP3    H126868   3.750   3.205   5.829
 8997TIP3    H226869   3.649   3.312   5.793
 8998TIP3   OH226870   3.111   3.092   4.631
 8998TIP3    H126871   3.157   3.079   4.715
 8998TIP3    H226872   3.049   3.019   4.627
 8999TIP3   OH226873   1.820   3.079   5.459
 8999TIP3    H126874   1.874   3.000   5.464
 8999TIP3    H226875   1.882   3.150   5.440
 9000TIP3   OH226876   1.601   3.347   5.518
 9000TIP3    H126877   1.652   3.338   5.437
 9000TIP3    H226878   1.634   3.428   5.558
 9001TIP3   OH226879   3.537   3.380   5.672
 9001TIP3    H126880   3.460   3.419   5.714
 9001TIP3    H226881   3.501   3.310   5.616
 9002TIP3   OH226882   3.160   3.013   4.259
 9002TIP3    H126883   3.202   2.946   4.205
 9002TIP3    H226884   3.224   3.083   4.264
 9003TIP3   OH226885   1.589   2.869   5.025
 9003TIP3    H126886   1.501   2.854   5.059
 9003TIP3    H226887   1.575   2.917   4.943
 9004TIP3   OH226888   2.747   4.571   4.542
 9004TIP3    H126889   2.804   4.568   4.465
 9004TIP3    H226890   2.791   4.632   4.602
 9005TIP3   OH226891   1.815   2.907   5.845
 9005TIP3    H126892   1.764   2.904   5.925
 9005TIP3    H226893   1.761   2.956   5.783
 9006TIP3   OH226894   1.789   4.403   5.979
 9006TIP3    H126895   1.709   4.358   5.951
 9006TIP3    H226896   1.815   4.358   6.060
 9007TIP3   OH226897   3.448   3.127   5.565
 9007TIP3    H126898   3.360   3.118   5.528
 9007TIP3    H226899   3.486   3.040   5.560
 9008TIP3   OH226900   1.715   4.622   5.502
 9008TIP3    H126901   1.630   4.666   5.490
 9008TIP3    H226902   1.762   4.678   5.563
 9009TIP3   OH226903   1.955   4.664   5.347
 9009TIP3    H126904   1.882   4.626   5.396
 9009TIP3    H226905   1.920   4.676   5.258
 9010TIP3   OH226906   2.338   4.709   5.113
 9010TIP3    H126907   2.257   4.680   5.070
 9010TIP3    H226908   2.309   4.747   5.196
 9011TIP3   OH226909   2.572   4.564   5.117
 9011TIP3    H126910   2.487   4.608   5.118
 9011TIP3    H226911   2.618   4.598   5.194
 9012TIP3   OH226912   1.626   4.429   5.231
 9012TIP3    H126913   1.653   4.409   5.321
 9012TIP3    H226914   1.697   4.394   5.177
 9013TIP3   OH226915   1.829   4.300   5.092
 9013TIP3    H126916   1.836   4.221   5.146
 9013TIP3    H226917   1.912   4.347   5.107
 9014TIP3   OH226918   2.074   4.421   5.158
 9014TIP3    H126919   2.118   4.336   5.146
 9014TIP3    H226920   2.097   4.447   5.248
 9015TIP3   OH226921   2.659   3.051   5.203
 9015TIP3    H126922   2.615   2.982   5.253
 9015TIP3    H226923   2.726   3.005   5.153
 9016TIP3   OH226924   3.158   2.963   5.085
 9016TIP3    H126925   3.190   3.020   5.014
 9016TIP3    H226926   3.064   2.978   5.087
 9017TIP3   OH226927   3.273   3.054   4.851
 9017TIP3    H126928   3.344   2.994   4.828
 9017TIP3    H226929   3.311   3.141   4.835
 9018TIP3   OH226930   1.897   2.751   5.201
 9018TIP3    H126931   1.807   2.719   5.209
 9018TIP3    H226932   1.950   2.672   5.196
 9019TIP3   OH226933   1.710   2.658   4.869
 9019TIP3    H126934   1.750   2.702   4.793
 9019TIP3    H226935   1.677   2.729   4.923
 9020TIP3   OH226936   2.369   2.801   5.094
 9020TIP3    H126937   2.420   2.846   5.027
 9020TIP3    H226938   2.412   2.825   5.177
 9021TIP3   OH226939   2.873   2.926   5.073
 9021TIP3    H126940   2.879   2.890   4.985
 9021TIP3    H226941   2.868   2.850   5.131
 9022TIP3   OH226942   2.927   2.883   4.638
 9022TIP3    H126943   2.847   2.929   4.663
 9022TIP3    H226944   2.919   2.796   4.678
 9023TIP3   OH226945   1.389   4.236   4.621
 9023TIP3    H126946   1.308   4.198   4.587
 9023TIP3    H226947   1.392   4.324   4.586
 9024TIP3   OH226948   1.839   2.776   4.653
 9024TIP3    H126949   1.861   2.735   4.569
 9024TIP3    H226950   1.905   2.845   4.664
 9025TIP3   OH226951   2.315   2.992   4.703
 9025TIP3    H126952   2.365   2.936   4.762
 9025TIP3    H226953   2.330   3.081   4.735
 9026TIP3   OH226954   2.193   4.386   4.208
 9026TIP3    H126955   2.277   4.413   4.171
 9026TIP3    H226956   2.163   4.315   4.151
 9027TIP3   OH226957   2.898   4.532   4.310
 9027TIP3    H126958   2.891   4.436   4.303
 9027TIP3    H226959   2.854   4.565   4.232
 9028TIP3   OH226960   2.121   3.039   6.080
 9028TIP3    H126961   2.087   2.972   6.139
 9028TIP3    H226962   2.214   3.048   6.103
 9029TIP3   OH226963   2.369   3.044   6.202
 9029TIP3    H126964   2.447   3.022   6.150
 9029TIP3    H226965   2.363   2.974   6.267
 9030TIP3   OH226966   1.504   4.231   4.268
 9030TIP3    H126967   1.509   4.238   4.364
 9030TIP3    H226968   1.584   4.183   4.244
 9031TIP3   OH226969   3.194   3.134   5.990
 9031TIP3    H126970   3.210   3.105   6.080
 9031TIP3    H226971   3.279   3.128   5.947
 9032TIP3   OH226972   4.280   4.067   4.342
 9032TIP3    H126973   4.352   4.096   4.398
 9032TIP3    H226974   4.281   4.128   4.268
 9033TIP3   OH226975   4.394   4.058   4.646
 9033TIP3    H126976   4.447   4.043   4.724
 9033TIP3    H226977   4.338   3.980   4.640
 9034TIP3   OH226978   3.694   3.944   4.984
 9034TIP3    H126979   3.723   3.872   5.039
 9034TIP3    H226980   3.720   4.023   5.032
 9035TIP3   OH226981   4.628   4.329   4.321
 9035TIP3    H126982   4.639   4.270   4.395
 9035TIP3    H226983   4.644   4.417   4.357
 9036TIP3   OH226984   3.717   4.350   4.704
 9036TIP3    H126985   3.708   4.257   4.721
 9036TIP3    H226986   3.807   4.361   4.674
 9037TIP3   OH226987   3.373   3.537   4.474
 9037TIP3    H126988   3.327   3.617   4.502
 9037TIP3    H226989   3.303   3.473   4.461
 9038TIP3   OH226990   3.433   3.834   4.691
 9038TIP3    H126991   3.484   3.760   4.722
 9038TIP3    H226992   3.482   3.867   4.615
 9039TIP3   OH226993   4.290   4.797   4.340
 9039TIP3    H126994   4.322   4.724   4.286
 9039TIP3    H226995   4.292   4.764   4.429
 9040TIP3   OH226996   4.211   4.281   4.668
 9040TIP3    H126997   4.261   4.204   4.640
 9040TIP3    H226998   4.276   4.338   4.710
 9041TIP3   OH226999   5.235   3.588   4.678
 9041TIP3    H127000   5.252   3.671   4.722
 9041TIP3    H227001   5.273   3.600   4.590
 9042TIP3   OH227002   4.594   3.735   4.675
 9042TIP3    H127003   4.655   3.668   4.705
 9042TIP3    H227004   4.513   3.688   4.657
 9043TIP3   OH227005   3.943   3.425   4.655
 9043TIP3    H127006   3.929   3.494   4.590
 9043TIP3    H227007   3.891   3.351   4.623
 9044TIP3   OH227008   4.646   3.509   4.282
 9044TIP3    H127009   4.703   3.522   4.358
 9044TIP3    H227010   4.693   3.551   4.210
 9045TIP3   OH227011   3.586   3.628   4.786
 9045TIP3    H127012   3.664   3.609   4.837
 9045TIP3    H227013   3.595   3.576   4.706
 9046TIP3   OH227014   4.066   3.845   4.460
 9046TIP3    H127015   4.069   3.867   4.553
 9046TIP3    H227016   4.031   3.756   4.457
 9047TIP3   OH227017   5.287   3.803   4.849
 9047TIP3    H127018   5.201   3.843   4.840
 9047TIP3    H227019   5.324   3.843   4.928
 9048TIP3   OH227020   3.932   3.412   5.111
 9048TIP3    H127021   3.889   3.452   5.036
 9048TIP3    H227022   3.875   3.432   5.185
 9049TIP3   OH227023   4.242   4.227   4.128
 9049TIP3    H127024   4.229   4.214   4.034
 9049TIP3    H227025   4.217   4.318   4.144
 9050TIP3   OH227026   4.053   4.203   4.882
 9050TIP3    H127027   3.993   4.269   4.915
 9050TIP3    H227028   4.098   4.245   4.809
 9051TIP3   OH227029   4.816   3.555   4.495
 9051TIP3    H127030   4.786   3.529   4.582
 9051TIP3    H227031   4.881   3.623   4.511
 9052TIP3   OH227032   3.829   3.526   4.883
 9052TIP3    H127033   3.883   3.603   4.902
 9052TIP3    H227034   3.872   3.484   4.809
 9053TIP3   OH227035   3.890   4.410   4.967
 9053TIP3    H127036   3.832   4.456   4.906
 9053TIP3    H227037   3.832   4.383   5.038
 9054TIP3   OH227038   3.243   4.098   4.243
 9054TIP3    H127039   3.213   4.115   4.153
 9054TIP3    H227040   3.263   4.185   4.278
 9055TIP3   OH227041   4.658   4.580   4.442
 9055TIP3    H127042   4.587   4.586   4.505
 9055TIP3    H227043   4.682   4.671   4.423
 9056TIP3   OH227044   5.023   3.483   4.834
 9056TIP3    H127045   4.939   3.508   4.797
 9056TIP3    H227046   5.087   3.513   4.770
 9057TIP3   OH227047   4.275   3.105   4.841
 9057TIP3    H127048   4.268   3.012   4.864
 9057TIP3    H227049   4.199   3.145   4.883
 9058TIP3   OH227050   4.393   4.624   4.145
 9058TIP3    H127051   4.442   4.545   4.126
 9058TIP3    H227052   4.449   4.696   4.116
 9059TIP3   OH227053   4.533   4.403   4.074
 9059TIP3    H127054   4.557   4.337   4.008
 9059TIP3    H227055   4.572   4.372   4.155
 9060TIP3   OH227056   4.913   4.448   4.840
 9060TIP3    H127057   4.900   4.392   4.764
 9060TIP3    H227058   4.917   4.537   4.805
 9061TIP3   OH227059   4.165   3.893   4.129
 9061TIP3    H127060   4.108   3.934   4.065
 9061TIP3    H227061   4.238   3.858   4.078
 9062TIP3   OH227062   4.187   3.694   3.782
 9062TIP3    H127063   4.251   3.741   3.834
 9062TIP3    H227064   4.238   3.628   3.734
 9063TIP3   OH227065   5.107   4.149   4.689
 9063TIP3    H127066   5.023   4.195   4.682
 9063TIP3    H227067   5.148   4.160   4.604
 9064TIP3   OH227068   4.565   3.996   4.060
 9064TIP3    H127069   4.534   4.050   4.133
 9064TIP3    H227070   4.645   3.956   4.093
 9065TIP3   OH227071   4.806   4.000   4.989
 9065TIP3    H127072   4.806   4.080   5.042
 9065TIP3    H227073   4.728   4.007   4.935
 9066TIP3   OH227074   3.779   3.928   4.480
 9066TIP3    H127075   3.733   3.891   4.405
 9066TIP3    H227076   3.851   3.867   4.497
 9067TIP3   OH227077   3.962   4.402   4.586
 9067TIP3    H127078   3.939   4.383   4.495
 9067TIP3    H227079   4.048   4.362   4.598
 9068TIP3   OH227080   3.990   3.964   4.752
 9068TIP3    H127081   3.904   4.000   4.732
 9068TIP3    H227082   4.033   4.031   4.804
 9069TIP3   OH227083   4.461   4.599   4.635
 9069TIP3    H127084   4.458   4.677   4.691
 9069TIP3    H227085   4.444   4.526   4.694
 9070TIP3   OH227086   4.104   4.493   5.126
 9070TIP3    H127087   4.070   4.578   5.156
 9070TIP3    H227088   4.034   4.458   5.070
 9071TIP3   OH227089   4.397   3.835   3.907
 9071TIP3    H127090   4.452   3.897   3.954
 9071TIP3    H227091   4.424   3.844   3.815
 9072TIP3   OH227092   3.818   4.031   5.277
 9072TIP3    H127093   3.832   4.119   5.312
 9072TIP3    H227094   3.726   4.012   5.293
 9073TIP3   OH227095   4.153   4.489   4.147
 9073TIP3    H127096   4.234   4.541   4.153
 9073TIP3    H227097   4.095   4.543   4.094
 9074TIP3   OH227098   4.915   3.068   3.943
 9074TIP3    H127099   4.840   3.090   3.998
 9074TIP3    H227100   4.926   3.143   3.885
 9075TIP3   OH227101   3.668   3.804   4.262
 9075TIP3    H127102   3.597   3.858   4.227
 9075TIP3    H227103   3.632   3.716   4.265
 9076TIP3   OH227104   4.749   4.446   3.483
 9076TIP3    H127105   4.743   4.540   3.463
 9076TIP3    H227106   4.837   4.421   3.457
 9077TIP3   OH227107   3.489   4.180   5.153
 9077TIP3    H127108   3.403   4.173   5.114
 9077TIP3    H227109   3.497   4.104   5.211
 9078TIP3   OH227110   3.286   4.406   4.843
 9078TIP3    H127111   3.376   4.413   4.875
 9078TIP3    H227112   3.243   4.485   4.874
 9079TIP3   OH227113   4.046   4.733   3.965
 9079TIP3    H127114   4.003   4.715   3.881
 9079TIP3    H227115   4.009   4.816   3.995
 9080TIP3   OH227116   3.480   4.590   4.345
 9080TIP3    H127117   3.524   4.582   4.430
 9080TIP3    H227118   3.429   4.509   4.337
 9081TIP3   OH227119   4.246   4.668   3.593
 9081TIP3    H127120   4.296   4.595   3.557
 9081TIP3    H227121   4.281   4.682   3.681
 9082TIP3   OH227122   4.300   4.712   3.862
 9082TIP3    H127123   4.216   4.712   3.907
 9082TIP3    H227124   4.363   4.686   3.930
 9083TIP3   OH227125   5.053   3.969   5.161
 9083TIP3    H127126   4.969   3.979   5.115
 9083TIP3    H227127   5.073   3.876   5.155
 9084TIP3   OH227128   3.721   4.326   5.159
 9084TIP3    H127129   3.749   4.320   5.250
 9084TIP3    H227130   3.635   4.285   5.157
 9085TIP3   OH227131   4.042   3.199   4.968
 9085TIP3    H127132   3.957   3.165   4.937
 9085TIP3    H227133   4.020   3.279   5.014
 9086TIP3   OH227134   4.584   3.321   5.168
 9086TIP3    H127135   4.655   3.299   5.228
 9086TIP3    H227136   4.504   3.301   5.217
 9087TIP3   OH227137   4.798   3.736   5.077
 9087TIP3    H127138   4.762   3.732   5.166
 9087TIP3    H227139   4.790   3.827   5.051
 9088TIP3   OH227140   4.474   3.834   3.639
 9088TIP3    H127141   4.426   3.835   3.557
 9088TIP3    H227142   4.559   3.872   3.618
 9089TIP3   OH227143   4.185   3.243   3.943
 9089TIP3    H127144   4.151   3.247   4.033
 9089TIP3    H227145   4.145   3.164   3.906
 9090TIP3   OH227146   3.979   3.748   4.942
 9090TIP3    H127147   3.930   3.770   5.021
 9090TIP3    H227148   3.978   3.828   4.890
 9091TIP3   OH227149   3.874   3.626   4.470
 9091TIP3    H127150   3.787   3.602   4.502
 9091TIP3    H227151   3.880   3.586   4.383
 9092TIP3   OH227152   4.523   3.948   5.295
 9092TIP3    H127153   4.502   3.879   5.358
 9092TIP3    H227154   4.613   3.973   5.315
 9093TIP3   OH227155   3.806   3.758   5.164
 9093TIP3    H127156   3.819   3.823   5.233
 9093TIP3    H227157   3.792   3.676   5.210
 9094TIP3   OH227158   3.842   3.218   3.888
 9094TIP3    H127159   3.821   3.239   3.979
 9094TIP3    H227160   3.767   3.252   3.838
 9095TIP3   OH227161   3.407   3.273   4.761
 9095TIP3    H127162   3.482   3.302   4.814
 9095TIP3    H227163   3.447   3.233   4.684
 9096TIP3   OH227164   3.336   3.229   4.274
 9096TIP3    H127165   3.400   3.249   4.206
 9096TIP3    H227166   3.289   3.312   4.286
 9097TIP3   OH227167   4.555   3.952   4.846
 9097TIP3    H127168   4.580   3.880   4.788
 9097TIP3    H227169   4.519   3.908   4.924
 9098TIP3   OH227170   4.206   3.458   4.553
 9098TIP3    H127171   4.129   3.442   4.608
 9098TIP3    H227172   4.274   3.402   4.590
 9099TIP3   OH227173   3.638   3.497   4.548
 9099TIP3    H127174   3.548   3.498   4.515
 9099TIP3    H227175   3.664   3.405   4.542
 9100TIP3   OH227176   3.879   3.500   4.225
 9100TIP3    H127177   3.973   3.505   4.207
 9100TIP3    H227178   3.837   3.508   4.139
 9101TIP3   OH227179   4.723   3.489   4.745
 9101TIP3    H127180   4.687   3.499   4.833
 9101TIP3    H227181   4.695   3.401   4.718
 9102TIP3   OH227182   3.750   3.507   3.981
 9102TIP3    H127183   3.689   3.463   3.921
 9102TIP3    H227184   3.809   3.556   3.923
 9103TIP3   OH227185   3.819   4.280   5.414
 9103TIP3    H127186   3.898   4.309   5.460
 9103TIP3    H227187   3.749   4.294   5.478
 9104TIP3   OH227188   3.761   3.241   4.541
 9104TIP3    H127189   3.735   3.166   4.594
 9104TIP3    H227190   3.791   3.202   4.458
 9105TIP3   OH227191   4.241   3.656   4.975
 9105TIP3    H127192   4.157   3.698   4.956
 9105TIP3    H227193   4.301   3.729   4.992
 9106TIP3   OH227194   3.951   4.048   4.034
 9106TIP3    H127195   3.882   3.985   4.012
 9106TIP3    H227196   3.935   4.069   4.126
 9107TIP3   OH227197   4.873   4.284   4.627
 9107TIP3    H127198   4.914   4.334   4.557
 9107TIP3    H227199   4.796   4.245   4.587
 9108TIP3   OH227200   4.444   3.327   3.931
 9108TIP3    H127201   4.350   3.314   3.931
 9108TIP3    H227202   4.455   3.422   3.938
 9109TIP3   OH227203   4.391   4.393   5.084
 9109TIP3    H127204   4.443   4.360   5.157
 9109TIP3    H227205   4.310   4.424   5.124
 9110TIP3   OH227206   4.510   3.588   3.981
 9110TIP3    H127207   4.603   3.603   4.002
 9110TIP3    H227208   4.477   3.674   3.957
 9111TIP3   OH227209   3.732   4.068   4.723
 9111TIP3    H127210   3.723   4.016   4.643
 9111TIP3    H227211   3.700   4.012   4.793
 9112TIP3   OH227212   4.124   4.187   3.874
 9112TIP3    H127213   4.084   4.274   3.871
 9112TIP3    H227214   4.062   4.134   3.925
 9113TIP3   OH227215   3.550   3.963   5.324
 9113TIP3    H127216   3.554   3.935   5.415
 9113TIP3    H227217   3.474   3.918   5.288
 9114TIP3   OH227218   4.287   4.093   5.332
 9114TIP3    H127219   4.221   4.027   5.310
 9114TIP3    H227220   4.370   4.051   5.308
 9115TIP3   OH227221   4.917   3.699   3.826
 9115TIP3    H127222   4.860   3.653   3.764
 9115TIP3    H227223   4.926   3.788   3.790
 9116TIP3   OH227224   4.653   4.504   3.741
 9116TIP3    H127225   4.623   4.426   3.788
 9116TIP3    H227226   4.682   4.471   3.656
 9117TIP3   OH227227   4.648   4.142   4.527
 9117TIP3    H127228   4.565   4.122   4.571
 9117TIP3    H227229   4.684   4.056   4.505
 9118TIP3   OH227230   3.821   4.359   4.340
 9118TIP3    H127231   3.821   4.438   4.285
 9118TIP3    H227232   3.730   4.351   4.371
 9119TIP3   OH227233   3.949   4.090   4.313
 9119TIP3    H127234   3.930   4.184   4.309
 9119TIP3    H227235   3.881   4.054   4.371
 9120TIP3   OH227236   3.720   4.598   4.207
 9120TIP3    H127237   3.633   4.605   4.244
 9120TIP3    H227238   3.754   4.687   4.205
 9121TIP3   OH227239   4.429   4.383   4.813
 9121TIP3    H127240   4.405   4.386   4.906
 9121TIP3    H227241   4.516   4.344   4.812
 9122TIP3   OH227242   4.435   4.254   3.650
 9122TIP3    H127243   4.472   4.235   3.736
 9122TIP3    H227244   4.352   4.207   3.649
 9123TIP3   OH227245   4.741   4.721   3.454
 9123TIP3    H127246   4.776   4.790   3.398
 9123TIP3    H227247   4.665   4.760   3.497
 9124TIP3   OH227248   3.760   3.509   5.307
 9124TIP3    H127249   3.665   3.518   5.315
 9124TIP3    H227250   3.788   3.467   5.388
 9125TIP3   OH227251   4.599   4.206   3.877
 9125TIP3    H127252   4.579   4.129   3.931
 9125TIP3    H227253   4.692   4.199   3.857
 9126TIP3   OH227254   3.780   4.214   3.655
 9126TIP3    H127255   3.787   4.123   3.628
 9126TIP3    H227256   3.756   4.210   3.748
 9127TIP3   OH227257   3.716   4.234   3.925
 9127TIP3    H127258   3.799   4.212   3.967
 9127TIP3    H227259   3.711   4.329   3.932
 9128TIP3   OH227260   3.463   3.949   4.161
 9128TIP3    H127261   3.390   3.994   4.204
 9128TIP3    H227262   3.475   3.997   4.079
 9129TIP3   OH227263   4.626   3.535   4.996
 9129TIP3    H127264   4.693   3.591   5.035
 9129TIP3    H227265   4.610   3.467   5.061
 9130TIP3   OH227266   4.497   3.295   4.202
 9130TIP3    H127267   4.480   3.308   4.108
 9130TIP3    H227268   4.544   3.374   4.229
 9131TIP3   OH227269   3.985   4.420   3.877
 9131TIP3    H127270   3.899   4.447   3.909
 9131TIP3    H227271   4.012   4.492   3.819
 9132TIP3   OH227272   4.169   3.499   4.284
 9132TIP3    H127273   4.255   3.527   4.253
 9132TIP3    H227274   4.180   3.491   4.379
 9133TIP3   OH227275   4.468   3.806   5.061
 9133TIP3    H127276   4.485   3.850   5.144
 9133TIP3    H227277   4.504   3.719   5.072
 9134TIP3   OH227278   4.326   3.177   4.381
 9134TIP3    H127279   4.352   3.221   4.463
 9134TIP3    H227280   4.384   3.214   4.315
 9135TIP3   OH227281   3.733   4.505   3.948
 9135TIP3    H127282   3.715   4.578   3.888
 9135TIP3    H227283   3.724   4.543   4.035
 9136TIP3   OH227284   3.827   3.223   4.177
 9136TIP3    H127285   3.822   3.315   4.203
 9136TIP3    H227286   3.920   3.201   4.183
 9137TIP3   OH227287   5.068   3.698   5.066
 9137TIP3    H127288   4.972   3.698   5.075
 9137TIP3    H227289   5.085   3.652   4.984
 9138TIP3   OH227290   4.737   3.880   4.477
 9138TIP3    H127291   4.677   3.829   4.532
 9138TIP3    H227292   4.824   3.854   4.505
 9139TIP3   OH227293   3.470   4.104   3.927
 9139TIP3    H127294   3.541   4.168   3.931
 9139TIP3    H227295   3.500   4.040   3.862
 9140TIP3   OH227296   4.717   4.864   4.401
 9140TIP3    H127297   4.678   4.914   4.329
 9140TIP3    H227298   4.811   4.876   4.391
 9141TIP3   OH227299   3.782   3.110   4.926
 9141TIP3    H127300   3.753   3.077   4.841
 9141TIP3    H227301   3.775   3.035   4.985
 9142TIP3   OH227302   3.298   4.368   4.321
 9142TIP3    H127303   3.259   4.407   4.399
 9142TIP3    H227304   3.254   4.411   4.248
 9143TIP3   OH227305   3.932   4.418   3.551
 9143TIP3    H127306   3.884   4.346   3.592
 9143TIP3    H227307   4.006   4.375   3.507
 9144TIP3   OH227308   4.373   4.457   3.473
 9144TIP3    H127309   4.412   4.394   3.534
 9144TIP3    H227310   4.429   4.453   3.396
 9145TIP3   OH227311   3.615   4.268   5.606
 9145TIP3    H127312   3.653   4.181   5.594
 9145TIP3    H227313   3.536   4.253   5.657
 9146TIP3   OH227314   3.595   3.915   3.775
 9146TIP3    H127315   3.646   3.887   3.851
 9146TIP3    H227316   3.659   3.925   3.705
 9147TIP3   OH227317   4.205   4.360   5.349
 9147TIP3    H127318   4.165   4.392   5.268
 9147TIP3    H227319   4.237   4.272   5.327
 9148TIP3   OH227320   4.189   4.128   3.614
 9148TIP3    H127321   4.157   4.140   3.704
 9148TIP3    H227322   4.167   4.037   3.593
 9149TIP3   OH227323   4.682   4.366   4.965
 9149TIP3    H127324   4.757   4.408   4.924
 9149TIP3    H227325   4.630   4.438   5.000
 9150TIP3   OH227326   3.750   4.023   5.592
 9150TIP3    H127327   3.831   4.007   5.546
 9150TIP3    H227328   3.777   4.053   5.679
 9151TIP3   OH227329   3.771   3.848   3.988
 9151TIP3    H127330   3.744   3.806   4.070
 9151TIP3    H227331   3.818   3.780   3.940
 9152TIP3   OH227332   4.078   3.922   5.235
 9152TIP3    H127333   3.994   3.966   5.244
 9152TIP3    H227334   4.112   3.950   5.151
 9153TIP3   OH227335   3.913   3.670   3.832
 9153TIP3    H127336   3.880   3.668   3.742
 9153TIP3    H227337   4.009   3.674   3.822
 9154TIP3   OH227338   4.557   4.305   5.293
 9154TIP3    H127339   4.652   4.311   5.291
 9154TIP3    H227340   4.538   4.263   5.377
 9155TIP3   OH227341   4.697   3.950   3.517
 9155TIP3    H127342   4.685   3.908   3.432
 9155TIP3    H227343   4.679   4.043   3.501
 9156TIP3   OH227344   4.188   3.702   5.359
 9156TIP3    H127345   4.187   3.624   5.303
 9156TIP3    H227346   4.150   3.771   5.304
 9157TIP3   OH227347   4.188   3.485   5.179
 9157TIP3    H127348   4.217   3.534   5.102
 9157TIP3    H227349   4.098   3.458   5.158
 9158TIP3   OH227350   4.203   4.017   5.013
 9158TIP3    H127351   4.293   4.049   5.020
 9158TIP3    H227352   4.155   4.090   4.974
 9159TIP3   OH227353   4.789   3.988   5.395
 9159TIP3    H127354   4.829   3.902   5.409
 9159TIP3    H227355   4.863   4.047   5.379
 9160TIP3   OH227356   4.840   4.232   5.141
 9160TIP3    H127357   4.776   4.278   5.087
 9160TIP3    H227358   4.925   4.261   5.107
 9161TIP3   OH227359   4.069   3.789   5.596
 9161TIP3    H127360   4.002   3.724   5.617
 9161TIP3    H227361   4.101   3.763   5.509
 9162TIP3   OH227362   4.323   3.256   5.252
 9162TIP3    H127363   4.278   3.337   5.228
 9162TIP3    H227364   4.257   3.188   5.239
 9163TIP3   OH227365   4.448   3.738   5.454
 9163TIP3    H127366   4.441   3.727   5.549
 9163TIP3    H227367   4.360   3.718   5.421
 9164TIP3   OH227368   4.691   3.693   5.321
 9164TIP3    H127369   4.613   3.693   5.376
 9164TIP3    H227370   4.763   3.669   5.380
 9165TIP3   OH227371   4.926   3.661   5.472
 9165TIP3    H127372   4.941   3.567   5.481
 9165TIP3    H227373   4.921   3.693   5.562
 9166TIP3   OH227374   3.908   3.564   5.657
 9166TIP3    H127375   3.914   3.475   5.621
 9166TIP3    H227376   3.946   3.557   5.744
 9167TIP3   OH227377   4.387   3.246   5.519
 9167TIP3    H127378   4.462   3.186   5.517
 9167TIP3    H227379   4.358   3.251   5.428
 9168TIP3   OH227380   4.480   3.465   5.659
 9168TIP3    H127381   4.449   3.392   5.605
 9168TIP3    H227382   4.406   3.526   5.661
 9169TIP3   OH227383   3.735   4.712   3.764
 9169TIP3    H127384   3.825   4.693   3.738
 9169TIP3    H227385   3.697   4.757   3.689
 9170TIP3   OH227386   3.198   4.098   3.960
 9170TIP3    H127387   3.292   4.113   3.949
 9170TIP3    H227388   3.181   4.018   3.911
 9171TIP3   OH227389   3.106   4.681   4.406
 9171TIP3    H127390   3.040   4.630   4.360
 9171TIP3    H227391   3.150   4.619   4.464
 9172TIP3   OH227392   3.254   4.510   4.570
 9172TIP3    H127393   3.240   4.449   4.643
 9172TIP3    H227394   3.310   4.578   4.606
 9173TIP3   OH227395   4.996   4.921   4.389
 9173TIP3    H127396   4.975   5.009   4.422
 9173TIP3    H227397   5.060   4.936   4.320
 9174TIP3   OH227398   5.041   4.649   5.269
 9174TIP3    H127399   4.965   4.664   5.325
 9174TIP3    H227400   5.084   4.734   5.263
 9175TIP3   OH227401   4.871   4.166   3.844
 9175TIP3    H127402   4.932   4.231   3.810
 9175TIP3    H227403   4.917   4.124   3.917
 9176TIP3   OH227404   4.991   4.017   4.046
 9176TIP3    H127405   4.928   3.980   4.107
 9176TIP3    H227406   5.062   4.050   4.101
 9177TIP3   OH227407   5.056   4.419   4.469
 9177TIP3    H127408   5.106   4.348   4.430
 9177TIP3    H227409   5.057   4.488   4.403
 9178TIP3   OH227410   4.911   3.938   3.690
 9178TIP3    H127411   4.839   3.936   3.627
 9178TIP3    H227412   4.896   4.018   3.741
 9179TIP3   OH227413   4.760   3.586   3.632
 9179TIP3    H127414   4.718   3.623   3.554
 9179TIP3    H227415   4.754   3.491   3.620
 9180TIP3   OH227416   4.782   3.877   4.191
 9180TIP3    H127417   4.795   3.785   4.167
 9180TIP3    H227418   4.769   3.875   4.286
 9181TIP3   OH227419   3.419   3.919   4.953
 9181TIP3    H127420   3.409   3.894   4.861
 9181TIP3    H227421   3.512   3.936   4.964
 9182TIP3   OH227422   5.078   4.314   5.032
 9182TIP3    H127423   5.145   4.256   4.997
 9182TIP3    H227424   5.047   4.364   4.957
 9183TIP3   OH227425   5.257   4.093   5.021
 9183TIP3    H127426   5.184   4.058   5.073
 9183TIP3    H227427   5.331   4.037   5.043
 9184TIP3   OH227428   4.727   3.314   3.597
 9184TIP3    H127429   4.790   3.289   3.664
 9184TIP3    H227430   4.644   3.276   3.626
 9185TIP3   OH227431   4.797   3.611   4.066
 9185TIP3    H127432   4.843   3.528   4.080
 9185TIP3    H227433   4.839   3.648   3.988
 9186TIP3   OH227434   4.968   3.772   4.586
 9186TIP3    H127435   5.049   3.791   4.539
 9186TIP3    H227436   4.981   3.810   4.673
 9187TIP3   OH227437   5.029   3.917   4.817
 9187TIP3    H127438   4.958   3.944   4.875
 9187TIP3    H227439   5.060   3.998   4.777
 9188TIP3   OH227440   3.645   3.620   5.593
 9188TIP3    H127441   3.738   3.618   5.615
 9188TIP3    H227442   3.610   3.538   5.630
 9189TIP3   OH227443   5.485   3.524   5.355
 9189TIP3    H127444   5.547   3.462   5.315
 9189TIP3    H227445   5.449   3.572   5.281
 9190TIP3   OH227446   4.912   3.360   4.117
 9190TIP3    H127447   4.960   3.345   4.198
 9190TIP3    H227448   4.849   3.288   4.113
 9191TIP3   OH227449   3.621   3.336   4.926
 9191TIP3    H127450   3.672   3.257   4.940
 9191TIP3    H227451   3.686   3.406   4.921
 9192TIP3   OH227452   3.395   3.599   5.001
 9192TIP3    H127453   3.451   3.586   4.923
 9192TIP3    H227454   3.410   3.690   5.026
 9193TIP3   OH227455   5.335   3.640   5.158
 9193TIP3    H127456   5.256   3.678   5.197
 9193TIP3    H227457   5.303   3.569   5.103
 9194TIP3   OH227458   4.951   3.265   3.755
 9194TIP3    H127459   5.003   3.207   3.700
 9194TIP3    H227460   5.003   3.345   3.762
 9195TIP3   OH227461   3.382   3.105   4.514
 9195TIP3    H127462   3.295   3.091   4.552
 9195TIP3    H227463   3.365   3.155   4.434
 9196TIP3   OH227464   4.531   4.824   4.028
 9196TIP3    H127465   4.587   4.813   3.951
 9196TIP3    H227466   4.577   4.889   4.081
 9197TIP3   OH227467   3.604   3.161   5.327
 9197TIP3    H127468   3.557   3.159   5.410
 9197TIP3    H227469   3.550   3.214   5.269
 9198TIP3   OH227470   5.247   3.390   5.050
 9198TIP3    H127471   5.158   3.381   5.014
 9198TIP3    H227472   5.283   3.302   5.045
 9199TIP3   OH227473   4.121   4.877   4.628
 9199TIP3    H127474   4.071   4.927   4.563
 9199TIP3    H227475   4.176   4.942   4.672
 9200TIP3   OH227476   4.591   5.083   4.572
 9200TIP3    H127477   4.610   5.161   4.520
 9200TIP3    H227478   4.614   5.010   4.513
 9201TIP3   OH227479   3.423   4.701   4.707
 9201TIP3    H127480   3.456   4.733   4.791
 9201TIP3    H227481   3.499   4.662   4.664
 9202TIP3   OH227482   3.633   4.581   4.581
 9202TIP3    H127483   3.653   4.499   4.627
 9202TIP3    H227484   3.717   4.627   4.577
 9203TIP3   OH227485   3.908   4.681   4.587
 9203TIP3    H127486   3.934   4.589   4.588
 9203TIP3    H227487   3.987   4.728   4.613
 9204TIP3   OH227488   4.393   3.267   4.636
 9204TIP3    H127489   4.368   3.217   4.714
 9204TIP3    H227490   4.489   3.262   4.635
 9205TIP3   OH227491   4.964   3.223   4.566
 9205TIP3    H127492   5.004   3.271   4.494
 9205TIP3    H227493   4.878   3.263   4.577
 9206TIP3   OH227494   5.079   3.307   4.333
 9206TIP3    H127495   5.146   3.244   4.306
 9206TIP3    H227496   5.119   3.392   4.319
 9207TIP3   OH227497   3.692   3.011   4.684
 9207TIP3    H127498   3.604   2.978   4.697
 9207TIP3    H227499   3.747   2.933   4.675
 9208TIP3   OH227500   3.515   2.917   4.341
 9208TIP3    H127501   3.540   2.968   4.264
 9208TIP3    H227502   3.478   2.982   4.401
 9209TIP3   OH227503   4.156   3.055   4.578
 9209TIP3    H127504   4.206   3.098   4.509
 9209TIP3    H227505   4.199   3.082   4.659
 9210TIP3   OH227506   4.671   3.235   4.597
 9210TIP3    H127507   4.675   3.216   4.503
 9210TIP3    H227508   4.676   3.149   4.639
 9211TIP3   OH227509   4.725   3.149   4.126
 9211TIP3    H127510   4.644   3.195   4.146
 9211TIP3    H227511   4.714   3.062   4.165
 9212TIP3   OH227512   3.178   4.489   4.105
 9212TIP3    H127513   3.094   4.458   4.069
 9212TIP3    H227514   3.186   4.579   4.072
 9213TIP3   OH227515   3.614   3.056   4.103
 9213TIP3    H127516   3.650   2.993   4.041
 9213TIP3    H227517   3.688   3.109   4.131
 9214TIP3   OH227518   4.104   3.243   4.210
 9214TIP3    H127519   4.163   3.189   4.263
 9214TIP3    H227520   4.122   3.333   4.236
 9215TIP3   OH227521   3.992   4.639   3.698
 9215TIP3    H127522   4.075   4.668   3.659
 9215TIP3    H227523   3.962   4.569   3.640
 9216TIP3   OH227524   4.675   4.772   3.795
 9216TIP3    H127525   4.670   4.677   3.783
 9216TIP3    H227526   4.636   4.808   3.716
 9217TIP3   OH227527   3.921   3.294   5.568
 9217TIP3    H127528   3.885   3.229   5.628
 9217TIP3    H227529   4.014   3.300   5.593
 9218TIP3   OH227530   4.169   3.298   5.691
 9218TIP3    H127531   4.246   3.278   5.639
 9218TIP3    H227532   4.165   3.228   5.757
 9219TIP3   OH227533   3.285   4.470   3.746
 9219TIP3    H127534   3.290   4.499   3.837
 9219TIP3    H227535   3.371   4.430   3.729
 9220TIP3   OH227536   4.993   3.391   5.482
 9220TIP3    H127537   5.011   3.357   5.570
 9220TIP3    H227538   5.078   3.389   5.438
 9221TIP3   OH227539   6.192   4.310   3.726
 9221TIP3    H127540   6.166   4.397   3.695
 9221TIP3    H227541   6.121   4.253   3.698
 9222TIP3   OH227542   6.177   4.311   4.151
 9222TIP3    H127543   6.233   4.287   4.224
 9222TIP3    H227544   6.133   4.229   4.127
 9223TIP3   OH227545   5.466   4.151   4.502
 9223TIP3    H127546   5.510   4.088   4.559
 9223TIP3    H227547   5.525   4.226   4.499
 9224TIP3   OH227548   6.461   4.605   3.811
 9224TIP3    H127549   6.443   4.540   3.879
 9224TIP3    H227550   6.479   4.686   3.858
 9225TIP3   OH227551   5.480   4.595   4.189
 9225TIP3    H127552   5.463   4.501   4.198
 9225TIP3    H227553   5.574   4.601   4.172
 9226TIP3   OH227554   5.151   3.785   3.976
 9226TIP3    H127555   5.118   3.873   3.992
 9226TIP3    H227556   5.082   3.742   3.925
 9227TIP3   OH227557   5.227   4.091   4.176
 9227TIP3    H127558   5.280   4.017   4.204
 9227TIP3    H227559   5.289   4.151   4.135
 9228TIP3   OH227560   6.103   5.042   3.843
 9228TIP3    H127561   6.145   4.974   3.790
 9228TIP3    H227562   6.146   5.036   3.928
 9229TIP3   OH227563   5.992   4.533   4.161
 9229TIP3    H127564   6.039   4.454   4.134
 9229TIP3    H227565   6.061   4.592   4.191
 9230TIP3   OH227566   7.025   3.844   4.171
 9230TIP3    H127567   7.042   3.927   4.215
 9230TIP3    H227568   7.043   3.861   4.079
 9231TIP3   OH227569   6.401   4.012   4.188
 9231TIP3    H127570   6.433   3.927   4.217
 9231TIP3    H227571   6.363   3.996   4.102
 9232TIP3   OH227572   5.747   3.674   4.138
 9232TIP3    H127573   5.732   3.746   4.077
 9232TIP3    H227574   5.691   3.603   4.106
 9233TIP3   OH227575   6.449   3.768   3.787
 9233TIP3    H127576   6.513   3.762   3.858
 9233TIP3    H227577   6.499   3.804   3.713
 9234TIP3   OH227578   5.378   3.880   4.274
 9234TIP3    H127579   5.463   3.869   4.316
 9234TIP3    H227580   5.387   3.833   4.191
 9235TIP3   OH227581   5.804   4.085   4.080
 9235TIP3    H127582   5.898   4.068   4.088
 9235TIP3    H227583   5.769   4.005   4.040
 9236TIP3   OH227584   7.080   4.063   4.336
 9236TIP3    H127585   6.994   4.103   4.326
 9236TIP3    H227586   7.115   4.102   4.416
 9237TIP3   OH227587   5.734   3.674   4.599
 9237TIP3    H127588   5.685   3.712   4.525
 9237TIP3    H227589   5.678   3.690   4.675
 9238TIP3   OH227590   6.102   4.524   3.576
 9238TIP3    H127591   6.053   4.495   3.499
 9238TIP3    H227592   6.050   4.597   3.611
 9239TIP3   OH227593   5.829   4.460   4.374
 9239TIP3    H127594   5.783   4.533   4.415
 9239TIP3    H227595   5.875   4.500   4.300
 9240TIP3   OH227596   6.610   3.789   4.007
 9240TIP3    H127597   6.566   3.769   4.090
 9240TIP3    H227598   6.664   3.866   4.027
 9241TIP3   OH227599   5.625   3.779   4.367
 9241TIP3    H127600   5.680   3.856   4.387
 9241TIP3    H227601   5.667   3.739   4.290
 9242TIP3   OH227602   5.686   4.674   4.508
 9242TIP3    H127603   5.658   4.766   4.508
 9242TIP3    H227604   5.608   4.625   4.534
 9243TIP3   OH227605   5.045   4.347   3.719
 9243TIP3    H127606   5.014   4.368   3.631
 9243TIP3    H227607   5.070   4.432   3.757
 9244TIP3   OH227608   6.492   4.853   3.948
 9244TIP3    H127609   6.403   4.842   3.982
 9244TIP3    H227610   6.492   4.940   3.909
 9245TIP3   OH227611   6.828   3.722   4.336
 9245TIP3    H127612   6.742   3.749   4.305
 9245TIP3    H227613   6.889   3.754   4.269
 9246TIP3   OH227614   6.074   3.365   4.333
 9246TIP3    H127615   6.064   3.273   4.357
 9246TIP3    H227616   5.998   3.408   4.370
 9247TIP3   OH227617   6.207   4.891   3.634
 9247TIP3    H127618   6.262   4.815   3.613
 9247TIP3    H227619   6.238   4.960   3.574
 9248TIP3   OH227620   6.345   4.663   3.566
 9248TIP3    H127621   6.270   4.602   3.563
 9248TIP3    H227622   6.394   4.636   3.643
 9249TIP3   OH227623   6.737   4.716   4.320
 9249TIP3    H127624   6.714   4.654   4.251
 9249TIP3    H227625   6.719   4.802   4.282
 9250TIP3   OH227626   6.012   4.161   3.572
 9250TIP3    H127627   5.926   4.198   3.556
 9250TIP3    H227628   6.053   4.155   3.486
 9251TIP3   OH227629   5.988   3.982   3.248
 9251TIP3    H127630   6.055   4.020   3.305
 9251TIP3    H227631   6.025   3.900   3.217
 9252TIP3   OH227632   6.893   4.400   4.165
 9252TIP3    H127633   6.809   4.447   4.165
 9252TIP3    H227634   6.927   4.412   4.077
 9253TIP3   OH227635   6.376   4.246   3.533
 9253TIP3    H127636   6.320   4.272   3.606
 9253TIP3    H227637   6.458   4.219   3.574
 9254TIP3   OH227638   6.598   4.252   4.468
 9254TIP3    H127639   6.601   4.333   4.519
 9254TIP3    H227640   6.513   4.256   4.423
 9255TIP3   OH227641   5.601   4.233   3.956
 9255TIP3    H127642   5.550   4.174   3.902
 9255TIP3    H227643   5.674   4.180   3.988
 9256TIP3   OH227644   5.740   4.644   4.082
 9256TIP3    H127645   5.714   4.624   3.992
 9256TIP3    H227646   5.825   4.602   4.092
 9257TIP3   OH227647   5.712   4.214   4.310
 9257TIP3    H127648   5.749   4.182   4.228
 9257TIP3    H227649   5.757   4.297   4.326
 9258TIP3   OH227650   6.251   4.830   4.070
 9258TIP3    H127651   6.238   4.920   4.099
 9258TIP3    H227652   6.231   4.776   4.146
 9259TIP3   OH227653   5.943   4.729   4.616
 9259TIP3    H127654   5.940   4.824   4.629
 9259TIP3    H227655   5.856   4.706   4.583
 9260TIP3   OH227656   6.214   4.095   3.369
 9260TIP3    H127657   6.270   4.157   3.416
 9260TIP3    H227658   6.244   4.100   3.278
 9261TIP3   OH227659   5.630   4.286   4.725
 9261TIP3    H127660   5.649   4.371   4.765
 9261TIP3    H227661   5.535   4.276   4.736
 9262TIP3   OH227662   5.970   4.751   3.659
 9262TIP3    H127663   6.049   4.806   3.652
 9262TIP3    H227664   5.903   4.809   3.695
 9263TIP3   OH227665   6.715   3.324   3.427
 9263TIP3    H127666   6.639   3.346   3.481
 9263TIP3    H227667   6.726   3.400   3.369
 9264TIP3   OH227668   5.454   4.072   3.795
 9264TIP3    H127669   5.383   4.097   3.735
 9264TIP3    H227670   5.485   3.988   3.761
 9265TIP3   OH227671   6.539   4.702   2.984
 9265TIP3    H127672   6.535   4.796   2.964
 9265TIP3    H227673   6.628   4.676   2.960
 9266TIP3   OH227674   5.328   4.444   4.597
 9266TIP3    H127675   5.238   4.429   4.569
 9266TIP3    H227676   5.341   4.383   4.670
 9267TIP3   OH227677   5.091   4.655   4.311
 9267TIP3    H127678   5.186   4.666   4.323
 9267TIP3    H227679   5.053   4.732   4.353
 9268TIP3   OH227680   5.310   4.807   3.811
 9268TIP3    H127681   5.321   4.822   3.905
 9268TIP3    H227682   5.240   4.742   3.806
 9269TIP3   OH227683   6.046   4.925   3.088
 9269TIP3    H127684   6.078   4.846   3.044
 9269TIP3    H227685   6.108   4.940   3.159
 9270TIP3   OH227686   6.867   4.235   4.635
 9270TIP3    H127687   6.778   4.252   4.604
 9270TIP3    H227688   6.879   4.140   4.623
 9271TIP3   OH227689   5.836   3.457   4.455
 9271TIP3    H127690   5.752   3.426   4.422
 9271TIP3    H227691   5.815   3.539   4.500
 9272TIP3   OH227692   6.380   3.576   4.656
 9272TIP3    H127693   6.449   3.555   4.720
 9272TIP3    H227694   6.298   3.562   4.704
 9273TIP3   OH227695   6.606   3.995   4.573
 9273TIP3    H127696   6.563   3.994   4.658
 9273TIP3    H227697   6.590   4.084   4.539
 9274TIP3   OH227698   6.288   4.066   3.103
 9274TIP3    H127699   6.238   4.073   3.021
 9274TIP3    H227700   6.367   4.118   3.087
 9275TIP3   OH227701   5.981   3.495   3.427
 9275TIP3    H127702   5.944   3.512   3.514
 9275TIP3    H227703   5.935   3.418   3.396
 9276TIP3   OH227704   5.776   3.992   4.459
 9276TIP3    H127705   5.728   3.997   4.541
 9276TIP3    H227706   5.753   4.072   4.412
 9277TIP3   OH227707   5.667   3.871   3.966
 9277TIP3    H127708   5.576   3.853   3.990
 9277TIP3    H227709   5.668   3.860   3.871
 9278TIP3   OH227710   6.145   3.964   3.714
 9278TIP3    H127711   6.090   4.031   3.672
 9278TIP3    H227712   6.194   3.925   3.641
 9279TIP3   OH227713   6.320   4.202   4.778
 9279TIP3    H127714   6.298   4.136   4.844
 9279TIP3    H227715   6.410   4.228   4.799
 9280TIP3   OH227716   6.306   3.958   3.937
 9280TIP3    H127717   6.241   3.985   3.872
 9280TIP3    H227718   6.349   3.882   3.898
 9281TIP3   OH227719   5.612   3.991   4.680
 9281TIP3    H127720   5.623   4.061   4.744
 9281TIP3    H227721   5.597   3.913   4.732
 9282TIP3   OH227722   5.625   3.504   3.389
 9282TIP3    H127723   5.625   3.518   3.484
 9282TIP3    H227724   5.553   3.559   3.357
 9283TIP3   OH227725   5.211   3.534   4.272
 9283TIP3    H127726   5.277   3.567   4.333
 9283TIP3    H227727   5.236   3.569   4.187
 9284TIP3   OH227728   5.102   3.498   3.768
 9284TIP3    H127729   5.146   3.532   3.690
 9284TIP3    H227730   5.042   3.569   3.794
 9285TIP3   OH227731   6.337   4.213   4.358
 9285TIP3    H127732   6.366   4.146   4.295
 9285TIP3    H227733   6.298   4.163   4.429
 9286TIP3   OH227734   6.019   3.647   4.047
 9286TIP3    H127735   5.936   3.655   4.095
 9286TIP3    H227736   6.086   3.645   4.115
 9287TIP3   OH227737   5.422   3.747   4.043
 9287TIP3    H127738   5.338   3.754   3.997
 9287TIP3    H227739   5.457   3.663   4.015
 9288TIP3   OH227740   6.469   3.750   4.248
 9288TIP3    H127741   6.451   3.768   4.340
 9288TIP3    H227742   6.399   3.689   4.222
 9289TIP3   OH227743   5.645   4.498   4.901
 9289TIP3    H127744   5.712   4.540   4.955
 9289TIP3    H227745   5.608   4.430   4.957
 9290TIP3   OH227746   6.075   4.035   4.140
 9290TIP3    H127747   6.141   3.985   4.092
 9290TIP3    H227748   6.070   3.991   4.226
 9291TIP3   OH227749   5.560   3.501   4.018
 9291TIP3    H127750   5.533   3.422   4.064
 9291TIP3    H227751   5.570   3.473   3.927
 9292TIP3   OH227752   6.042   3.931   4.404
 9292TIP3    H127753   5.954   3.964   4.425
 9292TIP3    H227754   6.101   3.984   4.457
 9293TIP3   OH227755   5.761   4.283   3.517
 9293TIP3    H127756   5.699   4.212   3.501
 9293TIP3    H227757   5.734   4.320   3.601
 9294TIP3   OH227758   6.661   4.540   4.123
 9294TIP3    H127759   6.696   4.591   4.050
 9294TIP3    H227760   6.581   4.500   4.088
 9295TIP3   OH227761   6.234   3.601   3.422
 9295TIP3    H127762   6.141   3.579   3.423
 9295TIP3    H227763   6.237   3.695   3.440
 9296TIP3   OH227764   6.212   4.678   4.556
 9296TIP3    H127765   6.255   4.637   4.631
 9296TIP3    H227766   6.122   4.692   4.584
 9297TIP3   OH227767   6.299   3.864   3.497
 9297TIP3    H127768   6.393   3.869   3.510
 9297TIP3    H227769   6.277   3.942   3.447
 9298TIP3   OH227770   5.475   4.313   4.188
 9298TIP3    H127771   5.511   4.294   4.101
 9298TIP3    H227772   5.535   4.270   4.249
 9299TIP3   OH227773   5.925   4.449   3.369
 9299TIP3    H127774   5.884   4.535   3.363
 9299TIP3    H227775   5.863   4.396   3.420
 9300TIP3   OH227776   5.366   4.259   4.808
 9300TIP3    H127777   5.392   4.254   4.900
 9300TIP3    H227778   5.293   4.197   4.801
 9301TIP3   OH227779   6.088   4.351   4.829
 9301TIP3    H127780   6.018   4.295   4.796
 9301TIP3    H227781   6.168   4.312   4.795
 9302TIP3   OH227782   6.715   3.952   3.311
 9302TIP3    H127783   6.660   3.906   3.248
 9302TIP3    H227784   6.719   4.042   3.278
 9303TIP3   OH227785   6.439   4.770   3.248
 9303TIP3    H127786   6.417   4.703   3.313
 9303TIP3    H227787   6.464   4.721   3.170
 9304TIP3   OH227788   6.435   4.406   4.017
 9304TIP3    H127789   6.344   4.386   4.041
 9304TIP3    H227790   6.468   4.324   3.981
 9305TIP3   OH227791   5.591   4.651   3.836
 9305TIP3    H127792   5.596   4.729   3.779
 9305TIP3    H227793   5.498   4.644   3.858
 9306TIP3   OH227794   5.144   3.927   3.537
 9306TIP3    H127795   5.195   4.003   3.566
 9306TIP3    H227796   5.068   3.926   3.595
 9307TIP3   OH227797   5.670   4.400   3.744
 9307TIP3    H127798   5.652   4.489   3.775
 9307TIP3    H227799   5.648   4.344   3.818
 9308TIP3   OH227800   5.532   4.886   3.675
 9308TIP3    H127801   5.448   4.869   3.717
 9308TIP3    H227802   5.541   4.981   3.676
 9309TIP3   OH227803   6.219   4.651   4.284
 9309TIP3    H127804   6.211   4.653   4.379
 9309TIP3    H227805   6.284   4.582   4.267
 9310TIP3   OH227806   6.217   4.508   3.125
 9310TIP3    H127807   6.268   4.480   3.201
 9310TIP3    H227808   6.133   4.464   3.136
 9311TIP3   OH227809   6.545   4.976   2.943
 9311TIP3    H127810   6.588   5.046   2.894
 9311TIP3    H227811   6.467   5.018   2.979
 9312TIP3   OH227812   5.564   3.744   4.810
 9312TIP3    H127813   5.469   3.753   4.816
 9312TIP3    H227814   5.588   3.692   4.887
 9313TIP3   OH227815   6.395   4.421   3.316
 9313TIP3    H127816   6.378   4.372   3.397
 9313TIP3    H227817   6.490   4.428   3.312
 9314TIP3   OH227818   5.567   4.473   3.148
 9314TIP3    H127819   5.577   4.382   3.119
 9314TIP3    H227820   5.553   4.467   3.242
 9315TIP3   OH227821   5.519   4.488   3.420
 9315TIP3    H127822   5.578   4.453   3.487
 9315TIP3    H227823   5.525   4.583   3.430
 9316TIP3   OH227824   5.245   4.170   3.629
 9316TIP3    H127825   5.181   4.219   3.681
 9316TIP3    H227826   5.269   4.229   3.558
 9317TIP3   OH227827   6.411   3.808   4.509
 9317TIP3    H127828   6.488   3.854   4.543
 9317TIP3    H227829   6.401   3.731   4.565
 9318TIP3   OH227830   6.304   3.548   3.692
 9318TIP3    H127831   6.274   3.570   3.604
 9318TIP3    H227832   6.340   3.629   3.726
 9319TIP3   OH227833   5.797   4.689   3.324
 9319TIP3    H127834   5.717   4.713   3.372
 9319TIP3    H227835   5.772   4.694   3.232
 9320TIP3   OH227836   6.021   3.727   3.783
 9320TIP3    H127837   6.054   3.815   3.764
 9320TIP3    H227838   6.014   3.724   3.878
 9321TIP3   OH227839   6.247   4.045   4.555
 9321TIP3    H127840   6.271   4.090   4.636
 9321TIP3    H227841   6.298   3.964   4.558
 9322TIP3   OH227842   6.112   3.444   3.869
 9322TIP3    H127843   6.083   3.521   3.918
 9322TIP3    H227844   6.176   3.478   3.807
 9323TIP3   OH227845   5.555   4.761   3.432
 9323TIP3    H127846   5.532   4.829   3.368
 9323TIP3    H227847   5.547   4.804   3.517
 9324TIP3   OH227848   5.612   3.506   3.669
 9324TIP3    H127849   5.590   3.599   3.676
 9324TIP3    H227850   5.707   3.503   3.681
 9325TIP3   OH227851   6.873   3.962   4.551
 9325TIP3    H127852   6.778   3.961   4.566
 9325TIP3    H227853   6.884   3.921   4.466
 9326TIP3   OH227854   6.528   4.146   3.933
 9326TIP3    H127855   6.451   4.090   3.944
 9326TIP3    H227856   6.594   4.107   3.991
 9327TIP3   OH227857   5.276   4.349   3.413
 9327TIP3    H127858   5.346   4.414   3.421
 9327TIP3    H227859   5.311   4.282   3.355
 9328TIP3   OH227860   5.176   3.638   3.545
 9328TIP3    H127861   5.216   3.724   3.562
 9328TIP3    H227862   5.132   3.649   3.461
 9329TIP3   OH227863   6.512   5.119   3.863
 9329TIP3    H127864   6.462   5.167   3.798
 9329TIP3    H227865   6.604   5.141   3.845
 9330TIP3   OH227866   5.574   3.373   4.410
 9330TIP3    H127867   5.545   3.344   4.323
 9330TIP3    H227868   5.566   3.294   4.464
 9331TIP3   OH227869   5.098   4.614   3.805
 9331TIP3    H127870   5.063   4.655   3.884
 9331TIP3    H227871   5.055   4.660   3.733
 9332TIP3   OH227872   5.724   4.678   3.058
 9332TIP3    H127873   5.671   4.603   3.085
 9332TIP3    H227874   5.797   4.640   3.009
 9333TIP3   OH227875   6.160   4.714   2.954
 9333TIP3    H127876   6.194   4.649   3.016
 9333TIP3    H227877   6.219   4.709   2.879
 9334TIP3   OH227878   5.405   4.155   3.272
 9334TIP3    H127879   5.456   4.116   3.343
 9334TIP3    H227880   5.469   4.171   3.203
 9335TIP3   OH227881   6.015   4.620   4.857
 9335TIP3    H127882   5.989   4.651   4.770
 9335TIP3    H227883   6.051   4.533   4.842
 9336TIP3   OH227884   5.961   4.393   3.102
 9336TIP3    H127885   5.940   4.399   3.195
 9336TIP3    H227886   5.940   4.302   3.079
 9337TIP3   OH227887   6.510   4.646   4.471
 9337TIP3    H127888   6.578   4.686   4.416
 9337TIP3    H227889   6.434   4.702   4.459
 9338TIP3   OH227890   5.568   4.281   5.057
 9338TIP3    H127891   5.645   4.224   5.057
 9338TIP3    H227892   5.566   4.318   5.145
 9339TIP3   OH227893   5.594   4.059   3.467
 9339TIP3    H127894   5.571   4.008   3.544
 9339TIP3    H227895   5.653   4.002   3.417
 9340TIP3   OH227896   5.887   4.183   4.718
 9340TIP3    H127897   5.799   4.220   4.718
 9340TIP3    H227898   5.924   4.208   4.633
 9341TIP3   OH227899   6.346   4.567   4.783
 9341TIP3    H127900   6.429   4.611   4.801
 9341TIP3    H227901   6.331   4.513   4.860
 9342TIP3   OH227902   6.500   4.213   2.998
 9342TIP3    H127903   6.487   4.173   2.911
 9342TIP3    H227904   6.477   4.305   2.985
 9343TIP3   OH227905   5.984   3.957   4.838
 9343TIP3    H127906   5.988   3.886   4.774
 9343TIP3    H227907   5.952   4.032   4.788
 9344TIP3   OH227908   5.994   3.758   4.633
 9344TIP3    H127909   6.020   3.798   4.550
 9344TIP3    H227910   5.903   3.733   4.620
 9345TIP3   OH227911   6.001   4.278   4.492
 9345TIP3    H127912   6.089   4.302   4.462
 9345TIP3    H227913   5.944   4.344   4.453
 9346TIP3   OH227914   6.584   4.249   4.882
 9346TIP3    H127915   6.635   4.169   4.892
 9346TIP3    H227916   6.650   4.317   4.867
 9347TIP3   OH227917   6.652   4.475   4.622
 9347TIP3    H127918   6.587   4.532   4.581
 9347TIP3    H227919   6.736   4.507   4.590
 9348TIP3   OH227920   5.861   4.043   5.077
 9348TIP3    H127921   5.796   3.976   5.098
 9348TIP3    H227922   5.893   4.018   4.990
 9349TIP3   OH227923   6.113   3.526   4.735
 9349TIP3    H127924   6.074   3.607   4.702
 9349TIP3    H227925   6.046   3.460   4.722
 9350TIP3   OH227926   6.242   3.993   4.940
 9350TIP3    H127927   6.231   3.984   5.034
 9350TIP3    H227928   6.156   3.975   4.903
 9351TIP3   OH227929   6.487   3.947   4.810
 9351TIP3    H127930   6.408   3.950   4.864
 9351TIP3    H227931   6.558   3.929   4.872
 9352TIP3   OH227932   6.726   3.922   4.960
 9352TIP3    H127933   6.738   3.828   4.967
 9352TIP3    H227934   6.719   3.953   5.050
 9353TIP3   OH227935   5.699   3.821   5.143
 9353TIP3    H127936   5.703   3.732   5.107
 9353TIP3    H227937   5.737   3.814   5.230
 9354TIP3   OH227938   6.180   3.503   5.001
 9354TIP3    H127939   6.249   3.437   4.994
 9354TIP3    H227940   6.149   3.516   4.911
 9355TIP3   OH227941   6.272   3.719   5.148
 9355TIP3    H127942   6.242   3.647   5.092
 9355TIP3    H227943   6.200   3.781   5.148
 9356TIP3   OH227944   5.518   4.956   3.237
 9356TIP3    H127945   5.547   4.972   3.147
 9356TIP3    H227946   5.427   4.984   3.238
 9357TIP3   OH227947   5.001   4.350   3.414
 9357TIP3    H127948   5.096   4.359   3.418
 9357TIP3    H227949   4.986   4.261   3.383
 9358TIP3   OH227950   4.883   4.922   3.891
 9358TIP3    H127951   4.818   4.869   3.847
 9358TIP3    H227952   4.933   4.859   3.944
 9359TIP3   OH227953   5.049   4.761   4.046
 9359TIP3    H127954   5.043   4.698   4.119
 9359TIP3    H227955   5.098   4.835   4.083
 9360TIP3   OH227956   6.775   5.199   3.825
 9360TIP3    H127957   6.769   5.284   3.870
 9360TIP3    H227958   6.847   5.210   3.763
 9361TIP3   OH227959   6.841   4.910   4.729
 9361TIP3    H127960   6.775   4.937   4.666
 9361TIP3    H227961   6.889   4.990   4.750
 9362TIP3   OH227962   6.675   4.420   3.323
 9362TIP3    H127963   6.733   4.491   3.296
 9362TIP3    H227964   6.718   4.382   3.400
 9363TIP3   OH227965   6.799   4.274   3.525
 9363TIP3    H127966   6.731   4.237   3.582
 9363TIP3    H227967   6.864   4.309   3.586
 9364TIP3   OH227968   6.842   4.670   3.953
 9364TIP3    H127969   6.889   4.600   3.909
 9364TIP3    H227970   6.829   4.737   3.886
 9365TIP3   OH227971   6.627   4.928   4.183
 9365TIP3    H127972   6.579   5.007   4.211
 9365TIP3    H227973   6.585   4.902   4.101
 9366TIP3   OH227974   6.709   4.192   3.174
 9366TIP3    H127975   6.637   4.192   3.111
 9366TIP3    H227976   6.695   4.271   3.227
 9367TIP3   OH227977   6.572   3.836   3.108
 9367TIP3    H127978   6.518   3.876   3.039
 9367TIP3    H227979   6.562   3.742   3.095
 9368TIP3   OH227980   6.599   4.139   3.666
 9368TIP3    H127981   6.600   4.044   3.651
 9368TIP3    H227982   6.578   4.149   3.758
 9369TIP3   OH227983   5.207   4.187   4.433
 9369TIP3    H127984   5.200   4.157   4.342
 9369TIP3    H227985   5.300   4.186   4.452
 9370TIP3   OH227986   6.881   4.582   4.517
 9370TIP3    H127987   6.954   4.535   4.476
 9370TIP3    H227988   6.845   4.637   4.447
 9371TIP3   OH227989   7.076   4.363   4.506
 9371TIP3    H127990   6.999   4.331   4.552
 9371TIP3    H227991   7.145   4.300   4.529
 9372TIP3   OH227992   6.528   3.563   3.082
 9372TIP3    H127993   6.587   3.542   3.154
 9372TIP3    H227994   6.442   3.534   3.112
 9373TIP3   OH227995   6.591   3.862   3.555
 9373TIP3    H127996   6.637   3.780   3.567
 9373TIP3    H227997   6.631   3.901   3.477
 9374TIP3   OH227998   6.744   4.024   4.075
 9374TIP3    H127999   6.824   4.043   4.026
 9374TIP3    H228000   6.758   4.064   4.161
 9375TIP3   OH228001   6.820   4.171   4.303
 9375TIP3    H128002   6.746   4.196   4.357
 9375TIP3    H228003   6.846   4.252   4.259
 9376TIP3   OH228004   5.436   3.887   5.081
 9376TIP3    H128005   5.530   3.883   5.098
 9376TIP3    H228006   5.401   3.806   5.119
 9377TIP3   OH228007   7.284   3.771   4.846
 9377TIP3    H128008   7.349   3.715   4.802
 9377TIP3    H228009   7.246   3.824   4.776
 9378TIP3   OH228010   6.711   3.614   3.602
 9378TIP3    H128011   6.755   3.599   3.686
 9378TIP3    H228012   6.647   3.543   3.596
 9379TIP3   OH228013   5.415   3.600   4.449
 9379TIP3    H128014   5.469   3.520   4.445
 9379TIP3    H228015   5.475   3.670   4.423
 9380TIP3   OH228016   5.203   3.870   4.488
 9380TIP3    H128017   5.256   3.857   4.410
 9380TIP3    H228018   5.222   3.960   4.516
 9381TIP3   OH228019   7.135   3.899   4.658
 9381TIP3    H128020   7.062   3.940   4.703
 9381TIP3    H228021   7.094   3.836   4.598
 9382TIP3   OH228022   6.754   3.523   3.242
 9382TIP3    H128023   6.804   3.464   3.186
 9382TIP3    H228024   6.808   3.603   3.246
 9383TIP3   OH228025   5.175   3.336   3.976
 9383TIP3    H128026   5.096   3.340   4.029
 9383TIP3    H228027   5.162   3.403   3.909
 9384TIP3   OH228028   6.298   5.107   3.481
 9384TIP3    H128029   6.368   5.079   3.423
 9384TIP3    H228030   6.342   5.158   3.550
 9385TIP3   OH228031   5.403   3.411   4.811
 9385TIP3    H128032   5.355   3.413   4.894
 9385TIP3    H228033   5.351   3.466   4.753
 9386TIP3   OH228034   7.038   3.654   4.535
 9386TIP3    H128035   6.956   3.659   4.487
 9386TIP3    H228036   7.064   3.562   4.529
 9387TIP3   OH228037   5.983   5.225   4.108
 9387TIP3    H128038   5.904   5.229   4.054
 9387TIP3    H228039   5.980   5.306   4.160
 9388TIP3   OH228040   6.230   5.098   4.115
 9388TIP3    H128041   6.151   5.151   4.112
 9388TIP3    H228042   6.288   5.144   4.175
 9389TIP3   OH228043   6.569   5.354   4.040
 9389TIP3    H128044   6.510   5.424   4.013
 9389TIP3    H228045   6.524   5.273   4.014
 9390TIP3   OH228046   5.214   4.954   4.221
 9390TIP3    H128047   5.264   4.991   4.293
 9390TIP3    H228048   5.279   4.911   4.165
 9391TIP3   OH228049   5.401   4.828   4.073
 9391TIP3    H128050   5.421   4.744   4.114
 9391TIP3    H228051   5.486   4.870   4.061
 9392TIP3   OH228052   5.667   4.913   4.068
 9392TIP3    H128053   5.697   4.822   4.067
 9392TIP3    H228054   5.710   4.952   4.144
 9393TIP3   OH228055   6.252   3.571   4.192
 9393TIP3    H128056   6.209   3.496   4.234
 9393TIP3    H228057   6.317   3.531   4.133
 9394TIP3   OH228058   6.746   3.468   4.052
 9394TIP3    H128059   6.785   3.521   3.982
 9394TIP3    H228060   6.656   3.500   4.058
 9395TIP3   OH228061   6.867   3.558   3.824
 9395TIP3    H128062   6.937   3.498   3.798
 9395TIP3    H228063   6.906   3.645   3.812
 9396TIP3   OH228064   5.491   3.270   4.165
 9396TIP3    H128065   5.401   3.240   4.176
 9396TIP3    H228066   5.542   3.190   4.158
 9397TIP3   OH228067   5.328   3.165   3.815
 9397TIP3    H128068   5.351   3.222   3.741
 9397TIP3    H228069   5.280   3.222   3.875
 9398TIP3   OH228070   5.980   3.291   4.068
 9398TIP3    H128071   6.018   3.346   3.999
 9398TIP3    H228072   6.011   3.329   4.150
 9399TIP3   OH228073   6.458   3.462   4.043
 9399TIP3    H128074   6.452   3.432   3.952
 9399TIP3    H228075   6.463   3.381   4.094
 9400TIP3   OH228076   6.524   3.404   3.608
 9400TIP3    H128077   6.446   3.453   3.630
 9400TIP3    H228078   6.510   3.317   3.646
 9401TIP3   OH228079   4.982   4.742   3.593
 9401TIP3    H128080   4.897   4.710   3.564
 9401TIP3    H228081   4.988   4.831   3.557
 9402TIP3   OH228082   5.420   3.313   3.590
 9402TIP3    H128083   5.470   3.264   3.525
 9402TIP3    H228084   5.480   3.382   3.620
 9403TIP3   OH228085   5.891   3.509   3.689
 9403TIP3    H128086   5.947   3.454   3.744
 9403TIP3    H228087   5.916   3.598   3.709
 9404TIP3   OH228088   5.817   5.027   3.214
 9404TIP3    H128089   5.891   4.995   3.162
 9404TIP3    H228090   5.774   4.947   3.245
 9405TIP3   OH228091   6.479   5.038   3.283
 9405TIP3    H128092   6.472   4.942   3.276
 9405TIP3    H228093   6.447   5.070   3.199
 9406TIP3   OH228094   5.710   3.548   5.054
 9406TIP3    H128095   5.675   3.481   5.113
 9406TIP3    H228096   5.802   3.556   5.080
 9407TIP3   OH228097   5.959   3.555   5.177
 9407TIP3    H128098   6.038   3.533   5.128
 9407TIP3    H228099   5.950   3.485   5.242
 9408TIP3   OH228100   5.096   4.742   3.236
 9408TIP3    H128101   5.092   4.746   3.331
 9408TIP3    H228102   5.176   4.693   3.217
 9409TIP3   OH228103   6.788   3.650   4.966
 9409TIP3    H128104   6.805   3.621   5.055
 9409TIP3    H228105   6.873   3.644   4.922
 9410TIP3   OH228106   7.979   4.562   3.206
 9410TIP3    H128107   7.951   4.650   3.182
 9410TIP3    H228108   7.907   4.505   3.178
 9411TIP3   OH228109   7.952   4.566   3.646
 9411TIP3    H128110   8.014   4.535   3.712
 9411TIP3    H228111   7.910   4.486   3.614
 9412TIP3   OH228112   7.273   4.416   3.969
 9412TIP3    H128113   7.308   4.357   4.037
 9412TIP3    H228114   7.351   4.455   3.929
 9413TIP3   OH228115   8.246   4.865   3.306
 9413TIP3    H128116   8.227   4.797   3.371
 9413TIP3    H228117   8.270   4.942   3.358
 9414TIP3   OH228118   7.306   4.860   3.706
 9414TIP3    H128119   7.282   4.768   3.695
 9414TIP3    H228120   7.389   4.869   3.660
 9415TIP3   OH228121   6.953   4.050   3.447
 9415TIP3    H128122   6.914   4.133   3.472
 9415TIP3    H228123   6.881   4.000   3.408
 9416TIP3   OH228124   7.030   4.351   3.662
 9416TIP3    H128125   7.081   4.276   3.692
 9416TIP3    H228126   7.095   4.411   3.625
 9417TIP3   OH228127   7.917   5.290   3.327
 9417TIP3    H128128   7.939   5.228   3.258
 9417TIP3    H228129   7.931   5.242   3.409
 9418TIP3   OH228130   7.786   4.796   3.633
 9418TIP3    H128131   7.835   4.715   3.618
 9418TIP3    H228132   7.853   4.863   3.643
 9419TIP3   OH228133   8.733   4.154   3.639
 9419TIP3    H128134   8.786   4.161   3.717
 9419TIP3    H228135   8.792   4.121   3.572
 9420TIP3   OH228136   8.225   4.263   3.651
 9420TIP3    H128137   8.252   4.174   3.676
 9420TIP3    H228138   8.175   4.252   3.571
 9421TIP3   OH228139   7.551   3.925   3.629
 9421TIP3    H128140   7.529   3.998   3.572
 9421TIP3    H228141   7.495   3.853   3.599
 9422TIP3   OH228142   8.255   4.045   3.280
 9422TIP3    H128143   8.326   4.046   3.345
 9422TIP3    H228144   8.296   4.073   3.199
 9423TIP3   OH228145   7.174   4.138   3.762
 9423TIP3    H128146   7.257   4.122   3.807
 9423TIP3    H228147   7.179   4.085   3.682
 9424TIP3   OH228148   7.595   4.341   3.574
 9424TIP3    H128149   7.689   4.324   3.580
 9424TIP3    H228150   7.558   4.259   3.541
 9425TIP3   OH228151   8.835   4.329   3.846
 9425TIP3    H128152   8.749   4.369   3.837
 9425TIP3    H228153   8.879   4.380   3.914
 9426TIP3   OH228154   7.528   3.931   4.086
 9426TIP3    H128155   7.479   3.968   4.013
 9426TIP3    H228156   7.472   3.947   4.163
 9427TIP3   OH228157   7.880   4.784   3.071
 9427TIP3    H128158   7.840   4.754   2.989
 9427TIP3    H228159   7.827   4.859   3.097
 9428TIP3   OH228160   7.640   4.708   3.855
 9428TIP3    H128161   7.579   4.770   3.895
 9428TIP3    H228162   7.678   4.757   3.782
 9429TIP3   OH228163   8.448   4.054   3.490
 9429TIP3    H128164   8.398   4.021   3.564
 9429TIP3    H228165   8.513   3.986   3.472
 9430TIP3   OH228166   7.424   4.036   3.851
 9430TIP3    H128167   7.478   4.112   3.874
 9430TIP3    H228168   7.470   3.993   3.779
 9431TIP3   OH228169   7.432   4.864   3.956
 9431TIP3    H128170   7.381   4.882   3.877
 9431TIP3    H228171   7.367   4.838   4.021
 9432TIP3   OH228172   6.848   4.611   3.211
 9432TIP3    H128173   6.811   4.632   3.125
 9432TIP3    H228174   6.871   4.696   3.248
 9433TIP3   OH228175   8.283   5.109   3.458
 9433TIP3    H128176   8.196   5.104   3.499
 9433TIP3    H228177   8.283   5.193   3.413
 9434TIP3   OH228178   8.567   3.998   3.827
 9434TIP3    H128179   8.478   4.000   3.793
 9434TIP3    H228180   8.623   4.021   3.753
 9435TIP3   OH228181   7.869   3.620   3.819
 9435TIP3    H128182   7.860   3.528   3.843
 9435TIP3    H228183   7.793   3.662   3.857
 9436TIP3   OH228184   7.992   5.146   3.100
 9436TIP3    H128185   8.044   5.067   3.090
 9436TIP3    H228186   8.050   5.217   3.072
 9437TIP3   OH228187   8.129   4.914   3.062
 9437TIP3    H128188   8.055   4.853   3.061
 9437TIP3    H228189   8.179   4.891   3.139
 9438TIP3   OH228190   7.804   4.404   3.058
 9438TIP3    H128191   7.721   4.449   3.040
 9438TIP3    H228192   7.850   4.403   2.974
 9439TIP3   OH228193   7.777   4.211   2.748
 9439TIP3    H128194   7.842   4.260   2.797
 9439TIP3    H228195   7.827   4.144   2.701
 9440TIP3   OH228196   8.713   4.640   3.639
 9440TIP3    H128197   8.633   4.692   3.645
 9440TIP3    H228198   8.752   4.667   3.556
 9441TIP3   OH228199   8.166   4.494   3.018
 9441TIP3    H128200   8.111   4.523   3.091
 9441TIP3    H228201   8.249   4.470   3.059
 9442TIP3   OH228202   8.376   4.516   3.906
 9442TIP3    H128203   8.376   4.612   3.908
 9442TIP3    H228204   8.289   4.493   3.873
 9443TIP3   OH228205   7.390   4.473   3.433
 9443TIP3    H128206   7.354   4.414   3.367
 9443TIP3    H228207   7.465   4.426   3.470
 9444TIP3   OH228208   7.536   4.909   3.562
 9444TIP3    H128209   7.512   4.895   3.470
 9444TIP3    H228210   7.623   4.868   3.570
 9445TIP3   OH228211   7.504   4.473   3.804
 9445TIP3    H128212   7.540   4.436   3.723
 9445TIP3    H228213   7.556   4.552   3.819
 9446TIP3   OH228214   8.040   5.122   3.591
 9446TIP3    H128215   8.037   5.204   3.639
 9446TIP3    H228216   8.033   5.054   3.658
 9447TIP3   OH228217   7.996   4.354   2.852
 9447TIP3    H128218   8.055   4.412   2.899
 9447TIP3    H228219   8.024   4.359   2.761
 9448TIP3   OH228220   7.409   4.509   4.263
 9448TIP3    H128221   7.419   4.526   4.356
 9448TIP3    H228222   7.317   4.527   4.245
 9449TIP3   OH228223   7.744   5.024   3.111
 9449TIP3    H128224   7.826   5.074   3.116
 9449TIP3    H228225   7.684   5.081   3.063
 9450TIP3   OH228226   8.500   3.580   2.905
 9450TIP3    H128227   8.424   3.605   2.959
 9450TIP3    H228228   8.516   3.657   2.850
 9451TIP3   OH228229   7.267   4.317   3.229
 9451TIP3    H128230   7.191   4.365   3.198
 9451TIP3    H228231   7.235   4.228   3.245
 9452TIP3   OH228232   8.302   4.961   2.468
 9452TIP3    H128233   8.307   5.054   2.446
 9452TIP3    H228234   8.390   4.927   2.452
 9453TIP3   OH228235   7.090   4.724   4.086
 9453TIP3    H128236   7.002   4.704   4.055
 9453TIP3    H228237   7.109   4.655   4.150
 9454TIP3   OH228238   6.867   4.920   3.801
 9454TIP3    H128239   6.956   4.931   3.835
 9454TIP3    H228240   6.820   4.996   3.833
 9455TIP3   OH228241   8.737   5.359   3.860
 9455TIP3    H128242   8.732   5.263   3.867
 9455TIP3    H228243   8.660   5.390   3.906
 9456TIP3   OH228244   7.852   5.151   3.974
 9456TIP3    H128245   7.861   5.225   4.034
 9456TIP3    H228246   7.887   5.076   4.022
 9457TIP3   OH228247   7.635   5.248   2.939
 9457TIP3    H128248   7.589   5.229   2.858
 9457TIP3    H228249   7.598   5.331   2.970
 9458TIP3   OH228250   7.078   5.097   3.328
 9458TIP3    H128251   7.117   5.090   3.415
 9458TIP3    H228252   7.027   5.016   3.319
 9459TIP3   OH228253   7.836   5.183   2.565
 9459TIP3    H128254   7.886   5.110   2.530
 9459TIP3    H228255   7.871   5.196   2.653
 9460TIP3   OH228256   7.889   5.224   2.835
 9460TIP3    H128257   7.802   5.228   2.876
 9460TIP3    H228258   7.945   5.187   2.903
 9461TIP3   OH228259   8.620   4.474   4.122
 9461TIP3    H128260   8.540   4.495   4.073
 9461TIP3    H228261   8.627   4.379   4.117
 9462TIP3   OH228262   7.634   3.715   3.944
 9462TIP3    H128263   7.551   3.681   3.911
 9462TIP3    H228264   7.611   3.796   3.989
 9463TIP3   OH228265   8.175   3.834   4.142
 9463TIP3    H128266   8.244   3.807   4.203
 9463TIP3    H228267   8.094   3.819   4.191
 9464TIP3   OH228268   8.390   4.284   4.061
 9464TIP3    H128269   8.337   4.277   4.141
 9464TIP3    H228270   8.361   4.365   4.019
 9465TIP3   OH228271   8.073   4.337   2.590
 9465TIP3    H128272   8.030   4.339   2.505
 9465TIP3    H228273   8.157   4.382   2.575
 9466TIP3   OH228274   7.785   3.754   2.910
 9466TIP3    H128275   7.747   3.761   2.997
 9466TIP3    H228276   7.749   3.673   2.875
 9467TIP3   OH228277   7.577   4.246   3.946
 9467TIP3    H128278   7.527   4.249   4.028
 9467TIP3    H228279   7.556   4.328   3.902
 9468TIP3   OH228280   7.453   4.125   3.470
 9468TIP3    H128281   7.364   4.102   3.495
 9468TIP3    H228282   7.462   4.093   3.380
 9469TIP3   OH228283   7.929   4.198   3.192
 9469TIP3    H128284   7.882   4.272   3.153
 9469TIP3    H228285   7.989   4.169   3.123
 9470TIP3   OH228286   8.113   4.461   4.268
 9470TIP3    H128287   8.090   4.394   4.333
 9470TIP3    H228288   8.204   4.484   4.289
 9471TIP3   OH228289   8.068   4.190   3.434
 9471TIP3    H128290   8.009   4.218   3.364
 9471TIP3    H228291   8.129   4.129   3.392
 9472TIP3   OH228292   7.406   4.252   4.158
 9472TIP3    H128293   7.408   4.327   4.217
 9472TIP3    H228294   7.387   4.177   4.214
 9473TIP3   OH228295   7.452   3.735   2.886
 9473TIP3    H128296   7.442   3.741   2.981
 9473TIP3    H228297   7.374   3.779   2.852
 9474TIP3   OH228298   7.001   3.780   3.751
 9474TIP3    H128299   7.072   3.817   3.803
 9474TIP3    H228300   7.039   3.767   3.664
 9475TIP3   OH228301   6.905   3.758   3.253
 9475TIP3    H128302   6.949   3.794   3.176
 9475TIP3    H228303   6.841   3.825   3.278
 9476TIP3   OH228304   8.119   4.440   3.826
 9476TIP3    H128305   8.155   4.376   3.765
 9476TIP3    H228306   8.088   4.388   3.901
 9477TIP3   OH228307   7.819   3.911   3.522
 9477TIP3    H128308   7.741   3.913   3.576
 9477TIP3    H228309   7.892   3.913   3.584
 9478TIP3   OH228310   7.213   4.001   3.528
 9478TIP3    H128311   7.125   4.006   3.491
 9478TIP3    H228312   7.241   3.911   3.512
 9479TIP3   OH228313   7.467   4.003   3.224
 9479TIP3    H128314   7.561   4.013   3.214
 9479TIP3    H228315   7.431   4.020   3.137
 9480TIP3   OH228316   8.288   4.001   3.729
 9480TIP3    H128317   8.264   4.023   3.819
 9480TIP3    H228318   8.217   3.944   3.699
 9481TIP3   OH228319   7.354   4.025   2.976
 9481TIP3    H128320   7.291   3.977   2.923
 9481TIP3    H228321   7.408   4.072   2.911
 9482TIP3   OH228322   8.456   5.714   3.954
 9482TIP3    H128323   8.450   5.726   3.859
 9482TIP3    H228324   8.534   5.763   3.980
 9483TIP3   OH228325   7.867   4.285   3.622
 9483TIP3    H128326   7.935   4.242   3.571
 9483TIP3    H228327   7.868   4.240   3.707
 9484TIP3   OH228328   7.356   3.752   3.514
 9484TIP3    H128329   7.329   3.677   3.566
 9484TIP3    H228330   7.376   3.716   3.428
 9485TIP3   OH228331   7.842   4.185   3.890
 9485TIP3    H128332   7.754   4.218   3.911
 9485TIP3    H228333   7.900   4.237   3.946
 9486TIP3   OH228334   7.566   4.542   3.007
 9486TIP3    H128335   7.492   4.487   2.983
 9486TIP3    H228336   7.541   4.581   3.091
 9487TIP3   OH228337   8.488   4.780   3.648
 9487TIP3    H128338   8.485   4.855   3.588
 9487TIP3    H228339   8.424   4.802   3.716
 9488TIP3   OH228340   8.038   3.856   2.923
 9488TIP3    H128341   7.945   3.834   2.915
 9488TIP3    H228342   8.041   3.951   2.927
 9489TIP3   OH228343   7.992   4.929   4.081
 9489TIP3    H128344   8.064   4.894   4.134
 9489TIP3    H228345   8.021   4.915   3.990
 9490TIP3   OH228346   8.098   4.125   2.979
 9490TIP3    H128347   8.193   4.129   2.984
 9490TIP3    H228348   8.073   4.200   2.926
 9491TIP3   OH228349   7.283   4.585   3.662
 9491TIP3    H128350   7.313   4.555   3.576
 9491TIP3    H228351   7.340   4.540   3.724
 9492TIP3   OH228352   7.722   4.702   2.851
 9492TIP3    H128353   7.676   4.785   2.848
 9492TIP3    H228354   7.666   4.645   2.904
 9493TIP3   OH228355   7.126   4.506   4.275
 9493TIP3    H128356   7.131   4.467   4.362
 9493TIP3    H228357   7.050   4.465   4.234
 9494TIP3   OH228358   7.881   4.605   4.327
 9494TIP3    H128359   7.809   4.550   4.295
 9494TIP3    H228360   7.960   4.566   4.290
 9495TIP3   OH228361   8.118   5.217   3.894
 9495TIP3    H128362   8.028   5.182   3.894
 9495TIP3    H228363   8.142   5.218   3.987
 9496TIP3   OH228364   8.510   4.217   2.801
 9496TIP3    H128365   8.451   4.172   2.740
 9496TIP3    H228366   8.516   4.306   2.767
 9497TIP3   OH228367   8.714   5.078   3.881
 9497TIP3    H128368   8.620   5.079   3.867
 9497TIP3    H228369   8.751   5.054   3.796
 9498TIP3   OH228370   8.251   5.026   2.739
 9498TIP3    H128371   8.221   4.957   2.798
 9498TIP3    H228372   8.257   4.985   2.653
 9499TIP3   OH228373   8.191   4.686   3.514
 9499TIP3    H128374   8.107   4.644   3.534
 9499TIP3    H228375   8.236   4.691   3.598
 9500TIP3   OH228376   7.389   4.900   3.323
 9500TIP3    H128377   7.389   4.976   3.265
 9500TIP3    H228378   7.296   4.887   3.345
 9501TIP3   OH228379   6.950   4.184   3.039
 9501TIP3    H128380   6.991   4.267   3.060
 9501TIP3    H228381   6.868   4.184   3.089
 9502TIP3   OH228382   7.473   4.652   3.235
 9502TIP3    H128383   7.457   4.742   3.263
 9502TIP3    H228384   7.446   4.598   3.309
 9503TIP3   OH228385   7.658   5.240   3.795
 9503TIP3    H128386   7.698   5.301   3.733
 9503TIP3    H228387   7.733   5.194   3.834
 9504TIP3   OH228388   7.305   5.121   3.173
 9504TIP3    H128389   7.220   5.127   3.217
 9504TIP3    H228390   7.340   5.210   3.178
 9505TIP3   OH228391   8.019   4.901   3.775
 9505TIP3    H128392   7.992   4.809   3.781
 9505TIP3    H228393   8.112   4.900   3.797
 9506TIP3   OH228394   8.010   4.764   2.618
 9506TIP3    H128395   8.061   4.736   2.693
 9506TIP3    H228396   7.927   4.719   2.627
 9507TIP3   OH228397   8.292   5.398   3.791
 9507TIP3    H128398   8.222   5.337   3.815
 9507TIP3    H228399   8.256   5.447   3.717
 9508TIP3   OH228400   8.327   5.232   2.425
 9508TIP3    H128401   8.342   5.287   2.348
 9508TIP3    H228402   8.258   5.277   2.474
 9509TIP3   OH228403   7.355   4.005   4.293
 9509TIP3    H128404   7.260   4.017   4.298
 9509TIP3    H228405   7.379   3.959   4.373
 9510TIP3   OH228406   8.185   4.678   2.809
 9510TIP3    H128407   8.170   4.624   2.887
 9510TIP3    H228408   8.280   4.686   2.803
 9511TIP3   OH228409   7.368   4.727   2.634
 9511TIP3    H128410   7.379   4.636   2.607
 9511TIP3    H228411   7.353   4.724   2.728
 9512TIP3   OH228412   7.309   4.745   2.905
 9512TIP3    H128413   7.376   4.720   2.969
 9512TIP3    H228414   7.307   4.841   2.910
 9513TIP3   OH228415   7.043   4.436   3.117
 9513TIP3    H128416   6.978   4.484   3.168
 9513TIP3    H228417   7.062   4.493   3.043
 9514TIP3   OH228418   8.225   4.058   3.989
 9514TIP3    H128419   8.290   4.108   4.038
 9514TIP3    H228420   8.206   3.983   4.046
 9515TIP3   OH228421   8.104   3.818   3.191
 9515TIP3    H128422   8.080   3.835   3.100
 9515TIP3    H228423   8.146   3.899   3.220
 9516TIP3   OH228424   7.579   4.931   2.845
 9516TIP3    H128425   7.494   4.956   2.881
 9516TIP3    H228426   7.603   5.005   2.789
 9517TIP3   OH228427   7.746   4.007   3.269
 9517TIP3    H128428   7.807   4.075   3.241
 9517TIP3    H228429   7.771   3.988   3.360
 9518TIP3   OH228430   8.046   4.297   4.047
 9518TIP3    H128431   8.063   4.350   4.125
 9518TIP3    H228432   8.095   4.216   4.062
 9519TIP3   OH228433   7.911   3.706   3.357
 9519TIP3    H128434   7.885   3.781   3.409
 9519TIP3    H228435   7.982   3.738   3.301
 9520TIP3   OH228436   7.328   5.018   2.920
 9520TIP3    H128437   7.309   5.089   2.860
 9520TIP3    H228438   7.318   5.056   3.007
 9521TIP3   OH228439   7.422   3.729   3.166
 9521TIP3    H128440   7.410   3.820   3.193
 9521TIP3    H228441   7.516   3.714   3.172
 9522TIP3   OH228442   8.636   4.184   4.036
 9522TIP3    H128443   8.545   4.212   4.050
 9522TIP3    H228444   8.630   4.119   3.966
 9523TIP3   OH228445   7.066   4.611   2.899
 9523TIP3    H128446   7.136   4.675   2.908
 9523TIP3    H228447   7.097   4.548   2.834
 9524TIP3   OH228448   6.968   3.906   3.031
 9524TIP3    H128449   6.984   3.999   3.041
 9524TIP3    H228450   6.901   3.900   2.963
 9525TIP3   OH228451   8.298   5.374   3.365
 9525TIP3    H128452   8.258   5.426   3.295
 9525TIP3    H228453   8.392   5.384   3.351
 9526TIP3   OH228454   7.376   3.626   3.898
 9526TIP3    H128455   7.345   3.595   3.813
 9526TIP3    H228456   7.365   3.550   3.956
 9527TIP3   OH228457   6.902   4.876   3.300
 9527TIP3    H128458   6.861   4.914   3.378
 9527TIP3    H228459   6.859   4.920   3.226
 9528TIP3   OH228460   7.522   4.929   2.525
 9528TIP3    H128461   7.475   4.859   2.569
 9528TIP3    H228462   7.597   4.886   2.484
 9529TIP3   OH228463   8.173   5.258   4.162
 9529TIP3    H128464   8.189   5.188   4.224
 9529TIP3    H228465   8.247   5.318   4.173
 9530TIP3   OH228466   7.962   4.972   2.447
 9530TIP3    H128467   7.996   4.908   2.509
 9530TIP3    H228468   8.023   4.968   2.373
 9531TIP3   OH228469   7.188   4.421   2.746
 9531TIP3    H128470   7.239   4.397   2.824
 9531TIP3    H228471   7.254   4.435   2.678
 9532TIP3   OH228472   7.827   4.877   4.304
 9532TIP3    H128473   7.873   4.900   4.223
 9532TIP3    H228474   7.845   4.784   4.316
 9533TIP3   OH228475   7.758   4.643   2.585
 9533TIP3    H128476   7.735   4.654   2.678
 9533TIP3    H228477   7.740   4.551   2.567
 9534TIP3   OH228478   7.433   4.523   4.534
 9534TIP3    H128479   7.502   4.464   4.564
 9534TIP3    H228480   7.410   4.574   4.612
 9535TIP3   OH228481   7.360   4.362   2.960
 9535TIP3    H128482   7.340   4.332   3.048
 9535TIP3    H228483   7.410   4.291   2.920
 9536TIP3   OH228484   7.680   4.444   4.214
 9536TIP3    H128485   7.591   4.478   4.218
 9536TIP3    H228486   7.712   4.471   4.127
 9537TIP3   OH228487   7.505   4.180   2.806
 9537TIP3    H128488   7.474   4.184   2.715
 9537TIP3    H228489   7.600   4.188   2.799
 9538TIP3   OH228490   8.184   4.821   4.295
 9538TIP3    H128491   8.262   4.793   4.246
 9538TIP3    H228492   8.180   4.762   4.370
 9539TIP3   OH228493   8.295   4.466   2.484
 9539TIP3    H128494   8.282   4.425   2.399
 9539TIP3    H228495   8.270   4.557   2.472
 9540TIP3   OH228496   7.777   4.214   4.325
 9540TIP3    H128497   7.780   4.143   4.261
 9540TIP3    H228498   7.744   4.290   4.277
 9541TIP3   OH228499   7.788   4.015   4.120
 9541TIP3    H128500   7.814   4.052   4.036
 9541TIP3    H228501   7.696   3.989   4.108
 9542TIP3   OH228502   7.800   4.526   3.984
 9542TIP3    H128503   7.889   4.538   3.951
 9542TIP3    H228504   7.749   4.595   3.940
 9543TIP3   OH228505   8.383   4.499   4.357
 9543TIP3    H128506   8.428   4.417   4.375
 9543TIP3    H228507   8.446   4.551   4.307
 9544TIP3   OH228508   8.434   4.767   4.148
 9544TIP3    H128509   8.374   4.784   4.075
 9544TIP3    H228510   8.521   4.783   4.112
 9545TIP3   OH228511   7.652   4.305   4.566
 9545TIP3    H128512   7.588   4.237   4.588
 9545TIP3    H228513   7.683   4.281   4.478
 9546TIP3   OH228514   7.909   3.784   4.223
 9546TIP3    H128515   7.869   3.864   4.190
 9546TIP3    H228516   7.843   3.717   4.210
 9547TIP3   OH228517   8.032   4.252   4.427
 9547TIP3    H128518   8.020   4.241   4.521
 9547TIP3    H228519   7.946   4.233   4.390
 9548TIP3   OH228520   8.265   4.199   4.286
 9548TIP3    H128521   8.188   4.203   4.343
 9548TIP3    H228522   8.338   4.182   4.344
 9549TIP3   OH228523   8.497   4.177   4.440
 9549TIP3    H128524   8.513   4.083   4.447
 9549TIP3    H228525   8.496   4.208   4.531
 9550TIP3   OH228526   7.497   4.077   4.629
 9550TIP3    H128527   7.502   3.989   4.593
 9550TIP3    H228528   7.536   4.069   4.716
 9551TIP3   OH228529   7.976   3.762   4.488
 9551TIP3    H128530   8.045   3.696   4.481
 9551TIP3    H228531   7.945   3.774   4.399
 9552TIP3   OH228532   8.069   3.978   4.633
 9552TIP3    H128533   8.039   3.906   4.578
 9552TIP3    H228534   7.995   4.040   4.633
 9553TIP3   OH228535   7.326   5.226   2.737
 9553TIP3    H128536   7.415   5.206   2.709
 9553TIP3    H228537   7.288   5.273   2.663
 9554TIP3   OH228538   6.792   4.611   2.916
 9554TIP3    H128539   6.887   4.621   2.913
 9554TIP3    H228540   6.776   4.525   2.877
 9555TIP3   OH228541   6.695   5.187   3.373
 9555TIP3    H128542   6.626   5.135   3.332
 9555TIP3    H228543   6.739   5.126   3.431
 9556TIP3   OH228544   6.848   5.024   3.537
 9556TIP3    H128545   6.835   4.964   3.611
 9556TIP3    H228546   6.899   5.096   3.574
 9557TIP3   OH228547   8.568   5.422   3.357
 9557TIP3    H128548   8.589   5.451   3.446
 9557TIP3    H228549   8.626   5.474   3.301
 9558TIP3   OH228550   8.592   5.463   3.635
 9558TIP3    H128551   8.541   5.382   3.631
 9558TIP3    H228552   8.663   5.444   3.697
 9559TIP3   OH228553   8.666   5.180   4.215
 9559TIP3    H128554   8.585   5.175   4.266
 9559TIP3    H228555   8.698   5.269   4.229
 9560TIP3   OH228556   8.463   4.677   2.815
 9560TIP3    H128557   8.520   4.749   2.788
 9560TIP3    H228558   8.509   4.636   2.889
 9561TIP3   OH228559   8.590   4.523   3.010
 9561TIP3    H128560   8.523   4.488   3.070
 9561TIP3    H228561   8.649   4.573   3.067
 9562TIP3   OH228562   8.642   4.941   3.453
 9562TIP3    H128563   8.670   4.864   3.403
 9562TIP3    H228564   8.638   5.012   3.388
 9563TIP3   OH228565   8.464   5.220   3.649
 9563TIP3    H128566   8.393   5.251   3.705
 9563TIP3    H228567   8.421   5.165   3.583
 9564TIP3   OH228568   8.505   4.454   2.661
 9564TIP3    H128569   8.433   4.449   2.598
 9564TIP3    H228570   8.486   4.532   2.713
 9565TIP3   OH228571   8.347   4.111   2.611
 9565TIP3    H128572   8.308   4.145   2.530
 9565TIP3    H228573   8.339   4.016   2.604
 9566TIP3   OH228574   8.388   4.385   3.153
 9566TIP3    H128575   8.393   4.294   3.124
 9566TIP3    H228576   8.358   4.380   3.244
 9567TIP3   OH228577   7.005   4.437   3.920
 9567TIP3    H128578   7.000   4.410   3.829
 9567TIP3    H228579   7.099   4.443   3.938
 9568TIP3   OH228580   8.682   4.826   4.034
 9568TIP3    H128581   8.741   4.755   4.009
 9568TIP3    H228582   8.693   4.892   3.965
 9569TIP3   OH228583   8.836   4.600   4.014
 9569TIP3    H128584   8.760   4.560   4.056
 9569TIP3    H228585   8.910   4.546   4.041
 9570TIP3   OH228586   8.311   3.843   2.590
 9570TIP3    H128587   8.382   3.809   2.644
 9570TIP3    H228588   8.234   3.793   2.617
 9571TIP3   OH228589   8.390   4.122   3.039
 9571TIP3    H128590   8.432   4.038   3.052
 9571TIP3    H228591   8.431   4.158   2.961
 9572TIP3   OH228592   8.578   4.420   3.728
 9572TIP3    H128593   8.505   4.442   3.786
 9572TIP3    H228594   8.621   4.503   3.709
 9573TIP3   OH228595   7.234   4.142   4.566
 9573TIP3    H128596   7.328   4.140   4.586
 9573TIP3    H228597   7.199   4.063   4.607
 9574TIP3   OH228598   9.012   4.088   4.340
 9574TIP3    H128599   9.094   4.043   4.319
 9574TIP3    H228600   8.980   4.119   4.255
 9575TIP3   OH228601   8.497   3.871   3.095
 9575TIP3    H128602   8.539   3.854   3.179
 9575TIP3    H228603   8.437   3.797   3.084
 9576TIP3   OH228604   7.214   3.852   3.914
 9576TIP3    H128605   7.268   3.773   3.920
 9576TIP3    H228606   7.277   3.923   3.898
 9577TIP3   OH228607   6.986   4.117   3.974
 9577TIP3    H128608   7.042   4.105   3.898
 9577TIP3    H228609   6.995   4.209   3.997
 9578TIP3   OH228610   8.898   4.147   4.103
 9578TIP3    H128611   8.807   4.176   4.091
 9578TIP3    H228612   8.902   4.063   4.059
 9579TIP3   OH228613   8.549   3.786   2.730
 9579TIP3    H128614   8.596   3.725   2.672
 9579TIP3    H228615   8.605   3.863   2.733
 9580TIP3   OH228616   6.978   3.624   3.479
 9580TIP3    H128617   6.893   3.614   3.522
 9580TIP3    H228618   6.960   3.679   3.403
 9581TIP3   OH228619   8.135   5.348   2.997
 9581TIP3    H128620   8.190   5.336   2.920
 9581TIP3    H228621   8.178   5.418   3.046
 9582TIP3   OH228622   7.200   3.669   4.299
 9582TIP3    H128623   7.155   3.673   4.384
 9582TIP3    H228624   7.148   3.723   4.241
 9583TIP3   OH228625   7.817   5.416   4.084
 9583TIP3    H128626   7.859   5.411   4.170
 9583TIP3    H228627   7.877   5.467   4.030
 9584TIP3   OH228628   8.012   5.556   3.946
 9584TIP3    H128629   8.062   5.497   3.889
 9584TIP3    H228630   8.078   5.608   3.991
 9585TIP3   OH228631   8.820   3.883   4.027
 9585TIP3    H128632   8.728   3.868   4.006
 9585TIP3    H228633   8.863   3.799   4.011
 9586TIP3   OH228634   7.078   5.363   3.914
 9586TIP3    H128635   6.998   5.413   3.923
 9586TIP3    H228636   7.100   5.334   4.002
 9587TIP3   OH228637   7.357   5.432   3.833
 9587TIP3    H128638   7.278   5.391   3.870
 9587TIP3    H228639   7.332   5.454   3.743
 9588TIP3   OH228640   7.741   5.438   3.618
 9588TIP3    H128641   7.670   5.447   3.554
 9588TIP3    H228642   7.750   5.525   3.656
 9589TIP3   OH228643   8.011   5.391   3.666
 9589TIP3    H128644   7.920   5.406   3.640
 9589TIP3    H228645   8.061   5.455   3.615
 9590TIP3   OH228646   8.220   5.551   3.562
 9590TIP3    H128647   8.218   5.635   3.515
 9590TIP3    H228648   8.245   5.487   3.495
 9591TIP3   OH228649   7.009   5.226   3.682
 9591TIP3    H128650   7.042   5.270   3.760
 9591TIP3    H228651   7.085   5.179   3.647
 9592TIP3   OH228652   7.215   5.085   3.572
 9592TIP3    H128653   7.234   5.006   3.623
 9592TIP3    H228654   7.298   5.132   3.569
 9593TIP3   OH228655   7.477   5.184   3.586
 9593TIP3    H128656   7.506   5.094   3.569
 9593TIP3    H228657   7.520   5.208   3.668
 9594TIP3   OH228658   8.062   3.829   3.659
 9594TIP3    H128659   8.020   3.758   3.708
 9594TIP3    H228660   8.123   3.785   3.600
 9595TIP3   OH228661   8.527   3.770   3.571
 9595TIP3    H128662   8.568   3.783   3.486
 9595TIP3    H228663   8.436   3.750   3.551
 9596TIP3   OH228664   8.643   3.827   3.331
 9596TIP3    H128665   8.706   3.762   3.299
 9596TIP3    H228666   8.679   3.911   3.302
 9597TIP3   OH228667   7.286   3.524   3.657
 9597TIP3    H128668   7.197   3.491   3.667
 9597TIP3    H228669   7.340   3.445   3.649
 9598TIP3   OH228670   7.112   3.433   3.316
 9598TIP3    H128671   7.135   3.482   3.237
 9598TIP3    H228672   7.072   3.498   3.374
 9599TIP3   OH228673   7.767   3.562   3.556
 9599TIP3    H128674   7.814   3.610   3.488
 9599TIP3    H228675   7.806   3.592   3.638
 9600TIP3   OH228676   8.263   3.702   3.514
 9600TIP3    H128677   8.270   3.665   3.426
 9600TIP3    H228678   8.263   3.627   3.573
 9601TIP3   OH228679   8.316   3.659   3.097
 9601TIP3    H128680   8.237   3.707   3.123
 9601TIP3    H228681   8.304   3.572   3.133
 9602TIP3   OH228682   6.783   4.999   3.087
 9602TIP3    H128683   6.699   4.964   3.056
 9602TIP3    H228684   6.789   5.085   3.047
 9603TIP3   OH228685   7.213   3.561   3.074
 9603TIP3    H128686   7.259   3.501   3.016
 9603TIP3    H228687   7.282   3.618   3.110
 9604TIP3   OH228688   7.697   3.756   3.173
 9604TIP3    H128689   7.757   3.703   3.226
 9604TIP3    H228690   7.712   3.846   3.201
 9605TIP3   OH228691   7.582   5.153   2.669
 9605TIP3    H128692   7.665   5.181   2.631
 9605TIP3    H228693   7.553   5.081   2.612
 9606TIP3   OH228694   8.285   5.296   2.768
 9606TIP3    H128695   8.278   5.200   2.763
 9606TIP3    H228696   8.241   5.328   2.690
 9607TIP3   OH228697   7.511   3.806   4.540
 9607TIP3    H128698   7.477   3.740   4.600
 9607TIP3    H228699   7.603   3.815   4.564
 9608TIP3   OH228700   7.759   3.812   4.664
 9608TIP3    H128701   7.837   3.790   4.613
 9608TIP3    H228702   7.753   3.743   4.730
 9609TIP3   OH228703   6.888   4.999   2.720
 9609TIP3    H128704   6.889   5.018   2.814
 9609TIP3    H228705   6.970   4.951   2.705
 9610TIP3   OH228706   8.573   3.910   4.453
 9610TIP3    H128707   8.590   3.886   4.544
 9610TIP3    H228708   8.657   3.900   4.408
 9611TIP3   OH228709   8.499   5.443   3.966
 9611TIP3    H128710   8.430   5.415   3.906
 9611TIP3    H228711   8.488   5.538   3.972
 9612TIP3   OH228712   9.027   4.695   3.544
 9612TIP3    H128713   9.058   4.620   3.595
 9612TIP3    H228714   9.068   4.771   3.585
 9613TIP3   OH228715   8.994   5.122   3.192
 9613TIP3    H128716   8.964   5.050   3.247
 9613TIP3    H228717   9.075   5.090   3.152
 9614TIP3   OH228718   8.761   4.324   2.913
 9614TIP3    H128719   8.710   4.397   2.947
 9614TIP3    H228720   8.696   4.267   2.871
 9615TIP3   OH228721   8.821   4.637   3.120
 9615TIP3    H128722   8.858   4.552   3.142
 9615TIP3    H228723   8.886   4.678   3.063
 9616TIP3   OH228724   9.703   5.588   2.725
 9616TIP3    H128725   9.766   5.534   2.774
 9616TIP3    H228726   9.624   5.586   2.778
 9617TIP3   OH228727   9.560   5.080   3.191
 9617TIP3    H128728   9.601   5.090   3.105
 9617TIP3    H228729   9.623   5.119   3.252
 9618TIP3   OH228730   9.275   4.152   3.189
 9618TIP3    H128731   9.279   4.194   3.102
 9618TIP3    H228732   9.299   4.061   3.172
 9619TIP3   OH228733   8.878   4.385   3.228
 9619TIP3    H128734   8.953   4.368   3.284
 9619TIP3    H228735   8.879   4.314   3.163
 9620TIP3   OH228736   9.442   4.641   3.005
 9620TIP3    H128737   9.538   4.644   2.998
 9620TIP3    H228738   9.424   4.558   3.048
 9621TIP3   OH228739   9.237   4.053   3.705
 9621TIP3    H128740   9.237   4.063   3.610
 9621TIP3    H228741   9.181   4.125   3.736
 9622TIP3   OH228742   9.388   4.950   3.351
 9622TIP3    H128743   9.339   5.020   3.394
 9622TIP3    H228744   9.454   4.995   3.299
 9623TIP3   OH228745   9.100   4.294   3.356
 9623TIP3    H128746   9.136   4.381   3.372
 9623TIP3    H228747   9.155   4.258   3.286
 9624TIP3   OH228748   9.225   5.153   3.446
 9624TIP3    H128749   9.221   5.243   3.412
 9624TIP3    H228750   9.142   5.141   3.491
 9625TIP3   OH228751   8.629   4.871   2.701
 9625TIP3    H128752   8.581   4.885   2.619
 9625TIP3    H228753   8.651   4.959   2.731
 9626TIP3   OH228754   9.031   4.803   2.996
 9626TIP3    H128755   9.084   4.750   2.936
 9626TIP3    H228756   9.081   4.883   3.008
 9627TIP3   OH228757   9.336   5.247   3.068
 9627TIP3    H128758   9.349   5.239   2.974
 9627TIP3    H228759   9.422   5.272   3.102
 9628TIP3   OH228760   9.284   4.740   3.216
 9628TIP3    H128761   9.330   4.704   3.140
 9628TIP3    H228762   9.347   4.800   3.256
 9629TIP3   OH228763   9.373   5.256   3.657
 9629TIP3    H128764   9.318   5.330   3.683
 9629TIP3    H228765   9.322   5.208   3.593
 9630TIP3   OH228766   9.133   4.884   3.721
 9630TIP3    H128767   9.143   4.973   3.757
 9630TIP3    H228768   9.054   4.850   3.762
 9631TIP3   OH228769   9.669   5.294   2.661
 9631TIP3    H128770   9.722   5.326   2.734
 9631TIP3    H228771   9.627   5.372   2.625
 9632TIP3   OH228772   9.216   5.474   3.707
 9632TIP3    H128773   9.194   5.471   3.614
 9632TIP3    H228774   9.134   5.452   3.752
 9633TIP3   OH228775   9.000   4.573   2.697
 9633TIP3    H128776   8.991   4.624   2.617
 9633TIP3    H228777   8.913   4.574   2.737
 9634TIP3   OH228778   8.825   4.993   3.649
 9634TIP3    H128779   8.759   4.974   3.582
 9634TIP3    H228780   8.850   4.907   3.682
 9635TIP3   OH228781   8.687   5.171   3.293
 9635TIP3    H128782   8.778   5.196   3.302
 9635TIP3    H228783   8.637   5.245   3.328
 9636TIP3   OH228784   9.570   5.364   3.503
 9636TIP3    H128785   9.560   5.457   3.519
 9636TIP3    H228786   9.500   5.323   3.554
 9637TIP3   OH228787   9.365   5.605   2.354
 9637TIP3    H128788   9.275   5.578   2.333
 9637TIP3    H228789   9.354   5.673   2.419
 9638TIP3   OH228790   8.860   5.357   2.797
 9638TIP3    H128791   8.895   5.354   2.886
 9638TIP3    H228792   8.804   5.279   2.790
 9639TIP3   OH228793   9.006   5.194   3.612
 9639TIP3    H128794   9.054   5.189   3.694
 9639TIP3    H228795   8.939   5.126   3.619
 9640TIP3   OH228796   9.476   3.940   3.392
 9640TIP3    H128797   9.449   3.903   3.308
 9640TIP3    H228798   9.406   4.001   3.415
 9641TIP3   OH228799   9.490   4.522   3.388
 9641TIP3    H128800   9.446   4.457   3.443
 9641TIP3    H228801   9.443   4.518   3.305
 9642TIP3   OH228802   9.279   4.279   2.950
 9642TIP3    H128803   9.189   4.293   2.922
 9642TIP3    H228804   9.332   4.327   2.886
 9643TIP3   OH228805   9.161   4.490   3.687
 9643TIP3    H128806   9.187   4.546   3.760
 9643TIP3    H228807   9.136   4.407   3.728
 9644TIP3   OH228808   9.239   4.031   2.325
 9644TIP3    H128809   9.207   3.945   2.350
 9644TIP3    H228810   9.207   4.044   2.236
 9645TIP3   OH228811   8.744   4.058   3.243
 9645TIP3    H128812   8.801   4.085   3.315
 9645TIP3    H228813   8.795   4.076   3.164
 9646TIP3   OH228814   8.700   4.021   2.749
 9646TIP3    H128815   8.748   4.055   2.673
 9646TIP3    H228816   8.632   4.086   2.765
 9647TIP3   OH228817   8.927   4.163   3.068
 9647TIP3    H128818   8.879   4.205   2.996
 9647TIP3    H228819   8.992   4.108   3.025
 9648TIP3   OH228820   9.231   4.214   2.656
 9648TIP3    H128821   9.264   4.296   2.694
 9648TIP3    H228822   9.164   4.241   2.594
 9649TIP3   OH228823   9.069   4.270   2.445
 9649TIP3    H128824   9.000   4.220   2.403
 9649TIP3    H228825   9.138   4.276   2.379
 9650TIP3   OH228826   9.152   5.128   3.847
 9650TIP3    H128827   9.239   5.138   3.887
 9650TIP3    H228828   9.092   5.120   3.921
 9651TIP3   OH228829   9.083   3.990   2.928
 9651TIP3    H128830   9.065   3.911   2.979
 9651TIP3    H228831   9.095   3.959   2.838
 9652TIP3   OH228832   9.376   4.838   2.489
 9652TIP3    H128833   9.439   4.766   2.481
 9652TIP3    H228834   9.359   4.845   2.582
 9653TIP3   OH228835   9.733   5.180   3.373
 9653TIP3    H128836   9.828   5.173   3.385
 9653TIP3    H228837   9.710   5.264   3.410
 9654TIP3   OH228838   9.024   4.839   3.267
 9654TIP3    H128839   8.994   4.825   3.177
 9654TIP3    H228840   9.114   4.805   3.268
 9655TIP3   OH228841   8.895   4.769   3.801
 9655TIP3    H128842   8.905   4.724   3.885
 9655TIP3    H228843   8.843   4.709   3.748
 9656TIP3   OH228844   9.698   4.753   3.732
 9656TIP3    H128845   9.603   4.746   3.729
 9656TIP3    H228846   9.729   4.689   3.667
 9657TIP3   OH228847   9.109   5.147   2.811
 9657TIP3    H128848   9.102   5.218   2.748
 9657TIP3    H228849   9.021   5.136   2.846
 9658TIP3   OH228850   8.738   4.446   2.515
 9658TIP3    H128851   8.768   4.537   2.519
 9658TIP3    H228852   8.658   4.444   2.566
 9659TIP3   OH228853   9.256   4.928   2.728
 9659TIP3    H128854   9.212   4.996   2.780
 9659TIP3    H228855   9.238   4.847   2.775
 9660TIP3   OH228856   9.423   5.512   3.286
 9660TIP3    H128857   9.466   5.591   3.253
 9660TIP3    H228858   9.492   5.445   3.286
 9661TIP3   OH228859   9.094   5.384   2.659
 9661TIP3    H128860   9.006   5.384   2.696
 9661TIP3    H228861   9.118   5.476   2.654
 9662TIP3   OH228862   9.098   4.256   3.814
 9662TIP3    H128863   9.003   4.258   3.822
 9662TIP3    H228864   9.128   4.218   3.896
 9663TIP3   OH228865   8.883   5.385   3.431
 9663TIP3    H128866   8.929   5.323   3.488
 9663TIP3    H228867   8.893   5.469   3.474
 9664TIP3   OH228868   9.071   4.946   2.069
 9664TIP3    H128869   9.068   4.851   2.074
 9664TIP3    H228870   9.032   4.976   2.151
 9665TIP3   OH228871   9.015   5.045   2.323
 9665TIP3    H128872   9.054   4.979   2.380
 9665TIP3    H228873   9.045   5.128   2.358
 9666TIP3   OH228874   8.805   4.714   2.555
 9666TIP3    H128875   8.747   4.760   2.616
 9666TIP3    H228876   8.825   4.778   2.488
 9667TIP3   OH228877   9.326   5.220   2.255
 9667TIP3    H128878   9.265   5.238   2.326
 9667TIP3    H228879   9.411   5.250   2.288
 9668TIP3   OH228880   9.094   5.310   2.388
 9668TIP3    H128881   9.088   5.396   2.347
 9668TIP3    H228882   9.092   5.328   2.482
 9669TIP3   OH228883   9.164   3.944   2.660
 9669TIP3    H128884   9.170   4.039   2.646
 9669TIP3    H228885   9.252   3.919   2.687
 9670TIP3   OH228886   8.785   4.900   2.327
 9670TIP3    H128887   8.852   4.969   2.328
 9670TIP3    H228888   8.826   4.829   2.278
 9671TIP3   OH228889   8.777   4.169   2.532
 9671TIP3    H128890   8.777   4.265   2.533
 9671TIP3    H228891   8.766   4.145   2.440
 9672TIP3   OH228892   9.052   3.870   3.379
 9672TIP3    H128893   9.043   3.848   3.286
 9672TIP3    H228894   9.063   3.786   3.423
 9673TIP3   OH228895   8.683   5.141   2.777
 9673TIP3    H128896   8.635   5.174   2.853
 9673TIP3    H228897   8.640   5.181   2.702
 9674TIP3   OH228898   8.878   5.673   3.842
 9674TIP3    H128899   8.951   5.683   3.902
 9674TIP3    H228900   8.875   5.579   3.823
 9675TIP3   OH228901   9.317   5.626   3.915
 9675TIP3    H128902   9.395   5.676   3.890
 9675TIP3    H228903   9.295   5.576   3.836
 9676TIP3   OH228904   9.358   5.247   1.948
 9676TIP3    H128905   9.277   5.229   1.996
 9676TIP3    H228906   9.419   5.179   1.977
 9677TIP3   OH228907   8.955   5.089   4.038
 9677TIP3    H128908   8.980   4.997   4.045
 9677TIP3    H228909   8.866   5.086   4.002
 9678TIP3   OH228910   8.919   4.695   2.211
 9678TIP3    H128911   8.943   4.641   2.286
 9678TIP3    H228912   8.989   4.681   2.148
 9679TIP3   OH228913   9.597   5.205   3.796
 9679TIP3    H128914   9.519   5.209   3.741
 9679TIP3    H228915   9.667   5.181   3.736
 9680TIP3   OH228916   9.071   4.837   4.041
 9680TIP3    H128917   9.127   4.777   3.992
 9680TIP3    H228918   9.119   4.855   4.122
 9681TIP3   OH228919   9.046   4.543   2.395
 9681TIP3    H128920   9.021   4.472   2.454
 9681TIP3    H228921   9.112   4.504   2.338
 9682TIP3   OH228922   9.486   4.580   3.682
 9682TIP3    H128923   9.424   4.637   3.636
 9682TIP3    H228924   9.546   4.550   3.615
 9683TIP3   OH228925   9.256   4.402   2.270
 9683TIP3    H128926   9.245   4.401   2.175
 9683TIP3    H228927   9.348   4.381   2.283
 9684TIP3   OH228928   9.407   4.371   3.852
 9684TIP3    H128929   9.451   4.311   3.792
 9684TIP3    H228930   9.396   4.452   3.801
 9685TIP3   OH228931   9.570   4.226   3.681
 9685TIP3    H128932   9.659   4.217   3.646
 9685TIP3    H228933   9.518   4.256   3.607
 9686TIP3   OH228934   9.634   4.762   3.429
 9686TIP3    H128935   9.589   4.679   3.411
 9686TIP3    H228936   9.566   4.829   3.417
 9687TIP3   OH228937   9.452   4.547   4.074
 9687TIP3    H128938   9.384   4.481   4.086
 9687TIP3    H228939   9.500   4.519   3.996
 9688TIP3   OH228940   9.262   4.361   4.155
 9688TIP3    H128941   9.268   4.281   4.104
 9688TIP3    H228942   9.282   4.334   4.244
 9689TIP3   OH228943   9.123   5.536   2.234
 9689TIP3    H128944   9.202   5.524   2.180
 9689TIP3    H228945   9.061   5.580   2.176
 9690TIP3   OH228946   8.543   4.843   2.428
 9690TIP3    H128947   8.628   4.873   2.397
 9690TIP3    H228948   8.533   4.756   2.388
 9691TIP3   OH228949   8.488   5.449   2.864
 9691TIP3    H128950   8.423   5.396   2.819
 9691TIP3    H228951   8.532   5.388   2.924
 9692TIP3   OH228952   8.631   5.281   3.031
 9692TIP3    H128953   8.624   5.210   3.094
 9692TIP3    H228954   8.677   5.351   3.079
 9693TIP3   OH228955   8.788   4.704   3.385
 9693TIP3    H128956   8.789   4.690   3.290
 9693TIP3    H228957   8.878   4.731   3.406
 9694TIP3   OH228958   9.004   4.400   4.076
 9694TIP3    H128959   9.098   4.396   4.089
 9694TIP3    H228960   8.973   4.311   4.094
 9695TIP3   OH228961   8.919   4.103   3.447
 9695TIP3    H128962   8.963   4.019   3.432
 9695TIP3    H228963   8.985   4.169   3.427
 9696TIP3   OH228964   8.701   4.406   3.443
 9696TIP3    H128965   8.750   4.385   3.364
 9696TIP3    H228966   8.714   4.500   3.455
 9697TIP3   OH228967   8.760   3.870   2.970
 9697TIP3    H128968   8.674   3.869   3.011
 9697TIP3    H228969   8.751   3.932   2.897
 9698TIP3   OH228970   8.916   3.981   3.781
 9698TIP3    H128971   8.893   3.952   3.870
 9698TIP3    H228972   8.914   3.901   3.728
 9699TIP3   OH228973   9.003   5.412   3.869
 9699TIP3    H128974   8.913   5.381   3.862
 9699TIP3    H228975   9.033   5.382   3.955
 9700TIP3   OH228976   9.207   5.435   3.430
 9700TIP3    H128977   9.147   5.497   3.389
 9700TIP3    H228978   9.293   5.455   3.392
 9701TIP3   OH228979   9.581   5.642   3.571
 9701TIP3    H128980   9.651   5.626   3.634
 9701TIP3    H228981   9.624   5.631   3.486
 9702TIP3   OH228982   8.885   5.676   3.476
 9702TIP3    H128983   8.795   5.695   3.451
 9702TIP3    H228984   8.909   5.746   3.536
 9703TIP3   OH228985   9.098   5.656   3.305
 9703TIP3    H128986   9.019   5.664   3.360
 9703TIP3    H228987   9.071   5.693   3.221
 9704TIP3   OH228988   9.520   5.722   3.121
 9704TIP3    H128989   9.503   5.661   3.049
 9704TIP3    H228990   9.464   5.797   3.104
 9705TIP3   OH228991   0.069   5.616   3.128
 9705TIP3    H128992   0.064   5.531   3.083
 9705TIP3    H228993   0.112   5.674   3.066
 9706TIP3   OH228994   8.790   5.468   3.185
 9706TIP3    H128995   8.821   5.445   3.273
 9706TIP3    H228996   8.859   5.437   3.126
 9707TIP3   OH228997   8.986   5.354   3.040
 9707TIP3    H128998   8.996   5.276   3.095
 9707TIP3    H228999   9.069   5.401   3.050
 9708TIP3   OH229000   9.224   5.498   3.076
 9708TIP3    H129001   9.270   5.414   3.069
 9708TIP3    H229002   9.253   5.534   3.160
 9709TIP3   OH229003   9.046   3.786   3.115
 9709TIP3    H129004   8.953   3.765   3.106
 9709TIP3    H229005   9.089   3.700   3.116
 9710TIP3   OH229006   8.907   3.689   2.821
 9710TIP3    H129007   8.913   3.727   2.733
 9710TIP3    H229008   8.857   3.753   2.871
 9711TIP3   OH229009   8.573   5.259   2.555
 9711TIP3    H129010   8.489   5.229   2.520
 9711TIP3    H229011   8.577   5.351   2.530
 9712TIP3   OH229012   8.954   3.797   2.565
 9712TIP3    H129013   8.994   3.735   2.505
 9712TIP3    H229014   9.027   3.850   2.596
 9713TIP3   OH229015   9.344   5.488   2.085
 9713TIP3    H129016   9.417   5.505   2.145
 9713TIP3    H229017   9.360   5.399   2.053
 9714TIP3   OH229018   9.222   4.120   4.025
 9714TIP3    H129019   9.221   4.056   4.097
 9714TIP3    H229020   9.306   4.105   3.981
 9715TIP3   OH229021   9.470   4.144   4.193
 9715TIP3    H129022   9.557   4.171   4.166
 9715TIP3    H229023   9.480   4.053   4.220
 9716TIP3   OH229024   8.641   5.246   2.243
 9716TIP3    H129025   8.662   5.253   2.337
 9716TIP3    H229026   8.721   5.211   2.204
 9717TIP3   OH229027   0.487   5.370   4.916
 9717TIP3    H129028   0.452   5.451   4.878
 9717TIP3    H229029   0.417   5.306   4.906
 9718TIP3   OH229030   0.549   5.314   5.255
 9718TIP3    H129031   0.546   5.284   5.345
 9718TIP3    H229032   0.462   5.298   5.220
 9719TIP3   OH229033   0.695   5.672   4.965
 9719TIP3    H129034   0.705   5.598   5.026
 9719TIP3    H229035   0.722   5.748   5.016
 9720TIP3   OH229036   0.322   6.014   5.064
 9720TIP3    H129037   0.400   6.059   5.031
 9720TIP3    H229038   0.350   5.974   5.146
 9721TIP3   OH229039   0.206   5.463   5.390
 9721TIP3    H129040   0.275   5.481   5.327
 9721TIP3    H229041   0.147   5.538   5.384
 9722TIP3   OH229042   1.274   4.882   5.342
 9722TIP3    H129043   1.295   4.965   5.385
 9722TIP3    H229044   1.309   4.891   5.254
 9723TIP3   OH229045   0.709   5.033   5.346
 9723TIP3    H129046   0.752   4.951   5.372
 9723TIP3    H229047   0.674   5.016   5.259
 9724TIP3   OH229048   0.032   4.831   5.319
 9724TIP3    H129049  -0.041   4.883   5.353
 9724TIP3    H229050   0.004   4.740   5.330
 9725TIP3   OH229051   0.715   4.817   4.950
 9725TIP3    H129052   0.779   4.812   5.021
 9725TIP3    H229053   0.765   4.849   4.875
 9726TIP3   OH229054   9.753   5.180   5.325
 9726TIP3    H129055   9.771   5.248   5.260
 9726TIP3    H229056   9.709   5.111   5.275
 9727TIP3   OH229057   1.335   5.098   5.508
 9727TIP3    H129058   1.248   5.138   5.504
 9727TIP3    H229059   1.376   5.136   5.585
 9728TIP3   OH229060   0.334   5.542   4.761
 9728TIP3    H129061   0.305   5.526   4.671
 9728TIP3    H229062   0.329   5.637   4.771
 9729TIP3   OH229063   0.876   4.840   5.164
 9729TIP3    H129064   0.851   4.806   5.250
 9729TIP3    H229065   0.935   4.913   5.184
 9730TIP3   OH229066   0.749   5.904   5.123
 9730TIP3    H129067   0.667   5.895   5.172
 9730TIP3    H229068   0.745   5.992   5.086
 9731TIP3   OH229069   1.075   4.773   5.510
 9731TIP3    H129070   0.990   4.795   5.474
 9731TIP3    H229071   1.138   4.801   5.443
 9732TIP3   OH229072   0.375   4.383   5.513
 9732TIP3    H129073   0.387   4.292   5.541
 9732TIP3    H229074   0.280   4.396   5.513
 9733TIP3   OH229075   0.512   5.923   4.781
 9733TIP3    H129076   0.549   5.836   4.764
 9733TIP3    H229077   0.569   5.982   4.733
 9734TIP3   OH229078   0.621   5.689   4.701
 9734TIP3    H129079   0.625   5.605   4.656
 9734TIP3    H229080   0.654   5.670   4.789
 9735TIP3   OH229081   1.004   5.788   5.474
 9735TIP3    H129082   0.984   5.717   5.413
 9735TIP3    H229083   0.987   5.867   5.424
 9736TIP3   OH229084   0.314   5.218   4.752
 9736TIP3    H129085   0.247   5.285   4.744
 9736TIP3    H229086   0.359   5.220   4.668
 9737TIP3   OH229087   0.311   4.969   4.450
 9737TIP3    H129088   0.376   5.026   4.493
 9737TIP3    H229089   0.364   4.907   4.400
 9738TIP3   OH229090   1.160   5.447   5.351
 9738TIP3    H129091   1.077   5.494   5.345
 9738TIP3    H229092   1.199   5.455   5.264
 9739TIP3   OH229093   0.654   5.288   4.720
 9739TIP3    H129094   0.606   5.318   4.797
 9739TIP3    H229095   0.736   5.252   4.755
 9740TIP3   OH229096   0.865   5.308   5.643
 9740TIP3    H129097   0.868   5.382   5.704
 9740TIP3    H229098   0.795   5.329   5.582
 9741TIP3   OH229099   0.019   5.334   5.564
 9741TIP3    H129100  -0.056   5.331   5.505
 9741TIP3    H229101   0.091   5.365   5.510
 9742TIP3   OH229102   0.528   5.869   5.282
 9742TIP3    H129103   0.467   5.930   5.324
 9742TIP3    H229104   0.537   5.797   5.345
 9743TIP3   OH229105   0.496   5.149   4.550
 9743TIP3    H129106   0.558   5.200   4.602
 9743TIP3    H229107   0.518   5.171   4.459
 9744TIP3   OH229108   0.265   5.804   4.834
 9744TIP3    H129109   0.348   5.852   4.844
 9744TIP3    H229110   0.211   5.836   4.906
 9745TIP3   OH229111   0.966   4.366   4.597
 9745TIP3    H129112   0.890   4.386   4.652
 9745TIP3    H229113   0.975   4.444   4.541
 9746TIP3   OH229114   0.786   5.754   4.137
 9746TIP3    H129115   0.794   5.848   4.119
 9746TIP3    H229116   0.876   5.722   4.137
 9747TIP3   OH229117   1.211   6.156   5.544
 9747TIP3    H129118   1.222   6.061   5.554
 9747TIP3    H229119   1.130   6.176   5.590
 9748TIP3   OH229120   0.380   5.832   5.681
 9748TIP3    H129121   0.389   5.896   5.752
 9748TIP3    H229122   0.286   5.834   5.660
 9749TIP3   OH229123   0.081   5.992   4.648
 9749TIP3    H129124   0.080   6.077   4.603
 9749TIP3    H229125   0.097   6.014   4.740
 9750TIP3   OH229126   0.370   5.985   4.259
 9750TIP3    H129127   0.417   5.905   4.235
 9750TIP3    H229128   0.401   6.006   4.347
 9751TIP3   OH229129   0.398   6.056   4.532
 9751TIP3    H129130   0.328   6.080   4.593
 9751TIP3    H229131   0.479   6.077   4.579
 9752TIP3   OH229132   1.095   5.263   5.827
 9752TIP3    H129133   1.018   5.262   5.770
 9752TIP3    H229134   1.122   5.171   5.832
 9753TIP3   OH229135   0.076   4.504   5.632
 9753TIP3    H129136   0.021   4.457   5.570
 9753TIP3    H229137   0.131   4.561   5.578
 9754TIP3   OH229138   0.651   4.638   5.850
 9754TIP3    H129139   0.731   4.611   5.896
 9754TIP3    H229140   0.580   4.597   5.899
 9755TIP3   OH229141   0.858   5.032   5.703
 9755TIP3    H129142   0.828   5.024   5.794
 9755TIP3    H229143   0.841   5.124   5.680
 9756TIP3   OH229144   0.550   5.190   4.293
 9756TIP3    H129145   0.503   5.159   4.216
 9756TIP3    H229146   0.635   5.219   4.259
 9757TIP3   OH229147   0.261   4.524   4.555
 9757TIP3    H129148   0.230   4.536   4.644
 9757TIP3    H229149   0.240   4.433   4.534
 9758TIP3   OH229150   9.677   5.120   5.665
 9758TIP3    H129151   9.739   5.081   5.727
 9758TIP3    H229152   9.726   5.192   5.624
 9759TIP3   OH229153   9.636   4.995   5.162
 9759TIP3    H129154   9.559   5.040   5.127
 9759TIP3    H229155   9.674   4.950   5.086
 9760TIP3   OH229156   0.432   5.002   4.873
 9760TIP3    H129157   0.401   5.083   4.831
 9760TIP3    H229158   0.490   4.962   4.808
 9761TIP3   OH229159   0.619   5.289   6.001
 9761TIP3    H129160   0.596   5.209   6.048
 9761TIP3    H229161   0.712   5.300   6.016
 9762TIP3   OH229162   0.565   4.983   5.114
 9762TIP3    H129163   0.508   5.016   5.045
 9762TIP3    H229164   0.620   4.918   5.070
 9763TIP3   OH229165   9.754   4.514   4.561
 9763TIP3    H129166   9.784   4.536   4.649
 9763TIP3    H229167   9.713   4.594   4.528
 9764TIP3   OH229168   0.563   5.192   5.503
 9764TIP3    H129169   0.626   5.139   5.454
 9764TIP3    H229170   0.584   5.175   5.595
 9765TIP3   OH229171   0.327   4.730   5.182
 9765TIP3    H129172   0.299   4.811   5.224
 9765TIP3    H229173   0.393   4.694   5.241
 9766TIP3   OH229174   9.764   4.873   4.961
 9766TIP3    H129175   9.827   4.930   4.917
 9766TIP3    H229176   9.730   4.816   4.893
 9767TIP3   OH229177   0.774   4.767   5.409
 9767TIP3    H129178   0.736   4.785   5.495
 9767TIP3    H229179   0.736   4.683   5.383
 9768TIP3   OH229180   9.452   4.770   4.618
 9768TIP3    H129181   9.388   4.700   4.607
 9768TIP3    H229182   9.513   4.757   4.545
 9769TIP3   OH229183   0.934   6.486   5.639
 9769TIP3    H129184   0.928   6.510   5.547
 9769TIP3    H229185   1.011   6.534   5.671
 9770TIP3   OH229186   0.413   4.996   5.342
 9770TIP3    H129187   0.459   5.003   5.258
 9770TIP3    H229188   0.473   4.945   5.398
 9771TIP3   OH229189   9.582   4.515   5.134
 9771TIP3    H129190   9.572   4.423   5.110
 9771TIP3    H229191   9.660   4.544   5.086
 9772TIP3   OH229192   0.377   4.991   5.622
 9772TIP3    H129193   0.305   4.929   5.612
 9772TIP3    H229194   0.399   4.987   5.715
 9773TIP3   OH229195   0.080   5.359   4.758
 9773TIP3    H129196   0.013   5.321   4.700
 9773TIP3    H229197   0.031   5.410   4.822
 9774TIP3   OH229198   0.936   5.596   5.295
 9774TIP3    H129199   0.980   5.646   5.226
 9774TIP3    H229200   0.862   5.555   5.251
 9775TIP3   OH229201   0.509   4.647   4.596
 9775TIP3    H129202   0.416   4.629   4.581
 9775TIP3    H229203   0.514   4.742   4.604
 9776TIP3   OH229204   0.514   5.591   5.713
 9776TIP3    H129205   0.563   5.598   5.795
 9776TIP3    H229206   0.448   5.660   5.719
 9777TIP3   OH229207   0.581   4.907   4.659
 9777TIP3    H129208   0.675   4.902   4.673
 9777TIP3    H229209   0.568   4.987   4.608
 9778TIP3   OH229210   0.192   5.478   4.519
 9778TIP3    H129211   0.140   5.558   4.513
 9778TIP3    H229212   0.133   5.414   4.559
 9779TIP3   OH229213   0.372   5.429   5.970
 9779TIP3    H129214   0.306   5.372   5.930
 9779TIP3    H229215   0.452   5.377   5.968
 9780TIP3   OH229216   0.638   5.889   5.597
 9780TIP3    H129217   0.554   5.854   5.626
 9780TIP3    H229218   0.673   5.934   5.674
 9781TIP3   OH229219   0.968   5.004   4.489
 9781TIP3    H129220   0.908   4.961   4.428
 9781TIP3    H229221   0.977   5.093   4.454
 9782TIP3   OH229222   1.239   5.884   5.570
 9782TIP3    H129223   1.147   5.860   5.571
 9782TIP3    H229224   1.271   5.850   5.486
 9783TIP3   OH229225   0.680   5.811   4.417
 9783TIP3    H129226   0.668   5.753   4.492
 9783TIP3    H229227   0.704   5.754   4.345
 9784TIP3   OH229228   0.743   5.469   5.149
 9784TIP3    H129229   0.662   5.434   5.185
 9784TIP3    H229230   0.787   5.393   5.111
 9785TIP3   OH229231   9.678   5.477   4.940
 9785TIP3    H129232   9.694   5.506   5.029
 9785TIP3    H229233   9.678   5.381   4.946
 9786TIP3   OH229234   0.549   5.630   5.438
 9786TIP3    H129235   0.518   5.611   5.526
 9786TIP3    H229236   0.645   5.622   5.445
 9787TIP3   OH229237   0.519   5.531   4.279
 9787TIP3    H129238   0.555   5.508   4.364
 9787TIP3    H229239   0.432   5.492   4.278
 9788TIP3   OH229240   0.746   6.170   5.434
 9788TIP3    H129241   0.667   6.128   5.399
 9788TIP3    H229242   0.764   6.242   5.373
 9789TIP3   OH229243   0.812   6.026   4.101
 9789TIP3    H129244   0.864   6.098   4.067
 9789TIP3    H229245   0.732   6.067   4.134
 9790TIP3   OH229246   0.651   5.476   4.521
 9790TIP3    H129247   0.640   5.407   4.586
 9790TIP3    H229248   0.745   5.478   4.504
 9791TIP3   OH229249   9.709   5.528   4.328
 9791TIP3    H129250   9.734   5.438   4.308
 9791TIP3    H229251   9.630   5.520   4.382
 9792TIP3   OH229252   0.672   4.829   5.652
 9792TIP3    H129253   0.736   4.895   5.680
 9792TIP3    H229254   0.662   4.771   5.727
 9793TIP3   OH229255   0.571   4.600   4.860
 9793TIP3    H129256   0.553   4.618   4.768
 9793TIP3    H229257   0.615   4.679   4.892
 9794TIP3   OH229258   9.812   5.694   4.536
 9794TIP3    H129259   9.782   5.682   4.626
 9794TIP3    H229260   9.748   5.646   4.483
 9795TIP3   OH229261   0.261   4.795   4.924
 9795TIP3    H129262   0.316   4.870   4.902
 9795TIP3    H229263   0.288   4.771   5.013
 9796TIP3   OH229264   0.590   5.154   5.767
 9796TIP3    H129265   0.603   5.211   5.843
 9796TIP3    H229266   0.575   5.067   5.804
 9797TIP3   OH229267   0.359   4.503   5.002
 9797TIP3    H129268   0.356   4.564   5.076
 9797TIP3    H229269   0.440   4.525   4.956
 9798TIP3   OH229270   9.708   4.466   4.851
 9798TIP3    H129271   9.737   4.557   4.852
 9798TIP3    H229272   9.789   4.415   4.855
 9799TIP3   OH229273   1.126   4.994   5.728
 9799TIP3    H129274   1.030   4.996   5.722
 9799TIP3    H229275   1.153   4.944   5.651
 9800TIP3   OH229276   0.807   5.199   5.106
 9800TIP3    H129277   0.724   5.195   5.153
 9800TIP3    H229278   0.870   5.154   5.162
 9801TIP3   OH229279   0.788   6.169   5.041
 9801TIP3    H129280   0.755   6.228   4.973
 9801TIP3    H229281   0.883   6.176   5.034
 9802TIP3   OH229282   9.800   5.780   4.259
 9802TIP3    H129283   9.736   5.711   4.273
 9802TIP3    H229284   9.797   5.797   4.165
 9803TIP3   OH229285   0.714   6.023   5.819
 9803TIP3    H129286   0.689   5.975   5.899
 9803TIP3    H229287   0.779   6.087   5.849
 9804TIP3   OH229288   0.498   5.771   4.137
 9804TIP3    H129289   0.487   5.697   4.198
 9804TIP3    H229290   0.591   5.771   4.116
 9805TIP3   OH229291   0.257   5.678   5.987
 9805TIP3    H129292   0.181   5.659   6.043
 9805TIP3    H229293   0.290   5.592   5.962
 9806TIP3   OH229294   0.269   5.414   4.256
 9806TIP3    H129295   0.239   5.438   4.344
 9806TIP3    H229296   0.249   5.320   4.249
 9807TIP3   OH229297   0.794   5.666   5.598
 9807TIP3    H129298   0.874   5.706   5.564
 9807TIP3    H229299   0.731   5.738   5.602
 9808TIP3   OH229300   9.653   5.107   4.676
 9808TIP3    H129301   9.577   5.067   4.632
 9808TIP3    H229302   9.725   5.046   4.660
 9809TIP3   OH229303   0.145   5.305   5.843
 9809TIP3    H129304   0.077   5.338   5.785
 9809TIP3    H229305   0.193   5.241   5.790
 9810TIP3   OH229306   0.060   4.953   4.567
 9810TIP3    H129307   0.007   4.947   4.487
 9810TIP3    H229308   0.150   4.952   4.536
 9811TIP3   OH229309   0.658   5.625   5.951
 9811TIP3    H129310   0.733   5.565   5.945
 9811TIP3    H229311   0.611   5.597   6.029
 9812TIP3   OH229312   0.773   5.267   4.150
 9812TIP3    H129313   0.761   5.218   4.068
 9812TIP3    H229314   0.756   5.358   4.127
 9813TIP3   OH229315   0.165   4.963   6.077
 9813TIP3    H129316   0.108   4.897   6.118
 9813TIP3    H229317   0.110   5.001   6.008
 9814TIP3   OH229318   0.279   4.703   5.788
 9814TIP3    H129319   0.315   4.784   5.824
 9814TIP3    H229320   0.203   4.731   5.738
 9815TIP3   OH229321   0.341   5.301   5.629
 9815TIP3    H129322   0.430   5.324   5.655
 9815TIP3    H229323   0.290   5.380   5.645
 9816TIP3   OH229324   0.890   5.282   6.066
 9816TIP3    H129325   0.927   5.195   6.072
 9816TIP3    H229326   0.960   5.336   6.030
 9817TIP3   OH229327   0.899   5.531   5.807
 9817TIP3    H129328   0.843   5.583   5.748
 9817TIP3    H229329   0.988   5.548   5.776
 9818TIP3   OH229330   0.410   4.497   5.904
 9818TIP3    H129331   0.371   4.568   5.853
 9818TIP3    H229332   0.367   4.417   5.872
 9819TIP3   OH229333   0.569   5.048   6.120
 9819TIP3    H129334   0.610   5.028   6.205
 9819TIP3    H229335   0.479   5.074   6.142
 9820TIP3   OH229336   0.776   4.990   5.954
 9820TIP3    H129337   0.700   4.996   6.011
 9820TIP3    H229338   0.848   4.968   6.013
 9821TIP3   OH229339   0.981   4.960   6.136
 9821TIP3    H129340   0.997   4.866   6.144
 9821TIP3    H229341   0.976   4.992   6.226
 9822TIP3   OH229342   0.478   4.517   6.172
 9822TIP3    H129343   0.549   4.454   6.166
 9822TIP3    H229344   0.444   4.526   6.083
 9823TIP3   OH229345   0.570   4.750   6.291
 9823TIP3    H129346   0.548   4.661   6.266
 9823TIP3    H229347   0.487   4.790   6.315
 9824TIP3   OH229348   1.048   6.235   5.041
 9824TIP3    H129349   1.072   6.264   5.129
 9824TIP3    H229350   1.113   6.277   4.984
 9825TIP3   OH229351   1.060   6.249   5.323
 9825TIP3    H129352   1.020   6.163   5.308
 9825TIP3    H229353   1.128   6.232   5.389
 9826TIP3   OH229354   1.098   5.951   5.894
 9826TIP3    H129355   1.029   5.956   5.961
 9826TIP3    H229356   1.147   6.032   5.905
 9827TIP3   OH229357   0.924   5.467   4.505
 9827TIP3    H129358   0.984   5.535   4.477
 9827TIP3    H229359   0.968   5.425   4.580
 9828TIP3   OH229360   1.055   5.327   4.705
 9828TIP3    H129361   0.995   5.280   4.763
 9828TIP3    H229362   1.123   5.362   4.763
 9829TIP3   OH229363   1.108   5.729   5.132
 9829TIP3    H129364   1.160   5.657   5.098
 9829TIP3    H229365   1.116   5.798   5.066
 9830TIP3   OH229366   0.930   6.000   5.315
 9830TIP3    H129367   0.859   6.042   5.365
 9830TIP3    H229368   0.886   5.958   5.242
 9831TIP3   OH229369   0.963   5.242   4.350
 9831TIP3    H129370   0.896   5.244   4.282
 9831TIP3    H229371   0.946   5.320   4.403
 9832TIP3   OH229372   0.802   4.904   4.299
 9832TIP3    H129373   0.774   4.933   4.212
 9832TIP3    H229374   0.797   4.808   4.295
 9833TIP3   OH229375   0.870   5.169   4.841
 9833TIP3    H129376   0.876   5.075   4.826
 9833TIP3    H229377   0.852   5.178   4.934
 9834TIP3   OH229378   1.142   5.597   5.696
 9834TIP3    H129379   1.206   5.527   5.684
 9834TIP3    H229380   1.147   5.647   5.614
 9835TIP3   OH229381   1.306   5.380   5.696
 9835TIP3    H129382   1.235   5.338   5.743
 9835TIP3    H229383   1.382   5.325   5.713
 9836TIP3   OH229384   0.776   4.635   4.272
 9836TIP3    H129385   0.849   4.603   4.325
 9836TIP3    H229386   0.703   4.578   4.297
 9837TIP3   OH229387   0.856   4.900   4.723
 9837TIP3    H129388   0.901   4.817   4.736
 9837TIP3    H229389   0.900   4.939   4.647
 9838TIP3   OH229390   1.010   5.069   5.248
 9838TIP3    H129391   1.090   5.092   5.200
 9838TIP3    H229392   1.023   5.104   5.336
 9839TIP3   OH229393   1.081   5.215   5.478
 9839TIP3    H129394   1.009   5.244   5.534
 9839TIP3    H229395   1.112   5.295   5.435
 9840TIP3   OH229396   1.534   4.816   6.016
 9840TIP3    H129397   1.601   4.762   5.975
 9840TIP3    H229398   1.496   4.866   5.944
 9841TIP3   OH229399   0.962   4.651   4.779
 9841TIP3    H129400   1.007   4.638   4.862
 9841TIP3    H229401   0.902   4.576   4.772
 9842TIP3   OH229402   1.382   4.928   5.817
 9842TIP3    H129403   1.295   4.966   5.828
 9842TIP3    H229404   1.367   4.848   5.768
 9843TIP3   OH229405   1.003   4.571   4.416
 9843TIP3    H129406   1.050   4.509   4.359
 9843TIP3    H229407   1.061   4.647   4.422
 9844TIP3   OH229408   0.633   6.132   4.652
 9844TIP3    H129409   0.692   6.111   4.580
 9844TIP3    H229410   0.649   6.225   4.669
 9845TIP3   OH229411   0.187   6.134   5.668
 9845TIP3    H129412   0.202   6.149   5.761
 9845TIP3    H229413   0.240   6.201   5.625
 9846TIP3   OH229414   0.573   6.375   5.526
 9846TIP3    H129415   0.610   6.291   5.498
 9846TIP3    H229416   0.616   6.394   5.609
 9847TIP3   OH229417   1.300   4.681   5.714
 9847TIP3    H129418   1.214   4.672   5.674
 9847TIP3    H229419   1.339   4.594   5.708
 9848TIP3   OH229420   0.201   6.243   5.260
 9848TIP3    H129421   0.110   6.254   5.232
 9848TIP3    H229422   0.204   6.285   5.347
 9849TIP3   OH229423   0.514   6.194   5.272
 9849TIP3    H129424   0.441   6.242   5.310
 9849TIP3    H229425   0.573   6.261   5.238
 9850TIP3   OH229426   0.742   6.359   5.234
 9850TIP3    H129427   0.693   6.427   5.187
 9850TIP3    H229428   0.769   6.298   5.165
 9851TIP3   OH229429   0.486   4.587   5.355
 9851TIP3    H129430   0.468   4.509   5.407
 9851TIP3    H229431   0.564   4.564   5.303
 9852TIP3   OH229432   1.003   4.523   5.237
 9852TIP3    H129433   1.042   4.572   5.165
 9852TIP3    H229434   0.910   4.547   5.236
 9853TIP3   OH229435   1.116   4.606   5.003
 9853TIP3    H129436   1.185   4.544   4.980
 9853TIP3    H229437   1.155   4.692   4.989
 9854TIP3   OH229438   0.349   4.309   5.233
 9854TIP3    H129439   0.270   4.357   5.211
 9854TIP3    H229440   0.362   4.324   5.327
 9855TIP3   OH229441   0.718   4.505   5.232
 9855TIP3    H129442   0.725   4.474   5.141
 9855TIP3    H229443   0.724   4.426   5.285
 9856TIP3   OH229444   0.780   4.437   4.785
 9856TIP3    H129445   0.702   4.486   4.811
 9856TIP3    H229446   0.769   4.351   4.824
 9857TIP3   OH229447   9.356   4.205   4.737
 9857TIP3    H129448   9.444   4.167   4.738
 9857TIP3    H229449   9.317   4.179   4.820
 9858TIP3   OH229450   0.176   4.565   4.810
 9858TIP3    H129451   0.231   4.508   4.864
 9858TIP3    H229452   0.204   4.654   4.831
 9859TIP3   OH229453   0.119   6.003   4.366
 9859TIP3    H129454   0.199   6.012   4.314
 9859TIP3    H229455   0.049   5.992   4.301
 9860TIP3   OH229456   0.763   6.070   4.422
 9860TIP3    H129457   0.739   5.978   4.417
 9860TIP3    H229458   0.721   6.110   4.345
 9861TIP3   OH229459   0.230   4.566   6.271
 9861TIP3    H129460   0.321   4.550   6.245
 9861TIP3    H229461   0.226   4.538   6.362
 9862TIP3   OH229462   1.048   4.694   6.145
 9862TIP3    H129463   1.064   4.661   6.234
 9862TIP3    H229464   1.133   4.686   6.101
 9863TIP3   OH229465   0.958   6.211   5.636
 9863TIP3    H129466   0.885   6.180   5.584
 9863TIP3    H229467   0.949   6.306   5.637
 9864TIP3   OH229468   2.231   5.614   4.382
 9864TIP3    H129469   2.193   5.699   4.361
 9864TIP3    H229470   2.162   5.551   4.360
 9865TIP3   OH229471   2.228   5.605   4.817
 9865TIP3    H129472   2.284   5.583   4.892
 9865TIP3    H229473   2.187   5.522   4.793
 9866TIP3   OH229474   1.525   5.455   5.162
 9866TIP3    H129475   1.563   5.402   5.232
 9866TIP3    H229476   1.600   5.481   5.108
 9867TIP3   OH229477   2.494   5.916   4.481
 9867TIP3    H129478   2.482   5.846   4.545
 9867TIP3    H229479   2.515   5.993   4.533
 9868TIP3   OH229480   1.513   5.889   4.848
 9868TIP3    H129481   1.498   5.794   4.849
 9868TIP3    H229482   1.608   5.897   4.840
 9869TIP3   OH229483   1.203   5.098   4.623
 9869TIP3    H129484   1.166   5.183   4.647
 9869TIP3    H229485   1.130   5.050   4.585
 9870TIP3   OH229486   1.283   5.408   4.847
 9870TIP3    H129487   1.332   5.330   4.871
 9870TIP3    H229488   1.351   5.472   4.823
 9871TIP3   OH229489   2.156   6.358   4.485
 9871TIP3    H129490   2.179   6.297   4.416
 9871TIP3    H229491   2.164   6.307   4.566
 9872TIP3   OH229492   2.031   5.823   4.820
 9872TIP3    H129493   2.077   5.743   4.793
 9872TIP3    H229494   2.101   5.882   4.847
 9873TIP3   OH229495   3.080   5.138   4.817
 9873TIP3    H129496   3.089   5.222   4.862
 9873TIP3    H229497   3.113   5.154   4.729
 9874TIP3   OH229498   2.444   5.308   4.850
 9874TIP3    H129499   2.479   5.224   4.879
 9874TIP3    H229500   2.405   5.291   4.765
 9875TIP3   OH229501   1.781   4.974   4.817
 9875TIP3    H129502   1.766   5.045   4.754
 9875TIP3    H229503   1.731   4.900   4.782
 9876TIP3   OH229504   2.497   5.068   4.445
 9876TIP3    H129505   2.558   5.067   4.518
 9876TIP3    H229506   2.548   5.104   4.372
 9877TIP3   OH229507   1.421   5.185   4.932
 9877TIP3    H129508   1.502   5.165   4.979
 9877TIP3    H229509   1.426   5.133   4.852
 9878TIP3   OH229510   1.837   5.387   4.758
 9878TIP3    H129511   1.932   5.374   4.762
 9878TIP3    H229512   1.803   5.304   4.724
 9879TIP3   OH229513   3.104   5.348   5.002
 9879TIP3    H129514   3.026   5.399   4.981
 9879TIP3    H229515   3.088   5.316   5.091
 9880TIP3   OH229516   1.779   4.973   5.262
 9880TIP3    H129517   1.723   5.011   5.194
 9880TIP3    H229518   1.728   4.984   5.343
 9881TIP3   OH229519   2.092   5.822   4.268
 9881TIP3    H129520   2.069   5.803   4.177
 9881TIP3    H229521   2.050   5.906   4.287
 9882TIP3   OH229522   1.880   5.742   5.038
 9882TIP3    H129523   1.825   5.815   5.068
 9882TIP3    H229524   1.929   5.778   4.964
 9883TIP3   OH229525   2.648   5.105   4.668
 9883TIP3    H129526   2.614   5.081   4.754
 9883TIP3    H229527   2.708   5.178   4.686
 9884TIP3   OH229528   1.658   5.081   5.037
 9884TIP3    H129529   1.716   5.154   5.060
 9884TIP3    H229530   1.703   5.036   4.966
 9885TIP3   OH229531   1.720   5.952   5.131
 9885TIP3    H129532   1.705   6.041   5.099
 9885TIP3    H229533   1.642   5.932   5.184
 9886TIP3   OH229534   1.099   5.652   4.399
 9886TIP3    H129535   1.072   5.668   4.309
 9886TIP3    H229536   1.126   5.738   4.431
 9887TIP3   OH229537   2.529   6.166   4.624
 9887TIP3    H129538   2.442   6.157   4.662
 9887TIP3    H229539   2.527   6.249   4.577
 9888TIP3   OH229540   2.894   5.055   5.012
 9888TIP3    H129541   2.807   5.039   4.978
 9888TIP3    H229542   2.948   5.073   4.935
 9889TIP3   OH229543   2.093   4.650   4.989
 9889TIP3    H129544   2.091   4.566   5.035
 9889TIP3    H229545   2.019   4.699   5.026
 9890TIP3   OH229546   2.240   6.189   4.274
 9890TIP3    H129547   2.286   6.106   4.267
 9890TIP3    H229548   2.304   6.254   4.246
 9891TIP3   OH229549   2.397   5.972   4.228
 9891TIP3    H129550   2.401   5.894   4.173
 9891TIP3    H229551   2.432   5.944   4.312
 9892TIP3   OH229552   2.768   6.046   4.965
 9892TIP3    H129553   2.749   5.972   4.909
 9892TIP3    H229554   2.756   6.123   4.909
 9893TIP3   OH229555   2.057   5.448   4.236
 9893TIP3    H129556   1.977   5.496   4.215
 9893TIP3    H229557   2.106   5.446   4.153
 9894TIP3   OH229558   2.031   5.255   3.919
 9894TIP3    H129559   2.095   5.304   3.971
 9894TIP3    H229560   2.084   5.189   3.873
 9895TIP3   OH229561   2.948   5.715   4.832
 9895TIP3    H129562   2.862   5.757   4.828
 9895TIP3    H229563   2.983   5.723   4.743
 9896TIP3   OH229564   2.415   5.547   4.192
 9896TIP3    H129565   2.361   5.572   4.267
 9896TIP3    H229566   2.497   5.515   4.232
 9897TIP3   OH229567   2.647   5.568   5.152
 9897TIP3    H129568   2.639   5.651   5.199
 9897TIP3    H229569   2.566   5.561   5.102
 9898TIP3   OH229570   1.643   5.519   4.603
 9898TIP3    H129571   1.609   5.457   4.539
 9898TIP3    H229572   1.715   5.473   4.645
 9899TIP3   OH229573   1.777   5.943   4.749
 9899TIP3    H129574   1.756   5.927   4.657
 9899TIP3    H229575   1.863   5.902   4.760
 9900TIP3   OH229576   1.736   5.513   4.983
 9900TIP3    H129577   1.775   5.476   4.904
 9900TIP3    H229578   1.789   5.591   5.001
 9901TIP3   OH229579   2.289   6.158   4.753
 9901TIP3    H129580   2.281   6.235   4.809
 9901TIP3    H229581   2.277   6.084   4.812
 9902TIP3   OH229582   1.918   6.052   5.299
 9902TIP3    H129583   1.856   6.108   5.345
 9902TIP3    H229584   1.863   5.999   5.241
 9903TIP3   OH229585   2.246   5.403   4.028
 9903TIP3    H129586   2.307   5.459   4.077
 9903TIP3    H229587   2.272   5.413   3.937
 9904TIP3   OH229588   1.669   5.622   5.442
 9904TIP3    H129589   1.666   5.715   5.462
 9904TIP3    H229590   1.577   5.596   5.435
 9905TIP3   OH229591   1.986   6.080   4.288
 9905TIP3    H129592   2.072   6.120   4.292
 9905TIP3    H229593   1.934   6.141   4.234
 9906TIP3   OH229594   1.707   6.211   5.381
 9906TIP3    H129595   1.681   6.218   5.289
 9906TIP3    H229596   1.625   6.197   5.428
 9907TIP3   OH229597   2.758   4.626   4.090
 9907TIP3    H129598   2.682   4.647   4.145
 9907TIP3    H229599   2.768   4.702   4.033
 9908TIP3   OH229600   1.521   5.358   4.403
 9908TIP3    H129601   1.441   5.399   4.373
 9908TIP3    H229602   1.496   5.267   4.421
 9909TIP3   OH229603   2.580   6.005   3.642
 9909TIP3    H129604   2.574   6.064   3.567
 9909TIP3    H229605   2.670   5.973   3.640
 9910TIP3   OH229606   1.306   5.770   5.331
 9910TIP3    H129607   1.238   5.749   5.268
 9910TIP3    H229608   1.338   5.685   5.362
 9911TIP3   OH229609   1.177   5.947   4.970
 9911TIP3    H129610   1.272   5.942   4.959
 9911TIP3    H229611   1.164   6.024   5.026
 9912TIP3   OH229612   2.998   6.413   5.035
 9912TIP3    H129613   3.004   6.318   5.046
 9912TIP3    H229614   2.919   6.438   5.083
 9913TIP3   OH229615   2.104   6.200   5.161
 9913TIP3    H129616   2.095   6.289   5.193
 9913TIP3    H229617   2.040   6.150   5.211
 9914TIP3   OH229618   1.885   6.294   4.114
 9914TIP3    H129619   1.837   6.273   4.034
 9914TIP3    H229620   1.847   6.376   4.145
 9915TIP3   OH229621   1.328   6.144   4.496
 9915TIP3    H129622   1.373   6.136   4.580
 9915TIP3    H229623   1.280   6.061   4.487
 9916TIP3   OH229624   2.085   6.224   3.749
 9916TIP3    H129625   2.135   6.148   3.720
 9916TIP3    H229626   2.116   6.241   3.838
 9917TIP3   OH229627   2.141   6.267   4.015
 9917TIP3    H129628   2.054   6.276   4.054
 9917TIP3    H229629   2.194   6.226   4.083
 9918TIP3   OH229630   2.896   5.524   5.305
 9918TIP3    H129631   2.813   5.539   5.260
 9918TIP3    H229632   2.913   5.431   5.294
 9919TIP3   OH229633   1.500   5.961   5.300
 9919TIP3    H129634   1.550   5.951   5.381
 9919TIP3    H229635   1.431   5.895   5.307
 9920TIP3   OH229636   1.864   4.761   5.103
 9920TIP3    H129637   1.775   4.731   5.081
 9920TIP3    H229638   1.850   4.838   5.158
 9921TIP3   OH229639   2.448   4.884   5.358
 9921TIP3    H129640   2.483   4.800   5.389
 9921TIP3    H229641   2.353   4.871   5.357
 9922TIP3   OH229642   2.642   5.302   5.247
 9922TIP3    H129643   2.614   5.296   5.339
 9922TIP3    H229644   2.629   5.394   5.224
 9923TIP3   OH229645   2.320   5.419   3.767
 9923TIP3    H129646   2.284   5.397   3.681
 9923TIP3    H229647   2.407   5.454   3.748
 9924TIP3   OH229648   2.029   4.804   4.093
 9924TIP3    H129649   1.999   4.807   4.184
 9924TIP3    H229650   1.994   4.721   4.060
 9925TIP3   OH229651   1.820   5.287   5.122
 9925TIP3    H129652   1.781   5.295   5.209
 9925TIP3    H229653   1.797   5.369   5.078
 9926TIP3   OH229654   1.697   5.174   4.645
 9926TIP3    H129655   1.609   5.145   4.669
 9926TIP3    H229656   1.710   5.139   4.557
 9927TIP3   OH229657   2.182   5.244   4.372
 9927TIP3    H129658   2.135   5.316   4.331
 9927TIP3    H229659   2.241   5.212   4.304
 9928TIP3   OH229660   2.376   5.504   5.449
 9928TIP3    H129661   2.349   5.434   5.509
 9928TIP3    H229662   2.468   5.519   5.469
 9929TIP3   OH229663   2.354   5.260   4.594
 9929TIP3    H129664   2.284   5.277   4.530
 9929TIP3    H229665   2.401   5.185   4.558
 9930TIP3   OH229666   1.653   5.289   5.349
 9930TIP3    H129667   1.721   5.337   5.396
 9930TIP3    H229668   1.640   5.209   5.400
 9931TIP3   OH229669   1.699   4.781   4.061
 9931TIP3    H129670   1.694   4.784   4.156
 9931TIP3    H229671   1.621   4.826   4.030
 9932TIP3   OH229672   1.248   4.828   4.925
 9932TIP3    H129673   1.316   4.863   4.982
 9932TIP3    H229674   1.295   4.804   4.845
 9933TIP3   OH229675   1.154   4.804   4.435
 9933TIP3    H129676   1.200   4.838   4.358
 9933TIP3    H229677   1.091   4.873   4.458
 9934TIP3   OH229678   2.395   5.508   5.027
 9934TIP3    H129679   2.420   5.443   4.961
 9934TIP3    H229680   2.354   5.456   5.097
 9935TIP3   OH229681   2.047   5.008   4.713
 9935TIP3    H129682   1.973   4.989   4.771
 9935TIP3    H229683   2.119   4.955   4.747
 9936TIP3   OH229684   1.462   5.042   4.703
 9936TIP3    H129685   1.374   5.045   4.665
 9936TIP3    H229686   1.491   4.951   4.688
 9937TIP3   OH229687   1.713   5.048   4.400
 9937TIP3    H129688   1.808   5.058   4.394
 9937TIP3    H229689   1.681   5.066   4.312
 9938TIP3   OH229690   2.531   5.049   4.919
 9938TIP3    H129691   2.502   5.063   5.009
 9938TIP3    H229692   2.502   4.961   4.897
 9939TIP3   OH229693   1.603   5.076   4.149
 9939TIP3    H129694   1.540   5.025   4.098
 9939TIP3    H229695   1.659   5.118   4.083
 9940TIP3   OH229696   2.712   6.755   5.130
 9940TIP3    H129697   2.712   6.766   5.035
 9940TIP3    H229698   2.792   6.800   5.160
 9941TIP3   OH229699   1.649   5.884   5.537
 9941TIP3    H129700   1.732   5.897   5.582
 9941TIP3    H229701   1.583   5.885   5.607
 9942TIP3   OH229702   2.111   5.341   4.798
 9942TIP3    H129703   2.161   5.279   4.745
 9942TIP3    H229704   2.109   5.303   4.885
 9943TIP3   OH229705   1.601   4.793   4.695
 9943TIP3    H129706   1.573   4.717   4.747
 9943TIP3    H229707   1.639   4.754   4.616
 9944TIP3   OH229708   2.089   5.247   5.056
 9944TIP3    H129709   2.001   5.261   5.093
 9944TIP3    H229710   2.148   5.283   5.122
 9945TIP3   OH229711   1.822   5.590   4.177
 9945TIP3    H129712   1.750   5.530   4.157
 9945TIP3    H229713   1.797   5.629   4.261
 9946TIP3   OH229714   2.709   5.846   4.785
 9946TIP3    H129715   2.744   5.893   4.710
 9946TIP3    H229716   2.631   5.802   4.752
 9947TIP3   OH229717   2.284   4.905   4.087
 9947TIP3    H129718   2.190   4.885   4.086
 9947TIP3    H229719   2.288   5.000   4.099
 9948TIP3   OH229720   2.237   5.929   5.198
 9948TIP3    H129721   2.291   5.910   5.274
 9948TIP3    H229722   2.200   6.015   5.216
 9949TIP3   OH229723   2.346   5.169   4.156
 9949TIP3    H129724   2.441   5.170   4.166
 9949TIP3    H229725   2.327   5.245   4.101
 9950TIP3   OH229726   1.510   5.602   4.831
 9950TIP3    H129727   1.549   5.583   4.746
 9950TIP3    H229728   1.574   5.572   4.895
 9951TIP3   OH229729   1.975   5.749   4.019
 9951TIP3    H129730   1.926   5.831   4.018
 9951TIP3    H229731   1.922   5.690   4.073
 9952TIP3   OH229732   1.397   5.551   5.476
 9952TIP3    H129733   1.418   5.530   5.567
 9952TIP3    H229734   1.331   5.486   5.451
 9953TIP3   OH229735   2.155   5.678   5.469
 9953TIP3    H129736   2.105   5.653   5.392
 9953TIP3    H229737   2.237   5.628   5.461
 9954TIP3   OH229738   2.375   6.222   5.083
 9954TIP3    H129739   2.281   6.204   5.087
 9954TIP3    H229740   2.397   6.254   5.171
 9955TIP3   OH229741   2.764   5.268   3.987
 9955TIP3    H129742   2.705   5.220   3.929
 9955TIP3    H229743   2.770   5.356   3.949
 9956TIP3   OH229744   3.013   6.137   5.054
 9956TIP3    H129745   2.920   6.115   5.053
 9956TIP3    H229746   3.047   6.103   4.972
 9957TIP3   OH229747   2.488   6.074   3.901
 9957TIP3    H129748   2.469   6.000   3.958
 9957TIP3    H229749   2.517   6.035   3.818
 9958TIP3   OH229750   2.482   5.709   4.681
 9958TIP3    H129751   2.392   5.685   4.707
 9958TIP3    H229752   2.518   5.628   4.645
 9959TIP3   OH229753   1.641   5.946   4.501
 9959TIP3    H129754   1.641   6.022   4.443
 9959TIP3    H229755   1.548   5.929   4.518
 9960TIP3   OH229756   1.194   5.226   4.201
 9960TIP3    H129757   1.242   5.305   4.225
 9960TIP3    H229758   1.117   5.226   4.257
 9961TIP3   OH229759   1.717   5.699   4.401
 9961TIP3    H129760   1.708   5.788   4.435
 9961TIP3    H229761   1.695   5.643   4.475
 9962TIP3   OH229762   1.921   6.268   4.956
 9962TIP3    H129763   1.960   6.339   4.905
 9962TIP3    H229764   1.993   6.233   5.008
 9963TIP3   OH229765   1.559   6.171   4.349
 9963TIP3    H129766   1.473   6.176   4.391
 9963TIP3    H229767   1.592   6.261   4.352
 9964TIP3   OH229768   2.268   5.934   4.923
 9964TIP3    H129769   2.258   5.930   5.018
 9964TIP3    H229770   2.336   5.871   4.902
 9965TIP3   OH229771   2.262   5.819   3.812
 9965TIP3    H129772   2.311   5.801   3.892
 9965TIP3    H229773   2.180   5.770   3.822
 9966TIP3   OH229774   2.531   6.425   4.969
 9966TIP3    H129775   2.465   6.360   4.992
 9966TIP3    H229776   2.490   6.476   4.898
 9967TIP3   OH229777   2.553   6.370   3.629
 9967TIP3    H129778   2.638   6.413   3.623
 9967TIP3    H229779   2.543   6.349   3.722
 9968TIP3   OH229780   1.620   5.039   5.481
 9968TIP3    H129781   1.525   5.035   5.486
 9968TIP3    H229782   1.650   4.978   5.549
 9969TIP3   OH229783   2.440   5.767   4.025
 9969TIP3    H129784   2.420   5.691   4.080
 9969TIP3    H229785   2.533   5.760   4.007
 9970TIP3   OH229786   1.349   6.157   5.121
 9970TIP3    H129787   1.400   6.093   5.171
 9970TIP3    H229788   1.367   6.241   5.164
 9971TIP3   OH229789   1.614   5.774   3.814
 9971TIP3    H129790   1.628   5.684   3.787
 9971TIP3    H229791   1.602   5.770   3.909
 9972TIP3   OH229792   1.563   5.789   4.088
 9972TIP3    H129793   1.630   5.761   4.150
 9972TIP3    H229794   1.564   5.885   4.094
 9973TIP3   OH229795   1.291   5.473   4.294
 9973TIP3    H129796   1.229   5.520   4.351
 9973TIP3    H229797   1.311   5.535   4.224
 9974TIP3   OH229798   2.459   5.102   5.185
 9974TIP3    H129799   2.534   5.155   5.213
 9974TIP3    H229800   2.457   5.028   5.246
 9975TIP3   OH229801   2.349   4.853   4.353
 9975TIP3    H129802   2.327   4.872   4.262
 9975TIP3    H229803   2.391   4.933   4.385
 9976TIP3   OH229804   1.827   5.976   4.020
 9976TIP3    H129805   1.743   5.999   4.060
 9976TIP3    H229806   1.850   6.050   3.965
 9977TIP3   OH229807   1.989   5.061   4.449
 9977TIP3    H129808   2.055   5.125   4.421
 9977TIP3    H229809   2.008   5.047   4.542
 9978TIP3   OH229810   2.294   5.340   5.224
 9978TIP3    H129811   2.321   5.381   5.306
 9978TIP3    H229812   2.343   5.258   5.221
 9979TIP3   OH229813   2.174   4.737   4.533
 9979TIP3    H129814   2.200   4.779   4.615
 9979TIP3    H229815   2.233   4.775   4.467
 9980TIP3   OH229816   1.578   6.063   4.099
 9980TIP3    H129817   1.558   6.134   4.038
 9980TIP3    H229818   1.570   6.102   4.186
 9981TIP3   OH229819   1.678   4.774   4.339
 9981TIP3    H129820   1.666   4.863   4.370
 9981TIP3    H229821   1.772   4.757   4.350
 9982TIP3   OH229822   2.907   5.261   5.200
 9982TIP3    H129823   2.814   5.266   5.222
 9982TIP3    H229824   2.912   5.188   5.138
 9983TIP3   OH229825   2.573   5.452   4.596
 9983TIP3    H129826   2.498   5.393   4.608
 9983TIP3    H229827   2.642   5.412   4.649
 9984TIP3   OH229828   1.318   5.661   4.085
 9984TIP3    H129829   1.390   5.723   4.096
 9984TIP3    H229830   1.350   5.597   4.022
 9985TIP3   OH229831   1.223   4.948   4.214
 9985TIP3    H129832   1.232   5.043   4.214
 9985TIP3    H229833   1.194   4.926   4.126
 9986TIP3   OH229834   2.545   6.434   4.534
 9986TIP3    H129835   2.503   6.481   4.462
 9986TIP3    H229836   2.638   6.452   4.524
 9987TIP3   OH229837   1.602   4.670   5.084
 9987TIP3    H129838   1.578   4.635   4.999
 9987TIP3    H229839   1.603   4.594   5.142
 9988TIP3   OH229840   1.153   5.921   4.478
 9988TIP3    H129841   1.112   5.958   4.555
 9988TIP3    H229842   1.112   5.966   4.404
 9989TIP3   OH229843   1.354   6.464   5.542
 9989TIP3    H129844   1.436   6.469   5.591
 9989TIP3    H229845   1.342   6.370   5.525
 9990TIP3   OH229846   1.813   6.373   5.576
 9990TIP3    H129847   1.903   6.342   5.588
 9990TIP3    H229848   1.780   6.320   5.504
 9991TIP3   OH229849   1.772   5.973   3.701
 9991TIP3    H129850   1.725   5.903   3.748
 9991TIP3    H229851   1.846   5.928   3.660
 9992TIP3   OH229852   2.429   6.315   5.335
 9992TIP3    H129853   2.441   6.243   5.397
 9992TIP3    H229854   2.504   6.373   5.349
 9993TIP3   OH229855   2.211   6.016   3.622
 9993TIP3    H129856   2.243   5.953   3.687
 9993TIP3    H229857   2.273   6.008   3.549
 9994TIP3   OH229858   1.455   5.866   5.737
 9994TIP3    H129859   1.475   5.773   5.745
 9994TIP3    H229860   1.372   5.869   5.690
 9995TIP3   OH229861   1.450   5.476   3.934
 9995TIP3    H129862   1.502   5.448   4.010
 9995TIP3    H229863   1.514   5.485   3.864
 9996TIP3   OH229864   2.070   5.947   5.506
 9996TIP3    H129865   2.028   5.966   5.422
 9996TIP3    H229866   2.113   5.862   5.492
 9997TIP3   OH229867   2.000   5.687   3.753
 9997TIP3    H129868   1.982   5.696   3.847
 9997TIP3    H229869   1.989   5.594   3.736
 9998TIP3   OH229870   2.548   5.997   5.127
 9998TIP3    H129871   2.625   6.021   5.075
 9998TIP3    H229872   2.483   6.063   5.104
 9999TIP3   OH229873   1.563   5.608   5.726
 9999TIP3    H129874   1.639   5.591   5.671
 9999TIP3    H229875   1.598   5.622   5.813
10000TIP3   OH229876   1.620   5.405   4.139
10000TIP3    H129877   1.600   5.374   4.228
10000TIP3    H229878   1.666   5.332   4.098
10001TIP3   OH229879   1.877   5.456   5.379
10001TIP3    H129880   1.812   5.522   5.403
10001TIP3    H229881   1.938   5.503   5.321
10002TIP3   OH229882   1.756   5.223   3.973
10002TIP3    H129883   1.727   5.228   3.881
10002TIP3    H229884   1.851   5.230   3.968
10003TIP3   OH229885   2.428   5.865   5.467
10003TIP3    H129886   2.501   5.829   5.417
10003TIP3    H229887   2.425   5.811   5.547
10004TIP3   OH229888   2.547   5.532   3.652
10004TIP3    H129889   2.546   5.485   3.569
10004TIP3    H229890   2.515   5.620   3.631
10005TIP3   OH229891   2.030   5.266   5.507
10005TIP3    H129892   2.037   5.190   5.448
10005TIP3    H229893   1.984   5.332   5.456
10006TIP3   OH229894   2.032   5.070   5.309
10006TIP3    H129895   2.069   5.080   5.221
10006TIP3    H229896   1.946   5.032   5.295
10007TIP3   OH229897   2.045   5.606   5.219
10007TIP3    H129898   2.126   5.592   5.171
10007TIP3    H229899   1.990   5.658   5.159
10008TIP3   OH229900   2.635   5.548   5.554
10008TIP3    H129901   2.656   5.477   5.615
10008TIP3    H229902   2.720   5.580   5.524
10009TIP3   OH229903   2.666   5.815   5.291
10009TIP3    H129904   2.616   5.879   5.241
10009TIP3    H229905   2.756   5.825   5.260
10010TIP3   OH229906   1.921   5.341   5.752
10010TIP3    H129907   1.854   5.275   5.770
10010TIP3    H229908   1.951   5.321   5.664
10011TIP3   OH229909   2.183   4.823   5.327
10011TIP3    H129910   2.128   4.900   5.343
10011TIP3    H229911   2.129   4.749   5.354
10012TIP3   OH229912   2.293   5.295   5.605
10012TIP3    H129913   2.288   5.275   5.698
10012TIP3    H229914   2.205   5.278   5.571
10013TIP3   OH229915   2.556   5.255   5.498
10013TIP3    H129916   2.478   5.248   5.552
10013TIP3    H229917   2.625   5.215   5.551
10014TIP3   OH229918   2.791   5.179   5.643
10014TIP3    H129919   2.790   5.093   5.684
10014TIP3    H229920   2.763   5.239   5.712
10015TIP3   OH229921   1.745   5.132   5.815
10015TIP3    H129922   1.752   5.046   5.774
10015TIP3    H229923   1.783   5.120   5.902
10016TIP3   OH229924   2.272   4.966   5.834
10016TIP3    H129925   2.317   4.949   5.752
10016TIP3    H229926   2.241   5.056   5.826
10017TIP3   OH229927   1.575   6.274   3.919
10017TIP3    H129928   1.663   6.251   3.890
10017TIP3    H229929   1.535   6.318   3.844
10018TIP3   OH229930   1.044   5.652   4.123
10018TIP3    H129931   1.136   5.674   4.107
10018TIP3    H229932   1.029   5.572   4.072
10019TIP3   OH229933   0.968   6.217   4.531
10019TIP3    H129934   0.910   6.161   4.480
10019TIP3    H229935   1.005   6.159   4.597
10020TIP3   OH229936   1.093   6.066   4.724
10020TIP3    H129937   1.089   5.999   4.792
10020TIP3    H229938   1.142   6.138   4.764
10021TIP3   OH229939   2.808   6.510   4.526
10021TIP3    H129940   2.841   6.519   4.615
10021TIP3    H229941   2.883   6.530   4.470
10022TIP3   OH229942   2.851   6.505   4.809
10022TIP3    H129943   2.803   6.423   4.801
10022TIP3    H229944   2.918   6.487   4.876
10023TIP3   OH229945   2.891   6.211   5.382
10023TIP3    H129946   2.824   6.218   5.449
10023TIP3    H229947   2.939   6.294   5.388
10024TIP3   OH229948   2.713   5.731   3.996
10024TIP3    H129949   2.778   5.795   3.966
10024TIP3    H229950   2.757   5.686   4.068
10025TIP3   OH229951   2.838   5.583   4.194
10025TIP3    H129952   2.772   5.540   4.248
10025TIP3    H229953   2.905   5.613   4.256
10026TIP3   OH229954   2.892   5.982   4.622
10026TIP3    H129955   2.946   5.910   4.588
10026TIP3    H229956   2.900   6.050   4.556
10027TIP3   OH229957   2.704   6.269   4.814
10027TIP3    H129958   2.638   6.313   4.868
10027TIP3    H229959   2.654   6.228   4.744
10028TIP3   OH229960   2.749   5.504   3.840
10028TIP3    H129961   2.683   5.504   3.771
10028TIP3    H229962   2.731   5.583   3.891
10029TIP3   OH229963   2.610   5.151   3.800
10029TIP3    H129964   2.631   5.190   3.715
10029TIP3    H229965   2.587   5.060   3.780
10030TIP3   OH229966   2.637   5.439   4.326
10030TIP3    H129967   2.644   5.345   4.312
10030TIP3    H229968   2.619   5.449   4.420
10031TIP3   OH229969   1.266   5.507   5.103
10031TIP3    H129970   1.256   5.469   5.016
10031TIP3    H229971   1.359   5.498   5.123
10032TIP3   OH229972   2.924   5.853   5.192
10032TIP3    H129973   2.992   5.786   5.183
10032TIP3    H229974   2.934   5.908   5.114
10033TIP3   OH229975   3.111   5.650   5.187
10033TIP3    H129976   3.039   5.602   5.227
10033TIP3    H229977   3.190   5.603   5.214
10034TIP3   OH229978   2.567   4.881   3.751
10034TIP3    H129979   2.633   4.855   3.815
10034TIP3    H229980   2.486   4.841   3.782
10035TIP3   OH229981   2.639   5.162   4.218
10035TIP3    H129982   2.686   5.080   4.230
10035TIP3    H229983   2.683   5.203   4.143
10036TIP3   OH229984   2.792   5.335   4.731
10036TIP3    H129985   2.875   5.350   4.686
10036TIP3    H229986   2.804   5.372   4.818
10037TIP3   OH229987   2.861   5.484   4.958
10037TIP3    H129988   2.792   5.509   5.020
10037TIP3    H229989   2.890   5.567   4.920
10038TIP3   OH229990   1.482   5.174   5.742
10038TIP3    H129991   1.576   5.174   5.759
10038TIP3    H229992   1.450   5.092   5.779
10039TIP3   OH229993   3.346   5.074   5.501
10039TIP3    H129994   3.270   5.016   5.512
10039TIP3    H229995   3.325   5.126   5.423
10040TIP3   OH229996   2.757   4.913   4.273
10040TIP3    H129997   2.801   4.898   4.356
10040TIP3    H229998   2.694   4.841   4.266
10041TIP3   OH229999   1.448   4.899   5.107
10041TIP3    H130000   1.499   4.818   5.110
10041TIP3    H230001   1.513   4.967   5.088
10042TIP3   OH230002   1.245   5.170   5.150
10042TIP3    H130003   1.292   5.160   5.068
10042TIP3    H230004   1.299   5.230   5.202
10043TIP3   OH230005   3.190   5.233   5.319
10043TIP3    H130006   3.119   5.250   5.381
10043TIP3    H230007   3.161   5.156   5.270
10044TIP3   OH230008   2.795   4.828   3.906
10044TIP3    H130009   2.845   4.768   3.851
10044TIP3    H230010   2.847   4.908   3.908
10045TIP3   OH230011   1.229   4.665   4.658
10045TIP3    H130012   1.144   4.653   4.700
10045TIP3    H230013   1.211   4.722   4.583
10046TIP3   OH230014   2.415   6.372   4.176
10046TIP3    H130015   2.507   6.352   4.162
10046TIP3    H230016   2.415   6.450   4.231
10047TIP3   OH230017   1.470   4.754   5.497
10047TIP3    H130018   1.416   4.728   5.572
10047TIP3    H230019   1.407   4.784   5.431
10048TIP3   OH230020   1.484   6.190   5.548
10048TIP3    H130021   1.392   6.166   5.542
10048TIP3    H230022   1.508   6.171   5.639
10049TIP3   OH230023   1.689   6.228   5.099
10049TIP3    H130024   1.639   6.303   5.066
10049TIP3    H230025   1.775   6.237   5.058
10050TIP3   OH230026   2.089   6.466   5.244
10050TIP3    H130027   2.128   6.455   5.331
10050TIP3    H230028   2.153   6.518   5.195
10051TIP3   OH230029   2.280   6.618   5.113
10051TIP3    H130030   2.340   6.559   5.068
10051TIP3    H230031   2.336   6.674   5.167
10052TIP3   OH230032   3.114   5.005   5.182
10052TIP3    H130033   3.031   5.002   5.135
10052TIP3    H230034   3.118   4.922   5.230
10053TIP3   OH230035   1.359   6.473   5.151
10053TIP3    H130036   1.268   6.493   5.128
10053TIP3    H230037   1.381   6.538   5.217
10054TIP3   OH230038   1.583   6.461   4.995
10054TIP3    H130039   1.502   6.466   5.045
10054TIP3    H230040   1.558   6.488   4.906
10055TIP3   OH230041   1.999   6.477   4.790
10055TIP3    H130042   1.925   6.488   4.731
10055TIP3    H230043   2.007   6.562   4.834
10056TIP3   OH230044   2.265   6.422   4.843
10056TIP3    H130045   2.173   6.437   4.821
10056TIP3    H230046   2.312   6.490   4.795
10057TIP3   OH230047   2.464   6.596   4.742
10057TIP3    H130048   2.463   6.682   4.700
10057TIP3    H230049   2.493   6.536   4.673
10058TIP3   OH230050   1.273   6.249   4.869
10058TIP3    H130051   1.298   6.223   4.957
10058TIP3    H230052   1.343   6.216   4.813
10059TIP3   OH230053   1.472   6.132   4.729
10059TIP3    H130054   1.482   6.047   4.772
10059TIP3    H230055   1.560   6.171   4.732
10060TIP3   OH230056   1.738   6.221   4.751
10060TIP3    H130057   1.757   6.128   4.734
10060TIP3    H230058   1.792   6.243   4.827
10061TIP3   OH230059   2.247   4.823   4.786
10061TIP3    H130060   2.229   4.774   4.866
10061TIP3    H230061   2.341   4.817   4.775
10062TIP3   OH230062   2.813   4.762   4.743
10062TIP3    H130063   2.849   4.814   4.671
10062TIP3    H230064   2.723   4.792   4.751
10063TIP3   OH230065   2.912   4.857   4.500
10063TIP3    H130066   2.981   4.797   4.471
10063TIP3    H230067   2.948   4.944   4.487
10064TIP3   OH230068   1.529   4.565   4.838
10064TIP3    H130069   1.441   4.529   4.849
10064TIP3    H230070   1.586   4.488   4.832
10065TIP3   OH230071   1.342   4.472   4.483
10065TIP3    H130072   1.376   4.522   4.409
10065TIP3    H230073   1.313   4.538   4.545
10066TIP3   OH230074   1.998   4.613   4.725
10066TIP3    H130075   2.053   4.660   4.663
10066TIP3    H230076   2.036   4.632   4.811
10067TIP3   OH230077   2.519   4.785   4.723
10067TIP3    H130078   2.534   4.763   4.631
10067TIP3    H230079   2.517   4.700   4.767
10068TIP3   OH230080   2.570   4.702   4.276
10068TIP3    H130081   2.490   4.750   4.299
10068TIP3    H230082   2.559   4.616   4.316
10069TIP3   OH230083   1.042   6.046   4.261
10069TIP3    H130084   0.961   6.008   4.226
10069TIP3    H230085   1.045   6.135   4.226
10070TIP3   OH230086   1.464   4.607   4.252
10070TIP3    H130087   1.509   4.544   4.196
10070TIP3    H230088   1.534   4.661   4.288
10071TIP3   OH230089   1.955   4.803   4.362
10071TIP3    H130090   2.015   4.754   4.417
10071TIP3    H230091   1.967   4.894   4.389
10072TIP3   OH230092   1.828   6.197   3.846
10072TIP3    H130093   1.913   6.223   3.810
10072TIP3    H230094   1.799   6.125   3.789
10073TIP3   OH230095   2.521   6.343   3.903
10073TIP3    H130096   2.512   6.248   3.909
10073TIP3    H230097   2.443   6.377   3.946
10074TIP3   OH230098   1.759   4.869   5.713
10074TIP3    H130099   1.726   4.795   5.765
10074TIP3    H230100   1.852   4.874   5.735
10075TIP3   OH230101   2.001   4.882   5.854
10075TIP3    H130102   2.094   4.891   5.834
10075TIP3    H230103   1.995   4.805   5.910
10076TIP3   OH230104   1.147   6.035   3.907
10076TIP3    H130105   1.156   6.047   4.002
10076TIP3    H230106   1.229   5.992   3.881
10077TIP3   OH230107   2.750   6.481   5.135
10077TIP3    H130108   2.676   6.451   5.082
10077TIP3    H230109   2.735   6.575   5.145
10078TIP3   OH230110   4.028   5.868   3.874
10078TIP3    H130111   3.995   5.955   3.850
10078TIP3    H230112   3.959   5.807   3.849
10079TIP3   OH230113   4.029   5.866   4.301
10079TIP3    H130114   4.082   5.842   4.377
10079TIP3    H230115   3.984   5.785   4.277
10080TIP3   OH230116   3.320   5.722   4.639
10080TIP3    H130117   3.359   5.671   4.710
10080TIP3    H230118   3.394   5.744   4.583
10081TIP3   OH230119   4.293   6.173   3.972
10081TIP3    H130120   4.280   6.103   4.036
10081TIP3    H230121   4.314   6.250   4.024
10082TIP3   OH230122   3.305   6.155   4.336
10082TIP3    H130123   3.293   6.060   4.335
10082TIP3    H230124   3.400   6.166   4.328
10083TIP3   OH230125   2.998   5.357   4.122
10083TIP3    H130126   2.959   5.442   4.141
10083TIP3    H230127   2.929   5.308   4.077
10084TIP3   OH230128   3.071   5.652   4.337
10084TIP3    H130129   3.121   5.576   4.364
10084TIP3    H230130   3.134   5.709   4.295
10085TIP3   OH230131   3.955   6.599   3.984
10085TIP3    H130132   3.976   6.535   3.916
10085TIP3    H230133   3.961   6.550   4.066
10086TIP3   OH230134   3.827   6.086   4.300
10086TIP3    H130135   3.870   6.006   4.270
10086TIP3    H230136   3.898   6.142   4.330
10087TIP3   OH230137   4.880   5.411   4.308
10087TIP3    H130138   4.900   5.493   4.352
10087TIP3    H230139   4.924   5.417   4.223
10088TIP3   OH230140   4.240   5.573   4.333
10088TIP3    H130141   4.269   5.487   4.365
10088TIP3    H230142   4.202   5.555   4.248
10089TIP3   OH230143   3.594   5.226   4.292
10089TIP3    H130144   3.571   5.301   4.237
10089TIP3    H230145   3.537   5.155   4.261
10090TIP3   OH230146   4.292   5.329   3.932
10090TIP3    H130147   4.355   5.324   4.004
10090TIP3    H230148   4.343   5.363   3.858
10091TIP3   OH230149   3.224   5.441   4.428
10091TIP3    H130150   3.308   5.423   4.471
10091TIP3    H230151   3.227   5.390   4.347
10092TIP3   OH230152   3.635   5.646   4.242
10092TIP3    H130153   3.730   5.632   4.245
10092TIP3    H230154   3.601   5.563   4.209
10093TIP3   OH230155   4.929   5.623   4.489
10093TIP3    H130156   4.838   5.654   4.482
10093TIP3    H230157   4.960   5.659   4.572
10094TIP3   OH230158   3.576   5.229   4.760
10094TIP3    H130159   3.530   5.261   4.682
10094TIP3    H230160   3.518   5.249   4.833
10095TIP3   OH230161   3.907   6.081   3.750
10095TIP3    H130162   3.873   6.056   3.664
10095TIP3    H230163   3.859   6.161   3.773
10096TIP3   OH230164   3.668   6.007   4.512
10096TIP3    H130165   3.615   6.078   4.547
10096TIP3    H230166   3.716   6.046   4.439
10097TIP3   OH230167   4.446   5.357   4.155
10097TIP3    H130168   4.404   5.335   4.238
10097TIP3    H230169   4.504   5.431   4.177
10098TIP3   OH230170   3.471   5.333   4.521
10098TIP3    H130171   3.527   5.408   4.543
10098TIP3    H230172   3.517   5.290   4.449
10099TIP3   OH230173   3.512   6.210   4.618
10099TIP3    H130174   3.497   6.300   4.589
10099TIP3    H230175   3.435   6.188   4.670
10100TIP3   OH230176   2.896   5.911   3.887
10100TIP3    H130177   2.868   5.926   3.797
10100TIP3    H230178   2.922   5.998   3.918
10101TIP3   OH230179   4.327   6.424   4.113
10101TIP3    H130180   4.239   6.416   4.149
10101TIP3    H230181   4.325   6.507   4.065
10102TIP3   OH230182   4.659   5.334   4.457
10102TIP3    H130183   4.575   5.354   4.416
10102TIP3    H230184   4.724   5.358   4.391
10103TIP3   OH230185   3.904   4.941   4.454
10103TIP3    H130186   3.896   4.849   4.480
10103TIP3    H230187   3.833   4.985   4.501
10104TIP3   OH230188   4.034   6.452   3.760
10104TIP3    H130189   4.085   6.371   3.753
10104TIP3    H230190   4.095   6.522   3.736
10105TIP3   OH230191   4.190   6.234   3.723
10105TIP3    H130192   4.170   6.153   3.676
10105TIP3    H230193   4.229   6.206   3.805
10106TIP3   OH230194   4.568   6.301   4.454
10106TIP3    H130195   4.547   6.226   4.397
10106TIP3    H230196   4.555   6.378   4.399
10107TIP3   OH230197   3.854   5.707   3.727
10107TIP3    H130198   3.772   5.753   3.708
10107TIP3    H230199   3.899   5.702   3.642
10108TIP3   OH230200   3.827   5.509   3.415
10108TIP3    H130201   3.893   5.558   3.464
10108TIP3    H230202   3.877   5.444   3.366
10109TIP3   OH230203   4.741   5.964   4.323
10109TIP3    H130204   4.656   6.007   4.319
10109TIP3    H230205   4.777   5.972   4.235
10110TIP3   OH230206   4.212   5.804   3.682
10110TIP3    H130207   4.156   5.828   3.757
10110TIP3    H230208   4.293   5.773   3.722
10111TIP3   OH230209   4.445   5.817   4.642
10111TIP3    H130210   4.439   5.900   4.689
10111TIP3    H230211   4.365   5.811   4.592
10112TIP3   OH230212   3.432   5.772   4.091
10112TIP3    H130213   3.395   5.710   4.028
10112TIP3    H230214   3.506   5.725   4.131
10113TIP3   OH230215   3.570   6.205   4.235
10113TIP3    H130216   3.544   6.187   4.144
10113TIP3    H230217   3.657   6.164   4.243
10114TIP3   OH230218   3.534   5.771   4.466
10114TIP3    H130219   3.573   5.734   4.387
10114TIP3    H230220   3.585   5.851   4.482
10115TIP3   OH230221   4.085   6.418   4.241
10115TIP3    H130222   4.079   6.494   4.299
10115TIP3    H230223   4.074   6.342   4.299
10116TIP3   OH230224   3.712   6.308   4.786
10116TIP3    H130225   3.650   6.364   4.834
10116TIP3    H230226   3.657   6.255   4.729
10117TIP3   OH230227   4.044   5.656   3.520
10117TIP3    H130228   4.103   5.715   3.568
10117TIP3    H230229   4.072   5.663   3.429
10118TIP3   OH230230   3.462   5.857   4.930
10118TIP3    H130231   3.465   5.951   4.952
10118TIP3    H230232   3.369   5.837   4.925
10119TIP3   OH230233   3.784   6.332   3.778
10119TIP3    H130234   3.869   6.377   3.778
10119TIP3    H230235   3.730   6.383   3.718
10120TIP3   OH230236   3.499   6.465   4.871
10120TIP3    H130237   3.474   6.474   4.779
10120TIP3    H230238   3.416   6.451   4.917
10121TIP3   OH230239   4.549   4.881   3.572
10121TIP3    H130240   4.474   4.904   3.627
10121TIP3    H230241   4.561   4.957   3.515
10122TIP3   OH230242   3.307   5.608   3.897
10122TIP3    H130243   3.235   5.659   3.860
10122TIP3    H230244   3.272   5.519   3.901
10123TIP3   OH230245   4.381   6.260   3.133
10123TIP3    H130246   4.376   6.353   3.108
10123TIP3    H230247   4.470   6.235   3.108
10124TIP3   OH230248   3.094   6.022   4.820
10124TIP3    H130249   3.025   6.001   4.758
10124TIP3    H230250   3.128   5.937   4.848
10125TIP3   OH230251   2.982   6.197   4.452
10125TIP3    H130252   3.071   6.175   4.423
10125TIP3    H230253   2.994   6.266   4.517
10126TIP3   OH230254   4.797   6.674   4.522
10126TIP3    H130255   4.803   6.579   4.532
10126TIP3    H230256   4.717   6.698   4.570
10127TIP3   OH230257   3.899   6.455   4.648
10127TIP3    H130258   3.890   6.545   4.679
10127TIP3    H230259   3.833   6.406   4.698
10128TIP3   OH230260   3.680   6.541   3.594
10128TIP3    H130261   3.637   6.516   3.513
10128TIP3    H230262   3.639   6.624   3.619
10129TIP3   OH230263   3.113   6.409   3.988
10129TIP3    H130264   3.160   6.403   4.070
10129TIP3    H230265   3.068   6.325   3.979
10130TIP3   OH230266   3.881   6.480   3.229
10130TIP3    H130267   3.930   6.406   3.193
10130TIP3    H230268   3.917   6.493   3.317
10131TIP3   OH230269   3.937   6.526   3.499
10131TIP3    H130270   3.848   6.527   3.535
10131TIP3    H230271   3.989   6.480   3.565
10132TIP3   OH230272   4.697   5.754   4.787
10132TIP3    H130273   4.610   5.777   4.754
10132TIP3    H230274   4.709   5.662   4.763
10133TIP3   OH230275   3.292   6.210   4.788
10133TIP3    H130276   3.345   6.198   4.867
10133TIP3    H230277   3.222   6.145   4.795
10134TIP3   OH230278   3.684   5.024   4.601
10134TIP3    H130279   3.599   4.991   4.573
10134TIP3    H230280   3.664   5.091   4.666
10135TIP3   OH230281   4.270   5.082   4.807
10135TIP3    H130282   4.358   5.045   4.807
10135TIP3    H230283   4.238   5.068   4.896
10136TIP3   OH230284   4.451   5.548   4.750
10136TIP3    H130285   4.415   5.542   4.839
10136TIP3    H230286   4.429   5.637   4.722
10137TIP3   OH230287   4.126   5.657   3.262
10137TIP3    H130288   4.075   5.650   3.181
10137TIP3    H230289   4.208   5.698   3.235
10138TIP3   OH230290   3.835   5.051   3.575
10138TIP3    H130291   3.794   5.060   3.661
10138TIP3    H230292   3.797   4.971   3.539
10139TIP3   OH230293   3.620   5.547   4.611
10139TIP3    H130294   3.576   5.554   4.696
10139TIP3    H230295   3.598   5.629   4.567
10140TIP3   OH230296   3.497   5.430   4.136
10140TIP3    H130297   3.408   5.406   4.160
10140TIP3    H230298   3.507   5.398   4.046
10141TIP3   OH230299   3.978   5.501   3.861
10141TIP3    H130300   3.930   5.574   3.821
10141TIP3    H230301   4.035   5.469   3.792
10142TIP3   OH230302   4.160   5.757   4.926
10142TIP3    H130303   4.139   5.692   4.993
10142TIP3    H230304   4.251   5.780   4.944
10143TIP3   OH230305   4.147   5.518   4.082
10143TIP3    H130306   4.079   5.537   4.018
10143TIP3    H230307   4.195   5.443   4.045
10144TIP3   OH230308   3.454   5.568   4.830
10144TIP3    H130309   3.471   5.628   4.903
10144TIP3    H230310   3.430   5.486   4.873
10145TIP3   OH230311   3.501   5.035   3.551
10145TIP3    H130312   3.490   5.043   3.646
10145TIP3    H230313   3.423   5.077   3.515
10146TIP3   OH230314   3.044   5.077   4.417
10146TIP3    H130315   3.114   5.117   4.467
10146TIP3    H230316   3.081   5.064   4.330
10147TIP3   OH230317   2.944   5.064   3.915
10147TIP3    H130318   2.990   5.098   3.838
10147TIP3    H230319   2.884   5.134   3.941
10148TIP3   OH230320   4.193   5.769   4.513
10148TIP3    H130321   4.218   5.706   4.446
10148TIP3    H230322   4.151   5.717   4.581
10149TIP3   OH230323   3.862   5.215   4.183
10149TIP3    H130324   3.784   5.215   4.239
10149TIP3    H230325   3.935   5.211   4.244
10150TIP3   OH230326   3.259   5.304   4.195
10150TIP3    H130327   3.170   5.309   4.158
10150TIP3    H230328   3.287   5.214   4.176
10151TIP3   OH230329   3.513   5.305   3.892
10151TIP3    H130330   3.608   5.314   3.881
10151TIP3    H230331   3.477   5.322   3.805
10152TIP3   OH230332   4.308   5.314   4.398
10152TIP3    H130333   4.298   5.321   4.493
10152TIP3    H230334   4.241   5.252   4.371
10153TIP3   OH230335   3.403   5.325   3.643
10153TIP3    H130336   3.337   5.278   3.592
10153TIP3    H230337   3.457   5.370   3.577
10154TIP3   OH230338   4.509   7.012   4.617
10154TIP3    H130339   4.509   7.023   4.522
10154TIP3    H230340   4.588   7.056   4.647
10155TIP3   OH230341   3.448   6.128   5.020
10155TIP3    H130342   3.529   6.143   5.069
10155TIP3    H230343   3.379   6.132   5.087
10156TIP3   OH230344   3.911   5.601   4.281
10156TIP3    H130345   3.975   5.548   4.234
10156TIP3    H230346   3.907   5.561   4.368
10157TIP3   OH230347   3.399   5.055   4.173
10157TIP3    H130348   3.372   4.978   4.223
10157TIP3    H230349   3.418   5.021   4.086
10158TIP3   OH230350   3.887   5.502   4.538
10158TIP3    H130351   3.800   5.522   4.574
10158TIP3    H230352   3.948   5.541   4.601
10159TIP3   OH230353   3.619   5.849   3.673
10159TIP3    H130354   3.550   5.785   3.653
10159TIP3    H230355   3.594   5.887   3.757
10160TIP3   OH230356   4.506   6.101   4.275
10160TIP3    H130357   4.542   6.148   4.200
10160TIP3    H230358   4.428   6.058   4.241
10161TIP3   OH230359   4.085   5.158   3.579
10161TIP3    H130360   3.993   5.135   3.574
10161TIP3    H230361   4.086   5.253   3.589
10162TIP3   OH230362   4.033   6.188   4.682
10162TIP3    H130363   4.082   6.170   4.762
10162TIP3    H230364   3.990   6.271   4.699
10163TIP3   OH230365   4.142   5.425   3.646
10163TIP3    H130366   4.237   5.429   3.655
10163TIP3    H230367   4.120   5.501   3.593
10164TIP3   OH230368   3.312   5.876   4.317
10164TIP3    H130369   3.346   5.848   4.232
10164TIP3    H230370   3.373   5.839   4.381
10165TIP3   OH230371   3.772   6.005   3.514
10165TIP3    H130372   3.724   6.088   3.511
10165TIP3    H230373   3.717   5.947   3.566
10166TIP3   OH230374   3.187   5.792   4.955
10166TIP3    H130375   3.191   5.763   5.046
10166TIP3    H230376   3.113   5.744   4.917
10167TIP3   OH230377   3.935   5.924   4.973
10167TIP3    H130378   3.862   5.867   4.948
10167TIP3    H230379   4.013   5.879   4.941
10168TIP3   OH230380   4.171   6.478   4.571
10168TIP3    H130381   4.077   6.460   4.576
10168TIP3    H230382   4.193   6.509   4.659
10169TIP3   OH230383   4.561   5.514   3.467
10169TIP3    H130384   4.507   5.471   3.400
10169TIP3    H230385   4.568   5.605   3.436
10170TIP3   OH230386   4.812   6.399   4.540
10170TIP3    H130387   4.720   6.375   4.542
10170TIP3    H230388   4.845   6.363   4.457
10171TIP3   OH230389   4.296   6.324   3.395
10171TIP3    H130390   4.270   6.250   3.449
10171TIP3    H230391   4.319   6.284   3.310
10172TIP3   OH230392   4.280   5.964   4.170
10172TIP3    H130393   4.190   5.941   4.195
10172TIP3    H230394   4.316   5.883   4.133
10173TIP3   OH230395   3.431   6.201   3.990
10173TIP3    H130396   3.431   6.278   3.933
10173TIP3    H230397   3.339   6.175   3.997
10174TIP3   OH230398   3.010   5.476   3.745
10174TIP3    H130399   3.042   5.566   3.743
10174TIP3    H230400   2.919   5.484   3.774
10175TIP3   OH230401   3.524   5.955   3.901
10175TIP3    H130402   3.508   6.044   3.934
10175TIP3    H230403   3.494   5.898   3.972
10176TIP3   OH230404   3.716   6.525   4.442
10176TIP3    H130405   3.756   6.596   4.391
10176TIP3    H230406   3.788   6.490   4.494
10177TIP3   OH230407   3.344   6.427   3.840
10177TIP3    H130408   3.258   6.430   3.881
10177TIP3    H230409   3.376   6.517   3.843
10178TIP3   OH230410   4.065   6.191   4.407
10178TIP3    H130411   4.056   6.187   4.502
10178TIP3    H230412   4.128   6.122   4.386
10179TIP3   OH230413   4.065   6.067   3.286
10179TIP3    H130414   4.108   6.048   3.369
10179TIP3    H230415   3.983   6.019   3.289
10180TIP3   OH230416   4.329   6.679   4.455
10180TIP3    H130417   4.263   6.614   4.481
10180TIP3    H230418   4.286   6.731   4.387
10181TIP3   OH230419   4.373   6.533   3.085
10181TIP3    H130420   4.385   6.590   3.009
10181TIP3    H230421   4.303   6.574   3.136
10182TIP3   OH230422   3.381   5.326   4.950
10182TIP3    H130423   3.287   5.335   4.960
10182TIP3    H230424   3.410   5.284   5.031
10183TIP3   OH230425   4.231   6.017   3.506
10183TIP3    H130426   4.214   5.944   3.565
10183TIP3    H230427   4.325   6.012   3.488
10184TIP3   OH230428   3.129   6.405   4.610
10184TIP3    H130429   3.184   6.342   4.657
10184TIP3    H230430   3.146   6.488   4.654
10185TIP3   OH230431   3.404   6.026   3.304
10185TIP3    H130432   3.412   5.935   3.275
10185TIP3    H230433   3.387   6.020   3.398
10186TIP3   OH230434   3.356   6.058   3.578
10186TIP3    H130435   3.428   6.026   3.633
10186TIP3    H230436   3.364   6.153   3.582
10187TIP3   OH230437   3.093   5.742   3.782
10187TIP3    H130438   3.029   5.790   3.834
10187TIP3    H230439   3.111   5.799   3.707
10188TIP3   OH230440   4.264   5.347   4.673
10188TIP3    H130441   4.340   5.394   4.707
10188TIP3    H230442   4.264   5.264   4.720
10189TIP3   OH230443   4.144   5.110   3.846
10189TIP3    H130444   4.123   5.128   3.754
10189TIP3    H230445   4.187   5.190   3.877
10190TIP3   OH230446   3.630   6.236   3.511
10190TIP3    H130447   3.546   6.262   3.548
10190TIP3    H230448   3.648   6.301   3.443
10191TIP3   OH230449   3.792   5.310   3.931
10191TIP3    H130450   3.854   5.378   3.906
10191TIP3    H230451   3.815   5.289   4.022
10192TIP3   OH230452   4.097   5.594   4.701
10192TIP3    H130453   4.115   5.638   4.785
10192TIP3    H230454   4.143   5.511   4.708
10193TIP3   OH230455   3.954   5.006   4.016
10193TIP3    H130456   3.932   5.082   4.070
10193TIP3    H230457   4.024   5.036   3.959
10194TIP3   OH230458   3.383   6.331   3.586
10194TIP3    H130459   3.363   6.403   3.527
10194TIP3    H230460   3.369   6.366   3.674
10195TIP3   OH230461   3.464   5.031   3.832
10195TIP3    H130462   3.452   5.122   3.858
10195TIP3    H230463   3.559   5.017   3.837
10196TIP3   OH230464   4.709   5.478   4.693
10196TIP3    H130465   4.618   5.490   4.720
10196TIP3    H230466   4.704   5.431   4.611
10197TIP3   OH230467   4.374   5.706   4.085
10197TIP3    H130468   4.298   5.650   4.097
10197TIP3    H230469   4.441   5.667   4.141
10198TIP3   OH230470   3.107   5.938   3.574
10198TIP3    H130471   3.182   5.997   3.584
10198TIP3    H230472   3.138   5.869   3.515
10199TIP3   OH230473   3.033   5.206   3.699
10199TIP3    H130474   3.033   5.300   3.717
10199TIP3    H230475   3.039   5.200   3.603
10200TIP3   OH230476   4.346   6.694   4.025
10200TIP3    H130477   4.305   6.756   3.964
10200TIP3    H230478   4.440   6.709   4.014
10201TIP3   OH230479   3.421   4.937   4.552
10201TIP3    H130480   3.394   4.907   4.466
10201TIP3    H230481   3.408   4.861   4.609
10202TIP3   OH230482   2.948   6.182   3.968
10202TIP3    H130483   2.902   6.216   4.045
10202TIP3    H230484   2.902   6.222   3.894
10203TIP3   OH230485   3.145   6.722   5.028
10203TIP3    H130486   3.228   6.728   5.076
10203TIP3    H230487   3.131   6.628   5.015
10204TIP3   OH230488   3.608   6.629   5.064
10204TIP3    H130489   3.698   6.598   5.075
10204TIP3    H230490   3.573   6.575   4.993
10205TIP3   OH230491   3.563   6.223   3.192
10205TIP3    H130492   3.514   6.153   3.235
10205TIP3    H230493   3.636   6.179   3.150
10206TIP3   OH230494   4.226   6.570   4.824
10206TIP3    H130495   4.240   6.499   4.887
10206TIP3    H230496   4.301   6.628   4.837
10207TIP3   OH230497   4.008   6.270   3.110
10207TIP3    H130498   4.042   6.205   3.172
10207TIP3    H230499   4.065   6.262   3.034
10208TIP3   OH230500   3.242   6.130   5.211
10208TIP3    H130501   3.266   6.038   5.222
10208TIP3    H230502   3.155   6.128   5.171
10209TIP3   OH230503   3.254   5.755   3.445
10209TIP3    H130504   3.312   5.718   3.511
10209TIP3    H230505   3.302   5.744   3.363
10210TIP3   OH230506   3.865   6.200   4.991
10210TIP3    H130507   3.821   6.220   4.908
10210TIP3    H230508   3.902   6.113   4.978
10211TIP3   OH230509   3.816   5.945   3.250
10211TIP3    H130510   3.791   5.955   3.342
10211TIP3    H230511   3.798   5.853   3.230
10212TIP3   OH230512   4.346   6.253   4.616
10212TIP3    H130513   4.422   6.278   4.563
10212TIP3    H230514   4.279   6.317   4.593
10213TIP3   OH230515   3.359   5.881   5.217
10213TIP3    H130516   3.431   5.841   5.168
10213TIP3    H230517   3.391   5.887   5.306
10214TIP3   OH230518   3.428   5.657   3.638
10214TIP3    H130519   3.397   5.619   3.720
10214TIP3    H230520   3.468   5.584   3.591
10215TIP3   OH230521   3.721   5.757   4.887
10215TIP3    H130522   3.634   5.795   4.894
10215TIP3    H230523   3.751   5.780   4.799
10216TIP3   OH230524   3.556   5.475   3.471
10216TIP3    H130525   3.523   5.481   3.381
10216TIP3    H230526   3.651   5.483   3.462
10217TIP3   OH230527   4.224   6.122   4.958
10217TIP3    H130528   4.293   6.081   4.905
10217TIP3    H230529   4.220   6.069   5.038
10218TIP3   OH230530   4.348   5.772   3.140
10218TIP3    H130531   4.332   5.731   3.055
10218TIP3    H230532   4.323   5.864   3.127
10219TIP3   OH230533   3.832   5.531   4.994
10219TIP3    H130534   3.831   5.458   4.931
10219TIP3    H230535   3.795   5.605   4.946
10220TIP3   OH230536   3.829   5.344   4.793
10220TIP3    H130537   3.861   5.346   4.703
10220TIP3    H230538   3.747   5.296   4.788
10221TIP3   OH230539   3.834   5.841   4.655
10221TIP3    H130540   3.925   5.862   4.633
10221TIP3    H230541   3.781   5.902   4.605
10222TIP3   OH230542   4.418   5.814   5.015
10222TIP3    H130543   4.435   5.757   5.090
10222TIP3    H230544   4.500   5.862   5.003
10223TIP3   OH230545   4.463   6.068   4.778
10223TIP3    H130546   4.410   6.131   4.728
10223TIP3    H230547   4.552   6.081   4.746
10224TIP3   OH230548   3.717   5.615   5.234
10224TIP3    H130549   3.648   5.551   5.254
10224TIP3    H230550   3.745   5.592   5.146
10225TIP3   OH230551   4.089   5.552   5.094
10225TIP3    H130552   4.072   5.548   5.188
10225TIP3    H230553   4.003   5.537   5.054
10226TIP3   OH230554   4.347   5.500   4.998
10226TIP3    H130555   4.260   5.509   5.036
10226TIP3    H230556   4.404   5.485   5.073
10227TIP3   OH230557   3.567   5.381   5.278
10227TIP3    H130558   3.612   5.312   5.229
10227TIP3    H230559   3.593   5.367   5.369
10228TIP3   OH230560   4.101   5.275   5.288
10228TIP3    H130561   4.094   5.247   5.197
10228TIP3    H230562   4.040   5.348   5.296
10229TIP3   OH230563   3.378   6.542   3.406
10229TIP3    H130564   3.463   6.513   3.375
10229TIP3    H230565   3.337   6.582   3.330
10230TIP3   OH230566   2.838   5.923   3.612
10230TIP3    H130567   2.931   5.941   3.596
10230TIP3    H230568   2.819   5.848   3.555
10231TIP3   OH230569   2.731   6.485   4.026
10231TIP3    H130570   2.675   6.432   3.970
10231TIP3    H230571   2.773   6.422   4.085
10232TIP3   OH230572   2.872   6.326   4.210
10232TIP3    H130573   2.870   6.256   4.276
10232TIP3    H230574   2.921   6.397   4.250
10233TIP3   OH230575   4.608   6.768   4.013
10233TIP3    H130576   4.643   6.776   4.102
10233TIP3    H230577   4.684   6.786   3.957
10234TIP3   OH230578   4.650   6.760   4.296
10234TIP3    H130579   4.601   6.678   4.288
10234TIP3    H230580   4.716   6.743   4.362
10235TIP3   OH230581   4.692   6.466   4.868
10235TIP3    H130582   4.621   6.473   4.931
10235TIP3    H230583   4.739   6.549   4.875
10236TIP3   OH230584   4.507   5.987   3.476
10236TIP3    H130585   4.569   6.053   3.445
10236TIP3    H230586   4.549   5.948   3.553
10237TIP3   OH230587   4.627   5.850   3.684
10237TIP3    H130588   4.561   5.805   3.737
10237TIP3    H230589   4.691   5.881   3.748
10238TIP3   OH230590   4.689   6.237   4.111
10238TIP3    H130591   4.742   6.164   4.077
10238TIP3    H230592   4.697   6.305   4.045
10239TIP3   OH230593   4.503   6.524   4.303
10239TIP3    H130594   4.437   6.569   4.356
10239TIP3    H230595   4.453   6.484   4.232
10240TIP3   OH230596   4.549   5.756   3.328
10240TIP3    H130597   4.480   5.753   3.262
10240TIP3    H230598   4.530   5.834   3.380
10241TIP3   OH230599   4.418   5.406   3.259
10241TIP3    H130600   4.367   5.446   3.188
10241TIP3    H230601   4.403   5.312   3.249
10242TIP3   OH230602   4.433   5.696   3.814
10242TIP3    H130603   4.440   5.602   3.798
10242TIP3    H230604   4.418   5.704   3.908
10243TIP3   OH230605   3.058   5.766   4.586
10243TIP3    H130606   3.048   5.726   4.499
10243TIP3    H230607   3.152   5.760   4.604
10244TIP3   OH230608   4.718   6.111   4.676
10244TIP3    H130609   4.786   6.045   4.663
10244TIP3    H230610   4.718   6.162   4.595
10245TIP3   OH230611   4.897   5.902   4.671
10245TIP3    H130612   4.823   5.855   4.711
10245TIP3    H230613   4.974   5.849   4.694
10246TIP3   OH230614   4.364   5.137   3.232
10246TIP3    H130615   4.430   5.109   3.296
10246TIP3    H230616   4.283   5.098   3.263
10247TIP3   OH230617   4.435   5.422   3.702
10247TIP3    H130618   4.479   5.338   3.715
10247TIP3    H230619   4.477   5.460   3.625
10248TIP3   OH230620   4.591   5.584   4.229
10248TIP3    H130621   4.670   5.603   4.178
10248TIP3    H230622   4.608   5.624   4.315
10249TIP3   OH230623   4.666   5.732   4.459
10249TIP3    H130624   4.592   5.759   4.514
10249TIP3    H230625   4.694   5.812   4.414
10250TIP3   OH230626   3.311   5.481   5.279
10250TIP3    H130627   3.402   5.453   5.274
10250TIP3    H230628   3.262   5.401   5.297
10251TIP3   OH230629   5.139   5.279   4.974
10251TIP3    H130630   5.136   5.189   4.940
10251TIP3    H230631   5.087   5.330   4.913
10252TIP3   OH230632   4.548   5.173   3.756
10252TIP3    H130633   4.595   5.159   3.839
10252TIP3    H230634   4.487   5.099   3.751
10253TIP3   OH230635   3.255   5.157   4.582
10253TIP3    H130636   3.308   5.077   4.584
10253TIP3    H230637   3.318   5.227   4.566
10254TIP3   OH230638   3.041   5.418   4.642
10254TIP3    H130639   3.091   5.407   4.562
10254TIP3    H230640   3.080   5.494   4.685
10255TIP3   OH230641   4.952   5.451   4.832
10255TIP3    H130642   4.903   5.448   4.915
10255TIP3    H230643   4.884   5.452   4.765
10256TIP3   OH230644   4.588   5.084   3.389
10256TIP3    H130645   4.636   5.025   3.332
10256TIP3    H230646   4.646   5.161   3.397
10257TIP3   OH230647   3.022   4.927   4.140
10257TIP3    H130648   2.937   4.916   4.184
10257TIP3    H230649   3.002   4.982   4.064
10258TIP3   OH230650   4.193   6.654   3.670
10258TIP3    H130651   4.228   6.631   3.584
10258TIP3    H230652   4.266   6.693   3.717
10259TIP3   OH230653   3.238   4.943   4.938
10259TIP3    H130654   3.225   4.967   5.029
10259TIP3    H230655   3.188   5.008   4.888
10260TIP3   OH230656   3.273   6.443   5.035
10260TIP3    H130657   3.180   6.421   5.029
10260TIP3    H230658   3.297   6.422   5.125
10261TIP3   OH230659   3.485   6.486   4.588
10261TIP3    H130660   3.436   6.563   4.558
10261TIP3    H230661   3.570   6.494   4.546
10262TIP3   OH230662   3.883   6.721   4.730
10262TIP3    H130663   3.921   6.711   4.817
10262TIP3    H230664   3.946   6.775   4.682
10263TIP3   OH230665   4.073   6.875   4.601
10263TIP3    H130666   4.132   6.817   4.553
10263TIP3    H230667   4.131   6.930   4.654
10264TIP3   OH230668   3.150   6.737   4.635
10264TIP3    H130669   3.058   6.756   4.617
10264TIP3    H230670   3.174   6.799   4.704
10265TIP3   OH230671   3.380   6.721   4.487
10265TIP3    H130672   3.298   6.726   4.535
10265TIP3    H230673   3.356   6.741   4.396
10266TIP3   OH230674   3.795   6.736   4.276
10266TIP3    H130675   3.719   6.746   4.218
10266TIP3    H230676   3.801   6.820   4.322
10267TIP3   OH230677   4.062   6.684   4.332
10267TIP3    H130678   3.970   6.697   4.308
10267TIP3    H230679   4.109   6.751   4.282
10268TIP3   OH230680   4.264   6.859   4.231
10268TIP3    H130681   4.265   6.944   4.187
10268TIP3    H230682   4.293   6.797   4.164
10269TIP3   OH230683   3.051   6.503   4.360
10269TIP3    H130684   3.076   6.476   4.448
10269TIP3    H230685   3.123   6.473   4.304
10270TIP3   OH230686   3.260   6.399   4.220
10270TIP3    H130687   3.271   6.313   4.260
10270TIP3    H230688   3.348   6.437   4.221
10271TIP3   OH230689   3.531   6.481   4.237
10271TIP3    H130690   3.548   6.388   4.221
10271TIP3    H230691   3.585   6.502   4.314
10272TIP3   OH230692   4.095   5.134   4.321
10272TIP3    H130693   4.049   5.061   4.362
10272TIP3    H230694   4.164   5.092   4.269
10273TIP3   OH230695   4.603   5.030   4.210
10273TIP3    H130696   4.640   5.081   4.138
10273TIP3    H230697   4.512   5.058   4.215
10274TIP3   OH230698   4.712   5.123   3.974
10274TIP3    H130699   4.774   5.055   3.948
10274TIP3    H230700   4.757   5.205   3.957
10275TIP3   OH230701   3.331   4.826   4.316
10275TIP3    H130702   3.242   4.793   4.329
10275TIP3    H230703   3.385   4.747   4.309
10276TIP3   OH230704   3.157   4.734   3.978
10276TIP3    H130705   3.180   4.782   3.899
10276TIP3    H230706   3.118   4.799   4.036
10277TIP3   OH230707   3.805   4.858   4.204
10277TIP3    H130708   3.850   4.906   4.134
10277TIP3    H230709   3.836   4.898   4.285
10278TIP3   OH230710   4.312   5.020   4.187
10278TIP3    H130711   4.327   4.984   4.100
10278TIP3    H230712   4.308   4.943   4.244
10279TIP3   OH230713   4.364   4.961   3.762
10279TIP3    H130714   4.285   5.008   3.786
10279TIP3    H230715   4.352   4.873   3.799
10280TIP3   OH230716   2.837   6.291   3.743
10280TIP3    H130717   2.817   6.229   3.673
10280TIP3    H230718   2.830   6.377   3.701
10281TIP3   OH230719   3.255   4.861   3.737
10281TIP3    H130720   3.301   4.803   3.676
10281TIP3    H230721   3.324   4.919   3.771
10282TIP3   OH230722   3.740   5.058   3.836
10282TIP3    H130723   3.801   5.007   3.889
10282TIP3    H230724   3.755   5.149   3.863
10283TIP3   OH230725   3.625   6.451   3.327
10283TIP3    H130726   3.708   6.477   3.288
10283TIP3    H230727   3.593   6.379   3.272
10284TIP3   OH230728   4.324   6.592   3.434
10284TIP3    H130729   4.319   6.497   3.426
10284TIP3    H230730   4.284   6.625   3.354
10285TIP3   OH230731   3.833   5.151   5.367
10285TIP3    H130732   3.928   5.154   5.377
10285TIP3    H230733   3.805   5.078   5.421
10286TIP3   OH230734   2.947   6.298   3.399
10286TIP3    H130735   2.980   6.325   3.484
10286TIP3    H230736   3.017   6.244   3.362
10287TIP3   OH230737   4.547   6.738   4.620
10287TIP3    H130738   4.474   6.707   4.567
10287TIP3    H230739   4.531   6.832   4.631
10288TIP3   OH230740   5.823   6.128   3.359
10288TIP3    H130741   5.791   6.213   3.331
10288TIP3    H230742   5.752   6.067   3.337
10289TIP3   OH230743   5.826   6.126   3.785
10289TIP3    H130744   5.877   6.100   3.862
10289TIP3    H230745   5.783   6.045   3.757
10290TIP3   OH230746   5.119   5.980   4.129
10290TIP3    H130747   5.156   5.922   4.196
10290TIP3    H230748   5.192   5.999   4.070
10291TIP3   OH230749   6.080   6.431   3.460
10291TIP3    H130750   6.075   6.360   3.524
10291TIP3    H230751   6.107   6.507   3.511
10292TIP3   OH230752   5.104   6.412   3.824
10292TIP3    H130753   5.092   6.317   3.823
10292TIP3    H230754   5.199   6.425   3.815
10293TIP3   OH230755   4.812   5.637   3.653
10293TIP3    H130756   4.752   5.711   3.648
10293TIP3    H230757   4.764   5.565   3.612
10294TIP3   OH230758   4.861   5.914   3.827
10294TIP3    H130759   4.902   5.829   3.842
10294TIP3    H230760   4.929   5.966   3.783
10295TIP3   OH230761   5.754   6.849   3.476
10295TIP3    H130762   5.776   6.788   3.406
10295TIP3    H230763   5.764   6.798   3.557
10296TIP3   OH230764   5.622   6.339   3.789
10296TIP3    H130765   5.668   6.259   3.761
10296TIP3    H230766   5.692   6.398   3.817
10297TIP3   OH230767   6.672   5.653   3.782
10297TIP3    H130768   6.686   5.735   3.830
10297TIP3    H230769   6.714   5.668   3.697
10298TIP3   OH230770   6.029   5.829   3.817
10298TIP3    H130771   6.059   5.745   3.850
10298TIP3    H230772   5.993   5.810   3.730
10299TIP3   OH230773   6.076   5.540   3.413
10299TIP3    H130774   6.136   5.543   3.488
10299TIP3    H230775   6.123   5.586   3.343
10300TIP3   OH230776   4.980   5.670   3.882
10300TIP3    H130777   5.068   5.633   3.886
10300TIP3    H230778   4.941   5.631   3.803
10301TIP3   OH230779   5.429   5.900   3.727
10301TIP3    H130780   5.524   5.891   3.724
10301TIP3    H230781   5.395   5.816   3.696
10302TIP3   OH230782   6.699   5.860   3.969
10302TIP3    H130783   6.635   5.924   3.939
10302TIP3    H230784   6.659   5.818   4.046
10303TIP3   OH230785   5.375   5.491   4.239
10303TIP3    H130786   5.330   5.514   4.157
10303TIP3    H230787   5.313   5.514   4.308
10304TIP3   OH230788   5.720   6.345   3.219
10304TIP3    H130789   5.680   6.314   3.137
10304TIP3    H230790   5.667   6.419   3.245
10305TIP3   OH230791   5.467   6.257   4.004
10305TIP3    H130792   5.413   6.329   4.036
10305TIP3    H230793   5.515   6.294   3.930
10306TIP3   OH230794   6.233   5.601   3.636
10306TIP3    H130795   6.190   5.591   3.721
10306TIP3    H230796   6.293   5.675   3.648
10307TIP3   OH230797   5.251   5.568   3.982
10307TIP3    H130798   5.317   5.638   3.988
10307TIP3    H230799   5.283   5.511   3.913
10308TIP3   OH230800   5.310   6.465   4.105
10308TIP3    H130801   5.295   6.554   4.074
10308TIP3    H230802   5.232   6.443   4.156
10309TIP3   OH230803   4.687   6.169   3.358
10309TIP3    H130804   4.653   6.185   3.269
10309TIP3    H230805   4.711   6.256   3.391
10310TIP3   OH230806   6.122   6.679   3.601
10310TIP3    H130807   6.033   6.673   3.635
10310TIP3    H230808   6.124   6.763   3.554
10311TIP3   OH230809   6.445   5.576   3.933
10311TIP3    H130810   6.360   5.597   3.895
10311TIP3    H230811   6.509   5.601   3.865
10312TIP3   OH230812   5.735   5.213   3.970
10312TIP3    H130813   5.715   5.120   3.958
10312TIP3    H230814   5.657   5.249   4.013
10313TIP3   OH230815   5.832   6.708   3.249
10313TIP3    H130816   5.884   6.628   3.240
10313TIP3    H230817   5.891   6.778   3.222
10314TIP3   OH230818   5.970   6.478   3.211
10314TIP3    H130819   5.900   6.413   3.207
10314TIP3    H230820   6.020   6.454   3.290
10315TIP3   OH230821   6.362   6.556   3.942
10315TIP3    H130822   6.342   6.483   3.883
10315TIP3    H230823   6.350   6.634   3.888
10316TIP3   OH230824   5.651   5.960   3.214
10316TIP3    H130825   5.568   6.004   3.195
10316TIP3    H230826   5.698   5.962   3.130
10317TIP3   OH230827   5.617   5.771   2.901
10317TIP3    H130828   5.681   5.821   2.952
10317TIP3    H230829   5.669   5.706   2.854
10318TIP3   OH230830   6.541   6.232   3.807
10318TIP3    H130831   6.456   6.276   3.798
10318TIP3    H230832   6.579   6.236   3.719
10319TIP3   OH230833   6.006   6.053   3.169
10319TIP3    H130834   5.953   6.083   3.243
10319TIP3    H230835   6.088   6.024   3.208
10320TIP3   OH230836   6.240   6.075   4.127
10320TIP3    H130837   6.234   6.158   4.173
10320TIP3    H230838   6.158   6.070   4.076
10321TIP3   OH230839   5.237   6.035   3.576
10321TIP3    H130840   5.201   5.974   3.511
10321TIP3    H230841   5.307   5.986   3.619
10322TIP3   OH230842   5.368   6.460   3.722
10322TIP3    H130843   5.344   6.442   3.631
10322TIP3    H230844   5.454   6.418   3.732
10323TIP3   OH230845   5.332   6.021   3.954
10323TIP3    H130846   5.370   5.984   3.874
10323TIP3    H230847   5.384   6.099   3.972
10324TIP3   OH230848   5.877   6.677   3.725
10324TIP3    H130849   5.874   6.752   3.785
10324TIP3    H230850   5.868   6.601   3.782
10325TIP3   OH230851   5.508   6.565   4.273
10325TIP3    H130852   5.445   6.621   4.320
10325TIP3    H230853   5.453   6.512   4.215
10326TIP3   OH230854   5.837   5.915   3.002
10326TIP3    H130855   5.896   5.973   3.050
10326TIP3    H230856   5.868   5.918   2.912
10327TIP3   OH230857   5.255   6.113   4.429
10327TIP3    H130858   5.255   6.208   4.442
10327TIP3    H230859   5.162   6.091   4.417
10328TIP3   OH230860   5.585   6.585   3.258
10328TIP3    H130861   5.667   6.634   3.264
10328TIP3    H230862   5.526   6.643   3.210
10329TIP3   OH230863   5.295   6.721   4.358
10329TIP3    H130864   5.270   6.730   4.266
10329TIP3    H230865   5.213   6.707   4.405
10330TIP3   OH230866   6.349   5.137   3.056
10330TIP3    H130867   6.278   5.159   3.115
10330TIP3    H230868   6.360   5.215   3.001
10331TIP3   OH230869   5.116   5.876   3.376
10331TIP3    H130870   5.032   5.913   3.349
10331TIP3    H230871   5.095   5.787   3.405
10332TIP3   OH230872   6.177   6.513   2.615
10332TIP3    H130873   6.169   6.607   2.597
10332TIP3    H230874   6.265   6.490   2.585
10333TIP3   OH230875   4.890   6.280   4.307
10333TIP3    H130876   4.821   6.260   4.245
10333TIP3    H230877   4.924   6.194   4.334
10334TIP3   OH230878   4.781   6.452   3.944
10334TIP3    H130879   4.869   6.432   3.914
10334TIP3    H230880   4.793   6.522   4.008
10335TIP3   OH230881   6.592   6.927   4.011
10335TIP3    H130882   6.599   6.832   4.020
10335TIP3    H230883   6.513   6.951   4.059
10336TIP3   OH230884   5.696   6.711   4.136
10336TIP3    H130885   5.686   6.802   4.166
10336TIP3    H230886   5.629   6.662   4.185
10337TIP3   OH230887   5.475   6.807   3.088
10337TIP3    H130888   5.429   6.785   3.007
10337TIP3    H230889   5.436   6.889   3.117
10338TIP3   OH230890   4.908   6.665   3.470
10338TIP3    H130891   4.953   6.657   3.554
10338TIP3    H230892   4.860   6.583   3.460
10339TIP3   OH230893   5.678   6.739   2.716
10339TIP3    H130894   5.729   6.665   2.681
10339TIP3    H230895   5.713   6.752   2.805
10340TIP3   OH230896   5.729   6.782   2.986
10340TIP3    H130897   5.642   6.786   3.026
10340TIP3    H230898   5.784   6.742   3.053
10341TIP3   OH230899   6.492   6.014   4.278
10341TIP3    H130900   6.411   6.029   4.231
10341TIP3    H230901   6.513   5.922   4.262
10342TIP3   OH230902   5.089   6.467   4.274
10342TIP3    H130903   5.140   6.455   4.354
10342TIP3    H230904   5.019   6.403   4.281
10343TIP3   OH230905   5.499   5.278   4.106
10343TIP3    H130906   5.417   5.246   4.069
10343TIP3    H230907   5.474   5.355   4.157
10344TIP3   OH230908   6.012   5.395   4.332
10344TIP3    H130909   6.077   5.345   4.381
10344TIP3    H230910   5.934   5.393   4.386
10345TIP3   OH230911   6.249   5.810   4.225
10345TIP3    H130912   6.213   5.806   4.313
10345TIP3    H230913   6.232   5.900   4.196
10346TIP3   OH230914   5.917   5.880   2.739
10346TIP3    H130915   5.872   5.889   2.655
10346TIP3    H230916   5.998   5.929   2.728
10347TIP3   OH230917   5.645   5.277   3.118
10347TIP3    H130918   5.572   5.334   3.142
10347TIP3    H230919   5.607   5.211   3.060
10348TIP3   OH230920   5.413   5.785   4.086
10348TIP3    H130921   5.362   5.786   4.167
10348TIP3    H230922   5.388   5.865   4.041
10349TIP3   OH230923   5.317   5.674   3.621
10349TIP3    H130924   5.320   5.592   3.669
10349TIP3    H230925   5.310   5.648   3.529
10350TIP3   OH230926   5.778   5.749   3.339
10350TIP3    H130927   5.729   5.824   3.305
10350TIP3    H230928   5.838   5.725   3.269
10351TIP3   OH230929   5.957   6.018   4.417
10351TIP3    H130930   5.934   5.951   4.481
10351TIP3    H230931   6.050   6.036   4.434
10352TIP3   OH230932   5.949   5.763   3.562
10352TIP3    H130933   5.883   5.781   3.496
10352TIP3    H230934   5.988   5.680   3.534
10353TIP3   OH230935   5.251   5.816   4.312
10353TIP3    H130936   5.281   5.878   4.379
10353TIP3    H230937   5.233   5.735   4.360
10354TIP3   OH230938   5.318   5.304   3.058
10354TIP3    H130939   5.303   5.303   3.152
10354TIP3    H230940   5.237   5.339   3.021
10355TIP3   OH230941   4.868   5.331   3.895
10355TIP3    H130942   4.924   5.370   3.963
10355TIP3    H230943   4.929   5.293   3.832
10356TIP3   OH230944   4.748   5.316   3.408
10356TIP3    H130945   4.791   5.351   3.330
10356TIP3    H230946   4.687   5.386   3.435
10357TIP3   OH230947   5.984   6.023   4.001
10357TIP3    H130948   6.008   5.960   3.933
10357TIP3    H230949   5.941   5.970   4.068
10358TIP3   OH230950   5.638   5.465   3.647
10358TIP3    H130951   5.552   5.452   3.685
10358TIP3    H230952   5.697   5.472   3.722
10359TIP3   OH230953   5.320   5.571   3.363
10359TIP3    H130954   5.414   5.568   3.349
10359TIP3    H230955   5.282   5.587   3.277
10360TIP3   OH230956   6.103   5.572   3.885
10360TIP3    H130957   6.092   5.583   3.979
10360TIP3    H230958   6.034   5.512   3.859
10361TIP3   OH230959   5.194   5.585   3.121
10361TIP3    H130960   5.134   5.530   3.071
10361TIP3    H230961   5.245   5.632   3.054
10362TIP3   OH230962   6.303   7.267   4.099
10362TIP3    H130963   6.302   7.274   4.004
10362TIP3    H230964   6.381   7.314   4.126
10363TIP3   OH230965   5.242   6.383   4.510
10363TIP3    H130966   5.323   6.400   4.557
10363TIP3    H230967   5.173   6.390   4.576
10364TIP3   OH230968   5.709   5.869   3.748
10364TIP3    H130969   5.766   5.806   3.704
10364TIP3    H230970   5.703   5.839   3.838
10365TIP3   OH230971   5.684   5.796   4.007
10365TIP3    H130972   5.598   5.779   4.046
10365TIP3    H230973   5.742   5.808   4.082
10366TIP3   OH230974   5.414   6.096   3.155
10366TIP3    H130975   5.339   6.041   3.132
10366TIP3    H230976   5.388   6.138   3.237
10367TIP3   OH230977   6.302   6.361   3.757
10367TIP3    H130978   6.339   6.406   3.681
10367TIP3    H230979   6.224   6.317   3.723
10368TIP3   OH230980   5.883   5.430   3.038
10368TIP3    H130981   5.789   5.423   3.052
10368TIP3    H230982   5.904   5.521   3.059
10369TIP3   OH230983   5.830   6.448   4.164
10369TIP3    H130984   5.880   6.430   4.244
10369TIP3    H230985   5.788   6.532   4.181
10370TIP3   OH230986   5.948   5.684   3.123
10370TIP3    H130987   6.042   5.689   3.142
10370TIP3    H230988   5.928   5.765   3.077
10371TIP3   OH230989   5.115   6.134   3.804
10371TIP3    H130990   5.149   6.108   3.719
10371TIP3    H230991   5.174   6.094   3.868
10372TIP3   OH230992   5.564   6.260   2.999
10372TIP3    H130993   5.516   6.343   2.997
10372TIP3    H230994   5.510   6.202   3.052
10373TIP3   OH230995   4.980   6.049   4.442
10373TIP3    H130996   4.983   6.020   4.533
10373TIP3    H230997   4.907   6.000   4.404
10374TIP3   OH230998   5.740   6.191   4.453
10374TIP3    H130999   5.675   6.151   4.396
10374TIP3    H231000   5.822   6.145   4.431
10375TIP3   OH231001   5.967   6.736   4.058
10375TIP3    H131002   5.873   6.717   4.062
10375TIP3    H231003   5.989   6.767   4.145
10376TIP3   OH231004   6.345   5.771   2.954
10376TIP3    H131005   6.297   5.729   2.884
10376TIP3    H231006   6.355   5.862   2.926
10377TIP3   OH231007   6.608   6.653   4.024
10377TIP3    H131008   6.516   6.627   4.026
10377TIP3    H231009   6.641   6.616   3.942
10378TIP3   OH231010   6.094   6.585   2.883
10378TIP3    H131011   6.070   6.517   2.946
10378TIP3    H231012   6.115   6.537   2.803
10379TIP3   OH231013   6.076   6.221   3.656
10379TIP3    H131014   5.987   6.198   3.682
10379TIP3    H231015   6.112   6.140   3.620
10380TIP3   OH231016   5.228   6.458   3.476
10380TIP3    H131017   5.225   6.534   3.419
10380TIP3    H231018   5.136   6.438   3.495
10381TIP3   OH231019   4.788   5.736   3.191
10381TIP3    H131020   4.832   5.817   3.213
10381TIP3    H231021   4.706   5.738   3.241
10382TIP3   OH231022   5.316   6.215   3.377
10382TIP3    H131023   5.301   6.303   3.410
10382TIP3    H231024   5.292   6.157   3.450
10383TIP3   OH231025   5.511   6.780   3.930
10383TIP3    H131026   5.549   6.852   3.879
10383TIP3    H231027   5.584   6.745   3.980
10384TIP3   OH231028   5.143   6.681   3.325
10384TIP3    H131029   5.056   6.687   3.364
10384TIP3    H231030   5.178   6.770   3.330
10385TIP3   OH231031   5.861   6.449   3.890
10385TIP3    H131032   5.852   6.445   3.985
10385TIP3    H231033   5.923   6.379   3.868
10386TIP3   OH231034   5.854   6.323   2.769
10386TIP3    H131035   5.905   6.297   2.846
10386TIP3    H231036   5.771   6.278   2.779
10387TIP3   OH231037   6.126   6.936   3.942
10387TIP3    H131038   6.059   6.872   3.967
10387TIP3    H231039   6.084   6.989   3.874
10388TIP3   OH231040   6.166   6.787   2.574
10388TIP3    H131041   6.181   6.848   2.502
10388TIP3    H231042   6.097   6.828   2.626
10389TIP3   OH231043   5.204   5.574   4.447
10389TIP3    H131044   5.109   5.579   4.455
10389TIP3    H231045   5.232   5.521   4.521
10390TIP3   OH231046   6.027   6.240   2.963
10390TIP3    H131047   6.015   6.185   3.041
10390TIP3    H231048   6.122   6.249   2.954
10391TIP3   OH231049   4.928   6.662   4.099
10391TIP3    H131050   4.984   6.600   4.146
10391TIP3    H231051   4.945   6.746   4.142
10392TIP3   OH231052   5.208   6.286   2.786
10392TIP3    H131053   5.218   6.195   2.759
10392TIP3    H231054   5.194   6.282   2.881
10393TIP3   OH231055   5.150   6.304   3.059
10393TIP3    H131056   5.213   6.277   3.126
10393TIP3    H231057   5.150   6.399   3.063
10394TIP3   OH231058   4.883   5.987   3.270
10394TIP3    H131059   4.817   6.035   3.321
10394TIP3    H231060   4.903   6.045   3.196
10395TIP3   OH231061   6.059   5.618   4.159
10395TIP3    H131062   6.137   5.665   4.186
10395TIP3    H231063   6.051   5.546   4.222
10396TIP3   OH231064   5.914   5.321   3.289
10396TIP3    H131065   5.928   5.365   3.205
10396TIP3    H231066   5.946   5.383   3.354
10397TIP3   OH231067   5.420   6.489   2.993
10397TIP3    H131068   5.336   6.513   3.031
10397TIP3    H231069   5.443   6.563   2.937
10398TIP3   OH231070   5.607   5.533   3.385
10398TIP3    H131071   5.664   5.608   3.367
10398TIP3    H231072   5.612   5.521   3.479
10399TIP3   OH231073   5.887   5.850   4.195
10399TIP3    H131074   5.913   5.896   4.275
10399TIP3    H231075   5.941   5.771   4.194
10400TIP3   OH231076   5.172   6.578   3.072
10400TIP3    H131077   5.152   6.650   3.012
10400TIP3    H231078   5.160   6.615   3.159
10401TIP3   OH231079   5.255   5.296   3.331
10401TIP3    H131080   5.251   5.390   3.346
10401TIP3    H231081   5.280   5.259   3.415
10402TIP3   OH231082   6.506   5.754   4.142
10402TIP3    H131083   6.419   5.762   4.181
10402TIP3    H231084   6.497   5.682   4.080
10403TIP3   OH231085   6.168   5.963   3.572
10403TIP3    H131086   6.094   5.903   3.582
10403TIP3    H231087   6.238   5.923   3.623
10404TIP3   OH231088   4.908   6.166   3.054
10404TIP3    H131089   4.980   6.229   3.061
10404TIP3    H231090   4.939   6.103   2.989
10405TIP3   OH231091   4.810   5.458   3.180
10405TIP3    H131092   4.823   5.552   3.189
10405TIP3    H231093   4.735   5.450   3.120
10406TIP3   OH231094   6.146   6.947   3.516
10406TIP3    H131095   6.100   6.998   3.449
10406TIP3    H231096   6.239   6.969   3.502
10407TIP3   OH231097   5.223   5.196   4.073
10407TIP3    H131098   5.189   5.178   3.986
10407TIP3    H231099   5.207   5.115   4.122
10408TIP3   OH231100   4.736   6.443   3.438
10408TIP3    H131101   4.685   6.472   3.514
10408TIP3    H231102   4.693   6.484   3.363
10409TIP3   OH231103   4.940   6.977   4.513
10409TIP3    H131104   5.023   6.980   4.561
10409TIP3    H231105   4.923   6.884   4.502
10410TIP3   OH231106   5.405   6.884   4.551
10410TIP3    H131107   5.495   6.854   4.561
10410TIP3    H231108   5.369   6.831   4.480
10411TIP3   OH231109   5.362   6.486   2.674
10411TIP3    H131110   5.315   6.416   2.720
10411TIP3    H231111   5.437   6.442   2.633
10412TIP3   OH231112   6.022   6.826   4.311
10412TIP3    H131113   6.037   6.755   4.373
10412TIP3    H231114   6.097   6.885   4.324
10413TIP3   OH231115   5.806   6.529   2.597
10413TIP3    H131116   5.837   6.464   2.660
10413TIP3    H231117   5.866   6.521   2.523
10414TIP3   OH231118   5.038   6.382   4.701
10414TIP3    H131119   5.055   6.288   4.713
10414TIP3    H231120   4.952   6.385   4.659
10415TIP3   OH231121   5.031   5.979   2.898
10415TIP3    H131122   5.082   5.954   2.975
10415TIP3    H231123   5.096   5.993   2.829
10416TIP3   OH231124   5.661   6.461   4.479
10416TIP3    H131125   5.617   6.481   4.396
10416TIP3    H231126   5.702   6.376   4.465
10417TIP3   OH231127   5.600   6.202   2.733
10417TIP3    H131128   5.577   6.214   2.826
10417TIP3    H231129   5.581   6.110   2.715
10418TIP3   OH231130   6.143   6.510   4.106
10418TIP3    H131131   6.219   6.533   4.052
10418TIP3    H231132   6.075   6.574   4.081
10419TIP3   OH231133   5.149   6.126   4.709
10419TIP3    H131134   5.222   6.108   4.649
10419TIP3    H231135   5.192   6.143   4.793
10420TIP3   OH231136   5.203   5.922   3.110
10420TIP3    H131137   5.182   5.895   3.200
10420TIP3    H231138   5.251   5.847   3.073
10421TIP3   OH231139   5.499   5.996   4.377
10421TIP3    H131140   5.419   6.047   4.391
10421TIP3    H231141   5.537   6.033   4.297
10422TIP3   OH231142   5.345   5.738   2.952
10422TIP3    H131143   5.315   5.744   2.862
10422TIP3    H231144   5.440   5.749   2.947
10423TIP3   OH231145   6.022   6.380   4.445
10423TIP3    H131146   6.091   6.341   4.391
10423TIP3    H231147   6.019   6.325   4.523
10424TIP3   OH231148   6.130   6.027   2.638
10424TIP3    H131149   6.119   5.987   2.551
10424TIP3    H231150   6.107   6.119   2.625
10425TIP3   OH231151   5.615   5.770   4.463
10425TIP3    H131152   5.593   5.708   4.393
10425TIP3    H231153   5.582   5.854   4.432
10426TIP3   OH231154   5.634   6.118   4.176
10426TIP3    H131155   5.717   6.108   4.130
10426TIP3    H231156   5.580   6.170   4.117
10427TIP3   OH231157   6.218   6.070   4.500
10427TIP3    H131158   6.241   6.010   4.571
10427TIP3    H231159   6.303   6.097   4.463
10428TIP3   OH231160   6.258   6.324   4.268
10428TIP3    H131161   6.207   6.388   4.218
10428TIP3    H231162   6.347   6.335   4.236
10429TIP3   OH231163   5.514   5.860   4.719
10429TIP3    H131164   5.440   5.804   4.741
10429TIP3    H231165   5.532   5.840   4.627
10430TIP3   OH231166   5.872   5.802   4.571
10430TIP3    H131167   5.855   5.794   4.664
10430TIP3    H231168   5.788   5.786   4.529
10431TIP3   OH231169   6.128   5.765   4.466
10431TIP3    H131170   6.041   5.767   4.505
10431TIP3    H231171   6.188   5.762   4.540
10432TIP3   OH231172   5.334   5.655   4.784
10432TIP3    H131173   5.342   5.568   4.747
10432TIP3    H231174   5.371   5.647   4.872
10433TIP3   OH231175   5.845   5.492   4.780
10433TIP3    H131176   5.864   5.482   4.687
10433TIP3    H231177   5.814   5.582   4.789
10434TIP3   OH231178   5.171   6.791   2.892
10434TIP3    H131179   5.259   6.766   2.862
10434TIP3    H231180   5.131   6.833   2.816
10435TIP3   OH231181   4.635   6.169   3.067
10435TIP3    H131182   4.730   6.177   3.064
10435TIP3    H231183   4.617   6.084   3.028
10436TIP3   OH231184   4.526   6.750   3.534
10436TIP3    H131185   4.466   6.694   3.486
10436TIP3    H231186   4.575   6.691   3.591
10437TIP3   OH231187   4.675   6.587   3.702
10437TIP3    H131188   4.669   6.515   3.765
10437TIP3    H231189   4.727   6.654   3.747
10438TIP3   OH231190   6.405   7.037   3.501
10438TIP3    H131191   6.444   7.028   3.589
10438TIP3    H231192   6.481   7.041   3.443
10439TIP3   OH231193   6.460   7.003   3.777
10439TIP3    H131194   6.408   6.923   3.771
10439TIP3    H231195   6.521   6.986   3.849
10440TIP3   OH231196   6.487   6.725   4.356
10440TIP3    H131197   6.418   6.731   4.422
10440TIP3    H231198   6.534   6.808   4.362
10441TIP3   OH231199   6.303   6.250   2.949
10441TIP3    H131200   6.368   6.316   2.925
10441TIP3    H231201   6.339   6.208   3.027
10442TIP3   OH231202   6.403   6.098   3.149
10442TIP3    H131203   6.347   6.052   3.211
10442TIP3    H231204   6.485   6.113   3.197
10443TIP3   OH231205   6.488   6.489   3.591
10443TIP3    H131206   6.542   6.417   3.559
10443TIP3    H231207   6.498   6.558   3.525
10444TIP3   OH231208   6.299   6.779   3.791
10444TIP3    H131209   6.233   6.826   3.843
10444TIP3    H231210   6.249   6.738   3.720
10445TIP3   OH231211   6.342   6.011   2.813
10445TIP3    H131212   6.267   6.011   2.753
10445TIP3    H231213   6.330   6.090   2.866
10446TIP3   OH231214   6.211   5.659   2.739
10446TIP3    H131215   6.155   5.694   2.670
10446TIP3    H231216   6.204   5.564   2.730
10447TIP3   OH231217   6.224   5.947   3.301
10447TIP3    H131218   6.235   5.852   3.292
10447TIP3    H231219   6.213   5.960   3.395
10448TIP3   OH231220   4.855   6.019   4.079
10448TIP3    H131221   4.845   5.983   3.991
10448TIP3    H231222   4.949   6.015   4.096
10449TIP3   OH231223   6.511   6.365   4.163
10449TIP3    H131224   6.580   6.300   4.152
10449TIP3    H231225   6.510   6.413   4.080
10450TIP3   OH231226   6.694   6.161   4.159
10450TIP3    H131227   6.622   6.111   4.197
10450TIP3    H231228   6.773   6.118   4.192
10451TIP3   OH231229   6.164   5.385   2.708
10451TIP3    H131230   6.227   5.364   2.777
10451TIP3    H231231   6.082   5.347   2.739
10452TIP3   OH231232   6.225   5.674   3.190
10452TIP3    H131233   6.275   5.594   3.205
10452TIP3    H231234   6.268   5.715   3.115
10453TIP3   OH231235   6.387   5.833   3.697
10453TIP3    H131236   6.461   5.856   3.642
10453TIP3    H231237   6.403   5.878   3.780
10454TIP3   OH231238   6.452   5.996   3.917
10454TIP3    H131239   6.384   6.020   3.980
10454TIP3    H231240   6.482   6.080   3.881
10455TIP3   OH231241   5.065   5.691   4.732
10455TIP3    H131242   5.160   5.690   4.746
10455TIP3    H231243   5.034   5.613   4.778
10456TIP3   OH231244   6.348   5.432   3.243
10456TIP3    H131245   6.398   5.421   3.323
10456TIP3    H231246   6.289   5.356   3.241
10457TIP3   OH231247   5.052   5.412   4.089
10457TIP3    H131248   5.107   5.334   4.093
10457TIP3    H231249   5.109   5.480   4.054
10458TIP3   OH231250   4.830   5.679   4.120
10458TIP3    H131251   4.873   5.658   4.038
10458TIP3    H231252   4.878   5.754   4.155
10459TIP3   OH231253   6.381   5.344   2.874
10459TIP3    H131254   6.434   5.285   2.820
10459TIP3    H231255   6.439   5.420   2.888
10460TIP3   OH231256   4.809   5.150   3.617
10460TIP3    H131257   4.729   5.154   3.669
10460TIP3    H231258   4.799   5.219   3.552
10461TIP3   OH231259   5.979   6.911   3.148
10461TIP3    H131260   6.032   6.893   3.071
10461TIP3    H231261   6.027   6.978   3.196
10462TIP3   OH231262   4.932   5.181   4.454
10462TIP3    H131263   4.863   5.204   4.516
10462TIP3    H231264   4.932   5.252   4.390
10463TIP3   OH231265   5.072   6.697   4.525
10463TIP3    H131266   4.979   6.677   4.517
10463TIP3    H231267   5.092   6.681   4.617
10464TIP3   OH231268   5.281   6.742   4.076
10464TIP3    H131269   5.231   6.818   4.045
10464TIP3    H231270   5.366   6.750   4.033
10465TIP3   OH231271   5.679   6.977   4.218
10465TIP3    H131272   5.718   6.968   4.305
10465TIP3    H231273   5.741   7.032   4.169
10466TIP3   OH231274   5.867   7.133   4.088
10466TIP3    H131275   5.924   7.077   4.036
10466TIP3    H231276   5.927   7.188   4.138
10467TIP3   OH231277   4.945   6.992   4.124
10467TIP3    H131278   4.854   7.012   4.105
10467TIP3    H231279   4.970   7.055   4.192
10468TIP3   OH231280   5.175   6.976   3.974
10468TIP3    H131281   5.092   6.982   4.022
10468TIP3    H231282   5.152   6.997   3.884
10469TIP3   OH231283   5.591   6.990   3.766
10469TIP3    H131284   5.520   6.998   3.703
10469TIP3    H231285   5.598   7.076   3.807
10470TIP3   OH231286   5.860   6.945   3.818
10470TIP3    H131287   5.767   6.954   3.796
10470TIP3    H231288   5.904   7.008   3.762
10471TIP3   OH231289   6.073   7.118   3.719
10471TIP3    H131290   6.063   7.200   3.672
10471TIP3    H231291   6.099   7.055   3.652
10472TIP3   OH231292   4.851   6.761   3.850
10472TIP3    H131293   4.878   6.734   3.937
10472TIP3    H231294   4.922   6.731   3.792
10473TIP3   OH231295   5.055   6.654   3.704
10473TIP3    H131296   5.067   6.569   3.746
10473TIP3    H231297   5.142   6.694   3.705
10474TIP3   OH231298   5.325   6.736   3.725
10474TIP3    H131299   5.343   6.643   3.709
10474TIP3    H231300   5.379   6.758   3.801
10475TIP3   OH231301   5.897   5.396   3.813
10475TIP3    H131302   5.848   5.331   3.863
10475TIP3    H231303   5.952   5.345   3.754
10476TIP3   OH231304   6.390   5.284   3.672
10476TIP3    H131305   6.440   5.333   3.607
10476TIP3    H231306   6.317   5.341   3.695
10477TIP3   OH231307   6.521   5.388   3.453
10477TIP3    H131308   6.589   5.325   3.427
10477TIP3    H231309   6.560   5.474   3.436
10478TIP3   OH231310   5.085   5.111   3.854
10478TIP3    H131311   5.013   5.048   3.851
10478TIP3    H231312   5.125   5.106   3.767
10479TIP3   OH231313   4.939   4.973   3.447
10479TIP3    H131314   4.964   5.028   3.373
10479TIP3    H231315   4.896   5.033   3.509
10480TIP3   OH231316   5.549   5.166   3.665
10480TIP3    H131317   5.621   5.215   3.703
10480TIP3    H231318   5.471   5.215   3.689
10481TIP3   OH231319   6.079   5.245   3.664
10481TIP3    H131320   6.133   5.209   3.593
10481TIP3    H231321   6.082   5.179   3.733
10482TIP3   OH231322   6.174   5.208   3.256
10482TIP3    H131323   6.083   5.230   3.274
10482TIP3    H231324   6.206   5.168   3.338
10483TIP3   OH231325   4.616   6.565   3.222
10483TIP3    H131326   4.534   6.531   3.186
10483TIP3    H231327   4.621   6.655   3.191
10484TIP3   OH231328   5.047   5.122   3.223
10484TIP3    H131329   5.098   5.064   3.166
10484TIP3    H231330   5.112   5.184   3.258
10485TIP3   OH231331   5.635   5.248   3.410
10485TIP3    H131332   5.599   5.208   3.490
10485TIP3    H231333   5.616   5.341   3.419
10486TIP3   OH231334   5.423   6.710   2.818
10486TIP3    H131335   5.507   6.737   2.780
10486TIP3    H231336   5.393   6.639   2.761
10487TIP3   OH231337   6.126   6.854   2.919
10487TIP3    H131338   6.120   6.758   2.912
10487TIP3    H231339   6.082   6.886   2.841
10488TIP3   OH231340   5.357   5.396   4.693
10488TIP3    H131341   5.316   5.310   4.693
10488TIP3    H231342   5.442   5.382   4.736
10489TIP3   OH231343   5.599   5.367   4.831
10489TIP3    H131344   5.690   5.398   4.823
10489TIP3    H231345   5.597   5.321   4.915
10490TIP3   OH231346   4.732   6.552   2.875
10490TIP3    H131347   4.733   6.556   2.971
10490TIP3    H231348   4.813   6.505   2.853
10491TIP3   OH231349   6.343   6.993   4.110
10491TIP3    H131350   6.270   6.961   4.056
10491TIP3    H231351   6.327   7.087   4.117
10492TIP3   OH231352   7.622   6.384   2.843
10492TIP3    H131353   7.590   6.471   2.817
10492TIP3    H231354   7.551   6.324   2.821
10493TIP3   OH231355   7.623   6.375   3.271
10493TIP3    H131356   7.675   6.355   3.349
10493TIP3    H231357   7.575   6.295   3.253
10494TIP3   OH231358   6.926   6.255   3.625
10494TIP3    H131359   6.966   6.191   3.685
10494TIP3    H231360   6.992   6.267   3.557
10495TIP3   OH231361   7.885   6.682   2.945
10495TIP3    H131362   7.873   6.614   3.012
10495TIP3    H231363   7.906   6.761   2.994
10496TIP3   OH231364   6.891   6.658   3.311
10496TIP3    H131365   6.874   6.564   3.305
10496TIP3    H231366   6.987   6.665   3.308
10497TIP3   OH231367   6.610   5.831   3.191
10497TIP3    H131368   6.634   5.916   3.229
10497TIP3    H231369   6.538   5.851   3.131
10498TIP3   OH231370   7.544   7.110   2.959
10498TIP3    H131371   7.571   7.046   2.893
10498TIP3    H231372   7.546   7.061   3.042
10499TIP3   OH231373   7.418   6.599   3.272
10499TIP3    H131374   7.459   6.518   3.242
10499TIP3    H231375   7.491   6.653   3.303
10500TIP3   OH231376   8.459   5.919   3.289
10500TIP3    H131377   8.471   6.005   3.329
10500TIP3    H231378   8.488   5.930   3.198
10501TIP3   OH231379   7.836   6.083   3.310
10501TIP3    H131380   7.865   5.997   3.338
10501TIP3    H231381   7.796   6.069   3.224
10502TIP3   OH231382   7.191   5.742   3.257
10502TIP3    H131383   7.165   5.817   3.204
10502TIP3    H231384   7.134   5.671   3.229
10503TIP3   OH231385   7.884   5.841   2.906
10503TIP3    H131386   7.947   5.835   2.978
10503TIP3    H231387   7.935   5.876   2.833
10504TIP3   OH231388   7.232   6.168   3.211
10504TIP3    H131389   7.325   6.150   3.222
10504TIP3    H231390   7.196   6.087   3.176
10505TIP3   OH231391   8.502   6.140   3.460
10505TIP3    H131392   8.413   6.173   3.451
10505TIP3    H231393   8.531   6.173   3.545
10506TIP3   OH231394   7.171   5.746   3.740
10506TIP3    H131395   7.126   5.775   3.661
10506TIP3    H231396   7.110   5.765   3.811
10507TIP3   OH231397   7.518   6.601   2.704
10507TIP3    H131398   7.478   6.569   2.624
10507TIP3    H231399   7.464   6.676   2.731
10508TIP3   OH231400   7.262   6.523   3.489
10508TIP3    H131401   7.205   6.592   3.521
10508TIP3    H231402   7.307   6.561   3.413
10509TIP3   OH231403   8.040   5.863   3.130
10509TIP3    H131404   7.997   5.842   3.213
10509TIP3    H231405   8.095   5.938   3.151
10510TIP3   OH231406   7.073   5.829   3.499
10510TIP3    H131407   7.114   5.915   3.513
10510TIP3    H231408   7.111   5.797   3.418
10511TIP3   OH231409   7.103   6.725   3.592
10511TIP3    H131410   7.087   6.815   3.564
10511TIP3    H231411   7.025   6.701   3.642
10512TIP3   OH231412   6.486   6.434   2.840
10512TIP3    H131413   6.449   6.459   2.756
10512TIP3    H231414   6.513   6.517   2.880
10513TIP3   OH231415   7.922   6.930   3.085
10513TIP3    H131416   7.834   6.922   3.124
10513TIP3    H231417   7.921   7.013   3.039
10514TIP3   OH231418   8.257   5.813   3.455
10514TIP3    H131419   8.172   5.833   3.417
10514TIP3    H231420   8.320   5.839   3.389
10515TIP3   OH231421   7.505   5.441   3.455
10515TIP3    H131422   7.496   5.349   3.482
10515TIP3    H231423   7.429   5.484   3.493
10516TIP3   OH231424   7.630   6.962   2.740
10516TIP3    H131425   7.683   6.882   2.730
10516TIP3    H231426   7.689   7.032   2.712
10517TIP3   OH231427   7.768   6.730   2.699
10517TIP3    H131428   7.694   6.670   2.698
10517TIP3    H231429   7.817   6.706   2.777
10518TIP3   OH231430   8.161   6.814   3.430
10518TIP3    H131431   8.139   6.740   3.373
10518TIP3    H231432   8.146   6.891   3.376
10519TIP3   OH231433   7.447   6.220   2.700
10519TIP3    H131434   7.363   6.261   2.680
10519TIP3    H231435   7.493   6.218   2.616
10520TIP3   OH231436   7.413   6.030   2.384
10520TIP3    H131437   7.478   6.078   2.436
10520TIP3    H231438   7.463   5.961   2.341
10521TIP3   OH231439   8.334   6.479   3.296
10521TIP3    H131440   8.249   6.523   3.294
10521TIP3    H231441   8.369   6.491   3.207
10522TIP3   OH231442   7.807   6.308   2.657
10522TIP3    H131443   7.752   6.338   2.729
10522TIP3    H231444   7.890   6.283   2.698
10523TIP3   OH231445   8.033   6.338   3.605
10523TIP3    H131446   8.028   6.421   3.653
10523TIP3    H231447   7.952   6.333   3.556
10524TIP3   OH231448   7.037   6.305   3.063
10524TIP3    H131449   6.999   6.238   3.007
10524TIP3    H231450   7.105   6.259   3.113
10525TIP3   OH231451   7.162   6.717   3.208
10525TIP3    H131452   7.136   6.698   3.118
10525TIP3    H231453   7.248   6.675   3.218
10526TIP3   OH231454   7.150   6.272   3.457
10526TIP3    H131455   7.167   6.246   3.367
10526TIP3    H231456   7.184   6.361   3.464
10527TIP3   OH231457   7.682   6.923   3.214
10527TIP3    H131458   7.670   7.002   3.267
10527TIP3    H231459   7.667   6.851   3.274
10528TIP3   OH231460   7.302   6.820   3.761
10528TIP3    H131461   7.240   6.876   3.807
10528TIP3    H231462   7.248   6.768   3.702
10529TIP3   OH231463   7.634   6.171   2.492
10529TIP3    H131464   7.695   6.227   2.540
10529TIP3    H231465   7.664   6.174   2.401
10530TIP3   OH231466   7.056   6.360   3.918
10530TIP3    H131467   7.061   6.455   3.931
10530TIP3    H231468   6.963   6.343   3.903
10531TIP3   OH231469   7.382   6.841   2.744
10531TIP3    H131470   7.464   6.890   2.752
10531TIP3    H231471   7.322   6.901   2.700
10532TIP3   OH231472   7.092   6.979   3.845
10532TIP3    H131473   7.068   6.989   3.753
10532TIP3    H231474   7.008   6.966   3.890
10533TIP3   OH231475   8.145   5.396   2.551
10533TIP3    H131476   8.068   5.416   2.605
10533TIP3    H231477   8.155   5.472   2.494
10534TIP3   OH231478   6.905   6.136   2.872
10534TIP3    H131479   6.824   6.177   2.843
10534TIP3    H231480   6.877   6.061   2.924
10535TIP3   OH231481   7.962   6.767   2.106
10535TIP3    H131482   7.959   6.861   2.091
10535TIP3    H231483   8.054   6.744   2.089
10536TIP3   OH231484   6.687   6.533   3.792
10536TIP3    H131485   6.620   6.512   3.726
10536TIP3    H231486   6.724   6.448   3.816
10537TIP3   OH231487   6.589   6.704   3.426
10537TIP3    H131488   6.671   6.672   3.389
10537TIP3    H231489   6.615   6.770   3.490
10538TIP3   OH231490   8.387   7.187   3.496
10538TIP3    H131491   8.394   7.092   3.506
10538TIP3    H231492   8.307   7.211   3.543
10539TIP3   OH231493   7.491   6.966   3.624
10539TIP3    H131494   7.482   7.056   3.653
10539TIP3    H231495   7.424   6.918   3.673
10540TIP3   OH231496   7.270   7.063   2.578
10540TIP3    H131497   7.223   7.042   2.498
10540TIP3    H231498   7.233   7.146   2.607
10541TIP3   OH231499   6.707   6.921   2.959
10541TIP3    H131500   6.751   6.911   3.043
10541TIP3    H231501   6.658   6.840   2.948
10542TIP3   OH231502   7.467   6.995   2.212
10542TIP3    H131503   7.518   6.922   2.177
10542TIP3    H231504   7.504   7.009   2.299
10543TIP3   OH231505   7.525   7.039   2.478
10543TIP3    H131506   7.438   7.042   2.519
10543TIP3    H231507   7.582   7.003   2.547
10544TIP3   OH231508   8.276   6.291   3.763
10544TIP3    H131509   8.194   6.302   3.716
10544TIP3    H231510   8.295   6.197   3.758
10545TIP3   OH231511   6.883   6.723   3.762
10545TIP3    H131512   6.937   6.708   3.840
10545TIP3    H231513   6.814   6.657   3.768
10546TIP3   OH231514   7.271   5.532   3.587
10546TIP3    H131515   7.189   5.504   3.546
10546TIP3    H231516   7.248   5.610   3.637
10547TIP3   OH231517   7.807   5.654   3.784
10547TIP3    H131518   7.876   5.623   3.842
10547TIP3    H231519   7.726   5.640   3.833
10548TIP3   OH231520   8.038   6.073   3.697
10548TIP3    H131521   7.996   6.069   3.783
10548TIP3    H231522   8.019   6.161   3.665
10549TIP3   OH231523   7.717   6.156   2.232
10549TIP3    H131524   7.671   6.153   2.148
10549TIP3    H231525   7.798   6.202   2.213
10550TIP3   OH231526   7.420   5.571   2.544
10550TIP3    H131527   7.386   5.578   2.633
10550TIP3    H231528   7.384   5.489   2.510
10551TIP3   OH231529   7.220   6.051   3.598
10551TIP3    H131530   7.167   6.057   3.678
10551TIP3    H231531   7.199   6.130   3.549
10552TIP3   OH231532   7.105   5.951   3.097
10552TIP3    H131533   7.017   5.924   3.125
10552TIP3    H231534   7.114   5.915   3.009
10553TIP3   OH231535   7.573   6.018   2.837
10553TIP3    H131536   7.525   6.090   2.797
10553TIP3    H231537   7.630   5.985   2.766
10554TIP3   OH231538   7.756   6.281   3.908
10554TIP3    H131539   7.730   6.214   3.970
10554TIP3    H231540   7.849   6.298   3.927
10555TIP3   OH231541   7.742   6.031   3.058
10555TIP3    H131542   7.672   6.051   2.995
10555TIP3    H231543   7.788   5.956   3.019
10556TIP3   OH231544   7.048   6.078   3.811
10556TIP3    H131545   7.052   6.145   3.879
10556TIP3    H231546   7.024   5.998   3.857
10557TIP3   OH231547   7.083   5.550   2.522
10557TIP3    H131548   7.078   5.554   2.618
10557TIP3    H231549   7.006   5.597   2.492
10558TIP3   OH231550   6.632   5.625   3.381
10558TIP3    H131551   6.700   5.657   3.441
10558TIP3    H231552   6.622   5.694   3.316
10559TIP3   OH231553   6.541   5.577   2.899
10559TIP3    H131554   6.583   5.615   2.822
10559TIP3    H231555   6.484   5.647   2.932
10560TIP3   OH231556   7.785   6.284   3.484
10560TIP3    H131557   7.809   6.217   3.420
10560TIP3    H231558   7.739   6.235   3.553
10561TIP3   OH231559   7.455   5.728   3.156
10561TIP3    H131560   7.374   5.731   3.206
10561TIP3    H231561   7.524   5.724   3.222
10562TIP3   OH231562   6.883   5.804   3.138
10562TIP3    H131563   6.789   5.807   3.157
10562TIP3    H231564   6.906   5.712   3.146
10563TIP3   OH231565   7.112   5.814   2.856
10563TIP3    H131566   7.206   5.827   2.842
10563TIP3    H231567   7.072   5.833   2.771
10564TIP3   OH231568   7.898   5.820   3.370
10564TIP3    H131569   7.880   5.837   3.462
10564TIP3    H231570   7.830   5.759   3.343
10565TIP3   OH231571   6.993   5.838   2.610
10565TIP3    H131572   6.927   5.792   2.559
10565TIP3    H231573   7.046   5.885   2.545
10566TIP3   OH231574   8.100   7.524   3.587
10566TIP3    H131575   8.096   7.537   3.492
10566TIP3    H231576   8.179   7.571   3.614
10567TIP3   OH231577   7.040   6.637   3.995
10567TIP3    H131578   7.121   6.653   4.044
10567TIP3    H231579   6.971   6.642   4.060
10568TIP3   OH231580   7.505   6.108   3.269
10568TIP3    H131581   7.566   6.053   3.219
10568TIP3    H231582   7.499   6.066   3.355
10569TIP3   OH231583   7.011   5.553   3.151
10569TIP3    H131584   6.976   5.479   3.201
10569TIP3    H231585   7.027   5.518   3.064
10570TIP3   OH231586   7.481   6.001   3.528
10570TIP3    H131587   7.392   6.026   3.554
10570TIP3    H231588   7.538   6.055   3.583
10571TIP3   OH231589   7.208   6.350   2.640
10571TIP3    H131590   7.133   6.294   2.619
10571TIP3    H231591   7.183   6.395   2.721
10572TIP3   OH231592   8.098   6.614   3.250
10572TIP3    H131593   8.134   6.663   3.176
10572TIP3    H231594   8.019   6.572   3.216
10573TIP3   OH231595   7.673   5.674   2.551
10573TIP3    H131596   7.580   5.653   2.547
10573TIP3    H231597   7.676   5.769   2.563
10574TIP3   OH231598   7.621   6.702   3.656
10574TIP3    H131599   7.665   6.690   3.740
10574TIP3    H231600   7.576   6.786   3.664
10575TIP3   OH231601   7.733   5.939   2.619
10575TIP3    H131602   7.828   5.943   2.629
10575TIP3    H231603   7.712   6.017   2.567
10576TIP3   OH231604   6.860   6.386   3.272
10576TIP3    H131605   6.918   6.357   3.202
10576TIP3    H231606   6.804   6.310   3.289
10577TIP3   OH231607   7.362   6.514   2.486
10577TIP3    H131608   7.313   6.597   2.484
10577TIP3    H231609   7.307   6.456   2.538
10578TIP3   OH231610   6.780   6.303   3.930
10578TIP3    H131611   6.778   6.272   4.021
10578TIP3    H231612   6.706   6.259   3.888
10579TIP3   OH231613   7.526   6.440   3.951
10579TIP3    H131614   7.454   6.383   3.924
10579TIP3    H231615   7.604   6.397   3.918
10580TIP3   OH231616   7.764   6.988   3.549
10580TIP3    H131617   7.669   6.973   3.552
10580TIP3    H231618   7.785   7.022   3.635
10581TIP3   OH231619   8.148   6.027   2.436
10581TIP3    H131620   8.092   5.981   2.374
10581TIP3    H231621   8.154   6.116   2.402
10582TIP3   OH231622   8.405   6.911   3.516
10582TIP3    H131623   8.312   6.889   3.516
10582TIP3    H231624   8.438   6.875   3.434
10583TIP3   OH231625   7.889   6.843   2.375
10583TIP3    H131626   7.861   6.777   2.439
10583TIP3    H231627   7.903   6.793   2.294
10584TIP3   OH231628   7.872   6.477   3.146
10584TIP3    H131629   7.783   6.454   3.172
10584TIP3    H231630   7.907   6.396   3.108
10585TIP3   OH231631   7.024   6.716   2.962
10585TIP3    H131632   7.015   6.793   2.906
10585TIP3    H231633   6.934   6.694   2.987
10586TIP3   OH231634   6.576   5.999   2.671
10586TIP3    H131635   6.624   6.079   2.696
10586TIP3    H231636   6.497   6.001   2.725
10587TIP3   OH231637   7.113   6.476   2.859
10587TIP3    H131638   7.099   6.565   2.892
10587TIP3    H231639   7.090   6.419   2.932
10588TIP3   OH231640   7.305   7.036   3.418
10588TIP3    H131641   7.343   7.106   3.364
10588TIP3    H231642   7.379   7.001   3.468
10589TIP3   OH231643   6.939   6.938   2.810
10589TIP3    H131644   6.853   6.944   2.852
10589TIP3    H231645   6.974   7.026   2.816
10590TIP3   OH231646   7.656   6.700   3.382
10590TIP3    H131647   7.645   6.698   3.477
10590TIP3    H231648   7.724   6.636   3.364
10591TIP3   OH231649   7.650   6.569   2.262
10591TIP3    H131650   7.706   6.543   2.335
10591TIP3    H231651   7.566   6.526   2.280
10592TIP3   OH231652   7.918   7.194   3.428
10592TIP3    H131653   7.848   7.132   3.449
10592TIP3    H231654   7.882   7.248   3.358
10593TIP3   OH231655   7.967   7.041   2.085
10593TIP3    H131656   8.011   7.114   2.043
10593TIP3    H231657   7.887   7.079   2.121
10594TIP3   OH231658   6.983   5.835   3.939
10594TIP3    H131659   6.888   5.843   3.950
10594TIP3    H231660   7.012   5.788   4.017
10595TIP3   OH231661   7.833   6.489   2.447
10595TIP3    H131662   7.817   6.436   2.525
10595TIP3    H231663   7.929   6.497   2.443
10596TIP3   OH231664   6.725   6.907   3.587
10596TIP3    H131665   6.780   6.845   3.634
10596TIP3    H231666   6.734   6.989   3.635
10597TIP3   OH231667   7.002   6.542   2.275
10597TIP3    H131668   7.014   6.451   2.250
10597TIP3    H231669   6.989   6.539   2.370
10598TIP3   OH231670   6.947   6.560   2.547
10598TIP3    H131671   7.006   6.532   2.618
10598TIP3    H231672   6.946   6.656   2.552
10599TIP3   OH231673   6.676   6.247   2.754
10599TIP3    H131674   6.613   6.296   2.807
10599TIP3    H231675   6.697   6.306   2.682
10600TIP3   OH231676   7.845   5.881   3.633
10600TIP3    H131677   7.924   5.924   3.666
10600TIP3    H231678   7.834   5.805   3.689
10601TIP3   OH231679   7.735   5.623   2.819
10601TIP3    H131680   7.713   5.642   2.727
10601TIP3    H231681   7.778   5.703   2.850
10602TIP3   OH231682   7.216   6.742   2.480
10602TIP3    H131683   7.132   6.766   2.519
10602TIP3    H231684   7.239   6.818   2.427
10603TIP3   OH231685   7.392   5.821   2.901
10603TIP3    H131686   7.453   5.891   2.879
10603TIP3    H231687   7.409   5.801   2.993
10604TIP3   OH231688   7.685   6.119   3.680
10604TIP3    H131689   7.707   6.161   3.763
10604TIP3    H231690   7.734   6.037   3.681
10605TIP3   OH231691   7.547   5.519   2.994
10605TIP3    H131692   7.523   5.596   3.045
10605TIP3    H231693   7.617   5.550   2.936
10606TIP3   OH231694   6.967   6.834   2.558
10606TIP3    H131695   6.945   6.905   2.498
10606TIP3    H231696   6.956   6.871   2.646
10607TIP3   OH231697   7.061   5.542   2.802
10607TIP3    H131698   7.047   5.631   2.832
10607TIP3    H231699   7.155   5.528   2.808
10608TIP3   OH231700   8.301   6.015   3.674
10608TIP3    H131701   8.206   6.025   3.686
10608TIP3    H231702   8.309   5.957   3.599
10609TIP3   OH231703   7.964   6.219   3.057
10609TIP3    H131704   7.886   6.164   3.067
10609TIP3    H231705   8.029   6.178   3.114
10610TIP3   OH231706   6.703   6.425   2.537
10610TIP3    H131707   6.776   6.487   2.548
10610TIP3    H231708   6.736   6.361   2.474
10611TIP3   OH231709   6.598   5.720   2.670
10611TIP3    H131710   6.618   5.814   2.678
10611TIP3    H231711   6.512   5.718   2.626
10612TIP3   OH231712   7.942   7.197   3.001
10612TIP3    H131713   7.901   7.248   2.932
10612TIP3    H231714   8.036   7.207   2.987
10613TIP3   OH231715   7.010   5.454   3.518
10613TIP3    H131716   6.982   5.423   3.432
10613TIP3    H231717   6.997   5.379   3.576
10614TIP3   OH231718   6.533   6.704   2.925
10614TIP3    H131719   6.482   6.733   3.002
10614TIP3    H231720   6.488   6.744   2.851
10615TIP3   OH231721   6.738   7.244   3.996
10615TIP3    H131722   6.821   7.249   4.043
10615TIP3    H231723   6.725   7.151   3.980
10616TIP3   OH231724   7.200   7.140   4.040
10616TIP3    H131725   7.291   7.111   4.049
10616TIP3    H231726   7.165   7.087   3.968
10617TIP3   OH231727   7.157   6.742   2.165
10617TIP3    H131728   7.110   6.673   2.212
10617TIP3    H231729   7.233   6.698   2.126
10618TIP3   OH231730   7.818   7.082   3.801
10618TIP3    H131731   7.834   7.012   3.865
10618TIP3    H231732   7.892   7.142   3.813
10619TIP3   OH231733   7.595   6.781   2.101
10619TIP3    H131734   7.625   6.714   2.164
10619TIP3    H231735   7.660   6.779   2.031
10620TIP3   OH231736   6.833   6.645   4.185
10620TIP3    H131737   6.855   6.553   4.197
10620TIP3    H231738   6.748   6.644   4.141
10621TIP3   OH231739   6.828   6.235   2.386
10621TIP3    H131740   6.875   6.209   2.464
10621TIP3    H231741   6.896   6.249   2.320
10622TIP3   OH231742   7.456   6.715   3.965
10622TIP3    H131743   7.411   6.735   3.884
10622TIP3    H231744   7.490   6.626   3.953
10623TIP3   OH231745   7.385   6.454   2.220
10623TIP3    H131746   7.366   6.465   2.313
10623TIP3    H231747   7.369   6.362   2.202
10624TIP3   OH231748   7.936   6.763   3.587
10624TIP3    H131749   8.012   6.790   3.536
10624TIP3    H231750   7.869   6.829   3.568
10625TIP3   OH231751   6.944   6.394   4.194
10625TIP3    H131752   7.013   6.358   4.138
10625TIP3    H231753   6.984   6.401   4.280
10626TIP3   OH231754   6.994   6.175   2.603
10626TIP3    H131755   6.972   6.150   2.692
10626TIP3    H231756   7.042   6.100   2.568
10627TIP3   OH231757   7.320   6.267   3.862
10627TIP3    H131758   7.230   6.300   3.870
10627TIP3    H231759   7.347   6.294   3.774
10628TIP3   OH231760   7.140   5.995   2.441
10628TIP3    H131761   7.111   6.000   2.350
10628TIP3    H231762   7.236   6.004   2.436
10629TIP3   OH231763   7.816   6.636   3.938
10629TIP3    H131764   7.880   6.594   3.881
10629TIP3    H231765   7.811   6.578   4.014
10630TIP3   OH231766   7.935   6.288   2.119
10630TIP3    H131767   7.920   6.245   2.035
10630TIP3    H231768   7.908   6.378   2.106
10631TIP3   OH231769   7.428   6.035   3.959
10631TIP3    H131770   7.424   5.964   3.894
10631TIP3    H231771   7.389   6.110   3.914
10632TIP3   OH231772   7.433   5.831   3.765
10632TIP3    H131773   7.456   5.864   3.678
10632TIP3    H231774   7.342   5.803   3.757
10633TIP3   OH231775   7.433   6.363   3.634
10633TIP3    H131776   7.520   6.395   3.609
10633TIP3    H231777   7.372   6.417   3.583
10634TIP3   OH231778   8.024   6.321   4.003
10634TIP3    H131779   8.069   6.236   4.005
10634TIP3    H231780   8.094   6.385   3.992
10635TIP3   OH231781   8.051   6.580   3.750
10635TIP3    H131782   7.999   6.644   3.701
10635TIP3    H231783   8.141   6.594   3.719
10636TIP3   OH231784   7.309   6.121   4.204
10636TIP3    H131785   7.236   6.064   4.225
10636TIP3    H231786   7.333   6.099   4.114
10637TIP3   OH231787   7.555   5.612   3.889
10637TIP3    H131788   7.521   5.697   3.859
10637TIP3    H231789   7.487   5.549   3.863
10638TIP3   OH231790   7.678   6.069   4.065
10638TIP3    H131791   7.661   6.066   4.159
10638TIP3    H231792   7.593   6.053   4.024
10639TIP3   OH231793   7.924   6.029   3.937
10639TIP3    H131794   7.845   6.029   3.991
10639TIP3    H231795   7.994   6.001   3.997
10640TIP3   OH231796   8.158   5.983   4.085
10640TIP3    H131797   8.167   5.888   4.093
10640TIP3    H231798   8.151   6.014   4.175
10641TIP3   OH231799   7.138   5.908   4.265
10641TIP3    H131800   7.141   5.818   4.231
10641TIP3    H231801   7.178   5.902   4.352
10642TIP3   OH231802   7.687   5.793   4.232
10642TIP3    H131803   7.668   5.772   4.141
10642TIP3    H231804   7.625   5.863   4.254
10643TIP3   OH231805   6.960   7.045   2.376
10643TIP3    H131806   7.049   7.022   2.350
10643TIP3    H231807   6.924   7.091   2.300
10644TIP3   OH231808   6.430   6.431   2.530
10644TIP3    H131809   6.524   6.438   2.539
10644TIP3    H231810   6.415   6.341   2.501
10645TIP3   OH231811   6.330   7.008   3.019
10645TIP3    H131812   6.266   6.953   2.973
10645TIP3    H231813   6.374   6.948   3.079
10646TIP3   OH231814   6.472   6.842   3.189
10646TIP3    H131815   6.468   6.768   3.250
10646TIP3    H231816   6.524   6.907   3.235
10647TIP3   OH231817   8.214   7.241   2.992
10647TIP3    H131818   8.233   7.271   3.081
10647TIP3    H231819   8.270   7.296   2.937
10648TIP3   OH231820   8.228   7.278   3.273
10648TIP3    H131821   8.182   7.194   3.268
10648TIP3    H231822   8.299   7.263   3.336
10649TIP3   OH231823   8.291   6.976   3.844
10649TIP3    H131824   8.217   6.985   3.904
10649TIP3    H231825   8.337   7.060   3.849
10650TIP3   OH231826   8.112   6.491   2.452
10650TIP3    H131827   8.169   6.562   2.425
10650TIP3    H231828   8.155   6.452   2.528
10651TIP3   OH231829   8.237   6.350   2.654
10651TIP3    H131830   8.170   6.312   2.711
10651TIP3    H231831   8.301   6.387   2.714
10652TIP3   OH231832   8.282   6.753   3.090
10652TIP3    H131833   8.333   6.683   3.047
10652TIP3    H231834   8.284   6.825   3.028
10653TIP3   OH231835   8.092   7.035   3.280
10653TIP3    H131836   8.024   7.081   3.331
10653TIP3    H231837   8.044   6.995   3.208
10654TIP3   OH231838   8.143   6.266   2.298
10654TIP3    H131839   8.070   6.266   2.235
10654TIP3    H231840   8.129   6.344   2.352
10655TIP3   OH231841   7.996   5.917   2.240
10655TIP3    H131842   7.940   5.950   2.170
10655TIP3    H231843   7.989   5.822   2.232
10656TIP3   OH231844   8.034   6.210   2.789
10656TIP3    H131845   8.037   6.116   2.774
10656TIP3    H231846   8.014   6.219   2.882
10657TIP3   OH231847   6.662   6.279   3.566
10657TIP3    H131848   6.653   6.231   3.483
10657TIP3    H231849   6.756   6.280   3.583
10658TIP3   OH231850   8.306   6.626   3.651
10658TIP3    H131851   8.375   6.562   3.634
10658TIP3    H231852   8.307   6.683   3.574
10659TIP3   OH231853   8.487   6.418   3.644
10659TIP3    H131854   8.412   6.377   3.687
10659TIP3    H231855   8.561   6.362   3.667
10660TIP3   OH231856   7.957   5.647   2.216
10660TIP3    H131857   8.023   5.617   2.278
10660TIP3    H231858   7.876   5.605   2.244
10661TIP3   OH231859   8.025   5.934   2.676
10661TIP3    H131860   8.070   5.850   2.688
10661TIP3    H231861   8.066   5.972   2.599
10662TIP3   OH231862   8.176   6.096   3.201
10662TIP3    H131863   8.257   6.115   3.153
10662TIP3    H231864   8.189   6.137   3.286
10663TIP3   OH231865   8.246   6.250   3.427
10663TIP3    H131866   8.174   6.279   3.482
10663TIP3    H231867   8.277   6.330   3.384
10664TIP3   OH231868   6.881   5.998   4.278
10664TIP3    H131869   6.971   5.969   4.267
10664TIP3    H231870   6.836   5.924   4.318
10665TIP3   OH231871   8.710   5.842   3.972
10665TIP3    H131872   8.770   5.784   3.926
10665TIP3    H231873   8.671   5.895   3.903
10666TIP3   OH231874   8.140   5.684   2.728
10666TIP3    H131875   8.184   5.669   2.811
10666TIP3    H231876   8.077   5.612   2.720
10667TIP3   OH231877   6.845   5.677   3.560
10667TIP3    H131878   6.898   5.598   3.551
10667TIP3    H231879   6.904   5.749   3.538
10668TIP3   OH231880   6.610   5.948   3.574
10668TIP3    H131881   6.614   5.980   3.484
10668TIP3    H231882   6.682   5.991   3.619
10669TIP3   OH231883   8.561   5.958   3.777
10669TIP3    H131884   8.479   5.999   3.804
10669TIP3    H231885   8.534   5.886   3.720
10670TIP3   OH231886   8.186   5.596   2.368
10670TIP3    H131887   8.232   5.536   2.310
10670TIP3    H231888   8.241   5.674   2.371
10671TIP3   OH231889   6.605   5.394   3.092
10671TIP3    H131890   6.535   5.408   3.156
10671TIP3    H231891   6.599   5.470   3.033
10672TIP3   OH231892   7.773   7.163   2.633
10672TIP3    H131893   7.829   7.152   2.557
10672TIP3    H231894   7.815   7.232   2.684
10673TIP3   OH231895   6.809   5.462   3.929
10673TIP3    H131896   6.740   5.449   3.994
10673TIP3    H231897   6.773   5.528   3.869
10674TIP3   OH231898   6.865   6.962   4.008
10674TIP3    H131899   6.773   6.939   4.003
10674TIP3    H231900   6.892   6.936   4.097
10675TIP3   OH231901   7.075   7.002   3.564
10675TIP3    H131902   7.025   7.077   3.533
10675TIP3    H231903   7.160   7.009   3.521
10676TIP3   OH231904   7.473   7.233   3.704
10676TIP3    H131905   7.512   7.225   3.791
10676TIP3    H231906   7.534   7.287   3.655
10677TIP3   OH231907   7.662   7.387   3.573
10677TIP3    H131908   7.722   7.333   3.521
10677TIP3    H231909   7.719   7.442   3.627
10678TIP3   OH231910   8.470   5.712   3.666
10678TIP3    H131911   8.382   5.702   3.630
10678TIP3    H231912   8.508   5.624   3.660
10679TIP3   OH231913   6.730   7.261   3.610
10679TIP3    H131914   6.639   7.283   3.591
10679TIP3    H231915   6.755   7.320   3.681
10680TIP3   OH231916   6.963   7.232   3.464
10680TIP3    H131917   6.880   7.240   3.510
10680TIP3    H231918   6.943   7.255   3.373
10681TIP3   OH231919   7.385   7.239   3.247
10681TIP3    H131920   7.313   7.250   3.185
10681TIP3    H231921   7.394   7.325   3.289
10682TIP3   OH231922   7.649   7.185   3.305
10682TIP3    H131923   7.558   7.201   3.282
10682TIP3    H231924   7.699   7.251   3.257
10683TIP3   OH231925   7.848   7.358   3.205
10683TIP3    H131926   7.843   7.445   3.166
10683TIP3    H231927   7.880   7.301   3.134
10684TIP3   OH231928   6.648   7.014   3.339
10684TIP3    H131929   6.674   6.984   3.426
10684TIP3    H231930   6.718   6.983   3.281
10685TIP3   OH231931   6.851   6.904   3.194
10685TIP3    H131932   6.861   6.818   3.235
10685TIP3    H231933   6.938   6.943   3.197
10686TIP3   OH231934   7.119   6.992   3.214
10686TIP3    H131935   7.137   6.899   3.197
10686TIP3    H231936   7.173   7.014   3.289
10687TIP3   OH231937   7.686   5.639   3.302
10687TIP3    H131938   7.642   5.568   3.349
10687TIP3    H231939   7.753   5.595   3.249
10688TIP3   OH231940   8.185   5.554   3.190
10688TIP3    H131941   8.220   5.604   3.116
10688TIP3    H231942   8.091   5.574   3.189
10689TIP3   OH231943   8.297   5.630   2.950
10689TIP3    H131944   8.366   5.570   2.923
10689TIP3    H231945   8.334   5.717   2.937
10690TIP3   OH231946   6.925   5.327   3.288
10690TIP3    H131947   6.835   5.297   3.297
10690TIP3    H231948   6.978   5.247   3.288
10691TIP3   OH231949   6.732   5.218   2.923
10691TIP3    H131950   6.765   5.274   2.853
10691TIP3    H231951   6.692   5.278   2.985
10692TIP3   OH231952   7.405   5.374   3.192
10692TIP3    H131953   7.449   5.425   3.124
10692TIP3    H231954   7.440   5.409   3.274
10693TIP3   OH231955   7.897   5.515   3.172
10693TIP3    H131956   7.910   5.478   3.084
10693TIP3    H231957   7.905   5.440   3.231
10694TIP3   OH231958   7.955   5.473   2.735
10694TIP3    H131959   7.875   5.520   2.760
10694TIP3    H231960   7.944   5.386   2.773
10695TIP3   OH231961   6.413   6.819   2.705
10695TIP3    H131962   6.329   6.786   2.673
10695TIP3    H231963   6.416   6.910   2.676
10696TIP3   OH231964   6.851   5.373   2.710
10696TIP3    H131965   6.899   5.316   2.650
10696TIP3    H231966   6.918   5.430   2.747
10697TIP3   OH231967   7.337   5.569   2.808
10697TIP3    H131968   7.395   5.517   2.863
10697TIP3    H231969   7.352   5.660   2.836
10698TIP3   OH231970   7.213   6.967   2.309
10698TIP3    H131971   7.298   6.993   2.273
10698TIP3    H231972   7.184   6.895   2.253
10699TIP3   OH231973   7.923   7.113   2.403
10699TIP3    H131974   7.914   7.018   2.398
10699TIP3    H231975   7.877   7.146   2.326
10700TIP3   OH231976   7.152   5.642   4.198
10700TIP3    H131977   7.102   5.568   4.230
10700TIP3    H231978   7.241   5.627   4.231
10701TIP3   OH231979   7.406   5.619   4.332
10701TIP3    H131980   7.501   5.628   4.343
10701TIP3    H231981   7.379   5.564   4.405
10702TIP3   OH231982   6.527   6.810   2.365
10702TIP3    H131983   6.526   6.814   2.461
10702TIP3    H231984   6.608   6.764   2.344
10703TIP3   OH231985   8.211   5.707   4.088
10703TIP3    H131986   8.231   5.680   4.178
10703TIP3    H231987   8.295   5.707   4.043
10704TIP3   OH231988   8.137   7.250   3.594
10704TIP3    H131989   8.063   7.219   3.541
10704TIP3    H231990   8.123   7.344   3.601
10705TIP3   OH231991   9.412   6.623   2.334
10705TIP3    H131992   9.388   6.712   2.309
10705TIP3    H231993   9.347   6.567   2.291
10706TIP3   OH231994   9.307   6.606   2.748
10706TIP3    H131995   9.361   6.600   2.826
10706TIP3    H231996   9.340   6.537   2.690
10707TIP3   OH231997   8.706   6.494   3.103
10707TIP3    H131998   8.745   6.444   3.175
10707TIP3    H231999   8.781   6.520   3.049
10708TIP3   OH232000   8.693   6.916   2.792
10708TIP3    H132001   8.676   6.822   2.798
10708TIP3    H232002   8.788   6.923   2.783
10709TIP3   OH232003   8.382   6.124   2.569
10709TIP3    H132004   8.344   6.208   2.596
10709TIP3    H232005   8.309   6.076   2.530
10710TIP3   OH232006   8.465   6.439   2.794
10710TIP3    H132007   8.514   6.360   2.819
10710TIP3    H232008   8.532   6.503   2.772
10711TIP3   OH232009   9.300   7.394   2.476
10711TIP3    H132010   9.314   7.300   2.483
10711TIP3    H232011   9.263   7.418   2.561
10712TIP3   OH232012   9.198   6.859   2.759
10712TIP3    H132013   9.227   6.771   2.738
10712TIP3    H232014   9.278   6.906   2.783
10713TIP3   OH232015   9.591   6.481   2.772
10713TIP3    H132016   9.654   6.409   2.776
10713TIP3    H232017   9.583   6.502   2.679
10714TIP3   OH232018   8.944   5.990   2.766
10714TIP3    H132019   8.924   6.065   2.709
10714TIP3    H232020   8.892   5.918   2.730
10715TIP3   OH232021   9.703   6.042   2.395
10715TIP3    H132022   9.743   6.030   2.481
10715TIP3    H232023   9.700   6.137   2.383
10716TIP3   OH232024   8.598   6.214   2.885
10716TIP3    H132025   8.679   6.194   2.931
10716TIP3    H232026   8.598   6.157   2.808
10717TIP3   OH232027   9.004   6.399   2.710
10717TIP3    H132028   9.092   6.366   2.728
10717TIP3    H232029   8.957   6.324   2.674
10718TIP3   OH232030   8.936   6.021   3.228
10718TIP3    H132031   8.890   6.059   3.154
10718TIP3    H232032   8.881   6.041   3.304
10719TIP3   OH232033   9.301   6.844   2.216
10719TIP3    H132034   9.266   6.824   2.130
10719TIP3    H232035   9.256   6.924   2.243
10720TIP3   OH232036   9.051   6.781   2.978
10720TIP3    H132037   8.996   6.851   3.013
10720TIP3    H232038   9.096   6.820   2.903
10721TIP3   OH232039   8.837   6.111   2.987
10721TIP3    H132040   8.893   6.186   3.004
10721TIP3    H232041   8.880   6.064   2.916
10722TIP3   OH232042   8.896   6.982   3.082
10722TIP3    H132043   8.885   7.072   3.051
10722TIP3    H232044   8.818   6.964   3.134
10723TIP3   OH232045   8.282   6.682   2.342
10723TIP3    H132046   8.246   6.704   2.256
10723TIP3    H232047   8.307   6.766   2.380
10724TIP3   OH232048   9.212   5.728   2.913
10724TIP3    H132049   9.225   5.644   2.957
10724TIP3    H232050   9.145   5.772   2.966
10725TIP3   OH232051   9.445   7.200   2.247
10725TIP3    H132052   9.523   7.167   2.292
10725TIP3    H232053   9.457   7.295   2.247
10726TIP3   OH232054   9.232   6.489   2.170
10726TIP3    H132055   9.144   6.526   2.171
10726TIP3    H232056   9.267   6.514   2.084
10727TIP3   OH232057   9.227   6.291   1.914
10727TIP3    H132058   9.294   6.338   1.964
10727TIP3    H232059   9.276   6.232   1.857
10728TIP3   OH232060   8.821   6.544   2.554
10728TIP3    H132061   8.783   6.482   2.492
10728TIP3    H232062   8.893   6.496   2.596
10729TIP3   OH232063   8.952   6.970   2.698
10729TIP3    H132064   8.931   6.954   2.606
10729TIP3    H232065   9.040   6.934   2.709
10730TIP3   OH232066   8.918   6.547   2.927
10730TIP3    H132067   8.956   6.508   2.848
10730TIP3    H232068   8.969   6.626   2.942
10731TIP3   OH232069   9.407   7.214   2.726
10731TIP3    H132070   9.487   7.246   2.768
10731TIP3    H232071   9.399   7.123   2.755
10732TIP3   OH232072   9.099   7.075   3.247
10732TIP3    H132073   9.041   7.135   3.292
10732TIP3    H232074   9.042   7.024   3.189
10733TIP3   OH232075   9.456   6.445   1.980
10733TIP3    H132076   9.496   6.512   2.036
10733TIP3    H232077   9.469   6.477   1.891
10734TIP3   OH232078   8.849   6.619   3.396
10734TIP3    H132079   8.855   6.713   3.413
10734TIP3    H232080   8.755   6.602   3.390
10735TIP3   OH232081   9.187   7.096   2.266
10735TIP3    H132082   9.275   7.134   2.266
10735TIP3    H232083   9.133   7.161   2.223
10736TIP3   OH232084   8.889   7.234   3.333
10736TIP3    H132085   8.866   7.246   3.241
10736TIP3    H232086   8.806   7.219   3.377
10737TIP3   OH232087   8.693   6.380   2.361
10737TIP3    H132088   8.615   6.427   2.331
10737TIP3    H232089   8.662   6.291   2.376
10738TIP3   OH232090   8.483   6.790   3.285
10738TIP3    H132091   8.413   6.773   3.222
10738TIP3    H232092   8.517   6.704   3.307
10739TIP3   OH232093   8.326   6.986   2.935
10739TIP3    H132094   8.419   7.007   2.949
10739TIP3    H232095   8.279   7.063   2.966
10740TIP3   OH232096   9.300   7.203   3.107
10740TIP3    H132097   9.289   7.294   3.134
10740TIP3    H232098   9.233   7.156   3.156
10741TIP3   OH232099   9.080   7.311   2.103
10741TIP3    H132100   9.036   7.290   2.021
10741TIP3    H232101   9.048   7.398   2.126
10742TIP3   OH232102   8.496   7.176   2.449
10742TIP3    H132103   8.544   7.169   2.531
10742TIP3    H232104   8.451   7.092   2.440
10743TIP3   OH232105   9.285   7.253   1.740
10743TIP3    H132106   9.284   7.168   1.696
10743TIP3    H232107   9.315   7.234   1.829
10744TIP3   OH232108   9.319   7.212   2.002
10744TIP3    H132109   9.240   7.249   2.041
10744TIP3    H232110   9.376   7.193   2.077
10745TIP3   OH232111   8.680   6.981   3.253
10745TIP3    H132112   8.732   6.966   3.332
10745TIP3    H232113   8.609   6.917   3.259
10746TIP3   OH232114   9.016   5.802   3.088
10746TIP3    H132115   8.932   5.768   3.057
10746TIP3    H232116   8.994   5.881   3.137
10747TIP3   OH232117   9.659   5.881   3.303
10747TIP3    H132118   9.746   5.850   3.278
10747TIP3    H232119   9.600   5.811   3.277
10748TIP3   OH232120   9.246   5.807   2.058
10748TIP3    H132121   9.184   5.822   2.130
10748TIP3    H232122   9.213   5.729   2.014
10749TIP3   OH232123   8.986   6.323   3.074
10749TIP3    H132124   8.943   6.333   3.159
10749TIP3    H232125   8.968   6.405   3.029
10750TIP3   OH232126   8.860   6.194   2.603
10750TIP3    H132127   8.772   6.167   2.628
10750TIP3    H232128   8.871   6.160   2.514
10751TIP3   OH232129   9.337   6.255   2.280
10751TIP3    H132130   9.299   6.335   2.243
10751TIP3    H232131   9.399   6.225   2.214
10752TIP3   OH232132   9.521   6.555   3.402
10752TIP3    H132133   9.506   6.492   3.472
10752TIP3    H232134   9.601   6.525   3.359
10753TIP3   OH232135   9.399   6.364   2.577
10753TIP3    H132136   9.404   6.416   2.496
10753TIP3    H232137   9.425   6.276   2.549
10754TIP3   OH232138   8.837   6.342   3.303
10754TIP3    H132139   8.849   6.412   3.367
10754TIP3    H232140   8.816   6.265   3.355
10755TIP3   OH232141   8.888   5.821   2.009
10755TIP3    H132142   8.865   5.819   2.102
10755TIP3    H232143   8.811   5.858   1.966
10756TIP3   OH232144   8.424   5.855   2.873
10756TIP3    H132145   8.493   5.895   2.925
10756TIP3    H232146   8.464   5.838   2.788
10757TIP3   OH232147   8.337   5.830   2.380
10757TIP3    H132148   8.382   5.865   2.304
10757TIP3    H232149   8.273   5.897   2.404
10758TIP3   OH232150   9.478   6.609   2.988
10758TIP3    H132151   9.533   6.602   2.910
10758TIP3    H232152   9.496   6.528   3.037
10759TIP3   OH232153   9.196   6.018   2.661
10759TIP3    H132154   9.116   5.992   2.708
10759TIP3    H232155   9.223   6.099   2.702
10760TIP3   OH232156   8.631   6.058   2.663
10760TIP3    H132157   8.546   6.068   2.621
10760TIP3    H232158   8.660   5.971   2.638
10761TIP3   OH232159   8.868   6.066   2.363
10761TIP3    H132160   8.962   6.081   2.353
10761TIP3    H232161   8.832   6.088   2.277
10762TIP3   OH232162   9.497   6.079   2.899
10762TIP3    H132163   9.473   6.061   2.990
10762TIP3    H232164   9.475   5.998   2.852
10763TIP3   OH232165   8.768   6.107   2.116
10763TIP3    H132166   8.713   6.054   2.059
10763TIP3    H232167   8.835   6.144   2.058
10764TIP3   OH232168   8.837   6.887   3.484
10764TIP3    H132169   8.918   6.909   3.531
10764TIP3    H232170   8.768   6.897   3.550
10765TIP3   OH232171   9.237   6.262   2.774
10765TIP3    H132172   9.310   6.303   2.728
10765TIP3    H232173   9.266   6.254   2.864
10766TIP3   OH232174   8.777   5.814   2.632
10766TIP3    H132175   8.749   5.739   2.684
10766TIP3    H232176   8.808   5.777   2.550
10767TIP3   OH232177   9.244   6.245   3.050
10767TIP3    H132178   9.155   6.280   3.051
10767TIP3    H232179   9.291   6.299   3.114
10768TIP3   OH232180   8.987   6.615   2.131
10768TIP3    H132181   8.915   6.555   2.113
10768TIP3    H232182   8.966   6.654   2.215
10769TIP3   OH232183   9.446   5.953   1.931
10769TIP3    H132184   9.373   5.906   1.971
10769TIP3    H232185   9.463   6.026   1.990
10770TIP3   OH232186   9.467   6.942   3.150
10770TIP3    H132187   9.484   6.924   3.242
10770TIP3    H232188   9.421   7.026   3.150
10771TIP3   OH232189   9.525   6.186   2.073
10771TIP3    H132190   9.616   6.162   2.058
10771TIP3    H232191   9.515   6.272   2.032
10772TIP3   OH232192   8.687   6.627   2.781
10772TIP3    H132193   8.725   6.609   2.695
10772TIP3    H232194   8.754   6.601   2.843
10773TIP3   OH232195   9.162   6.764   1.983
10773TIP3    H132196   9.119   6.849   1.982
10773TIP3    H232197   9.101   6.707   2.029
10774TIP3   OH232198   8.576   6.554   3.414
10774TIP3    H132199   8.575   6.527   3.506
10774TIP3    H232200   8.501   6.509   3.375
10775TIP3   OH232201   9.298   6.709   3.439
10775TIP3    H132202   9.232   6.648   3.406
10775TIP3    H232203   9.381   6.671   3.412
10776TIP3   OH232204   9.564   7.217   3.013
10776TIP3    H132205   9.470   7.208   3.025
10776TIP3    H232206   9.594   7.267   3.089
10777TIP3   OH232207   8.817   6.965   2.456
10777TIP3    H132208   8.814   7.045   2.404
10777TIP3    H232209   8.727   6.952   2.485
10778TIP3   OH232210   8.379   6.255   2.156
10778TIP3    H132211   8.423   6.336   2.181
10778TIP3    H232212   8.299   6.254   2.209
10779TIP3   OH232213   8.903   6.723   2.360
10779TIP3    H132214   8.887   6.813   2.389
10779TIP3    H232215   8.877   6.668   2.434
10780TIP3   OH232216   9.111   7.283   2.901
10780TIP3    H132217   9.152   7.343   2.839
10780TIP3    H232218   9.184   7.243   2.948
10781TIP3   OH232219   8.738   7.192   2.321
10781TIP3    H132220   8.648   7.201   2.353
10781TIP3    H232221   8.770   7.282   2.315
10782TIP3   OH232222   9.434   6.962   2.859
10782TIP3    H132223   9.429   6.942   2.953
10782TIP3    H232224   9.528   6.969   2.841
10783TIP3   OH232225   8.775   6.093   3.433
10783TIP3    H132226   8.680   6.103   3.434
10783TIP3    H232227   8.793   6.034   3.506
10784TIP3   OH232228   8.531   7.191   3.064
10784TIP3    H132229   8.582   7.131   3.119
10784TIP3    H232230   8.545   7.277   3.102
10785TIP3   OH232231   8.762   6.798   1.779
10785TIP3    H132232   8.819   6.724   1.755
10785TIP3    H232233   8.756   6.794   1.874
10786TIP3   OH232234   8.746   6.800   2.053
10786TIP3    H132235   8.821   6.765   2.101
10786TIP3    H232236   8.749   6.895   2.069
10787TIP3   OH232237   8.473   6.503   2.245
10787TIP3    H132238   8.409   6.550   2.299
10787TIP3    H232239   8.494   6.564   2.174
10788TIP3   OH232240   9.705   6.147   3.195
10788TIP3    H132241   9.686   6.063   3.238
10788TIP3    H232242   9.763   6.124   3.123
10789TIP3   OH232243   9.401   5.930   2.261
10789TIP3    H132244   9.353   5.885   2.192
10789TIP3    H232245   9.493   5.917   2.240
10790TIP3   OH232246   9.015   6.988   1.994
10790TIP3    H132247   8.932   7.012   2.035
10790TIP3    H232248   9.046   7.069   1.953
10791TIP3   OH232249   9.139   6.100   2.392
10791TIP3    H132250   9.202   6.160   2.353
10791TIP3    H232251   9.165   6.093   2.484
10792TIP3   OH232252   9.392   6.363   3.245
10792TIP3    H132253   9.415   6.441   3.295
10792TIP3    H232254   9.463   6.354   3.181
10793TIP3   OH232255   9.318   5.830   2.509
10793TIP3    H132256   9.278   5.900   2.560
10793TIP3    H232257   9.360   5.874   2.435
10794TIP3   OH232258   8.767   7.069   2.082
10794TIP3    H132259   8.757   7.144   2.024
10794TIP3    H232260   8.758   7.105   2.170
10795TIP3   OH232261   8.842   5.796   2.286
10795TIP3    H132262   8.819   5.882   2.320
10795TIP3    H232263   8.938   5.792   2.293
10796TIP3   OH232264   8.494   6.689   2.036
10796TIP3    H132265   8.568   6.747   2.054
10796TIP3    H232266   8.527   6.627   1.971
10797TIP3   OH232267   8.405   5.976   2.161
10797TIP3    H132268   8.417   6.071   2.165
10797TIP3    H232269   8.354   5.961   2.082
10798TIP3   OH232270   8.770   5.700   3.028
10798TIP3    H132271   8.750   5.665   2.941
10798TIP3    H232272   8.763   5.624   3.087
10799TIP3   OH232273   8.333   6.947   2.428
10799TIP3    H132274   8.288   6.985   2.503
10799TIP3    H232275   8.290   6.985   2.351
10800TIP3   OH232276   8.530   7.490   3.489
10800TIP3    H132277   8.613   7.493   3.537
10800TIP3    H232278   8.512   7.397   3.476
10801TIP3   OH232279   8.994   7.397   3.527
10801TIP3    H132280   9.086   7.372   3.534
10801TIP3    H232281   8.960   7.344   3.455
10802TIP3   OH232282   8.947   6.990   1.682
10802TIP3    H132283   8.871   6.944   1.716
10802TIP3    H232284   9.016   6.924   1.679
10803TIP3   OH232285   9.623   7.320   3.265
10803TIP3    H132286   9.599   7.253   3.329
10803TIP3    H232287   9.719   7.321   3.267
10804TIP3   OH232288   8.632   6.893   3.675
10804TIP3    H132289   8.649   6.799   3.687
10804TIP3    H232290   8.546   6.896   3.634
10805TIP3   OH232291   8.624   6.498   1.893
10805TIP3    H132292   8.669   6.468   1.972
10805TIP3    H232293   8.695   6.517   1.831
10806TIP3   OH232294   9.253   6.982   3.453
10806TIP3    H132295   9.207   7.004   3.373
10806TIP3    H232296   9.279   6.890   3.442
10807TIP3   OH232297   9.079   6.740   1.714
10807TIP3    H132298   9.125   6.757   1.797
10807TIP3    H232299   9.088   6.646   1.700
10808TIP3   OH232300   8.747   6.637   3.685
10808TIP3    H132301   8.821   6.618   3.628
10808TIP3    H232302   8.787   6.655   3.770
10809TIP3   OH232303   8.790   6.426   2.101
10809TIP3    H132304   8.766   6.400   2.190
10809TIP3    H232305   8.845   6.355   2.069
10810TIP3   OH232306   9.111   6.522   3.340
10810TIP3    H132307   9.024   6.562   3.346
10810TIP3    H232308   9.144   6.551   3.255
10811TIP3   OH232309   8.957   6.245   1.973
10811TIP3    H132310   8.930   6.244   1.881
10811TIP3    H232311   9.053   6.256   1.969
10812TIP3   OH232312   9.589   6.889   3.432
10812TIP3    H132313   9.679   6.915   3.452
10812TIP3    H232314   9.567   6.828   3.502
10813TIP3   OH232315   9.179   6.283   3.456
10813TIP3    H132316   9.193   6.213   3.392
10813TIP3    H232317   9.159   6.360   3.403
10814TIP3   OH232318   9.200   6.072   3.259
10814TIP3    H132319   9.216   6.126   3.182
10814TIP3    H232320   9.107   6.051   3.255
10815TIP3   OH232321   9.228   6.623   3.117
10815TIP3    H132322   9.314   6.635   3.077
10815TIP3    H232323   9.171   6.683   3.069
10816TIP3   OH232324   0.077   6.654   3.597
10816TIP3    H132325   0.073   6.560   3.580
10816TIP3    H232326   0.058   6.694   3.512
10817TIP3   OH232327   9.078   6.373   3.699
10817TIP3    H132328   9.010   6.310   3.721
10817TIP3    H232329   9.105   6.349   3.610
10818TIP3   OH232330   9.299   5.835   3.373
10818TIP3    H132331   9.258   5.915   3.339
10818TIP3    H232332   9.239   5.765   3.346
10819TIP3   OH232333   9.430   6.343   3.553
10819TIP3    H132334   9.408   6.328   3.645
10819TIP3    H232335   9.349   6.323   3.506
10820TIP3   OH232336   9.642   6.186   3.490
10820TIP3    H132337   9.561   6.236   3.502
10820TIP3    H232338   9.675   6.214   3.405
10821TIP3   OH232339   0.107   6.117   3.604
10821TIP3    H132340   0.159   6.062   3.545
10821TIP3    H232341   0.147   6.204   3.597
10822TIP3   OH232342   8.917   6.151   3.757
10822TIP3    H132343   8.922   6.064   3.718
10822TIP3    H232344   8.955   6.140   3.844
10823TIP3   OH232345   9.359   5.792   3.632
10823TIP3    H132346   9.428   5.725   3.627
10823TIP3    H232347   9.335   5.808   3.541
10824TIP3   OH232348   9.449   6.041   3.717
10824TIP3    H132349   9.406   5.961   3.688
10824TIP3    H232350   9.377   6.103   3.731
10825TIP3   OH232351   8.774   7.292   1.931
10825TIP3    H132352   8.857   7.290   1.882
10825TIP3    H232353   8.714   7.341   1.875
10826TIP3   OH232354   8.222   6.681   2.057
10826TIP3    H132355   8.317   6.692   2.053
10826TIP3    H232356   8.207   6.590   2.029
10827TIP3   OH232357   8.129   7.263   2.501
10827TIP3    H132358   8.062   7.210   2.457
10827TIP3    H232359   8.172   7.202   2.561
10828TIP3   OH232360   8.270   7.094   2.670
10828TIP3    H132361   8.261   7.026   2.737
10828TIP3    H232362   8.323   7.162   2.712
10829TIP3   OH232363   8.443   6.527   3.051
10829TIP3    H132364   8.434   6.498   2.961
10829TIP3    H232365   8.537   6.525   3.068
10830TIP3   OH232366   8.655   6.208   3.701
10830TIP3    H132367   8.749   6.205   3.715
10830TIP3    H232368   8.622   6.126   3.738
10831TIP3   OH232369   8.626   5.933   3.049
10831TIP3    H132370   8.674   5.850   3.051
10831TIP3    H232371   8.693   5.999   3.032
10832TIP3   OH232372   8.418   6.192   3.104
10832TIP3    H132373   8.469   6.180   3.024
10832TIP3    H232374   8.442   6.279   3.135
10833TIP3   OH232375   8.411   5.704   2.610
10833TIP3    H132376   8.325   5.689   2.650
10833TIP3    H232377   8.392   5.755   2.532
10834TIP3   OH232378   8.629   5.757   3.435
10834TIP3    H132379   8.574   5.748   3.513
10834TIP3    H232380   8.575   5.807   3.373
10835TIP3   OH232381   8.664   7.210   3.498
10835TIP3    H132382   8.570   7.191   3.489
10835TIP3    H232383   8.682   7.199   3.591
10836TIP3   OH232384   8.880   7.257   3.052
10836TIP3    H132385   8.828   7.329   3.017
10836TIP3    H232386   8.965   7.266   3.010
10837TIP3   OH232387   9.270   7.472   3.185
10837TIP3    H132388   9.312   7.467   3.270
10837TIP3    H232389   9.330   7.525   3.131
10838TIP3   OH232390   9.458   7.616   3.042
10838TIP3    H132391   9.485   7.573   2.961
10838TIP3    H232392   9.539   7.651   3.080
10839TIP3   OH232393   8.532   7.489   3.102
10839TIP3    H132394   8.441   7.508   3.080
10839TIP3    H232395   8.556   7.557   3.165
10840TIP3   OH232396   8.759   7.479   2.947
10840TIP3    H132397   8.677   7.484   2.996
10840TIP3    H232398   8.736   7.507   2.859
10841TIP3   OH232399   9.183   7.479   2.711
10841TIP3    H132400   9.097   7.496   2.674
10841TIP3    H232401   9.202   7.555   2.766
10842TIP3   OH232402   9.488   7.492   2.791
10842TIP3    H132403   9.406   7.444   2.781
10842TIP3    H232404   9.507   7.527   2.704
10843TIP3   OH232405   8.444   7.274   2.813
10843TIP3    H132406   8.469   7.251   2.903
10843TIP3    H232407   8.516   7.241   2.759
10844TIP3   OH232408   8.648   7.159   2.677
10844TIP3    H132409   8.658   7.075   2.720
10844TIP3    H232410   8.735   7.199   2.683
10845TIP3   OH232411   8.914   7.244   2.706
10845TIP3    H132412   8.931   7.152   2.690
10845TIP3    H232413   8.970   7.267   2.780
10846TIP3   OH232414   9.430   5.833   2.783
10846TIP3    H132415   9.344   5.817   2.821
10846TIP3    H232416   9.416   5.826   2.688
10847TIP3   OH232417   8.712   5.592   2.781
10847TIP3    H132418   8.623   5.557   2.790
10847TIP3    H232419   8.767   5.514   2.770
10848TIP3   OH232420   8.548   5.511   2.452
10848TIP3    H132421   8.564   5.554   2.368
10848TIP3    H232422   8.507   5.579   2.506
10849TIP3   OH232423   9.138   5.655   2.655
10849TIP3    H132424   9.210   5.696   2.607
10849TIP3    H232425   9.150   5.685   2.745
10850TIP3   OH232426   8.218   7.048   2.202
10850TIP3    H132427   8.129   7.016   2.185
10850TIP3    H232428   8.213   7.142   2.184
10851TIP3   OH232429   8.637   5.625   2.198
10851TIP3    H132430   8.681   5.559   2.145
10851TIP3    H232431   8.707   5.681   2.232
10852TIP3   OH232432   9.111   5.843   2.298
10852TIP3    H132433   9.164   5.798   2.365
10852TIP3    H232434   9.123   5.936   2.318
10853TIP3   OH232435   9.028   7.220   1.841
10853TIP3    H132436   9.114   7.241   1.807
10853TIP3    H232437   8.994   7.152   1.784
10854TIP3   OH232438   8.928   5.882   3.667
10854TIP3    H132439   8.891   5.814   3.723
10854TIP3    H232440   9.020   5.890   3.695
10855TIP3   OH232441   9.168   5.884   3.802
10855TIP3    H132442   9.237   5.847   3.748
10855TIP3    H232443   9.152   5.818   3.870
10856TIP3   OH232444   8.278   7.015   1.925
10856TIP3    H132445   8.277   7.012   2.021
10856TIP3    H232446   8.366   6.989   1.900
10857TIP3   OH232447   0.326   7.482   4.613
10857TIP3    H132448   0.372   7.421   4.671
10857TIP3    H232449   0.304   7.556   4.669
10858TIP3   OH232450   0.954   6.713   4.946
10858TIP3    H132451   0.963   6.803   4.977
10858TIP3    H232452   0.992   6.713   4.858
10859TIP3   OH232453   0.326   6.930   4.939
10859TIP3    H132454   0.328   6.892   5.027
10859TIP3    H232455   0.283   6.864   4.886
10860TIP3   OH232456   0.430   6.731   4.609
10860TIP3    H132457   0.484   6.679   4.668
10860TIP3    H232458   0.467   6.714   4.522
10861TIP3   OH232459   0.968   6.935   5.126
10861TIP3    H132460   0.897   6.986   5.085
10861TIP3    H232461   0.935   6.914   5.213
10862TIP3   OH232462   0.582   6.613   4.815
10862TIP3    H132463   0.496   6.616   4.855
10862TIP3    H232464   0.621   6.698   4.834
10863TIP3   OH232465   0.765   6.665   5.141
10863TIP3    H132466   0.686   6.619   5.112
10863TIP3    H232467   0.819   6.671   5.062
10864TIP3   OH232468   0.328   7.504   4.330
10864TIP3    H132469   0.240   7.475   4.306
10864TIP3    H232470   0.329   7.500   4.425
10865TIP3   OH232471   0.601   7.641   5.126
10865TIP3    H132472   0.595   7.559   5.076
10865TIP3    H232473   0.586   7.710   5.061
10866TIP3   OH232474   0.823   7.269   4.959
10866TIP3    H132475   0.746   7.323   4.973
10866TIP3    H232476   0.852   7.291   4.870
10867TIP3   OH232477   0.279   7.101   4.343
10867TIP3    H132478   0.257   7.194   4.348
10867TIP3    H232479   0.361   7.094   4.391
10868TIP3   OH232480   0.456   7.263   5.179
10868TIP3    H132481   0.490   7.321   5.247
10868TIP3    H232482   0.461   7.176   5.218
10869TIP3   OH232483   0.160   6.949   4.156
10869TIP3    H132484   0.216   7.002   4.213
10869TIP3    H232485   0.093   7.009   4.125
10870TIP3   OH232486   0.620   6.187   4.214
10870TIP3    H132487   0.542   6.210   4.266
10870TIP3    H232488   0.637   6.265   4.161
10871TIP3   OH232489   0.413   7.570   3.743
10871TIP3    H132490   0.415   7.666   3.747
10871TIP3    H232491   0.505   7.544   3.740
10872TIP3   OH232492   0.858   7.972   5.168
10872TIP3    H132493   0.861   7.878   5.185
10872TIP3    H232494   0.775   8.000   5.207
10873TIP3   OH232495   0.743   7.125   5.450
10873TIP3    H132496   0.687   7.140   5.527
10873TIP3    H232497   0.755   7.030   5.446
10874TIP3   OH232498   0.290   6.348   5.495
10874TIP3    H132499   0.375   6.362   5.537
10874TIP3    H232500   0.231   6.408   5.540
10875TIP3   OH232501   0.456   6.772   5.385
10875TIP3    H132502   0.498   6.811   5.462
10875TIP3    H232503   0.443   6.846   5.325
10876TIP3   OH232504   0.131   7.099   3.865
10876TIP3    H132505   0.132   7.175   3.808
10876TIP3    H232506   0.180   7.126   3.943
10877TIP3   OH232507   0.153   6.782   4.790
10877TIP3    H132508   0.169   6.844   4.718
10877TIP3    H232509   0.156   6.696   4.749
10878TIP3   OH232510   0.541   6.504   5.106
10878TIP3    H132511   0.485   6.510   5.184
10878TIP3    H232512   0.480   6.510   5.032
10879TIP3   OH232513   0.601   7.430   4.948
10879TIP3    H132514   0.634   7.479   4.872
10879TIP3    H232515   0.522   7.387   4.917
10880TIP3   OH232516   0.096   6.598   4.260
10880TIP3    H132517   0.029   6.633   4.202
10880TIP3    H232518   0.179   6.630   4.222
10881TIP3   OH232519   0.330   6.717   4.193
10881TIP3    H132520   0.398   6.738   4.257
10881TIP3    H232521   0.296   6.803   4.166
10882TIP3   OH232522   0.635   6.823   4.115
10882TIP3    H132523   0.586   6.770   4.052
10882TIP3    H232524   0.628   6.913   4.082
10883TIP3   OH232525   0.860   7.688   5.202
10883TIP3    H132526   0.765   7.679   5.196
10883TIP3    H232527   0.892   7.660   5.117
10884TIP3   OH232528   0.425   7.598   4.089
10884TIP3    H132529   0.404   7.565   4.176
10884TIP3    H232530   0.346   7.582   4.037
10885TIP3   OH232531   0.392   7.303   4.818
10885TIP3    H132532   0.301   7.292   4.847
10885TIP3    H232533   0.418   7.215   4.791
10886TIP3   OH232534   0.427   7.846   3.724
10886TIP3    H132535   0.501   7.903   3.740
10886TIP3    H232536   0.371   7.895   3.664
10887TIP3   OH232537   0.290   7.256   4.042
10887TIP3    H132538   0.226   7.299   4.099
10887TIP3    H232539   0.373   7.268   4.087
10888TIP3   OH232540   0.369   6.531   5.311
10888TIP3    H132541   0.387   6.607   5.366
10888TIP3    H232542   0.335   6.465   5.372
10889TIP3   OH232543   0.272   6.497   4.439
10889TIP3    H132544   0.202   6.521   4.378
10889TIP3    H232545   0.241   6.529   4.524
10890TIP3   OH232546   0.806   6.851   5.338
10890TIP3    H132547   0.745   6.831   5.409
10890TIP3    H232548   0.790   6.783   5.273
10891TIP3   OH232549   0.492   7.043   4.757
10891TIP3    H132550   0.429   7.005   4.818
10891TIP3    H232551   0.572   6.992   4.770
10892TIP3   OH232552   0.414   7.943   4.718
10892TIP3    H132553   0.347   7.935   4.649
10892TIP3    H232554   0.482   7.997   4.678
10893TIP3   OH232555   0.442   7.107   3.768
10893TIP3    H132556   0.386   7.049   3.715
10893TIP3    H232557   0.391   7.188   3.776
10894TIP3   OH232558   0.590   7.131   5.680
10894TIP3    H132559   0.567   7.087   5.761
10894TIP3    H232560   0.583   7.225   5.701
10895TIP3   OH232561   0.544   7.427   5.389
10895TIP3    H132562   0.512   7.511   5.355
10895TIP3    H232563   0.638   7.429   5.370
10896TIP3   OH232564   0.322   6.937   5.611
10896TIP3    H132565   0.309   6.845   5.588
10896TIP3    H232566   0.381   6.934   5.686
10897TIP3   OH232567   0.697   6.705   5.745
10897TIP3    H132568   0.698   6.620   5.700
10897TIP3    H232569   0.695   6.684   5.838
10898TIP3   OH232570   0.644   8.089   4.664
10898TIP3    H132571   0.683   8.094   4.751
10898TIP3    H232572   0.717   8.102   4.604
10899TIP3   OH232573   0.702   8.065   4.942
10899TIP3    H132574   0.650   7.985   4.941
10899TIP3    H232575   0.772   8.048   5.004
10900TIP3   OH232576   0.731   7.784   5.555
10900TIP3    H132577   0.648   7.813   5.591
10900TIP3    H232578   0.784   7.863   5.550
10901TIP3   OH232579   0.555   7.280   4.136
10901TIP3    H132580   0.603   7.358   4.107
10901TIP3    H232581   0.606   7.246   4.209
10902TIP3   OH232582   0.708   7.148   4.327
10902TIP3    H132583   0.643   7.112   4.386
10902TIP3    H232584   0.773   7.189   4.384
10903TIP3   OH232585   0.751   7.556   4.758
10903TIP3    H132586   0.802   7.483   4.721
10903TIP3    H232587   0.769   7.630   4.700
10904TIP3   OH232588   0.523   7.845   4.950
10904TIP3    H132589   0.454   7.900   4.989
10904TIP3    H232590   0.505   7.847   4.856
10905TIP3   OH232591   0.602   7.059   3.983
10905TIP3    H132592   0.542   7.068   3.909
10905TIP3    H232593   0.583   7.135   4.038
10906TIP3   OH232594   0.511   6.700   3.907
10906TIP3    H132595   0.517   6.753   3.827
10906TIP3    H232596   0.506   6.610   3.875
10907TIP3   OH232597   0.518   7.017   4.476
10907TIP3    H132598   0.526   6.923   4.462
10907TIP3    H232599   0.499   7.026   4.569
10908TIP3   OH232600   0.814   7.443   5.340
10908TIP3    H132601   0.873   7.369   5.325
10908TIP3    H232602   0.846   7.511   5.281
10909TIP3   OH232603   0.966   7.213   5.321
10909TIP3    H132604   0.885   7.179   5.359
10909TIP3    H232605   1.035   7.154   5.353
10910TIP3   OH232606   0.466   6.428   3.861
10910TIP3    H132607   0.524   6.419   3.937
10910TIP3    H232608   0.392   6.372   3.881
10911TIP3   OH232609   0.549   6.737   4.362
10911TIP3    H132610   0.587   6.650   4.374
10911TIP3    H232611   0.593   6.772   4.285
10912TIP3   OH232612   0.676   6.865   4.871
10912TIP3    H132613   0.763   6.888   4.838
10912TIP3    H232614   0.667   6.914   4.952
10913TIP3   OH232615   0.680   7.064   5.065
10913TIP3    H132616   0.597   7.113   5.061
10913TIP3    H232617   0.745   7.126   5.033
10914TIP3   OH232618   1.175   6.636   5.655
10914TIP3    H132619   1.239   6.579   5.613
10914TIP3    H232620   1.140   6.690   5.583
10915TIP3   OH232621   0.633   6.478   4.404
10915TIP3    H132622   0.674   6.457   4.488
10915TIP3    H232623   0.566   6.410   4.393
10916TIP3   OH232624   1.043   6.756   5.443
10916TIP3    H132625   0.960   6.801   5.430
10916TIP3    H232626   1.030   6.670   5.405
10917TIP3   OH232627   0.670   6.399   4.048
10917TIP3    H132628   0.714   6.340   3.987
10917TIP3    H232629   0.728   6.475   4.054
10918TIP3   OH232630   0.959   6.507   5.358
10918TIP3    H132631   0.867   6.507   5.329
10918TIP3    H232632   0.988   6.417   5.343
10919TIP3   OH232633   0.082   6.396   4.909
10919TIP3    H132634   0.014   6.428   4.967
10919TIP3    H232635   0.159   6.387   4.965
10920TIP3   OH232636   0.685   6.357   4.867
10920TIP3    H132637   0.734   6.367   4.786
10920TIP3    H232638   0.640   6.441   4.879
10921TIP3   OH232639   0.783   6.393   4.620
10921TIP3    H132640   0.853   6.338   4.586
10921TIP3    H232641   0.817   6.482   4.613
10922TIP3   OH232642   0.345   6.322   4.715
10922TIP3    H132643   0.263   6.280   4.691
10922TIP3    H232644   0.354   6.305   4.809
10923TIP3   OH232645   0.431   6.288   4.390
10923TIP3    H132646   0.373   6.354   4.428
10923TIP3    H232647   0.411   6.208   4.439
10924TIP3   OH232648   0.421   7.868   4.057
10924TIP3    H132649   0.424   7.775   4.076
10924TIP3    H232650   0.329   7.886   4.037
10925TIP3   OH232651   0.698   6.415   5.763
10925TIP3    H132652   0.700   6.403   5.858
10925TIP3    H232653   0.789   6.427   5.738
10926TIP3   OH232654   0.609   8.046   5.254
10926TIP3    H132655   0.535   7.996   5.290
10926TIP3    H232656   0.589   8.137   5.276
10927TIP3   OH232657   1.864   7.418   4.030
10927TIP3    H132658   1.829   7.503   4.001
10927TIP3    H232659   1.796   7.355   4.005
10928TIP3   OH232660   1.877   7.428   4.425
10928TIP3    H132661   1.919   7.392   4.503
10928TIP3    H232662   1.850   7.352   4.374
10929TIP3   OH232663   1.175   7.276   4.784
10929TIP3    H132664   1.212   7.224   4.856
10929TIP3    H232665   1.251   7.298   4.729
10930TIP3   OH232666   2.140   7.727   4.116
10930TIP3    H132667   2.128   7.660   4.183
10930TIP3    H232668   2.157   7.808   4.166
10931TIP3   OH232669   1.142   7.697   4.489
10931TIP3    H132670   1.132   7.602   4.486
10931TIP3    H232671   1.236   7.711   4.480
10932TIP3   OH232672   0.855   6.920   4.258
10932TIP3    H132673   0.818   7.005   4.280
10932TIP3    H232674   0.787   6.877   4.206
10933TIP3   OH232675   0.930   7.234   4.471
10933TIP3    H132676   0.976   7.156   4.501
10933TIP3    H232677   1.000   7.295   4.447
10934TIP3   OH232678   1.795   8.146   4.136
10934TIP3    H132679   1.821   8.082   4.070
10934TIP3    H232680   1.793   8.097   4.218
10935TIP3   OH232681   1.670   7.640   4.451
10935TIP3    H132682   1.717   7.564   4.416
10935TIP3    H232683   1.739   7.697   4.484
10936TIP3   OH232684   2.706   6.960   4.468
10936TIP3    H132685   2.724   7.044   4.510
10936TIP3    H232686   2.739   6.972   4.378
10937TIP3   OH232687   2.051   7.121   4.436
10937TIP3    H132688   2.093   7.038   4.459
10937TIP3    H232689   1.967   7.096   4.396
10938TIP3   OH232690   2.146   6.847   4.071
10938TIP3    H132691   2.202   6.865   4.147
10938TIP3    H232692   2.181   6.905   4.002
10939TIP3   OH232693   1.056   7.013   4.579
10939TIP3    H132694   1.142   6.999   4.618
10939TIP3    H232695   1.053   6.954   4.504
10940TIP3   OH232696   1.488   7.177   4.385
10940TIP3    H132697   1.580   7.151   4.372
10940TIP3    H232698   1.438   7.097   4.365
10941TIP3   OH232699   2.763   7.179   4.633
10941TIP3    H132700   2.675   7.217   4.629
10941TIP3    H232701   2.801   7.214   4.714
10942TIP3   OH232702   1.402   6.795   4.888
10942TIP3    H132703   1.352   6.829   4.813
10942TIP3    H232704   1.346   6.811   4.964
10943TIP3   OH232705   1.752   7.632   3.897
10943TIP3    H132706   1.716   7.608   3.811
10943TIP3    H232707   1.706   7.713   3.920
10944TIP3   OH232708   1.507   7.557   4.659
10944TIP3    H132709   1.454   7.627   4.695
10944TIP3    H232710   1.556   7.597   4.587
10945TIP3   OH232711   2.306   6.906   4.292
10945TIP3    H132712   2.253   6.903   4.371
10945TIP3    H232713   2.363   6.982   4.304
10946TIP3   OH232714   1.308   6.898   4.638
10946TIP3    H132715   1.371   6.965   4.665
10946TIP3    H232716   1.328   6.883   4.545
10947TIP3   OH232717   1.354   7.759   4.771
10947TIP3    H132718   1.344   7.849   4.740
10947TIP3    H232719   1.276   7.742   4.823
10948TIP3   OH232720   0.732   7.472   4.025
10948TIP3    H132721   0.682   7.501   3.949
10948TIP3    H232722   0.755   7.552   4.071
10949TIP3   OH232723   2.164   7.971   4.259
10949TIP3    H132724   2.076   7.965   4.298
10949TIP3    H232725   2.165   8.056   4.214
10950TIP3   OH232726   2.498   6.853   4.624
10950TIP3    H132727   2.418   6.890   4.586
10950TIP3    H232728   2.568   6.878   4.564
10951TIP3   OH232729   1.748   6.480   4.635
10951TIP3    H132730   1.748   6.388   4.659
10951TIP3    H232731   1.668   6.515   4.675
10952TIP3   OH232732   1.881   8.001   3.916
10952TIP3    H132733   1.934   7.922   3.905
10952TIP3    H232734   1.938   8.072   3.887
10953TIP3   OH232735   2.033   7.783   3.869
10953TIP3    H132736   1.998   7.702   3.833
10953TIP3    H232737   2.076   7.758   3.950
10954TIP3   OH232738   2.396   7.862   4.604
10954TIP3    H132739   2.382   7.786   4.547
10954TIP3    H232740   2.383   7.938   4.546
10955TIP3   OH232741   1.686   7.257   3.887
10955TIP3    H132742   1.609   7.305   3.859
10955TIP3    H232743   1.738   7.245   3.808
10956TIP3   OH232744   1.656   7.072   3.569
10956TIP3    H132745   1.720   7.118   3.622
10956TIP3    H232746   1.706   7.006   3.521
10957TIP3   OH232747   2.588   7.522   4.475
10957TIP3    H132748   2.504   7.567   4.474
10957TIP3    H232749   2.623   7.534   4.387
10958TIP3   OH232750   2.049   7.355   3.838
10958TIP3    H132751   1.992   7.380   3.911
10958TIP3    H232752   2.131   7.328   3.880
10959TIP3   OH232753   2.280   7.375   4.782
10959TIP3    H132754   2.276   7.460   4.826
10959TIP3    H232755   2.201   7.372   4.728
10960TIP3   OH232756   1.290   7.326   4.242
10960TIP3    H132757   1.250   7.270   4.175
10960TIP3    H232758   1.364   7.275   4.274
10961TIP3   OH232759   1.407   7.750   4.388
10961TIP3    H132760   1.382   7.739   4.297
10961TIP3    H232761   1.496   7.714   4.393
10962TIP3   OH232762   1.390   7.314   4.607
10962TIP3    H132763   1.429   7.280   4.526
10962TIP3    H232764   1.436   7.397   4.622
10963TIP3   OH232765   1.927   7.969   4.394
10963TIP3    H132766   1.918   8.049   4.446
10963TIP3    H232767   1.913   7.898   4.456
10964TIP3   OH232768   1.554   7.860   4.937
10964TIP3    H132769   1.495   7.920   4.982
10964TIP3    H232770   1.497   7.808   4.881
10965TIP3   OH232771   1.879   7.204   3.678
10965TIP3    H132772   1.938   7.263   3.726
10965TIP3    H232773   1.908   7.210   3.587
10966TIP3   OH232774   1.317   7.418   5.077
10966TIP3    H132775   1.318   7.511   5.098
10966TIP3    H232776   1.224   7.395   5.073
10967TIP3   OH232777   1.631   7.881   3.928
10967TIP3    H132778   1.715   7.928   3.932
10967TIP3    H232779   1.575   7.937   3.875
10968TIP3   OH232780   1.350   8.026   5.022
10968TIP3    H132781   1.322   8.032   4.931
10968TIP3    H232782   1.270   8.007   5.071
10969TIP3   OH232783   1.155   7.178   4.043
10969TIP3    H132784   1.079   7.227   4.012
10969TIP3    H232785   1.123   7.090   4.058
10970TIP3   OH232786   2.222   7.812   3.289
10970TIP3    H132787   2.213   7.902   3.258
10970TIP3    H232788   2.309   7.785   3.261
10971TIP3   OH232789   0.941   7.583   4.966
10971TIP3    H132790   0.878   7.567   4.896
10971TIP3    H232791   0.979   7.498   4.985
10972TIP3   OH232792   0.869   7.756   4.605
10972TIP3    H132793   0.951   7.733   4.562
10972TIP3    H232794   0.891   7.828   4.663
10973TIP3   OH232795   2.634   8.198   4.676
10973TIP3    H132796   2.642   8.107   4.705
10973TIP3    H232797   2.558   8.231   4.723
10974TIP3   OH232798   1.742   8.002   4.796
10974TIP3    H132799   1.736   8.092   4.828
10974TIP3    H232800   1.675   7.955   4.845
10975TIP3   OH232801   1.524   8.082   3.755
10975TIP3    H132802   1.481   8.070   3.670
10975TIP3    H232803   1.490   8.165   3.788
10976TIP3   OH232804   0.960   7.949   4.138
10976TIP3    H132805   1.002   7.946   4.224
10976TIP3    H232806   0.909   7.868   4.134
10977TIP3   OH232807   1.730   8.030   3.388
10977TIP3    H132808   1.780   7.957   3.351
10977TIP3    H232809   1.763   8.040   3.477
10978TIP3   OH232810   1.779   8.066   3.656
10978TIP3    H132811   1.691   8.068   3.694
10978TIP3    H232812   1.834   8.029   3.725
10979TIP3   OH232813   2.523   7.336   4.945
10979TIP3    H132814   2.441   7.347   4.897
10979TIP3    H232815   2.542   7.243   4.940
10980TIP3   OH232816   1.136   7.775   4.941
10980TIP3    H132817   1.187   7.764   5.021
10980TIP3    H232818   1.066   7.710   4.947
10981TIP3   OH232819   1.516   6.580   4.753
10981TIP3    H132820   1.434   6.542   4.722
10981TIP3    H232821   1.489   6.659   4.800
10982TIP3   OH232822   2.060   6.694   4.953
10982TIP3    H132823   2.132   6.671   5.013
10982TIP3    H232824   1.980   6.676   5.004
10983TIP3   OH232825   2.267   7.105   4.858
10983TIP3    H132826   2.236   7.101   4.948
10983TIP3    H232827   2.263   7.197   4.835
10984TIP3   OH232828   1.956   7.189   3.410
10984TIP3    H132829   1.913   7.198   3.325
10984TIP3    H232830   2.041   7.232   3.398
10985TIP3   OH232831   1.671   6.614   3.734
10985TIP3    H132832   1.636   6.628   3.822
10985TIP3    H232833   1.629   6.533   3.705
10986TIP3   OH232834   1.478   7.088   4.746
10986TIP3    H132835   1.434   7.096   4.830
10986TIP3    H232836   1.459   7.170   4.701
10987TIP3   OH232837   1.341   6.954   4.321
10987TIP3    H132838   1.251   6.926   4.337
10987TIP3    H232839   1.361   6.925   4.232
10988TIP3   OH232840   2.000   7.318   5.066
10988TIP3    H132841   1.976   7.252   5.131
10988TIP3    H232842   2.092   7.339   5.087
10989TIP3   OH232843   1.313   7.115   4.969
10989TIP3    H132844   1.339   7.178   5.036
10989TIP3    H232845   1.286   7.037   5.018
10990TIP3   OH232846   1.343   6.598   3.699
10990TIP3    H132847   1.335   6.605   3.794
10990TIP3    H232848   1.265   6.642   3.665
10991TIP3   OH232849   0.896   6.629   4.554
10991TIP3    H132850   0.963   6.672   4.607
10991TIP3    H232851   0.934   6.626   4.466
10992TIP3   OH232852   0.825   6.627   4.065
10992TIP3    H132853   0.864   6.658   3.983
10992TIP3    H232854   0.763   6.696   4.090
10993TIP3   OH232855   2.033   7.308   4.640
10993TIP3    H132856   2.051   7.243   4.572
10993TIP3    H232857   1.986   7.259   4.708
10994TIP3   OH232858   1.094   6.847   4.368
10994TIP3    H132859   1.014   6.858   4.318
10994TIP3    H232860   1.126   6.760   4.342
10995TIP3   OH232861   1.364   6.870   4.053
10995TIP3    H132862   1.457   6.890   4.041
10995TIP3    H232863   1.324   6.885   3.968
10996TIP3   OH232864   2.158   6.873   4.520
10996TIP3    H132865   2.135   6.879   4.613
10996TIP3    H232866   2.140   6.781   4.497
10997TIP3   OH232867   1.244   6.883   3.802
10997TIP3    H132868   1.179   6.836   3.751
10997TIP3    H232869   1.297   6.930   3.737
10998TIP3   OH232870   2.334   8.556   4.760
10998TIP3    H132871   2.336   8.561   4.665
10998TIP3    H232872   2.413   8.603   4.788
10999TIP3   OH232873   1.293   7.684   5.171
10999TIP3    H132874   1.374   7.702   5.218
10999TIP3    H232875   1.224   7.694   5.237
11000TIP3   OH232876   1.215   6.608   4.319
11000TIP3    H132877   1.201   6.528   4.371
11000TIP3    H232878   1.277   6.581   4.251
11001TIP3   OH232879   1.736   6.988   4.708
11001TIP3    H132880   1.650   7.030   4.714
11001TIP3    H232881   1.795   7.050   4.751
11002TIP3   OH232882   1.453   7.401   3.816
11002TIP3    H132883   1.379   7.345   3.794
11002TIP3    H232884   1.429   7.440   3.900
11003TIP3   OH232885   2.352   7.657   4.426
11003TIP3    H132886   2.389   7.706   4.353
11003TIP3    H232887   2.272   7.618   4.390
11004TIP3   OH232888   1.930   6.694   3.705
11004TIP3    H132889   1.835   6.682   3.712
11004TIP3    H232890   1.943   6.788   3.715
11005TIP3   OH232891   1.868   7.735   4.841
11005TIP3    H132892   1.924   7.727   4.919
11005TIP3    H232893   1.829   7.822   4.848
11006TIP3   OH232894   1.992   6.955   3.760
11006TIP3    H132895   2.080   6.976   3.791
11006TIP3    H232896   1.953   7.040   3.741
11007TIP3   OH232897   1.156   7.412   4.467
11007TIP3    H132898   1.195   7.394   4.381
11007TIP3    H232899   1.222   7.381   4.529
11008TIP3   OH232900   1.613   7.558   3.663
11008TIP3    H132901   1.565   7.641   3.659
11008TIP3    H232902   1.556   7.501   3.714
11009TIP3   OH232903   1.047   7.351   5.096
11009TIP3    H132904   1.046   7.317   5.185
11009TIP3    H232905   0.977   7.305   5.051
11010TIP3   OH232906   1.776   7.481   5.122
11010TIP3    H132907   1.706   7.424   5.090
11010TIP3    H232908   1.856   7.441   5.090
11011TIP3   OH232909   2.011   8.031   4.721
11011TIP3    H132910   1.917   8.015   4.728
11011TIP3    H232911   2.035   8.068   4.806
11012TIP3   OH232912   2.395   7.077   3.617
11012TIP3    H132913   2.339   7.034   3.553
11012TIP3    H232914   2.404   7.167   3.584
11013TIP3   OH232915   2.643   7.914   4.705
11013TIP3    H132916   2.548   7.910   4.690
11013TIP3    H232917   2.682   7.897   4.619
11014TIP3   OH232918   2.143   7.885   3.549
11014TIP3    H132919   2.113   7.813   3.605
11014TIP3    H232920   2.162   7.843   3.465
11015TIP3   OH232921   2.125   7.528   4.319
11015TIP3    H132922   2.034   7.510   4.342
11015TIP3    H232923   2.159   7.445   4.285
11016TIP3   OH232924   1.271   7.755   4.143
11016TIP3    H132925   1.274   7.831   4.085
11016TIP3    H232926   1.178   7.736   4.155
11017TIP3   OH232927   0.843   7.052   3.848
11017TIP3    H132928   0.884   7.136   3.871
11017TIP3    H232929   0.761   7.051   3.898
11018TIP3   OH232930   1.359   7.511   4.044
11018TIP3    H132931   1.343   7.600   4.076
11018TIP3    H232932   1.337   7.455   4.119
11019TIP3   OH232933   1.557   8.083   4.592
11019TIP3    H132934   1.591   8.156   4.541
11019TIP3    H232935   1.632   8.049   4.640
11020TIP3   OH232936   1.188   7.973   3.988
11020TIP3    H132937   1.101   7.975   4.029
11020TIP3    H232938   1.221   8.062   3.997
11021TIP3   OH232939   1.904   7.746   4.566
11021TIP3    H132940   1.894   7.739   4.661
11021TIP3    H232941   1.979   7.691   4.546
11022TIP3   OH232942   1.905   7.624   3.437
11022TIP3    H132943   1.949   7.603   3.520
11022TIP3    H232944   1.821   7.578   3.442
11023TIP3   OH232945   2.165   8.234   4.604
11023TIP3    H132946   2.099   8.169   4.627
11023TIP3    H232947   2.124   8.285   4.534
11024TIP3   OH232948   2.215   8.081   3.230
11024TIP3    H132949   2.227   8.134   3.151
11024TIP3    H232950   2.143   8.124   3.277
11025TIP3   OH232951   1.240   6.878   5.101
11025TIP3    H132952   1.146   6.897   5.110
11025TIP3    H232953   1.260   6.824   5.177
11026TIP3   OH232954   2.071   7.559   3.651
11026TIP3    H132955   2.056   7.490   3.715
11026TIP3    H232956   2.166   7.560   3.638
11027TIP3   OH232957   0.976   7.970   4.762
11027TIP3    H132958   1.035   7.919   4.819
11027TIP3    H232959   0.982   8.059   4.795
11028TIP3   OH232960   1.254   7.587   3.448
11028TIP3    H132961   1.265   7.496   3.420
11028TIP3    H232962   1.240   7.581   3.543
11029TIP3   OH232963   1.199   7.599   3.721
11029TIP3    H132964   1.268   7.571   3.781
11029TIP3    H232965   1.199   7.694   3.727
11030TIP3   OH232966   0.931   7.302   3.933
11030TIP3    H132967   0.864   7.349   3.982
11030TIP3    H232968   0.950   7.359   3.859
11031TIP3   OH232969   2.088   6.908   4.783
11031TIP3    H132970   2.161   6.961   4.813
11031TIP3    H232971   2.081   6.836   4.846
11032TIP3   OH232972   1.990   6.645   3.975
11032TIP3    H132973   1.969   6.664   3.883
11032TIP3    H232974   2.037   6.722   4.005
11033TIP3   OH232975   1.466   7.785   3.654
11033TIP3    H132976   1.383   7.810   3.694
11033TIP3    H232977   1.489   7.858   3.598
11034TIP3   OH232978   1.653   6.905   4.082
11034TIP3    H132979   1.695   6.968   4.023
11034TIP3    H232980   1.678   6.933   4.170
11035TIP3   OH232981   1.925   7.145   4.841
11035TIP3    H132982   1.941   7.201   4.918
11035TIP3    H232983   1.985   7.071   4.853
11036TIP3   OH232984   1.814   6.575   4.174
11036TIP3    H132985   1.812   6.661   4.216
11036TIP3    H232986   1.877   6.586   4.102
11037TIP3   OH232987   1.219   7.871   3.738
11037TIP3    H132988   1.199   7.944   3.679
11037TIP3    H232989   1.207   7.907   3.826
11038TIP3   OH232990   1.320   6.594   3.976
11038TIP3    H132991   1.300   6.682   4.008
11038TIP3    H232992   1.415   6.586   3.987
11039TIP3   OH232993   2.538   7.065   4.851
11039TIP3    H132994   2.443   7.066   4.857
11039TIP3    H232995   2.557   7.010   4.775
11040TIP3   OH232996   2.217   7.263   4.259
11040TIP3    H132997   2.149   7.218   4.310
11040TIP3    H232998   2.300   7.229   4.294
11041TIP3   OH232999   0.952   7.472   3.714
11041TIP3    H133000   1.024   7.534   3.722
11041TIP3    H233001   0.981   7.410   3.648
11042TIP3   OH233002   0.869   6.773   3.837
11042TIP3    H133003   0.880   6.866   3.858
11042TIP3    H233004   0.840   6.772   3.746
11043TIP3   OH233005   2.194   8.238   4.182
11043TIP3    H133006   2.153   8.289   4.113
11043TIP3    H233007   2.288   8.249   4.168
11044TIP3   OH233008   1.261   6.484   4.712
11044TIP3    H133009   1.235   6.449   4.626
11044TIP3    H233010   1.253   6.409   4.771
11045TIP3   OH233011   0.790   7.729   4.130
11045TIP3    H133012   0.742   7.766   4.204
11045TIP3    H233013   0.747   7.766   4.053
11046TIP3   OH233014   0.975   8.275   5.173
11046TIP3    H133015   1.055   8.277   5.225
11046TIP3    H233016   0.950   8.183   5.170
11047TIP3   OH233017   1.453   8.189   5.219
11047TIP3    H133018   1.543   8.159   5.231
11047TIP3    H233019   1.419   8.137   5.146
11048TIP3   OH233020   1.406   7.790   3.340
11048TIP3    H133021   1.358   7.719   3.384
11048TIP3    H233022   1.481   7.747   3.299
11049TIP3   OH233023   2.072   8.132   4.967
11049TIP3    H133024   2.078   8.060   5.030
11049TIP3    H233025   2.151   8.184   4.984
11050TIP3   OH233026   1.852   7.825   3.258
11050TIP3    H133027   1.889   7.760   3.318
11050TIP3    H233028   1.906   7.820   3.180
11051TIP3   OH233029   1.088   7.685   5.363
11051TIP3    H133030   1.113   7.593   5.372
11051TIP3    H233031   1.004   7.683   5.319
11052TIP3   OH233032   1.075   7.283   3.559
11052TIP3    H133033   1.125   7.259   3.637
11052TIP3    H233034   1.141   7.296   3.491
11053TIP3   OH233035   1.709   7.760   5.142
11053TIP3    H133036   1.664   7.781   5.060
11053TIP3    H233037   1.746   7.673   5.127
11054TIP3   OH233038   1.656   7.500   3.399
11054TIP3    H133039   1.631   7.511   3.491
11054TIP3    H233040   1.635   7.409   3.379
11055TIP3   OH233041   2.177   7.805   4.760
11055TIP3    H133042   2.255   7.831   4.711
11055TIP3    H233043   2.114   7.874   4.743
11056TIP3   OH233044   1.209   7.437   5.371
11056TIP3    H133045   1.283   7.407   5.318
11056TIP3    H233046   1.245   7.448   5.459
11057TIP3   OH233047   1.245   7.222   3.773
11057TIP3    H133048   1.227   7.192   3.862
11057TIP3    H233049   1.293   7.150   3.733
11058TIP3   OH233050   1.562   7.298   5.023
11058TIP3    H133051   1.481   7.347   5.036
11058TIP3    H233052   1.598   7.332   4.941
11059TIP3   OH233053   1.385   7.035   3.621
11059TIP3    H133054   1.356   7.039   3.530
11059TIP3    H233055   1.480   7.046   3.615
11060TIP3   OH233056   2.061   7.676   5.105
11060TIP3    H133057   2.134   7.642   5.054
11060TIP3    H233058   2.061   7.622   5.184
11061TIP3   OH233059   2.180   7.318   3.309
11061TIP3    H133060   2.168   7.279   3.222
11061TIP3    H233061   2.159   7.410   3.297
11062TIP3   OH233062   1.667   7.076   5.145
11062TIP3    H133063   1.664   7.001   5.087
11062TIP3    H233064   1.632   7.149   5.093
11063TIP3   OH233065   1.659   6.866   4.956
11063TIP3    H133066   1.692   6.899   4.872
11063TIP3    H233067   1.568   6.842   4.938
11064TIP3   OH233068   1.686   7.415   4.812
11064TIP3    H133069   1.770   7.460   4.803
11064TIP3    H233070   1.625   7.467   4.759
11065TIP3   OH233071   2.269   7.360   5.176
11065TIP3    H133072   2.310   7.274   5.185
11065TIP3    H233073   2.342   7.421   5.166
11066TIP3   OH233074   2.302   7.624   4.920
11066TIP3    H133075   2.249   7.687   4.870
11066TIP3    H233076   2.392   7.639   4.890
11067TIP3   OH233077   1.552   7.164   5.385
11067TIP3    H133078   1.485   7.098   5.406
11067TIP3    H233079   1.581   7.139   5.297
11068TIP3   OH233080   1.797   6.638   5.037
11068TIP3    H133081   1.750   6.718   5.015
11068TIP3    H233082   1.733   6.568   5.024
11069TIP3   OH233083   1.927   7.116   5.238
11069TIP3    H133084   1.925   7.106   5.333
11069TIP3    H233085   1.838   7.095   5.209
11070TIP3   OH233086   2.172   7.067   5.107
11070TIP3    H133087   2.094   7.069   5.162
11070TIP3    H233088   2.243   7.043   5.166
11071TIP3   OH233089   2.404   7.034   5.260
11071TIP3    H133090   2.418   6.939   5.267
11071TIP3    H233091   2.399   7.064   5.351
11072TIP3   OH233092   1.400   6.934   5.445
11072TIP3    H133093   1.401   6.847   5.406
11072TIP3    H233094   1.438   6.923   5.531
11073TIP3   OH233095   1.863   6.621   5.304
11073TIP3    H133096   1.933   6.555   5.300
11073TIP3    H233097   1.834   6.629   5.213
11074TIP3   OH233098   1.959   6.836   5.447
11074TIP3    H133099   1.928   6.763   5.393
11074TIP3    H233100   1.886   6.898   5.448
11075TIP3   OH233101   1.223   8.087   3.562
11075TIP3    H133102   1.310   8.062   3.530
11075TIP3    H233103   1.175   8.114   3.484
11076TIP3   OH233104   0.675   7.475   3.714
11076TIP3    H133105   0.770   7.487   3.724
11076TIP3    H233106   0.666   7.385   3.682
11077TIP3   OH233107   0.580   8.046   4.193
11077TIP3    H133108   0.524   7.993   4.136
11077TIP3    H233109   0.617   7.983   4.256
11078TIP3   OH233110   0.721   7.878   4.367
11078TIP3    H133111   0.716   7.809   4.434
11078TIP3    H233112   0.768   7.949   4.410
11079TIP3   OH233113   2.462   8.293   4.167
11079TIP3    H133114   2.496   8.304   4.256
11079TIP3    H233115   2.527   8.335   4.111
11080TIP3   OH233116   2.513   8.286   4.442
11080TIP3    H133117   2.457   8.208   4.437
11080TIP3    H233118   2.573   8.268   4.514
11081TIP3   OH233119   2.531   8.023   5.030
11081TIP3    H133120   2.464   8.034   5.098
11081TIP3    H233121   2.575   8.107   5.026
11082TIP3   OH233122   2.350   7.537   3.634
11082TIP3    H133123   2.410   7.606   3.604
11082TIP3    H233124   2.395   7.498   3.709
11083TIP3   OH233125   2.475   7.389   3.837
11083TIP3    H133126   2.408   7.353   3.894
11083TIP3    H233127   2.540   7.426   3.897
11084TIP3   OH233128   2.533   7.792   4.264
11084TIP3    H133129   2.585   7.720   4.226
11084TIP3    H233130   2.539   7.862   4.199
11085TIP3   OH233131   2.336   8.078   4.448
11085TIP3    H133132   2.272   8.126   4.500
11085TIP3    H233133   2.285   8.038   4.377
11086TIP3   OH233134   2.396   7.315   3.477
11086TIP3    H133135   2.324   7.309   3.416
11086TIP3    H233136   2.377   7.393   3.530
11087TIP3   OH233137   2.248   6.971   3.414
11087TIP3    H133138   2.211   7.014   3.337
11087TIP3    H233139   2.220   6.880   3.407
11088TIP3   OH233140   2.271   7.254   3.980
11088TIP3    H133141   2.274   7.160   3.963
11088TIP3    H233142   2.249   7.261   4.073
11089TIP3   OH233143   0.920   7.344   4.719
11089TIP3    H133144   0.908   7.310   4.631
11089TIP3    H233145   1.013   7.332   4.738
11090TIP3   OH233146   2.563   7.672   4.835
11090TIP3    H133147   2.628   7.604   4.816
11090TIP3    H233148   2.590   7.747   4.782
11091TIP3   OH233149   2.736   7.458   4.820
11091TIP3    H133150   2.663   7.416   4.866
11091TIP3    H233151   2.811   7.404   4.841
11092TIP3   OH233152   2.175   6.708   3.395
11092TIP3    H133153   2.248   6.661   3.436
11092TIP3    H233154   2.099   6.653   3.413
11093TIP3   OH233155   2.275   6.980   3.856
11093TIP3    H133156   2.322   6.897   3.864
11093TIP3    H233157   2.315   7.023   3.779
11094TIP3   OH233158   2.439   7.141   4.375
11094TIP3    H133159   2.521   7.159   4.328
11094TIP3    H233160   2.452   7.181   4.461
11095TIP3   OH233161   2.502   7.292   4.604
11095TIP3    H133162   2.431   7.320   4.661
11095TIP3    H233163   2.534   7.372   4.563
11096TIP3   OH233164   1.142   7.025   5.424
11096TIP3    H133165   1.236   7.009   5.427
11096TIP3    H233166   1.103   6.939   5.442
11097TIP3   OH233167   2.963   6.891   5.142
11097TIP3    H133168   3.028   6.834   5.102
11097TIP3    H233169   2.925   6.940   5.068
11098TIP3   OH233170   2.399   6.725   3.888
11098TIP3    H133171   2.438   6.717   3.975
11098TIP3    H233172   2.338   6.651   3.881
11099TIP3   OH233173   1.108   6.714   4.714
11099TIP3    H133174   1.160   6.633   4.720
11099TIP3    H233175   1.169   6.780   4.683
11100TIP3   OH233176   0.910   6.996   4.814
11100TIP3    H133177   0.950   6.991   4.727
11100TIP3    H233178   0.930   7.084   4.845
11101TIP3   OH233179   2.809   7.006   4.946
11101TIP3    H133180   2.730   7.045   4.982
11101TIP3    H233181   2.778   6.932   4.893
11102TIP3   OH233182   2.445   6.621   3.480
11102TIP3    H133183   2.460   6.657   3.393
11102TIP3    H233184   2.477   6.688   3.540
11103TIP3   OH233185   0.888   6.473   4.283
11103TIP3    H133186   0.801   6.471   4.323
11103TIP3    H233187   0.880   6.536   4.211
11104TIP3   OH233188   2.023   8.206   3.811
11104TIP3    H133189   2.076   8.190   3.733
11104TIP3    H233190   2.074   8.267   3.863
11105TIP3   OH233191   1.100   6.550   5.116
11105TIP3    H133192   1.044   6.547   5.193
11105TIP3    H233193   1.050   6.601   5.052
11106TIP3   OH233194   1.134   7.988   5.190
11106TIP3    H133195   1.040   7.977   5.176
11106TIP3    H233196   1.144   7.988   5.285
11107TIP3   OH233197   1.332   8.031   4.740
11107TIP3    H133198   1.275   8.100   4.707
11107TIP3    H233199   1.415   8.046   4.696
11108TIP3   OH233200   1.736   8.264   4.880
11108TIP3    H133201   1.775   8.259   4.967
11108TIP3    H233202   1.797   8.319   4.830
11109TIP3   OH233203   1.919   8.421   4.746
11109TIP3    H133204   1.978   8.365   4.696
11109TIP3    H233205   1.977   8.470   4.805
11110TIP3   OH233206   2.724   6.750   4.843
11110TIP3    H133207   2.635   6.733   4.812
11110TIP3    H233208   2.769   6.666   4.836
11111TIP3   OH233209   0.975   8.266   4.786
11111TIP3    H133210   0.891   8.306   4.764
11111TIP3    H233211   1.013   8.325   4.852
11112TIP3   OH233212   1.209   8.250   4.637
11112TIP3    H133213   1.124   8.259   4.680
11112TIP3    H233214   1.194   8.282   4.547
11113TIP3   OH233215   1.635   8.290   4.424
11113TIP3    H133216   1.568   8.296   4.356
11113TIP3    H233217   1.639   8.378   4.462
11114TIP3   OH233218   1.899   8.235   4.477
11114TIP3    H133219   1.807   8.249   4.456
11114TIP3    H233220   1.946   8.299   4.424
11115TIP3   OH233221   2.112   8.406   4.383
11115TIP3    H133222   2.101   8.490   4.339
11115TIP3    H233223   2.137   8.345   4.313
11116TIP3   OH233224   0.892   8.056   4.510
11116TIP3    H133225   0.917   8.036   4.600
11116TIP3    H233226   0.965   8.023   4.457
11117TIP3   OH233227   1.101   7.946   4.375
11117TIP3    H133228   1.115   7.860   4.414
11117TIP3    H233229   1.187   7.987   4.375
11118TIP3   OH233230   1.370   8.028   4.391
11118TIP3    H133231   1.389   7.936   4.377
11118TIP3    H233232   1.427   8.053   4.464
11119TIP3   OH233233   1.863   6.712   4.532
11119TIP3    H133234   1.825   6.631   4.565
11119TIP3    H233235   1.942   6.684   4.485
11120TIP3   OH233236   2.425   6.597   4.340
11120TIP3    H133237   2.473   6.636   4.267
11120TIP3    H233238   2.358   6.661   4.362
11121TIP3   OH233239   2.553   6.676   4.114
11121TIP3    H133240   2.618   6.613   4.084
11121TIP3    H233241   2.595   6.761   4.103
11122TIP3   OH233242   1.185   6.377   4.470
11122TIP3    H133243   1.096   6.341   4.474
11122TIP3    H233244   1.241   6.300   4.464
11123TIP3   OH233245   0.980   6.272   4.110
11123TIP3    H133246   1.019   6.322   4.037
11123TIP3    H233247   0.954   6.339   4.173
11124TIP3   OH233248   1.658   6.427   4.363
11124TIP3    H133249   1.709   6.477   4.299
11124TIP3    H233250   1.697   6.449   4.448
11125TIP3   OH233251   2.099   6.618   4.414
11125TIP3    H133252   2.110   6.612   4.319
11125TIP3    H233253   2.120   6.531   4.447
11126TIP3   OH233254   2.227   6.508   3.909
11126TIP3    H133255   2.145   6.555   3.926
11126TIP3    H233256   2.212   6.420   3.945
11127TIP3   OH233257   0.665   7.842   3.919
11127TIP3    H133258   0.573   7.839   3.946
11127TIP3    H233259   0.671   7.918   3.860
11128TIP3   OH233260   1.108   6.415   3.893
11128TIP3    H133261   1.153   6.357   3.832
11128TIP3    H233262   1.176   6.473   3.926
11129TIP3   OH233263   1.595   6.643   4.002
11129TIP3    H133264   1.655   6.591   4.056
11129TIP3    H233265   1.612   6.734   4.027
11130TIP3   OH233266   1.472   8.011   3.482
11130TIP3    H133267   1.558   8.035   3.446
11130TIP3    H233268   1.441   7.941   3.424
11131TIP3   OH233269   2.167   8.154   3.579
11131TIP3    H133270   2.164   8.059   3.575
11131TIP3    H233271   2.126   8.184   3.498
11132TIP3   OH233272   1.406   6.664   5.357
11132TIP3    H133273   1.371   6.598   5.416
11132TIP3    H233274   1.498   6.672   5.383
11133TIP3   OH233275   1.651   6.672   5.482
11133TIP3    H133276   1.728   6.650   5.429
11133TIP3    H233277   1.647   6.602   5.547
11134TIP3   OH233278   0.773   7.846   3.539
11134TIP3    H133279   0.770   7.865   3.633
11134TIP3    H233280   0.856   7.800   3.525
11135TIP3   OH233281   2.468   6.762   5.265
11135TIP3    H133282   2.484   6.732   5.355
11135TIP3    H233283   2.554   6.758   5.222
11136TIP3   OH233284   2.388   8.284   4.766
11136TIP3    H133285   2.312   8.255   4.716
11136TIP3    H233286   2.373   8.378   4.779
11137TIP3   OH233287   3.667   7.686   3.518
11137TIP3    H133288   3.628   7.769   3.490
11137TIP3    H233289   3.604   7.620   3.491
11138TIP3   OH233290   2.961   7.537   4.284
11138TIP3    H133291   2.997   7.481   4.353
11138TIP3    H233292   3.038   7.568   4.236
11139TIP3   OH233293   3.928   7.992   3.595
11139TIP3    H133294   3.845   7.967   3.636
11139TIP3    H233295   3.954   8.072   3.639
11140TIP3   OH233296   2.937   7.965   3.979
11140TIP3    H133297   2.924   7.871   3.983
11140TIP3    H233298   3.032   7.975   3.969
11141TIP3   OH233299   2.632   7.167   3.753
11141TIP3    H133300   2.592   7.250   3.780
11141TIP3    H233301   2.561   7.119   3.710
11142TIP3   OH233302   2.709   7.472   3.973
11142TIP3    H133303   2.760   7.396   3.998
11142TIP3    H233304   2.773   7.535   3.940
11143TIP3   OH233305   3.582   8.411   3.612
11143TIP3    H133306   3.613   8.344   3.550
11143TIP3    H233307   3.567   8.363   3.693
11144TIP3   OH233308   3.459   7.923   3.932
11144TIP3    H133309   3.492   7.878   3.855
11144TIP3    H233310   3.538   7.952   3.978
11145TIP3   OH233311   4.507   7.214   3.947
11145TIP3    H133312   4.524   7.299   3.988
11145TIP3    H233313   4.541   7.223   3.858
11146TIP3   OH233314   3.220   7.044   3.932
11146TIP3    H133315   3.194   7.114   3.873
11146TIP3    H233316   3.169   6.968   3.904
11147TIP3   OH233317   3.917   7.142   3.553
11147TIP3    H133318   3.973   7.172   3.624
11147TIP3    H233319   3.955   7.179   3.474
11148TIP3   OH233320   2.856   7.256   4.062
11148TIP3    H133321   2.939   7.237   4.106
11148TIP3    H233322   2.859   7.202   3.982
11149TIP3   OH233323   3.267   7.453   3.861
11149TIP3    H133324   3.357   7.441   3.830
11149TIP3    H233325   3.222   7.373   3.835
11150TIP3   OH233326   4.563   7.433   4.114
11150TIP3    H133327   4.473   7.467   4.111
11150TIP3    H233328   4.597   7.466   4.197
11151TIP3   OH233329   3.212   7.043   4.386
11151TIP3    H133330   3.160   7.080   4.314
11151TIP3    H233331   3.157   7.057   4.464
11152TIP3   OH233332   3.530   7.891   3.402
11152TIP3    H133333   3.505   7.869   3.313
11152TIP3    H233334   3.488   7.975   3.419
11153TIP3   OH233335   3.301   7.821   4.139
11153TIP3    H133336   3.246   7.888   4.180
11153TIP3    H233337   3.347   7.868   4.069
11154TIP3   OH233338   4.038   7.219   3.795
11154TIP3    H133339   4.089   7.138   3.802
11154TIP3    H233340   4.102   7.288   3.809
11155TIP3   OH233341   3.101   7.153   4.157
11155TIP3    H133342   3.158   7.226   4.180
11155TIP3    H233343   3.144   7.110   4.084
11156TIP3   OH233344   3.145   8.014   4.260
11156TIP3    H133345   3.134   8.105   4.232
11156TIP3    H233346   3.069   7.996   4.314
11157TIP3   OH233347   2.525   7.722   3.512
11157TIP3    H133348   2.489   7.738   3.425
11157TIP3    H233349   2.547   7.809   3.545
11158TIP3   OH233350   3.963   8.225   3.746
11158TIP3    H133351   3.879   8.218   3.791
11158TIP3    H233352   3.962   8.311   3.705
11159TIP3   OH233353   4.309   7.123   4.125
11159TIP3    H133354   4.231   7.166   4.090
11159TIP3    H233355   4.376   7.138   4.058
11160TIP3   OH233356   3.550   6.736   4.114
11160TIP3    H133357   3.546   6.644   4.140
11160TIP3    H233358   3.473   6.776   4.154
11161TIP3   OH233359   3.680   8.256   3.401
11161TIP3    H133360   3.731   8.178   3.382
11161TIP3    H233361   3.736   8.329   3.375
11162TIP3   OH233362   3.834   8.042   3.336
11162TIP3    H133363   3.836   7.966   3.279
11162TIP3    H233364   3.880   8.015   3.415
11163TIP3   OH233365   4.196   8.131   4.099
11163TIP3    H133366   4.191   8.058   4.037
11163TIP3    H233367   4.181   8.209   4.045
11164TIP3   OH233368   3.499   7.520   3.371
11164TIP3    H133369   3.416   7.564   3.352
11164TIP3    H233370   3.543   7.516   3.286
11165TIP3   OH233371   3.463   7.328   3.051
11165TIP3    H133372   3.528   7.377   3.101
11165TIP3    H233373   3.513   7.262   3.003
11166TIP3   OH233374   4.388   7.777   3.959
11166TIP3    H133375   4.307   7.828   3.959
11166TIP3    H233376   4.424   7.788   3.871
11167TIP3   OH233377   3.854   7.611   3.330
11167TIP3    H133378   3.799   7.640   3.403
11167TIP3    H233379   3.935   7.579   3.371
11168TIP3   OH233380   4.107   7.633   4.277
11168TIP3    H133381   4.098   7.719   4.318
11168TIP3    H233382   4.025   7.619   4.230
11169TIP3   OH233383   3.061   7.591   3.731
11169TIP3    H133384   3.023   7.533   3.665
11169TIP3    H233385   3.134   7.541   3.767
11170TIP3   OH233386   3.196   8.021   3.875
11170TIP3    H133387   3.173   8.004   3.784
11170TIP3    H233388   3.286   7.989   3.884
11171TIP3   OH233389   3.180   7.578   4.098
11171TIP3    H133390   3.215   7.542   4.017
11171TIP3    H233391   3.226   7.661   4.110
11172TIP3   OH233392   3.734   8.204   3.890
11172TIP3    H133393   3.717   8.291   3.927
11172TIP3    H233394   3.712   8.143   3.961
11173TIP3   OH233395   3.343   8.118   4.427
11173TIP3    H133396   3.285   8.176   4.477
11173TIP3    H233397   3.284   8.066   4.372
11174TIP3   OH233398   3.682   7.473   3.160
11174TIP3    H133399   3.743   7.529   3.208
11174TIP3    H233400   3.709   7.481   3.069
11175TIP3   OH233401   3.106   7.671   4.561
11175TIP3    H133402   3.110   7.764   4.585
11175TIP3    H233403   3.012   7.652   4.558
11176TIP3   OH233404   3.426   8.147   3.423
11176TIP3    H133405   3.512   8.188   3.420
11176TIP3    H233406   3.371   8.201   3.367
11177TIP3   OH233407   3.135   8.280   4.517
11177TIP3    H133408   3.108   8.285   4.425
11177TIP3    H233409   3.052   8.270   4.565
11178TIP3   OH233410   4.191   6.697   3.214
11178TIP3    H133411   4.114   6.717   3.266
11178TIP3    H233412   4.202   6.772   3.156
11179TIP3   OH233413   2.945   7.431   3.530
11179TIP3    H133414   2.870   7.479   3.496
11179TIP3    H233415   2.914   7.341   3.539
11180TIP3   OH233416   4.017   8.074   2.762
11180TIP3    H133417   4.014   8.167   2.740
11180TIP3    H233418   4.106   8.047   2.742
11181TIP3   OH233419   2.733   7.836   4.460
11181TIP3    H133420   2.663   7.817   4.397
11181TIP3    H233421   2.768   7.750   4.484
11182TIP3   OH233422   2.605   8.011   4.100
11182TIP3    H133423   2.700   8.012   4.089
11182TIP3    H233424   2.586   8.088   4.153
11183TIP3   OH233425   4.434   8.472   4.165
11183TIP3    H133426   4.439   8.378   4.184
11183TIP3    H233427   4.352   8.500   4.208
11184TIP3   OH233428   3.531   8.259   4.285
11184TIP3    H133429   3.528   8.350   4.316
11184TIP3    H233430   3.464   8.214   4.336
11185TIP3   OH233431   3.322   8.343   3.243
11185TIP3    H133432   3.279   8.328   3.159
11185TIP3    H233433   3.289   8.428   3.272
11186TIP3   OH233434   2.751   8.208   3.619
11186TIP3    H133435   2.794   8.202   3.705
11186TIP3    H233436   2.701   8.127   3.612
11187TIP3   OH233437   3.524   8.293   2.867
11187TIP3    H133438   3.573   8.219   2.832
11187TIP3    H233439   3.558   8.304   2.956
11188TIP3   OH233440   3.576   8.328   3.138
11188TIP3    H133441   3.489   8.329   3.178
11188TIP3    H233442   3.633   8.290   3.204
11189TIP3   OH233443   4.335   7.592   4.437
11189TIP3    H133444   4.254   7.601   4.386
11189TIP3    H233445   4.352   7.498   4.438
11190TIP3   OH233446   2.930   8.025   4.432
11190TIP3    H133447   2.981   8.014   4.513
11190TIP3    H233448   2.859   7.962   4.440
11191TIP3   OH233449   3.314   6.829   4.240
11191TIP3    H133450   3.230   6.794   4.210
11191TIP3    H233451   3.291   6.908   4.289
11192TIP3   OH233452   3.856   6.951   4.442
11192TIP3    H133453   3.925   6.927   4.502
11192TIP3    H233454   3.775   6.936   4.491
11193TIP3   OH233455   4.077   7.363   4.357
11193TIP3    H133456   4.038   7.359   4.445
11193TIP3    H233457   4.073   7.455   4.333
11194TIP3   OH233458   3.759   7.477   2.900
11194TIP3    H133459   3.711   7.468   2.817
11194TIP3    H233460   3.843   7.514   2.874
11195TIP3   OH233461   3.464   6.872   3.216
11195TIP3    H133462   3.427   6.878   3.305
11195TIP3    H233463   3.429   6.791   3.181
11196TIP3   OH233464   3.264   7.359   4.248
11196TIP3    H133465   3.219   7.365   4.332
11196TIP3    H233466   3.239   7.439   4.202
11197TIP3   OH233467   3.123   7.241   3.767
11197TIP3    H133468   3.034   7.214   3.793
11197TIP3    H233469   3.134   7.207   3.679
11198TIP3   OH233470   3.608   7.296   3.494
11198TIP3    H133471   3.570   7.376   3.457
11198TIP3    H233472   3.675   7.271   3.430
11199TIP3   OH233473   3.797   7.583   4.574
11199TIP3    H133474   3.772   7.515   4.637
11199TIP3    H233475   3.889   7.600   4.592
11200TIP3   OH233476   3.096   7.372   4.470
11200TIP3    H133477   3.108   7.435   4.540
11200TIP3    H233478   3.076   7.290   4.514
11201TIP3   OH233479   3.133   6.852   3.187
11201TIP3    H133480   3.123   6.855   3.282
11201TIP3    H233481   3.054   6.894   3.153
11202TIP3   OH233482   2.695   6.895   4.050
11202TIP3    H133483   2.757   6.933   4.112
11202TIP3    H233484   2.740   6.897   3.966
11203TIP3   OH233485   2.568   6.868   3.552
11203TIP3    H133486   2.616   6.906   3.478
11203TIP3    H233487   2.508   6.937   3.581
11204TIP3   OH233488   3.861   7.574   4.175
11204TIP3    H133489   3.817   7.509   4.231
11204TIP3    H233490   3.790   7.629   4.142
11205TIP3   OH233491   3.486   7.092   3.852
11205TIP3    H133492   3.402   7.071   3.893
11205TIP3    H233493   3.544   7.021   3.877
11206TIP3   OH233494   2.890   7.110   3.833
11206TIP3    H133495   2.803   7.117   3.794
11206TIP3    H233496   2.919   7.021   3.811
11207TIP3   OH233497   3.142   7.115   3.525
11207TIP3    H133498   3.237   7.123   3.517
11207TIP3    H233499   3.109   7.133   3.437
11208TIP3   OH233500   3.903   7.108   4.024
11208TIP3    H133501   3.889   7.133   4.115
11208TIP3    H233502   3.929   7.017   4.028
11209TIP3   OH233503   3.035   7.143   3.275
11209TIP3    H133504   2.973   7.093   3.222
11209TIP3    H233505   3.090   7.189   3.210
11210TIP3   OH233506   4.150   8.820   4.254
11210TIP3    H133507   4.150   8.835   4.159
11210TIP3    H233508   4.227   8.867   4.285
11211TIP3   OH233509   3.091   7.933   4.664
11211TIP3    H133510   3.170   7.954   4.714
11211TIP3    H233511   3.020   7.939   4.728
11212TIP3   OH233512   3.678   7.277   3.924
11212TIP3    H133513   3.607   7.229   3.883
11212TIP3    H233514   3.643   7.306   4.008
11213TIP3   OH233515   3.035   6.863   3.817
11213TIP3    H133516   3.007   6.788   3.869
11213TIP3    H233517   3.063   6.826   3.734
11214TIP3   OH233518   3.539   7.325   4.170
11214TIP3    H133519   3.449   7.347   4.195
11214TIP3    H233520   3.593   7.367   4.237
11215TIP3   OH233521   3.258   7.654   3.314
11215TIP3    H133522   3.183   7.599   3.290
11215TIP3    H233523   3.232   7.694   3.397
11216TIP3   OH233524   4.167   7.938   3.906
11216TIP3    H133525   4.219   7.985   3.842
11216TIP3    H233526   4.086   7.916   3.860
11217TIP3   OH233527   3.718   6.971   3.212
11217TIP3    H133528   3.624   6.951   3.208
11217TIP3    H233529   3.721   7.067   3.221
11218TIP3   OH233530   3.649   7.982   4.346
11218TIP3    H133531   3.701   7.972   4.426
11218TIP3    H233532   3.611   8.070   4.354
11219TIP3   OH233533   3.780   7.238   3.276
11219TIP3    H133534   3.876   7.243   3.276
11219TIP3    H233535   3.752   7.316   3.227
11220TIP3   OH233536   2.944   7.680   3.966
11220TIP3    H133537   2.978   7.660   3.878
11220TIP3    H233538   3.009   7.643   4.025
11221TIP3   OH233539   3.412   7.813   3.156
11221TIP3    H133540   3.363   7.895   3.150
11221TIP3    H233541   3.356   7.755   3.208
11222TIP3   OH233542   2.832   7.606   4.594
11222TIP3    H133543   2.841   7.584   4.686
11222TIP3    H233544   2.756   7.557   4.565
11223TIP3   OH233545   3.566   7.739   4.610
11223TIP3    H133546   3.497   7.676   4.589
11223TIP3    H233547   3.647   7.694   4.586
11224TIP3   OH233548   3.801   8.274   4.210
11224TIP3    H133549   3.706   8.264   4.221
11224TIP3    H233550   3.830   8.316   4.291
11225TIP3   OH233551   4.193   7.329   3.096
11225TIP3    H133552   4.136   7.284   3.034
11225TIP3    H233553   4.201   7.418   3.063
11226TIP3   OH233554   4.446   8.189   4.191
11226TIP3    H133555   4.352   8.180   4.181
11226TIP3    H233556   4.481   8.165   4.105
11227TIP3   OH233557   3.930   8.138   3.021
11227TIP3    H133558   3.902   8.062   3.074
11227TIP3    H233559   3.954   8.100   2.937
11228TIP3   OH233560   3.067   8.012   3.627
11228TIP3    H133561   3.067   8.088   3.569
11228TIP3    H233562   2.975   7.995   3.644
11229TIP3   OH233563   2.637   7.298   3.342
11229TIP3    H133564   2.677   7.383   3.361
11229TIP3    H233565   2.554   7.300   3.390
11230TIP3   OH233566   3.162   7.767   3.541
11230TIP3    H133567   3.143   7.857   3.566
11230TIP3    H233568   3.126   7.713   3.611
11231TIP3   OH233569   3.350   8.339   4.080
11231TIP3    H133570   3.388   8.412   4.030
11231TIP3    H233571   3.423   8.307   4.133
11232TIP3   OH233572   2.985   8.235   3.477
11232TIP3    H133573   2.897   8.237   3.515
11232TIP3    H233574   3.016   8.325   3.484
11233TIP3   OH233575   3.700   7.983   4.075
11233TIP3    H133576   3.670   7.979   4.165
11233TIP3    H233577   3.796   7.978   4.081
11234TIP3   OH233578   3.708   7.881   2.929
11234TIP3    H133579   3.747   7.860   3.015
11234TIP3    H233580   3.624   7.835   2.929
11235TIP3   OH233581   3.950   8.502   4.095
11235TIP3    H133582   3.879   8.438   4.101
11235TIP3    H233583   3.926   8.558   4.021
11236TIP3   OH233584   4.021   8.347   2.725
11236TIP3    H133585   4.061   8.416   2.671
11236TIP3    H233586   3.943   8.388   2.762
11237TIP3   OH233587   3.040   7.120   4.592
11237TIP3    H133588   2.945   7.129   4.597
11237TIP3    H233589   3.063   7.065   4.667
11238TIP3   OH233590   3.872   7.828   3.155
11238TIP3    H133591   3.856   7.753   3.212
11238TIP3    H233592   3.965   7.822   3.133
11239TIP3   OH233593   2.777   8.226   4.247
11239TIP3    H133594   2.828   8.165   4.300
11239TIP3    H233595   2.784   8.310   4.292
11240TIP3   OH233596   3.052   7.842   2.934
11240TIP3    H133597   3.060   7.751   2.905
11240TIP3    H233598   3.036   7.836   3.029
11241TIP3   OH233599   2.993   7.855   3.206
11241TIP3    H133600   3.061   7.827   3.268
11241TIP3    H233601   2.993   7.950   3.212
11242TIP3   OH233602   2.725   7.553   3.417
11242TIP3    H133603   2.658   7.599   3.467
11242TIP3    H233604   2.743   7.610   3.342
11243TIP3   OH233605   3.888   7.173   4.285
11243TIP3    H133606   3.963   7.224   4.316
11243TIP3    H233607   3.880   7.100   4.346
11244TIP3   OH233608   3.774   6.920   3.477
11244TIP3    H133609   3.752   6.935   3.385
11244TIP3    H233610   3.815   7.001   3.505
11245TIP3   OH233611   3.265   8.040   3.147
11245TIP3    H133612   3.182   8.065   3.185
11245TIP3    H233613   3.287   8.112   3.088
11246TIP3   OH233614   3.419   7.122   3.582
11246TIP3    H133615   3.484   7.183   3.546
11246TIP3    H233616   3.442   7.116   3.675
11247TIP3   OH233617   3.728   7.414   4.355
11247TIP3    H133618   3.746   7.465   4.434
11247TIP3    H233619   3.773   7.331   4.371
11248TIP3   OH233620   3.598   6.805   3.653
11248TIP3    H133621   3.627   6.847   3.734
11248TIP3    H233622   3.655   6.841   3.586
11249TIP3   OH233623   3.017   8.126   3.228
11249TIP3    H133624   2.996   8.196   3.167
11249TIP3    H233625   3.004   8.165   3.315
11250TIP3   OH233626   3.102   6.841   3.466
11250TIP3    H133627   3.090   6.931   3.493
11250TIP3    H233628   3.197   6.826   3.473
11251TIP3   OH233629   4.344   7.315   4.340
11251TIP3    H133630   4.249   7.322   4.352
11251TIP3    H233631   4.355   7.251   4.270
11252TIP3   OH233632   2.746   7.727   3.199
11252TIP3    H133633   2.817   7.790   3.207
11252TIP3    H233634   2.777   7.663   3.134
11253TIP3   OH233635   2.651   7.019   3.339
11253TIP3    H133636   2.665   7.113   3.348
11253TIP3    H233637   2.606   7.009   3.256
11254TIP3   OH233638   3.990   8.490   3.672
11254TIP3    H133639   3.946   8.544   3.607
11254TIP3    H233640   4.083   8.501   3.655
11255TIP3   OH233641   3.051   6.742   4.205
11255TIP3    H133642   3.020   6.709   4.121
11255TIP3    H233643   3.042   6.668   4.265
11256TIP3   OH233644   2.576   7.991   3.596
11256TIP3    H133645   2.527   8.024   3.671
11256TIP3    H233646   2.531   8.029   3.520
11257TIP3   OH233647   2.788   8.541   4.686
11257TIP3    H133648   2.861   8.560   4.744
11257TIP3    H233649   2.793   8.446   4.672
11258TIP3   OH233650   3.245   8.457   4.701
11258TIP3    H133651   3.332   8.420   4.719
11258TIP3    H233652   3.208   8.398   4.634
11259TIP3   OH233653   3.206   8.044   2.826
11259TIP3    H133654   3.157   7.973   2.869
11259TIP3    H233655   3.279   7.999   2.784
11260TIP3   OH233656   3.871   8.381   4.452
11260TIP3    H133657   3.881   8.314   4.519
11260TIP3    H233658   3.944   8.441   4.467
11261TIP3   OH233659   3.648   8.081   2.748
11261TIP3    H133660   3.685   8.018   2.810
11261TIP3    H233661   3.704   8.075   2.671
11262TIP3   OH233662   2.883   7.915   4.845
11262TIP3    H133663   2.902   7.822   4.859
11262TIP3    H233664   2.793   7.916   4.812
11263TIP3   OH233665   2.872   7.536   3.050
11263TIP3    H133666   2.925   7.514   3.126
11263TIP3    H233667   2.935   7.550   2.979
11264TIP3   OH233668   3.503   8.015   4.627
11264TIP3    H133669   3.451   8.033   4.549
11264TIP3    H233670   3.532   7.924   4.616
11265TIP3   OH233671   3.459   7.758   2.891
11265TIP3    H133672   3.433   7.768   2.982
11265TIP3    H233673   3.438   7.667   2.869
11266TIP3   OH233674   3.959   8.044   4.208
11266TIP3    H133675   4.043   8.078   4.176
11266TIP3    H233676   3.902   8.121   4.214
11267TIP3   OH233677   3.002   7.659   4.860
11267TIP3    H133678   3.082   7.657   4.808
11267TIP3    H233679   3.030   7.687   4.947
11268TIP3   OH233680   3.048   7.480   3.262
11268TIP3    H133681   3.025   7.445   3.348
11268TIP3    H233682   3.096   7.409   3.219
11269TIP3   OH233683   3.360   7.563   4.516
11269TIP3    H133684   3.275   7.604   4.528
11269TIP3    H233685   3.390   7.593   4.430
11270TIP3   OH233686   3.189   7.297   3.106
11270TIP3    H133687   3.159   7.301   3.015
11270TIP3    H233688   3.284   7.304   3.099
11271TIP3   OH233689   3.851   7.938   4.593
11271TIP3    H133690   3.927   7.905   4.546
11271TIP3    H233691   3.847   7.886   4.673
11272TIP3   OH233692   3.984   7.585   2.780
11272TIP3    H133693   3.969   7.543   2.696
11272TIP3    H233694   3.960   7.677   2.765
11273TIP3   OH233695   3.462   7.331   4.624
11273TIP3    H133696   3.464   7.261   4.559
11273TIP3    H233697   3.427   7.407   4.577
11274TIP3   OH233698   3.469   7.136   4.419
11274TIP3    H133699   3.494   7.169   4.333
11274TIP3    H233700   3.378   7.106   4.408
11275TIP3   OH233701   3.473   7.672   4.292
11275TIP3    H133702   3.543   7.734   4.313
11275TIP3    H233703   3.413   7.722   4.237
11276TIP3   OH233704   4.065   7.619   4.671
11276TIP3    H133705   4.110   7.535   4.681
11276TIP3    H233706   4.136   7.683   4.664
11277TIP3   OH233707   4.101   7.890   4.395
11277TIP3    H133708   4.044   7.942   4.339
11277TIP3    H233709   4.189   7.911   4.364
11278TIP3   OH233710   3.346   7.413   4.868
11278TIP3    H133711   3.277   7.350   4.889
11278TIP3    H233712   3.375   7.388   4.780
11279TIP3   OH233713   3.592   6.903   4.522
11279TIP3    H133714   3.549   6.983   4.491
11279TIP3    H233715   3.526   6.835   4.510
11280TIP3   OH233716   3.717   7.371   4.728
11280TIP3    H133717   3.709   7.358   4.822
11280TIP3    H233718   3.631   7.350   4.693
11281TIP3   OH233719   3.962   7.323   4.598
11281TIP3    H133720   3.884   7.325   4.653
11281TIP3    H233721   4.033   7.300   4.657
11282TIP3   OH233722   4.199   7.290   4.745
11282TIP3    H133723   4.213   7.195   4.752
11282TIP3    H233724   4.195   7.320   4.836
11283TIP3   OH233725   3.177   7.195   4.932
11283TIP3    H133726   3.184   7.107   4.896
11283TIP3    H233727   3.216   7.188   5.019
11284TIP3   OH233728   3.658   6.879   4.788
11284TIP3    H133729   3.726   6.812   4.783
11284TIP3    H233730   3.628   6.890   4.698
11285TIP3   OH233731   3.755   7.093   4.933
11285TIP3    H133732   3.724   7.020   4.879
11285TIP3    H233733   3.682   7.154   4.935
11286TIP3   OH233734   3.019   8.334   3.047
11286TIP3    H133735   3.106   8.310   3.016
11286TIP3    H233736   2.973   8.365   2.969
11287TIP3   OH233737   2.473   7.718   3.224
11287TIP3    H133738   2.568   7.728   3.216
11287TIP3    H233739   2.454   7.635   3.179
11288TIP3   OH233740   2.370   8.301   3.689
11288TIP3    H133741   2.307   8.249   3.640
11288TIP3    H233742   2.415   8.239   3.745
11289TIP3   OH233743   2.520   8.137   3.852
11289TIP3    H133744   2.514   8.066   3.916
11289TIP3    H233745   2.570   8.205   3.897
11290TIP3   OH233746   4.260   8.542   3.652
11290TIP3    H133747   4.286   8.573   3.739
11290TIP3    H233748   4.312   8.593   3.591
11291TIP3   OH233749   4.289   8.567   3.937
11291TIP3    H133750   4.238   8.486   3.929
11291TIP3    H233751   4.358   8.547   4.000
11292TIP3   OH233752   4.329   8.277   4.505
11292TIP3    H133753   4.257   8.286   4.568
11292TIP3    H233754   4.376   8.360   4.511
11293TIP3   OH233755   4.146   7.795   3.118
11293TIP3    H133756   4.205   7.863   3.085
11293TIP3    H233757   4.194   7.755   3.190
11294TIP3   OH233758   4.279   7.651   3.315
11294TIP3    H133759   4.214   7.610   3.373
11294TIP3    H233760   4.345   7.686   3.374
11295TIP3   OH233761   4.346   8.059   3.744
11295TIP3    H133762   4.396   7.987   3.705
11295TIP3    H233763   4.353   8.130   3.681
11296TIP3   OH233764   4.128   8.343   3.942
11296TIP3    H133765   4.059   8.389   3.990
11296TIP3    H233766   4.083   8.303   3.868
11297TIP3   OH233767   4.189   7.570   2.963
11297TIP3    H133768   4.120   7.567   2.897
11297TIP3    H233769   4.170   7.648   3.015
11298TIP3   OH233770   4.036   7.222   2.902
11298TIP3    H133771   3.995   7.256   2.822
11298TIP3    H233772   4.026   7.127   2.896
11299TIP3   OH233773   4.084   7.492   3.453
11299TIP3    H133774   4.083   7.405   3.414
11299TIP3    H233775   4.108   7.478   3.544
11300TIP3   OH233776   2.697   7.570   4.229
11300TIP3    H133777   2.687   7.538   4.139
11300TIP3    H233778   2.791   7.568   4.245
11301TIP3   OH233779   4.365   7.934   4.313
11301TIP3    H133780   4.429   7.864   4.299
11301TIP3    H233781   4.398   8.008   4.262
11302TIP3   OH233782   4.539   7.719   4.307
11302TIP3    H133783   4.467   7.677   4.355
11302TIP3    H233784   4.614   7.661   4.324
11303TIP3   OH233785   3.997   6.953   2.882
11303TIP3    H133786   4.065   6.920   2.940
11303TIP3    H233787   3.918   6.906   2.908
11304TIP3   OH233788   4.072   7.235   3.333
11304TIP3    H133789   4.115   7.151   3.350
11304TIP3    H233790   4.114   7.267   3.253
11305TIP3   OH233791   4.228   7.399   3.858
11305TIP3    H133792   4.307   7.419   3.808
11305TIP3    H233793   4.242   7.444   3.942
11306TIP3   OH233794   4.304   7.546   4.086
11306TIP3    H133795   4.241   7.574   4.151
11306TIP3    H233796   4.336   7.627   4.046
11307TIP3   OH233797   2.913   7.250   4.866
11307TIP3    H133798   3.007   7.248   4.886
11307TIP3    H233799   2.879   7.169   4.904
11308TIP3   OH233800   4.761   7.146   4.630
11308TIP3    H133801   4.826   7.090   4.589
11308TIP3    H233802   4.723   7.196   4.558
11309TIP3   OH233803   4.184   6.986   3.396
11309TIP3    H133804   4.230   6.967   3.478
11309TIP3    H233805   4.122   6.914   3.386
11310TIP3   OH233806   2.892   6.969   4.230
11310TIP3    H133807   2.945   6.890   4.234
11310TIP3    H233808   2.954   7.039   4.211
11311TIP3   OH233809   2.678   7.236   4.278
11311TIP3    H133810   2.730   7.228   4.198
11311TIP3    H233811   2.704   7.320   4.315
11312TIP3   OH233812   4.610   7.261   4.433
11312TIP3    H133813   4.528   7.299   4.465
11312TIP3    H233814   4.582   7.187   4.379
11313TIP3   OH233815   4.231   6.897   3.030
11313TIP3    H133816   4.276   6.836   2.970
11313TIP3    H233817   4.287   6.974   3.032
11314TIP3   OH233818   2.656   6.718   3.762
11314TIP3    H133819   2.577   6.717   3.815
11314TIP3    H233820   2.637   6.781   3.692
11315TIP3   OH233821   3.819   8.465   3.298
11315TIP3    H133822   3.865   8.444   3.217
11315TIP3    H233823   3.870   8.536   3.337
11316TIP3   OH233824   2.889   6.816   4.619
11316TIP3    H133825   2.834   6.797   4.695
11316TIP3    H233826   2.829   6.855   4.555
11317TIP3   OH233827   2.900   8.268   4.672
11317TIP3    H133828   2.811   8.235   4.662
11317TIP3    H233829   2.922   8.250   4.764
11318TIP3   OH233830   3.126   8.286   4.231
11318TIP3    H133831   3.069   8.356   4.199
11318TIP3    H233832   3.210   8.301   4.187
11319TIP3   OH233833   3.537   8.524   4.361
11319TIP3    H133834   3.573   8.517   4.450
11319TIP3    H233835   3.601   8.577   4.314
11320TIP3   OH233836   3.729   8.677   4.233
11320TIP3    H133837   3.795   8.623   4.190
11320TIP3    H233838   3.779   8.734   4.291
11321TIP3   OH233839   4.523   7.005   4.331
11321TIP3    H133840   4.434   6.987   4.301
11321TIP3    H233841   4.568   6.921   4.324
11322TIP3   OH233842   2.776   8.530   4.271
11322TIP3    H133843   2.684   8.551   4.253
11322TIP3    H233844   2.801   8.591   4.341
11323TIP3   OH233845   3.009   8.507   4.125
11323TIP3    H133846   2.925   8.518   4.171
11323TIP3    H233847   2.991   8.534   4.035
11324TIP3   OH233848   3.434   8.542   3.909
11324TIP3    H133849   3.365   8.555   3.844
11324TIP3    H233850   3.443   8.627   3.953
11325TIP3   OH233851   3.698   8.473   3.949
11325TIP3    H133852   3.606   8.494   3.933
11325TIP3    H233853   3.746   8.544   3.906
11326TIP3   OH233854   3.904   8.661   3.871
11326TIP3    H133855   3.895   8.747   3.830
11326TIP3    H233856   3.933   8.603   3.800
11327TIP3   OH233857   2.696   8.315   3.998
11327TIP3    H133858   2.723   8.292   4.086
11327TIP3    H233859   2.766   8.282   3.942
11328TIP3   OH233860   2.896   8.206   3.853
11328TIP3    H133861   2.908   8.122   3.898
11328TIP3    H233862   2.983   8.247   3.857
11329TIP3   OH233863   3.163   8.296   3.878
11329TIP3    H133864   3.179   8.202   3.866
11329TIP3    H233865   3.217   8.320   3.954
11330TIP3   OH233866   3.672   6.891   3.908
11330TIP3    H133867   3.647   6.840   3.985
11330TIP3    H233868   3.766   6.872   3.896
11331TIP3   OH233869   4.221   6.887   3.868
11331TIP3    H133870   4.261   6.907   3.784
11331TIP3    H233871   4.131   6.862   3.847
11332TIP3   OH233872   4.338   6.932   3.623
11332TIP3    H133873   4.404   6.869   3.594
11332TIP3    H233874   4.379   7.018   3.608
11333TIP3   OH233875   2.960   6.638   3.964
11333TIP3    H133876   2.872   6.603   3.969
11333TIP3    H233877   3.016   6.561   3.958
11334TIP3   OH233878   2.778   6.526   3.605
11334TIP3    H133879   2.815   6.571   3.529
11334TIP3    H233880   2.750   6.596   3.664
11335TIP3   OH233881   3.428   6.686   3.852
11335TIP3    H133882   3.479   6.725   3.781
11335TIP3    H233883   3.475   6.711   3.931
11336TIP3   OH233884   3.941   6.828   3.840
11336TIP3    H133885   3.947   6.793   3.751
11336TIP3    H233886   3.947   6.751   3.896
11337TIP3   OH233887   4.000   6.774   3.399
11337TIP3    H133888   3.918   6.819   3.420
11337TIP3    H233889   3.989   6.686   3.435
11338TIP3   OH233890   2.453   8.102   3.379
11338TIP3    H133891   2.370   8.073   3.340
11338TIP3    H233892   2.467   8.190   3.343
11339TIP3   OH233893   2.896   6.663   3.381
11339TIP3    H133894   2.940   6.607   3.319
11339TIP3    H233895   2.964   6.723   3.413
11340TIP3   OH233896   3.377   6.872   3.481
11340TIP3    H133897   3.437   6.816   3.531
11340TIP3    H233898   3.393   6.960   3.514
11341TIP3   OH233899   3.271   8.263   2.971
11341TIP3    H133900   3.354   8.292   2.933
11341TIP3    H233901   3.240   8.194   2.913
11342TIP3   OH233902   3.952   8.405   3.063
11342TIP3    H133903   3.948   8.310   3.054
11342TIP3    H233904   3.916   8.439   2.982
11343TIP3   OH233905   3.196   6.926   4.845
11343TIP3    H133906   3.161   6.859   4.903
11343TIP3    H233907   3.288   6.934   4.870
11344TIP3   OH233908   3.443   6.931   4.966
11344TIP3    H133909   3.520   6.908   4.914
11344TIP3    H233910   3.438   6.861   5.032
11345TIP3   OH233911   2.567   8.096   3.019
11345TIP3    H133912   2.566   8.111   3.114
11345TIP3    H233913   2.651   8.053   3.003
11346TIP3   OH233914   4.264   7.019   4.751
11346TIP3    H133915   4.280   6.989   4.840
11346TIP3    H233916   4.350   7.014   4.709
11347TIP3   OH233917   4.181   8.546   4.252
11347TIP3    H133918   4.103   8.518   4.204
11347TIP3    H233919   4.171   8.640   4.263
11348TIP3   OH233920   5.467   7.962   2.982
11348TIP3    H133921   5.429   8.047   2.959
11348TIP3    H233922   5.397   7.899   2.964
11349TIP3   OH233923   5.462   7.923   3.409
11349TIP3    H133924   5.509   7.915   3.492
11349TIP3    H233925   5.417   7.839   3.399
11350TIP3   OH233926   4.757   7.785   3.767
11350TIP3    H133927   4.797   7.736   3.839
11350TIP3    H233928   4.830   7.811   3.712
11351TIP3   OH233929   5.722   8.303   3.151
11351TIP3    H133930   5.679   8.278   3.069
11351TIP3    H233931   5.714   8.226   3.207
11352TIP3   OH233932   4.742   8.217   3.458
11352TIP3    H133933   4.725   8.123   3.460
11352TIP3    H233934   4.838   8.224   3.451
11353TIP3   OH233935   4.429   7.422   3.237
11353TIP3    H133936   4.391   7.507   3.258
11353TIP3    H233937   4.359   7.374   3.193
11354TIP3   OH233938   4.509   7.732   3.457
11354TIP3    H133939   4.560   7.655   3.481
11354TIP3    H233940   4.574   7.797   3.430
11355TIP3   OH233941   5.327   8.653   3.113
11355TIP3    H133942   5.403   8.614   3.155
11355TIP3    H233943   5.281   8.698   3.184
11356TIP3   OH233944   5.267   8.147   3.422
11356TIP3    H133945   5.306   8.066   3.388
11356TIP3    H233946   5.340   8.193   3.463
11357TIP3   OH233947   6.294   7.469   3.411
11357TIP3    H133948   6.284   7.565   3.410
11357TIP3    H233949   6.340   7.449   3.330
11358TIP3   OH233950   5.675   7.637   3.459
11358TIP3    H133951   5.710   7.552   3.487
11358TIP3    H233952   5.638   7.620   3.373
11359TIP3   OH233953   5.028   7.297   3.419
11359TIP3    H133954   5.006   7.369   3.360
11359TIP3    H233955   4.973   7.224   3.389
11360TIP3   OH233956   5.723   7.401   3.053
11360TIP3    H133957   5.786   7.393   3.125
11360TIP3    H233958   5.774   7.433   2.979
11361TIP3   OH233959   4.653   7.512   3.545
11361TIP3    H133960   4.736   7.494   3.589
11361TIP3    H233961   4.656   7.461   3.465
11362TIP3   OH233962   5.069   7.712   3.367
11362TIP3    H133963   5.163   7.697   3.373
11362TIP3    H233964   5.033   7.630   3.333
11363TIP3   OH233965   6.325   7.690   3.627
11363TIP3    H133966   6.248   7.732   3.589
11363TIP3    H233967   6.289   7.623   3.686
11364TIP3   OH233968   5.009   7.301   3.870
11364TIP3    H133969   4.957   7.335   3.797
11364TIP3    H233970   4.954   7.316   3.947
11365TIP3   OH233971   5.352   8.188   2.874
11365TIP3    H133972   5.313   8.158   2.792
11365TIP3    H233973   5.321   8.278   2.885
11366TIP3   OH233974   5.100   8.075   3.633
11366TIP3    H133975   5.048   8.147   3.669
11366TIP3    H233976   5.150   8.114   3.561
11367TIP3   OH233977   5.879   7.422   3.276
11367TIP3    H133978   5.841   7.399   3.361
11367TIP3    H233979   5.935   7.498   3.294
11368TIP3   OH233980   4.898   7.408   3.640
11368TIP3    H133981   4.953   7.482   3.663
11368TIP3    H233982   4.944   7.364   3.568
11369TIP3   OH233983   4.947   8.276   3.744
11369TIP3    H133984   4.938   8.367   3.715
11369TIP3    H233985   4.869   8.260   3.796
11370TIP3   OH233986   4.320   7.977   2.997
11370TIP3    H133987   4.289   7.997   2.909
11370TIP3    H233988   4.344   8.063   3.033
11371TIP3   OH233989   6.081   7.368   3.587
11371TIP3    H133990   5.996   7.375   3.544
11371TIP3    H233991   6.144   7.388   3.518
11372TIP3   OH233992   5.351   6.994   3.604
11372TIP3    H133993   5.345   6.901   3.629
11372TIP3    H233994   5.274   7.035   3.642
11373TIP3   OH233995   5.975   8.404   3.560
11373TIP3    H133996   5.965   8.327   3.505
11373TIP3    H233997   5.935   8.475   3.510
11374TIP3   OH233998   5.292   7.784   2.852
11374TIP3    H133999   5.207   7.825   2.832
11374TIP3    H234000   5.336   7.779   2.767
11375TIP3   OH234001   5.257   7.584   2.538
11375TIP3    H134002   5.323   7.633   2.587
11375TIP3    H234003   5.307   7.518   2.490
11376TIP3   OH234004   6.176   8.036   3.438
11376TIP3    H134005   6.094   8.084   3.440
11376TIP3    H234006   6.212   8.052   3.351
11377TIP3   OH234007   5.649   7.881   2.796
11377TIP3    H134008   5.594   7.911   2.869
11377TIP3    H234009   5.729   7.849   2.839
11378TIP3   OH234010   5.874   7.900   3.740
11378TIP3    H134011   5.870   7.982   3.788
11378TIP3    H234012   5.789   7.893   3.696
11379TIP3   OH234013   4.871   7.845   3.215
11379TIP3    H134014   4.835   7.784   3.150
11379TIP3    H234015   4.944   7.797   3.255
11380TIP3   OH234016   5.008   8.262   3.360
11380TIP3    H134017   4.984   8.249   3.268
11380TIP3    H234018   5.096   8.225   3.367
11381TIP3   OH234019   4.967   7.840   3.590
11381TIP3    H134020   5.006   7.803   3.511
11381TIP3    H234021   5.015   7.921   3.605
11382TIP3   OH234022   5.144   8.378   3.914
11382TIP3    H134023   5.082   8.436   3.960
11382TIP3    H234024   5.089   8.325   3.857
11383TIP3   OH234025   5.477   7.730   2.642
11383TIP3    H134026   5.537   7.789   2.687
11383TIP3    H234027   5.504   7.734   2.550
11384TIP3   OH234028   4.903   7.927   4.055
11384TIP3    H134029   4.906   8.021   4.073
11384TIP3    H234030   4.810   7.907   4.048
11385TIP3   OH234031   5.269   8.459   2.897
11385TIP3    H134032   5.274   8.517   2.973
11385TIP3    H234033   5.195   8.493   2.846
11386TIP3   OH234034   4.934   8.538   3.998
11386TIP3    H134035   4.912   8.547   3.906
11386TIP3    H234036   4.851   8.523   4.043
11387TIP3   OH234037   5.985   6.953   2.701
11387TIP3    H134038   5.909   6.973   2.755
11387TIP3    H234039   5.996   7.029   2.644
11388TIP3   OH234040   4.748   7.687   3.014
11388TIP3    H134041   4.670   7.734   2.984
11388TIP3    H234042   4.718   7.597   3.026
11389TIP3   OH234043   5.815   8.331   2.259
11389TIP3    H134044   5.808   8.423   2.234
11389TIP3    H234045   5.904   8.306   2.235
11390TIP3   OH234046   4.532   8.096   3.951
11390TIP3    H134047   4.469   8.078   3.881
11390TIP3    H234048   4.568   8.010   3.973
11391TIP3   OH234049   4.401   8.280   3.586
11391TIP3    H134050   4.496   8.291   3.584
11391TIP3    H234051   4.368   8.358   3.630
11392TIP3   OH234052   6.228   8.716   3.645
11392TIP3    H134053   6.228   8.623   3.665
11392TIP3    H234054   6.154   8.751   3.695
11393TIP3   OH234055   5.326   8.522   3.766
11393TIP3    H134056   5.321   8.613   3.796
11393TIP3    H234057   5.261   8.476   3.818
11394TIP3   OH234058   5.112   8.622   2.723
11394TIP3    H134059   5.067   8.599   2.641
11394TIP3    H234060   5.073   8.704   2.750
11395TIP3   OH234061   4.548   8.461   3.104
11395TIP3    H134062   4.591   8.458   3.190
11395TIP3    H234063   4.501   8.378   3.098
11396TIP3   OH234064   5.315   8.550   2.362
11396TIP3    H134065   5.364   8.477   2.324
11396TIP3    H234066   5.352   8.560   2.450
11397TIP3   OH234067   5.369   8.581   2.636
11397TIP3    H134068   5.280   8.593   2.670
11397TIP3    H234069   5.408   8.515   2.693
11398TIP3   OH234070   6.139   7.865   3.883
11398TIP3    H134071   6.055   7.885   3.842
11398TIP3    H234072   6.127   7.777   3.919
11399TIP3   OH234073   4.731   8.284   3.916
11399TIP3    H134074   4.782   8.271   3.996
11399TIP3    H234075   4.658   8.222   3.924
11400TIP3   OH234076   5.111   7.083   3.727
11400TIP3    H134077   5.027   7.049   3.696
11400TIP3    H234078   5.089   7.164   3.774
11401TIP3   OH234079   5.648   7.211   3.927
11401TIP3    H134080   5.717   7.185   3.987
11401TIP3    H234081   5.567   7.193   3.974
11402TIP3   OH234082   5.916   7.652   3.865
11402TIP3    H134083   5.858   7.638   3.940
11402TIP3    H234084   5.880   7.729   3.822
11403TIP3   OH234085   5.556   7.722   2.382
11403TIP3    H134086   5.508   7.718   2.299
11403TIP3    H234087   5.639   7.765   2.361
11404TIP3   OH234088   5.263   7.127   2.697
11404TIP3    H134089   5.226   7.135   2.785
11404TIP3    H234090   5.227   7.045   2.663
11405TIP3   OH234091   5.051   7.618   3.737
11405TIP3    H134092   5.006   7.625   3.822
11405TIP3    H234093   5.029   7.700   3.692
11406TIP3   OH234094   4.930   7.497   3.258
11406TIP3    H134095   4.841   7.471   3.282
11406TIP3    H234096   4.940   7.466   3.169
11407TIP3   OH234097   5.410   7.575   2.986
11407TIP3    H134098   5.364   7.649   2.947
11407TIP3    H234099   5.467   7.541   2.917
11408TIP3   OH234100   5.597   7.837   4.058
11408TIP3    H134101   5.569   7.769   4.119
11408TIP3    H234102   5.689   7.852   4.080
11409TIP3   OH234103   5.580   7.587   3.207
11409TIP3    H134104   5.510   7.606   3.144
11409TIP3    H234105   5.628   7.514   3.167
11410TIP3   OH234106   4.891   7.632   3.961
11410TIP3    H134107   4.909   7.694   4.032
11410TIP3    H234108   4.874   7.549   4.006
11411TIP3   OH234109   4.931   7.109   2.674
11411TIP3    H134110   4.921   7.112   2.769
11411TIP3    H234111   4.852   7.151   2.640
11412TIP3   OH234112   4.468   7.154   3.543
11412TIP3    H134113   4.544   7.189   3.591
11412TIP3    H234114   4.502   7.133   3.457
11413TIP3   OH234115   4.383   7.131   3.042
11413TIP3    H134116   4.429   7.165   2.965
11413TIP3    H234117   4.318   7.198   3.062
11414TIP3   OH234118   5.622   7.839   3.632
11414TIP3    H134119   5.645   7.772   3.568
11414TIP3    H234120   5.577   7.791   3.701
11415TIP3   OH234121   5.299   7.288   3.311
11415TIP3    H134122   5.221   7.286   3.366
11415TIP3    H234123   5.372   7.279   3.373
11416TIP3   OH234124   4.691   7.370   3.315
11416TIP3    H134125   4.603   7.374   3.278
11416TIP3    H234126   4.719   7.280   3.301
11417TIP3   OH234127   4.945   7.378   3.012
11417TIP3    H134128   5.039   7.386   3.001
11417TIP3    H234129   4.909   7.394   2.924
11418TIP3   OH234130   5.755   7.378   3.525
11418TIP3    H134131   5.740   7.397   3.618
11418TIP3    H234132   5.686   7.315   3.502
11419TIP3   OH234133   4.831   7.401   2.763
11419TIP3    H134134   4.769   7.350   2.711
11419TIP3    H234135   4.886   7.445   2.698
11420TIP3   OH234136   5.943   9.070   3.740
11420TIP3    H134137   5.940   9.087   3.646
11420TIP3    H234138   6.019   9.119   3.771
11421TIP3   OH234139   4.883   8.194   4.148
11421TIP3    H134140   4.964   8.214   4.194
11421TIP3    H234141   4.814   8.203   4.214
11422TIP3   OH234142   5.342   7.657   3.416
11422TIP3    H134143   5.407   7.605   3.367
11422TIP3    H234144   5.340   7.617   3.503
11423TIP3   OH234145   4.834   7.122   3.306
11423TIP3    H134146   4.804   7.047   3.358
11423TIP3    H234147   4.858   7.083   3.221
11424TIP3   OH234148   5.318   7.562   3.680
11424TIP3    H134149   5.231   7.594   3.704
11424TIP3    H234150   5.378   7.614   3.734
11425TIP3   OH234151   5.050   7.913   2.794
11425TIP3    H134152   4.977   7.858   2.769
11425TIP3    H234153   5.023   7.954   2.877
11426TIP3   OH234154   5.945   8.181   3.397
11426TIP3    H134155   5.984   8.219   3.318
11426TIP3    H234156   5.868   8.134   3.366
11427TIP3   OH234157   5.516   7.231   2.703
11427TIP3    H134158   5.423   7.208   2.698
11427TIP3    H234159   5.517   7.326   2.713
11428TIP3   OH234160   5.444   8.239   3.826
11428TIP3    H134161   5.498   8.238   3.905
11428TIP3    H234162   5.417   8.331   3.817
11429TIP3   OH234163   5.572   7.498   2.769
11429TIP3    H134164   5.668   7.500   2.777
11429TIP3    H234165   5.551   7.575   2.716
11430TIP3   OH234166   4.737   7.929   3.442
11430TIP3    H134167   4.775   7.911   3.357
11430TIP3    H234168   4.803   7.900   3.505
11431TIP3   OH234169   5.208   8.081   2.647
11431TIP3    H134170   5.159   8.163   2.643
11431TIP3    H234171   5.152   8.022   2.697
11432TIP3   OH234172   4.629   7.865   4.079
11432TIP3    H134173   4.635   7.842   4.172
11432TIP3    H234174   4.555   7.814   4.047
11433TIP3   OH234175   5.365   7.993   4.100
11433TIP3    H134176   5.295   7.935   4.072
11433TIP3    H234177   5.445   7.951   4.069
11434TIP3   OH234178   5.602   8.494   3.741
11434TIP3    H134179   5.509   8.508   3.724
11434TIP3    H234180   5.624   8.557   3.809
11435TIP3   OH234181   5.989   7.584   2.585
11435TIP3    H134182   5.932   7.539   2.523
11435TIP3    H234183   5.996   7.673   2.549
11436TIP3   OH234184   6.222   8.439   3.669
11436TIP3    H134185   6.129   8.440   3.646
11436TIP3    H234186   6.267   8.418   3.587
11437TIP3   OH234187   5.719   8.372   2.520
11437TIP3    H134188   5.694   8.287   2.558
11437TIP3    H234189   5.748   8.350   2.431
11438TIP3   OH234190   5.715   8.053   3.292
11438TIP3    H134191   5.629   8.033   3.328
11438TIP3    H234192   5.745   7.970   3.255
11439TIP3   OH234193   4.865   8.269   3.116
11439TIP3    H134194   4.860   8.345   3.057
11439TIP3    H234195   4.776   8.258   3.148
11440TIP3   OH234196   4.429   7.555   2.825
11440TIP3    H134197   4.471   7.639   2.846
11440TIP3    H234198   4.347   7.557   2.875
11441TIP3   OH234199   4.951   8.026   3.018
11441TIP3    H134200   4.932   8.115   3.049
11441TIP3    H234201   4.925   7.970   3.091
11442TIP3   OH234202   5.153   8.598   3.551
11442TIP3    H134203   5.192   8.662   3.491
11442TIP3    H234204   5.227   8.568   3.604
11443TIP3   OH234205   4.782   8.487   2.962
11443TIP3    H134206   4.695   8.493   3.000
11443TIP3    H234207   4.816   8.577   2.965
11444TIP3   OH234208   5.500   8.220   3.556
11444TIP3    H134209   5.476   8.221   3.648
11444TIP3    H234210   5.596   8.228   3.555
11445TIP3   OH234211   5.499   8.132   2.400
11445TIP3    H134212   5.546   8.113   2.482
11445TIP3    H234213   5.415   8.086   2.410
11446TIP3   OH234214   5.806   8.599   2.207
11446TIP3    H134215   5.809   8.654   2.129
11446TIP3    H234216   5.741   8.641   2.263
11447TIP3   OH234217   4.838   7.377   4.077
11447TIP3    H134218   4.743   7.386   4.081
11447TIP3    H234219   4.860   7.319   4.150
11448TIP3   OH234220   5.678   8.088   2.608
11448TIP3    H134221   5.655   8.024   2.675
11448TIP3    H234222   5.773   8.078   2.596
11449TIP3   OH234223   4.573   8.490   3.724
11449TIP3    H134224   4.626   8.436   3.782
11449TIP3    H234225   4.585   8.579   3.756
11450TIP3   OH234226   4.847   8.097   2.422
11450TIP3    H134227   4.856   8.006   2.395
11450TIP3    H234228   4.830   8.092   2.516
11451TIP3   OH234229   4.788   8.116   2.693
11451TIP3    H134230   4.850   8.090   2.760
11451TIP3    H234231   4.787   8.212   2.697
11452TIP3   OH234232   4.521   7.807   2.905
11452TIP3    H134233   4.455   7.854   2.956
11452TIP3    H234234   4.541   7.865   2.831
11453TIP3   OH234235   5.703   7.444   3.792
11453TIP3    H134236   5.777   7.478   3.842
11453TIP3    H234237   5.678   7.364   3.838
11454TIP3   OH234238   5.574   7.181   2.970
11454TIP3    H134239   5.554   7.198   2.878
11454TIP3    H234240   5.618   7.261   3.000
11455TIP3   OH234241   5.066   8.311   2.645
11455TIP3    H134242   4.978   8.332   2.678
11455TIP3    H234243   5.084   8.380   2.581
11456TIP3   OH234244   5.225   7.382   3.059
11456TIP3    H134245   5.287   7.450   3.032
11456TIP3    H234246   5.250   7.361   3.149
11457TIP3   OH234247   5.527   7.672   3.831
11457TIP3    H134248   5.550   7.717   3.912
11457TIP3    H234249   5.581   7.594   3.831
11458TIP3   OH234250   5.387   7.077   3.145
11458TIP3    H134251   5.364   7.155   3.197
11458TIP3    H234252   5.457   7.107   3.087
11459TIP3   OH234253   4.809   8.388   2.708
11459TIP3    H134254   4.788   8.459   2.648
11459TIP3    H234255   4.797   8.426   2.795
11460TIP3   OH234256   4.900   7.103   2.953
11460TIP3    H134257   4.888   7.194   2.981
11460TIP3    H234258   4.994   7.088   2.959
11461TIP3   OH234259   6.155   7.542   3.792
11461TIP3    H134260   6.071   7.578   3.821
11461TIP3    H234261   6.131   7.474   3.730
11462TIP3   OH234262   5.800   7.785   3.207
11462TIP3    H134263   5.721   7.731   3.219
11462TIP3    H234264   5.867   7.741   3.259
11463TIP3   OH234265   4.543   7.983   2.688
11463TIP3    H134266   4.614   8.047   2.695
11463TIP3    H234267   4.575   7.920   2.623
11464TIP3   OH234268   4.453   7.278   2.822
11464TIP3    H134269   4.463   7.373   2.828
11464TIP3    H234270   4.404   7.264   2.741
11465TIP3   OH234271   4.847   6.999   3.693
11465TIP3    H134272   4.817   6.965   3.608
11465TIP3    H234273   4.838   6.925   3.752
11466TIP3   OH234274   4.374   8.240   3.087
11466TIP3    H134275   4.336   8.278   3.166
11466TIP3    H234276   4.330   8.286   3.015
11467TIP3   OH234277   4.568   8.786   4.158
11467TIP3    H134278   4.652   8.792   4.204
11467TIP3    H234279   4.552   8.692   4.150
11468TIP3   OH234280   5.043   8.698   4.195
11468TIP3    H134281   5.135   8.671   4.202
11468TIP3    H234282   5.008   8.646   4.123
11469TIP3   OH234283   5.000   8.299   2.316
11469TIP3    H134284   4.951   8.228   2.358
11469TIP3    H234285   5.074   8.256   2.273
11470TIP3   OH234286   5.663   8.648   3.961
11470TIP3    H134287   5.679   8.577   4.023
11470TIP3    H234288   5.738   8.707   3.971
11471TIP3   OH234289   5.439   8.342   2.238
11471TIP3    H134290   5.475   8.276   2.296
11471TIP3    H234291   5.494   8.339   2.160
11472TIP3   OH234292   4.680   8.192   4.340
11472TIP3    H134293   4.702   8.099   4.351
11472TIP3    H234294   4.592   8.192   4.301
11473TIP3   OH234295   4.666   7.793   2.535
11473TIP3    H134296   4.718   7.769   2.611
11473TIP3    H234297   4.731   7.806   2.465
11474TIP3   OH234298   5.299   8.271   4.116
11474TIP3    H134299   5.256   8.294   4.034
11474TIP3    H234300   5.333   8.183   4.101
11475TIP3   OH234301   5.247   8.015   2.382
11475TIP3    H134302   5.223   8.026   2.474
11475TIP3    H234303   5.226   7.923   2.362
11476TIP3   OH234304   5.783   8.292   3.725
11476TIP3    H134305   5.850   8.337   3.673
11476TIP3    H234306   5.713   8.356   3.735
11477TIP3   OH234307   4.793   7.936   4.342
11477TIP3    H134308   4.869   7.920   4.288
11477TIP3    H234309   4.828   7.953   4.430
11478TIP3   OH234310   4.842   7.736   2.746
11478TIP3    H134311   4.821   7.705   2.834
11478TIP3    H234312   4.890   7.665   2.705
11479TIP3   OH234313   5.158   7.819   4.002
11479TIP3    H134314   5.073   7.861   4.013
11479TIP3    H234315   5.190   7.849   3.917
11480TIP3   OH234316   4.984   7.553   2.592
11480TIP3    H134317   4.954   7.556   2.502
11480TIP3    H234318   5.080   7.560   2.586
11481TIP3   OH234319   5.652   8.193   4.089
11481TIP3    H134320   5.716   8.148   4.033
11481TIP3    H234321   5.648   8.139   4.168
11482TIP3   OH234322   5.779   7.842   2.269
11482TIP3    H134323   5.763   7.800   2.185
11482TIP3    H234324   5.757   7.934   2.253
11483TIP3   OH234325   5.259   7.587   4.110
11483TIP3    H134326   5.261   7.516   4.046
11483TIP3    H234327   5.225   7.662   4.062
11484TIP3   OH234328   5.266   7.389   3.907
11484TIP3    H134329   5.294   7.425   3.823
11484TIP3    H234330   5.176   7.360   3.893
11485TIP3   OH234331   5.274   7.921   3.779
11485TIP3    H134332   5.360   7.963   3.773
11485TIP3    H234333   5.216   7.976   3.728
11486TIP3   OH234334   5.863   7.870   4.159
11486TIP3    H134335   5.903   7.784   4.170
11486TIP3    H234336   5.937   7.929   4.147
11487TIP3   OH234337   5.923   8.132   3.893
11487TIP3    H134338   5.867   8.192   3.843
11487TIP3    H234339   6.011   8.145   3.858
11488TIP3   OH234340   5.144   7.669   4.354
11488TIP3    H134341   5.075   7.606   4.375
11488TIP3    H234342   5.173   7.645   4.266
11489TIP3   OH234343   5.387   7.158   4.011
11489TIP3    H134344   5.345   7.237   3.978
11489TIP3    H234345   5.321   7.089   3.998
11490TIP3   OH234346   5.516   7.623   4.210
11490TIP3    H134347   5.507   7.611   4.305
11490TIP3    H234348   5.430   7.603   4.174
11491TIP3   OH234349   5.763   7.579   4.078
11491TIP3    H134350   5.682   7.578   4.130
11491TIP3    H234351   5.832   7.554   4.139
11492TIP3   OH234352   6.006   7.560   4.227
11492TIP3    H134353   6.020   7.466   4.230
11492TIP3    H234354   5.999   7.586   4.319
11493TIP3   OH234355   4.975   7.452   4.418
11493TIP3    H134356   4.981   7.364   4.381
11493TIP3    H234357   5.014   7.444   4.505
11494TIP3   OH234358   5.454   7.135   4.277
11494TIP3    H134359   5.522   7.068   4.271
11494TIP3    H234360   5.424   7.146   4.187
11495TIP3   OH234361   5.552   7.348   4.422
11495TIP3    H134362   5.521   7.276   4.367
11495TIP3    H234363   5.479   7.410   4.422
11496TIP3   OH234364   4.801   8.596   2.526
11496TIP3    H134365   4.891   8.578   2.500
11496TIP3    H234366   4.763   8.641   2.451
11497TIP3   OH234367   4.270   7.980   2.708
11497TIP3    H134368   4.365   7.991   2.702
11497TIP3    H234369   4.254   7.895   2.667
11498TIP3   OH234370   4.172   8.536   3.163
11498TIP3    H134371   4.107   8.484   3.115
11498TIP3    H234372   4.216   8.472   3.219
11499TIP3   OH234373   4.323   8.381   3.332
11499TIP3    H134374   4.322   8.317   3.403
11499TIP3    H234375   4.367   8.457   3.369
11500TIP3   OH234376   6.071   8.811   3.143
11500TIP3    H134377   6.065   8.812   3.239
11500TIP3    H234378   6.074   8.903   3.119
11501TIP3   OH234379   6.068   8.818   3.427
11501TIP3    H134380   5.999   8.753   3.415
11501TIP3    H234381   6.130   8.777   3.487
11502TIP3   OH234382   6.139   8.526   3.994
11502TIP3    H134383   6.063   8.535   4.052
11502TIP3    H234384   6.182   8.612   3.997
11503TIP3   OH234385   5.953   8.050   2.601
11503TIP3    H134386   6.011   8.120   2.571
11503TIP3    H234387   5.999   8.011   2.675
11504TIP3   OH234388   6.075   7.908   2.806
11504TIP3    H134389   6.007   7.867   2.859
11504TIP3    H234390   6.140   7.939   2.870
11505TIP3   OH234391   6.105   8.313   3.215
11505TIP3    H134392   6.170   8.250   3.185
11505TIP3    H234393   6.127   8.394   3.169
11506TIP3   OH234394   5.987   7.824   2.448
11506TIP3    H134395   5.916   7.822   2.383
11506TIP3    H234396   5.971   7.903   2.499
11507TIP3   OH234397   5.834   7.474   2.390
11507TIP3    H134398   5.788   7.509   2.313
11507TIP3    H234399   5.826   7.379   2.380
11508TIP3   OH234400   5.867   7.769   2.936
11508TIP3    H134401   5.871   7.675   2.920
11508TIP3    H234402   5.847   7.777   3.029
11509TIP3   OH234403   4.495   7.829   3.713
11509TIP3    H134404   4.485   7.795   3.624
11509TIP3    H234405   4.589   7.822   3.730
11510TIP3   OH234406   6.179   8.190   3.784
11510TIP3    H134407   6.243   8.143   3.731
11510TIP3    H234408   6.181   8.280   3.749
11511TIP3   OH234409   6.403   7.878   3.806
11511TIP3    H134410   6.314   7.890   3.838
11511TIP3    H234411   6.396   7.814   3.736
11512TIP3   OH234412   5.798   7.204   2.362
11512TIP3    H134413   5.864   7.175   2.425
11512TIP3    H234414   5.717   7.163   2.392
11513TIP3   OH234415   5.866   7.492   2.825
11513TIP3    H134416   5.911   7.409   2.838
11513TIP3    H234417   5.908   7.529   2.747
11514TIP3   OH234418   6.015   7.656   3.340
11514TIP3    H134419   6.099   7.671   3.297
11514TIP3    H234420   6.024   7.697   3.426
11515TIP3   OH234421   6.080   7.809   3.562
11515TIP3    H134422   6.009   7.836   3.620
11515TIP3    H234423   6.110   7.890   3.521
11516TIP3   OH234424   4.711   7.506   4.351
11516TIP3    H134425   4.805   7.504   4.370
11516TIP3    H234426   4.677   7.426   4.390
11517TIP3   OH234427   6.553   7.408   4.113
11517TIP3    H134428   6.619   7.351   4.075
11517TIP3    H234429   6.511   7.451   4.039
11518TIP3   OH234430   5.980   7.242   2.880
11518TIP3    H134431   6.025   7.226   2.963
11518TIP3    H234432   5.918   7.170   2.872
11519TIP3   OH234433   4.685   7.224   3.709
11519TIP3    H134434   4.737   7.145   3.714
11519TIP3    H234435   4.747   7.294   3.688
11520TIP3   OH234436   4.465   7.495   3.754
11520TIP3    H134437   4.519   7.485   3.676
11520TIP3    H234438   4.505   7.568   3.802
11521TIP3   OH234439   6.406   7.494   3.901
11521TIP3    H134440   6.320   7.536   3.892
11521TIP3    H234441   6.399   7.413   3.851
11522TIP3   OH234442   6.026   7.154   2.517
11522TIP3    H134443   6.074   7.093   2.460
11522TIP3    H234444   6.082   7.232   2.520
11523TIP3   OH234445   4.455   7.012   3.277
11523TIP3    H134446   4.369   6.992   3.312
11523TIP3    H234447   4.438   7.061   3.196
11524TIP3   OH234448   4.686   7.076   4.108
11524TIP3    H134449   4.629   7.055   4.182
11524TIP3    H234450   4.627   7.112   4.042
11525TIP3   OH234451   4.708   8.508   4.162
11525TIP3    H134452   4.616   8.486   4.156
11525TIP3    H234453   4.728   8.501   4.256
11526TIP3   OH234454   4.934   8.549   3.714
11526TIP3    H134455   4.876   8.617   3.680
11526TIP3    H234456   5.017   8.562   3.667
11527TIP3   OH234457   5.333   8.787   3.845
11527TIP3    H134458   5.370   8.783   3.933
11527TIP3    H234459   5.396   8.839   3.795
11528TIP3   OH234460   5.518   8.944   3.706
11528TIP3    H134461   5.576   8.929   3.631
11528TIP3    H234462   5.569   8.997   3.767
11529TIP3   OH234463   6.320   7.238   3.812
11529TIP3    H134464   6.232   7.210   3.789
11529TIP3    H234465   6.373   7.158   3.804
11530TIP3   OH234466   4.578   8.770   3.761
11530TIP3    H134467   4.488   8.792   3.739
11530TIP3    H234468   4.605   8.837   3.824
11531TIP3   OH234469   4.807   8.762   3.606
11531TIP3    H134470   4.724   8.771   3.653
11531TIP3    H234471   4.786   8.786   3.516
11532TIP3   OH234472   5.229   8.782   3.349
11532TIP3    H134473   5.146   8.810   3.309
11532TIP3    H234474   5.260   8.860   3.396
11533TIP3   OH234475   5.737   8.937   3.392
11533TIP3    H134476   5.704   8.975   3.311
11533TIP3    H234477   5.751   8.845   3.371
11534TIP3   OH234478   4.485   8.576   3.472
11534TIP3    H134479   4.512   8.555   3.562
11534TIP3    H234480   4.558   8.546   3.418
11535TIP3   OH234481   4.691   8.458   3.339
11535TIP3    H134482   4.703   8.375   3.385
11535TIP3    H234483   4.777   8.500   3.343
11536TIP3   OH234484   4.957   8.537   3.364
11536TIP3    H134485   4.978   8.444   3.355
11536TIP3    H234486   5.015   8.568   3.434
11537TIP3   OH234487   5.528   7.196   3.453
11537TIP3    H134488   5.487   7.124   3.501
11537TIP3    H234489   5.595   7.154   3.400
11538TIP3   OH234490   6.020   7.122   3.345
11538TIP3    H134491   6.056   7.167   3.269
11538TIP3    H234492   5.926   7.132   3.338
11539TIP3   OH234493   6.136   7.189   3.104
11539TIP3    H134494   6.205   7.127   3.078
11539TIP3    H234495   6.175   7.275   3.090
11540TIP3   OH234496   4.756   6.896   3.452
11540TIP3    H134497   4.667   6.862   3.459
11540TIP3    H234498   4.811   6.818   3.442
11541TIP3   OH234499   4.585   6.814   3.108
11541TIP3    H134500   4.610   6.859   3.027
11541TIP3    H234501   4.550   6.882   3.164
11542TIP3   OH234502   5.241   6.936   3.344
11542TIP3    H134503   5.290   6.981   3.275
11542TIP3    H234504   5.284   6.963   3.425
11543TIP3   OH234505   5.738   7.074   3.320
11543TIP3    H134506   5.752   7.037   3.233
11543TIP3    H234507   5.745   6.999   3.379
11544TIP3   OH234508   5.795   7.031   2.886
11544TIP3    H134509   5.715   7.077   2.911
11544TIP3    H234510   5.786   6.944   2.924
11545TIP3   OH234511   4.254   8.369   2.878
11545TIP3    H134512   4.172   8.336   2.842
11545TIP3    H234513   4.267   8.453   2.835
11546TIP3   OH234514   4.690   6.935   2.864
11546TIP3    H134515   4.735   6.872   2.808
11546TIP3    H234516   4.760   6.990   2.898
11547TIP3   OH234517   5.175   7.131   2.960
11547TIP3    H134518   5.233   7.077   3.013
11547TIP3    H234519   5.192   7.220   2.990
11548TIP3   OH234520   5.058   8.523   2.458
11548TIP3    H134521   5.142   8.551   2.420
11548TIP3    H234522   5.028   8.452   2.402
11549TIP3   OH234523   5.793   8.642   2.540
11549TIP3    H134524   5.768   8.550   2.544
11549TIP3    H234525   5.734   8.681   2.475
11550TIP3   OH234526   4.992   7.182   4.332
11550TIP3    H134527   4.957   7.115   4.390
11550TIP3    H234528   5.084   7.190   4.357
11551TIP3   OH234529   5.240   7.187   4.455
11551TIP3    H134530   5.316   7.165   4.402
11551TIP3    H234531   5.233   7.117   4.519
11552TIP3   OH234532   4.367   8.373   2.505
11552TIP3    H134533   4.370   8.393   2.599
11552TIP3    H234534   4.448   8.324   2.489
11553TIP3   OH234535   6.060   7.283   4.235
11553TIP3    H134536   6.075   7.252   4.324
11553TIP3    H234537   6.145   7.274   4.192
11554TIP3   OH234538   5.987   8.798   3.750
11554TIP3    H134539   5.915   8.761   3.699
11554TIP3    H234540   5.970   8.892   3.751
11555TIP3   OH234541   7.246   8.170   2.500
11555TIP3    H134542   7.213   8.257   2.482
11555TIP3    H234543   7.175   8.111   2.476
11556TIP3   OH234544   7.263   8.156   2.900
11556TIP3    H134545   7.335   8.115   2.947
11556TIP3    H234546   7.206   8.084   2.875
11557TIP3   OH234547   6.552   8.059   3.272
11557TIP3    H134548   6.581   7.997   3.338
11557TIP3    H234549   6.628   8.073   3.216
11558TIP3   OH234550   7.513   8.503   2.584
11558TIP3    H134551   7.511   8.434   2.650
11558TIP3    H234552   7.538   8.582   2.633
11559TIP3   OH234553   6.605   8.463   2.960
11559TIP3    H134554   6.563   8.377   2.957
11559TIP3    H234555   6.630   8.474   3.052
11560TIP3   OH234556   6.225   7.681   2.722
11560TIP3    H134557   6.185   7.765   2.745
11560TIP3    H234558   6.154   7.631   2.681
11561TIP3   OH234559   6.303   7.984   2.955
11561TIP3    H134560   6.351   7.905   2.980
11561TIP3    H234561   6.369   8.042   2.918
11562TIP3   OH234562   7.045   8.874   2.609
11562TIP3    H134563   7.085   8.834   2.532
11562TIP3    H234564   7.109   8.859   2.679
11563TIP3   OH234565   7.079   8.383   2.927
11563TIP3    H134566   7.127   8.304   2.902
11563TIP3    H234567   7.147   8.446   2.952
11564TIP3   OH234568   8.092   7.725   2.933
11564TIP3    H134569   8.110   7.809   2.976
11564TIP3    H234570   8.118   7.739   2.841
11565TIP3   OH234571   7.452   7.927   2.927
11565TIP3    H134572   7.488   7.859   2.983
11565TIP3    H234573   7.408   7.879   2.857
11566TIP3   OH234574   6.818   7.556   2.912
11566TIP3    H134575   6.798   7.629   2.853
11566TIP3    H234576   6.765   7.483   2.880
11567TIP3   OH234577   7.519   7.653   2.550
11567TIP3    H134578   7.581   7.649   2.623
11567TIP3    H234579   7.571   7.690   2.478
11568TIP3   OH234580   6.444   7.762   3.043
11568TIP3    H134581   6.528   7.743   3.084
11568TIP3    H234582   6.446   7.712   2.961
11569TIP3   OH234583   6.861   7.966   2.856
11569TIP3    H134584   6.955   7.948   2.859
11569TIP3    H234585   6.822   7.886   2.821
11570TIP3   OH234586   8.153   7.944   3.098
11570TIP3    H134587   8.063   7.977   3.089
11570TIP3    H234588   8.185   7.983   3.179
11571TIP3   OH234589   6.798   7.560   3.371
11571TIP3    H134590   6.746   7.596   3.299
11571TIP3    H234591   6.744   7.572   3.449
11572TIP3   OH234592   7.136   8.387   2.377
11572TIP3    H134593   7.096   8.386   2.290
11572TIP3    H234594   7.205   8.454   2.371
11573TIP3   OH234595   6.909   8.324   3.138
11573TIP3    H134596   6.858   8.401   3.162
11573TIP3    H234597   6.969   8.355   3.070
11574TIP3   OH234598   7.675   7.677   2.774
11574TIP3    H134599   7.629   7.668   2.858
11574TIP3    H234600   7.732   7.753   2.787
11575TIP3   OH234601   6.691   7.665   3.136
11575TIP3    H134602   6.746   7.739   3.162
11575TIP3    H234603   6.739   7.623   3.064
11576TIP3   OH234604   6.730   8.535   3.211
11576TIP3    H134605   6.728   8.629   3.192
11576TIP3    H234606   6.662   8.523   3.277
11577TIP3   OH234607   6.120   8.243   2.483
11577TIP3    H134608   6.085   8.259   2.395
11577TIP3    H234609   6.141   8.330   2.517
11578TIP3   OH234610   7.546   8.752   2.721
11578TIP3    H134611   7.458   8.740   2.757
11578TIP3    H234612   7.542   8.833   2.671
11579TIP3   OH234613   7.882   7.626   3.102
11579TIP3    H134614   7.799   7.644   3.058
11579TIP3    H234615   7.949   7.652   3.039
11580TIP3   OH234616   7.143   7.249   3.091
11580TIP3    H134617   7.135   7.158   3.118
11580TIP3    H234618   7.067   7.293   3.130
11581TIP3   OH234619   7.235   8.786   2.414
11581TIP3    H134620   7.268   8.696   2.407
11581TIP3    H234621   7.308   8.841   2.386
11582TIP3   OH234622   7.364   8.540   2.359
11582TIP3    H134623   7.409   8.487   2.293
11582TIP3    H234624   7.417   8.529   2.438
11583TIP3   OH234625   7.800   8.623   3.074
11583TIP3    H134626   7.778   8.550   3.016
11583TIP3    H234627   7.779   8.701   3.023
11584TIP3   OH234628   7.062   8.025   2.347
11584TIP3    H134629   6.985   8.078   2.327
11584TIP3    H234630   7.115   8.028   2.267
11585TIP3   OH234631   7.055   7.821   2.051
11585TIP3    H134632   7.117   7.875   2.101
11585TIP3    H234633   7.110   7.756   2.008
11586TIP3   OH234634   7.971   8.282   2.919
11586TIP3    H134635   7.888   8.330   2.922
11586TIP3    H234636   8.004   8.297   2.830
11587TIP3   OH234637   7.438   8.131   2.310
11587TIP3    H134638   7.381   8.146   2.386
11587TIP3    H234639   7.519   8.097   2.348
11588TIP3   OH234640   6.665   8.102   2.702
11588TIP3    H134641   6.629   8.042   2.637
11588TIP3    H234642   6.739   8.054   2.741
11589TIP3   OH234643   6.843   8.500   2.806
11589TIP3    H134644   6.770   8.470   2.861
11589TIP3    H234645   6.920   8.455   2.841
11590TIP3   OH234646   6.765   8.096   3.080
11590TIP3    H134647   6.804   8.061   2.999
11590TIP3    H234648   6.819   8.173   3.101
11591TIP3   OH234649   7.304   8.728   2.848
11591TIP3    H134650   7.294   8.808   2.900
11591TIP3    H234651   7.296   8.657   2.911
11592TIP3   OH234652   6.944   8.637   3.386
11592TIP3    H134653   6.882   8.693   3.432
11592TIP3    H234654   6.889   8.582   3.330
11593TIP3   OH234655   7.260   7.990   2.154
11593TIP3    H134656   7.322   8.047   2.200
11593TIP3    H234657   7.291   7.990   2.063
11594TIP3   OH234658   6.696   8.193   3.558
11594TIP3    H134659   6.696   8.286   3.583
11594TIP3    H234660   6.607   8.178   3.524
11595TIP3   OH234661   6.730   8.792   3.475
11595TIP3    H134662   6.708   8.810   3.383
11595TIP3    H234663   6.645   8.783   3.518
11596TIP3   OH234664   7.776   7.211   2.187
11596TIP3    H134665   7.700   7.232   2.241
11596TIP3    H234666   7.789   7.289   2.133
11597TIP3   OH234667   6.541   7.942   2.504
11597TIP3    H134668   6.464   7.990   2.472
11597TIP3    H234669   6.510   7.853   2.516
11598TIP3   OH234670   7.561   8.561   1.800
11598TIP3    H134671   7.581   8.647   1.764
11598TIP3    H234672   7.647   8.520   1.811
11599TIP3   OH234673   6.324   8.347   3.433
11599TIP3    H134674   6.257   8.326   3.367
11599TIP3    H234675   6.351   8.263   3.467
11600TIP3   OH234676   6.163   8.559   3.095
11600TIP3    H134677   6.252   8.583   3.119
11600TIP3    H234678   6.112   8.639   3.109
11601TIP3   OH234679   8.010   8.993   3.129
11601TIP3    H134680   8.024   8.899   3.140
11601TIP3    H234681   7.927   9.010   3.173
11602TIP3   OH234682   7.112   8.799   3.229
11602TIP3    H134683   7.106   8.882   3.275
11602TIP3    H234684   7.068   8.736   3.286
11603TIP3   OH234685   6.878   8.901   2.203
11603TIP3    H134686   6.845   8.874   2.117
11603TIP3    H234687   6.846   8.990   2.213
11604TIP3   OH234688   6.350   8.732   2.598
11604TIP3    H134689   6.409   8.715   2.672
11604TIP3    H234690   6.308   8.648   2.581
11605TIP3   OH234691   7.115   8.823   1.896
11605TIP3    H134692   7.157   8.739   1.880
11605TIP3    H234693   7.134   8.842   1.988
11606TIP3   OH234694   7.144   8.873   2.162
11606TIP3    H134695   7.052   8.878   2.186
11606TIP3    H234696   7.187   8.832   2.237
11607TIP3   OH234697   7.932   8.109   3.405
11607TIP3    H134698   7.838   8.128   3.404
11607TIP3    H234699   7.937   8.014   3.393
11608TIP3   OH234700   6.527   8.534   3.398
11608TIP3    H134701   6.574   8.528   3.481
11608TIP3    H234702   6.454   8.473   3.407
11609TIP3   OH234703   6.906   7.345   3.218
11609TIP3    H134704   6.823   7.310   3.187
11609TIP3    H234705   6.882   7.425   3.265
11610TIP3   OH234706   7.442   7.455   3.409
11610TIP3    H134707   7.512   7.435   3.471
11610TIP3    H234708   7.361   7.441   3.458
11611TIP3   OH234709   7.666   8.007   3.355
11611TIP3    H134710   7.629   7.942   3.415
11611TIP3    H234711   7.598   8.073   3.346
11612TIP3   OH234712   7.353   7.961   1.904
11612TIP3    H134713   7.313   7.949   1.818
11612TIP3    H234714   7.438   8.002   1.886
11613TIP3   OH234715   7.059   7.387   2.185
11613TIP3    H134716   7.023   7.393   2.273
11613TIP3    H234717   7.024   7.305   2.150
11614TIP3   OH234718   6.849   7.876   3.223
11614TIP3    H134719   6.862   7.915   3.309
11614TIP3    H234720   6.821   7.949   3.167
11615TIP3   OH234721   6.720   7.754   2.748
11615TIP3    H134722   6.631   7.727   2.772
11615TIP3    H234723   6.732   7.721   2.659
11616TIP3   OH234724   7.201   7.822   2.469
11616TIP3    H134725   7.150   7.893   2.430
11616TIP3    H234726   7.262   7.796   2.400
11617TIP3   OH234727   7.341   7.811   2.707
11617TIP3    H134728   7.286   7.837   2.633
11617TIP3    H234729   7.405   7.750   2.669
11618TIP3   OH234730   6.638   7.888   3.475
11618TIP3    H134731   6.728   7.919   3.489
11618TIP3    H234732   6.637   7.800   3.514
11619TIP3   OH234733   6.727   7.366   2.165
11619TIP3    H134734   6.717   7.369   2.260
11619TIP3    H234735   6.648   7.409   2.131
11620TIP3   OH234736   6.270   7.409   3.024
11620TIP3    H134737   6.348   7.439   3.071
11620TIP3    H234738   6.303   7.383   2.938
11621TIP3   OH234739   6.179   7.387   2.528
11621TIP3    H134740   6.224   7.422   2.451
11621TIP3    H234741   6.114   7.455   2.550
11622TIP3   OH234742   7.090   7.541   2.799
11622TIP3    H134743   7.014   7.543   2.857
11622TIP3    H234744   7.165   7.538   2.858
11623TIP3   OH234745   6.483   7.627   2.808
11623TIP3    H134746   6.396   7.631   2.768
11623TIP3    H234747   6.512   7.537   2.791
11624TIP3   OH234748   6.738   7.631   2.503
11624TIP3    H134749   6.832   7.641   2.493
11624TIP3    H234750   6.702   7.648   2.416
11625TIP3   OH234751   7.538   7.662   3.020
11625TIP3    H134752   7.530   7.676   3.114
11625TIP3    H234753   7.468   7.600   2.999
11626TIP3   OH234754   6.623   7.656   2.257
11626TIP3    H134755   6.561   7.605   2.204
11626TIP3    H234756   6.678   7.700   2.192
11627TIP3   OH234757   1.186   0.095   3.238
11627TIP3    H134758   1.178   0.093   3.142
11627TIP3    H234759   1.268   0.141   3.254
11628TIP3   OH234760   6.664   8.457   3.643
11628TIP3    H134761   6.746   8.477   3.688
11628TIP3    H234762   6.597   8.465   3.710
11629TIP3   OH234763   7.128   7.896   2.891
11629TIP3    H134764   7.195   7.852   2.838
11629TIP3    H234765   7.134   7.855   2.977
11630TIP3   OH234766   6.629   7.380   2.793
11630TIP3    H134767   6.601   7.304   2.845
11630TIP3    H234768   6.654   7.342   2.708
11631TIP3   OH234769   7.109   7.796   3.157
11631TIP3    H134770   7.023   7.831   3.180
11631TIP3    H234771   7.170   7.846   3.212
11632TIP3   OH234772   6.837   8.180   2.283
11632TIP3    H134773   6.765   8.121   2.262
11632TIP3    H234774   6.812   8.219   2.367
11633TIP3   OH234775   7.743   8.430   2.885
11633TIP3    H134776   7.777   8.481   2.811
11633TIP3    H234777   7.661   8.392   2.853
11634TIP3   OH234778   7.311   7.492   2.193
11634TIP3    H134779   7.218   7.472   2.190
11634TIP3    H234780   7.315   7.587   2.207
11635TIP3   OH234781   7.252   8.466   3.303
11635TIP3    H134782   7.307   8.389   3.316
11635TIP3    H234783   7.296   8.535   3.354
11636TIP3   OH234784   7.374   7.753   2.258
11636TIP3    H134785   7.469   7.754   2.270
11636TIP3    H234786   7.356   7.833   2.209
11637TIP3   OH234787   6.540   8.185   2.935
11637TIP3    H134788   6.573   8.168   2.847
11637TIP3    H234789   6.607   8.150   2.994
11638TIP3   OH234790   7.002   8.337   2.131
11638TIP3    H134791   6.955   8.421   2.127
11638TIP3    H234792   6.947   8.280   2.184
11639TIP3   OH234793   6.391   8.115   3.591
11639TIP3    H134794   6.446   8.048   3.630
11639TIP3    H234795   6.327   8.067   3.539
11640TIP3   OH234796   7.180   8.259   3.577
11640TIP3    H134797   7.120   8.233   3.507
11640TIP3    H234798   7.267   8.242   3.541
11641TIP3   OH234799   7.392   8.801   3.186
11641TIP3    H134800   7.297   8.792   3.184
11641TIP3    H234801   7.411   8.835   3.274
11642TIP3   OH234802   7.795   7.839   2.087
11642TIP3    H134803   7.723   7.801   2.037
11642TIP3    H234804   7.801   7.929   2.054
11643TIP3   OH234805   8.044   8.719   3.157
11643TIP3    H134806   7.951   8.698   3.162
11643TIP3    H234807   8.072   8.682   3.072
11644TIP3   OH234808   7.476   8.641   2.046
11644TIP3    H134809   7.466   8.565   2.103
11644TIP3    H234810   7.505   8.605   1.962
11645TIP3   OH234811   7.517   8.298   2.778
11645TIP3    H134812   7.430   8.279   2.813
11645TIP3    H234813   7.547   8.214   2.743
11646TIP3   OH234814   6.230   7.813   2.314
11646TIP3    H134815   6.270   7.897   2.335
11646TIP3    H234816   6.147   7.813   2.363
11647TIP3   OH234817   6.752   8.294   2.517
11647TIP3    H134818   6.793   8.365   2.566
11647TIP3    H234819   6.716   8.236   2.583
11648TIP3   OH234820   6.948   8.860   3.013
11648TIP3    H134821   6.981   8.944   2.981
11648TIP3    H234822   7.014   8.830   3.075
11649TIP3   OH234823   7.296   8.518   3.035
11649TIP3    H134824   7.261   8.505   3.123
11649TIP3    H234825   7.391   8.510   3.046
11650TIP3   OH234826   7.283   8.353   1.958
11650TIP3    H134827   7.341   8.350   2.035
11650TIP3    H234828   7.198   8.324   1.991
11651TIP3   OH234829   7.549   9.007   3.066
11651TIP3    H134830   7.476   8.948   3.081
11651TIP3    H234831   7.521   9.063   2.994
11652TIP3   OH234832   7.615   8.870   1.753
11652TIP3    H134833   7.692   8.900   1.705
11652TIP3    H234834   7.575   8.950   1.788
11653TIP3   OH234835   6.630   7.631   3.596
11653TIP3    H134836   6.535   7.620   3.597
11653TIP3    H234837   6.662   7.568   3.661
11654TIP3   OH234838   7.471   8.362   2.163
11654TIP3    H134839   7.451   8.284   2.216
11654TIP3    H234840   7.564   8.354   2.142
11655TIP3   OH234841   6.382   8.716   3.203
11655TIP3    H134842   6.434   8.668   3.267
11655TIP3    H234843   6.378   8.805   3.239
11656TIP3   OH234844   6.660   8.354   1.914
11656TIP3    H134845   6.676   8.264   1.888
11656TIP3    H234846   6.637   8.350   2.007
11657TIP3   OH234847   6.587   8.367   2.181
11657TIP3    H134848   6.652   8.340   2.246
11657TIP3    H234849   6.582   8.462   2.191
11658TIP3   OH234850   6.318   8.067   2.393
11658TIP3    H134851   6.253   8.116   2.444
11658TIP3    H234852   6.338   8.123   2.319
11659TIP3   OH234853   7.500   7.699   3.294
11659TIP3    H134854   7.535   7.741   3.373
11659TIP3    H234855   7.473   7.612   3.323
11660TIP3   OH234856   7.371   7.437   2.459
11660TIP3    H134857   7.351   7.457   2.367
11660TIP3    H234858   7.415   7.516   2.491
11661TIP3   OH234859   6.853   8.566   2.137
11661TIP3    H134860   6.770   8.586   2.180
11661TIP3    H234861   6.871   8.642   2.082
11662TIP3   OH234862   7.016   7.635   2.548
11662TIP3    H134863   7.079   7.702   2.520
11662TIP3    H234864   7.041   7.615   2.638
11663TIP3   OH234865   7.292   7.916   3.322
11663TIP3    H134866   7.330   8.000   3.346
11663TIP3    H234867   7.366   7.856   3.317
11664TIP3   OH234868   7.183   7.333   2.632
11664TIP3    H134869   7.160   7.410   2.685
11664TIP3    H234870   7.253   7.364   2.575
11665TIP3   OH234871   6.592   8.639   2.216
11665TIP3    H134872   6.580   8.702   2.145
11665TIP3    H234873   6.548   8.679   2.291
11666TIP3   OH234874   6.696   7.358   2.442
11666TIP3    H134875   6.685   7.448   2.472
11666TIP3    H234876   6.791   7.342   2.448
11667TIP3   OH234877   7.900   7.843   3.309
11667TIP3    H134878   7.812   7.881   3.312
11667TIP3    H234879   7.892   7.772   3.245
11668TIP3   OH234880   7.601   8.032   2.707
11668TIP3    H134881   7.529   8.000   2.761
11668TIP3    H234882   7.680   7.996   2.749
11669TIP3   OH234883   6.338   8.241   2.176
11669TIP3    H134884   6.408   8.305   2.181
11669TIP3    H234885   6.370   8.177   2.112
11670TIP3   OH234886   6.247   7.534   2.307
11670TIP3    H134887   6.262   7.628   2.316
11670TIP3    H234888   6.192   7.527   2.229
11671TIP3   OH234889   7.552   9.017   2.616
11671TIP3    H134890   7.514   9.066   2.543
11671TIP3    H234891   7.645   9.040   2.614
11672TIP3   OH234892   6.647   7.250   3.180
11672TIP3    H134893   6.618   7.216   3.095
11672TIP3    H234894   6.638   7.175   3.240
11673TIP3   OH234895   6.161   8.515   2.554
11673TIP3    H134896   6.119   8.559   2.628
11673TIP3    H234897   6.125   8.558   2.477
11674TIP3   OH234898   6.372   9.056   3.625
11674TIP3    H134899   6.452   9.064   3.677
11674TIP3    H234900   6.368   8.963   3.601
11675TIP3   OH234901   6.834   8.949   3.680
11675TIP3    H134902   6.926   8.924   3.688
11675TIP3    H234903   6.802   8.899   3.606
11676TIP3   OH234904   6.797   8.562   1.798
11676TIP3    H134905   6.749   8.490   1.840
11676TIP3    H234906   6.880   8.522   1.770
11677TIP3   OH234907   7.449   8.891   3.440
11677TIP3    H134908   7.468   8.820   3.501
11677TIP3    H234909   7.524   8.951   3.449
11678TIP3   OH234910   7.234   8.591   1.827
11678TIP3    H134911   7.272   8.521   1.879
11678TIP3    H234912   7.308   8.633   1.785
11679TIP3   OH234913   6.461   8.459   3.834
11679TIP3    H134914   6.473   8.386   3.896
11679TIP3    H234915   6.373   8.446   3.799
11680TIP3   OH234916   6.464   8.049   2.030
11680TIP3    H134917   6.513   8.023   2.108
11680TIP3    H234918   6.532   8.066   1.964
11681TIP3   OH234919   7.091   8.532   3.599
11681TIP3    H134920   7.059   8.553   3.511
11681TIP3    H234921   7.141   8.451   3.587
11682TIP3   OH234922   7.008   8.242   1.871
11682TIP3    H134923   6.988   8.260   1.963
11682TIP3    H234924   6.996   8.147   1.863
11683TIP3   OH234925   7.540   8.564   3.167
11683TIP3    H134926   7.633   8.585   3.160
11683TIP3    H234927   7.497   8.649   3.176
11684TIP3   OH234928   6.633   8.062   3.894
11684TIP3    H134929   6.689   8.086   3.820
11684TIP3    H234930   6.628   8.142   3.947
11685TIP3   OH234931   6.640   7.990   2.239
11685TIP3    H134932   6.619   7.957   2.326
11685TIP3    H234933   6.688   7.918   2.198
11686TIP3   OH234934   6.889   8.027   3.452
11686TIP3    H134935   6.832   8.092   3.493
11686TIP3    H234936   6.958   8.079   3.410
11687TIP3   OH234937   6.780   7.802   2.088
11687TIP3    H134938   6.754   7.801   1.995
11687TIP3    H234939   6.875   7.806   2.085
11688TIP3   OH234940   7.445   8.440   3.599
11688TIP3    H134941   7.448   8.376   3.528
11688TIP3    H234942   7.455   8.387   3.679
11689TIP3   OH234943   7.573   8.092   1.801
11689TIP3    H134944   7.610   8.061   1.719
11689TIP3    H234945   7.530   8.175   1.778
11690TIP3   OH234946   7.040   7.844   3.602
11690TIP3    H134947   7.059   7.768   3.546
11690TIP3    H234948   7.004   7.909   3.543
11691TIP3   OH234949   7.060   7.642   3.404
11691TIP3    H134950   7.091   7.674   3.319
11691TIP3    H234951   6.969   7.615   3.388
11692TIP3   OH234952   7.076   8.183   3.328
11692TIP3    H134953   7.170   8.182   3.309
11692TIP3    H234954   7.039   8.240   3.261
11693TIP3   OH234955   7.676   8.134   3.677
11693TIP3    H134956   7.679   8.046   3.640
11693TIP3    H234957   7.693   8.192   3.602
11694TIP3   OH234958   7.723   8.334   3.438
11694TIP3    H134959   7.639   8.326   3.392
11694TIP3    H234960   7.782   8.375   3.374
11695TIP3   OH234961   6.934   7.925   3.845
11695TIP3    H134962   6.855   7.873   3.857
11695TIP3    H234963   6.966   7.901   3.758
11696TIP3   OH234964   7.181   7.409   3.499
11696TIP3    H134965   7.140   7.490   3.468
11696TIP3    H234966   7.114   7.342   3.486
11697TIP3   OH234967   7.333   7.851   3.680
11697TIP3    H134968   7.312   7.852   3.773
11697TIP3    H234969   7.249   7.862   3.636
11698TIP3   OH234970   7.569   7.823   3.534
11698TIP3    H134971   7.490   7.832   3.587
11698TIP3    H234972   7.638   7.803   3.598
11699TIP3   OH234973   7.791   7.796   3.708
11699TIP3    H134974   7.804   7.702   3.719
11699TIP3    H234975   7.783   7.830   3.797
11700TIP3   OH234976   6.685   7.756   3.950
11700TIP3    H134977   6.681   7.676   3.899
11700TIP3    H234978   6.751   7.738   4.017
11701TIP3   OH234979   7.242   7.389   3.765
11701TIP3    H134980   7.311   7.323   3.762
11701TIP3    H234981   7.216   7.401   3.674
11702TIP3   OH234982   7.341   7.598   3.915
11702TIP3    H134983   7.311   7.528   3.857
11702TIP3    H234984   7.275   7.666   3.906
11703TIP3   OH234985   6.590   8.832   2.025
11703TIP3    H134986   6.680   8.818   1.997
11703TIP3    H234987   6.549   8.880   1.953
11704TIP3   OH234988   6.066   8.239   2.191
11704TIP3    H134989   6.161   8.248   2.188
11704TIP3    H234990   6.050   8.150   2.157
11705TIP3   OH234991   5.967   8.825   2.649
11705TIP3    H134992   5.906   8.766   2.604
11705TIP3    H234993   6.013   8.768   2.712
11706TIP3   OH234994   6.117   8.661   2.815
11706TIP3    H134995   6.113   8.599   2.888
11706TIP3    H234996   6.178   8.729   2.845
11707TIP3   OH234997   7.808   9.114   2.628
11707TIP3    H134998   7.839   9.101   2.717
11707TIP3    H234999   7.888   9.125   2.576
11708TIP3   OH235000   7.870   9.071   2.892
11708TIP3    H135001   7.823   8.987   2.894
11708TIP3    H235002   7.939   9.061   2.957
11709TIP3   OH235003   7.927   8.789   3.477
11709TIP3    H135004   7.856   8.794   3.541
11709TIP3    H235005   7.967   8.876   3.480
11710TIP3   OH235006   7.738   8.307   2.130
11710TIP3    H135007   7.807   8.368   2.105
11710TIP3    H235008   7.777   8.254   2.200
11711TIP3   OH235009   7.868   8.146   2.308
11711TIP3    H135010   7.802   8.108   2.366
11711TIP3    H235011   7.933   8.184   2.367
11712TIP3   OH235012   7.919   8.564   2.716
11712TIP3    H135013   7.971   8.497   2.672
11712TIP3    H235014   7.928   8.641   2.660
11713TIP3   OH235015   7.719   8.839   2.922
11713TIP3    H135016   7.655   8.889   2.972
11713TIP3    H235017   7.669   8.802   2.848
11714TIP3   OH235018   7.793   8.088   1.971
11714TIP3    H135019   7.722   8.084   1.907
11714TIP3    H235020   7.772   8.165   2.025
11715TIP3   OH235021   7.594   7.751   1.928
11715TIP3    H135022   7.605   7.795   1.844
11715TIP3    H235023   7.602   7.658   1.907
11716TIP3   OH235024   7.658   8.016   2.437
11716TIP3    H135025   7.663   7.921   2.421
11716TIP3    H235026   7.638   8.023   2.530
11717TIP3   OH235027   6.292   8.106   3.201
11717TIP3    H135028   6.285   8.066   3.114
11717TIP3    H235029   6.385   8.100   3.222
11718TIP3   OH235030   7.944   8.436   3.286
11718TIP3    H135031   8.016   8.376   3.266
11718TIP3    H235032   7.938   8.492   3.208
11719TIP3   OH235033   8.136   8.233   3.279
11719TIP3    H135034   8.062   8.195   3.326
11719TIP3    H235035   8.210   8.177   3.303
11720TIP3   OH235036   7.592   7.477   1.870
11720TIP3    H135037   7.664   7.452   1.927
11720TIP3    H235038   7.519   7.422   1.898
11721TIP3   OH235039   7.662   7.746   2.320
11721TIP3    H135040   7.704   7.661   2.333
11721TIP3    H235041   7.709   7.785   2.247
11722TIP3   OH235042   7.818   7.909   2.831
11722TIP3    H135043   7.899   7.925   2.782
11722TIP3    H235044   7.834   7.947   2.917
11723TIP3   OH235045   7.899   8.052   3.057
11723TIP3    H135046   7.839   8.077   3.127
11723TIP3    H235047   7.921   8.134   3.014
11724TIP3   OH235048   8.349   7.662   3.602
11724TIP3    H135049   8.415   7.606   3.560
11724TIP3    H235050   8.310   7.711   3.530
11725TIP3   OH235051   7.772   7.496   2.371
11725TIP3    H135052   7.818   7.481   2.453
11725TIP3    H235053   7.710   7.424   2.364
11726TIP3   OH235054   6.484   7.472   3.193
11726TIP3    H135055   6.539   7.393   3.197
11726TIP3    H235056   6.546   7.543   3.177
11727TIP3   OH235057   6.273   7.736   3.271
11727TIP3    H135058   6.318   7.722   3.187
11727TIP3    H235059   6.305   7.821   3.301
11728TIP3   OH235060   8.192   7.786   3.414
11728TIP3    H135061   8.123   7.823   3.470
11728TIP3    H235062   8.145   7.725   3.357
11729TIP3   OH235063   7.823   7.420   2.010
11729TIP3    H135064   7.870   7.354   1.958
11729TIP3    H235065   7.884   7.494   2.016
11730TIP3   OH235066   6.251   7.266   2.762
11730TIP3    H135067   6.165   7.247   2.799
11730TIP3    H235068   6.234   7.315   2.682
11731TIP3   OH235069   7.414   8.951   2.298
11731TIP3    H135070   7.477   8.934   2.228
11731TIP3    H235071   7.441   9.036   2.334
11732TIP3   OH235072   6.470   7.357   3.599
11732TIP3    H135073   6.412   7.309   3.658
11732TIP3    H235074   6.412   7.390   3.530
11733TIP3   OH235075   6.496   8.779   3.631
11733TIP3    H135076   6.405   8.748   3.631
11733TIP3    H235077   6.520   8.781   3.723
11734TIP3   OH235078   6.728   8.810   3.184
11734TIP3    H135079   6.670   8.881   3.156
11734TIP3    H235080   6.809   8.823   3.134
11735TIP3   OH235081   7.115   9.053   3.344
11735TIP3    H135082   7.153   9.040   3.431
11735TIP3    H235083   7.182   9.101   3.296
11736TIP3   OH235084   7.313   9.199   3.218
11736TIP3    H135085   7.380   9.150   3.170
11736TIP3    H235086   7.362   9.260   3.273
11737TIP3   OH235087   8.105   7.529   3.302
11737TIP3    H135088   8.019   7.524   3.261
11737TIP3    H235089   8.141   7.441   3.294
11738TIP3   OH235090   6.373   9.039   3.247
11738TIP3    H135091   6.281   9.050   3.224
11738TIP3    H235092   6.391   9.112   3.306
11739TIP3   OH235093   6.598   9.033   3.089
11739TIP3    H135094   6.518   9.036   3.140
11739TIP3    H235095   6.572   9.063   3.002
11740TIP3   OH235096   7.038   9.106   2.866
11740TIP3    H135097   7.038   9.153   2.782
11740TIP3    H235098   7.053   9.174   2.931
11741TIP3   OH235099   7.276   8.986   2.942
11741TIP3    H135100   7.190   9.022   2.919
11741TIP3    H235101   7.339   9.047   2.903
11742TIP3   OH235102   7.467   9.152   2.842
11742TIP3    H135103   7.476   9.245   2.822
11742TIP3    H235104   7.499   9.107   2.763
11743TIP3   OH235105   6.309   8.830   2.933
11743TIP3    H135106   6.310   8.806   3.026
11743TIP3    H235107   6.389   8.789   2.898
11744TIP3   OH235108   6.526   8.695   2.822
11744TIP3    H135109   6.542   8.612   2.866
11744TIP3    H235110   6.613   8.732   2.805
11745TIP3   OH235111   6.822   8.769   2.780
11745TIP3    H135112   6.834   8.675   2.774
11745TIP3    H235113   6.857   8.792   2.866
11746TIP3   OH235114   7.323   7.462   2.941
11746TIP3    H135115   7.284   7.388   2.988
11746TIP3    H235116   7.393   7.423   2.889
11747TIP3   OH235117   7.823   7.369   2.824
11747TIP3    H135118   7.859   7.419   2.751
11747TIP3    H235119   7.730   7.394   2.826
11748TIP3   OH235120   7.937   7.446   2.586
11748TIP3    H135121   8.006   7.386   2.558
11748TIP3    H235122   7.974   7.533   2.574
11749TIP3   OH235123   6.557   7.152   2.938
11749TIP3    H135124   6.468   7.118   2.947
11749TIP3    H235125   6.612   7.075   2.929
11750TIP3   OH235126   6.376   7.067   2.591
11750TIP3    H135127   6.402   7.115   2.513
11750TIP3    H235128   6.342   7.135   2.650
11751TIP3   OH235129   7.038   7.192   2.831
11751TIP3    H135130   7.086   7.239   2.763
11751TIP3    H235131   7.079   7.219   2.913
11752TIP3   OH235132   7.533   7.337   2.809
11752TIP3    H135133   7.547   7.301   2.721
11752TIP3    H235134   7.538   7.261   2.867
11753TIP3   OH235135   7.589   7.286   2.374
11753TIP3    H135136   7.509   7.332   2.400
11753TIP3    H235137   7.580   7.199   2.414
11754TIP3   OH235138   6.064   8.630   2.316
11754TIP3    H135139   5.975   8.600   2.294
11754TIP3    H235140   6.062   8.724   2.298
11755TIP3   OH235141   6.486   7.192   2.351
11755TIP3    H135142   6.531   7.129   2.295
11755TIP3    H235143   6.555   7.247   2.387
11756TIP3   OH235144   6.972   7.385   2.448
11756TIP3    H135145   7.031   7.332   2.502
11756TIP3    H235146   6.986   7.475   2.478
11757TIP3   OH235147   6.847   8.779   1.952
11757TIP3    H135148   6.931   8.813   1.921
11757TIP3    H235149   6.826   8.709   1.889
11758TIP3   OH235150   7.574   8.897   2.071
11758TIP3    H135151   7.540   8.808   2.063
11758TIP3    H235152   7.531   8.946   2.001
11759TIP3   OH235153   6.763   7.466   3.821
11759TIP3    H135154   6.735   7.394   3.877
11759TIP3    H235155   6.855   7.479   3.842
11760TIP3   OH235156   7.018   7.456   3.938
11760TIP3    H135157   7.095   7.434   3.885
11760TIP3    H235158   7.014   7.387   4.005
11761TIP3   OH235159   6.160   8.615   2.029
11761TIP3    H135160   6.152   8.609   2.124
11761TIP3    H235161   6.242   8.570   2.008
11762TIP3   OH235162   7.856   7.526   3.723
11762TIP3    H135163   7.873   7.499   3.814
11762TIP3    H235164   7.941   7.522   3.681
11763TIP3   OH235165   7.765   9.060   3.233
11763TIP3    H135166   7.692   9.033   3.177
11763TIP3    H235167   7.754   9.155   3.242
11764TIP3   OH235168   8.353   8.323   2.739
11764TIP3    H135169   8.376   8.242   2.785
11764TIP3    H235170   8.394   8.393   2.791
11765TIP3   OH235171   8.252   8.707   2.487
11765TIP3    H135172   8.287   8.619   2.483
11765TIP3    H235173   8.329   8.764   2.494
11766TIP3   OH235174   8.026   7.934   2.213
11766TIP3    H135175   7.985   8.016   2.241
11766TIP3    H235176   7.954   7.883   2.177
11767TIP3   OH235177   8.108   8.237   2.423
11767TIP3    H135178   8.156   8.161   2.455
11767TIP3    H235179   8.162   8.272   2.352
11768TIP3   OH235180   8.602   7.804   2.397
11768TIP3    H135181   8.578   7.881   2.345
11768TIP3    H235182   8.548   7.733   2.362
11769TIP3   OH235183   8.243   8.022   2.525
11769TIP3    H135184   8.326   8.002   2.570
11769TIP3    H235185   8.246   7.971   2.445
11770TIP3   OH235186   8.664   8.233   2.313
11770TIP3    H135187   8.752   8.219   2.277
11770TIP3    H235188   8.618   8.151   2.296
11771TIP3   OH235189   8.590   7.808   2.850
11771TIP3    H135190   8.544   7.847   2.775
11771TIP3    H235191   8.532   7.824   2.924
11772TIP3   OH235192   8.482   7.915   2.619
11772TIP3    H135193   8.535   7.992   2.636
11772TIP3    H235194   8.527   7.870   2.548
11773TIP3   OH235195   7.943   8.464   2.042
11773TIP3    H135196   7.892   8.480   1.962
11773TIP3    H235197   7.954   8.551   2.080
11774TIP3   OH235198   8.926   7.499   2.585
11774TIP3    H135199   8.920   7.407   2.612
11774TIP3    H235200   8.850   7.541   2.626
11775TIP3   OH235201   8.391   8.303   2.261
11775TIP3    H135202   8.369   8.265   2.176
11775TIP3    H235203   8.485   8.292   2.269
11776TIP3   OH235204   8.633   8.367   2.552
11776TIP3    H135205   8.652   8.329   2.467
11776TIP3    H235206   8.561   8.429   2.536
11777TIP3   OH235207   8.462   8.451   2.981
11777TIP3    H135208   8.468   8.538   3.019
11777TIP3    H235209   8.376   8.418   3.010
11778TIP3   OH235210   8.330   8.181   2.015
11778TIP3    H135211   8.265   8.242   1.980
11778TIP3    H235212   8.300   8.094   1.988
11779TIP3   OH235213   8.107   8.591   2.923
11779TIP3    H135214   8.039   8.577   2.858
11779TIP3    H235215   8.137   8.503   2.947
11780TIP3   OH235216   8.003   8.789   2.565
11780TIP3    H135217   8.085   8.753   2.530
11780TIP3    H235218   8.031   8.852   2.631
11781TIP3   OH235219   8.277   8.804   2.917
11781TIP3    H135220   8.351   8.776   2.970
11781TIP3    H235221   8.220   8.727   2.912
11782TIP3   OH235222   8.695   7.595   2.706
11782TIP3    H135223   8.611   7.564   2.673
11782TIP3    H235224   8.675   7.677   2.752
11783TIP3   OH235225   9.230   7.681   2.882
11783TIP3    H135226   9.299   7.681   2.948
11783TIP3    H235227   9.149   7.681   2.934
11784TIP3   OH235228   8.952   7.610   1.761
11784TIP3    H135229   8.880   7.613   1.825
11784TIP3    H235230   8.959   7.700   1.728
11785TIP3   OH235231   8.633   8.131   2.687
11785TIP3    H135232   8.590   8.145   2.771
11785TIP3    H235233   8.632   8.217   2.645
11786TIP3   OH235234   8.518   8.014   2.246
11786TIP3    H135235   8.426   7.994   2.263
11786TIP3    H235236   8.535   7.977   2.159
11787TIP3   OH235237   8.459   8.126   2.909
11787TIP3    H135238   8.513   8.179   2.968
11787TIP3    H235239   8.442   8.046   2.959
11788TIP3   OH235240   8.426   7.611   1.723
11788TIP3    H135241   8.444   7.631   1.815
11788TIP3    H235242   8.425   7.696   1.680
11789TIP3   OH235243   8.064   7.672   2.514
11789TIP3    H135244   8.136   7.705   2.568
11789TIP3    H235245   8.104   7.649   2.431
11790TIP3   OH235246   7.988   7.646   2.030
11790TIP3    H135247   8.047   7.683   1.964
11790TIP3    H235248   7.922   7.713   2.043
11791TIP3   OH235249   8.855   7.850   2.283
11791TIP3    H135250   8.774   7.832   2.331
11791TIP3    H235251   8.923   7.802   2.331
11792TIP3   OH235252   8.281   7.882   2.295
11792TIP3    H135253   8.194   7.888   2.255
11792TIP3    H235254   8.310   7.793   2.276
11793TIP3   OH235255   8.560   7.887   2.011
11793TIP3    H135256   8.648   7.901   1.975
11793TIP3    H235257   8.501   7.912   1.940
11794TIP3   OH235258   8.352   7.922   1.838
11794TIP3    H135259   8.267   7.879   1.839
11794TIP3    H235260   8.380   7.919   1.747
11795TIP3   OH235261   8.460   8.703   3.102
11795TIP3    H135262   8.529   8.765   3.125
11795TIP3    H235263   8.402   8.704   3.178
11796TIP3   OH235264   8.416   7.636   2.269
11796TIP3    H135265   8.392   7.557   2.317
11796TIP3    H235266   8.442   7.606   2.182
11797TIP3   OH235267   8.890   8.033   2.700
11797TIP3    H135268   8.801   8.067   2.686
11797TIP3    H235269   8.946   8.096   2.654
11798TIP3   OH235270   8.373   8.460   2.487
11798TIP3    H135271   8.370   8.409   2.406
11798TIP3    H235272   8.358   8.396   2.557
11799TIP3   OH235273   8.207   8.357   3.044
11799TIP3    H135274   8.208   8.328   3.135
11799TIP3    H235275   8.134   8.311   3.005
11800TIP3   OH235276   8.053   8.088   1.875
11800TIP3    H135277   8.088   8.177   1.871
11800TIP3    H235278   7.972   8.096   1.925
11801TIP3   OH235279   8.421   7.885   3.054
11801TIP3    H135280   8.327   7.897   3.063
11801TIP3    H235281   8.446   7.833   3.130
11802TIP3   OH235282   8.136   8.958   2.739
11802TIP3    H135283   8.185   8.900   2.797
11802TIP3    H235284   8.164   9.046   2.762
11803TIP3   OH235285   8.148   8.351   1.898
11803TIP3    H135286   8.085   8.393   1.957
11803TIP3    H235287   8.175   8.421   1.839
11804TIP3   OH235288   8.844   7.893   2.011
11804TIP3    H135289   8.926   7.935   1.985
11804TIP3    H235290   8.849   7.888   2.106
11805TIP3   OH235291   9.005   7.584   2.142
11805TIP3    H135292   9.027   7.626   2.226
11805TIP3    H235293   9.062   7.627   2.079
11806TIP3   OH235294   8.497   7.618   1.993
11806TIP3    H135295   8.505   7.712   2.010
11806TIP3    H235296   8.587   7.589   1.979
11807TIP3   OH235297   8.084   7.819   1.825
11807TIP3    H135298   8.077   7.912   1.846
11807TIP3    H235299   7.997   7.794   1.795
11808TIP3   OH235300   8.435   7.510   2.660
11808TIP3    H135301   8.408   7.479   2.574
11808TIP3    H235302   8.427   7.434   2.717
11809TIP3   OH235303   7.952   8.723   2.116
11809TIP3    H135304   7.940   8.785   2.187
11809TIP3    H235305   7.926   8.771   2.037
11810TIP3   OH235306   8.130   9.241   3.157
11810TIP3    H135307   8.220   9.213   3.168
11810TIP3    H235308   8.081   9.159   3.145
11811TIP3   OH235309   8.273   8.697   3.311
11811TIP3    H135310   8.294   8.604   3.319
11811TIP3    H235311   8.186   8.699   3.270
11812TIP3   OH235312   8.402   8.450   3.316
11812TIP3    H135313   8.480   8.412   3.276
11812TIP3    H235314   8.426   8.465   3.407
11813TIP3   OH235315   8.436   8.237   1.759
11813TIP3    H135316   8.419   8.214   1.850
11813TIP3    H235317   8.531   8.229   1.749
11814TIP3   OH235318   8.690   8.304   2.935
11814TIP3    H135319   8.618   8.363   2.955
11814TIP3    H235320   8.748   8.353   2.877
11815TIP3   OH235321   8.822   8.111   3.087
11815TIP3    H135322   8.836   8.030   3.038
11815TIP3    H235323   8.783   8.171   3.024
11816TIP3   OH235324   8.842   7.885   2.922
11816TIP3    H135325   8.875   7.930   2.844
11816TIP3    H235326   8.754   7.857   2.899
11817TIP3   OH235327   8.711   8.180   3.330
11817TIP3    H135328   8.652   8.106   3.346
11817TIP3    H235329   8.746   8.163   3.243
11818TIP3   OH235330   8.974   7.654   2.991
11818TIP3    H135331   8.931   7.737   2.968
11818TIP3    H235332   8.907   7.588   2.975
11819TIP3   OH235333   9.032   8.237   3.226
11819TIP3    H135334   9.050   8.171   3.293
11819TIP3    H235335   8.971   8.194   3.166
11820TIP3   OH235336   8.564   7.953   3.398
11820TIP3    H135337   8.570   7.867   3.357
11820TIP3    H235338   8.609   7.943   3.482
11821TIP3   OH235339   9.047   7.636   3.252
11821TIP3    H135340   9.115   7.569   3.247
11821TIP3    H235341   9.017   7.647   3.162
11822TIP3   OH235342   9.126   7.855   3.403
11822TIP3    H135343   9.100   7.785   3.343
11822TIP3    H235344   9.056   7.919   3.396
11823TIP3   OH235345   7.813   8.476   1.804
11823TIP3    H135346   7.849   8.547   1.752
11823TIP3    H235347   7.840   8.396   1.757
11824TIP3   OH235348   7.768   9.067   2.157
11824TIP3    H135349   7.705   9.003   2.125
11824TIP3    H235350   7.825   9.018   2.216
11825TIP3   OH235351   7.931   8.913   2.321
11825TIP3    H135352   7.918   8.862   2.401
11825TIP3    H235353   8.019   8.949   2.330
11826TIP3   OH235354   8.086   8.340   2.676
11826TIP3    H135355   8.080   8.309   2.586
11826TIP3    H235356   8.179   8.341   2.696
11827TIP3   OH235357   8.306   8.022   3.332
11827TIP3    H135358   8.399   8.012   3.350
11827TIP3    H235359   8.265   7.944   3.369
11828TIP3   OH235360   8.274   7.735   2.686
11828TIP3    H135361   8.327   7.655   2.688
11828TIP3    H235362   8.337   7.805   2.668
11829TIP3   OH235363   8.059   7.998   2.735
11829TIP3    H135364   8.113   7.991   2.657
11829TIP3    H235365   8.088   8.078   2.778
11830TIP3   OH235366   8.036   7.509   2.261
11830TIP3    H135367   7.947   7.505   2.296
11830TIP3    H235368   8.029   7.563   2.182
11831TIP3   OH235369   8.270   7.564   3.071
11831TIP3    H135370   8.221   7.563   3.154
11831TIP3    H235371   8.214   7.612   3.011
11832TIP3   OH235372   8.302   9.013   3.189
11832TIP3    H135373   8.248   8.977   3.119
11832TIP3    H235374   8.258   8.986   3.269
11833TIP3   OH235375   9.044   7.677   2.402
11833TIP3    H135376   9.007   7.619   2.469
11833TIP3    H235377   9.128   7.705   2.438
11834TIP3   OH235378   8.352   7.409   2.416
11834TIP3    H135379   8.263   7.375   2.428
11834TIP3    H235380   8.407   7.331   2.412
11835TIP3   OH235381   8.138   7.295   2.115
11835TIP3    H135382   8.185   7.347   2.050
11835TIP3    H235383   8.103   7.359   2.177
11836TIP3   OH235384   8.822   7.451   2.321
11836TIP3    H135385   8.876   7.497   2.256
11836TIP3    H235386   8.860   7.475   2.405
11837TIP3   OH235387   9.444   7.472   2.256
11837TIP3    H135388   9.407   7.545   2.207
11837TIP3    H235389   9.387   7.463   2.333
11838TIP3   OH235390   7.864   8.851   1.892
11838TIP3    H135391   7.772   8.876   1.906
11838TIP3    H235392   7.909   8.934   1.876
11839TIP3   OH235393   8.283   7.441   1.932
11839TIP3    H135394   8.326   7.381   1.871
11839TIP3    H235395   8.351   7.503   1.958
11840TIP3   OH235396   8.777   7.626   1.978
11840TIP3    H135397   8.838   7.590   2.043
11840TIP3    H235398   8.788   7.721   1.985
11841TIP3   OH235399   8.582   7.689   3.302
11841TIP3    H135400   8.548   7.623   3.362
11841TIP3    H235401   8.674   7.696   3.324
11842TIP3   OH235402   8.830   7.692   3.423
11842TIP3    H135403   8.907   7.670   3.371
11842TIP3    H235404   8.825   7.623   3.489
11843TIP3   OH235405   9.660   7.769   3.218
11843TIP3    H135406   9.677   7.744   3.309
11843TIP3    H235407   9.587   7.832   3.223
11844TIP3   OH235408   0.571   8.522   4.598
11844TIP3    H135409   0.564   8.616   4.580
11844TIP3    H235410   0.595   8.484   4.514
11845TIP3   OH235411   0.790   8.447   5.295
11845TIP3    H135412   0.854   8.395   5.246
11845TIP3    H235413   0.735   8.488   5.228
11846TIP3   OH235414   0.630   8.550   5.094
11846TIP3    H135415   0.547   8.592   5.115
11846TIP3    H235416   0.605   8.469   5.048
11847TIP3   OH235417   0.264   8.246   3.644
11847TIP3    H135418   0.303   8.164   3.617
11847TIP3    H235419   0.335   8.294   3.687
11848TIP3   OH235420   0.572   8.311   4.965
11848TIP3    H135421   0.489   8.295   4.920
11848TIP3    H235422   0.617   8.226   4.965
11849TIP3   OH235423   0.368   8.204   4.283
11849TIP3    H135424   0.439   8.144   4.260
11849TIP3    H235425   0.393   8.287   4.243
11850TIP3   OH235426   0.529   8.599   3.949
11850TIP3    H135427   0.463   8.668   3.956
11850TIP3    H235428   0.507   8.538   4.019
11851TIP3   OH235429   2.330   8.742   4.088
11851TIP3    H135430   2.354   8.829   4.122
11851TIP3    H235431   2.376   8.735   4.005
11852TIP3   OH235432   1.688   8.868   4.114
11852TIP3    H135433   1.732   8.791   4.150
11852TIP3    H235434   1.650   8.838   4.032
11853TIP3   OH235435   1.086   8.521   4.118
11853TIP3    H135436   1.079   8.588   4.050
11853TIP3    H235437   1.038   8.446   4.082
11854TIP3   OH235438   1.765   8.673   3.704
11854TIP3    H135439   1.828   8.657   3.774
11854TIP3    H235440   1.818   8.683   3.625
11855TIP3   OH235441   0.675   8.785   4.225
11855TIP3    H135442   0.744   8.722   4.204
11855TIP3    H235443   0.596   8.748   4.186
11856TIP3   OH235444   1.156   9.042   4.014
11856TIP3    H135445   1.235   9.018   3.967
11856TIP3    H235446   1.084   9.004   3.963
11857TIP3   OH235447   2.409   8.953   4.266
11857TIP3    H135448   2.411   9.007   4.187
11857TIP3    H235449   2.317   8.952   4.293
11858TIP3   OH235450   1.035   8.566   4.539
11858TIP3    H135451   0.973   8.583   4.469
11858TIP3    H235452   0.988   8.588   4.619
11859TIP3   OH235453   1.912   8.649   3.929
11859TIP3    H135454   1.874   8.616   4.010
11859TIP3    H235455   1.971   8.719   3.957
11860TIP3   OH235456   0.908   8.633   4.308
11860TIP3    H135457   0.939   8.723   4.321
11860TIP3    H235458   0.965   8.597   4.240
11861TIP3   OH235459   2.116   8.655   4.256
11861TIP3    H135460   2.030   8.658   4.214
11861TIP3    H235461   2.178   8.675   4.185
11862TIP3   OH235462   1.397   8.286   4.267
11862TIP3    H135463   1.389   8.194   4.294
11862TIP3    H235464   1.321   8.329   4.306
11863TIP3   OH235465   1.277   8.873   3.354
11863TIP3    H135466   1.257   8.961   3.323
11863TIP3    H235467   1.334   8.836   3.286
11864TIP3   OH235468   5.345   0.085   4.289
11864TIP3    H135469   5.289   0.158   4.263
11864TIP3    H235470   5.284   0.017   4.319
11865TIP3   OH235471   2.029   8.242   3.353
11865TIP3    H135472   1.950   8.258   3.405
11865TIP3    H235473   2.038   8.320   3.299
11866TIP3   OH235474   2.214   9.099   4.499
11866TIP3    H135475   2.127   9.114   4.462
11866TIP3    H235476   2.223   9.004   4.499
11867TIP3   OH235477   1.162   8.367   4.393
11867TIP3    H135478   1.082   8.332   4.353
11867TIP3    H235479   1.135   8.450   4.432
11868TIP3   OH235480   1.697   8.504   4.600
11868TIP3    H135481   1.770   8.473   4.654
11868TIP3    H235482   1.619   8.468   4.642
11869TIP3   OH235483   1.943   8.886   4.547
11869TIP3    H135484   1.909   8.897   4.636
11869TIP3    H235485   1.926   8.970   4.505
11870TIP3   OH235486   1.295   8.391   3.380
11870TIP3    H135487   1.257   8.390   3.467
11870TIP3    H235488   1.265   8.310   3.339
11871TIP3   OH235489   0.971   8.885   4.395
11871TIP3    H135490   0.956   8.872   4.488
11871TIP3    H235491   0.916   8.960   4.371
11872TIP3   OH235492   1.046   8.683   3.905
11872TIP3    H135493   0.956   8.682   3.936
11872TIP3    H235494   1.040   8.679   3.810
11873TIP3   OH235495   1.484   8.773   3.578
11873TIP3    H135496   1.429   8.846   3.549
11873TIP3    H235497   1.541   8.755   3.504
11874TIP3   OH235498   1.671   9.139   4.729
11874TIP3    H135499   1.666   9.060   4.783
11874TIP3    H235500   1.765   9.156   4.719
11875TIP3   OH235501   1.602   8.823   3.859
11875TIP3    H135502   1.514   8.827   3.821
11875TIP3    H235503   1.648   8.758   3.805
11876TIP3   OH235504   0.914   8.896   4.669
11876TIP3    H135505   0.861   8.942   4.734
11876TIP3    H235506   0.928   8.809   4.707
11877TIP3   OH235507   0.950   8.349   3.312
11877TIP3    H135508   0.921   8.405   3.384
11877TIP3    H235509   0.910   8.388   3.234
11878TIP3   OH235510   0.501   8.426   4.166
11878TIP3    H135511   0.451   8.495   4.211
11878TIP3    H235512   0.580   8.416   4.219
11879TIP3   OH235513   0.469   8.421   3.741
11879TIP3    H135514   0.458   8.458   3.653
11879TIP3    H235515   0.497   8.495   3.794
11880TIP3   OH235516   1.704   9.031   4.346
11880TIP3    H135517   1.702   8.964   4.277
11880TIP3    H235518   1.612   9.040   4.373
11881TIP3   OH235519   1.336   8.539   3.971
11881TIP3    H135520   1.258   8.512   4.020
11881TIP3    H235521   1.369   8.615   4.019
11882TIP3   OH235522   0.797   8.617   4.024
11882TIP3    H135523   0.713   8.622   3.977
11882TIP3    H235524   0.831   8.530   4.003
11883TIP3   OH235525   1.072   8.699   3.630
11883TIP3    H135526   1.154   8.651   3.633
11883TIP3    H235527   1.021   8.657   3.561
11884TIP3   OH235528   1.826   8.639   4.201
11884TIP3    H135529   1.808   8.666   4.291
11884TIP3    H235530   1.757   8.576   4.180
11885TIP3   OH235531   0.877   8.577   3.470
11885TIP3    H135532   0.789   8.612   3.485
11885TIP3    H235533   0.895   8.597   3.378
11886TIP3   OH235534   1.385   8.777   4.094
11886TIP3    H135535   1.405   8.870   4.097
11886TIP3    H235536   1.383   8.750   4.186
11887TIP3   OH235537   0.908   8.379   3.948
11887TIP3    H135538   0.869   8.303   3.990
11887TIP3    H235539   0.903   8.361   3.854
11888TIP3   OH235540   1.370   8.751   4.373
11888TIP3    H135541   1.305   8.818   4.351
11888TIP3    H235542   1.431   8.794   4.432
11889TIP3   OH235543   1.549   8.489   3.391
11889TIP3    H135544   1.459   8.456   3.387
11889TIP3    H235545   1.547   8.571   3.342
11890TIP3   OH235546   1.660   8.769   3.361
11890TIP3    H135547   1.745   8.740   3.395
11890TIP3    H235548   1.673   8.778   3.267
11891TIP3   OH235549   4.709   0.028   4.812
11891TIP3    H135550   4.660   0.041   4.731
11891TIP3    H235551   4.791  -0.012   4.783
11892TIP3   OH235552   2.108   8.914   3.283
11892TIP3    H135553   2.042   8.859   3.242
11892TIP3    H235554   2.082   8.918   3.375
11893TIP3   OH235555   0.924   8.632   4.780
11893TIP3    H135556   0.845   8.577   4.780
11893TIP3    H235557   0.979   8.595   4.849
11894TIP3   OH235558   1.748   8.723   4.448
11894TIP3    H135559   1.825   8.764   4.488
11894TIP3    H235560   1.731   8.646   4.502
11895TIP3   OH235561   1.623   8.448   3.647
11895TIP3    H135562   1.592   8.464   3.558
11895TIP3    H235563   1.665   8.530   3.674
11896TIP3   OH235564   1.317   8.587   3.694
11896TIP3    H135565   1.384   8.647   3.661
11896TIP3    H235566   1.326   8.592   3.789
11897TIP3   OH235567   1.541   8.883   4.540
11897TIP3    H135568   1.550   8.880   4.636
11897TIP3    H235569   1.617   8.835   4.508
11898TIP3   OH235570   1.445   8.337   3.822
11898TIP3    H135571   1.413   8.414   3.871
11898TIP3    H235572   1.509   8.373   3.761
11899TIP3   OH235573   0.912   8.370   3.657
11899TIP3    H135574   0.893   8.451   3.610
11899TIP3    H235575   1.007   8.358   3.648
11900TIP3   OH235576   2.192   8.821   4.467
11900TIP3    H135577   2.106   8.833   4.507
11900TIP3    H235578   2.176   8.762   4.393
11901TIP3   OH235579   1.857   8.958   3.831
11901TIP3    H135580   1.776   8.909   3.844
11901TIP3    H235581   1.919   8.919   3.893
11902TIP3   OH235582   0.421   8.519   3.487
11902TIP3    H135583   0.367   8.593   3.460
11902TIP3    H235584   0.389   8.446   3.435
11903TIP3   OH235585   0.906   8.276   4.341
11903TIP3    H135586   0.876   8.244   4.255
11903TIP3    H235587   0.892   8.202   4.400
11904TIP3   OH235588   0.975   9.206   5.006
11904TIP3    H135589   0.987   9.112   4.989
11904TIP3    H235590   0.888   9.212   5.045
11905TIP3   OH235591   1.267   9.031   4.617
11905TIP3    H135592   1.216   9.078   4.682
11905TIP3    H235593   1.313   9.100   4.568
11906TIP3   OH235594   1.004   8.873   3.306
11906TIP3    H135595   1.001   8.870   3.210
11906TIP3    H235596   1.093   8.844   3.328
11907TIP3   OH235597   1.301   8.805   4.789
11907TIP3    H135598   1.291   8.728   4.734
11907TIP3    H235599   1.280   8.879   4.731
11908TIP3   OH235600   1.295   8.610   4.595
11908TIP3    H135601   1.324   8.646   4.512
11908TIP3    H235602   1.202   8.592   4.582
11909TIP3   OH235603   1.913   9.112   4.946
11909TIP3    H135604   1.901   9.034   4.891
11909TIP3    H235605   2.005   9.136   4.932
11910TIP3   OH235606   1.063   8.957   4.960
11910TIP3    H135607   1.053   8.870   4.998
11910TIP3    H235608   1.158   8.969   4.950
11911TIP3   OH235609   1.447   8.401   4.674
11911TIP3    H135610   1.398   8.479   4.647
11911TIP3    H235611   1.385   8.328   4.662
11912TIP3   OH235612   1.568   8.849   4.816
11912TIP3    H135613   1.569   8.901   4.896
11912TIP3    H235614   1.479   8.813   4.811
11913TIP3   OH235615   1.839   8.890   4.795
11913TIP3    H135616   1.754   8.847   4.807
11913TIP3    H235617   1.901   8.835   4.843
11914TIP3   OH235618   2.072   8.820   4.931
11914TIP3    H135619   2.082   8.725   4.927
11914TIP3    H235620   2.069   8.840   5.024
11915TIP3   OH235621   1.039   8.713   5.085
11915TIP3    H135622   1.047   8.626   5.048
11915TIP3    H235623   1.074   8.706   5.174
11916TIP3   OH235624   1.507   8.407   4.940
11916TIP3    H135625   1.579   8.343   4.936
11916TIP3    H235626   1.474   8.412   4.850
11917TIP3   OH235627   1.604   8.619   5.082
11917TIP3    H135628   1.579   8.544   5.028
11917TIP3    H235629   1.527   8.677   5.080
11918TIP3   OH235630   1.953   8.756   3.136
11918TIP3    H135631   2.019   8.755   3.066
11918TIP3    H235632   1.912   8.670   3.131
11919TIP3   OH235633   1.907   9.138   3.628
11919TIP3    H135634   1.869   9.077   3.691
11919TIP3    H235635   1.893   9.224   3.666
11920TIP3   OH235636   5.470   0.166   4.528
11920TIP3    H135637   5.418   0.141   4.452
11920TIP3    H235638   5.524   0.239   4.497
11921TIP3   OH235639   1.828   8.516   3.078
11921TIP3    H135640   1.907   8.470   3.106
11921TIP3    H235641   1.757   8.452   3.090
11922TIP3   OH235642   1.903   8.701   3.467
11922TIP3    H135643   1.960   8.624   3.472
11922TIP3    H235644   1.960   8.774   3.492
11923TIP3   OH235645   2.051   8.865   4.010
11923TIP3    H135646   2.118   8.867   3.941
11923TIP3    H235647   2.095   8.899   4.087
11924TIP3   OH235648   2.127   9.013   4.227
11924TIP3    H135649   2.042   9.022   4.269
11924TIP3    H235650   2.134   9.089   4.170
11925TIP3   OH235651   0.773   8.784   5.049
11925TIP3    H135652   0.865   8.758   5.044
11925TIP3    H235653   0.725   8.702   5.057
11926TIP3   OH235654   2.571   8.698   4.770
11926TIP3    H135655   2.648   8.642   4.759
11926TIP3    H235656   2.549   8.726   4.681
11927TIP3   OH235657   2.057   8.487   3.543
11927TIP3    H135658   2.093   8.487   3.632
11927TIP3    H235659   1.989   8.420   3.544
11928TIP3   OH235660   0.702   8.459   4.359
11928TIP3    H135661   0.763   8.385   4.365
11928TIP3    H235662   0.757   8.535   4.342
11929TIP3   OH235663   0.578   8.770   4.482
11929TIP3    H135664   0.625   8.781   4.399
11929TIP3    H235665   0.546   8.858   4.503
11930TIP3   OH235666   2.448   8.768   4.536
11930TIP3    H135667   2.359   8.798   4.519
11930TIP3    H235668   2.450   8.679   4.500
11931TIP3   OH235669   2.080   8.449   3.177
11931TIP3    H135670   2.126   8.391   3.116
11931TIP3    H235671   2.142   8.521   3.191
11932TIP3   OH235672   0.542   8.237   3.929
11932TIP3    H135673   0.521   8.276   4.013
11932TIP3    H235674   0.512   8.301   3.864
11933TIP3   OH235675   0.744   8.421   4.778
11933TIP3    H135676   0.689   8.390   4.850
11933TIP3    H235677   0.682   8.452   4.712
11934TIP3   OH235678   2.362   8.511   4.473
11934TIP3    H135679   2.274   8.480   4.453
11934TIP3    H235680   2.416   8.432   4.470
11935TIP3   OH235681   1.613   8.484   4.137
11935TIP3    H135682   1.535   8.430   4.155
11935TIP3    H235683   1.658   8.437   4.067
11936TIP3   OH235684   2.078   8.407   4.004
11936TIP3    H135685   2.114   8.462   3.934
11936TIP3    H235686   1.983   8.416   3.994
11937TIP3   OH235687   2.203   8.500   3.777
11937TIP3    H135688   2.267   8.432   3.754
11937TIP3    H235689   2.244   8.582   3.750
11938TIP3   OH235690   0.809   8.175   4.104
11938TIP3    H135691   0.719   8.146   4.114
11938TIP3    H235692   0.860   8.094   4.100
11939TIP3   OH235693   0.626   8.050   3.744
11939TIP3    H135694   0.649   8.102   3.667
11939TIP3    H235695   0.598   8.114   3.809
11940TIP3   OH235696   1.282   8.225   4.018
11940TIP3    H135697   1.337   8.259   3.947
11940TIP3    H235698   1.324   8.255   4.098
11941TIP3   OH235699   1.797   8.361   3.969
11941TIP3    H135700   1.810   8.321   3.883
11941TIP3    H235701   1.796   8.288   4.030
11942TIP3   OH235702   1.845   8.311   3.549
11942TIP3    H135703   1.766   8.358   3.575
11942TIP3    H235704   1.835   8.224   3.588
11943TIP3   OH235705   0.731   8.203   3.525
11943TIP3    H135706   0.786   8.154   3.463
11943TIP3    H235707   0.793   8.256   3.576
11944TIP3   OH235708   1.182   8.361   3.628
11944TIP3    H135709   1.218   8.276   3.653
11944TIP3    H235710   1.241   8.424   3.669
11945TIP3   OH235711   1.052   8.457   4.980
11945TIP3    H135712   1.010   8.399   5.043
11945TIP3    H235713   1.143   8.461   5.008
11946TIP3   OH235714   1.292   8.465   5.110
11946TIP3    H135715   1.371   8.443   5.061
11946TIP3    H235716   1.285   8.395   5.175
11947TIP3   OH235717   2.103   8.551   4.907
11947TIP3    H135718   2.124   8.519   4.996
11947TIP3    H235719   2.186   8.547   4.860
11948TIP3   OH235720   2.318   9.039   3.506
11948TIP3    H135721   2.327   9.065   3.598
11948TIP3    H235722   2.299   8.946   3.508
11949TIP3   OH235723   4.141   9.008   3.600
11949TIP3    H135724   4.170   9.087   3.644
11949TIP3    H235725   4.181   9.012   3.513
11950TIP3   OH235726   3.449   9.128   3.636
11950TIP3    H135727   3.469   9.054   3.692
11950TIP3    H235728   3.434   9.090   3.550
11951TIP3   OH235729   2.881   8.767   3.603
11951TIP3    H135730   2.872   8.839   3.541
11951TIP3    H235731   2.837   8.693   3.560
11952TIP3   OH235732   3.569   8.941   3.197
11952TIP3    H135733   3.633   8.926   3.266
11952TIP3    H235734   3.621   8.948   3.117
11953TIP3   OH235735   2.491   9.014   3.734
11953TIP3    H135736   2.573   8.996   3.781
11953TIP3    H235737   2.499   8.964   3.653
11954TIP3   OH235738   6.219   0.072   3.510
11954TIP3    H135739   6.308   0.101   3.492
11954TIP3    H235740   6.188   0.035   3.428
11955TIP3   OH235741   4.218   9.204   3.780
11955TIP3    H135742   4.127   9.231   3.768
11955TIP3    H235743   4.254   9.266   3.844
11956TIP3   OH235744   2.836   8.820   4.037
11956TIP3    H135745   2.786   8.859   3.965
11956TIP3    H235746   2.781   8.831   4.114
11957TIP3   OH235747   3.722   8.932   3.419
11957TIP3    H135748   3.689   8.904   3.504
11957TIP3    H235749   3.792   8.994   3.439
11958TIP3   OH235750   2.736   8.908   3.797
11958TIP3    H135751   2.779   8.984   3.758
11958TIP3    H235752   2.768   8.834   3.746
11959TIP3   OH235753   3.925   8.918   3.759
11959TIP3    H135754   3.842   8.918   3.711
11959TIP3    H235755   3.990   8.940   3.692
11960TIP3   OH235756   3.193   8.549   3.752
11960TIP3    H135757   3.187   8.457   3.780
11960TIP3    H235758   3.117   8.591   3.792
11961TIP3   OH235759   3.041   9.157   2.845
11961TIP3    H135760   3.041   9.251   2.828
11961TIP3    H235761   3.104   9.122   2.781
11962TIP3   OH235762   7.146   0.341   3.857
11962TIP3    H135763   7.104   0.426   3.849
11962TIP3    H235764   7.075   0.278   3.845
11963TIP3   OH235765   3.822   8.504   2.836
11963TIP3    H135766   3.747   8.522   2.892
11963TIP3    H235767   3.833   8.583   2.784
11964TIP3   OH235768   7.263   0.154   4.035
11964TIP3    H135769   7.209   0.192   3.965
11964TIP3    H235770   7.270   0.061   4.012
11965TIP3   OH235771   2.956   8.624   3.881
11965TIP3    H135772   2.878   8.591   3.835
11965TIP3    H235773   2.923   8.697   3.934
11966TIP3   OH235774   3.500   8.750   4.086
11966TIP3    H135775   3.573   8.725   4.142
11966TIP3    H235776   3.422   8.719   4.133
11967TIP3   OH235777   3.736   9.124   4.016
11967TIP3    H135778   3.699   9.127   4.104
11967TIP3    H235779   3.724   9.213   3.982
11968TIP3   OH235780   3.102   8.653   2.861
11968TIP3    H135781   3.066   8.646   2.949
11968TIP3    H235782   3.077   8.571   2.818
11969TIP3   OH235783   2.922   9.127   3.944
11969TIP3    H135784   2.843   9.109   3.995
11969TIP3    H235785   2.892   9.126   3.853
11970TIP3   OH235786   2.865   8.948   3.402
11970TIP3    H135787   2.807   9.024   3.408
11970TIP3    H235788   2.843   8.908   3.318
11971TIP3   OH235789   3.260   9.014   3.049
11971TIP3    H135790   3.296   9.093   3.089
11971TIP3    H235791   3.314   9.000   2.971
11972TIP3   OH235792   6.746   0.142   4.197
11972TIP3    H135793   6.740   0.050   4.223
11972TIP3    H235794   6.839   0.164   4.208
11973TIP3   OH235795   3.406   9.066   3.377
11973TIP3    H135796   3.340   9.099   3.316
11973TIP3    H235797   3.460   9.007   3.325
11974TIP3   OH235798   2.714   9.125   4.117
11974TIP3    H135799   2.680   9.188   4.180
11974TIP3    H235800   2.707   9.040   4.161
11975TIP3   OH235801   2.778   8.624   2.794
11975TIP3    H135802   2.737   8.655   2.875
11975TIP3    H235803   2.744   8.683   2.726
11976TIP3   OH235804   2.347   8.697   3.644
11976TIP3    H135805   2.437   8.707   3.675
11976TIP3    H235806   2.353   8.640   3.568
11977TIP3   OH235807   2.250   8.681   3.220
11977TIP3    H135808   2.247   8.693   3.126
11977TIP3    H235809   2.222   8.765   3.257
11978TIP3   OH235810   6.732   0.094   3.823
11978TIP3    H135811   6.737   0.026   3.756
11978TIP3    H235812   6.681   0.055   3.893
11979TIP3   OH235813   3.138   8.804   3.459
11979TIP3    H135814   3.061   8.774   3.507
11979TIP3    H235815   3.170   8.879   3.509
11980TIP3   OH235816   2.572   8.853   3.525
11980TIP3    H135817   2.564   8.899   3.441
11980TIP3    H235818   2.621   8.773   3.503
11981TIP3   OH235819   2.818   8.887   3.135
11981TIP3    H135820   2.913   8.875   3.129
11981TIP3    H235821   2.789   8.890   3.044
11982TIP3   OH235822   3.639   8.884   3.678
11982TIP3    H135823   3.618   8.912   3.767
11982TIP3    H235824   3.566   8.827   3.652
11983TIP3   OH235825   2.666   8.875   2.902
11983TIP3    H135826   2.625   8.835   2.825
11983TIP3    H235827   2.715   8.950   2.868
11984TIP3   OH235828   3.156   9.048   3.598
11984TIP3    H135829   3.193   9.135   3.586
11984TIP3    H235830   3.172   9.027   3.690
11985TIP3   OH235831   2.706   8.626   3.436
11985TIP3    H135832   2.665   8.554   3.485
11985TIP3    H235833   2.711   8.595   3.346
11986TIP3   OH235834   3.169   9.048   3.866
11986TIP3    H135835   3.086   9.076   3.906
11986TIP3    H235836   3.236   9.082   3.925
11987TIP3   OH235837   3.358   8.752   2.867
11987TIP3    H135838   3.265   8.732   2.860
11987TIP3    H235839   3.366   8.843   2.839
11988TIP3   OH235840   3.455   9.016   2.847
11988TIP3    H135841   3.540   8.992   2.885
11988TIP3    H235842   3.477   9.065   2.769
11989TIP3   OH235843   6.528   0.286   4.292
11989TIP3    H135844   6.482   0.301   4.209
11989TIP3    H235845   6.607   0.236   4.267
11990TIP3   OH235846   3.873   9.121   2.742
11990TIP3    H135847   3.799   9.104   2.683
11990TIP3    H235848   3.854   9.207   2.779
11991TIP3   OH235849   2.681   8.882   4.257
11991TIP3    H135850   2.587   8.894   4.272
11991TIP3    H235851   2.709   8.822   4.326
11992TIP3   OH235852   3.543   8.962   3.920
11992TIP3    H135853   3.621   9.004   3.956
11992TIP3    H235854   3.528   8.886   3.976
11993TIP3   OH235855   3.422   8.716   3.130
11993TIP3    H135856   3.396   8.731   3.039
11993TIP3    H235857   3.464   8.798   3.157
11994TIP3   OH235858   3.089   8.853   3.185
11994TIP3    H135859   3.152   8.909   3.139
11994TIP3    H235860   3.116   8.856   3.276
11995TIP3   OH235861   3.370   9.156   4.009
11995TIP3    H135862   3.357   9.153   4.104
11995TIP3    H235863   3.434   9.088   3.991
11996TIP3   OH235864   3.243   8.603   3.305
11996TIP3    H135865   3.217   8.678   3.357
11996TIP3    H235866   3.310   8.637   3.244
11997TIP3   OH235867   2.727   8.622   3.119
11997TIP3    H135868   2.730   8.717   3.133
11997TIP3    H235869   2.818   8.596   3.108
11998TIP3   OH235870   4.000   9.111   3.979
11998TIP3    H135871   3.909   9.105   4.008
11998TIP3    H235872   4.004   9.058   3.900
11999TIP3   OH235873   3.702   9.236   3.313
11999TIP3    H135874   3.623   9.182   3.320
11999TIP3    H235875   3.759   9.204   3.383
12000TIP3   OH235876   2.176   8.763   2.970
12000TIP3    H135877   2.257   8.809   2.952
12000TIP3    H235878   2.158   8.714   2.889
12001TIP3   OH235879   2.691   8.541   3.833
12001TIP3    H135880   2.661   8.504   3.750
12001TIP3    H235881   2.686   8.468   3.895
12002TIP3   OH235882   6.068   0.229   4.481
12002TIP3    H135883   6.078   0.135   4.489
12002TIP3    H235884   5.990   0.250   4.532
12003TIP3   OH235885   6.360   0.025   4.100
12003TIP3    H135886   6.287  -0.011   4.049
12003TIP3    H235887   6.323   0.103   4.143
12004TIP3   OH235888   2.779   9.100   2.800
12004TIP3    H135889   2.778   9.112   2.705
12004TIP3    H235890   2.872   9.109   2.824
12005TIP3   OH235891   3.082   9.045   4.283
12005TIP3    H135892   3.081   8.976   4.216
12005TIP3    H235893   3.078   9.126   4.233
12006TIP3   OH235894   3.100   8.870   4.070
12006TIP3    H135895   3.127   8.902   3.984
12006TIP3    H235896   3.007   8.851   4.060
12007TIP3   OH235897   6.949   0.104   4.433
12007TIP3    H135898   6.998   0.030   4.397
12007TIP3    H235899   7.014   0.173   4.446
12008TIP3   OH235900   2.914   9.227   4.554
12008TIP3    H135901   2.881   9.139   4.534
12008TIP3    H235902   2.980   9.244   4.486
12009TIP3   OH235903   3.244   8.658   4.160
12009TIP3    H135904   3.198   8.737   4.131
12009TIP3    H235905   3.179   8.588   4.151
12010TIP3   OH235906   3.349   9.111   4.286
12010TIP3    H135907   3.355   9.166   4.364
12010TIP3    H235908   3.262   9.071   4.292
12011TIP3   OH235909   3.619   9.112   4.254
12011TIP3    H135910   3.533   9.080   4.281
12011TIP3    H235911   3.679   9.079   4.320
12012TIP3   OH235912   3.842   9.082   4.418
12012TIP3    H135913   3.863   8.989   4.409
12012TIP3    H235914   3.842   9.098   4.512
12013TIP3   OH235915   2.798   8.979   4.575
12013TIP3    H135916   2.804   8.902   4.518
12013TIP3    H235917   2.849   8.956   4.652
12014TIP3   OH235918   3.305   8.669   4.426
12014TIP3    H135919   3.375   8.604   4.423
12014TIP3    H235920   3.271   8.672   4.337
12015TIP3   OH235921   3.415   8.880   4.559
12015TIP3    H135922   3.384   8.804   4.510
12015TIP3    H235923   3.341   8.941   4.559
12016TIP3   OH235924   3.683   9.068   2.550
12016TIP3    H135925   3.714   9.081   2.460
12016TIP3    H235926   3.656   8.976   2.552
12017TIP3   OH235927   6.906   0.187   3.109
12017TIP3    H135928   6.957   0.107   3.121
12017TIP3    H235929   6.894   0.223   3.197
12018TIP3   OH235930   3.623   8.802   2.551
12018TIP3    H135931   3.701   8.763   2.590
12018TIP3    H235932   3.554   8.737   2.561
12019TIP3   OH235933   3.701   8.969   2.960
12019TIP3    H135934   3.765   8.898   2.963
12019TIP3    H235935   3.752   9.049   2.972
12020TIP3   OH235936   3.894   9.132   3.484
12020TIP3    H135937   3.951   9.130   3.407
12020TIP3    H235938   3.951   9.161   3.555
12021TIP3   OH235939   7.224   0.049   3.737
12021TIP3    H135940   7.142   0.022   3.777
12021TIP3    H235941   7.198   0.110   3.668
12022TIP3   OH235942   2.525   9.022   4.608
12022TIP3    H135943   2.614   9.019   4.572
12022TIP3    H235944   2.484   8.941   4.576
12023TIP3   OH235945   4.393   8.967   4.271
12023TIP3    H135946   4.458   8.905   4.239
12023TIP3    H235947   4.360   9.009   4.191
12024TIP3   OH235948   3.860   8.753   3.029
12024TIP3    H135949   3.904   8.744   3.114
12024TIP3    H235950   3.791   8.687   3.030
12025TIP3   OH235951   2.516   8.745   3.881
12025TIP3    H135952   2.570   8.665   3.878
12025TIP3    H235953   2.577   8.816   3.861
12026TIP3   OH235954   2.391   9.040   4.004
12026TIP3    H135955   2.410   9.011   3.914
12026TIP3    H235956   2.379   9.134   3.997
12027TIP3   OH235957   4.255   9.060   4.055
12027TIP3    H135958   4.166   9.094   4.048
12027TIP3    H235959   4.253   8.976   4.008
12028TIP3   OH235960   3.864   8.712   2.658
12028TIP3    H135961   3.904   8.647   2.600
12028TIP3    H235962   3.927   8.783   2.661
12029TIP3   OH235963   2.313   8.522   3.429
12029TIP3    H135964   2.227   8.495   3.460
12029TIP3    H235965   2.295   8.581   3.355
12030TIP3   OH235966   2.512   8.603   4.251
12030TIP3    H135967   2.453   8.569   4.319
12030TIP3    H235968   2.453   8.648   4.190
12031TIP3   OH235969   4.162   8.808   3.967
12031TIP3    H135970   4.073   8.791   3.937
12031TIP3    H235971   4.205   8.723   3.962
12032TIP3   OH235972   3.404   8.749   3.624
12032TIP3    H135973   3.333   8.689   3.646
12032TIP3    H235974   3.450   8.706   3.552
12033TIP3   OH235975   3.867   8.672   3.511
12033TIP3    H135976   3.910   8.711   3.435
12033TIP3    H235977   3.774   8.685   3.495
12034TIP3   OH235978   3.998   8.714   3.273
12034TIP3    H135979   4.059   8.646   3.243
12034TIP3    H235980   4.040   8.797   3.248
12035TIP3   OH235981   2.597   8.433   3.598
12035TIP3    H135982   2.508   8.401   3.608
12035TIP3    H235983   2.651   8.354   3.591
12036TIP3   OH235984   2.451   8.346   3.255
12036TIP3    H135985   2.463   8.392   3.173
12036TIP3    H235986   2.410   8.410   3.313
12037TIP3   OH235987   3.076   8.490   3.500
12037TIP3    H135988   3.134   8.522   3.431
12037TIP3    H235989   3.119   8.517   3.581
12038TIP3   OH235990   3.586   8.630   3.451
12038TIP3    H135991   3.608   8.593   3.366
12038TIP3    H235992   3.586   8.555   3.511
12039TIP3   OH235993   3.646   8.575   3.038
12039TIP3    H135994   3.567   8.623   3.063
12039TIP3    H235995   3.634   8.488   3.076
12040TIP3   OH235996   2.524   8.473   3.014
12040TIP3    H135997   2.568   8.412   2.954
12040TIP3    H235998   2.595   8.524   3.053
12041TIP3   OH235999   2.997   8.610   3.109
12041TIP3    H136000   3.035   8.529   3.142
12041TIP3    H236001   3.045   8.680   3.155
12042TIP3   OH236002   2.827   8.718   4.476
12042TIP3    H136003   2.795   8.658   4.544
12042TIP3    H236004   2.920   8.728   4.496
12043TIP3   OH236005   3.076   8.724   4.605
12043TIP3    H136006   3.156   8.701   4.558
12043TIP3    H236007   3.071   8.661   4.677
12044TIP3   OH236008   3.909   8.818   4.391
12044TIP3    H136009   3.926   8.788   4.480
12044TIP3    H236010   3.995   8.815   4.348
12045TIP3   OH236011   4.095   9.116   2.925
12045TIP3    H136012   4.080   9.210   2.932
12045TIP3    H236013   4.032   9.085   2.861
12046TIP3   OH236014   9.226   0.031   3.064
12046TIP3    H136015   9.248   0.109   3.116
12046TIP3    H236016   9.261   0.050   2.977
12047TIP3   OH236017   8.596   0.213   3.091
12047TIP3    H136018   8.622   0.125   3.118
12047TIP3    H236019   8.633   0.224   3.003
12048TIP3   OH236020   4.667   9.030   3.093
12048TIP3    H136021   4.667   9.101   3.029
12048TIP3    H236022   4.612   8.962   3.054
12049TIP3   OH236023   5.362   9.180   2.690
12049TIP3    H136024   5.434   9.200   2.750
12049TIP3    H236025   5.332   9.266   2.660
12050TIP3   OH236026   7.570   0.056   3.232
12050TIP3    H136027   7.654   0.032   3.272
12050TIP3    H236028   7.564   0.001   3.153
12051TIP3   OH236029   8.025   0.333   2.965
12051TIP3    H136030   8.116   0.306   2.956
12051TIP3    H236031   7.981   0.297   2.887
12052TIP3   OH236032   9.289   0.240   3.241
12052TIP3    H136033   9.202   0.276   3.226
12052TIP3    H236034   9.318   0.280   3.323
12053TIP3   OH236035   4.641   9.065   3.519
12053TIP3    H136036   4.597   9.112   3.448
12053TIP3    H236037   4.585   9.078   3.595
12054TIP3   OH236038   8.812  -0.006   2.890
12054TIP3    H136039   8.780  -0.038   2.974
12054TIP3    H236040   8.868   0.068   2.912
12055TIP3   OH236041   4.542   9.178   3.290
12055TIP3    H136042   4.591   9.253   3.257
12055TIP3    H236043   4.565   9.106   3.231
12056TIP3   OH236044   5.726   9.213   3.226
12056TIP3    H136045   5.639   9.205   3.187
12056TIP3    H236046   5.785   9.221   3.152
12057TIP3   OH236047   4.971   8.789   3.237
12057TIP3    H136048   4.965   8.699   3.267
12057TIP3    H236049   4.894   8.832   3.275
12058TIP3   OH236050   8.140   0.112   2.227
12058TIP3    H136051   8.205   0.161   2.278
12058TIP3    H236052   8.192   0.062   2.164
12059TIP3   OH236053   8.858   0.541   3.247
12059TIP3    H136054   8.852   0.631   3.278
12059TIP3    H236055   8.768   0.513   3.235
12060TIP3   OH236056   5.628   8.756   2.342
12060TIP3    H136057   5.550   8.773   2.396
12060TIP3    H236058   5.639   8.837   2.292
12061TIP3   OH236059   9.020   0.404   3.527
12061TIP3    H136060   8.931   0.415   3.492
12061TIP3    H236061   9.046   0.316   3.499
12062TIP3   OH236062   4.737   8.865   3.362
12062TIP3    H136063   4.656   8.844   3.315
12062TIP3    H236064   4.715   8.942   3.415
12063TIP3   OH236065   5.291   8.982   3.544
12063TIP3    H136066   5.359   8.969   3.609
12063TIP3    H236067   5.209   8.960   3.589
12064TIP3   OH236068   8.800   0.160   3.517
12064TIP3    H136069   8.763   0.138   3.602
12064TIP3    H236070   8.776   0.252   3.503
12065TIP3   OH236071   4.905   8.931   2.324
12065TIP3    H136072   4.873   8.939   2.414
12065TIP3    H236073   4.863   8.852   2.291
12066TIP3   OH236074   8.006   0.123   3.447
12066TIP3    H136075   7.923   0.116   3.494
12066TIP3    H236076   7.980   0.132   3.355
12067TIP3   OH236077   4.662   9.196   2.882
12067TIP3    H136078   4.605   9.273   2.890
12067TIP3    H236079   4.649   9.166   2.792
12068TIP3   OH236080   8.551   0.415   3.725
12068TIP3    H136081   8.534   0.363   3.803
12068TIP3    H236082   8.638   0.388   3.696
12069TIP3   OH236083   8.412   0.046   2.877
12069TIP3    H136084   8.418   0.098   2.797
12069TIP3    H236085   8.481  -0.020   2.869
12070TIP3   OH236086   7.766   0.127   3.571
12070TIP3    H136087   7.732   0.193   3.632
12070TIP3    H236088   7.757   0.044   3.618
12071TIP3   OH236089   4.568   8.923   2.305
12071TIP3    H136090   4.561   8.926   2.400
12071TIP3    H236091   4.493   8.974   2.274
12072TIP3   OH236092   4.136   8.901   3.139
12072TIP3    H136093   4.110   8.993   3.141
12072TIP3    H236094   4.160   8.884   3.048
12073TIP3   OH236095   4.042   8.925   2.663
12073TIP3    H136096   4.101   8.964   2.599
12073TIP3    H236097   3.982   8.995   2.686
12074TIP3   OH236098   8.597   0.432   3.259
12074TIP3    H136099   8.609   0.359   3.198
12074TIP3    H236100   8.513   0.414   3.301
12075TIP3   OH236101   4.939   9.038   2.986
12075TIP3    H136102   4.852   9.019   3.019
12075TIP3    H236103   4.956   9.128   3.013
12076TIP3   OH236104   4.351   9.124   3.024
12076TIP3    H136105   4.270   9.117   2.973
12076TIP3    H236106   4.407   9.055   2.989
12077TIP3   OH236107   4.623   9.173   2.608
12077TIP3    H136108   4.713   9.196   2.582
12077TIP3    H236109   4.571   9.187   2.529
12078TIP3   OH236110   5.421   9.194   3.154
12078TIP3    H136111   5.403   9.211   3.247
12078TIP3    H236112   5.355   9.129   3.128
12079TIP3   OH236113   4.449   9.195   2.403
12079TIP3    H136114   4.386   9.157   2.342
12079TIP3    H236115   4.489   9.267   2.355
12080TIP3   OH236116   8.225   0.049   3.094
12080TIP3    H136117   8.304   0.080   3.049
12080TIP3    H236118   8.248   0.051   3.187
12081TIP3   OH236119   4.488   8.896   2.932
12081TIP3    H136120   4.448   8.822   2.978
12081TIP3    H236121   4.506   8.862   2.844
12082TIP3   OH236122   8.254   0.077   3.360
12082TIP3    H136123   8.171   0.103   3.401
12082TIP3    H236124   8.321   0.101   3.425
12083TIP3   OH236125   5.152   9.043   2.342
12083TIP3    H136126   5.060   9.021   2.329
12083TIP3    H236127   5.156   9.138   2.326
12084TIP3   OH236128   8.493   0.072   2.322
12084TIP3    H136129   8.587   0.059   2.324
12084TIP3    H236130   8.473   0.121   2.402
12085TIP3   OH236131   8.307   0.550   3.781
12085TIP3    H136132   8.276   0.568   3.692
12085TIP3    H236133   8.398   0.521   3.768
12086TIP3   OH236134   8.929   0.183   2.201
12086TIP3    H136135   8.876   0.135   2.137
12086TIP3    H236136   8.922   0.274   2.174
12087TIP3   OH236137   4.480   9.130   3.728
12087TIP3    H136138   4.386   9.142   3.745
12087TIP3    H236139   4.513   9.088   3.807
12088TIP3   OH236140   5.342   9.225   3.417
12088TIP3    H136141   5.422   9.259   3.457
12088TIP3    H236142   5.328   9.140   3.460
12089TIP3   OH236143   5.213   8.973   2.600
12089TIP3    H136144   5.188   8.998   2.511
12089TIP3    H236145   5.265   9.048   2.631
12090TIP3   OH236146   8.185  -0.027   2.597
12090TIP3    H136147   8.265   0.009   2.559
12090TIP3    H236148   8.169   0.027   2.674
12091TIP3   OH236149   8.438   0.169   3.536
12091TIP3    H136150   8.442   0.158   3.631
12091TIP3    H236151   8.505   0.110   3.502
12092TIP3   OH236152   5.029   8.881   2.780
12092TIP3    H136153   5.011   8.951   2.844
12092TIP3    H236154   5.095   8.918   2.723
12093TIP3   OH236155   4.558   8.899   2.584
12093TIP3    H136156   4.553   8.992   2.607
12093TIP3    H236157   4.651   8.878   2.587
12094TIP3   OH236158   9.057   0.138   3.443
12094TIP3    H136159   8.968   0.136   3.477
12094TIP3    H236160   9.054   0.083   3.364
12095TIP3   OH236161   8.668   0.273   2.834
12095TIP3    H136162   8.602   0.254   2.767
12095TIP3    H236163   8.654   0.365   2.856
12096TIP3   OH236164   4.066   9.127   2.464
12096TIP3    H136165   4.092   9.176   2.387
12096TIP3    H236166   3.975   9.100   2.447
12097TIP3   OH236167   4.464   8.810   3.312
12097TIP3    H136168   4.435   8.775   3.228
12097TIP3    H236169   4.461   8.736   3.372
12098TIP3   OH236170   7.742   0.400   4.035
12098TIP3    H136171   7.821   0.352   4.006
12098TIP3    H236172   7.722   0.459   3.963
12099TIP3   OH236173   8.106   0.353   3.595
12099TIP3    H136174   8.031   0.342   3.537
12099TIP3    H236175   8.162   0.416   3.551
12100TIP3   OH236176   7.861   0.151   2.271
12100TIP3    H136177   7.821   0.123   2.188
12100TIP3    H236178   7.955   0.140   2.258
12101TIP3   OH236179   8.149   0.103   3.733
12101TIP3    H136180   8.144   0.028   3.673
12101TIP3    H236181   8.127   0.179   3.679
12102TIP3   OH236182   4.903   9.128   3.553
12102TIP3    H136183   4.931   9.165   3.469
12102TIP3    H236184   4.810   9.110   3.541
12103TIP3   OH236185   8.858   0.384   3.774
12103TIP3    H136186   8.879   0.297   3.807
12103TIP3    H236187   8.925   0.401   3.708
12104TIP3   OH236188   7.957   0.253   3.950
12104TIP3    H136189   7.929   0.162   3.953
12104TIP3    H236190   8.048   0.250   3.920
12105TIP3   OH236191   5.039   8.917   3.649
12105TIP3    H136192   4.996   8.997   3.618
12105TIP3    H236193   4.973   8.849   3.636
12106TIP3   OH236194   8.412   0.108   3.808
12106TIP3    H136195   8.411   0.140   3.898
12106TIP3    H236196   8.320   0.096   3.786
12107TIP3   OH236197   8.677   0.101   3.744
12107TIP3    H136198   8.589   0.089   3.782
12107TIP3    H236199   8.736   0.095   3.818
12108TIP3   OH236200   8.920   0.115   3.888
12108TIP3    H136201   8.933   0.020   3.885
12108TIP3    H236202   8.921   0.136   3.982
12109TIP3   OH236203   4.612   9.234   4.008
12109TIP3    H136204   4.629   9.144   3.983
12109TIP3    H236205   4.639   9.239   4.100
12110TIP3   OH236206   5.100   8.930   3.915
12110TIP3    H136207   5.172   8.867   3.910
12110TIP3    H236208   5.068   8.937   3.825
12111TIP3   OH236209   5.208   9.144   4.051
12111TIP3    H136210   5.180   9.070   3.997
12111TIP3    H236211   5.132   9.202   4.052
12112TIP3   OH236212   8.780   0.062   2.013
12112TIP3    H136213   8.756   0.089   1.925
12112TIP3    H236214   8.746  -0.027   2.021
12113TIP3   OH236215   8.868   0.261   2.651
12113TIP3    H136216   8.806   0.302   2.591
12113TIP3    H236217   8.819   0.251   2.733
12114TIP3   OH236218   9.238   0.564   3.569
12114TIP3    H136219   9.160   0.515   3.545
12114TIP3    H236220   9.310   0.515   3.531
12115TIP3   OH236221   5.427   9.047   2.041
12115TIP3    H136222   5.499   9.003   2.087
12115TIP3    H236223   5.352   8.989   2.054
12116TIP3   OH236224   8.886   0.040   2.454
12116TIP3    H136225   8.870  -0.053   2.471
12116TIP3    H236226   8.869   0.050   2.360
12117TIP3   OH236227   8.971   0.209   2.962
12117TIP3    H136228   8.993   0.275   2.897
12117TIP3    H236229   8.995   0.248   3.046
12118TIP3   OH236230   9.063   0.381   3.165
12118TIP3    H136231   8.985   0.421   3.205
12118TIP3    H236232   9.119   0.456   3.143
12119TIP3   OH236233   7.615   0.077   4.000
12119TIP3    H136234   7.709   0.062   3.988
12119TIP3    H236235   7.581  -0.007   4.031
12120TIP3   OH236236   6.187   9.215   3.751
12120TIP3    H136237   6.253   9.161   3.707
12120TIP3    H236238   6.147   9.266   3.680
12121TIP3   OH236239   5.629   9.017   2.520
12121TIP3    H136240   5.666   9.007   2.607
12121TIP3    H236241   5.558   8.952   2.516
12122TIP3   OH236242   4.300   9.030   3.377
12122TIP3    H136243   4.331   8.945   3.346
12122TIP3    H236244   4.373   9.090   3.361
12123TIP3   OH236245   7.429   0.055   3.476
12123TIP3    H136246   7.485   0.042   3.400
12123TIP3    H236247   7.411   0.149   3.477
12124TIP3   OH236248   9.308   0.085   3.546
12124TIP3    H136249   9.222   0.127   3.535
12124TIP3    H236250   9.300   0.001   3.501
12125TIP3   OH236251   5.670   8.968   2.167
12125TIP3    H136252   5.711   8.905   2.108
12125TIP3    H236253   5.728   9.044   2.164
12126TIP3   OH236254   4.104   8.772   2.883
12126TIP3    H136255   4.021   8.763   2.928
12126TIP3    H236256   4.086   8.835   2.812
12127TIP3   OH236257   4.317   8.842   3.734
12127TIP3    H136258   4.264   8.837   3.814
12127TIP3    H236259   4.263   8.893   3.673
12128TIP3   OH236260   5.969   9.071   3.457
12128TIP3    H136261   5.878   9.053   3.434
12128TIP3    H236262   6.013   8.986   3.453
12129TIP3   OH236263   5.216   9.019   3.100
12129TIP3    H136264   5.124   8.998   3.087
12129TIP3    H236265   5.262   8.961   3.039
12130TIP3   OH236266   5.641   8.916   2.992
12130TIP3    H136267   5.683   8.941   2.909
12130TIP3    H236268   5.548   8.911   2.971
12131TIP3   OH236269   5.773   8.996   2.752
12131TIP3    H136270   5.845   8.940   2.722
12131TIP3    H236271   5.815   9.077   2.781
12132TIP3   OH236272   4.391   8.685   3.077
12132TIP3    H136273   4.302   8.653   3.090
12132TIP3    H236274   4.446   8.607   3.074
12133TIP3   OH236275   4.226   8.590   2.712
12133TIP3    H136276   4.256   8.645   2.639
12133TIP3    H236277   4.190   8.652   2.775
12134TIP3   OH236278   4.876   8.741   2.977
12134TIP3    H136279   4.919   8.794   2.911
12134TIP3    H236280   4.911   8.771   3.060
12135TIP3   OH236281   5.367   8.860   2.932
12135TIP3    H136282   5.352   8.832   2.842
12135TIP3    H236283   5.357   8.781   2.984
12136TIP3   OH236284   5.431   8.823   2.523
12136TIP3    H136285   5.351   8.871   2.542
12136TIP3    H236286   5.419   8.737   2.564
12137TIP3   OH236287   4.337   8.746   2.495
12137TIP3    H136288   4.380   8.686   2.433
12137TIP3    H236289   4.409   8.798   2.532
12138TIP3   OH236290   4.835   8.947   2.591
12138TIP3    H136291   4.890   8.902   2.655
12138TIP3    H236292   4.862   9.038   2.596
12139TIP3   OH236293   4.629   8.963   3.955
12139TIP3    H136294   4.593   8.905   4.022
12139TIP3    H236295   4.721   8.973   3.979
12140TIP3   OH236296   4.874   8.988   4.079
12140TIP3    H136297   4.955   8.971   4.031
12140TIP3    H236298   4.871   8.919   4.146
12141TIP3   OH236299   5.699   9.081   3.875
12141TIP3    H136300   5.715   9.051   3.964
12141TIP3    H236301   5.785   9.074   3.832
12142TIP3   OH236302   9.092   0.243   2.425
12142TIP3    H136303   9.161   0.306   2.403
12142TIP3    H236304   9.050   0.224   2.341
12143TIP3   OH236305   0.545   0.478   2.579
12143TIP3    H136306   0.583   0.394   2.606
12143TIP3    H236307   0.523   0.466   2.487
12144TIP3   OH236308   9.717   0.118   2.537
12144TIP3    H136309   9.694   0.199   2.490
12144TIP3    H236310   9.658   0.052   2.501
12145TIP3   OH236311   0.636   0.215   2.226
12145TIP3    H136312   0.692   0.200   2.302
12145TIP3    H236313   0.694   0.201   2.151
12146TIP3   OH236314   9.786   0.495   2.549
12146TIP3    H136315   9.873   0.461   2.528
12146TIP3    H236316   9.727   0.452   2.487
12147TIP3   OH236317   9.714   0.130   2.999
12147TIP3    H136318   9.662   0.168   2.927
12147TIP3    H236319   9.663   0.148   3.077
12148TIP3   OH236320   0.809   0.210   2.444
12148TIP3    H136321   0.752   0.221   2.520
12148TIP3    H236322   0.841   0.298   2.424
12149TIP3   OH236323   9.590   0.220   2.770
12149TIP3    H136324   9.632   0.305   2.784
12149TIP3    H236325   9.635   0.183   2.694
12150TIP3   OH236326   0.943   0.178   2.744
12150TIP3    H136327   0.852   0.204   2.733
12150TIP3    H236328   0.983   0.191   2.658
12151TIP3   OH236329   6.779   9.058   2.767
12151TIP3    H136330   6.835   9.094   2.835
12151TIP3    H236331   6.692   9.095   2.785
12152TIP3   OH236332   0.133   0.465   1.730
12152TIP3    H136333   0.200   0.530   1.752
12152TIP3    H236334   0.179   0.401   1.676
12153TIP3   OH236335   7.472   9.072   1.882
12153TIP3    H136336   7.391   9.093   1.928
12153TIP3    H236337   7.478   9.138   1.813
12154TIP3   OH236338   6.530   9.152   2.849
12154TIP3    H136339   6.444   9.126   2.815
12154TIP3    H236340   6.513   9.235   2.894
12155TIP3   OH236341   0.556   0.040   3.069
12155TIP3    H136342   0.629   0.018   3.126
12155TIP3    H236343   0.478   0.015   3.119
12156TIP3   OH236344   0.793   0.497   2.959
12156TIP3    H136345   0.747   0.487   3.042
12156TIP3    H236346   0.735   0.552   2.906
12157TIP3   OH236347   6.769   9.084   1.876
12157TIP3    H136348   6.734   9.139   1.945
12157TIP3    H236349   6.694   9.035   1.843
12158TIP3   OH236350   9.750   0.441   2.817
12158TIP3    H136351   9.766   0.509   2.883
12158TIP3    H236352   9.756   0.487   2.733
12159TIP3   OH236353   9.622   0.329   2.389
12159TIP3    H136354   9.531   0.308   2.408
12159TIP3    H236355   9.636   0.298   2.300
12160TIP3   OH236356   0.308   0.417   2.097
12160TIP3    H136357   0.264   0.498   2.069
12160TIP3    H236358   0.365   0.394   2.023
12161TIP3   OH236359   0.518   0.665   3.164
12161TIP3    H136360   0.497   0.602   3.233
12161TIP3    H236361   0.606   0.696   3.185
12162TIP3   OH236362   0.456   0.394   2.333
12162TIP3    H136363   0.397   0.418   2.261
12162TIP3    H236364   0.519   0.334   2.293
12163TIP3   OH236365   9.612   0.470   3.194
12163TIP3    H136366   9.549   0.501   3.259
12163TIP3    H236367   9.600   0.375   3.194
12164TIP3   OH236368   6.349   9.154   1.837
12164TIP3    H136369   6.327   9.203   1.917
12164TIP3    H236370   6.268   9.154   1.786
12165TIP3   OH236371   9.148   0.042   2.642
12165TIP3    H136372   9.220   0.048   2.704
12165TIP3    H236373   9.172  -0.031   2.584
12166TIP3   OH236374   5.833   9.199   2.172
12166TIP3    H136375   5.884   9.215   2.092
12166TIP3    H236376   5.778   9.277   2.181
12167TIP3   OH236377   0.598   0.622   2.809
12167TIP3    H136378   0.585   0.590   2.720
12167TIP3    H236379   0.511   0.619   2.849
12168TIP3   OH236380   0.183   0.122   2.447
12168TIP3    H136381   0.098   0.107   2.487
12168TIP3    H236382   0.209   0.209   2.477
12169TIP3   OH236383   9.385   0.184   2.427
12169TIP3    H136384   9.298   0.153   2.451
12169TIP3    H236385   9.438   0.104   2.418
12170TIP3   OH236386   9.649   0.204   2.147
12170TIP3    H136387   9.740   0.220   2.123
12170TIP3    H236388   9.601   0.213   2.065
12171TIP3   OH236389   0.652   0.229   2.667
12171TIP3    H136390   0.631   0.255   2.756
12171TIP3    H236391   0.592   0.156   2.649
12172TIP3   OH236392   9.496   0.173   1.917
12172TIP3    H136393   9.423   0.168   1.855
12172TIP3    H236394   9.561   0.227   1.872
12173TIP3   OH236395   0.241   0.373   2.534
12173TIP3    H136396   0.322   0.407   2.496
12173TIP3    H236397   0.255   0.376   2.628
12174TIP3   OH236398   6.267   9.188   2.412
12174TIP3    H136399   6.240   9.108   2.458
12174TIP3    H236400   6.284   9.159   2.323
12175TIP3   OH236401   0.220   0.358   2.816
12175TIP3    H136402   0.130   0.392   2.822
12175TIP3    H236403   0.271   0.420   2.868
12176TIP3   OH236404   0.398   0.115   1.910
12176TIP3    H136405   0.313   0.108   1.866
12176TIP3    H236406   0.427   0.204   1.892
12177TIP3   OH236407   0.453   0.382   1.865
12177TIP3    H136408   0.543   0.366   1.837
12177TIP3    H236409   0.420   0.448   1.804
12178TIP3   OH236410   0.242   0.697   3.236
12178TIP3    H136411   0.318   0.730   3.188
12178TIP3    H236412   0.265   0.607   3.259
12179TIP3   OH236413   9.565   0.188   3.223
12179TIP3    H136414   9.469   0.192   3.228
12179TIP3    H236415   9.590   0.133   3.297
12180TIP3   OH236416   0.590   0.275   2.928
12180TIP3    H136417   0.653   0.323   2.983
12180TIP3    H236418   0.571   0.195   2.977
12181TIP3   OH236419   0.486   0.002   2.136
12181TIP3    H136420   0.450   0.033   2.053
12181TIP3    H236421   0.532   0.077   2.172
12182TIP3   OH236422   0.133   0.213   2.170
12182TIP3    H136423   0.195   0.280   2.140
12182TIP3    H236424   0.152   0.201   2.263
12183TIP3   OH236425   0.402   0.493   2.973
12183TIP3    H136426   0.441   0.551   3.038
12183TIP3    H236427   0.465   0.422   2.963
12184TIP3   OH236428   6.808   9.154   2.288
12184TIP3    H136429   6.781   9.228   2.344
12184TIP3    H236430   6.887   9.186   2.244
12185TIP3   OH236431   6.337   9.169   2.133
12185TIP3    H136432   6.334   9.264   2.145
12185TIP3    H236433   6.429   9.150   2.114
12186TIP3   OH236434   1.041   0.378   2.928
12186TIP3    H136435   0.964   0.434   2.943
12186TIP3    H236436   1.009   0.308   2.872
12187TIP3   OH236437   9.116   0.120   1.937
12187TIP3    H136438   9.166   0.174   1.876
12187TIP3    H236439   9.028   0.117   1.900
12188TIP3   OH236440   6.266   9.071   2.800
12188TIP3    H136441   6.244   9.039   2.713
12188TIP3    H236442   6.272   8.993   2.855
12189TIP3   OH236443   9.577   0.631   3.467
12189TIP3    H136444   9.667   0.609   3.444
12189TIP3    H236445   9.571   0.725   3.449
12190TIP3   OH236446   0.029   0.572   3.056
12190TIP3    H136447  -0.051   0.549   3.103
12190TIP3    H236448   0.066   0.645   3.105
12191TIP3   OH236449   9.693   0.323   1.813
12191TIP3    H136450   9.660   0.385   1.747
12191TIP3    H236451   9.786   0.342   1.819
12192TIP3   OH236452   0.171   0.398   3.223
12192TIP3    H136453   0.185   0.314   3.181
12192TIP3    H236454   0.136   0.454   3.154
12193TIP3   OH236455   0.178   0.188   3.036
12193TIP3    H136456   0.205   0.235   2.957
12193TIP3    H236457   0.085   0.172   3.023
12194TIP3   OH236458   0.777   0.674   3.314
12194TIP3    H136459   0.802   0.583   3.327
12194TIP3    H236460   0.857   0.717   3.284
12195TIP3   OH236461   0.021   0.493   3.440
12195TIP3    H136462  -0.038   0.422   3.466
12195TIP3    H236463   0.060   0.462   3.358
12196TIP3   OH236464   6.822   9.197   3.132
12196TIP3    H136465   6.787   9.280   3.099
12196TIP3    H236466   6.751   9.134   3.120
12197TIP3   OH236467   0.433   0.466   3.331
12197TIP3    H136468   0.456   0.465   3.423
12197TIP3    H236469   0.348   0.421   3.327
12198TIP3   OH236470   0.662   0.394   3.182
12198TIP3    H136471   0.584   0.407   3.235
12198TIP3    H236472   0.733   0.380   3.245
12199TIP3   OH236473   0.868   0.381   3.368
12199TIP3    H136474   0.893   0.289   3.369
12199TIP3    H236475   0.867   0.406   3.461
12200TIP3   OH236476   9.668   0.285   3.539
12200TIP3    H136477   9.669   0.196   3.504
12200TIP3    H236478   9.707   0.277   3.626
12201TIP3   OH236479   6.886   9.201   3.398
12201TIP3    H136480   6.960   9.140   3.395
12201TIP3    H236481   6.854   9.204   3.308
12202TIP3   OH236482   0.438   0.173   3.554
12202TIP3    H136483   0.413   0.101   3.496
12202TIP3    H236484   0.366   0.236   3.547
12203TIP3   OH236485   0.820   0.095   1.684
12203TIP3    H136486   0.892   0.129   1.631
12203TIP3    H236487   0.762   0.053   1.620
12204TIP3   OH236488   9.400   0.343   3.474
12204TIP3    H136489   9.492   0.357   3.497
12204TIP3    H236490   9.375   0.264   3.521
12205TIP3   OH236491   1.438   0.209   3.228
12205TIP3    H136492   1.496   0.143   3.190
12205TIP3    H236493   1.442   0.283   3.167
12206TIP3   OH236494   0.828   0.101   2.074
12206TIP3    H136495   0.915   0.079   2.108
12206TIP3    H236496   0.794   0.017   2.042
12207TIP3   OH236497   9.366   0.056   2.816
12207TIP3    H136498   9.420  -0.023   2.820
12207TIP3    H236499   9.429   0.127   2.802
12208TIP3   OH236500   5.885   9.102   2.425
12208TIP3    H136501   5.803   9.057   2.447
12208TIP3    H236502   5.870   9.137   2.338
12209TIP3   OH236503   6.104   9.089   3.208
12209TIP3    H136504   6.056   9.093   3.291
12209TIP3    H236505   6.055   9.148   3.150
12210TIP3   OH236506   1.199   0.065   2.969
12210TIP3    H136507   1.173   0.119   2.894
12210TIP3    H236508   1.244  -0.010   2.931
12211TIP3   OH236509   0.480   0.016   2.609
12211TIP3    H136510   0.394   0.039   2.572
12211TIP3    H236511   0.524  -0.032   2.539
12212TIP3   OH236512   7.466   9.196   2.416
12212TIP3    H136513   7.522   9.230   2.346
12212TIP3    H236514   7.405   9.267   2.435
12213TIP3   OH236515   1.074   0.044   2.196
12213TIP3    H136516   1.131  -0.030   2.178
12213TIP3    H236517   1.126   0.121   2.174
12214TIP3   OH236518   6.198   8.959   2.557
12214TIP3    H136519   6.109   8.924   2.570
12214TIP3    H236520   6.254   8.882   2.559
12215TIP3   OH236521   6.017   8.890   2.237
12215TIP3    H136522   6.044   8.937   2.158
12215TIP3    H236523   5.989   8.959   2.298
12216TIP3   OH236524   6.756   8.961   2.493
12216TIP3    H136525   6.792   8.999   2.413
12216TIP3    H236526   6.662   8.976   2.486
12217TIP3   OH236527   7.143   9.108   2.419
12217TIP3    H136528   7.180   9.110   2.330
12217TIP3    H236529   7.163   9.021   2.451
12218TIP3   OH236530   7.236   9.095   2.025
12218TIP3    H136531   7.155   9.144   2.040
12218TIP3    H236532   7.224   9.014   2.073
12219TIP3   OH236533   6.123   9.027   2.015
12219TIP3    H136534   6.166   8.959   1.963
12219TIP3    H236535   6.195   9.074   2.057
12220TIP3   OH236536   6.615   9.193   2.091
12220TIP3    H136537   6.672   9.159   2.160
12220TIP3    H236538   6.627   9.288   2.096
12221TIP3   OH236539   6.413   9.258   3.439
12221TIP3    H136540   6.379   9.193   3.501
12221TIP3    H236541   6.506   9.266   3.460
12222TIP3   OH236542   6.662   9.254   3.559
12222TIP3    H136543   6.742   9.234   3.511
12222TIP3    H236544   6.657   9.186   3.627
12223TIP3   OH236545   0.949   0.116   3.374
12223TIP3    H136546   0.968   0.082   3.461
12223TIP3    H236547   1.032   0.110   3.327
12224TIP3   OH236548   2.244   0.630   7.793
12224TIP3    H136549   2.287   0.569   7.853
12224TIP3    H236550   2.235   0.711   7.844
12225TIP3   OH236551   1.825   1.065   7.803
12225TIP3    H136552   1.854   0.999   7.740
12225TIP3    H236553   1.875   1.047   7.882
12226TIP3   OH236554   2.204   0.869   7.940
12226TIP3    H136555   2.125   0.899   7.984
12226TIP3    H236556   2.231   0.943   7.885
12227TIP3   OH236557   1.977   0.919   7.626
12227TIP3    H136558   2.015   0.833   7.608
12227TIP3    H236559   2.050   0.980   7.613
12228TIP3   OH236560   2.102   0.683   7.567
12228TIP3    H136561   2.124   0.613   7.506
12228TIP3    H236562   2.152   0.664   7.645
12229TIP3   OH236563   5.655   5.435   0.371
12229TIP3    H136564   5.730   5.383   0.342
12229TIP3    H236565   5.629   5.484   0.293
12230TIP3   OH236566   5.960   4.988   0.044
12230TIP3    H136567   5.898   5.036   0.098
12230TIP3    H236568   5.998   5.054  -0.014
12231TIP3   OH236569   2.323   0.754   7.011
12231TIP3    H136570   2.320   0.848   6.990
12231TIP3    H236571   2.415   0.730   6.996
12232TIP3   OH236572   6.023   5.755   0.462
12232TIP3    H136573   5.965   5.699   0.410
12232TIP3    H236574   5.985   5.842   0.453
12233TIP3   OH236575   1.614   1.069   7.459
12233TIP3    H136576   1.566   1.053   7.378
12233TIP3    H236577   1.572   1.147   7.497
12234TIP3   OH236578   1.812   0.960   7.128
12234TIP3    H136579   1.871   0.894   7.093
12234TIP3    H236580   1.844   0.977   7.216
12235TIP3   OH236581   1.870   1.021   7.392
12235TIP3    H136582   1.779   1.032   7.420
12235TIP3    H236583   1.912   0.977   7.466
12236TIP3   OH236584   5.748   6.192   0.598
12236TIP3    H136585   5.715   6.220   0.513
12236TIP3    H236586   5.804   6.264   0.627
12237TIP3   OH236587   5.758   5.167   0.106
12237TIP3    H136588   5.790   5.235   0.047
12237TIP3    H236589   5.672   5.199   0.135
12238TIP3   OH236590   5.914   5.489   0.536
12238TIP3    H136591   5.865   5.415   0.502
12238TIP3    H236592   5.993   5.492   0.482
12239TIP3   OH236593   2.243   0.816   7.271
12239TIP3    H136594   2.196   0.746   7.316
12239TIP3    H236595   2.265   0.779   7.186
12240TIP3   OH236596   2.030   0.566   7.177
12240TIP3    H136597   2.075   0.535   7.256
12240TIP3    H236598   1.943   0.528   7.183
12241TIP3   OH236599   5.568   5.816   0.229
12241TIP3    H136600   5.532   5.756   0.294
12241TIP3    H236601   5.493   5.868   0.200
12242TIP3   OH236602   2.315   1.026   6.974
12242TIP3    H136603   2.325   1.083   6.898
12242TIP3    H236604   2.245   1.067   7.026
12243TIP3   OH236605   2.181   0.480   7.394
12243TIP3    H136606   2.165   0.394   7.433
12243TIP3    H236607   2.276   0.483   7.381
12244TIP3   OH236608   2.296   1.117   7.852
12244TIP3    H136609   2.243   1.165   7.788
12244TIP3    H236610   2.386   1.146   7.836
12245TIP3   OH236611   1.972   0.774   7.005
12245TIP3    H136612   2.012   0.711   7.064
12245TIP3    H236613   2.025   0.770   6.925
12246TIP3   OH236614   2.353   0.278   7.000
12246TIP3    H136615   2.308   0.223   6.936
12246TIP3    H236616   2.305   0.360   6.999
12247TIP3   OH236617   2.549   1.229   7.854
12247TIP3    H136618   2.543   1.267   7.942
12247TIP3    H236619   2.596   1.295   7.803
12248TIP3   OH236620   5.821   5.907   0.122
12248TIP3    H136621   5.746   5.860   0.157
12248TIP3    H236622   5.896   5.851   0.142
12249TIP3   OH236623   2.456   0.457   7.380
12249TIP3    H136624   2.513   0.526   7.346
12249TIP3    H236625   2.500   0.425   7.458
12250TIP3   OH236626   2.576   0.341   7.604
12250TIP3    H136627   2.527   0.346   7.686
12250TIP3    H236628   2.664   0.372   7.626
12251TIP3   OH236629   2.590   0.735   7.944
12251TIP3    H136630   2.660   0.680   7.908
12251TIP3    H236631   2.596   0.817   7.894
12252TIP3   OH236632   5.662   5.586   0.117
12252TIP3    H136633   5.619   5.670   0.133
12252TIP3    H236634   5.617   5.550   0.041
12253TIP3   OH236635   2.506   0.232   7.222
12253TIP3    H136636   2.447   0.238   7.147
12253TIP3    H236637   2.482   0.306   7.278
12254TIP3   OH236638   6.031   5.195   0.514
12254TIP3    H136639   6.049   5.102   0.529
12254TIP3    H236640   5.944   5.209   0.551
12255TIP3   OH236641   6.071   4.934   0.604
12255TIP3    H136642   6.025   4.866   0.654
12255TIP3    H236643   6.162   4.928   0.634
12256TIP3   OH236644   2.160   1.112   7.559
12256TIP3    H136645   2.200   1.098   7.474
12256TIP3    H236646   2.175   1.205   7.578
12257TIP3   OH236647   5.337   5.841   0.540
12257TIP3    H136648   5.359   5.929   0.507
12257TIP3    H236649   5.356   5.846   0.634
12258TIP3   OH236650   5.072   5.924   0.106
12258TIP3    H136651   5.026   5.844   0.079
12258TIP3    H236652   5.030   5.949   0.188
12259TIP3   OH236653   5.212   5.725   0.286
12259TIP3    H136654   5.147   5.729   0.356
12259TIP3    H236655   5.252   5.811   0.285
12260TIP3   OH236656   2.278   1.370   7.993
12260TIP3    H136657   2.240   1.424   7.923
12260TIP3    H236658   2.279   1.282   7.957
12261TIP3   OH236659   1.544   0.997   7.199
12261TIP3    H136660   1.635   0.991   7.169
12261TIP3    H236661   1.509   0.909   7.185
12262TIP3   OH236662   2.275   1.082   7.312
12262TIP3    H136663   2.270   0.987   7.302
12262TIP3    H236664   2.228   1.117   7.237
12263TIP3   OH236665   5.790   5.929   0.660
12263TIP3    H136666   5.754   5.872   0.592
12263TIP3    H236667   5.769   6.018   0.631
12264TIP3   OH236668   3.763   0.617   7.253
12264TIP3    H136669   3.730   0.703   7.226
12264TIP3    H236670   3.695   0.555   7.227
12265TIP3   OH236671   3.755   0.608   7.655
12265TIP3    H136672   3.807   0.588   7.733
12265TIP3    H236673   3.711   0.525   7.635
12266TIP3   OH236674   3.062   0.526   7.921
12266TIP3    H136675   3.065   0.450   7.979
12266TIP3    H236676   3.153   0.540   7.895
12267TIP3   OH236677   4.028   0.915   7.351
12267TIP3    H136678   4.013   0.850   7.420
12267TIP3    H236679   4.051   0.995   7.398
12268TIP3   OH236680   3.067   0.912   7.715
12268TIP3    H136681   3.032   0.824   7.704
12268TIP3    H236682   3.155   0.908   7.678
12269TIP3   OH236683   2.710   0.115   7.493
12269TIP3    H136684   2.665   0.189   7.534
12269TIP3    H236685   2.654   0.090   7.420
12270TIP3   OH236686   2.836   0.410   7.657
12270TIP3    H136687   2.893   0.340   7.689
12270TIP3    H236688   2.895   0.472   7.615
12271TIP3   OH236689   3.697   1.334   7.367
12271TIP3    H136690   3.718   1.273   7.296
12271TIP3    H236691   3.715   1.285   7.447
12272TIP3   OH236692   3.578   0.834   7.654
12272TIP3    H136693   3.617   0.751   7.627
12272TIP3    H236694   3.652   0.890   7.675
12273TIP3   OH236695   3.981   0.321   7.730
12273TIP3    H136696   4.036   0.250   7.763
12273TIP3    H236697   3.949   0.289   7.645
12274TIP3   OH236698   2.991   0.205   7.763
12274TIP3    H136699   3.074   0.178   7.804
12274TIP3    H236700   2.982   0.148   7.688
12275TIP3   OH236701   3.383   0.387   7.604
12275TIP3    H136702   3.477   0.367   7.607
12275TIP3    H236703   3.342   0.303   7.584
12276TIP3   OH236704   4.594   0.358   7.951
12276TIP3    H136705   4.526   0.387   7.890
12276TIP3    H236706   4.657   0.431   7.952
12277TIP3   OH236707   3.659   0.832   7.113
12277TIP3    H136708   3.621   0.802   7.031
12277TIP3    H236709   3.605   0.907   7.138
12278TIP3   OH236710   3.454   0.760   7.886
12278TIP3    H136711   3.382   0.818   7.911
12278TIP3    H236712   3.490   0.799   7.806
12279TIP3   OH236713   3.216   0.088   7.868
12279TIP3    H136714   3.281   0.149   7.901
12279TIP3    H236715   3.266   0.019   7.825
12280TIP3   OH236716   3.253   0.934   7.946
12280TIP3    H136717   3.222   0.970   7.863
12280TIP3    H236718   3.180   0.944   8.006
12281TIP3   OH236719   2.623   0.648   7.258
12281TIP3    H136720   2.592   0.663   7.168
12281TIP3    H236721   2.646   0.735   7.290
12282TIP3   OH236722   4.063   1.161   7.491
12282TIP3    H136723   3.972   1.157   7.519
12282TIP3    H236724   4.070   1.244   7.443
12283TIP3   OH236725   3.774   1.190   7.142
12283TIP3    H136726   3.827   1.111   7.131
12283TIP3    H236727   3.832   1.261   7.115
12284TIP3   OH236728   3.910   0.957   7.105
12284TIP3    H136729   3.835   0.897   7.106
12284TIP3    H236730   3.960   0.935   7.183
12285TIP3   OH236731   4.311   1.048   7.833
12285TIP3    H136732   4.283   0.975   7.777
12285TIP3    H236733   4.294   1.126   7.782
12286TIP3   OH236734   3.595   0.449   7.109
12286TIP3    H136735   3.512   0.490   7.089
12286TIP3    H236736   3.640   0.441   7.024
12287TIP3   OH236737   3.554   0.261   6.802
12287TIP3    H136738   3.627   0.298   6.852
12287TIP3    H236739   3.590   0.183   6.760
12288TIP3   OH236740   4.473   0.716   7.700
12288TIP3    H136741   4.387   0.759   7.698
12288TIP3    H236742   4.507   0.724   7.611
12289TIP3   OH236743   3.945   0.545   7.062
12289TIP3    H136744   3.889   0.574   7.134
12289TIP3    H236745   4.030   0.527   7.104
12290TIP3   OH236746   4.155   0.549   7.979
12290TIP3    H136747   4.174   0.629   8.028
12290TIP3    H236748   4.066   0.562   7.945
12291TIP3   OH236749   3.177   0.519   7.471
12291TIP3    H136750   3.142   0.461   7.404
12291TIP3    H236751   3.251   0.472   7.509
12292TIP3   OH236752   3.319   0.940   7.605
12292TIP3    H136753   3.292   0.927   7.514
12292TIP3    H236754   3.408   0.905   7.610
12293TIP3   OH236755   3.316   0.526   7.830
12293TIP3    H136756   3.343   0.490   7.746
12293TIP3    H236757   3.374   0.601   7.844
12294TIP3   OH236758   3.809   1.164   7.593
12294TIP3    H136759   3.806   1.239   7.653
12294TIP3    H236760   3.810   1.088   7.650
12295TIP3   OH236761   6.676   5.714   0.098
12295TIP3    H136762   6.616   5.788   0.108
12295TIP3    H236763   6.631   5.654   0.037
12296TIP3   OH236764   3.783   0.393   6.897
12296TIP3    H136765   3.841   0.453   6.946
12296TIP3    H236766   3.815   0.397   6.807
12297TIP3   OH236767   6.539   5.196   0.176
12297TIP3    H136768   6.579   5.281   0.195
12297TIP3    H236769   6.447   5.217   0.156
12298TIP3   OH236770   3.524   1.072   7.153
12298TIP3    H136771   3.607   1.120   7.158
12298TIP3    H236772   3.466   1.131   7.104
12299TIP3   OH236773   6.479   5.905   0.149
12299TIP3    H136774   6.462   5.888   0.056
12299TIP3    H236775   6.397   5.945   0.180
12300TIP3   OH236776   3.056   0.366   7.269
12300TIP3    H136777   2.972   0.401   7.239
12300TIP3    H236778   3.042   0.271   7.276
12301TIP3   OH236779   4.108   1.006   6.513
12301TIP3    H136780   4.102   1.099   6.492
12301TIP3    H236781   4.199   0.983   6.493
12302TIP3   OH236782   6.084   5.464   0.090
12302TIP3    H136783   6.005   5.470   0.036
12302TIP3    H236784   6.096   5.370   0.104
12303TIP3   OH236785   2.664   0.978   7.840
12303TIP3    H136786   2.755   1.006   7.847
12303TIP3    H236787   2.613   1.058   7.853
12304TIP3   OH236788   4.532   1.416   7.895
12304TIP3    H136789   4.540   1.321   7.907
12304TIP3    H236790   4.452   1.439   7.942
12305TIP3   OH236791   6.920   5.794   0.003
12305TIP3    H136792   6.926   5.890   0.010
12305TIP3    H236793   6.832   5.774   0.036
12306TIP3   OH236794   3.417   1.293   6.983
12306TIP3    H136795   3.373   1.272   6.900
12306TIP3    H236796   3.379   1.376   7.010
12307TIP3   OH236797   2.846   1.149   7.348
12307TIP3    H136798   2.896   1.139   7.429
12307TIP3    H236799   2.798   1.067   7.338
12308TIP3   OH236800   3.619   1.229   6.608
12308TIP3    H136801   3.668   1.155   6.574
12308TIP3    H236802   3.655   1.242   6.696
12309TIP3   OH236803   3.671   1.271   6.879
12309TIP3    H136804   3.584   1.274   6.920
12309TIP3    H236805   3.728   1.234   6.946
12310TIP3   OH236806   7.707   5.148   0.140
12310TIP3    H136807   7.615   5.172   0.141
12310TIP3    H236808   7.710   5.067   0.088
12311TIP3   OH236809   6.314   5.611   0.113
12311TIP3    H136810   6.298   5.675   0.183
12311TIP3    H236811   6.227   5.575   0.093
12312TIP3   OH236812   7.359   4.914   0.071
12312TIP3    H136813   7.438   4.872   0.105
12312TIP3    H236814   7.388   5.000   0.043
12313TIP3   OH236815   3.873   0.383   6.637
12313TIP3    H136816   3.824   0.374   6.555
12313TIP3    H236817   3.945   0.443   6.615
12314TIP3   OH236818   3.375   0.291   7.972
12314TIP3    H136819   3.297   0.300   8.027
12314TIP3    H236820   3.378   0.371   7.920
12315TIP3   OH236821   3.237   0.167   7.527
12315TIP3    H136822   3.149   0.135   7.549
12315TIP3    H236823   3.250   0.139   7.437
12316TIP3   OH236824   3.721   0.251   7.257
12316TIP3    H136825   3.671   0.322   7.216
12316TIP3    H236826   3.775   0.217   7.185
12317TIP3   OH236827   7.223   5.233   0.226
12317TIP3    H136828   7.162   5.174   0.271
12317TIP3    H236829   7.307   5.189   0.232
12318TIP3   OH236830   3.886   0.256   7.478
12318TIP3    H136831   3.825   0.282   7.410
12318TIP3    H236832   3.924   0.173   7.447
12319TIP3   OH236833   6.404   4.954   0.104
12319TIP3    H136834   6.423   5.018   0.173
12319TIP3    H236835   6.352   4.887   0.149
12320TIP3   OH236836   3.888   0.520   7.884
12320TIP3    H136837   3.926   0.453   7.827
12320TIP3    H236838   3.862   0.471   7.963
12321TIP3   OH236839   2.975   0.051   7.539
12321TIP3    H136840   2.883   0.070   7.521
12321TIP3    H236841   2.994  -0.026   7.486
12322TIP3   OH236842   3.248   0.072   7.274
12322TIP3    H136843   3.342   0.057   7.257
12322TIP3    H236844   3.207   0.063   7.188
12323TIP3   OH236845   3.129   0.073   7.027
12323TIP3    H136846   3.056   0.041   6.973
12323TIP3    H236847   3.186   0.119   6.965
12324TIP3   OH236848   4.254   1.759   7.975
12324TIP3    H136849   4.252   1.772   7.880
12324TIP3    H236850   4.331   1.806   8.004
12325TIP3   OH236851   6.406   5.514   0.430
12325TIP3    H136852   6.489   5.507   0.383
12325TIP3    H236853   6.429   5.493   0.521
12326TIP3   OH236854   3.656   0.341   7.646
12326TIP3    H136855   3.730   0.298   7.603
12326TIP3    H236856   3.654   0.304   7.734
12327TIP3   OH236857   3.646   0.236   7.899
12327TIP3    H136858   3.559   0.244   7.938
12327TIP3    H236859   3.706   0.266   7.968
12328TIP3   OH236860   3.358   0.584   7.049
12328TIP3    H136861   3.283   0.530   7.025
12328TIP3    H236862   3.332   0.626   7.131
12329TIP3   OH236863   4.238   0.850   7.655
12329TIP3    H136864   4.274   0.898   7.581
12329TIP3    H236865   4.158   0.810   7.620
12330TIP3   OH236866   7.065   5.557   0.010
12330TIP3    H136867   7.029   5.491   0.069
12330TIP3    H236868   7.013   5.636   0.028
12331TIP3   OH236869   3.882   0.177   7.050
12331TIP3    H136870   3.976   0.190   7.062
12331TIP3    H236871   3.857   0.243   6.985
12332TIP3   OH236872   3.023   0.640   7.665
12332TIP3    H136873   3.082   0.604   7.599
12332TIP3    H236874   3.047   0.595   7.746
12333TIP3   OH236875   3.507   0.747   6.890
12333TIP3    H136876   3.459   0.829   6.887
12333TIP3    H236877   3.453   0.689   6.944
12334TIP3   OH236878   6.288   5.087   0.355
12334TIP3    H136879   6.308   5.087   0.449
12334TIP3    H236880   6.206   5.039   0.348
12335TIP3   OH236881   6.962   5.365   0.181
12335TIP3    H136882   6.906   5.288   0.178
12335TIP3    H236883   7.049   5.331   0.200
12336TIP3   OH236884   3.927   1.215   7.928
12336TIP3    H136885   3.835   1.189   7.941
12336TIP3    H236886   3.949   1.265   8.006
12337TIP3   OH236887   4.290   0.248   6.869
12337TIP3    H136888   4.333   0.176   6.824
12337TIP3    H236889   4.280   0.316   6.802
12338TIP3   OH236890   4.560   1.141   7.916
12338TIP3    H136891   4.468   1.117   7.925
12338TIP3    H236892   4.585   1.107   7.830
12339TIP3   OH236893   4.030   1.074   6.778
12339TIP3    H136894   4.004   1.004   6.837
12339TIP3    H236895   4.049   1.030   6.695
12340TIP3   OH236896   4.003   0.719   7.556
12340TIP3    H136897   3.912   0.694   7.570
12340TIP3    H236898   4.044   0.640   7.520
12341TIP3   OH236899   3.172   0.944   7.368
12341TIP3    H136900   3.172   1.021   7.311
12341TIP3    H236901   3.079   0.926   7.385
12342TIP3   OH236902   2.736   0.221   7.075
12342TIP3    H136903   2.778   0.305   7.091
12342TIP3    H236904   2.658   0.223   7.130
12343TIP3   OH236905   3.259   0.700   7.272
12343TIP3    H136906   3.243   0.789   7.303
12343TIP3    H236907   3.233   0.644   7.345
12344TIP3   OH236908   3.458   1.263   7.798
12344TIP3    H136909   3.487   1.346   7.759
12344TIP3    H236910   3.537   1.228   7.839
12345TIP3   OH236911   3.090   1.167   7.218
12345TIP3    H136912   3.000   1.175   7.250
12345TIP3    H236913   3.125   1.256   7.221
12346TIP3   OH236914   3.824   0.931   7.743
12346TIP3    H136915   3.821   0.931   7.838
12346TIP3    H236916   3.895   0.871   7.721
12347TIP3   OH236917   3.794   0.806   6.661
12347TIP3    H136918   3.848   0.778   6.735
12347TIP3    H236919   3.711   0.761   6.674
12348TIP3   OH236920   4.060   1.440   7.824
12348TIP3    H136921   3.994   1.372   7.838
12348TIP3    H236922   4.031   1.487   7.747
12349TIP3   OH236923   4.107   1.277   6.469
12349TIP3    H136924   4.122   1.335   6.394
12349TIP3    H236925   4.038   1.320   6.519
12350TIP3   OH236926   3.976   0.717   6.846
12350TIP3    H136927   3.958   0.668   6.926
12350TIP3    H236928   4.071   0.725   6.843
12351TIP3   OH236929   2.892   1.130   7.895
12351TIP3    H136930   2.986   1.111   7.900
12351TIP3    H236931   2.865   1.144   7.986
12352TIP3   OH236932   3.153   0.781   6.679
12352TIP3    H136933   3.162   0.690   6.651
12352TIP3    H236934   3.137   0.775   6.774
12353TIP3   OH236935   3.093   0.792   6.951
12353TIP3    H136936   3.157   0.766   7.017
12353TIP3    H236937   3.092   0.887   6.955
12354TIP3   OH236938   2.824   0.476   7.159
12354TIP3    H136939   2.758   0.522   7.210
12354TIP3    H236940   2.844   0.535   7.087
12355TIP3   OH236941   3.363   0.976   6.885
12355TIP3    H136942   3.279   1.000   6.923
12355TIP3    H236943   3.387   1.050   6.830
12356TIP3   OH236944   3.525   0.058   7.297
12356TIP3    H136945   3.594   0.121   7.274
12356TIP3    H236946   3.528   0.055   7.393
12357TIP3   OH236947   7.090   4.966   0.087
12357TIP3    H136948   7.070   4.987   0.178
12357TIP3    H236949   7.179   4.930   0.090
12358TIP3   OH236950   3.115   1.064   6.965
12358TIP3    H136951   3.094   1.135   6.904
12358TIP3    H236952   3.105   1.103   7.052
12359TIP3   OH236953   4.098   0.466   7.470
12359TIP3    H136954   4.026   0.406   7.488
12359TIP3    H236955   4.172   0.430   7.518
12360TIP3   OH236956   2.850   0.659   6.947
12360TIP3    H136957   2.921   0.722   6.954
12360TIP3    H236958   2.879   0.596   6.881
12361TIP3   OH236959   9.299   9.177   7.071
12361TIP3    H136960   9.318   9.271   7.067
12361TIP3    H236961   9.210   9.172   7.106
12362TIP3   OH236962   4.090   1.422   7.400
12362TIP3    H136963   4.049   1.476   7.332
12362TIP3    H236964   4.184   1.435   7.386
12363TIP3   OH236965   2.673   0.922   7.327
12363TIP3    H136966   2.633   0.961   7.405
12363TIP3    H236967   2.630   0.966   7.254
12364TIP3   OH236968   6.182   6.047   0.282
12364TIP3    H136969   6.227   5.971   0.320
12364TIP3    H236970   6.094   6.044   0.319
12365TIP3   OH236971   6.709   6.040   0.223
12365TIP3    H136972   6.755   5.976   0.277
12365TIP3    H236973   6.628   5.997   0.198
12366TIP3   OH236974   3.305   0.980   6.566
12366TIP3    H136975   3.257   0.911   6.612
12366TIP3    H236976   3.378   0.935   6.524
12367TIP3   OH236977   7.262   5.983   0.152
12367TIP3    H136978   7.289   5.899   0.190
12367TIP3    H236979   7.331   6.044   0.177
12368TIP3   OH236980   3.744   1.015   6.491
12368TIP3    H136981   3.778   0.950   6.553
12368TIP3    H236982   3.802   1.010   6.416
12369TIP3   OH236983   6.216   5.364   0.631
12369TIP3    H136984   6.162   5.310   0.574
12369TIP3    H236985   6.202   5.453   0.600
12370TIP3   OH236986   2.972   0.472   6.791
12370TIP3    H136987   3.024   0.445   6.868
12370TIP3    H236988   3.038   0.490   6.724
12371TIP3   OH236989   6.854   5.603   0.272
12371TIP3    H136990   6.813   5.635   0.192
12371TIP3    H236991   6.899   5.523   0.246
12372TIP3   OH236992   3.539   0.679   6.627
12372TIP3    H136993   3.517   0.695   6.719
12372TIP3    H236994   3.511   0.588   6.612
12373TIP3   OH236995   4.104   0.975   8.008
12373TIP3    H136996   4.169   1.020   7.954
12373TIP3    H236997   4.022   1.021   7.990
12374TIP3   OH236998   6.351   4.997   0.615
12374TIP3    H136999   6.400   4.942   0.554
12374TIP3    H237000   6.419   5.039   0.668
12375TIP3   OH237001   3.146   0.412   7.004
12375TIP3    H137002   3.125   0.388   7.094
12375TIP3    H237003   3.191   0.336   6.968
12376TIP3   OH237004   6.798   5.121   0.197
12376TIP3    H137005   6.705   5.140   0.182
12376TIP3    H237006   6.836   5.117   0.110
12377TIP3   OH237007   3.284   0.220   6.856
12377TIP3    H137008   3.250   0.232   6.768
12377TIP3    H237009   3.378   0.235   6.848
12378TIP3   OH237010   7.325   5.485   0.318
12378TIP3    H137011   7.323   5.430   0.239
12378TIP3    H237012   7.325   5.423   0.391
12379TIP3   OH237013   4.079   0.520   6.516
12379TIP3    H137014   4.060   0.480   6.431
12379TIP3    H237015   4.055   0.612   6.504
12380TIP3   OH237016   6.729   4.874   0.295
12380TIP3    H137017   6.811   4.826   0.289
12380TIP3    H237018   6.749   4.961   0.259
12381TIP3   OH237019   3.617   0.554   7.952
12381TIP3    H137020   3.704   0.563   7.914
12381TIP3    H237021   3.571   0.634   7.925
12382TIP3   OH237022   7.457   5.092   0.324
12382TIP3    H137023   7.407   5.072   0.403
12382TIP3    H237024   7.524   5.154   0.353
12383TIP3   OH237025   7.509   5.388   0.109
12383TIP3    H137026   7.456   5.462   0.080
12383TIP3    H237027   7.599   5.411   0.083
12384TIP3   OH237028   6.656   4.904   0.583
12384TIP3    H137029   6.588   4.860   0.532
12384TIP3    H237030   6.738   4.872   0.547
12385TIP3   OH237031   7.074   4.896   0.550
12385TIP3    H137032   7.088   4.931   0.639
12385TIP3    H237033   7.149   4.839   0.535
12386TIP3   OH237034   3.110   1.273   6.784
12386TIP3    H137035   3.199   1.254   6.755
12386TIP3    H237036   3.070   1.317   6.708
12387TIP3   OH237037   2.578   0.657   6.973
12387TIP3    H137038   2.673   0.670   6.965
12387TIP3    H237039   2.563   0.572   6.932
12388TIP3   OH237040   2.476   1.238   7.411
12388TIP3    H137041   2.413   1.186   7.361
12388TIP3    H237042   2.522   1.175   7.466
12389TIP3   OH237043   2.620   1.065   7.569
12389TIP3    H137044   2.613   1.003   7.642
12389TIP3    H237045   2.671   1.138   7.604
12390TIP3   OH237046   4.362   1.471   7.393
12390TIP3    H137047   4.382   1.500   7.482
12390TIP3    H237048   4.419   1.523   7.337
12391TIP3   OH237049   4.375   1.507   7.673
12391TIP3    H137050   4.329   1.423   7.670
12391TIP3    H237051   4.446   1.492   7.736
12392TIP3   OH237052   7.710   5.852   0.184
12392TIP3    H137053   7.646   5.862   0.254
12392TIP3    H237054   7.757   5.935   0.183
12393TIP3   OH237055   4.256   0.715   6.852
12393TIP3    H137056   4.307   0.790   6.823
12393TIP3    H237057   4.298   0.687   6.933
12394TIP3   OH237058   4.377   0.601   7.073
12394TIP3    H137059   4.309   0.568   7.131
12394TIP3    H237060   4.446   0.632   7.131
12395TIP3   OH237061   4.421   0.983   7.491
12395TIP3    H137062   4.473   0.913   7.450
12395TIP3    H237063   4.427   1.055   7.429
12396TIP3   OH237064   4.234   1.267   7.685
12396TIP3    H137065   4.167   1.312   7.736
12396TIP3    H237066   4.186   1.225   7.614
12397TIP3   OH237067   4.262   0.477   6.713
12397TIP3    H137068   4.200   0.490   6.642
12397TIP3    H237069   4.254   0.556   6.767
12398TIP3   OH237070   4.147   0.197   6.574
12398TIP3    H137071   4.104   0.253   6.639
12398TIP3    H237072   4.076   0.147   6.534
12399TIP3   OH237073   4.172   0.466   7.204
12399TIP3    H137074   4.164   0.373   7.184
12399TIP3    H237075   4.149   0.472   7.296
12400TIP3   OH237076   2.789   0.562   7.877
12400TIP3    H137077   2.796   0.520   7.791
12400TIP3    H237078   2.879   0.573   7.906
12401TIP3   OH237079   4.488   0.842   8.011
12401TIP3    H137080   4.554   0.773   8.002
12401TIP3    H237081   4.483   0.881   7.924
12402TIP3   OH237082   7.935   5.250   0.024
12402TIP3    H137083   7.859   5.211   0.066
12402TIP3    H237084   8.003   5.251   0.091
12403TIP3   OH237085   4.155   0.205   7.099
12403TIP3    H137086   4.200   0.127   7.130
12403TIP3    H237087   4.197   0.228   7.017
12404TIP3   OH237088   4.316   0.359   7.596
12404TIP3    H137089   4.398   0.375   7.551
12404TIP3    H237090   4.333   0.385   7.687
12405TIP3   OH237091   4.382   0.487   7.833
12405TIP3    H137092   4.301   0.513   7.878
12405TIP3    H237093   4.413   0.568   7.792
12406TIP3   OH237094   2.868   0.159   8.003
12406TIP3    H137095   2.909   0.172   7.918
12406TIP3    H237096   2.818   0.239   8.018
12407TIP3   OH237097   3.918   1.392   7.041
12407TIP3    H137098   3.973   1.381   6.963
12407TIP3    H237099   3.960   1.463   7.090
12408TIP3   OH237100   6.260   5.782   0.332
12408TIP3    H137101   6.193   5.758   0.396
12408TIP3    H237102   6.343   5.765   0.376
12409TIP3   OH237103   3.201   1.216   7.890
12409TIP3    H137104   3.162   1.298   7.858
12409TIP3    H237105   3.291   1.219   7.858
12410TIP3   OH237106   6.930   6.061   0.014
12410TIP3    H137107   6.948   6.084   0.106
12410TIP3    H237108   6.986   6.121  -0.036
12411TIP3   OH237109   3.842   1.632   7.929
12411TIP3    H137110   3.911   1.575   7.895
12411TIP3    H237111   3.886   1.685   7.996
12412TIP3   OH237112   6.157   6.107  -0.003
12412TIP3    H137113   6.075   6.111  -0.052
12412TIP3    H237114   6.136   6.055   0.075
12413TIP3   OH237115   3.112   1.466   7.840
12413TIP3    H137116   3.035   1.481   7.894
12413TIP3    H237117   3.087   1.496   7.753
12414TIP3   OH237118   3.528   1.485   7.650
12414TIP3    H137119   3.458   1.497   7.585
12414TIP3    H237120   3.540   1.572   7.688
12415TIP3   OH237121   3.790   1.416   7.700
12415TIP3    H137122   3.699   1.438   7.680
12415TIP3    H237123   3.842   1.484   7.656
12416TIP3   OH237124   3.992   1.584   7.599
12416TIP3    H137125   3.994   1.672   7.561
12416TIP3    H237126   4.022   1.527   7.529
12417TIP3   OH237127   2.788   1.261   7.683
12417TIP3    H137128   2.811   1.231   7.771
12417TIP3    H237129   2.862   1.233   7.628
12418TIP3   OH237130   3.006   1.140   7.573
12418TIP3    H137131   3.016   1.063   7.629
12418TIP3    H237132   3.092   1.181   7.573
12419TIP3   OH237133   3.277   1.222   7.590
12419TIP3    H137134   3.292   1.129   7.574
12419TIP3    H237135   3.340   1.245   7.658
12420TIP3   OH237136   2.557   1.053   7.115
12420TIP3    H137137   2.474   1.024   7.078
12420TIP3    H237138   2.566   1.144   7.087
12421TIP3   OH237139   3.366   1.201   6.714
12421TIP3    H137140   3.449   1.230   6.675
12421TIP3    H237141   3.335   1.131   6.656
12422TIP3   OH237142   4.067   1.343   6.812
12422TIP3    H137143   4.059   1.248   6.804
12422TIP3    H237144   4.023   1.377   6.733
12423TIP3   OH237145   2.667   1.037   6.765
12423TIP3    H137146   2.670   1.053   6.859
12423TIP3    H237147   2.749   0.992   6.745
12424TIP3   OH237148   4.282   1.486   7.990
12424TIP3    H137149   4.207   1.455   7.938
12424TIP3    H237150   4.273   1.581   7.989
12425TIP3   OH237151   5.551   0.883   6.764
12425TIP3    H137152   5.533   0.973   6.738
12425TIP3    H237153   5.483   0.832   6.720
12426TIP3   OH237154   5.555   0.865   7.166
12426TIP3    H137155   5.597   0.854   7.251
12426TIP3    H237156   5.509   0.783   7.152
12427TIP3   OH237157   4.846   0.730   7.509
12427TIP3    H137158   4.885   0.677   7.579
12427TIP3    H237159   4.921   0.756   7.455
12428TIP3   OH237160   5.822   1.161   6.844
12428TIP3    H137161   5.804   1.102   6.918
12428TIP3    H237162   5.842   1.245   6.885
12429TIP3   OH237163   4.843   1.152   7.199
12429TIP3    H137164   4.824   1.058   7.204
12429TIP3    H237165   4.938   1.157   7.190
12430TIP3   OH237166   4.507   0.374   6.984
12430TIP3    H137167   4.471   0.457   7.015
12430TIP3    H237168   4.431   0.324   6.954
12431TIP3   OH237169   4.620   0.657   7.204
12431TIP3    H137170   4.671   0.580   7.230
12431TIP3    H237171   4.686   0.722   7.180
12432TIP3   OH237172   5.484   1.599   6.848
12432TIP3    H137173   5.512   1.533   6.784
12432TIP3    H237174   5.487   1.553   6.932
12433TIP3   OH237175   5.362   1.088   7.167
12433TIP3    H137176   5.404   1.007   7.137
12433TIP3    H237177   5.435   1.141   7.200
12434TIP3   OH237178   5.794   0.568   7.270
12434TIP3    H137179   5.841   0.492   7.305
12434TIP3    H237180   5.736   0.531   7.203
12435TIP3   OH237181   4.750   0.427   7.299
12435TIP3    H137182   4.834   0.414   7.342
12435TIP3    H237183   4.749   0.362   7.228
12436TIP3   OH237184   5.163   0.694   7.121
12436TIP3    H137185   5.252   0.658   7.128
12436TIP3    H237186   5.107   0.617   7.111
12437TIP3   OH237187   6.283   0.577   7.502
12437TIP3    H137188   6.263   0.642   7.435
12437TIP3    H237189   6.378   0.578   7.510
12438TIP3   OH237190   5.463   1.095   6.608
12438TIP3    H137191   5.422   1.060   6.529
12438TIP3    H237192   5.409   1.169   6.634
12439TIP3   OH237193   5.205   1.021   7.386
12439TIP3    H137194   5.149   1.091   7.418
12439TIP3    H237195   5.248   1.058   7.309
12440TIP3   OH237196   4.998   0.363   7.400
12440TIP3    H137197   5.053   0.426   7.445
12440TIP3    H237198   5.055   0.324   7.333
12441TIP3   OH237199   5.043   1.217   7.487
12441TIP3    H137200   5.030   1.306   7.457
12441TIP3    H237201   4.965   1.198   7.540
12442TIP3   OH237202   4.412   0.922   6.744
12442TIP3    H137203   4.379   0.942   6.656
12442TIP3    H237204   4.436   1.007   6.780
12443TIP3   OH237205   5.860   1.412   6.973
12443TIP3    H137206   5.773   1.406   7.013
12443TIP3    H237207   5.859   1.496   6.927
12444TIP3   OH237208   5.574   1.445   6.634
12444TIP3    H137209   5.628   1.366   6.623
12444TIP3    H237210   5.630   1.517   6.605
12445TIP3   OH237211   5.714   1.213   6.594
12445TIP3    H137212   5.636   1.158   6.595
12445TIP3    H237213   5.762   1.188   6.674
12446TIP3   OH237214   6.088   1.319   7.323
12446TIP3    H137215   6.072   1.245   7.264
12446TIP3    H237216   6.074   1.397   7.270
12447TIP3   OH237217   5.381   0.749   6.583
12447TIP3    H137218   5.290   0.777   6.573
12447TIP3    H237219   5.421   0.765   6.497
12448TIP3   OH237220   5.345   0.533   6.316
12448TIP3    H137221   5.416   0.592   6.342
12448TIP3    H237222   5.352   0.460   6.377
12449TIP3   OH237223   6.272   0.999   7.187
12449TIP3    H137224   6.185   1.039   7.184
12449TIP3    H237225   6.309   1.017   7.100
12450TIP3   OH237226   5.734   0.818   6.556
12450TIP3    H137227   5.689   0.842   6.637
12450TIP3    H237228   5.818   0.782   6.586
12451TIP3   OH237229   5.961   0.849   7.472
12451TIP3    H137230   5.968   0.925   7.530
12451TIP3    H237231   5.867   0.841   7.454
12452TIP3   OH237232   4.964   0.807   6.951
12452TIP3    H137233   4.925   0.743   6.891
12452TIP3    H237234   5.036   0.759   6.993
12453TIP3   OH237235   5.106   1.200   7.102
12453TIP3    H137236   5.082   1.188   7.010
12453TIP3    H237237   5.194   1.163   7.109
12454TIP3   OH237238   5.065   0.790   7.354
12454TIP3    H137239   5.101   0.760   7.270
12454TIP3    H237240   5.112   0.871   7.372
12455TIP3   OH237241   5.623   1.404   7.106
12455TIP3    H137242   5.609   1.487   7.153
12455TIP3    H237243   5.605   1.336   7.172
12456TIP3   OH237244   5.244   1.312   7.654
12456TIP3    H137245   5.183   1.370   7.700
12456TIP3    H237246   5.188   1.260   7.596
12457TIP3   OH237247   5.563   0.704   6.374
12457TIP3    H137248   5.624   0.753   6.428
12457TIP3    H237249   5.587   0.727   6.284
12458TIP3   OH237250   4.994   0.867   7.786
12458TIP3    H137251   5.000   0.958   7.814
12458TIP3    H237252   4.900   0.851   7.775
12459TIP3   OH237253   5.323   1.331   6.641
12459TIP3    H137254   5.405   1.379   6.646
12459TIP3    H237255   5.263   1.389   6.593
12460TIP3   OH237256   5.033   1.469   7.737
12460TIP3    H137257   5.009   1.480   7.645
12460TIP3    H237258   4.950   1.456   7.783
12461TIP3   OH237259   4.835   0.648   6.758
12461TIP3    H137260   4.760   0.698   6.725
12461TIP3    H237261   4.799   0.562   6.778
12462TIP3   OH237262   5.906   1.263   5.997
12462TIP3    H137263   5.900   1.357   5.978
12462TIP3    H237264   5.997   1.241   5.980
12463TIP3   OH237265   4.627   1.026   7.680
12463TIP3    H137266   4.556   1.009   7.618
12463TIP3    H237267   4.663   0.939   7.700
12464TIP3   OH237268   4.479   1.212   7.336
12464TIP3    H137269   4.573   1.228   7.343
12464TIP3    H237270   4.438   1.292   7.371
12465TIP3   OH237271   6.319   1.658   7.388
12465TIP3    H137272   6.328   1.567   7.417
12465TIP3    H237273   6.242   1.691   7.434
12466TIP3   OH237274   5.432   1.455   7.515
12466TIP3    H137275   5.427   1.545   7.545
12466TIP3    H237276   5.365   1.409   7.565
12467TIP3   OH237277   5.215   1.552   6.472
12467TIP3    H137278   5.171   1.534   6.388
12467TIP3    H237279   5.179   1.635   6.501
12468TIP3   OH237280   4.646   1.408   6.847
12468TIP3    H137281   4.691   1.400   6.932
12468TIP3    H237282   4.597   1.326   6.838
12469TIP3   OH237283   5.416   1.492   6.095
12469TIP3    H137284   5.465   1.419   6.059
12469TIP3    H237285   5.451   1.504   6.184
12470TIP3   OH237286   5.469   1.529   6.366
12470TIP3    H137287   5.383   1.531   6.409
12470TIP3    H237288   5.529   1.497   6.433
12471TIP3   OH237289   6.229   0.769   7.699
12471TIP3    H137290   6.142   0.794   7.667
12471TIP3    H237291   6.254   0.694   7.645
12472TIP3   OH237292   4.826   1.216   7.657
12472TIP3    H137293   4.875   1.202   7.738
12472TIP3    H237294   4.754   1.153   7.662
12473TIP3   OH237295   5.901   0.577   7.581
12473TIP3    H137296   5.964   0.506   7.566
12473TIP3    H237297   5.942   0.654   7.542
12474TIP3   OH237298   5.633   0.742   6.115
12474TIP3    H137299   5.573   0.736   6.041
12474TIP3    H237300   5.693   0.813   6.091
12475TIP3   OH237301   5.167   0.566   7.497
12475TIP3    H137302   5.118   0.571   7.579
12475TIP3    H237303   5.137   0.643   7.447
12476TIP3   OH237304   4.959   0.519   7.069
12476TIP3    H137305   4.890   0.452   7.069
12476TIP3    H237306   5.002   0.509   6.984
12477TIP3   OH237307   5.558   0.578   6.698
12477TIP3    H137308   5.497   0.629   6.645
12477TIP3    H237309   5.577   0.501   6.645
12478TIP3   OH237310   5.705   0.809   7.787
12478TIP3    H137311   5.676   0.756   7.861
12478TIP3    H237312   5.800   0.818   7.799
12479TIP3   OH237313   5.660   0.681   6.925
12479TIP3    H137314   5.628   0.770   6.914
12479TIP3    H237315   5.640   0.638   6.841
12480TIP3   OH237316   4.991   0.597   7.707
12480TIP3    H137317   5.006   0.678   7.755
12480TIP3    H237318   4.989   0.529   7.774
12481TIP3   OH237319   5.694   0.786   7.400
12481TIP3    H137320   5.727   0.709   7.353
12481TIP3    H237321   5.645   0.750   7.474
12482TIP3   OH237322   4.742   0.264   7.074
12482TIP3    H137323   4.663   0.307   7.042
12482TIP3    H237324   4.722   0.170   7.070
12483TIP3   OH237325   5.052   0.253   6.722
12483TIP3    H137326   5.143   0.280   6.739
12483TIP3    H237327   5.019   0.318   6.660
12484TIP3   OH237328   4.856   0.386   6.538
12484TIP3    H137329   4.797   0.396   6.614
12484TIP3    H237330   4.799   0.402   6.463
12485TIP3   OH237331   6.038   2.014   7.481
12485TIP3    H137332   6.036   2.031   7.387
12485TIP3    H237333   6.116   2.059   7.512
12486TIP3   OH237334   4.981   1.126   7.890
12486TIP3    H137335   5.062   1.145   7.937
12486TIP3    H237336   4.913   1.131   7.958
12487TIP3   OH237337   5.427   0.610   7.168
12487TIP3    H137338   5.474   0.532   7.137
12487TIP3    H237339   5.421   0.599   7.262
12488TIP3   OH237340   5.432   0.513   7.426
12488TIP3    H137341   5.345   0.526   7.463
12488TIP3    H237342   5.492   0.543   7.494
12489TIP3   OH237343   5.130   0.852   6.527
12489TIP3    H137344   5.055   0.797   6.508
12489TIP3    H237345   5.109   0.893   6.611
12490TIP3   OH237346   6.033   1.122   7.140
12490TIP3    H137347   6.067   1.177   7.069
12490TIP3    H237348   5.948   1.092   7.108
12491TIP3   OH237349   5.556   1.185   7.559
12491TIP3    H137350   5.605   1.179   7.641
12491TIP3    H237351   5.515   1.271   7.562
12492TIP3   OH237352   5.626   0.450   6.447
12492TIP3    H137353   5.712   0.441   6.487
12492TIP3    H237354   5.618   0.543   6.427
12493TIP3   OH237355   4.833   0.863   7.189
12493TIP3    H137356   4.871   0.851   7.102
12493TIP3    H237357   4.900   0.833   7.249
12494TIP3   OH237358   5.303   1.014   6.393
12494TIP3    H137359   5.258   1.099   6.388
12494TIP3    H237360   5.240   0.957   6.436
12495TIP3   OH237361   4.723   0.791   7.801
12495TIP3    H137362   4.736   0.753   7.889
12495TIP3    H237363   4.647   0.744   7.767
12496TIP3   OH237364   5.468   0.954   7.840
12496TIP3    H137365   5.398   0.896   7.809
12496TIP3    H237366   5.548   0.917   7.802
12497TIP3   OH237367   5.701   1.466   7.433
12497TIP3    H137368   5.606   1.458   7.443
12497TIP3    H237369   5.730   1.508   7.514
12498TIP3   OH237370   6.165   0.477   6.418
12498TIP3    H137371   6.184   0.407   6.356
12498TIP3    H237372   6.090   0.524   6.380
12499TIP3   OH237373   6.335   1.368   7.425
12499TIP3    H137374   6.240   1.367   7.410
12499TIP3    H237375   6.373   1.353   7.338
12500TIP3   OH237376   5.827   1.332   6.264
12500TIP3    H137377   5.803   1.262   6.324
12500TIP3    H237378   5.847   1.287   6.182
12501TIP3   OH237379   5.792   0.993   7.071
12501TIP3    H137380   5.701   0.967   7.086
12501TIP3    H237381   5.844   0.919   7.102
12502TIP3   OH237382   4.968   1.211   6.858
12502TIP3    H137383   4.962   1.287   6.800
12502TIP3    H237384   4.878   1.193   6.884
12503TIP3   OH237385   4.498   0.514   6.574
12503TIP3    H137386   4.547   0.592   6.599
12503TIP3    H237387   4.421   0.515   6.631
12504TIP3   OH237388   5.058   0.973   6.755
12504TIP3    H137389   5.043   1.063   6.785
12504TIP3    H237390   5.028   0.918   6.827
12505TIP3   OH237391   5.250   1.525   7.308
12505TIP3    H137392   5.285   1.599   7.258
12505TIP3    H237393   5.324   1.494   7.360
12506TIP3   OH237394   4.881   1.429   6.705
12506TIP3    H137395   4.794   1.436   6.744
12506TIP3    H237396   4.917   1.517   6.710
12507TIP3   OH237397   5.597   1.185   7.285
12507TIP3    H137398   5.583   1.183   7.379
12507TIP3    H237399   5.686   1.151   7.273
12508TIP3   OH237400   5.591   1.071   6.143
12508TIP3    H137401   5.640   1.043   6.219
12508TIP3    H237402   5.503   1.037   6.156
12509TIP3   OH237403   5.848   1.689   7.321
12509TIP3    H137404   5.777   1.626   7.333
12509TIP3    H237405   5.819   1.744   7.249
12510TIP3   OH237406   5.903   1.535   5.955
12510TIP3    H137407   5.918   1.593   5.881
12510TIP3    H237408   5.834   1.577   6.006
12511TIP3   OH237409   5.763   0.976   6.330
12511TIP3    H137410   5.751   0.934   6.415
12511TIP3    H237411   5.858   0.990   6.324
12512TIP3   OH237412   4.676   1.427   7.471
12512TIP3    H137413   4.727   1.368   7.526
12512TIP3    H237414   4.692   1.514   7.508
12513TIP3   OH237415   4.941   1.065   6.177
12513TIP3    H137416   4.952   0.975   6.147
12513TIP3    H237417   4.927   1.058   6.271
12514TIP3   OH237418   4.885   1.053   6.447
12514TIP3    H137419   4.953   1.023   6.508
12514TIP3    H237420   4.887   1.148   6.455
12515TIP3   OH237421   4.611   0.759   6.644
12515TIP3    H137422   4.547   0.808   6.696
12515TIP3    H237423   4.631   0.817   6.570
12516TIP3   OH237424   5.158   1.241   6.373
12516TIP3    H137425   5.073   1.264   6.411
12516TIP3    H237426   5.181   1.316   6.318
12517TIP3   OH237427   5.335   0.258   6.792
12517TIP3    H137428   5.356   0.341   6.834
12517TIP3    H237429   5.382   0.192   6.844
12518TIP3   OH237430   5.624   0.612   7.607
12518TIP3    H137431   5.628   0.679   7.675
12518TIP3    H237432   5.713   0.578   7.601
12519TIP3   OH237433   4.908   1.323   6.455
12519TIP3    H137434   4.888   1.393   6.393
12519TIP3    H237435   4.897   1.363   6.541
12520TIP3   OH237436   5.934   0.680   6.927
12520TIP3    H137437   5.840   0.693   6.936
12520TIP3    H237438   5.970   0.713   7.010
12521TIP3   OH237439   4.636   0.933   6.427
12521TIP3    H137440   4.709   0.993   6.440
12521TIP3    H237441   4.667   0.871   6.362
12522TIP3   OH237442   4.514   0.236   6.556
12522TIP3    H137443   4.514   0.329   6.577
12522TIP3    H237444   4.468   0.194   6.629
12523TIP3   OH237445   5.882   1.678   6.889
12523TIP3    H137446   5.840   1.731   6.821
12523TIP3    H237447   5.975   1.694   6.878
12524TIP3   OH237448   4.469   1.187   6.824
12524TIP3    H137449   4.428   1.225   6.902
12524TIP3    H237450   4.425   1.230   6.751
12525TIP3   OH237451   4.679   1.725   7.893
12525TIP3    H137452   4.760   1.731   7.944
12525TIP3    H237453   4.668   1.632   7.877
12526TIP3   OH237454   5.137   1.632   7.933
12526TIP3    H137455   5.227   1.602   7.950
12526TIP3    H237456   5.107   1.578   7.860
12527TIP3   OH237457   5.107   1.243   6.052
12527TIP3    H137458   5.056   1.180   6.103
12527TIP3    H237459   5.179   1.192   6.015
12528TIP3   OH237460   5.770   1.577   7.671
12528TIP3    H137461   5.767   1.510   7.739
12528TIP3    H237462   5.844   1.632   7.695
12529TIP3   OH237463   5.541   1.281   5.973
12529TIP3    H137464   5.575   1.218   6.036
12529TIP3    H237465   5.600   1.275   5.898
12530TIP3   OH237466   8.044   5.735   0.080
12530TIP3    H137467   8.064   5.642   0.080
12530TIP3    H237468   7.961   5.741   0.032
12531TIP3   OH237469   4.754   0.744   6.272
12531TIP3    H137470   4.801   0.715   6.350
12531TIP3    H237471   4.823   0.770   6.211
12532TIP3   OH237472   5.398   1.223   7.864
12532TIP3    H137473   5.354   1.243   7.781
12532TIP3    H237474   5.434   1.135   7.850
12533TIP3   OH237475   5.330   0.975   6.124
12533TIP3    H137476   5.310   0.989   6.216
12533TIP3    H237477   5.318   0.881   6.110
12534TIP3   OH237478   5.864   1.239   7.463
12534TIP3    H137479   5.943   1.274   7.421
12534TIP3    H237480   5.800   1.310   7.454
12535TIP3   OH237481   8.148   5.480   0.063
12535TIP3    H137482   8.222   5.455   0.007
12535TIP3    H237483   8.184   5.482   0.151
12536TIP3   OH237484   4.917   0.680   6.488
12536TIP3    H137485   4.901   0.654   6.578
12536TIP3    H237486   4.958   0.604   6.448
12537TIP3   OH237487   5.268   0.792   7.733
12537TIP3    H137488   5.179   0.829   7.733
12537TIP3    H237489   5.302   0.812   7.646
12538TIP3   OH237490   5.066   0.507   6.323
12538TIP3    H137491   5.028   0.509   6.235
12538TIP3    H237492   5.160   0.522   6.309
12539TIP3   OH237493   5.744   1.134   7.830
12539TIP3    H137494   5.808   1.088   7.775
12539TIP3    H237495   5.742   1.083   7.911
12540TIP3   OH237496   5.890   0.800   5.979
12540TIP3    H137497   5.861   0.754   5.900
12540TIP3    H237498   5.861   0.890   5.966
12541TIP3   OH237499   5.280   0.550   7.861
12541TIP3    H137500   5.358   0.507   7.827
12541TIP3    H237501   5.278   0.635   7.818
12542TIP3   OH237502   5.401   0.872   7.505
12542TIP3    H137503   5.480   0.925   7.500
12542TIP3    H237504   5.334   0.923   7.460
12543TIP3   OH237505   5.968   0.831   7.894
12543TIP3    H137506   6.025   0.757   7.913
12543TIP3    H237507   6.026   0.907   7.897
12544TIP3   OH237508   5.996   1.074   7.635
12544TIP3    H137509   5.939   1.134   7.586
12544TIP3    H237510   6.084   1.093   7.602
12545TIP3   OH237511   8.488   5.290   0.104
12545TIP3    H137512   8.408   5.262   0.147
12545TIP3    H237513   8.495   5.233   0.028
12546TIP3   OH237514   8.886   5.279  -0.007
12546TIP3    H137515   8.813   5.317   0.043
12546TIP3    H237516   8.923   5.213   0.052
12547TIP3   OH237517   4.904   1.527   6.269
12547TIP3    H137518   4.994   1.512   6.243
12547TIP3    H237519   4.865   1.572   6.194
12548TIP3   OH237520   4.364   0.924   6.458
12548TIP3    H137521   4.458   0.937   6.449
12548TIP3    H237522   4.348   0.839   6.417
12549TIP3   OH237523   4.274   1.495   6.908
12549TIP3    H137524   4.209   1.441   6.862
12549TIP3    H237525   4.318   1.433   6.967
12550TIP3   OH237526   4.417   1.325   7.075
12550TIP3    H137527   4.409   1.257   7.141
12550TIP3    H237528   4.469   1.394   7.117
12551TIP3   OH237529   6.151   1.738   6.887
12551TIP3    H137530   6.170   1.762   6.978
12551TIP3    H237531   6.201   1.802   6.835
12552TIP3   OH237532   6.170   1.766   7.166
12552TIP3    H137533   6.121   1.684   7.162
12552TIP3    H237534   6.239   1.750   7.229
12553TIP3   OH237535   6.224   1.466   7.744
12553TIP3    H137536   6.155   1.478   7.809
12553TIP3    H237537   6.270   1.550   7.743
12554TIP3   OH237538   6.039   1.000   6.326
12554TIP3    H137539   6.098   1.071   6.300
12554TIP3    H237540   6.075   0.968   6.409
12555TIP3   OH237541   6.144   0.891   6.554
12555TIP3    H137542   6.083   0.839   6.606
12555TIP3    H237543   6.203   0.931   6.618
12556TIP3   OH237544   6.213   1.267   6.988
12556TIP3    H137545   6.262   1.200   6.941
12556TIP3    H237546   6.216   1.344   6.930
12557TIP3   OH237547   6.022   1.533   7.168
12557TIP3    H137548   5.955   1.577   7.219
12557TIP3    H237549   5.974   1.491   7.097
12558TIP3   OH237550   6.083   0.782   6.168
12558TIP3    H137551   6.021   0.791   6.096
12558TIP3    H237552   6.071   0.861   6.220
12559TIP3   OH237553   6.035   0.445   6.059
12559TIP3    H137554   5.952   0.491   6.042
12559TIP3    H237555   6.018   0.393   6.138
12560TIP3   OH237556   5.966   0.698   6.658
12560TIP3    H137557   5.953   0.608   6.628
12560TIP3    H237558   5.967   0.692   6.753
12561TIP3   OH237559   4.584   0.761   7.455
12561TIP3    H137560   4.577   0.725   7.366
12561TIP3    H237561   4.678   0.761   7.473
12562TIP3   OH237562   6.251   1.119   7.540
12562TIP3    H137563   6.323   1.057   7.530
12562TIP3    H237564   6.277   1.196   7.489
12563TIP3   OH237565   6.470   0.949   7.581
12563TIP3    H137566   6.438   0.918   7.665
12563TIP3    H237567   6.546   1.004   7.603
12564TIP3   OH237568   5.875   0.426   6.548
12564TIP3    H137569   5.917   0.344   6.573
12564TIP3    H237570   5.910   0.445   6.461
12565TIP3   OH237571   6.189   0.602   7.134
12565TIP3    H137572   6.229   0.664   7.073
12565TIP3    H237573   6.186   0.649   7.218
12566TIP3   OH237574   6.205   0.785   7.346
12566TIP3    H137575   6.131   0.820   7.396
12566TIP3    H237576   6.235   0.858   7.293
12567TIP3   OH237577   4.559   0.444   7.499
12567TIP3    H137578   4.620   0.426   7.427
12567TIP3    H237579   4.593   0.524   7.539
12568TIP3   OH237580   5.712   1.647   6.526
12568TIP3    H137581   5.769   1.639   6.450
12568TIP3    H237582   5.751   1.718   6.577
12569TIP3   OH237583   4.806   1.448   7.901
12569TIP3    H137584   4.714   1.425   7.891
12569TIP3    H237585   4.826   1.433   7.993
12570TIP3   OH237586   5.021   1.491   7.455
12570TIP3    H137587   4.970   1.565   7.423
12570TIP3    H237588   5.106   1.498   7.412
12571TIP3   OH237589   5.422   1.720   7.598
12571TIP3    H137590   5.460   1.709   7.685
12571TIP3    H237591   5.486   1.774   7.550
12572TIP3   OH237592   5.615   1.873   7.470
12572TIP3    H137593   5.682   1.817   7.430
12572TIP3    H237594   5.665   1.933   7.525
12573TIP3   OH237595   4.684   1.722   7.508
12573TIP3    H137596   4.594   1.742   7.482
12573TIP3    H237597   4.706   1.790   7.572
12574TIP3   OH237598   4.912   1.721   7.353
12574TIP3    H137599   4.829   1.724   7.400
12574TIP3    H237600   4.889   1.745   7.263
12575TIP3   OH237601   5.324   1.737   7.146
12575TIP3    H137602   5.252   1.750   7.084
12575TIP3    H237603   5.337   1.823   7.187
12576TIP3   OH237604   5.587   1.665   7.187
12576TIP3    H137605   5.496   1.689   7.171
12576TIP3    H237606   5.638   1.734   7.145
12577TIP3   OH237607   5.787   1.840   7.093
12577TIP3    H137608   5.789   1.928   7.056
12577TIP3    H237609   5.818   1.783   7.022
12578TIP3   OH237610   4.590   1.506   7.219
12578TIP3    H137611   4.617   1.484   7.308
12578TIP3    H237612   4.662   1.475   7.164
12579TIP3   OH237613   4.794   1.393   7.080
12579TIP3    H137614   4.805   1.309   7.125
12579TIP3    H237615   4.880   1.434   7.084
12580TIP3   OH237616   5.062   1.477   7.106
12580TIP3    H137617   5.080   1.385   7.092
12580TIP3    H237618   5.117   1.502   7.180
12581TIP3   OH237619   4.351   1.307   6.607
12581TIP3    H137620   4.267   1.276   6.572
12581TIP3    H237621   4.358   1.397   6.575
12582TIP3   OH237622   5.163   1.464   6.201
12582TIP3    H137623   5.246   1.495   6.163
12582TIP3    H237624   5.134   1.395   6.142
12583TIP3   OH237625   5.864   1.600   6.298
12583TIP3    H137626   5.855   1.505   6.290
12583TIP3    H237627   5.820   1.635   6.220
12584TIP3   OH237628   4.460   1.300   6.258
12584TIP3    H137629   4.464   1.316   6.352
12584TIP3    H237630   4.543   1.255   6.238
12585TIP3   OH237631   6.074   1.739   7.484
12585TIP3    H137632   5.996   1.711   7.435
12585TIP3    H237633   6.062   1.833   7.495
12586TIP3   OH237634   7.350   1.137   6.257
12586TIP3    H137635   7.331   1.226   6.228
12586TIP3    H237636   7.282   1.084   6.215
12587TIP3   OH237637   7.331   1.129   6.620
12587TIP3    H137638   7.356   1.123   6.712
12587TIP3    H237639   7.296   1.042   6.600
12588TIP3   OH237640   6.633   1.062   6.992
12588TIP3    H137641   6.678   1.013   7.062
12588TIP3    H237642   6.703   1.094   6.937
12589TIP3   OH237643   7.619   1.421   6.333
12589TIP3    H137644   7.602   1.365   6.409
12589TIP3    H237645   7.641   1.506   6.371
12590TIP3   OH237646   6.637   1.416   6.682
12590TIP3    H137647   6.614   1.323   6.680
12590TIP3    H237648   6.732   1.417   6.674
12591TIP3   OH237649   6.322   0.688   6.503
12591TIP3    H137650   6.272   0.768   6.514
12591TIP3    H237651   6.257   0.621   6.484
12592TIP3   OH237652   6.388   0.969   6.678
12592TIP3    H137653   6.437   0.888   6.691
12592TIP3    H237654   6.453   1.033   6.651
12593TIP3   OH237655   7.282   1.854   6.338
12593TIP3    H137656   7.308   1.789   6.273
12593TIP3    H237657   7.291   1.809   6.422
12594TIP3   OH237658   7.156   1.349   6.653
12594TIP3    H137659   7.195   1.271   6.614
12594TIP3    H237660   7.230   1.404   6.679
12595TIP3   OH237661   7.549   0.897   6.693
12595TIP3    H137662   7.643   0.898   6.710
12595TIP3    H237663   7.541   0.916   6.600
12596TIP3   OH237664   6.507   0.734   6.765
12596TIP3    H137665   6.600   0.715   6.774
12596TIP3    H237666   6.472   0.660   6.715
12597TIP3   OH237667   6.952   0.968   6.603
12597TIP3    H137668   7.043   0.937   6.608
12597TIP3    H237669   6.902   0.890   6.577
12598TIP3   OH237670   8.200   0.784   6.869
12598TIP3    H137671   8.187   0.875   6.843
12598TIP3    H237672   8.291   0.780   6.898
12599TIP3   OH237673   7.262   1.346   6.097
12599TIP3    H137674   7.222   1.313   6.016
12599TIP3    H237675   7.208   1.420   6.122
12600TIP3   OH237676   7.033   1.282   6.893
12600TIP3    H137677   6.969   1.348   6.922
12600TIP3    H237678   7.068   1.316   6.811
12601TIP3   OH237679   6.768   0.657   6.781
12601TIP3    H137680   6.805   0.721   6.842
12601TIP3    H237681   6.832   0.650   6.711
12602TIP3   OH237682   6.844   1.466   6.974
12602TIP3    H137683   6.831   1.555   6.941
12602TIP3    H237684   6.766   1.448   7.026
12603TIP3   OH237685   6.215   1.187   6.227
12603TIP3    H137686   6.185   1.205   6.138
12603TIP3    H237687   6.238   1.273   6.262
12604TIP3   OH237688   7.659   1.672   6.461
12604TIP3    H137689   7.570   1.668   6.497
12604TIP3    H237690   7.662   1.756   6.415
12605TIP3   OH237691   7.369   1.703   6.120
12605TIP3    H137692   7.423   1.625   6.110
12605TIP3    H237693   7.424   1.775   6.091
12606TIP3   OH237694   7.510   1.472   6.083
12606TIP3    H137695   7.434   1.414   6.081
12606TIP3    H237696   7.558   1.447   6.162
12607TIP3   OH237697   7.901   1.573   6.820
12607TIP3    H137698   7.878   1.503   6.759
12607TIP3    H237699   7.884   1.654   6.772
12608TIP3   OH237700   7.183   0.992   6.086
12608TIP3    H137701   7.091   1.019   6.079
12608TIP3    H237702   7.219   1.008   5.999
12609TIP3   OH237703   7.146   0.793   5.799
12609TIP3    H137704   7.213   0.855   5.829
12609TIP3    H237705   7.160   0.716   5.853
12610TIP3   OH237706   8.073   1.251   6.645
12610TIP3    H137707   7.986   1.291   6.653
12610TIP3    H237708   8.109   1.290   6.565
12611TIP3   OH237709   7.530   1.075   6.045
12611TIP3    H137710   7.486   1.097   6.128
12611TIP3    H237711   7.614   1.038   6.072
12612TIP3   OH237712   7.702   1.187   6.895
12612TIP3    H137713   7.704   1.282   6.908
12612TIP3    H237714   7.608   1.165   6.897
12613TIP3   OH237715   6.748   1.066   6.424
12613TIP3    H137716   6.714   0.998   6.366
12613TIP3    H237717   6.825   1.026   6.465
12614TIP3   OH237718   6.900   1.454   6.590
12614TIP3    H137719   6.880   1.445   6.497
12614TIP3    H237720   6.989   1.419   6.599
12615TIP3   OH237721   6.842   1.102   6.810
12615TIP3    H137722   6.884   1.065   6.733
12615TIP3    H237723   6.906   1.165   6.844
12616TIP3   OH237724   7.414   1.671   6.579
12616TIP3    H137725   7.404   1.751   6.631
12616TIP3    H237726   7.399   1.600   6.642
12617TIP3   OH237727   7.041   1.567   7.143
12617TIP3    H137728   6.981   1.625   7.190
12617TIP3    H237729   6.984   1.515   7.086
12618TIP3   OH237730   7.347   0.978   5.865
12618TIP3    H137731   7.411   1.027   5.918
12618TIP3    H237732   7.373   0.997   5.775
12619TIP3   OH237733   6.764   1.149   7.295
12619TIP3    H137734   6.772   1.241   7.319
12619TIP3    H237735   6.671   1.130   7.304
12620TIP3   OH237736   7.121   1.582   6.129
12620TIP3    H137737   7.202   1.633   6.133
12620TIP3    H237738   7.060   1.638   6.082
12621TIP3   OH237739   6.828   1.722   7.227
12621TIP3    H137740   6.803   1.733   7.135
12621TIP3    H237741   6.745   1.711   7.273
12622TIP3   OH237742   6.627   0.879   6.247
12622TIP3    H137743   6.565   0.945   6.216
12622TIP3    H237744   6.576   0.797   6.247
12623TIP3   OH237745   7.704   1.522   5.485
12623TIP3    H137746   7.699   1.615   5.466
12623TIP3    H237747   7.794   1.497   5.466
12624TIP3   OH237748   6.421   1.295   7.177
12624TIP3    H137749   6.349   1.286   7.115
12624TIP3    H237750   6.454   1.206   7.190
12625TIP3   OH237751   6.266   1.490   6.833
12625TIP3    H137752   6.357   1.515   6.852
12625TIP3    H237753   6.215   1.568   6.856
12626TIP3   OH237754   8.127   1.945   6.876
12626TIP3    H137755   8.137   1.850   6.888
12626TIP3    H237756   8.046   1.967   6.922
12627TIP3   OH237757   7.228   1.712   7.002
12627TIP3    H137758   7.225   1.803   7.032
12627TIP3    H237759   7.161   1.667   7.053
12628TIP3   OH237760   7.011   1.809   5.957
12628TIP3    H137761   6.964   1.791   5.875
12628TIP3    H237762   6.974   1.892   5.988
12629TIP3   OH237763   6.444   1.667   6.332
12629TIP3    H137764   6.488   1.660   6.417
12629TIP3    H237765   6.394   1.585   6.324
12630TIP3   OH237766   7.211   1.748   5.582
12630TIP3    H137767   7.261   1.675   5.546
12630TIP3    H237768   7.245   1.759   5.671
12631TIP3   OH237769   7.264   1.784   5.852
12631TIP3    H137770   7.178   1.787   5.895
12631TIP3    H237771   7.323   1.750   5.920
12632TIP3   OH237772   8.021   1.089   7.059
12632TIP3    H137773   7.991   1.136   7.137
12632TIP3    H237774   8.001   0.997   7.077
12633TIP3   OH237775   6.624   1.479   7.140
12633TIP3    H137776   6.669   1.479   7.224
12633TIP3    H237777   6.551   1.418   7.152
12634TIP3   OH237778   7.749   1.025   7.136
12634TIP3    H137779   7.764   0.932   7.118
12634TIP3    H237780   7.765   1.069   7.053
12635TIP3   OH237781   7.433   0.998   5.612
12635TIP3    H137782   7.378   0.984   5.534
12635TIP3    H237783   7.504   1.054   5.581
12636TIP3   OH237784   6.876   0.857   6.928
12636TIP3    H137785   6.838   0.863   7.016
12636TIP3    H237786   6.852   0.939   6.886
12637TIP3   OH237787   6.791   0.777   6.502
12637TIP3    H137788   6.711   0.724   6.510
12637TIP3    H237789   6.801   0.791   6.408
12638TIP3   OH237790   7.375   0.829   6.199
12638TIP3    H137791   7.312   0.878   6.146
12638TIP3    H237792   7.390   0.748   6.149
12639TIP3   OH237793   7.540   1.187   7.231
12639TIP3    H137794   7.557   1.133   7.308
12639TIP3    H237795   7.626   1.197   7.189
12640TIP3   OH237796   7.470   0.950   6.424
12640TIP3    H137797   7.428   1.033   6.399
12640TIP3    H237798   7.451   0.891   6.352
12641TIP3   OH237799   6.773   0.903   7.173
12641TIP3    H137800   6.781   0.976   7.235
12641TIP3    H237801   6.724   0.836   7.222
12642TIP3   OH237802   7.440   1.074   6.870
12642TIP3    H137803   7.482   1.012   6.810
12642TIP3    H237804   7.434   1.026   6.953
12643TIP3   OH237805   6.581   0.600   6.514
12643TIP3    H137806   6.494   0.639   6.519
12643TIP3    H237807   6.572   0.527   6.453
12644TIP3   OH237808   6.875   0.562   6.270
12644TIP3    H137809   6.966   0.535   6.276
12644TIP3    H237810   6.856   0.563   6.176
12645TIP3   OH237811   6.655   0.594   6.050
12645TIP3    H137812   6.599   0.630   5.981
12645TIP3    H237813   6.743   0.625   6.028
12646TIP3   OH237814   7.838   2.270   6.969
12646TIP3    H137815   7.835   2.288   6.875
12646TIP3    H237816   7.918   2.315   6.999
12647TIP3   OH237817   6.773   1.408   7.386
12647TIP3    H137818   6.853   1.426   7.434
12647TIP3    H237819   6.703   1.411   7.452
12648TIP3   OH237820   7.196   0.841   6.650
12648TIP3    H137821   7.140   0.765   6.641
12648TIP3    H237822   7.230   0.835   6.739
12649TIP3   OH237823   7.252   0.765   6.909
12649TIP3    H137824   7.173   0.714   6.920
12649TIP3    H237825   7.306   0.744   6.985
12650TIP3   OH237826   6.936   1.106   6.020
12650TIP3    H137827   6.857   1.055   6.001
12650TIP3    H237828   6.916   1.151   6.102
12651TIP3   OH237829   7.835   1.390   6.629
12651TIP3    H137830   7.870   1.445   6.559
12651TIP3    H237831   7.750   1.360   6.596
12652TIP3   OH237832   7.393   1.476   7.019
12652TIP3    H137833   7.349   1.399   7.054
12652TIP3    H237834   7.335   1.549   7.040
12653TIP3   OH237835   7.435   0.726   5.928
12653TIP3    H137836   7.518   0.717   5.974
12653TIP3    H237837   7.425   0.821   5.915
12654TIP3   OH237838   6.612   1.135   6.653
12654TIP3    H137839   6.650   1.119   6.567
12654TIP3    H237840   6.683   1.119   6.714
12655TIP3   OH237841   7.101   1.272   5.880
12655TIP3    H137842   7.054   1.355   5.877
12655TIP3    H237843   7.042   1.212   5.925
12656TIP3   OH237844   6.506   1.052   7.320
12656TIP3    H137845   6.507   1.009   7.405
12656TIP3    H237846   6.427   1.018   7.277
12657TIP3   OH237847   7.270   1.216   7.347
12657TIP3    H137848   7.184   1.178   7.324
12657TIP3    H237849   7.318   1.216   7.264
12658TIP3   OH237850   7.500   1.736   6.905
12658TIP3    H137851   7.406   1.721   6.918
12658TIP3    H237852   7.532   1.764   6.990
12659TIP3   OH237853   7.956   0.731   5.916
12659TIP3    H137854   7.974   0.659   5.856
12659TIP3    H237855   7.887   0.781   5.873
12660TIP3   OH237856   8.149   1.671   6.899
12660TIP3    H137857   8.056   1.649   6.904
12660TIP3    H237858   8.178   1.636   6.815
12661TIP3   OH237859   7.624   1.589   5.751
12661TIP3    H137860   7.600   1.519   5.812
12661TIP3    H237861   7.644   1.544   5.669
12662TIP3   OH237862   7.593   1.254   6.565
12662TIP3    H137863   7.504   1.218   6.566
12662TIP3    H237864   7.649   1.181   6.592
12663TIP3   OH237865   6.763   1.472   6.345
12663TIP3    H137866   6.757   1.547   6.286
12663TIP3    H237867   6.673   1.458   6.376
12664TIP3   OH237868   6.314   0.813   6.019
12664TIP3    H137869   6.373   0.875   6.063
12664TIP3    H237870   6.244   0.798   6.083
12665TIP3   OH237871   6.856   1.238   6.238
12665TIP3    H137872   6.839   1.326   6.271
12665TIP3    H237873   6.820   1.180   6.306
12666TIP3   OH237874   7.047   1.782   6.794
12666TIP3    H137875   7.081   1.856   6.744
12666TIP3    H237876   7.121   1.753   6.848
12667TIP3   OH237877   6.677   1.687   6.189
12667TIP3    H137878   6.590   1.694   6.228
12667TIP3    H237879   6.713   1.776   6.195
12668TIP3   OH237880   7.400   1.445   6.746
12668TIP3    H137881   7.401   1.459   6.841
12668TIP3    H237882   7.485   1.407   6.726
12669TIP3   OH237883   7.387   1.329   5.631
12669TIP3    H137884   7.436   1.301   5.708
12669TIP3    H237885   7.299   1.291   5.643
12670TIP3   OH237886   7.649   1.948   6.806
12670TIP3    H137887   7.582   1.882   6.823
12670TIP3    H237888   7.614   1.999   6.733
12671TIP3   OH237889   7.705   1.793   5.446
12671TIP3    H137890   7.735   1.859   5.384
12671TIP3    H237891   7.631   1.835   5.491
12672TIP3   OH237892   7.557   1.242   5.825
12672TIP3    H137893   7.544   1.196   5.908
12672TIP3    H237894   7.651   1.259   5.821
12673TIP3   OH237895   6.474   1.678   6.955
12673TIP3    H137896   6.528   1.621   7.009
12673TIP3    H237897   6.486   1.765   6.993
12674TIP3   OH237898   6.736   1.318   5.664
12674TIP3    H137899   6.747   1.228   5.635
12674TIP3    H237900   6.724   1.312   5.759
12675TIP3   OH237901   6.684   1.311   5.936
12675TIP3    H137902   6.748   1.282   6.001
12675TIP3    H237903   6.684   1.406   5.942
12676TIP3   OH237904   6.431   1.036   6.142
12676TIP3    H137905   6.360   1.079   6.191
12676TIP3    H237906   6.444   1.092   6.066
12677TIP3   OH237907   6.954   1.497   5.861
12677TIP3    H137908   6.868   1.520   5.898
12677TIP3    H237909   6.977   1.572   5.806
12678TIP3   OH237910   7.136   0.505   6.290
12678TIP3    H137911   7.164   0.591   6.321
12678TIP3    H237912   7.192   0.443   6.338
12679TIP3   OH237913   7.439   0.955   7.117
12679TIP3    H137914   7.451   1.043   7.153
12679TIP3    H237915   7.522   0.911   7.135
12680TIP3   OH237916   6.704   1.582   5.939
12680TIP3    H137917   6.683   1.652   5.877
12680TIP3    H237918   6.692   1.622   6.025
12681TIP3   OH237919   7.741   0.941   6.412
12681TIP3    H137920   7.649   0.969   6.417
12681TIP3    H237921   7.783   0.988   6.484
12682TIP3   OH237922   6.433   1.196   5.913
12682TIP3    H137923   6.509   1.254   5.924
12682TIP3    H237924   6.463   1.130   5.851
12683TIP3   OH237925   6.312   0.503   6.053
12683TIP3    H137926   6.339   0.583   6.098
12683TIP3    H237927   6.217   0.501   6.062
12684TIP3   OH237928   7.681   1.937   6.376
12684TIP3    H137929   7.639   1.989   6.307
12684TIP3    H237930   7.775   1.953   6.364
12685TIP3   OH237931   6.267   1.449   6.311
12685TIP3    H137932   6.226   1.486   6.390
12685TIP3    H237933   6.222   1.492   6.238
12686TIP3   OH237934   6.472   1.987   7.389
12686TIP3    H137935   6.551   1.997   7.442
12686TIP3    H237936   6.461   1.893   7.378
12687TIP3   OH237937   6.928   1.894   7.418
12687TIP3    H137938   7.019   1.868   7.431
12687TIP3    H237939   6.896   1.838   7.348
12688TIP3   OH237940   6.903   1.496   5.539
12688TIP3    H137941   6.851   1.433   5.590
12688TIP3    H237942   6.976   1.444   5.504
12689TIP3   OH237943   7.576   1.825   7.150
12689TIP3    H137944   7.575   1.766   7.226
12689TIP3    H237945   7.641   1.891   7.171
12690TIP3   OH237946   7.338   1.538   5.461
12690TIP3    H137947   7.369   1.474   5.525
12690TIP3    H237948   7.398   1.529   5.387
12691TIP3   OH237949   6.571   1.371   7.569
12691TIP3    H137950   6.593   1.280   7.585
12691TIP3    H237951   6.482   1.369   7.535
12692TIP3   OH237952   6.551   1.002   5.763
12692TIP3    H137953   6.597   0.972   5.842
12692TIP3    H237954   6.621   1.024   5.701
12693TIP3   OH237955   7.186   1.486   7.363
12693TIP3    H137956   7.145   1.500   7.278
12693TIP3    H237957   7.232   1.402   7.354
12694TIP3   OH237958   7.124   1.234   5.610
12694TIP3    H137959   7.106   1.246   5.703
12694TIP3    H237960   7.112   1.140   5.595
12695TIP3   OH237961   7.661   1.459   6.930
12695TIP3    H137962   7.717   1.531   6.901
12695TIP3    H237963   7.579   1.502   6.957
12696TIP3   OH237964   6.684   1.114   7.607
12696TIP3    H137965   6.763   1.078   7.566
12696TIP3    H237966   6.713   1.146   7.692
12697TIP3   OH237967   6.716   0.939   5.980
12697TIP3    H137968   6.707   0.903   6.068
12697TIP3    H237969   6.769   0.875   5.933
12698TIP3   OH237970   7.037   1.099   7.286
12698TIP3    H137971   6.943   1.118   7.291
12698TIP3    H237972   7.048   1.054   7.201
12699TIP3   OH237973   6.868   0.792   5.800
12699TIP3    H137974   6.832   0.788   5.711
12699TIP3    H237975   6.961   0.810   5.787
12700TIP3   OH237976   7.536   1.419   7.383
12700TIP3    H137977   7.535   1.357   7.310
12700TIP3    H237978   7.540   1.365   7.461
12701TIP3   OH237979   7.668   1.060   5.464
12701TIP3    H137980   7.646   1.011   5.384
12701TIP3    H237981   7.640   1.150   5.445
12702TIP3   OH237982   7.082   0.751   7.253
12702TIP3    H137983   7.164   0.712   7.220
12702TIP3    H237984   7.068   0.827   7.197
12703TIP3   OH237985   7.266   1.231   7.042
12703TIP3    H137986   7.319   1.193   6.972
12703TIP3    H237987   7.178   1.238   7.005
12704TIP3   OH237988   7.847   1.079   7.486
12704TIP3    H137989   7.761   1.065   7.447
12704TIP3    H237990   7.837   1.159   7.538
12705TIP3   OH237991   7.783   1.355   7.151
12705TIP3    H137992   7.725   1.397   7.087
12705TIP3    H237993   7.869   1.354   7.109
12706TIP3   OH237994   6.931   0.955   7.614
12706TIP3    H137995   6.879   0.932   7.691
12706TIP3    H237996   7.012   0.990   7.650
12707TIP3   OH237997   7.347   0.878   7.466
12707TIP3    H137998   7.300   0.959   7.446
12707TIP3    H237999   7.278   0.816   7.490
12708TIP3   OH238000   6.699   1.787   5.753
12708TIP3    H138001   6.789   1.769   5.727
12708TIP3    H238002   6.661   1.833   5.678
12709TIP3   OH238003   6.163   1.183   5.945
12709TIP3    H138004   6.257   1.197   5.936
12709TIP3    H238005   6.147   1.098   5.905
12710TIP3   OH238006   6.071   1.752   6.394
12710TIP3    H138007   6.006   1.698   6.348
12710TIP3    H238008   6.115   1.691   6.453
12711TIP3   OH238009   6.215   1.585   6.562
12711TIP3    H138010   6.207   1.518   6.629
12711TIP3    H238011   6.267   1.654   6.602
12712TIP3   OH238012   7.950   1.997   6.373
12712TIP3    H138013   7.967   2.023   6.464
12712TIP3    H238014   8.001   2.059   6.320
12713TIP3   OH238015   7.965   2.026   6.652
12713TIP3    H138016   7.920   1.942   6.651
12713TIP3    H238017   8.036   2.014   6.715
12714TIP3   OH238018   8.014   1.727   7.217
12714TIP3    H138019   7.941   1.738   7.278
12714TIP3    H238020   8.063   1.809   7.222
12715TIP3   OH238021   7.830   1.271   5.824
12715TIP3    H138022   7.893   1.339   5.798
12715TIP3    H238023   7.870   1.230   5.901
12716TIP3   OH238024   7.947   1.139   6.034
12716TIP3    H138025   7.887   1.086   6.086
12716TIP3    H238026   8.009   1.175   6.097
12717TIP3   OH238027   8.008   1.528   6.468
12717TIP3    H138028   8.061   1.463   6.422
12717TIP3    H238029   8.011   1.606   6.412
12718TIP3   OH238030   7.824   1.785   6.662
12718TIP3    H138031   7.755   1.834   6.709
12718TIP3    H238032   7.778   1.744   6.589
12719TIP3   OH238033   7.873   1.074   5.641
12719TIP3    H138034   7.804   1.077   5.575
12719TIP3    H238035   7.856   1.148   5.699
12720TIP3   OH238036   7.830   0.702   5.538
12720TIP3    H138037   7.744   0.741   5.522
12720TIP3    H238038   7.820   0.657   5.622
12721TIP3   OH238039   7.764   0.951   6.141
12721TIP3    H138040   7.749   0.862   6.109
12721TIP3    H238041   7.770   0.942   6.236
12722TIP3   OH238042   6.371   1.048   6.936
12722TIP3    H138043   6.367   1.031   6.842
12722TIP3    H238044   6.464   1.059   6.955
12723TIP3   OH238045   8.018   1.399   7.012
12723TIP3    H138046   8.094   1.356   6.973
12723TIP3    H238047   7.986   1.459   6.944
12724TIP3   OH238048   8.255   1.230   7.041
12724TIP3    H138049   8.175   1.189   7.073
12724TIP3    H238050   8.297   1.267   7.119
12725TIP3   OH238051   7.682   0.690   6.034
12725TIP3    H138052   7.711   0.607   6.071
12725TIP3    H238053   7.716   0.691   5.945
12726TIP3   OH238054   7.991   0.840   6.611
12726TIP3    H138055   8.015   0.910   6.551
12726TIP3    H238056   8.028   0.866   6.695
12727TIP3   OH238057   8.087   1.025   6.801
12727TIP3    H138058   8.061   1.056   6.887
12727TIP3    H238059   8.081   1.103   6.745
12728TIP3   OH238060   6.326   0.772   6.964
12728TIP3    H138061   6.390   0.765   6.893
12728TIP3    H238062   6.310   0.866   6.972
12729TIP3   OH238063   7.507   1.906   6.012
12729TIP3    H138064   7.564   1.896   5.936
12729TIP3    H238065   7.547   1.975   6.064
12730TIP3   OH238066   6.593   1.701   7.378
12730TIP3    H138067   6.500   1.680   7.368
12730TIP3    H238068   6.610   1.691   7.471
12731TIP3   OH238069   6.818   1.741   6.942
12731TIP3    H138070   6.767   1.816   6.912
12731TIP3    H238071   6.903   1.752   6.898
12732TIP3   OH238072   7.221   1.977   7.084
12732TIP3    H138073   7.261   1.967   7.171
12732TIP3    H238074   7.283   2.031   7.036
12733TIP3   OH238075   7.411   2.131   6.954
12733TIP3    H138076   7.476   2.075   6.911
12733TIP3    H238077   7.463   2.190   7.009
12734TIP3   OH238078   6.477   1.978   6.993
12734TIP3    H138079   6.387   1.996   6.969
12734TIP3    H238080   6.498   2.045   7.059
12735TIP3   OH238081   6.708   1.974   6.842
12735TIP3    H138082   6.625   1.978   6.890
12735TIP3    H238083   6.685   1.999   6.752
12736TIP3   OH238084   7.118   1.996   6.633
12736TIP3    H138085   7.045   2.008   6.572
12736TIP3    H238086   7.129   2.081   6.675
12737TIP3   OH238087   7.382   1.927   6.671
12737TIP3    H138088   7.290   1.951   6.655
12737TIP3    H238089   7.432   1.997   6.629
12738TIP3   OH238090   7.583   2.098   6.578
12738TIP3    H138091   7.587   2.186   6.541
12738TIP3    H238092   7.615   2.041   6.508
12739TIP3   OH238093   6.387   1.765   6.704
12739TIP3    H138094   6.410   1.742   6.794
12739TIP3    H238095   6.460   1.733   6.651
12740TIP3   OH238096   6.592   1.655   6.564
12740TIP3    H138097   6.601   1.572   6.610
12740TIP3    H238098   6.678   1.695   6.569
12741TIP3   OH238099   6.860   1.734   6.592
12741TIP3    H138100   6.876   1.640   6.579
12741TIP3    H238101   6.915   1.758   6.666
12742TIP3   OH238102   6.146   1.564   6.093
12742TIP3    H138103   6.063   1.533   6.058
12742TIP3    H238104   6.154   1.654   6.060
12743TIP3   OH238105   6.957   1.719   5.685
12743TIP3    H138106   7.040   1.748   5.649
12743TIP3    H238107   6.929   1.648   5.628
12744TIP3   OH238108   7.659   1.858   5.784
12744TIP3    H138109   7.651   1.763   5.777
12744TIP3    H238110   7.615   1.891   5.705
12745TIP3   OH238111   6.256   1.555   5.743
12745TIP3    H138112   6.259   1.571   5.837
12745TIP3    H238113   6.339   1.511   5.724
12746TIP3   OH238114   7.873   1.997   6.969
12746TIP3    H138115   7.797   1.968   6.918
12746TIP3    H238116   7.860   2.092   6.979
12747TIP3   OH238117   9.158   1.365   5.730
12747TIP3    H138118   9.133   1.457   5.719
12747TIP3    H238119   9.091   1.316   5.682
12748TIP3   OH238120   9.097   1.367   6.112
12748TIP3    H138121   9.154   1.344   6.186
12748TIP3    H238122   9.044   1.288   6.098
12749TIP3   OH238123   8.431   1.301   6.471
12749TIP3    H138124   8.472   1.250   6.541
12749TIP3    H238125   8.504   1.333   6.419
12750TIP3   OH238126   9.398   1.667   5.819
12750TIP3    H138127   9.378   1.607   5.892
12750TIP3    H238128   9.424   1.749   5.862
12751TIP3   OH238129   8.432   1.673   6.170
12751TIP3    H138130   8.410   1.580   6.172
12751TIP3    H238131   8.527   1.674   6.163
12752TIP3   OH238132   8.127   0.941   5.965
12752TIP3    H138133   8.079   1.022   5.982
12752TIP3    H238134   8.060   0.875   5.951
12753TIP3   OH238135   8.191   1.216   6.155
12753TIP3    H138136   8.241   1.139   6.183
12753TIP3    H238137   8.258   1.280   6.130
12754TIP3   OH238138   9.088   2.090   5.836
12754TIP3    H138139   9.110   2.024   5.769
12754TIP3    H238140   9.102   2.044   5.919
12755TIP3   OH238141   8.947   1.602   6.146
12755TIP3    H138142   8.984   1.518   6.117
12755TIP3    H238143   9.023   1.656   6.164
12756TIP3   OH238144   9.481   1.171   6.139
12756TIP3    H138145   9.476   1.083   6.175
12756TIP3    H238146   9.420   1.171   6.065
12757TIP3   OH238147   8.302   0.998   6.284
12757TIP3    H138148   8.395   0.976   6.276
12757TIP3    H238149   8.256   0.918   6.260
12758TIP3   OH238150   8.741   1.242   6.084
12758TIP3    H138151   8.826   1.201   6.098
12758TIP3    H238152   8.680   1.169   6.074
12759TIP3   OH238153   9.051   1.599   5.585
12759TIP3    H138154   9.013   1.565   5.504
12759TIP3    H238155   8.995   1.673   5.609
12760TIP3   OH238156   8.830   1.544   6.390
12760TIP3    H138157   8.764   1.609   6.414
12760TIP3    H238158   8.865   1.575   6.306
12761TIP3   OH238159   8.559   0.912   6.297
12761TIP3    H138160   8.603   0.981   6.346
12761TIP3    H238161   8.625   0.878   6.237
12762TIP3   OH238162   8.638   1.725   6.461
12762TIP3    H138163   8.626   1.815   6.428
12762TIP3    H238164   8.559   1.708   6.513
12763TIP3   OH238165   8.014   1.445   5.713
12763TIP3    H138166   7.982   1.464   5.625
12763TIP3    H238167   8.038   1.530   5.749
12764TIP3   OH238168   9.435   1.909   5.952
12764TIP3    H138169   9.345   1.911   5.984
12764TIP3    H238170   9.450   1.997   5.917
12765TIP3   OH238171   9.171   1.949   5.603
12765TIP3    H138172   9.229   1.873   5.594
12765TIP3    H238173   9.227   2.024   5.584
12766TIP3   OH238174   9.304   1.702   5.566
12766TIP3    H138175   9.216   1.665   5.578
12766TIP3    H238176   9.347   1.687   5.650
12767TIP3   OH238177   8.995   1.232   5.551
12767TIP3    H138178   8.906   1.265   5.543
12767TIP3    H238179   9.028   1.229   5.461
12768TIP3   OH238180   8.932   1.037   5.245
12768TIP3    H138181   9.001   1.051   5.310
12768TIP3    H238182   8.954   0.953   5.204
12769TIP3   OH238183   9.333   1.295   5.525
12769TIP3    H138184   9.281   1.321   5.601
12769TIP3    H238185   9.414   1.260   5.561
12770TIP3   OH238186   9.526   1.356   6.447
12770TIP3    H138187   9.561   1.410   6.517
12770TIP3    H238188   9.504   1.417   6.377
12771TIP3   OH238189   8.548   1.343   5.911
12771TIP3    H138190   8.514   1.273   5.855
12771TIP3    H238191   8.622   1.303   5.957
12772TIP3   OH238192   8.695   1.711   6.079
12772TIP3    H138193   8.678   1.700   5.985
12772TIP3    H238194   8.783   1.674   6.091
12773TIP3   OH238195   8.646   1.356   6.309
12773TIP3    H138196   8.686   1.328   6.227
12773TIP3    H238197   8.708   1.420   6.345
12774TIP3   OH238198   9.183   1.927   6.055
12774TIP3    H138199   9.175   2.002   6.115
12774TIP3    H238200   9.179   1.851   6.112
12775TIP3   OH238201   8.835   1.817   6.632
12775TIP3    H138202   8.777   1.878   6.678
12775TIP3    H238203   8.778   1.767   6.575
12776TIP3   OH238204   9.179   1.149   5.347
12776TIP3    H138205   9.236   1.193   5.410
12776TIP3    H238206   9.198   1.192   5.263
12777TIP3   OH238207   8.565   1.411   6.766
12777TIP3    H138208   8.573   1.501   6.798
12777TIP3    H238209   8.472   1.391   6.774
12778TIP3   OH238210   8.915   1.840   5.613
12778TIP3    H138211   8.997   1.889   5.620
12778TIP3    H238212   8.854   1.901   5.571
12779TIP3   OH238213   8.628   1.983   6.710
12779TIP3    H138214   8.603   1.992   6.619
12779TIP3    H238215   8.546   1.967   6.756
12780TIP3   OH238216   8.438   1.167   5.727
12780TIP3    H138217   8.363   1.218   5.695
12780TIP3    H238218   8.402   1.081   5.748
12781TIP3   OH238219   8.216   1.556   6.662
12781TIP3    H138220   8.147   1.542   6.598
12781TIP3    H238221   8.249   1.468   6.682
12782TIP3   OH238222   8.064   1.750   6.314
12782TIP3    H138223   8.155   1.770   6.332
12782TIP3    H238224   8.016   1.828   6.340
12783TIP3   OH238225   9.021   1.962   6.490
12783TIP3    H138226   9.010   2.052   6.520
12783TIP3    H238227   8.957   1.912   6.540
12784TIP3   OH238228   8.800   2.061   5.449
12784TIP3    H138229   8.753   2.043   5.367
12784TIP3    H238230   8.764   2.145   5.479
12785TIP3   OH238231   8.239   1.924   5.820
12785TIP3    H138232   8.286   1.918   5.904
12785TIP3    H238233   8.192   1.842   5.813
12786TIP3   OH238234   9.012   1.990   5.075
12786TIP3    H138235   9.061   1.913   5.046
12786TIP3    H238236   9.041   2.004   5.166
12787TIP3   OH238237   9.053   2.029   5.350
12787TIP3    H138238   8.965   2.035   5.387
12787TIP3    H238239   9.107   1.995   5.421
12788TIP3   OH238240   8.420   1.739   6.630
12788TIP3    H138241   8.468   1.733   6.713
12788TIP3    H238242   8.348   1.676   6.639
12789TIP3   OH238243   9.241   1.263   5.106
12789TIP3    H138244   9.200   1.243   5.022
12789TIP3    H238245   9.250   1.359   5.107
12790TIP3   OH238246   8.695   1.107   6.426
12790TIP3    H138247   8.660   1.114   6.514
12790TIP3    H238248   8.683   1.193   6.387
12791TIP3   OH238249   8.561   1.056   6.021
12791TIP3    H138250   8.498   0.984   6.032
12791TIP3    H238251   8.604   1.038   5.937
12792TIP3   OH238252   9.184   1.051   5.673
12792TIP3    H138253   9.130   1.096   5.609
12792TIP3    H238254   9.227   0.981   5.623
12793TIP3   OH238255   9.355   1.363   6.768
12793TIP3    H138256   9.326   1.320   6.848
12793TIP3    H238257   9.421   1.304   6.731
12794TIP3   OH238258   9.286   1.151   5.938
12794TIP3    H138259   9.248   1.215   5.878
12794TIP3    H238260   9.321   1.083   5.881
12795TIP3   OH238261   8.569   1.156   6.663
12795TIP3    H138262   8.576   1.235   6.717
12795TIP3    H238263   8.519   1.094   6.716
12796TIP3   OH238264   9.257   1.264   6.307
12796TIP3    H138265   9.352   1.259   6.296
12796TIP3    H238266   9.243   1.252   6.401
12797TIP3   OH238267   8.384   0.843   6.030
12797TIP3    H138268   8.308   0.900   6.015
12797TIP3    H238269   8.350   0.754   6.021
12798TIP3   OH238270   8.643   0.772   5.678
12798TIP3    H138271   8.731   0.807   5.670
12798TIP3    H238272   8.589   0.829   5.623
12799TIP3   OH238273   8.450   0.906   5.521
12799TIP3    H138274   8.395   0.920   5.598
12799TIP3    H238275   8.392   0.922   5.447
12800TIP3   OH238276   9.610   2.504   6.434
12800TIP3    H138277   9.586   2.519   6.343
12800TIP3    H238278   9.699   2.538   6.441
12801TIP3   OH238279   8.573   1.664   6.872
12801TIP3    H138280   8.655   1.672   6.920
12801TIP3    H238281   8.505   1.670   6.940
12802TIP3   OH238282   8.973   1.113   6.133
12802TIP3    H138283   8.990   1.030   6.088
12802TIP3    H238284   8.977   1.091   6.226
12803TIP3   OH238285   8.992   1.018   6.388
12803TIP3    H138286   8.913   0.967   6.403
12803TIP3    H238287   9.051   0.995   6.460
12804TIP3   OH238288   8.748   1.351   5.507
12804TIP3    H138289   8.668   1.304   5.482
12804TIP3    H238290   8.723   1.403   5.583
12805TIP3   OH238291   9.208   1.738   6.488
12805TIP3    H138292   9.164   1.659   6.520
12805TIP3    H238293   9.149   1.810   6.509
12806TIP3   OH238294   8.411   1.391   6.146
12806TIP3    H138295   8.451   1.381   6.059
12806TIP3    H238296   8.482   1.371   6.207
12807TIP3   OH238297   8.902   1.520   5.359
12807TIP3    H138298   8.853   1.603   5.355
12807TIP3    H238299   8.845   1.461   5.408
12808TIP3   OH238300   8.306   1.321   6.789
12808TIP3    H138301   8.306   1.291   6.880
12808TIP3    H238302   8.238   1.267   6.747
12809TIP3   OH238303   9.069   1.467   6.842
12809TIP3    H138304   8.985   1.429   6.817
12809TIP3    H238305   9.121   1.467   6.761
12810TIP3   OH238306   9.286   2.023   6.411
12810TIP3    H138307   9.194   1.997   6.414
12810TIP3    H238308   9.308   2.041   6.503
12811TIP3   OH238309   9.398   1.817   5.226
12811TIP3    H138310   9.406   1.747   5.291
12811TIP3    H238311   9.334   1.784   5.163
12812TIP3   OH238312   9.338   1.498   6.040
12812TIP3    H138313   9.250   1.461   6.042
12812TIP3    H238314   9.397   1.423   6.049
12813TIP3   OH238315   8.565   1.729   5.829
12813TIP3    H138316   8.554   1.805   5.772
12813TIP3    H238317   8.477   1.712   5.862
12814TIP3   OH238318   8.120   1.039   5.539
12814TIP3    H138319   8.173   1.115   5.563
12814TIP3    H238320   8.036   1.054   5.581
12815TIP3   OH238321   8.650   1.498   5.709
12815TIP3    H138322   8.642   1.588   5.742
12815TIP3    H238323   8.616   1.443   5.779
12816TIP3   OH238324   8.843   2.041   6.279
12816TIP3    H138325   8.876   2.116   6.230
12816TIP3    H238326   8.919   2.009   6.328
12817TIP3   OH238327   8.471   1.941   5.674
12817TIP3    H138328   8.385   1.947   5.714
12817TIP3    H238329   8.506   2.030   5.681
12818TIP3   OH238330   9.197   1.701   6.213
12818TIP3    H138331   9.214   1.715   6.307
12818TIP3    H238332   9.273   1.652   6.181
12819TIP3   OH238333   9.196   1.539   5.118
12819TIP3    H138334   9.233   1.537   5.206
12819TIP3    H238335   9.103   1.522   5.131
12820TIP3   OH238336   9.477   2.161   6.281
12820TIP3    H138337   9.404   2.111   6.318
12820TIP3    H238338   9.437   2.214   6.212
12821TIP3   OH238339   9.324   1.523   5.358
12821TIP3    H138340   9.336   1.439   5.402
12821TIP3    H238341   9.324   1.587   5.429
12822TIP3   OH238342   8.270   1.936   6.442
12822TIP3    H138343   8.324   1.879   6.496
12822TIP3    H238344   8.283   2.023   6.479
12823TIP3   OH238345   8.535   1.570   5.150
12823TIP3    H138346   8.547   1.480   5.120
12823TIP3    H238347   8.524   1.563   5.244
12824TIP3   OH238348   8.480   1.567   5.423
12824TIP3    H138349   8.536   1.539   5.495
12824TIP3    H238350   8.482   1.662   5.426
12825TIP3   OH238351   8.218   1.286   5.618
12825TIP3    H138352   8.151   1.330   5.670
12825TIP3    H238353   8.233   1.343   5.543
12826TIP3   OH238354   8.753   1.746   5.342
12826TIP3    H138355   8.669   1.770   5.382
12826TIP3    H238356   8.776   1.822   5.288
12827TIP3   OH238357   8.934   0.780   5.743
12827TIP3    H138358   8.947   0.862   5.791
12827TIP3    H238359   8.973   0.713   5.799
12828TIP3   OH238360   9.214   1.229   6.573
12828TIP3    H138361   9.246   1.294   6.635
12828TIP3    H238362   9.275   1.156   6.581
12829TIP3   OH238363   8.505   1.837   5.425
12829TIP3    H138364   8.484   1.908   5.363
12829TIP3    H238365   8.493   1.876   5.511
12830TIP3   OH238366   8.229   1.452   5.394
12830TIP3    H138367   8.304   1.510   5.407
12830TIP3    H238368   8.260   1.387   5.331
12831TIP3   OH238369   8.102   0.760   5.555
12831TIP3    H138370   8.119   0.854   5.563
12831TIP3    H238371   8.007   0.753   5.552
12832TIP3   OH238372   9.469   2.167   5.861
12832TIP3    H138373   9.420   2.226   5.803
12832TIP3    H238374   9.560   2.176   5.833
12833TIP3   OH238375   8.066   1.704   5.800
12833TIP3    H138376   8.025   1.742   5.879
12833TIP3    H238377   8.021   1.748   5.727
12834TIP3   OH238378   8.266   2.233   6.862
12834TIP3    H138379   8.349   2.235   6.910
12834TIP3    H238380   8.246   2.140   6.854
12835TIP3   OH238381   8.730   2.146   6.906
12835TIP3    H138382   8.822   2.120   6.916
12835TIP3    H238383   8.697   2.093   6.834
12836TIP3   OH238384   8.692   1.758   5.024
12836TIP3    H138385   8.645   1.691   5.074
12836TIP3    H238386   8.765   1.711   4.984
12837TIP3   OH238387   9.348   2.096   6.668
12837TIP3    H138388   9.358   2.023   6.729
12837TIP3    H238389   9.426   2.149   6.682
12838TIP3   OH238390   9.144   1.770   4.982
12838TIP3    H138391   9.175   1.685   5.014
12838TIP3    H238392   9.173   1.773   4.891
12839TIP3   OH238393   8.372   1.647   7.062
12839TIP3    H138394   8.396   1.555   7.070
12839TIP3    H238395   8.286   1.645   7.018
12840TIP3   OH238396   8.351   1.258   5.246
12840TIP3    H138397   8.399   1.234   5.325
12840TIP3    H238398   8.420   1.279   5.182
12841TIP3   OH238399   8.990   1.738   6.847
12841TIP3    H138400   8.947   1.748   6.762
12841TIP3    H238401   9.037   1.655   6.839
12842TIP3   OH238402   8.923   1.472   5.091
12842TIP3    H138403   8.902   1.482   5.183
12842TIP3    H238404   8.900   1.381   5.070
12843TIP3   OH238405   9.478   1.719   6.419
12843TIP3    H138406   9.502   1.782   6.351
12843TIP3    H238407   9.390   1.746   6.447
12844TIP3   OH238408   8.501   1.402   7.082
12844TIP3    H138409   8.581   1.365   7.046
12844TIP3    H238410   8.523   1.425   7.172
12845TIP3   OH238411   8.519   1.202   5.459
12845TIP3    H138412   8.503   1.173   5.549
12845TIP3    H238413   8.561   1.127   5.417
12846TIP3   OH238414   8.834   1.354   6.768
12846TIP3    H138415   8.742   1.380   6.761
12846TIP3    H238416   8.858   1.325   6.680
12847TIP3   OH238417   8.661   1.034   5.288
12847TIP3    H138418   8.622   1.026   5.201
12847TIP3    H238419   8.754   1.045   5.272
12848TIP3   OH238420   9.331   1.641   6.842
12848TIP3    H138421   9.351   1.569   6.782
12848TIP3    H238422   9.338   1.603   6.929
12849TIP3   OH238423   8.850   1.019   6.725
12849TIP3    H138424   8.930   0.983   6.687
12849TIP3    H238425   8.841   1.105   6.683
12850TIP3   OH238426   9.072   1.503   6.527
12850TIP3    H138427   9.112   1.435   6.473
12850TIP3    H238428   8.982   1.510   6.495
12851TIP3   OH238429   9.631   1.576   6.590
12851TIP3    H138430   9.568   1.629   6.540
12851TIP3    H238431   9.717   1.606   6.560
12852TIP3   OH238432   8.759   1.291   7.075
12852TIP3    H138433   8.749   1.200   7.100
12852TIP3    H238434   8.815   1.288   6.997
12853TIP3   OH238435   9.289   1.212   6.994
12853TIP3    H138436   9.228   1.264   7.045
12853TIP3    H238437   9.320   1.144   7.054
12854TIP3   OH238438   8.496   2.044   5.241
12854TIP3    H138439   8.586   2.026   5.214
12854TIP3    H238440   8.457   2.088   5.165
12855TIP3   OH238441   7.959   1.438   5.428
12855TIP3    H138442   8.054   1.453   5.418
12855TIP3    H238443   7.944   1.353   5.388
12856TIP3   OH238444   7.866   2.009   5.881
12856TIP3    H138445   7.801   1.956   5.835
12856TIP3    H238446   7.910   1.948   5.940
12857TIP3   OH238447   8.012   1.843   6.047
12857TIP3    H138448   8.004   1.777   6.115
12857TIP3    H238449   8.064   1.912   6.087
12858TIP3   OH238450   9.540   1.894   6.215
12858TIP3    H138451   9.541   1.987   6.238
12858TIP3    H238452   9.520   1.892   6.122
12859TIP3   OH238453   8.174   1.325   6.403
12859TIP3    H138454   8.169   1.297   6.312
12859TIP3    H238455   8.267   1.324   6.424
12860TIP3   OH238456   8.073   1.043   6.446
12860TIP3    H138457   8.149   1.064   6.392
12860TIP3    H238458   8.062   1.120   6.503
12861TIP3   OH238459   9.303   2.166   5.506
12861TIP3    H138460   9.353   2.132   5.431
12861TIP3    H238461   9.341   2.252   5.522
12862TIP3   OH238462   8.405   1.955   6.875
12862TIP3    H138463   8.310   1.940   6.871
12862TIP3    H238464   8.426   1.948   6.968
12863TIP3   OH238465   8.615   2.000   6.427
12863TIP3    H138466   8.563   2.075   6.396
12863TIP3    H238467   8.700   2.010   6.385
12864TIP3   OH238468   9.001   2.227   6.569
12864TIP3    H138469   9.040   2.225   6.657
12864TIP3    H238470   9.063   2.278   6.517
12865TIP3   OH238471   9.193   2.374   6.437
12865TIP3    H138472   9.248   2.313   6.387
12865TIP3    H238473   9.255   2.422   6.492
12866TIP3   OH238474   8.271   2.234   6.479
12866TIP3    H138475   8.179   2.252   6.456
12866TIP3    H238476   8.293   2.301   6.543
12867TIP3   OH238477   8.500   2.229   6.326
12867TIP3    H138478   8.418   2.233   6.374
12867TIP3    H238479   8.478   2.255   6.237
12868TIP3   OH238480   8.902   2.259   6.116
12868TIP3    H138481   8.828   2.272   6.056
12868TIP3    H238482   8.914   2.345   6.158
12869TIP3   OH238483   9.151   2.168   6.176
12869TIP3    H138484   9.068   2.205   6.146
12869TIP3    H238485   9.218   2.226   6.139
12870TIP3   OH238486   9.365   2.308   6.079
12870TIP3    H138487   9.358   2.399   6.052
12870TIP3    H238488   9.399   2.263   6.001
12871TIP3   OH238489   8.185   2.023   6.190
12871TIP3    H138490   8.208   1.999   6.280
12871TIP3    H238491   8.258   1.991   6.137
12872TIP3   OH238492   8.389   1.912   6.051
12872TIP3    H138493   8.397   1.828   6.096
12872TIP3    H238494   8.476   1.951   6.056
12873TIP3   OH238495   8.656   1.991   6.078
12873TIP3    H138496   8.673   1.897   6.066
12873TIP3    H238497   8.712   2.016   6.151
12874TIP3   OH238498   7.947   1.820   5.582
12874TIP3    H138499   7.863   1.786   5.552
12874TIP3    H238500   7.952   1.909   5.547
12875TIP3   OH238501   8.754   1.975   5.174
12875TIP3    H138502   8.838   2.001   5.138
12875TIP3    H238503   8.722   1.907   5.115
12876TIP3   OH238504   9.456   2.080   5.291
12876TIP3    H138505   9.442   1.987   5.272
12876TIP3    H238506   9.417   2.126   5.217
12877TIP3   OH238507   8.056   1.812   5.230
12877TIP3    H138508   8.060   1.825   5.324
12877TIP3    H238509   8.138   1.767   5.209
12878TIP3   OH238510   9.630   2.235   6.499
12878TIP3    H138511   9.590   2.193   6.423
12878TIP3    H238512   9.633   2.328   6.477
12879TIP3   OH238513   1.599   2.159   7.415
12879TIP3    H138514   1.572   2.248   7.394
12879TIP3    H238515   1.532   2.104   7.374
12880TIP3   OH238516   1.591   2.188   7.770
12880TIP3    H138517   1.654   2.153   7.833
12880TIP3    H238518   1.569   2.114   7.714
12881TIP3   OH238519   4.287   6.715   0.011
12881TIP3    H138520   4.226   6.738   0.082
12881TIP3    H238521   4.353   6.784   0.012
12882TIP3   OH238522   1.878   2.472   7.490
12882TIP3    H138523   1.871   2.406   7.559
12882TIP3    H238524   1.892   2.554   7.536
12883TIP3   OH238525   0.874   2.477   7.884
12883TIP3    H138526   0.850   2.386   7.864
12883TIP3    H238527   0.967   2.482   7.863
12884TIP3   OH238528   1.541   2.886   7.512
12884TIP3    H138529   1.557   2.827   7.438
12884TIP3    H238530   1.557   2.832   7.589
12885TIP3   OH238531   1.396   2.382   7.816
12885TIP3    H138532   1.449   2.314   7.774
12885TIP3    H238533   1.459   2.452   7.836
12886TIP3   OH238534   2.448   1.711   7.795
12886TIP3    H138535   2.454   1.800   7.831
12886TIP3    H238536   2.487   1.718   7.707
12887TIP3   OH238537   1.789   1.837   7.864
12887TIP3    H138538   1.838   1.758   7.888
12887TIP3    H238539   1.778   1.830   7.769
12888TIP3   OH238540   1.868   1.638   7.446
12888TIP3    H138541   1.933   1.614   7.511
12888TIP3    H238542   1.919   1.671   7.372
12889TIP3   OH238543   1.246   1.889   7.776
12889TIP3    H138544   1.282   1.907   7.689
12889TIP3    H238545   1.178   1.823   7.761
12890TIP3   OH238546   2.473   1.959   7.916
12890TIP3    H138547   2.382   1.988   7.917
12890TIP3    H238548   2.491   1.929   8.005
12891TIP3   OH238549   1.476   2.372   7.292
12891TIP3    H138550   1.449   2.355   7.202
12891TIP3    H238551   1.435   2.456   7.314
12892TIP3   OH238552   1.215   2.293   8.004
12892TIP3    H138553   1.159   2.369   8.023
12892TIP3    H238554   1.270   2.321   7.931
12893TIP3   OH238555   2.038   1.614   7.653
12893TIP3    H138556   1.998   1.597   7.739
12893TIP3    H238557   2.088   1.695   7.665
12894TIP3   OH238558   4.335   7.124   0.105
12894TIP3    H138559   4.337   7.207   0.058
12894TIP3    H238560   4.250   7.123   0.149
12895TIP3   OH238561   0.513   2.218   7.432
12895TIP3    H138562   0.462   2.217   7.352
12895TIP3    H238563   0.515   2.310   7.459
12896TIP3   OH238564   1.894   2.716   7.636
12896TIP3    H138565   1.801   2.714   7.662
12896TIP3    H238566   1.904   2.798   7.588
12897TIP3   OH238567   2.214   1.660   7.934
12897TIP3    H138568   2.135   1.664   7.880
12897TIP3    H238569   2.286   1.666   7.872
12898TIP3   OH238570   1.611   2.743   7.283
12898TIP3    H138571   1.663   2.663   7.272
12898TIP3    H238572   1.672   2.814   7.261
12899TIP3   OH238573   1.769   2.527   7.240
12899TIP3    H138574   1.772   2.450   7.184
12899TIP3    H238575   1.809   2.499   7.323
12900TIP3   OH238576   2.145   2.607   7.975
12900TIP3    H138577   2.141   2.539   7.907
12900TIP3    H238578   2.125   2.688   7.929
12901TIP3   OH238579   1.429   2.015   7.248
12901TIP3    H138580   1.346   2.062   7.235
12901TIP3    H238581   1.471   2.016   7.162
12902TIP3   OH238582   1.400   1.810   6.941
12902TIP3    H138583   1.463   1.861   6.991
12902TIP3    H238584   1.453   1.746   6.894
12903TIP3   OH238585   2.330   2.275   7.833
12903TIP3    H138586   2.248   2.326   7.832
12903TIP3    H238587   2.365   2.287   7.745
12904TIP3   OH238588   1.783   2.099   7.215
12904TIP3    H138589   1.729   2.125   7.290
12904TIP3    H238590   1.867   2.075   7.253
12905TIP3   OH238591   5.271   6.780   0.029
12905TIP3    H138592   5.284   6.871   0.055
12905TIP3    H238593   5.184   6.778  -0.011
12906TIP3   OH238594   1.024   2.081   7.633
12906TIP3    H138595   0.992   2.027   7.561
12906TIP3    H238596   1.070   2.019   7.690
12907TIP3   OH238597   1.129   2.480   7.773
12907TIP3    H138598   1.100   2.478   7.682
12907TIP3    H238599   1.222   2.455   7.769
12908TIP3   OH238600   1.634   2.727   7.730
12908TIP3    H138601   1.638   2.799   7.792
12908TIP3    H238602   1.620   2.649   7.784
12909TIP3   OH238603   4.579   7.174   0.251
12909TIP3    H138604   4.512   7.226   0.295
12909TIP3    H238605   4.533   7.132   0.179
12910TIP3   OH238606   1.620   1.955   7.043
12910TIP3    H138607   1.677   2.015   7.091
12910TIP3    H238608   1.649   1.961   6.952
12911TIP3   OH238609   4.302   6.678   0.308
12911TIP3    H138610   4.316   6.773   0.309
12911TIP3    H238611   4.213   6.668   0.275
12912TIP3   OH238612   1.361   2.627   7.313
12912TIP3    H138613   1.445   2.674   7.307
12912TIP3    H238614   1.304   2.674   7.253
12913TIP3   OH238615   4.373   7.331   0.333
12913TIP3    H138616   4.325   7.353   0.254
12913TIP3    H238617   4.306   7.328   0.402
12914TIP3   OH238618   2.129   1.185   7.103
12914TIP3    H138619   2.055   1.208   7.159
12914TIP3    H238620   2.141   1.261   7.046
12915TIP3   OH238621   0.929   1.931   7.423
12915TIP3    H138622   0.849   1.974   7.392
12915TIP3    H238623   0.906   1.838   7.426
12916TIP3   OH238624   1.957   2.562   6.657
12916TIP3    H138625   1.951   2.655   6.635
12916TIP3    H238626   2.047   2.538   6.635
12917TIP3   OH238627   0.493   2.484   7.929
12917TIP3    H138628   0.559   2.416   7.915
12917TIP3    H238629   0.537   2.549   7.983
12918TIP3   OH238630   5.650   7.623   0.003
12918TIP3    H138631   5.657   7.528   0.008
12918TIP3    H238632   5.578   7.644   0.062
12919TIP3   OH238633   4.811   7.293   0.156
12919TIP3    H138634   4.815   7.388   0.153
12919TIP3    H238635   4.721   7.273   0.181
12920TIP3   OH238636   1.253   2.850   7.126
12920TIP3    H138637   1.211   2.828   7.043
12920TIP3    H238638   1.214   2.934   7.150
12921TIP3   OH238639   0.695   2.691   7.501
12921TIP3    H138640   0.733   2.688   7.589
12921TIP3    H238641   0.641   2.613   7.496
12922TIP3   OH238642   1.455   2.785   6.760
12922TIP3    H138643   1.506   2.711   6.726
12922TIP3    H238644   1.488   2.797   6.849
12923TIP3   OH238645   1.509   2.828   7.029
12923TIP3    H138646   1.420   2.832   7.065
12923TIP3    H238647   1.561   2.789   7.099
12924TIP3   OH238648   5.557   6.752   0.147
12924TIP3    H138649   5.481   6.806   0.125
12924TIP3    H238650   5.538   6.667   0.109
12925TIP3   OH238651   4.126   7.138   0.287
12925TIP3    H138652   4.165   7.178   0.365
12925TIP3    H238653   4.048   7.094   0.319
12926TIP3   OH238654   4.954   5.993   0.346
12926TIP3    H138655   4.979   5.922   0.406
12926TIP3    H238656   4.911   6.057   0.403
12927TIP3   OH238657   5.229   6.545   0.173
12927TIP3    H138658   5.246   6.582   0.259
12927TIP3    H238659   5.244   6.618   0.112
12928TIP3   OH238660   1.702   1.933   6.782
12928TIP3    H138661   1.652   1.943   6.701
12928TIP3    H238662   1.784   1.978   6.765
12929TIP3   OH238663   1.374   1.352   7.085
12929TIP3    H138664   1.344   1.368   7.174
12929TIP3    H238665   1.404   1.261   7.086
12930TIP3   OH238666   1.066   1.709   7.687
12930TIP3    H138667   1.021   1.631   7.718
12930TIP3    H238668   1.073   1.697   7.592
12931TIP3   OH238669   1.561   1.815   7.380
12931TIP3    H138670   1.511   1.884   7.337
12931TIP3    H238671   1.617   1.779   7.311
12932TIP3   OH238672   5.047   6.713   0.483
12932TIP3    H138673   5.030   6.656   0.558
12932TIP3    H238674   5.142   6.713   0.473
12933TIP3   OH238675   1.734   1.824   7.595
12933TIP3    H138676   1.667   1.848   7.530
12933TIP3    H238677   1.778   1.748   7.557
12934TIP3   OH238678   1.751   2.085   7.961
12934TIP3    H138679   1.772   1.995   7.939
12934TIP3    H238680   1.722   2.083   8.052
12935TIP3   OH238681   1.449   1.563   7.707
12935TIP3    H138682   1.389   1.541   7.778
12935TIP3    H238683   1.536   1.543   7.741
12936TIP3   OH238684   1.091   1.656   7.422
12936TIP3    H138685   1.185   1.646   7.413
12936TIP3    H238686   1.056   1.637   7.335
12937TIP3   OH238687   1.909   1.594   7.899
12937TIP3    H138688   1.892   1.590   7.993
12937TIP3    H238689   1.837   1.546   7.859
12938TIP3   OH238690   0.986   1.626   7.170
12938TIP3    H138691   0.910   1.593   7.124
12938TIP3    H238692   1.039   1.670   7.103
12939TIP3   OH238693   5.351   7.946   0.122
12939TIP3    H138694   5.343   7.966   0.029
12939TIP3    H238695   5.429   7.993   0.150
12940TIP3   OH238696   4.160   7.067   0.693
12940TIP3    H138697   4.251   7.065   0.663
12940TIP3    H238698   4.160   7.133   0.763
12941TIP3   OH238699   1.526   1.894   7.804
12941TIP3    H138700   1.538   1.844   7.723
12941TIP3    H238701   1.606   1.877   7.854
12942TIP3   OH238702   4.725   6.367   0.036
12942TIP3    H138703   4.708   6.357   0.130
12942TIP3    H238704   4.775   6.289   0.012
12943TIP3   OH238705   1.191   2.154   7.200
12943TIP3    H138706   1.118   2.097   7.177
12943TIP3    H238707   1.167   2.191   7.285
12944TIP3   OH238708   2.091   2.408   7.794
12944TIP3    H138709   2.126   2.456   7.719
12944TIP3    H238710   2.012   2.366   7.761
12945TIP3   OH238711   1.635   1.468   7.102
12945TIP3    H138712   1.540   1.459   7.094
12945TIP3    H238713   1.649   1.562   7.111
12946TIP3   OH238714   4.856   7.013   0.163
12946TIP3    H138715   4.929   7.024   0.223
12946TIP3    H238716   4.816   7.100   0.158
12947TIP3   OH238717   1.721   1.726   7.166
12947TIP3    H138718   1.816   1.731   7.173
12947TIP3    H238719   1.697   1.803   7.114
12948TIP3   OH238720   0.860   2.210   7.821
12948TIP3    H138721   0.893   2.180   7.736
12948TIP3    H238722   0.909   2.159   7.885
12949TIP3   OH238723   1.350   2.312   7.044
12949TIP3    H138724   1.305   2.396   7.038
12949TIP3    H238725   1.291   2.256   7.094
12950TIP3   OH238726   4.865   6.917   0.442
12950TIP3    H138727   4.831   6.830   0.462
12950TIP3    H238728   4.961   6.906   0.442
12951TIP3   OH238729   5.055   7.361  -0.008
12951TIP3    H138730   4.978   7.303  -0.012
12951TIP3    H238731   5.052   7.398   0.080
12952TIP3   OH238732   2.136   1.819   6.990
12952TIP3    H138733   2.077   1.775   6.929
12952TIP3    H238734   2.143   1.909   6.957
12953TIP3   OH238735   5.664   7.347   0.029
12953TIP3    H138736   5.574   7.322   0.051
12953TIP3    H238737   5.680   7.306  -0.056
12954TIP3   OH238738   1.880   2.631   6.919
12954TIP3    H138739   1.844   2.560   6.972
12954TIP3    H238740   1.898   2.591   6.834
12955TIP3   OH238741   1.864   2.276   7.693
12955TIP3    H138742   1.769   2.265   7.702
12955TIP3    H238743   1.895   2.191   7.662
12956TIP3   OH238744   1.010   2.506   7.523
12956TIP3    H138745   1.012   2.581   7.464
12956TIP3    H238746   0.919   2.475   7.519
12957TIP3   OH238747   1.113   2.259   7.437
12957TIP3    H138748   1.095   2.349   7.463
12957TIP3    H238749   1.084   2.206   7.511
12958TIP3   OH238750   1.294   2.812   7.888
12958TIP3    H138751   1.335   2.891   7.853
12958TIP3    H238752   1.296   2.824   7.983
12959TIP3   OH238753   0.935   2.726   7.370
12959TIP3    H138754   0.846   2.729   7.405
12959TIP3    H238755   0.964   2.817   7.371
12960TIP3   OH238756   1.642   2.496   7.904
12960TIP3    H138757   1.621   2.449   7.984
12960TIP3    H238758   1.732   2.470   7.884
12961TIP3   OH238759   1.651   2.371   6.817
12961TIP3    H138760   1.687   2.354   6.904
12961TIP3    H238761   1.566   2.327   6.817
12962TIP3   OH238762   1.900   3.002   7.972
12962TIP3    H138763   1.832   2.934   7.966
12962TIP3    H238764   1.885   3.057   7.895
12963TIP3   OH238765   1.948   2.834   6.615
12963TIP3    H138766   1.956   2.890   6.538
12963TIP3    H238767   1.881   2.876   6.669
12964TIP3   OH238768   1.810   2.318   7.046
12964TIP3    H138769   1.793   2.242   7.101
12964TIP3    H238770   1.904   2.312   7.025
12965TIP3   OH238771   3.943   7.280   0.039
12965TIP3    H138772   4.022   7.233   0.012
12965TIP3    H238773   3.973   7.343   0.105
12966TIP3   OH238774   1.046   2.314   6.831
12966TIP3    H138775   1.036   2.222   6.806
12966TIP3    H238776   0.997   2.322   6.913
12967TIP3   OH238777   0.931   2.349   7.087
12967TIP3    H138778   1.004   2.320   7.141
12967TIP3    H238779   0.932   2.444   7.093
12968TIP3   OH238780   0.711   2.060   7.325
12968TIP3    H138781   0.644   2.103   7.378
12968TIP3    H238782   0.710   2.108   7.242
12969TIP3   OH238783   5.091   6.298   0.157
12969TIP3    H138784   5.141   6.379   0.142
12969TIP3    H238785   5.011   6.328   0.199
12970TIP3   OH238786   1.726   1.418   7.360
12970TIP3    H138787   1.694   1.435   7.271
12970TIP3    H238788   1.765   1.502   7.387
12971TIP3   OH238789   1.211   2.545   7.038
12971TIP3    H138790   1.124   2.565   7.075
12971TIP3    H238791   1.225   2.613   6.972
12972TIP3   OH238792   1.368   1.630   7.453
12972TIP3    H138793   1.434   1.694   7.425
12972TIP3    H238794   1.392   1.609   7.543
12973TIP3   OH238795   4.947   6.477   0.312
12973TIP3    H138796   4.952   6.568   0.283
12973TIP3    H238797   5.019   6.467   0.374
12974TIP3   OH238798   1.533   1.325   7.531
12974TIP3    H138799   1.525   1.392   7.599
12974TIP3    H238800   1.605   1.356   7.476
12975TIP3   OH238801   0.958   2.618   7.118
12975TIP3    H138802   0.925   2.683   7.055
12975TIP3    H238803   0.949   2.661   7.203
12976TIP3   OH238804   5.552   6.474   0.124
12976TIP3    H138805   5.514   6.442   0.206
12976TIP3    H238806   5.538   6.403   0.062
12977TIP3   OH238807   1.941   2.013   7.616
12977TIP3    H138808   1.866   1.954   7.612
12977TIP3    H238809   2.012   1.961   7.652
12978TIP3   OH238810   0.684   2.223   7.091
12978TIP3    H138811   0.757   2.284   7.095
12978TIP3    H238812   0.712   2.156   7.028
12979TIP3   OH238813   1.929   2.976   7.546
12979TIP3    H138814   1.885   3.029   7.481
12979TIP3    H238815   2.022   2.990   7.530
12980TIP3   OH238816   0.505   2.493   7.486
12980TIP3    H138817   0.455   2.535   7.555
12980TIP3    H238818   0.464   2.523   7.405
12981TIP3   OH238819   4.000   7.488   0.580
12981TIP3    H138820   4.075   7.524   0.627
12981TIP3    H238821   3.924   7.534   0.616
12982TIP3   OH238822   4.449   7.558   0.496
12982TIP3    H138823   4.509   7.499   0.451
12982TIP3    H238824   4.372   7.563   0.438
12983TIP3   OH238825   1.143   2.542   6.716
12983TIP3    H138826   1.105   2.467   6.762
12983TIP3    H238827   1.218   2.505   6.668
12984TIP3   OH238828   5.039   7.475   0.238
12984TIP3    H138829   5.035   7.438   0.326
12984TIP3    H238830   5.102   7.547   0.244
12985TIP3   OH238831   1.589   2.576   6.642
12985TIP3    H138832   1.627   2.512   6.703
12985TIP3    H238833   1.644   2.570   6.564
12986TIP3   OH238834   0.807   2.029   6.943
12986TIP3    H138835   0.860   2.005   7.019
12986TIP3    H238836   0.870   2.039   6.872
12987TIP3   OH238837   4.774   7.168   0.444
12987TIP3    H138838   4.706   7.159   0.377
12987TIP3    H238839   4.817   7.083   0.447
12988TIP3   OH238840   1.404   2.248   6.781
12988TIP3    H138841   1.370   2.264   6.869
12988TIP3    H238842   1.378   2.159   6.761
12989TIP3   OH238843   5.164   7.082   0.035
12989TIP3    H138844   5.211   7.145  -0.020
12989TIP3    H238845   5.124   7.135   0.103
12990TIP3   OH238846   0.995   1.967   7.145
12990TIP3    H138847   0.982   1.939   7.235
12990TIP3    H238848   1.040   1.894   7.103
12991TIP3   OH238849   4.498   6.560   0.441
12991TIP3    H138850   4.436   6.619   0.398
12991TIP3    H238851   4.579   6.570   0.392
12992TIP3   OH238852   1.126   1.775   6.987
12992TIP3    H138853   1.097   1.782   6.896
12992TIP3    H238854   1.221   1.784   6.983
12993TIP3   OH238855   5.079   7.102   0.532
12993TIP3    H138856   5.109   7.096   0.441
12993TIP3    H238857   5.117   7.025   0.574
12994TIP3   OH238858   1.921   2.067   6.678
12994TIP3    H138859   1.908   2.027   6.591
12994TIP3    H238860   1.899   2.159   6.665
12995TIP3   OH238861   4.691   6.393   0.548
12995TIP3    H138862   4.689   6.375   0.642
12995TIP3    H238863   4.609   6.440   0.531
12996TIP3   OH238864   1.426   2.094   8.002
12996TIP3    H138865   1.485   2.147   7.949
12996TIP3    H238866   1.357   2.154   8.030
12997TIP3   OH238867   5.310   6.646   0.434
12997TIP3    H138868   5.269   6.563   0.459
12997TIP3    H238869   5.341   6.683   0.516
12998TIP3   OH238870   5.396   6.998   0.163
12998TIP3    H138871   5.354   7.061   0.104
12998TIP3    H238872   5.488   7.026   0.165
12999TIP3   OH238873   4.935   6.496   0.625
12999TIP3    H138874   4.906   6.462   0.709
12999TIP3    H238875   4.859   6.487   0.567
13000TIP3   OH238876   5.160   6.425   0.487
13000TIP3    H138877   5.091   6.441   0.552
13000TIP3    H238878   5.191   6.336   0.506
13001TIP3   OH238879   5.369   6.367   0.742
13001TIP3    H138880   5.412   6.284   0.762
13001TIP3    H238881   5.373   6.417   0.823
13002TIP3   OH238882   0.873   2.801   6.931
13002TIP3    H138883   0.935   2.839   6.868
13002TIP3    H238884   0.791   2.792   6.882
13003TIP3   OH238885   0.422   2.203   7.170
13003TIP3    H138886   0.511   2.226   7.144
13003TIP3    H238887   0.397   2.132   7.111
13004TIP3   OH238888   0.280   2.802   7.524
13004TIP3    H138889   0.189   2.774   7.520
13004TIP3    H238890   0.321   2.744   7.588
13005TIP3   OH238891   0.416   2.642   7.710
13005TIP3    H138892   0.419   2.576   7.779
13005TIP3    H238893   0.470   2.714   7.742
13006TIP3   OH238894   2.197   3.032   7.532
13006TIP3    H138895   2.210   3.066   7.620
13006TIP3    H238896   2.256   3.085   7.477
13007TIP3   OH238897   2.197   3.073   7.806
13007TIP3    H138898   2.155   2.987   7.808
13007TIP3    H238899   2.274   3.063   7.863
13008TIP3   OH238900   5.521   7.408   0.297
13008TIP3    H138901   5.541   7.390   0.389
13008TIP3    H238902   5.573   7.485   0.276
13009TIP3   OH238903   2.086   2.284   7.010
13009TIP3    H138904   2.143   2.354   6.977
13009TIP3    H238905   2.135   2.244   7.082
13010TIP3   OH238906   2.222   2.138   7.205
13010TIP3    H138907   2.155   2.104   7.265
13010TIP3    H238908   2.288   2.176   7.263
13011TIP3   OH238909   2.263   2.545   7.631
13011TIP3    H138910   2.318   2.480   7.588
13011TIP3    H238911   2.268   2.622   7.574
13012TIP3   OH238912   2.067   2.825   7.828
13012TIP3    H138913   1.999   2.864   7.883
13012TIP3    H238914   2.020   2.783   7.756
13013TIP3   OH238915   2.131   2.059   6.855
13013TIP3    H138916   2.060   2.055   6.791
13013TIP3    H238917   2.112   2.137   6.907
13014TIP3   OH238918   1.975   1.710   6.799
13014TIP3    H138919   1.932   1.747   6.722
13014TIP3    H238920   1.967   1.615   6.789
13015TIP3   OH238921   2.013   2.007   7.344
13015TIP3    H138922   2.022   1.912   7.331
13015TIP3    H238923   1.996   2.016   7.438
13016TIP3   OH238924   5.653   7.090   0.162
13016TIP3    H138925   5.716   7.018   0.164
13016TIP3    H238926   5.682   7.144   0.088
13017TIP3   OH238927   5.800   6.865   0.184
13017TIP3    H138928   5.721   6.812   0.174
13017TIP3    H238929   5.871   6.800   0.187
13018TIP3   OH238930   1.941   1.440   6.773
13018TIP3    H138931   2.008   1.410   6.834
13018TIP3    H238932   1.861   1.396   6.803
13019TIP3   OH238933   2.016   1.727   7.228
13019TIP3    H138934   2.063   1.644   7.241
13019TIP3    H238935   2.057   1.766   7.151
13020TIP3   OH238936   2.157   1.855   7.703
13020TIP3    H138937   2.236   1.872   7.651
13020TIP3    H238938   2.167   1.909   7.781
13021TIP3   OH238939   2.205   2.041   7.891
13021TIP3    H138940   2.127   2.075   7.936
13021TIP3    H238941   2.251   2.120   7.862
13022TIP3   OH238942   6.057   6.196   0.583
13022TIP3    H138943   6.150   6.176   0.591
13022TIP3    H238944   6.048   6.239   0.498
13023TIP3   OH238945   2.129   1.476   7.284
13023TIP3    H138946   2.173   1.460   7.368
13023TIP3    H238947   2.066   1.404   7.276
13024TIP3   OH238948   5.841   6.453   0.135
13024TIP3    H138949   5.781   6.460   0.209
13024TIP3    H238950   5.849   6.359   0.120
13025TIP3   OH238951   2.173   1.386   6.922
13025TIP3    H138952   2.220   1.327   6.864
13025TIP3    H238953   2.226   1.466   6.924
13026TIP3   OH238954   1.764   2.947   7.195
13026TIP3    H138955   1.816   2.934   7.116
13026TIP3    H238956   1.805   3.022   7.238
13027TIP3   OH238957   4.171   7.284   0.513
13027TIP3    H138958   4.115   7.361   0.522
13027TIP3    H238959   4.139   7.222   0.579
13028TIP3   OH238960   4.290   7.395   0.071
13028TIP3    H138961   4.242   7.470   0.038
13028TIP3    H238962   4.381   7.424   0.076
13029TIP3   OH238963   4.779   7.573   0.185
13029TIP3    H138964   4.826   7.576   0.268
13029TIP3    H238965   4.829   7.631   0.127
13030TIP3   OH238966   4.936   7.787   0.091
13030TIP3    H138967   4.981   7.743   0.019
13030TIP3    H238968   5.005   7.832   0.139
13031TIP3   OH238969   5.825   6.175   0.144
13031TIP3    H138970   5.731   6.191   0.155
13031TIP3    H238971   5.833   6.080   0.141
13032TIP3   OH238972   3.974   7.657   0.105
13032TIP3    H138973   3.889   7.685   0.072
13032TIP3    H238974   3.960   7.641   0.198
13033TIP3   OH238975   0.951   3.024   7.985
13033TIP3    H138976   0.867   3.035   8.029
13033TIP3    H238977   0.935   3.051   7.894
13034TIP3   OH238978   1.380   3.052   7.783
13034TIP3    H138979   1.307   3.058   7.721
13034TIP3    H238980   1.386   3.139   7.821
13035TIP3   OH238981   1.636   2.983   7.851
13035TIP3    H138982   1.546   3.000   7.823
13035TIP3    H238983   1.689   3.040   7.796
13036TIP3   OH238984   1.839   3.143   7.744
13036TIP3    H138985   1.840   3.231   7.706
13036TIP3    H238986   1.868   3.086   7.674
13037TIP3   OH238987   0.594   2.819   7.831
13037TIP3    H138988   0.596   2.785   7.920
13037TIP3    H238989   0.675   2.787   7.792
13038TIP3   OH238990   0.825   2.705   7.743
13038TIP3    H138991   0.840   2.625   7.793
13038TIP3    H238992   0.911   2.745   7.733
13039TIP3   OH238993   1.090   2.784   7.711
13039TIP3    H138994   1.112   2.703   7.664
13039TIP3    H238995   1.154   2.789   7.782
13040TIP3   OH238996   1.693   1.464   7.781
13040TIP3    H138997   1.666   1.433   7.867
13040TIP3    H238998   1.751   1.395   7.748
13041TIP3   OH238999   2.154   1.340   7.741
13041TIP3    H139000   2.193   1.388   7.668
13041TIP3    H239001   2.060   1.341   7.723
13042TIP3   OH239002   2.283   1.409   7.508
13042TIP3    H139003   2.352   1.351   7.476
13042TIP3    H239004   2.319   1.497   7.498
13043TIP3   OH239005   1.885   1.297   7.678
13043TIP3    H139006   1.881   1.277   7.585
13043TIP3    H239007   1.861   1.214   7.721
13044TIP3   OH239008   1.945   1.264   7.291
13044TIP3    H139009   1.864   1.312   7.310
13044TIP3    H239010   1.929   1.176   7.326
13045TIP3   OH239011   0.389   2.585   7.253
13045TIP3    H139012   0.324   2.538   7.200
13045TIP3    H239013   0.385   2.675   7.222
13046TIP3   OH239014   1.331   1.378   7.349
13046TIP3    H139015   1.387   1.333   7.413
13046TIP3    H239016   1.329   1.469   7.379
13047TIP3   OH239017   1.197   2.768   6.864
13047TIP3    H139018   1.279   2.790   6.819
13047TIP3    H239019   1.157   2.702   6.807
13048TIP3   OH239020   1.909   2.899   6.963
13048TIP3    H139021   1.904   2.804   6.953
13048TIP3    H239022   1.865   2.933   6.885
13049TIP3   OH239023   0.470   2.560   6.912
13049TIP3    H139024   0.505   2.569   7.000
13049TIP3    H239025   0.520   2.622   6.859
13050TIP3   OH239026   5.496   6.122   0.736
13050TIP3    H139027   5.507   6.029   0.757
13050TIP3    H239028   5.585   6.158   0.739
13051TIP3   OH239029   5.400   7.677   0.115
13051TIP3    H139030   5.325   7.640   0.068
13051TIP3    H239031   5.382   7.771   0.118
13052TIP3   OH239032   3.398   2.420   6.896
13052TIP3    H139033   3.365   2.508   6.876
13052TIP3    H239034   3.329   2.361   6.866
13053TIP3   OH239035   3.408   2.428   7.321
13053TIP3    H139036   3.462   2.399   7.394
13053TIP3    H239037   3.361   2.350   7.293
13054TIP3   OH239038   2.697   2.281   7.641
13054TIP3    H139039   2.732   2.235   7.718
13054TIP3    H239040   2.774   2.307   7.591
13055TIP3   OH239041   3.667   2.711   6.975
13055TIP3    H139042   3.659   2.651   7.049
13055TIP3    H239043   3.688   2.795   7.014
13056TIP3   OH239044   2.684   2.708   7.348
13056TIP3    H139045   2.666   2.614   7.352
13056TIP3    H239046   2.779   2.714   7.336
13057TIP3   OH239047   2.371   1.908   7.133
13057TIP3    H139048   2.334   1.994   7.155
13057TIP3    H239049   2.300   1.863   7.088
13058TIP3   OH239050   2.451   2.226   7.341
13058TIP3    H139051   2.502   2.150   7.369
13058TIP3    H239052   2.516   2.292   7.319
13059TIP3   OH239053   3.318   3.156   6.987
13059TIP3    H139054   3.349   3.093   6.921
13059TIP3    H239055   3.306   3.103   7.066
13060TIP3   OH239056   3.189   2.642   7.303
13060TIP3    H139057   3.232   2.565   7.266
13060TIP3    H239058   3.261   2.697   7.334
13061TIP3   OH239059   4.243   1.959   7.331
13061TIP3    H139060   4.258   2.044   7.372
13061TIP3    H239061   4.274   1.970   7.241
13062TIP3   OH239062   3.612   2.131   7.353
13062TIP3    H139063   3.645   2.046   7.380
13062TIP3    H239064   3.575   2.117   7.266
13063TIP3   OH239065   2.969   1.784   7.308
13063TIP3    H139066   2.948   1.857   7.249
13063TIP3    H239067   2.914   1.712   7.277
13064TIP3   OH239068   3.666   1.890   6.950
13064TIP3    H139069   3.730   1.884   7.021
13064TIP3    H239070   3.715   1.924   6.875
13065TIP3   OH239071   2.594   2.008   7.434
13065TIP3    H139072   2.679   1.994   7.477
13065TIP3    H239073   2.598   1.955   7.355
13066TIP3   OH239074   3.014   2.201   7.256
13066TIP3    H139075   3.108   2.186   7.260
13066TIP3    H239076   2.978   2.119   7.221
13067TIP3   OH239077   4.294   2.177   7.502
13067TIP3    H139078   4.210   2.221   7.491
13067TIP3    H239079   4.334   2.218   7.578
13068TIP3   OH239080   2.953   1.789   7.744
13068TIP3    H139081   2.907   1.826   7.668
13068TIP3    H239082   2.897   1.808   7.818
13069TIP3   OH239083   3.260   2.630   6.783
13069TIP3    H139084   3.239   2.613   6.691
13069TIP3    H239085   3.222   2.715   6.802
13070TIP3   OH239086   3.049   2.566   7.529
13070TIP3    H139087   2.992   2.635   7.564
13070TIP3    H239088   3.089   2.604   7.451
13071TIP3   OH239089   3.826   1.913   7.171
13071TIP3    H139090   3.782   1.892   7.253
13071TIP3    H239091   3.883   1.986   7.192
13072TIP3   OH239092   2.840   1.905   7.523
13072TIP3    H139093   2.895   1.980   7.547
13072TIP3    H239094   2.888   1.863   7.451
13073TIP3   OH239095   2.889   2.767   7.628
13073TIP3    H139096   2.877   2.858   7.598
13073TIP3    H239097   2.808   2.747   7.675
13074TIP3   OH239098   2.259   2.470   6.890
13074TIP3    H139099   2.227   2.487   6.802
13074TIP3    H239100   2.281   2.557   6.924
13075TIP3   OH239101   3.710   2.953   7.104
13075TIP3    H139102   3.632   2.955   7.160
13075TIP3    H239103   3.723   3.044   7.078
13076TIP3   OH239104   4.044   1.843   7.496
13076TIP3    H139105   3.959   1.870   7.463
13076TIP3    H239106   4.107   1.873   7.430
13077TIP3   OH239107   3.295   1.488   7.485
13077TIP3    H139108   3.287   1.396   7.507
13077TIP3    H239109   3.216   1.529   7.522
13078TIP3   OH239110   3.410   2.999   6.777
13078TIP3    H139111   3.461   2.919   6.765
13078TIP3    H239112   3.470   3.069   6.751
13079TIP3   OH239113   3.562   2.780   6.728
13079TIP3    H139114   3.570   2.705   6.668
13079TIP3    H239115   3.600   2.749   6.810
13080TIP3   OH239116   3.226   2.262   6.742
13080TIP3    H139117   3.144   2.310   6.726
13080TIP3    H239118   3.272   2.264   6.658
13081TIP3   OH239119   3.195   2.070   6.432
13081TIP3    H139120   3.261   2.119   6.482
13081TIP3    H239121   3.245   2.004   6.385
13082TIP3   OH239122   4.103   2.536   7.356
13082TIP3    H139123   4.022   2.586   7.355
13082TIP3    H239124   4.137   2.543   7.267
13083TIP3   OH239125   3.583   2.357   6.702
13083TIP3    H139126   3.528   2.383   6.776
13083TIP3    H239127   3.666   2.332   6.742
13084TIP3   OH239128   3.818   2.389   7.646
13084TIP3    H139129   3.819   2.476   7.685
13084TIP3    H239130   3.734   2.384   7.600
13085TIP3   OH239131   2.810   2.331   7.109
13085TIP3    H139132   2.774   2.272   7.043
13085TIP3    H239133   2.884   2.284   7.146
13086TIP3   OH239134   2.942   2.760   7.246
13086TIP3    H139135   2.916   2.747   7.154
13086TIP3    H239136   3.028   2.719   7.252
13087TIP3   OH239137   2.913   2.333   7.476
13087TIP3    H139138   2.951   2.298   7.396
13087TIP3    H239139   2.962   2.413   7.493
13088TIP3   OH239140   3.491   2.963   7.266
13088TIP3    H139141   3.446   3.040   7.301
13088TIP3    H239142   3.455   2.890   7.316
13089TIP3   OH239143   3.082   2.858   7.806
13089TIP3    H139144   3.022   2.918   7.850
13089TIP3    H239145   3.027   2.807   7.747
13090TIP3   OH239146   3.417   2.212   6.535
13090TIP3    H139147   3.475   2.272   6.582
13090TIP3    H239148   3.446   2.217   6.444
13091TIP3   OH239149   2.858   2.428   7.902
13091TIP3    H139150   2.862   2.518   7.933
13091TIP3    H239151   2.764   2.408   7.900
13092TIP3   OH239152   3.158   2.890   6.799
13092TIP3    H139153   3.245   2.930   6.795
13092TIP3    H239154   3.103   2.948   6.746
13093TIP3   OH239155   2.881   3.026   7.886
13093TIP3    H139156   2.854   3.035   7.795
13093TIP3    H239157   2.799   3.010   7.933
13094TIP3   OH239158   3.926   1.442   6.594
13094TIP3    H139159   3.850   1.464   6.648
13094TIP3    H239160   3.937   1.518   6.537
13095TIP3   OH239161   2.685   2.175   6.907
13095TIP3    H139162   2.610   2.226   6.877
13095TIP3    H239163   2.651   2.087   6.920
13096TIP3   OH239164   3.754   2.821   6.142
13096TIP3    H139165   3.750   2.915   6.123
13096TIP3    H239166   3.844   2.796   6.120
13097TIP3   OH239167   2.472   2.579   7.818
13097TIP3    H139168   2.405   2.560   7.753
13097TIP3    H239169   2.514   2.494   7.835
13098TIP3   OH239170   2.313   2.781   7.492
13098TIP3    H139171   2.404   2.806   7.510
13098TIP3    H239172   2.262   2.858   7.514
13099TIP3   OH239173   4.187   3.199   7.562
13099TIP3    H139174   4.186   3.103   7.569
13099TIP3    H239175   4.111   3.228   7.612
13100TIP3   OH239176   3.276   2.997   7.667
13100TIP3    H139177   3.272   3.088   7.697
13100TIP3    H239178   3.208   2.953   7.717
13101TIP3   OH239179   3.055   3.107   6.621
13101TIP3    H139180   3.011   3.086   6.538
13101TIP3    H239181   3.016   3.190   6.648
13102TIP3   OH239182   2.487   2.964   6.995
13102TIP3    H139183   2.531   2.955   7.080
13102TIP3    H239184   2.437   2.883   6.985
13103TIP3   OH239185   3.256   3.043   6.245
13103TIP3    H139186   3.307   2.969   6.210
13103TIP3    H239187   3.291   3.057   6.333
13104TIP3   OH239188   3.308   3.085   6.515
13104TIP3    H139189   3.222   3.088   6.557
13104TIP3    H239190   3.366   3.048   6.582
13105TIP3   OH239191   4.050   2.345   7.817
13105TIP3    H139192   3.972   2.350   7.762
13105TIP3    H239193   4.073   2.252   7.818
13106TIP3   OH239194   2.664   2.777   7.791
13106TIP3    H139195   2.721   2.765   7.867
13106TIP3    H239196   2.598   2.709   7.799
13107TIP3   OH239197   3.054   1.579   7.598
13107TIP3    H139198   2.971   1.549   7.562
13107TIP3    H239199   3.033   1.659   7.645
13108TIP3   OH239200   3.607   1.705   7.801
13108TIP3    H139201   3.684   1.683   7.852
13108TIP3    H239202   3.533   1.683   7.858
13109TIP3   OH239203   3.823   2.119   7.718
13109TIP3    H139204   3.780   2.114   7.803
13109TIP3    H239205   3.808   2.209   7.689
13110TIP3   OH239206   3.497   2.193   6.272
13110TIP3    H139207   3.449   2.199   6.190
13110TIP3    H239208   3.579   2.239   6.255
13111TIP3   OH239209   3.206   1.611   6.590
13111TIP3    H139210   3.167   1.620   6.677
13111TIP3    H239211   3.169   1.531   6.555
13112TIP3   OH239212   2.993   2.112   7.625
13112TIP3    H139213   2.946   2.121   7.708
13112TIP3    H239214   2.973   2.193   7.578
13113TIP3   OH239215   2.873   1.986   7.150
13113TIP3    H139216   2.783   1.963   7.174
13113TIP3    H239217   2.882   1.955   7.060
13114TIP3   OH239218   3.352   2.060   6.878
13114TIP3    H139219   3.304   2.132   6.837
13114TIP3    H239220   3.410   2.028   6.809
13115TIP3   OH239221   3.551   2.353   7.927
13115TIP3    H139222   3.517   2.284   7.984
13115TIP3    H239223   3.643   2.361   7.951
13116TIP3   OH239224   3.520   2.077   7.101
13116TIP3    H139225   3.452   2.099   7.037
13116TIP3    H239226   3.567   2.003   7.063
13117TIP3   OH239227   2.829   2.135   7.841
13117TIP3    H139228   2.825   2.194   7.917
13117TIP3    H239229   2.807   2.049   7.877
13118TIP3   OH239230   2.873   1.596   6.567
13118TIP3    H139231   2.863   1.603   6.662
13118TIP3    H239232   2.794   1.638   6.531
13119TIP3   OH239233   2.412   1.635   7.435
13119TIP3    H139234   2.486   1.679   7.476
13119TIP3    H239235   2.439   1.621   7.345
13120TIP3   OH239236   2.322   1.621   6.932
13120TIP3    H139237   2.368   1.655   6.855
13120TIP3    H239238   2.259   1.689   6.954
13121TIP3   OH239239   3.566   2.330   7.530
13121TIP3    H139240   3.591   2.264   7.466
13121TIP3    H239241   3.522   2.281   7.600
13122TIP3   OH239242   3.237   1.774   7.200
13122TIP3    H139243   3.159   1.774   7.255
13122TIP3    H239244   3.310   1.767   7.262
13123TIP3   OH239245   2.633   1.860   7.208
13123TIP3    H139246   2.544   1.864   7.172
13123TIP3    H239247   2.662   1.771   7.191
13124TIP3   OH239248   2.886   1.865   6.904
13124TIP3    H139249   2.980   1.875   6.893
13124TIP3    H239250   2.850   1.882   6.817
13125TIP3   OH239251   3.680   1.867   7.405
13125TIP3    H139252   3.659   1.886   7.497
13125TIP3    H239253   3.613   1.804   7.378
13126TIP3   OH239254   2.773   1.884   6.656
13126TIP3    H139255   2.710   1.835   6.602
13126TIP3    H239256   2.826   1.932   6.592
13127TIP3   OH239257   3.891   3.544   7.646
13127TIP3    H139258   3.875   3.570   7.555
13127TIP3    H239259   3.970   3.592   7.671
13128TIP3   OH239260   6.118   7.315   0.000
13128TIP3    H139261   6.196   7.329   0.054
13128TIP3    H239262   6.045   7.324   0.062
13129TIP3   OH239263   3.288   2.153   7.304
13129TIP3    H139264   3.353   2.103   7.254
13129TIP3    H239265   3.285   2.108   7.389
13130TIP3   OH239266   2.776   1.613   7.187
13130TIP3    H139267   2.746   1.536   7.234
13130TIP3    H239268   2.796   1.581   7.099
13131TIP3   OH239269   3.255   2.049   7.566
13131TIP3    H139270   3.168   2.082   7.589
13131TIP3    H239271   3.315   2.101   7.620
13132TIP3   OH239272   2.989   2.400   6.688
13132TIP3    H139273   2.913   2.346   6.664
13132TIP3    H239274   2.964   2.442   6.770
13133TIP3   OH239275   3.861   2.682   7.327
13133TIP3    H139276   3.901   2.736   7.259
13133TIP3    H239277   3.793   2.633   7.281
13134TIP3   OH239278   3.458   1.717   6.596
13134TIP3    H139279   3.365   1.695   6.591
13134TIP3    H239280   3.459   1.812   6.606
13135TIP3   OH239281   3.478   2.802   7.675
13135TIP3    H139282   3.477   2.772   7.766
13135TIP3    H239283   3.412   2.871   7.671
13136TIP3   OH239284   3.515   1.983   6.663
13136TIP3    H139285   3.610   1.988   6.672
13136TIP3    H239286   3.492   2.060   6.611
13137TIP3   OH239287   2.675   2.418   7.334
13137TIP3    H139288   2.714   2.399   7.248
13137TIP3    H239289   2.741   2.389   7.397
13138TIP3   OH239290   3.143   2.562   6.531
13138TIP3    H139291   3.096   2.645   6.528
13138TIP3    H239292   3.087   2.505   6.584
13139TIP3   OH239293   2.584   2.349   7.931
13139TIP3    H139294   2.598   2.326   8.023
13139TIP3    H239295   2.507   2.298   7.905
13140TIP3   OH239296   3.311   2.492   7.966
13140TIP3    H139297   3.242   2.429   7.943
13140TIP3    H239298   3.392   2.451   7.934
13141TIP3   OH239299   3.929   2.072   6.479
13141TIP3    H139300   3.873   2.027   6.417
13141TIP3    H239301   3.936   2.162   6.445
13142TIP3   OH239302   4.168   2.920   7.565
13142TIP3    H139303   4.073   2.914   7.555
13142TIP3    H239304   4.203   2.899   7.478
13143TIP3   OH239305   3.668   2.889   6.403
13143TIP3    H139306   3.640   2.815   6.456
13143TIP3    H239307   3.692   2.850   6.318
13144TIP3   OH239308   3.661   2.522   7.196
13144TIP3    H139309   3.569   2.499   7.213
13144TIP3    H239310   3.698   2.444   7.156
13145TIP3   OH239311   2.805   2.759   7.003
13145TIP3    H139312   2.806   2.835   6.945
13145TIP3    H239313   2.713   2.747   7.025
13146TIP3   OH239314   2.372   2.046   6.719
13146TIP3    H139315   2.413   2.131   6.739
13146TIP3    H239316   2.289   2.048   6.767
13147TIP3   OH239317   2.891   2.512   6.912
13147TIP3    H139318   2.875   2.602   6.941
13147TIP3    H239319   2.863   2.459   6.987
13148TIP3   OH239320   3.092   3.080   7.460
13148TIP3    H139321   3.124   3.156   7.412
13148TIP3    H239322   3.168   3.049   7.509
13149TIP3   OH239323   2.724   2.982   6.854
13149TIP3    H139324   2.636   2.989   6.891
13149TIP3    H239325   2.760   3.071   6.858
13150TIP3   OH239326   3.426   2.733   7.411
13150TIP3    H139327   3.443   2.744   7.504
13150TIP3    H239328   3.465   2.649   7.389
13151TIP3   OH239329   3.446   2.626   6.306
13151TIP3    H139330   3.484   2.609   6.392
13151TIP3    H239331   3.361   2.582   6.309
13152TIP3   OH239332   3.657   3.194   7.461
13152TIP3    H139333   3.567   3.172   7.437
13152TIP3    H239334   3.685   3.257   7.394
13153TIP3   OH239335   3.754   3.094   6.110
13153TIP3    H139336   3.786   3.162   6.050
13153TIP3    H239337   3.679   3.135   6.154
13154TIP3   OH239338   2.768   1.878   7.921
13154TIP3    H139339   2.675   1.895   7.935
13154TIP3    H239340   2.797   1.836   8.002
13155TIP3   OH239341   3.609   2.575   6.532
13155TIP3    H139342   3.592   2.500   6.589
13155TIP3    H239343   3.703   2.568   6.512
13156TIP3   OH239344   2.518   2.980   7.619
13156TIP3    H139345   2.572   2.921   7.672
13156TIP3    H239346   2.532   3.067   7.657
13157TIP3   OH239347   2.789   2.588   6.313
13157TIP3    H139348   2.798   2.496   6.285
13157TIP3    H239349   2.773   2.583   6.407
13158TIP3   OH239350   2.729   2.605   6.584
13158TIP3    H139351   2.796   2.580   6.648
13158TIP3    H239352   2.726   2.701   6.589
13159TIP3   OH239353   2.461   2.299   6.799
13159TIP3    H139354   2.395   2.347   6.849
13159TIP3    H239355   2.481   2.357   6.725
13160TIP3   OH239356   3.619   1.939   7.662
13160TIP3    H139357   3.700   1.980   7.690
13160TIP3    H239358   3.613   1.859   7.715
13161TIP3   OH239359   3.518   1.670   6.864
13161TIP3    H139360   3.496   1.688   6.772
13161TIP3    H239361   3.561   1.750   6.894
13162TIP3   OH239362   2.999   2.791   6.526
13162TIP3    H139363   2.914   2.816   6.563
13162TIP3    H239364   3.023   2.864   6.469
13163TIP3   OH239365   3.166   1.869   6.948
13163TIP3    H139366   3.228   1.937   6.922
13163TIP3    H239367   3.190   1.848   7.039
13164TIP3   OH239368   3.459   2.162   7.718
13164TIP3    H139369   3.487   2.198   7.802
13164TIP3    H239370   3.508   2.080   7.710
13165TIP3   OH239371   3.328   1.565   7.035
13165TIP3    H139372   3.305   1.642   7.087
13165TIP3    H239373   3.398   1.595   6.977
13166TIP3   OH239374   2.748   2.877   6.601
13166TIP3    H139375   2.729   2.949   6.541
13166TIP3    H239376   2.738   2.916   6.688
13167TIP3   OH239377   2.840   1.591   6.848
13167TIP3    H139378   2.829   1.683   6.873
13167TIP3    H239379   2.934   1.576   6.852
13168TIP3   OH239380   4.090   2.075   7.723
13168TIP3    H139381   3.994   2.075   7.727
13168TIP3    H239382   4.110   2.040   7.636
13169TIP3   OH239383   3.748   2.265   7.102
13169TIP3    H139384   3.672   2.208   7.111
13169TIP3    H239385   3.815   2.224   7.157
13170TIP3   OH239386   2.484   2.472   6.580
13170TIP3    H139387   2.555   2.536   6.587
13170TIP3    H239388   2.516   2.409   6.515
13171TIP3   OH239389   2.394   1.768   6.713
13171TIP3    H139390   2.405   1.863   6.722
13171TIP3    H239391   2.347   1.759   6.630
13172TIP3   OH239392   3.735   3.233   7.050
13172TIP3    H139393   3.692   3.282   6.980
13172TIP3    H239394   3.828   3.254   7.040
13173TIP3   OH239395   2.792   1.503   7.553
13173TIP3    H139396   2.762   1.470   7.468
13173TIP3    H239397   2.781   1.430   7.613
13174TIP3   OH239398   2.310   2.741   6.970
13174TIP3    H139399   2.267   2.778   7.047
13174TIP3    H239400   2.266   2.784   6.896
13175TIP3   OH239401   5.777   7.897   0.025
13175TIP3    H139402   5.857   7.891   0.078
13175TIP3    H239403   5.748   7.806   0.015
13176TIP3   OH239404   6.251   7.809   0.078
13176TIP3    H139405   6.342   7.781   0.089
13176TIP3    H239406   6.217   7.756   0.005
13177TIP3   OH239407   2.938   2.794   6.205
13177TIP3    H139408   2.892   2.722   6.248
13177TIP3    H239409   3.013   2.752   6.163
13178TIP3   OH239410   3.709   3.125   7.790
13178TIP3    H139411   3.660   3.068   7.850
13178TIP3    H239412   3.755   3.186   7.848
13179TIP3   OH239413   3.385   2.831   6.129
13179TIP3    H139414   3.424   2.768   6.191
13179TIP3    H239415   3.440   2.825   6.051
13180TIP3   OH239416   5.900   7.317   0.168
13180TIP3    H139417   5.923   7.224   0.166
13180TIP3    H239418   5.815   7.322   0.125
13181TIP3   OH239419   2.607   2.282   6.427
13181TIP3    H139420   2.659   2.259   6.504
13181TIP3    H239421   2.671   2.296   6.357
13182TIP3   OH239422   3.250   2.763   7.999
13182TIP3    H139423   3.198   2.786   7.922
13182TIP3    H239424   3.280   2.674   7.982
13183TIP3   OH239425   3.197   2.503   6.269
13183TIP3    H139426   3.168   2.515   6.360
13183TIP3    H239427   3.173   2.412   6.249
13184TIP3   OH239428   3.745   2.840   7.583
13184TIP3    H139429   3.758   2.798   7.498
13184TIP3    H239430   3.652   2.827   7.602
13185TIP3   OH239431   6.007   7.069   0.169
13185TIP3    H139432   6.085   7.014   0.166
13185TIP3    H239433   5.963   7.044   0.250
13186TIP3   OH239434   2.780   2.224   6.639
13186TIP3    H139435   2.760   2.192   6.727
13186TIP3    H239436   2.829   2.152   6.599
13187TIP3   OH239437   3.105   2.303   7.895
13187TIP3    H139438   3.018   2.343   7.899
13187TIP3    H239439   3.138   2.325   7.807
13188TIP3   OH239440   2.923   2.040   6.487
13188TIP3    H139441   2.893   2.044   6.396
13188TIP3    H239442   3.018   2.048   6.481
13189TIP3   OH239443   3.603   2.706   7.969
13189TIP3    H139444   3.670   2.662   7.917
13189TIP3    H239445   3.591   2.649   8.046
13190TIP3   OH239446   3.716   2.326   6.167
13190TIP3    H139447   3.703   2.286   6.081
13190TIP3    H239448   3.695   2.419   6.154
13191TIP3   OH239449   3.203   2.062   7.987
13191TIP3    H139450   3.207   1.992   7.923
13191TIP3    H239451   3.169   2.137   7.938
13192TIP3   OH239452   3.212   1.870   7.783
13192TIP3    H139453   3.237   1.912   7.701
13192TIP3    H239454   3.120   1.846   7.770
13193TIP3   OH239455   3.212   2.389   7.662
13193TIP3    H139456   3.299   2.404   7.625
13193TIP3    H239457   3.157   2.454   7.619
13194TIP3   OH239458   7.082   6.982   0.037
13194TIP3    H139459   7.116   6.892   0.033
13194TIP3    H239460   7.157   7.037   0.018
13195TIP3   OH239461   3.851   2.648   7.763
13195TIP3    H139462   3.810   2.719   7.713
13195TIP3    H239463   3.944   2.651   7.738
13196TIP3   OH239464   6.382   6.820   0.217
13196TIP3    H139465   6.290   6.826   0.242
13196TIP3    H239466   6.380   6.800   0.123
13197TIP3   OH239467   3.333   1.635   7.865
13197TIP3    H139468   3.293   1.717   7.835
13197TIP3    H239469   3.263   1.570   7.856
13198TIP3   OH239470   6.722   6.764   0.067
13198TIP3    H139471   6.739   6.759   0.161
13198TIP3    H239472   6.633   6.729   0.057
13199TIP3   OH239473   3.699   2.082   7.951
13199TIP3    H139474   3.621   2.086   8.006
13199TIP3    H239475   3.768   2.050   8.009
13200TIP3   OH239476   7.203   6.651   0.083
13200TIP3    H139477   7.220   6.557   0.091
13200TIP3    H239478   7.197   6.683   0.173
13201TIP3   OH239479   6.733   6.279   0.095
13201TIP3    H139480   6.752   6.190   0.124
13201TIP3    H239481   6.683   6.268   0.015
13202TIP3   OH239482   6.776   6.501   0.241
13202TIP3    H139483   6.781   6.428   0.180
13202TIP3    H239484   6.683   6.524   0.243
13203TIP3   OH239485   2.746   3.086   6.420
13203TIP3    H139486   2.836   3.068   6.393
13203TIP3    H239487   2.707   3.131   6.345
13204TIP3   OH239488   2.211   2.468   6.600
13204TIP3    H139489   2.306   2.480   6.594
13204TIP3    H239490   2.195   2.383   6.560
13205TIP3   OH239491   2.115   3.053   7.057
13205TIP3    H139492   2.050   3.000   7.011
13205TIP3    H239493   2.160   2.991   7.115
13206TIP3   OH239494   2.260   2.883   7.222
13206TIP3    H139495   2.251   2.815   7.289
13206TIP3    H239496   2.312   2.951   7.264
13207TIP3   OH239497   3.995   3.326   7.051
13207TIP3    H139498   3.998   3.420   7.065
13207TIP3    H239499   4.063   3.310   6.986
13208TIP3   OH239500   3.992   3.329   7.334
13208TIP3    H139501   3.979   3.316   7.240
13208TIP3    H239502   4.085   3.309   7.348
13209TIP3   OH239503   4.034   3.025   7.869
13209TIP3    H139504   3.967   3.033   7.937
13209TIP3    H239505   4.085   3.106   7.877
13210TIP3   OH239506   3.885   2.537   6.499
13210TIP3    H139507   3.941   2.607   6.465
13210TIP3    H239508   3.935   2.499   6.571
13211TIP3   OH239509   4.023   2.395   6.697
13211TIP3    H139510   3.955   2.361   6.754
13211TIP3    H239511   4.086   2.435   6.757
13212TIP3   OH239512   4.061   2.791   7.145
13212TIP3    H139513   4.100   2.717   7.100
13212TIP3    H239514   4.068   2.863   7.083
13213TIP3   OH239515   3.926   2.312   6.344
13213TIP3    H139516   3.855   2.311   6.279
13213TIP3    H239517   3.910   2.390   6.396
13214TIP3   OH239518   3.777   1.959   6.283
13214TIP3    H139519   3.728   1.997   6.210
13214TIP3    H239520   3.770   1.864   6.270
13215TIP3   OH239521   3.813   2.260   6.831
13215TIP3    H139522   3.819   2.166   6.817
13215TIP3    H239523   3.796   2.270   6.925
13216TIP3   OH239524   2.436   2.336   7.591
13216TIP3    H139525   2.424   2.297   7.504
13216TIP3    H239526   2.530   2.324   7.609
13217TIP3   OH239527   4.117   2.675   7.694
13217TIP3    H139528   4.174   2.599   7.682
13217TIP3    H239529   4.153   2.742   7.636
13218TIP3   OH239530   4.271   2.451   7.690
13218TIP3    H139531   4.197   2.411   7.736
13218TIP3    H239532   4.346   2.395   7.712
13219TIP3   OH239533   3.742   1.686   6.251
13219TIP3    H139534   3.805   1.662   6.318
13219TIP3    H239535   3.659   1.651   6.282
13220TIP3   OH239536   3.807   1.980   6.720
13220TIP3    H139537   3.853   1.897   6.732
13220TIP3    H239538   3.848   2.019   6.643
13221TIP3   OH239539   3.964   2.145   7.244
13221TIP3    H139540   4.043   2.166   7.194
13221TIP3    H239541   3.978   2.186   7.330
13222TIP3   OH239542   4.036   2.296   7.473
13222TIP3    H139543   3.962   2.322   7.527
13222TIP3    H239544   4.065   2.377   7.431
13223TIP3   OH239545   5.997   6.678   0.157
13223TIP3    H139546   6.071   6.665   0.216
13223TIP3    H239547   5.952   6.593   0.157
13224TIP3   OH239548   4.497   1.903   7.996
13224TIP3    H139549   4.562   1.840   7.963
13224TIP3    H239550   4.462   1.945   7.917
13225TIP3   OH239551   3.924   1.731   6.771
13225TIP3    H139552   3.969   1.715   6.854
13225TIP3    H239553   3.861   1.659   6.765
13226TIP3   OH239554   2.631   1.722   7.586
13226TIP3    H139555   2.687   1.645   7.582
13226TIP3    H239556   2.690   1.796   7.570
13227TIP3   OH239557   2.400   1.970   7.631
13227TIP3    H139558   2.459   1.984   7.557
13227TIP3    H239559   2.450   2.000   7.708
13228TIP3   OH239560   4.346   2.003   7.794
13228TIP3    H139561   4.260   2.044   7.806
13228TIP3    H239562   4.327   1.924   7.743
13229TIP3   OH239563   3.967   1.642   6.410
13229TIP3    H139564   4.017   1.582   6.354
13229TIP3    H239565   4.021   1.721   6.413
13230TIP3   OH239566   2.396   1.499   7.165
13230TIP3    H139567   2.309   1.482   7.202
13230TIP3    H239568   2.379   1.549   7.085
13231TIP3   OH239569   3.555   3.205   6.679
13231TIP3    H139570   3.609   3.192   6.601
13231TIP3    H239571   3.601   3.271   6.730
13232TIP3   OH239572   2.643   1.524   7.883
13232TIP3    H139573   2.604   1.539   7.969
13232TIP3    H239574   2.594   1.581   7.824
13233TIP3   OH239575   5.926   7.616   0.044
13233TIP3    H139576   5.832   7.610   0.025
13233TIP3    H239577   5.930   7.627   0.139
13234TIP3   OH239578   2.863   3.044   7.606
13234TIP3    H139579   2.811   3.118   7.574
13234TIP3    H239580   2.947   3.054   7.563
13235TIP3   OH239581   3.272   3.266   7.750
13235TIP3    H139582   3.317   3.253   7.833
13235TIP3    H239583   3.328   3.324   7.700
13236TIP3   OH239584   3.445   3.438   7.617
13236TIP3    H139585   3.499   3.413   7.542
13236TIP3    H239586   3.502   3.491   7.672
13237TIP3   OH239587   4.258   1.759   7.691
13237TIP3    H139588   4.173   1.760   7.647
13237TIP3    H239589   4.287   1.668   7.686
13238TIP3   OH239590   2.524   3.277   7.657
13238TIP3    H139591   2.433   3.297   7.631
13238TIP3    H239592   2.545   3.346   7.720
13239TIP3   OH239593   2.752   3.275   7.503
13239TIP3    H139594   2.669   3.278   7.551
13239TIP3    H239595   2.729   3.299   7.414
13240TIP3   OH239596   3.155   3.297   7.298
13240TIP3    H139597   3.083   3.307   7.236
13240TIP3    H239598   3.165   3.384   7.337
13241TIP3   OH239599   3.414   3.220   7.339
13241TIP3    H139600   3.323   3.246   7.320
13241TIP3    H239601   3.467   3.283   7.291
13242TIP3   OH239602   3.630   3.386   7.252
13242TIP3    H139603   3.638   3.475   7.218
13242TIP3    H239604   3.663   3.330   7.181
13243TIP3   OH239605   2.432   3.065   7.368
13243TIP3    H139606   2.459   3.042   7.457
13243TIP3    H239607   2.503   3.032   7.313
13244TIP3   OH239608   2.634   2.948   7.229
13244TIP3    H139609   2.645   2.865   7.274
13244TIP3    H239610   2.720   2.989   7.233
13245TIP3   OH239611   2.902   3.036   7.257
13245TIP3    H139612   2.919   2.943   7.241
13245TIP3    H239613   2.957   3.059   7.331
13246TIP3   OH239614   3.464   1.685   7.342
13246TIP3    H139615   3.421   1.615   7.390
13246TIP3    H239616   3.532   1.641   7.292
13247TIP3   OH239617   3.967   1.600   7.231
13247TIP3    H139618   4.002   1.650   7.157
13247TIP3    H239619   3.874   1.623   7.232
13248TIP3   OH239620   4.081   1.674   6.993
13248TIP3    H139621   4.149   1.613   6.966
13248TIP3    H239622   4.120   1.761   6.981
13249TIP3   OH239623   2.700   1.384   7.324
13249TIP3    H139624   2.611   1.352   7.336
13249TIP3    H239625   2.753   1.305   7.317
13250TIP3   OH239626   2.533   1.303   7.001
13250TIP3    H139627   2.555   1.348   6.920
13250TIP3    H239628   2.495   1.371   7.057
13251TIP3   OH239629   3.185   1.422   7.231
13251TIP3    H139630   3.230   1.468   7.160
13251TIP3    H239631   3.227   1.454   7.311
13252TIP3   OH239632   3.677   1.563   7.216
13252TIP3    H139633   3.691   1.528   7.128
13252TIP3    H239634   3.686   1.487   7.273
13253TIP3   OH239635   3.738   1.520   6.779
13253TIP3    H139636   3.658   1.568   6.803
13253TIP3    H239637   3.726   1.433   6.817
13254TIP3   OH239638   2.191   2.865   6.755
13254TIP3    H139639   2.108   2.835   6.718
13254TIP3    H239640   2.200   2.955   6.724
13255TIP3   OH239641   2.631   1.422   6.756
13255TIP3    H139642   2.677   1.361   6.697
13255TIP3    H239643   2.701   1.479   6.790
13256TIP3   OH239644   3.115   1.617   6.853
13256TIP3    H139645   3.175   1.565   6.905
13256TIP3    H239646   3.131   1.708   6.880
13257TIP3   OH239647   3.003   3.014   6.352
13257TIP3    H139648   3.085   3.042   6.312
13257TIP3    H239649   2.971   2.945   6.294
13258TIP3   OH239650   3.704   3.156   6.450
13258TIP3    H139651   3.697   3.061   6.440
13258TIP3    H239652   3.663   3.192   6.371
13259TIP3   OH239653   6.133   6.352   0.130
13259TIP3    H139654   6.085   6.320   0.206
13259TIP3    H239655   6.159   6.272   0.084
13260TIP3   OH239656   6.561   6.305   0.312
13260TIP3    H139657   6.624   6.292   0.241
13260TIP3    H239658   6.553   6.220   0.354
13261TIP3   OH239659   2.307   2.855   6.403
13261TIP3    H139660   2.310   2.872   6.497
13261TIP3    H239661   2.389   2.809   6.385
13262TIP3   OH239662   7.277   6.389   0.100
13262TIP3    H139663   7.299   6.370   0.191
13262TIP3    H239664   7.361   6.382   0.054
13263TIP3   OH239665   3.904   3.272   7.589
13263TIP3    H139666   3.934   3.290   7.500
13263TIP3    H239667   3.901   3.357   7.632
13264TIP3   OH239668   5.196   2.678   6.373
13264TIP3    H139669   5.159   2.765   6.357
13264TIP3    H239670   5.128   2.618   6.343
13265TIP3   OH239671   5.199   2.673   6.799
13265TIP3    H139672   5.251   2.657   6.878
13265TIP3    H239673   5.153   2.591   6.783
13266TIP3   OH239674   4.488   2.540   7.152
13266TIP3    H139675   4.528   2.483   7.218
13266TIP3    H239676   4.561   2.564   7.094
13267TIP3   OH239677   5.466   2.981   6.467
13267TIP3    H139678   5.450   2.917   6.536
13267TIP3    H239679   5.486   3.062   6.513
13268TIP3   OH239680   4.465   2.955   6.860
13268TIP3    H139681   4.455   2.861   6.846
13268TIP3    H239682   4.558   2.972   6.846
13269TIP3   OH239683   4.166   2.164   6.619
13269TIP3    H139684   4.131   2.250   6.642
13269TIP3    H239685   4.093   2.119   6.577
13270TIP3   OH239686   4.248   2.485   6.846
13270TIP3    H139687   4.300   2.407   6.866
13270TIP3    H239688   4.313   2.551   6.821
13271TIP3   OH239689   5.110   3.414   6.481
13271TIP3    H139690   5.143   3.345   6.423
13271TIP3    H239691   5.085   3.368   6.561
13272TIP3   OH239692   4.998   2.893   6.812
13272TIP3    H139693   5.045   2.818   6.775
13272TIP3    H239694   5.068   2.951   6.844
13273TIP3   OH239695   6.038   2.217   6.824
13273TIP3    H139696   6.054   2.301   6.867
13273TIP3    H239697   6.062   2.232   6.732
13274TIP3   OH239698   5.404   2.383   6.839
13274TIP3    H139699   5.438   2.297   6.866
13274TIP3    H239700   5.368   2.367   6.752
13275TIP3   OH239701   4.763   2.041   6.798
13275TIP3    H139702   4.743   2.115   6.741
13275TIP3    H239703   4.708   1.970   6.766
13276TIP3   OH239704   5.462   2.147   6.435
13276TIP3    H139705   5.525   2.141   6.507
13276TIP3    H239706   5.512   2.182   6.362
13277TIP3   OH239707   4.387   2.258   6.929
13277TIP3    H139708   4.471   2.240   6.971
13277TIP3    H239709   4.391   2.208   6.847
13278TIP3   OH239710   4.805   2.458   6.747
13278TIP3    H139711   4.900   2.443   6.753
13278TIP3    H239712   4.770   2.377   6.712
13279TIP3   OH239713   6.092   2.437   6.988
13279TIP3    H139714   6.004   2.475   6.982
13279TIP3    H239715   6.128   2.474   7.069
13280TIP3   OH239716   4.745   2.048   7.251
13280TIP3    H139717   4.696   2.084   7.177
13280TIP3    H239718   4.690   2.064   7.327
13281TIP3   OH239719   5.050   2.884   6.259
13281TIP3    H139720   5.038   2.880   6.164
13281TIP3    H239721   5.012   2.968   6.285
13282TIP3   OH239722   4.839   2.818   7.025
13282TIP3    H139723   4.785   2.891   7.054
13282TIP3    H239724   4.888   2.852   6.950
13283TIP3   OH239725   5.620   2.165   6.659
13283TIP3    H139726   5.576   2.144   6.741
13283TIP3    H239727   5.675   2.240   6.679
13284TIP3   OH239728   4.634   2.152   7.019
13284TIP3    H139729   4.688   2.228   7.041
13284TIP3    H239730   4.680   2.109   6.947
13285TIP3   OH239731   4.684   3.027   7.121
13285TIP3    H139732   4.669   3.113   7.082
13285TIP3    H239733   4.606   3.009   7.173
13286TIP3   OH239734   4.055   2.724   6.376
13286TIP3    H139735   4.023   2.745   6.288
13286TIP3    H239736   4.076   2.808   6.415
13287TIP3   OH239737   5.507   3.226   6.611
13287TIP3    H139738   5.422   3.217   6.655
13287TIP3    H239739   5.502   3.310   6.566
13288TIP3   OH239740   5.838   2.101   6.989
13288TIP3    H139741   5.753   2.127   6.953
13288TIP3    H239742   5.902   2.131   6.923
13289TIP3   OH239743   5.086   1.739   6.985
13289TIP3    H139744   5.079   1.647   7.010
13289TIP3    H239745   5.009   1.781   7.023
13290TIP3   OH239746   5.207   3.252   6.272
13290TIP3    H139747   5.258   3.172   6.258
13290TIP3    H239748   5.265   3.323   6.244
13291TIP3   OH239749   5.363   3.035   6.213
13291TIP3    H139750   5.369   2.958   6.156
13291TIP3    H239751   5.401   3.008   6.296
13292TIP3   OH239752   5.746   3.110   6.963
13292TIP3    H139753   5.723   3.039   6.903
13292TIP3    H239754   5.729   3.190   6.913
13293TIP3   OH239755   5.029   2.519   6.215
13293TIP3    H139756   4.949   2.570   6.201
13293TIP3    H239757   5.075   2.524   6.131
13294TIP3   OH239758   5.008   2.324   5.920
13294TIP3    H139759   5.076   2.378   5.961
13294TIP3    H239760   5.056   2.257   5.872
13295TIP3   OH239761   5.912   2.778   6.825
13295TIP3    H139762   5.827   2.823   6.823
13295TIP3    H239763   5.949   2.793   6.738
13296TIP3   OH239764   5.382   2.611   6.184
13296TIP3    H139765   5.326   2.639   6.257
13296TIP3    H239766   5.465   2.588   6.225
13297TIP3   OH239767   5.612   2.639   7.136
13297TIP3    H139768   5.607   2.722   7.183
13297TIP3    H239769   5.531   2.635   7.086
13298TIP3   OH239770   4.608   2.592   6.589
13298TIP3    H139771   4.578   2.533   6.520
13298TIP3    H239772   4.683   2.547   6.628
13299TIP3   OH239773   4.733   3.004   6.754
13299TIP3    H139774   4.712   3.002   6.660
13299TIP3    H239775   4.823   2.972   6.759
13300TIP3   OH239776   4.700   2.588   6.969
13300TIP3    H139777   4.739   2.553   6.889
13300TIP3    H239778   4.749   2.668   6.986
13301TIP3   OH239779   5.278   3.216   6.755
13301TIP3    H139780   5.255   3.299   6.797
13301TIP3    H239781   5.250   3.149   6.817
13302TIP3   OH239782   4.881   3.121   7.293
13302TIP3    H139783   4.820   3.183   7.334
13302TIP3    H239784   4.827   3.074   7.230
13303TIP3   OH239785   5.229   2.474   6.002
13303TIP3    H139786   5.284   2.531   6.055
13303TIP3    H239787   5.261   2.486   5.912
13304TIP3   OH239788   4.636   2.675   7.447
13304TIP3    H139789   4.636   2.770   7.458
13304TIP3    H239790   4.544   2.653   7.430
13305TIP3   OH239791   4.954   3.144   6.280
13305TIP3    H139792   5.040   3.185   6.284
13305TIP3    H239793   4.899   3.208   6.234
13306TIP3   OH239794   4.673   3.288   7.366
13306TIP3    H139795   4.649   3.304   7.275
13306TIP3    H239796   4.590   3.278   7.412
13307TIP3   OH239797   5.722   1.699   6.081
13307TIP3    H139798   5.646   1.721   6.135
13307TIP3    H239799   5.735   1.776   6.025
13308TIP3   OH239800   4.493   2.438   6.376
13308TIP3    H139801   4.414   2.487   6.352
13308TIP3    H239802   4.462   2.349   6.391
13309TIP3   OH239803   5.478   3.016   5.670
13309TIP3    H139804   5.530   3.057   5.601
13309TIP3    H239805   5.490   2.922   5.657
13310TIP3   OH239806   4.264   2.835   7.328
13310TIP3    H139807   4.197   2.817   7.261
13310TIP3    H239808   4.300   2.749   7.350
13311TIP3   OH239809   4.174   2.998   6.978
13311TIP3    H139810   4.255   2.979   6.930
13311TIP3    H239811   4.197   3.072   7.034
13312TIP3   OH239812   5.968   3.499   7.024
13312TIP3    H139813   5.974   3.404   7.033
13312TIP3    H239814   5.888   3.523   7.070
13313TIP3   OH239815   5.085   3.263   7.174
13313TIP3    H139816   5.072   3.355   7.195
13313TIP3    H239817   5.011   3.218   7.214
13314TIP3   OH239818   4.853   3.366   6.106
13314TIP3    H139819   4.802   3.348   6.027
13314TIP3    H239820   4.817   3.449   6.139
13315TIP3   OH239821   4.275   3.229   6.470
13315TIP3    H139822   4.326   3.215   6.550
13315TIP3    H239823   4.231   3.145   6.455
13316TIP3   OH239824   5.062   3.288   5.730
13316TIP3    H139825   5.116   3.217   5.696
13316TIP3    H239826   5.094   3.302   5.819
13317TIP3   OH239827   5.106   3.340   6.001
13317TIP3    H139828   5.020   3.342   6.043
13317TIP3    H239829   5.165   3.308   6.069
13318TIP3   OH239830   5.857   2.601   7.297
13318TIP3    H139831   5.774   2.609   7.250
13318TIP3    H239832   5.876   2.507   7.295
13319TIP3   OH239833   4.468   3.015   7.294
13319TIP3    H139834   4.520   3.006   7.374
13319TIP3    H239835   4.397   2.952   7.304
13320TIP3   OH239836   4.847   1.830   7.108
13320TIP3    H139837   4.763   1.798   7.075
13320TIP3    H239838   4.826   1.912   7.153
13321TIP3   OH239839   5.395   1.950   7.310
13321TIP3    H139840   5.466   1.927   7.370
13321TIP3    H239841   5.315   1.935   7.359
13322TIP3   OH239842   5.610   2.372   7.222
13322TIP3    H139843   5.571   2.368   7.309
13322TIP3    H239844   5.597   2.463   7.195
13323TIP3   OH239845   5.329   2.485   5.743
13323TIP3    H139846   5.295   2.460   5.658
13323TIP3    H239847   5.389   2.558   5.725
13324TIP3   OH239848   5.003   1.868   6.079
13324TIP3    H139849   4.965   1.875   6.167
13324TIP3    H239850   4.965   1.787   6.044
13325TIP3   OH239851   4.787   2.364   7.109
13325TIP3    H139852   4.745   2.372   7.195
13325TIP3    H239853   4.763   2.445   7.063
13326TIP3   OH239854   4.668   2.242   6.638
13326TIP3    H139855   4.578   2.219   6.662
13326TIP3    H239856   4.677   2.210   6.548
13327TIP3   OH239857   5.147   2.315   6.357
13327TIP3    H139858   5.100   2.388   6.316
13327TIP3    H239859   5.208   2.284   6.290
13328TIP3   OH239860   5.341   2.584   7.437
13328TIP3    H139861   5.313   2.516   7.499
13328TIP3    H239862   5.433   2.598   7.458
13329TIP3   OH239863   5.311   2.331   6.587
13329TIP3    H139864   5.245   2.355   6.522
13329TIP3    H239865   5.359   2.259   6.546
13330TIP3   OH239866   4.622   2.371   7.333
13330TIP3    H139867   4.674   2.425   7.392
13330TIP3    H239868   4.604   2.291   7.382
13331TIP3   OH239869   4.666   1.850   6.052
13331TIP3    H139870   4.658   1.858   6.147
13331TIP3    H239871   4.588   1.896   6.019
13332TIP3   OH239872   4.215   1.897   6.924
13332TIP3    H139873   4.285   1.936   6.977
13332TIP3    H239874   4.252   1.891   6.836
13333TIP3   OH239875   4.118   1.876   6.418
13333TIP3    H139876   4.162   1.912   6.342
13333TIP3    H239877   4.055   1.944   6.443
13334TIP3   OH239878   5.361   2.583   7.016
13334TIP3    H139879   5.383   2.517   6.951
13334TIP3    H239880   5.316   2.535   7.085
13335TIP3   OH239881   5.032   2.031   6.687
13335TIP3    H139882   4.953   2.031   6.742
13335TIP3    H239883   5.104   2.024   6.748
13336TIP3   OH239884   4.428   2.117   6.697
13336TIP3    H139885   4.340   2.122   6.659
13336TIP3    H239886   4.457   2.028   6.679
13337TIP3   OH239887   4.682   2.120   6.391
13337TIP3    H139888   4.776   2.131   6.382
13337TIP3    H239889   4.647   2.139   6.303
13338TIP3   OH239890   5.476   2.121   6.896
13338TIP3    H139891   5.458   2.138   6.988
13338TIP3    H239892   5.407   2.060   6.869
13339TIP3   OH239893   4.575   2.144   6.139
13339TIP3    H139894   4.510   2.097   6.087
13339TIP3    H239895   4.631   2.187   6.075
13340TIP3   OH239896   5.674   3.829   7.115
13340TIP3    H139897   5.670   3.848   7.021
13340TIP3    H239898   5.752   3.877   7.145
13341TIP3   OH239899   4.614   2.942   7.530
13341TIP3    H139900   4.696   2.961   7.575
13341TIP3    H239901   4.546   2.954   7.597
13342TIP3   OH239902   5.079   2.403   6.796
13342TIP3    H139903   5.146   2.357   6.745
13342TIP3    H239904   5.080   2.360   6.881
13343TIP3   OH239905   4.570   1.869   6.681
13343TIP3    H139906   4.542   1.793   6.732
13343TIP3    H239907   4.591   1.833   6.595
13344TIP3   OH239908   5.054   2.302   7.061
13344TIP3    H139909   4.967   2.335   7.082
13344TIP3    H239910   5.113   2.355   7.115
13345TIP3   OH239911   4.796   2.666   6.167
13345TIP3    H139912   4.721   2.611   6.142
13345TIP3    H239913   4.767   2.712   6.246
13346TIP3   OH239914   5.678   2.916   6.780
13346TIP3    H139915   5.712   2.967   6.707
13346TIP3    H239916   5.597   2.877   6.746
13347TIP3   OH239917   5.253   1.978   6.081
13347TIP3    H139918   5.160   1.957   6.078
13347TIP3    H239919   5.255   2.074   6.090
13348TIP3   OH239920   5.199   2.997   7.204
13348TIP3    H139921   5.254   2.992   7.282
13348TIP3    H239922   5.164   3.086   7.205
13349TIP3   OH239923   5.314   2.245   6.142
13349TIP3    H139924   5.409   2.250   6.154
13349TIP3    H239925   5.293   2.321   6.087
13350TIP3   OH239926   4.469   2.667   6.818
13350TIP3    H139927   4.507   2.655   6.731
13350TIP3    H239928   4.539   2.642   6.879
13351TIP3   OH239929   4.939   2.817   5.984
13351TIP3    H139930   4.895   2.901   5.991
13351TIP3    H239931   4.893   2.761   6.046
13352TIP3   OH239932   4.357   2.609   7.465
13352TIP3    H139933   4.372   2.580   7.555
13352TIP3    H239934   4.281   2.559   7.436
13353TIP3   OH239935   5.116   2.746   7.466
13353TIP3    H139936   5.061   2.721   7.392
13353TIP3    H239937   5.199   2.702   7.451
13354TIP3   OH239938   5.350   3.282   7.086
13354TIP3    H139939   5.255   3.271   7.090
13354TIP3    H239940   5.373   3.324   7.169
13355TIP3   OH239941   5.727   2.337   5.961
13355TIP3    H139942   5.673   2.288   5.898
13355TIP3    H239943   5.725   2.427   5.929
13356TIP3   OH239944   5.989   3.222   7.045
13356TIP3    H139945   5.897   3.197   7.052
13356TIP3    H239946   6.018   3.185   6.962
13357TIP3   OH239947   5.473   3.145   5.914
13357TIP3    H139948   5.440   3.082   5.978
13357TIP3    H239949   5.472   3.098   5.831
13358TIP3   OH239950   5.450   2.782   6.676
13358TIP3    H139951   5.360   2.761   6.701
13358TIP3    H239952   5.483   2.700   6.637
13359TIP3   OH239953   4.602   3.033   6.502
13359TIP3    H139954   4.603   3.095   6.429
13359TIP3    H239955   4.540   3.071   6.564
13360TIP3   OH239956   4.166   2.302   6.206
13360TIP3    H139957   4.208   2.385   6.226
13360TIP3    H239958   4.085   2.303   6.256
13361TIP3   OH239959   4.671   2.783   6.385
13361TIP3    H139960   4.656   2.871   6.419
13361TIP3    H239961   4.650   2.725   6.459
13362TIP3   OH239962   4.882   3.336   6.986
13362TIP3    H139963   4.899   3.392   6.910
13362TIP3    H239964   4.969   3.311   7.017
13363TIP3   OH239965   4.514   3.243   6.327
13363TIP3    H139966   4.428   3.249   6.369
13363TIP3    H239967   4.551   3.330   6.337
13364TIP3   OH239968   5.231   2.999   6.928
13364TIP3    H139969   5.220   2.995   7.023
13364TIP3    H239970   5.315   2.956   6.912
13365TIP3   OH239971   5.179   2.770   5.811
13365TIP3    H139972   5.270   2.792   5.832
13365TIP3    H239973   5.128   2.805   5.884
13366TIP3   OH239974   5.497   3.496   6.956
13366TIP3    H139975   5.423   3.438   6.975
13366TIP3    H239976   5.465   3.553   6.886
13367TIP3   OH239977   5.557   3.342   5.589
13367TIP3    H139978   5.578   3.416   5.532
13367TIP3    H239979   5.479   3.370   5.637
13368TIP3   OH239980   4.574   2.121   7.458
13368TIP3    H139981   4.478   2.128   7.463
13368TIP3    H239982   4.597   2.068   7.535
13369TIP3   OH239983   5.405   2.831   6.016
13369TIP3    H139984   5.390   2.753   6.070
13369TIP3    H239985   5.497   2.826   5.992
13370TIP3   OH239986   4.338   3.197   7.121
13370TIP3    H139987   4.374   3.132   7.181
13370TIP3    H239988   4.408   3.262   7.110
13371TIP3   OH239989   4.568   2.871   5.783
13371TIP3    H139990   4.528   2.800   5.733
13371TIP3    H239991   4.551   2.849   5.874
13372TIP3   OH239992   4.521   2.858   6.059
13372TIP3    H139993   4.582   2.830   6.128
13372TIP3    H239994   4.520   2.953   6.065
13373TIP3   OH239995   4.258   2.554   6.283
13373TIP3    H139996   4.193   2.602   6.335
13373TIP3    H239997   4.275   2.611   6.208
13374TIP3   OH239998   5.420   2.181   7.158
13374TIP3    H139999   5.497   2.228   7.189
13374TIP3    H240000   5.414   2.105   7.216
13375TIP3   OH240001   5.314   1.928   6.349
13375TIP3    H140002   5.292   1.947   6.258
13375TIP3    H240003   5.357   2.008   6.380
13376TIP3   OH240004   4.798   3.046   6.006
13376TIP3    H140005   4.714   3.067   6.046
13376TIP3    H240006   4.822   3.125   5.957
13377TIP3   OH240007   4.961   2.126   6.434
13377TIP3    H140008   5.023   2.194   6.406
13377TIP3    H240009   4.986   2.107   6.524
13378TIP3   OH240010   5.258   2.419   7.214
13378TIP3    H140011   5.286   2.464   7.294
13378TIP3    H240012   5.309   2.338   7.213
13379TIP3   OH240013   5.127   1.822   6.524
13379TIP3    H140014   5.102   1.899   6.575
13379TIP3    H240015   5.196   1.853   6.465
13380TIP3   OH240016   4.544   3.129   6.081
13380TIP3    H140017   4.528   3.201   6.020
13380TIP3    H240018   4.532   3.168   6.168
13381TIP3   OH240019   4.637   1.847   6.332
13381TIP3    H140020   4.626   1.938   6.359
13381TIP3    H240021   4.732   1.831   6.339
13382TIP3   OH240022   5.876   2.327   7.207
13382TIP3    H140023   5.781   2.331   7.217
13382TIP3    H240024   5.890   2.276   7.127
13383TIP3   OH240025   5.540   2.521   6.589
13383TIP3    H140026   5.462   2.467   6.602
13383TIP3    H240027   5.606   2.481   6.645
13384TIP3   OH240028   4.280   2.720   6.060
13384TIP3    H140029   4.349   2.786   6.069
13384TIP3    H240030   4.313   2.660   5.994
13385TIP3   OH240031   4.186   2.024   6.197
13385TIP3    H140032   4.202   2.117   6.210
13385TIP3    H240033   4.130   2.019   6.120
13386TIP3   OH240034   5.519   3.493   6.528
13386TIP3    H140035   5.476   3.544   6.459
13386TIP3    H240036   5.612   3.508   6.514
13387TIP3   OH240037   4.584   1.746   7.068
13387TIP3    H140038   4.556   1.714   6.982
13387TIP3    H240039   4.576   1.670   7.126
13388TIP3   OH240040   4.100   2.989   6.464
13388TIP3    H140041   4.074   3.036   6.543
13388TIP3    H240042   4.060   3.038   6.392
13389TIP3   OH240043   4.323   3.540   7.515
13389TIP3    H140044   4.399   3.558   7.570
13389TIP3    H240045   4.335   3.449   7.486
13390TIP3   OH240046   4.772   3.444   7.574
13390TIP3    H140047   4.866   3.429   7.581
13390TIP3    H240048   4.745   3.394   7.497
13391TIP3   OH240049   4.767   3.032   5.689
13391TIP3    H140050   4.697   2.981   5.730
13391TIP3    H240051   4.840   2.971   5.680
13392TIP3   OH240052   5.399   3.389   7.334
13392TIP3    H140053   5.415   3.320   7.398
13392TIP3    H240054   5.472   3.450   7.346
13393TIP3   OH240055   5.218   3.096   5.615
13393TIP3    H140056   5.301   3.065   5.651
13393TIP3    H240057   5.227   3.085   5.520
13394TIP3   OH240058   4.405   2.933   7.717
13394TIP3    H140059   4.431   2.841   7.727
13394TIP3    H240060   4.320   2.929   7.673
13395TIP3   OH240061   4.407   2.548   5.888
13395TIP3    H140062   4.476   2.529   5.951
13395TIP3    H240063   4.454   2.577   5.810
13396TIP3   OH240064   5.033   3.019   7.499
13396TIP3    H140065   4.990   3.042   7.416
13396TIP3    H240066   5.075   2.934   7.481
13397TIP3   OH240067   4.905   2.782   5.704
13397TIP3    H140068   4.892   2.786   5.799
13397TIP3    H240069   4.834   2.727   5.671
13398TIP3   OH240070   5.512   3.056   7.107
13398TIP3    H140071   5.591   3.085   7.060
13398TIP3    H240072   5.450   3.128   7.096
13399TIP3   OH240073   4.524   2.680   7.721
13399TIP3    H140074   4.594   2.670   7.656
13399TIP3    H240075   4.569   2.701   7.802
13400TIP3   OH240076   4.591   2.485   6.102
13400TIP3    H140077   4.564   2.459   6.190
13400TIP3    H240078   4.637   2.409   6.068
13401TIP3   OH240079   4.861   2.533   7.368
13401TIP3    H140080   4.794   2.595   7.397
13401TIP3    H240081   4.913   2.581   7.304
13402TIP3   OH240082   4.734   2.283   5.961
13402TIP3    H140083   4.716   2.269   5.868
13402TIP3    H240084   4.829   2.299   5.965
13403TIP3   OH240085   5.392   2.938   7.464
13403TIP3    H140086   5.461   2.900   7.409
13403TIP3    H240087   5.390   2.882   7.541
13404TIP3   OH240088   4.996   2.328   7.491
13404TIP3    H140089   5.003   2.256   7.429
13404TIP3    H240090   4.955   2.399   7.441
13405TIP3   OH240091   5.006   2.130   7.288
13405TIP3    H140092   5.034   2.168   7.205
13405TIP3    H240093   4.915   2.104   7.274
13406TIP3   OH240094   5.012   2.690   7.200
13406TIP3    H140095   5.098   2.712   7.166
13406TIP3    H240096   4.950   2.735   7.142
13407TIP3   OH240097   5.606   2.620   7.539
13407TIP3    H140098   5.655   2.538   7.547
13407TIP3    H240099   5.674   2.687   7.529
13408TIP3   OH240100   5.629   2.882   7.279
13408TIP3    H140101   5.576   2.943   7.227
13408TIP3    H240102   5.718   2.896   7.249
13409TIP3   OH240103   4.880   2.412   7.733
13409TIP3    H140104   4.811   2.348   7.751
13409TIP3    H240105   4.910   2.391   7.645
13410TIP3   OH240106   5.128   1.899   7.388
13410TIP3    H140107   5.089   1.980   7.355
13410TIP3    H240108   5.061   1.832   7.375
13411TIP3   OH240109   5.252   2.375   7.592
13411TIP3    H140110   5.245   2.363   7.687
13411TIP3    H240111   5.165   2.354   7.559
13412TIP3   OH240112   5.497   2.324   7.462
13412TIP3    H140113   5.419   2.326   7.518
13412TIP3    H240114   5.569   2.304   7.522
13413TIP3   OH240115   5.733   2.294   7.611
13413TIP3    H140116   5.748   2.199   7.620
13413TIP3    H240117   5.729   2.325   7.702
13414TIP3   OH240118   4.714   2.193   7.798
13414TIP3    H140119   4.721   2.105   7.760
13414TIP3    H240120   4.756   2.185   7.884
13415TIP3   OH240121   5.194   1.877   7.653
13415TIP3    H140122   5.264   1.812   7.650
13415TIP3    H240123   5.165   1.887   7.562
13416TIP3   OH240124   5.290   2.099   7.785
13416TIP3    H140125   5.258   2.026   7.733
13416TIP3    H240126   5.215   2.158   7.791
13417TIP3   OH240127   4.549   3.336   5.897
13417TIP3    H140128   4.638   3.317   5.868
13417TIP3    H240129   4.510   3.385   5.825
13418TIP3   OH240130   4.007   2.726   6.080
13418TIP3    H140131   4.102   2.736   6.076
13418TIP3    H240132   3.990   2.640   6.043
13419TIP3   OH240133   3.909   3.309   6.552
13419TIP3    H140134   3.848   3.252   6.506
13419TIP3    H240135   3.962   3.250   6.606
13420TIP3   OH240136   4.066   3.140   6.712
13420TIP3    H140137   4.054   3.074   6.780
13420TIP3    H240138   4.126   3.204   6.751
13421TIP3   OH240139   5.788   3.549   6.522
13421TIP3    H140140   5.802   3.575   6.613
13421TIP3    H240141   5.836   3.615   6.471
13422TIP3   OH240142   5.801   3.577   6.800
13422TIP3    H140143   5.757   3.492   6.801
13422TIP3    H240144   5.872   3.568   6.864
13423TIP3   OH240145   5.869   3.276   7.372
13423TIP3    H140146   5.795   3.286   7.432
13423TIP3    H240147   5.914   3.361   7.375
13424TIP3   OH240148   5.685   2.794   6.003
13424TIP3    H140149   5.743   2.863   5.972
13424TIP3    H240150   5.733   2.751   6.074
13425TIP3   OH240151   5.822   2.643   6.191
13425TIP3    H140152   5.752   2.610   6.248
13425TIP3    H240153   5.884   2.684   6.251
13426TIP3   OH240154   5.861   3.057   6.621
13426TIP3    H140155   5.912   2.991   6.574
13426TIP3    H240156   5.860   3.133   6.562
13427TIP3   OH240157   5.669   3.330   6.815
13427TIP3    H140158   5.601   3.378   6.863
13427TIP3    H240159   5.623   3.292   6.741
13428TIP3   OH240160   5.711   2.581   5.829
13428TIP3    H140161   5.651   2.606   5.759
13428TIP3    H240162   5.702   2.651   5.894
13429TIP3   OH240163   5.588   2.209   5.765
13429TIP3    H140164   5.530   2.256   5.705
13429TIP3    H240165   5.573   2.117   5.745
13430TIP3   OH240166   5.608   2.515   6.321
13430TIP3    H140167   5.611   2.421   6.305
13430TIP3    H240168   5.587   2.524   6.414
13431TIP3   OH240169   4.220   2.556   7.109
13431TIP3    H140170   4.213   2.536   7.015
13431TIP3    H240171   4.315   2.561   7.125
13432TIP3   OH240172   5.883   2.928   7.178
13432TIP3    H140173   5.953   2.866   7.159
13432TIP3    H240174   5.875   2.981   7.099
13433TIP3   OH240175   6.070   2.720   7.171
13433TIP3    H140176   5.996   2.681   7.218
13433TIP3    H240177   6.144   2.665   7.193
13434TIP3   OH240178   5.541   1.936   5.737
13434TIP3    H140179   5.600   1.918   5.811
13434TIP3    H240180   5.455   1.908   5.769
13435TIP3   OH240181   5.604   2.239   6.204
13435TIP3    H140182   5.650   2.157   6.215
13435TIP3    H240183   5.645   2.280   6.128
13436TIP3   OH240184   5.756   2.398   6.730
13436TIP3    H140185   5.836   2.416   6.681
13436TIP3    H240186   5.770   2.439   6.816
13437TIP3   OH240187   5.831   2.549   6.957
13437TIP3    H140188   5.759   2.577   7.014
13437TIP3    H240189   5.860   2.629   6.914
13438TIP3   OH240190   4.451   2.250   7.735
13438TIP3    H140191   4.545   2.248   7.754
13438TIP3    H240192   4.418   2.167   7.768
13439TIP3   OH240193   6.280   2.156   7.494
13439TIP3    H140194   6.350   2.097   7.465
13439TIP3    H240195   6.252   2.202   7.415
13440TIP3   OH240196   5.721   1.989   6.255
13440TIP3    H140197   5.766   1.974   6.338
13440TIP3    H240198   5.657   1.918   6.250
13441TIP3   OH240199   4.424   1.972   7.095
13441TIP3    H140200   4.477   1.893   7.096
13441TIP3    H240201   4.485   2.042   7.073
13442TIP3   OH240202   4.200   2.248   7.141
13442TIP3    H140203   4.256   2.230   7.065
13442TIP3    H240204   4.212   2.342   7.157
13443TIP3   OH240205   6.142   2.269   7.287
13443TIP3    H140206   6.060   2.308   7.316
13443TIP3    H240207   6.116   2.190   7.239
13444TIP3   OH240208   5.766   1.900   5.899
13444TIP3    H140209   5.816   1.841   5.842
13444TIP3    H240210   5.818   1.980   5.900
13445TIP3   OH240211   4.191   1.742   6.645
13445TIP3    H140212   4.106   1.731   6.687
13445TIP3    H240213   4.174   1.797   6.569
13446TIP3   OH240214   5.346   3.456   6.164
13446TIP3    H140215   5.403   3.449   6.088
13446TIP3    H240216   5.385   3.525   6.217
13447TIP3   OH240217   4.425   1.799   7.467
13447TIP3    H140218   4.372   1.789   7.546
13447TIP3    H240219   4.369   1.848   7.406
13448TIP3   OH240220   4.447   3.275   7.528
13448TIP3    H140221   4.359   3.240   7.536
13448TIP3    H240222   4.478   3.282   7.619
13449TIP3   OH240223   4.632   3.304   7.088
13449TIP3    H140224   4.582   3.350   7.020
13449TIP3    H240225   4.723   3.316   7.064
13450TIP3   OH240226   5.052   3.535   7.234
13450TIP3    H140227   5.089   3.532   7.322
13450TIP3    H240228   5.113   3.590   7.184
13451TIP3   OH240229   5.239   3.694   7.107
13451TIP3    H140230   5.303   3.647   7.053
13451TIP3    H240231   5.292   3.753   7.161
13452TIP3   OH240232   6.054   2.021   7.188
13452TIP3    H140233   5.969   2.018   7.145
13452TIP3    H240234   6.086   1.931   7.185
13453TIP3   OH240235   4.964   3.534   6.791
13453TIP3    H140236   4.891   3.543   6.729
13453TIP3    H240237   4.971   3.621   6.831
13454TIP3   OH240238   5.228   3.476   6.839
13454TIP3    H140239   5.135   3.493   6.822
13454TIP3    H240240   5.274   3.543   6.789
13455TIP3   OH240241   5.424   3.651   6.733
13455TIP3    H140242   5.425   3.739   6.695
13455TIP3    H240243   5.454   3.594   6.662
13456TIP3   OH240244   4.221   3.305   6.888
13456TIP3    H140245   4.263   3.265   6.964
13456TIP3    H240246   4.287   3.365   6.853
13457TIP3   OH240247   4.435   3.171   6.684
13457TIP3    H140248   4.434   3.107   6.756
13457TIP3    H240249   4.458   3.254   6.727
13458TIP3   OH240250   4.747   3.294   6.704
13458TIP3    H140251   4.750   3.201   6.729
13458TIP3    H240252   4.676   3.331   6.756
13459TIP3   OH240253   5.258   1.942   6.829
13459TIP3    H140254   5.219   1.870   6.880
13459TIP3    H240255   5.326   1.900   6.777
13460TIP3   OH240256   5.763   1.854   6.714
13460TIP3    H140257   5.801   1.904   6.642
13460TIP3    H240258   5.672   1.883   6.718
13461TIP3   OH240259   5.878   1.932   6.478
13461TIP3    H140260   5.947   1.871   6.450
13461TIP3    H240261   5.917   2.018   6.466
13462TIP3   OH240262   4.499   1.642   6.826
13462TIP3    H140263   4.409   1.609   6.835
13462TIP3    H240264   4.553   1.564   6.818
13463TIP3   OH240265   4.325   1.551   6.481
13463TIP3    H140266   4.348   1.600   6.403
13463TIP3    H240267   4.285   1.616   6.539
13464TIP3   OH240268   4.983   1.681   6.723
13464TIP3    H140269   5.029   1.728   6.655
13464TIP3    H240270   5.023   1.711   6.805
13465TIP3   OH240271   5.471   1.826   6.698
13465TIP3    H140272   5.487   1.792   6.610
13465TIP3    H240273   5.478   1.749   6.754
13466TIP3   OH240274   5.534   1.779   6.265
13466TIP3    H140275   5.454   1.827   6.289
13466TIP3    H240276   5.522   1.692   6.304
13467TIP3   OH240277   3.994   3.123   6.250
13467TIP3    H140278   3.910   3.090   6.216
13467TIP3    H240279   3.998   3.213   6.219
13468TIP3   OH240280   4.428   1.679   6.241
13468TIP3    H140281   4.474   1.618   6.183
13468TIP3    H240282   4.496   1.735   6.276
13469TIP3   OH240283   4.913   1.873   6.342
13469TIP3    H140284   4.973   1.822   6.396
13469TIP3    H240285   4.927   1.964   6.368
13470TIP3   OH240286   4.805   3.265   5.829
13470TIP3    H140287   4.890   3.295   5.796
13470TIP3    H240288   4.783   3.190   5.773
13471TIP3   OH240289   5.502   3.416   5.936
13471TIP3    H140290   5.498   3.320   5.932
13471TIP3    H240291   5.460   3.445   5.855
13472TIP3   OH240292   4.730   1.924   7.707
13472TIP3    H140293   4.697   1.858   7.768
13472TIP3    H240294   4.823   1.932   7.729
13473TIP3   OH240295   4.979   1.929   7.828
13473TIP3    H140296   5.056   1.909   7.775
13473TIP3    H240297   4.977   1.859   7.894
13474TIP3   OH240298   4.091   3.118   5.903
13474TIP3    H140299   4.097   3.134   5.997
13474TIP3    H240300   4.174   3.075   5.881
13475TIP3   OH240301   5.797   2.023   7.622
13475TIP3    H140302   5.815   1.992   7.711
13475TIP3    H240303   5.882   2.018   7.578
13476TIP3   OH240304   5.715   3.557   7.122
13476TIP3    H140305   5.642   3.524   7.069
13476TIP3    H240306   5.700   3.651   7.128
13477TIP3   OH240307   6.995   2.940   5.861
13477TIP3    H140308   6.964   3.027   5.836
13477TIP3    H240309   6.923   2.882   5.837
13478TIP3   OH240310   6.992   2.930   6.288
13478TIP3    H140311   7.045   2.914   6.366
13478TIP3    H240312   6.947   2.847   6.272
13479TIP3   OH240313   6.291   2.791   6.631
13479TIP3    H140314   6.330   2.739   6.702
13479TIP3    H240315   6.365   2.816   6.576
13480TIP3   OH240316   7.258   3.240   5.962
13480TIP3    H140317   7.247   3.173   6.030
13480TIP3    H240318   7.280   3.320   6.009
13481TIP3   OH240319   6.286   3.219   6.316
13481TIP3    H140320   6.267   3.126   6.324
13481TIP3    H240321   6.381   3.223   6.307
13482TIP3   OH240322   5.964   2.419   6.101
13482TIP3    H140323   5.929   2.503   6.132
13482TIP3    H240324   5.892   2.378   6.054
13483TIP3   OH240325   6.049   2.739   6.329
13483TIP3    H140326   6.100   2.662   6.353
13483TIP3    H240327   6.114   2.805   6.304
13484TIP3   OH240328   6.918   3.668   5.972
13484TIP3    H140329   6.945   3.604   5.906
13484TIP3    H240330   6.920   3.620   6.055
13485TIP3   OH240331   6.800   3.152   6.291
13485TIP3    H140332   6.846   3.072   6.264
13485TIP3    H240333   6.870   3.209   6.322
13486TIP3   OH240334   7.834   2.472   6.309
13486TIP3    H140335   7.849   2.556   6.352
13486TIP3    H240336   7.860   2.487   6.218
13487TIP3   OH240337   7.203   2.641   6.327
13487TIP3    H140338   7.236   2.556   6.356
13487TIP3    H240339   7.167   2.625   6.240
13488TIP3   OH240340   6.561   2.299   6.285
13488TIP3    H140341   6.539   2.372   6.228
13488TIP3    H240342   6.504   2.227   6.254
13489TIP3   OH240343   7.258   2.401   5.923
13489TIP3    H140344   7.320   2.394   5.995
13489TIP3    H240345   7.308   2.436   5.850
13490TIP3   OH240346   6.185   2.514   6.417
13490TIP3    H140347   6.269   2.496   6.460
13490TIP3    H240348   6.189   2.463   6.336
13491TIP3   OH240349   6.603   2.714   6.232
13491TIP3    H140350   6.698   2.699   6.238
13491TIP3    H240351   6.568   2.632   6.198
13492TIP3   OH240352   7.887   2.691   6.474
13492TIP3    H140353   7.799   2.729   6.469
13492TIP3    H240354   7.925   2.729   6.553
13493TIP3   OH240355   6.541   2.304   6.739
13493TIP3    H140356   6.491   2.340   6.666
13493TIP3    H240357   6.486   2.320   6.816
13494TIP3   OH240358   6.891   3.158   5.724
13494TIP3    H140359   6.851   3.129   5.643
13494TIP3    H240360   6.838   3.233   5.751
13495TIP3   OH240361   6.632   3.081   6.500
13495TIP3    H140362   6.579   3.154   6.535
13495TIP3    H240363   6.681   3.120   6.428
13496TIP3   OH240364   7.415   2.422   6.145
13496TIP3    H140365   7.371   2.402   6.228
13496TIP3    H240366   7.471   2.498   6.166
13497TIP3   OH240367   6.433   2.410   6.507
13497TIP3    H140368   6.488   2.485   6.530
13497TIP3    H240369   6.480   2.367   6.435
13498TIP3   OH240370   6.478   3.287   6.609
13498TIP3    H140371   6.467   3.377   6.581
13498TIP3    H240372   6.398   3.265   6.656
13499TIP3   OH240373   5.855   2.983   5.885
13499TIP3    H140374   5.796   3.007   5.814
13499TIP3    H240375   5.887   3.067   5.919
13500TIP3   OH240376   7.294   3.487   6.100
13500TIP3    H140377   7.207   3.480   6.139
13500TIP3    H240378   7.293   3.571   6.054
13501TIP3   OH240379   7.635   2.360   6.476
13501TIP3    H140380   7.550   2.386   6.441
13501TIP3    H240381   7.698   2.389   6.410
13502TIP3   OH240382   6.882   1.995   6.471
13502TIP3    H140383   6.875   1.903   6.497
13502TIP3    H240384   6.805   2.037   6.511
13503TIP3   OH240385   7.005   3.517   5.754
13503TIP3    H140386   7.057   3.438   5.744
13503TIP3    H240387   7.063   3.588   5.727
13504TIP3   OH240388   7.141   3.284   5.715
13504TIP3    H140389   7.066   3.226   5.716
13504TIP3    H240390   7.191   3.262   5.794
13505TIP3   OH240391   7.528   3.376   6.444
13505TIP3    H140392   7.512   3.301   6.387
13505TIP3    H240393   7.513   3.453   6.389
13506TIP3   OH240394   6.820   2.777   5.715
13506TIP3    H140395   6.737   2.821   5.698
13506TIP3    H240396   6.866   2.780   5.631
13507TIP3   OH240397   6.782   2.590   5.405
13507TIP3    H140398   6.848   2.638   5.456
13507TIP3    H240399   6.832   2.521   5.361
13508TIP3   OH240400   7.709   3.032   6.311
13508TIP3    H140401   7.625   3.078   6.310
13508TIP3    H240402   7.746   3.048   6.224
13509TIP3   OH240403   7.179   2.864   5.673
13509TIP3    H140404   7.125   2.895   5.746
13509TIP3    H240405   7.263   2.842   5.714
13510TIP3   OH240406   7.408   2.895   6.624
13510TIP3    H140407   7.405   2.979   6.670
13510TIP3    H240408   7.327   2.892   6.574
13511TIP3   OH240409   6.404   2.847   6.079
13511TIP3    H140410   6.366   2.788   6.014
13511TIP3    H240411   6.476   2.798   6.117
13512TIP3   OH240412   6.548   3.270   6.220
13512TIP3    H140413   6.523   3.257   6.128
13512TIP3    H240414   6.635   3.231   6.227
13513TIP3   OH240415   6.504   2.843   6.456
13513TIP3    H140416   6.542   2.807   6.376
13513TIP3    H240417   6.551   2.925   6.471
13514TIP3   OH240418   7.056   3.481   6.231
13514TIP3    H140419   7.043   3.561   6.281
13514TIP3    H240420   7.040   3.410   6.294
13515TIP3   OH240421   6.676   3.380   6.780
13515TIP3    H140422   6.617   3.438   6.827
13515TIP3    H240423   6.620   3.331   6.721
13516TIP3   OH240424   7.009   2.727   5.505
13516TIP3    H140425   7.069   2.785   5.552
13516TIP3    H240426   7.039   2.731   5.414
13517TIP3   OH240427   6.429   2.923   6.923
13517TIP3    H140428   6.433   3.018   6.937
13517TIP3    H240429   6.336   2.903   6.915
13518TIP3   OH240430   6.756   3.398   5.764
13518TIP3    H140431   6.838   3.448   5.769
13518TIP3    H240432   6.696   3.455   5.718
13519TIP3   OH240433   6.472   3.539   6.878
13519TIP3    H140434   6.448   3.555   6.787
13519TIP3    H240435   6.388   3.523   6.923
13520TIP3   OH240436   7.517   1.956   5.565
13520TIP3    H140437   7.441   1.977   5.620
13520TIP3    H240438   7.528   2.033   5.509
13521TIP3   OH240439   6.271   2.695   5.875
13521TIP3    H140440   6.195   2.744   5.844
13521TIP3    H240441   6.236   2.608   5.897
13522TIP3   OH240442   7.343   3.329   5.120
13522TIP3    H140443   7.336   3.422   5.102
13522TIP3    H240444   7.433   3.307   5.097
13523TIP3   OH240445   6.061   3.095   6.815
13523TIP3    H140446   5.991   3.078   6.752
13523TIP3    H240447   6.095   3.008   6.837
13524TIP3   OH240448   5.901   3.297   6.474
13524TIP3    H140449   5.991   3.325   6.495
13524TIP3    H240450   5.847   3.372   6.495
13525TIP3   OH240451   7.758   3.737   6.515
13525TIP3    H140452   7.763   3.642   6.529
13525TIP3    H240453   7.679   3.764   6.562
13526TIP3   OH240454   6.867   3.523   6.642
13526TIP3    H140455   6.857   3.615   6.669
13526TIP3    H240456   6.799   3.477   6.690
13527TIP3   OH240457   6.647   3.623   5.593
13527TIP3    H140458   6.599   3.603   5.512
13527TIP3    H240459   6.610   3.706   5.623
13528TIP3   OH240460   6.082   3.478   5.971
13528TIP3    H140461   6.125   3.470   6.056
13528TIP3    H240462   6.032   3.397   5.962
13529TIP3   OH240463   6.849   3.556   5.219
13529TIP3    H140464   6.899   3.483   5.185
13529TIP3    H240465   6.883   3.570   5.307
13530TIP3   OH240466   6.900   3.599   5.489
13530TIP3    H140467   6.814   3.602   5.530
13530TIP3    H240468   6.957   3.563   5.557
13531TIP3   OH240469   7.650   2.852   6.787
13531TIP3    H140470   7.568   2.862   6.738
13531TIP3    H240471   7.669   2.758   6.782
13532TIP3   OH240472   6.254   3.288   6.773
13532TIP3    H140473   6.306   3.275   6.852
13532TIP3    H240474   6.183   3.224   6.780
13533TIP3   OH240475   6.645   2.086   6.597
13533TIP3    H140476   6.561   2.054   6.565
13533TIP3    H240477   6.623   2.167   6.643
13534TIP3   OH240478   7.189   2.209   6.797
13534TIP3    H140479   7.259   2.184   6.857
13534TIP3    H240480   7.109   2.193   6.847
13535TIP3   OH240481   7.407   2.629   6.710
13535TIP3    H140482   7.367   2.624   6.797
13535TIP3    H240483   7.393   2.719   6.682
13536TIP3   OH240484   7.087   2.692   5.239
13536TIP3    H140485   7.044   2.701   5.154
13536TIP3    H240486   7.168   2.742   5.230
13537TIP3   OH240487   6.796   2.129   5.563
13537TIP3    H140488   6.761   2.136   5.652
13537TIP3    H240489   6.759   2.048   5.529
13538TIP3   OH240490   6.585   2.621   6.604
13538TIP3    H140491   6.540   2.628   6.688
13538TIP3    H240492   6.564   2.702   6.558
13539TIP3   OH240493   6.463   2.499   6.125
13539TIP3    H140494   6.373   2.476   6.150
13539TIP3    H240495   6.472   2.465   6.036
13540TIP3   OH240496   6.943   2.573   5.852
13540TIP3    H140497   6.896   2.646   5.812
13540TIP3    H240498   7.002   2.542   5.783
13541TIP3   OH240499   7.131   2.839   6.926
13541TIP3    H140500   7.103   2.772   6.987
13541TIP3    H240501   7.223   2.854   6.946
13542TIP3   OH240502   7.112   2.588   6.075
13542TIP3    H140503   7.043   2.609   6.012
13542TIP3    H240504   7.159   2.514   6.036
13543TIP3   OH240505   6.424   2.635   6.826
13543TIP3    H140506   6.433   2.700   6.895
13543TIP3    H240507   6.405   2.554   6.871
13544TIP3   OH240508   6.458   2.110   5.537
13544TIP3    H140509   6.451   2.115   5.633
13544TIP3    H240510   6.380   2.155   5.505
13545TIP3   OH240511   6.012   2.154   6.410
13545TIP3    H140512   6.082   2.192   6.463
13545TIP3    H240513   6.049   2.152   6.321
13546TIP3   OH240514   5.914   2.137   5.903
13546TIP3    H140515   5.959   2.173   5.827
13546TIP3    H240516   5.850   2.205   5.928
13547TIP3   OH240517   7.156   2.842   6.503
13547TIP3    H140518   7.180   2.775   6.438
13547TIP3    H240519   7.112   2.794   6.572
13548TIP3   OH240520   6.828   2.287   6.174
13548TIP3    H140521   6.750   2.288   6.229
13548TIP3    H240522   6.901   2.279   6.236
13549TIP3   OH240523   6.224   2.374   6.185
13549TIP3    H140524   6.136   2.378   6.146
13549TIP3    H240525   6.253   2.285   6.167
13550TIP3   OH240526   6.478   2.374   5.880
13550TIP3    H140527   6.572   2.386   5.870
13550TIP3    H240528   6.441   2.392   5.794
13551TIP3   OH240529   7.271   2.378   6.382
13551TIP3    H140530   7.254   2.394   6.475
13551TIP3    H240531   7.202   2.317   6.355
13552TIP3   OH240532   6.364   2.395   5.632
13552TIP3    H140533   6.298   2.350   5.580
13552TIP3    H240534   6.417   2.444   5.568
13553TIP3   OH240535   7.475   4.083   6.605
13553TIP3    H140536   7.471   4.099   6.511
13553TIP3    H240537   7.554   4.128   6.635
13554TIP3   OH240538   6.412   3.197   7.002
13554TIP3    H140539   6.491   3.229   7.045
13554TIP3    H240540   6.344   3.204   7.069
13555TIP3   OH240541   6.876   2.661   6.283
13555TIP3    H140542   6.944   2.612   6.236
13555TIP3    H240543   6.874   2.621   6.370
13556TIP3   OH240544   6.367   2.127   6.169
13556TIP3    H140545   6.338   2.051   6.221
13556TIP3    H240546   6.388   2.090   6.083
13557TIP3   OH240547   6.851   2.565   6.548
13557TIP3    H140548   6.764   2.597   6.571
13557TIP3    H240549   6.912   2.616   6.601
13558TIP3   OH240550   6.583   2.912   5.661
13558TIP3    H140551   6.507   2.860   5.636
13558TIP3    H240552   6.557   2.955   5.743
13559TIP3   OH240553   7.475   3.172   6.267
13559TIP3    H140554   7.511   3.221   6.193
13559TIP3    H240555   7.395   3.131   6.231
13560TIP3   OH240556   7.048   2.235   5.561
13560TIP3    H140557   6.955   2.213   5.561
13560TIP3    H240558   7.050   2.329   5.577
13561TIP3   OH240559   6.992   3.255   6.678
13561TIP3    H140560   7.045   3.245   6.757
13561TIP3    H240561   6.954   3.343   6.686
13562TIP3   OH240562   7.107   2.497   5.636
13562TIP3    H140563   7.202   2.502   5.648
13562TIP3    H240564   7.086   2.576   5.586
13563TIP3   OH240565   6.272   2.928   6.309
13563TIP3    H140566   6.310   2.911   6.222
13563TIP3    H240567   6.340   2.899   6.370
13564TIP3   OH240568   6.735   3.076   5.504
13564TIP3    H140569   6.688   3.159   5.501
13564TIP3    H240570   6.679   3.019   5.557
13565TIP3   OH240571   6.155   2.857   6.941
13565TIP3    H140572   6.154   2.830   7.033
13565TIP3    H240573   6.080   2.812   6.902
13566TIP3   OH240574   6.899   2.997   6.957
13566TIP3    H140575   6.830   2.936   6.931
13566TIP3    H240576   6.980   2.954   6.930
13567TIP3   OH240577   7.137   3.543   6.564
13567TIP3    H140578   7.043   3.531   6.569
13567TIP3    H240579   7.161   3.581   6.649
13568TIP3   OH240580   7.521   2.583   5.452
13568TIP3    H140581   7.466   2.536   5.389
13568TIP3    H240582   7.526   2.672   5.418
13569TIP3   OH240583   7.772   3.457   6.537
13569TIP3    H140584   7.678   3.441   6.528
13569TIP3    H240585   7.809   3.430   6.453
13570TIP3   OH240586   7.264   3.402   5.388
13570TIP3    H140587   7.235   3.335   5.450
13570TIP3    H240588   7.281   3.354   5.307
13571TIP3   OH240589   7.245   3.037   6.163
13571TIP3    H140590   7.155   3.015   6.189
13571TIP3    H240591   7.280   2.956   6.126
13572TIP3   OH240592   6.399   3.273   5.979
13572TIP3    H140593   6.395   3.348   5.920
13572TIP3    H240594   6.311   3.265   6.015
13573TIP3   OH240595   5.938   2.565   5.671
13573TIP3    H140596   5.984   2.646   5.693
13573TIP3    H240597   5.857   2.568   5.722
13574TIP3   OH240598   6.486   3.029   5.884
13574TIP3    H140599   6.467   3.119   5.913
13574TIP3    H240600   6.458   2.974   5.957
13575TIP3   OH240601   6.683   3.596   6.434
13575TIP3    H140602   6.717   3.670   6.384
13575TIP3    H240603   6.758   3.563   6.483
13576TIP3   OH240604   6.317   3.495   5.828
13576TIP3    H140605   6.230   3.501   5.866
13576TIP3    H240606   6.352   3.584   5.833
13577TIP3   OH240607   7.032   3.260   6.405
13577TIP3    H140608   7.018   3.255   6.499
13577TIP3    H240609   7.112   3.209   6.390
13578TIP3   OH240610   7.028   3.136   5.271
13578TIP3    H140611   7.079   3.105   5.346
13578TIP3    H240612   6.943   3.094   5.281
13579TIP3   OH240613   7.289   3.756   6.445
13579TIP3    H140614   7.218   3.694   6.463
13579TIP3    H240615   7.256   3.810   6.373
13580TIP3   OH240616   7.336   3.602   5.079
13580TIP3    H140617   7.348   3.660   5.004
13580TIP3    H240618   7.267   3.644   5.131
13581TIP3   OH240619   6.369   2.382   6.945
13581TIP3    H140620   6.274   2.391   6.951
13581TIP3    H240621   6.394   2.335   7.025
13582TIP3   OH240622   7.205   3.040   5.458
13582TIP3    H140623   7.190   2.991   5.539
13582TIP3    H240624   7.300   3.052   5.455
13583TIP3   OH240625   6.111   3.487   6.591
13583TIP3    H140626   6.163   3.429   6.646
13583TIP3    H240627   6.122   3.574   6.629
13584TIP3   OH240628   6.383   3.101   5.285
13584TIP3    H140629   6.390   3.008   5.261
13584TIP3    H240630   6.367   3.099   5.380
13585TIP3   OH240631   6.324   3.120   5.556
13585TIP3    H140632   6.380   3.093   5.628
13585TIP3    H240633   6.321   3.215   5.562
13586TIP3   OH240634   6.043   2.811   5.765
13586TIP3    H140635   5.980   2.856   5.821
13586TIP3    H240636   6.058   2.872   5.692
13587TIP3   OH240637   7.218   2.437   6.644
13587TIP3    H140638   7.294   2.484   6.677
13587TIP3    H240639   7.209   2.361   6.702
13588TIP3   OH240640   7.108   2.184   5.831
13588TIP3    H140641   7.088   2.204   5.740
13588TIP3    H240642   7.152   2.263   5.864
13589TIP3   OH240643   6.593   3.306   5.497
13589TIP3    H140644   6.508   3.329   5.535
13589TIP3    H240645   6.615   3.381   5.442
13590TIP3   OH240646   6.758   2.382   5.922
13590TIP3    H140647   6.819   2.451   5.897
13590TIP3    H240648   6.780   2.362   6.013
13591TIP3   OH240649   7.058   2.677   6.700
13591TIP3    H140650   7.082   2.720   6.782
13591TIP3    H240651   7.107   2.594   6.701
13592TIP3   OH240652   6.923   2.080   6.010
13592TIP3    H140653   6.900   2.157   6.061
13592TIP3    H240654   6.992   2.110   5.951
13593TIP3   OH240655   6.343   3.392   5.575
13593TIP3    H140656   6.322   3.464   5.515
13593TIP3    H240657   6.331   3.429   5.662
13594TIP3   OH240658   6.434   2.102   5.817
13594TIP3    H140659   6.422   2.192   5.846
13594TIP3    H240660   6.529   2.087   5.824
13595TIP3   OH240661   7.674   2.580   6.692
13595TIP3    H140662   7.578   2.585   6.702
13595TIP3    H240663   7.686   2.527   6.614
13596TIP3   OH240664   7.337   2.779   6.075
13596TIP3    H140665   7.260   2.723   6.087
13596TIP3    H240666   7.404   2.739   6.131
13597TIP3   OH240667   6.077   2.988   5.555
13597TIP3    H140668   6.148   3.051   5.560
13597TIP3    H240669   6.104   2.926   5.487
13598TIP3   OH240670   5.974   2.287   5.680
13598TIP3    H140671   5.983   2.382   5.688
13598TIP3    H240672   5.902   2.275   5.618
13599TIP3   OH240673   7.316   3.753   6.016
13599TIP3    H140674   7.275   3.805   5.947
13599TIP3    H240675   7.410   3.765   6.002
13600TIP3   OH240676   6.383   2.002   6.554
13600TIP3    H140677   6.353   1.971   6.468
13600TIP3    H240678   6.374   1.927   6.612
13601TIP3   OH240679   5.908   3.255   5.952
13601TIP3    H140680   5.863   3.293   6.028
13601TIP3    H240681   5.865   3.295   5.877
13602TIP3   OH240682   6.102   3.785   7.007
13602TIP3    H140683   6.185   3.786   7.056
13602TIP3    H240684   6.077   3.693   7.005
13603TIP3   OH240685   6.560   3.660   7.113
13603TIP3    H140686   6.655   3.677   7.111
13603TIP3    H240687   6.540   3.623   7.027
13604TIP3   OH240688   6.534   3.303   5.176
13604TIP3    H140689   6.488   3.233   5.221
13604TIP3    H240690   6.609   3.260   5.135
13605TIP3   OH240691   7.194   3.644   6.813
13605TIP3    H140692   7.205   3.573   6.876
13605TIP3    H240693   7.269   3.701   6.828
13606TIP3   OH240694   6.977   3.345   5.101
13606TIP3    H140695   7.011   3.280   5.163
13606TIP3    H240696   7.036   3.339   5.025
13607TIP3   OH240697   6.216   3.190   7.202
13607TIP3    H140698   6.231   3.096   7.211
13607TIP3    H240699   6.130   3.197   7.161
13608TIP3   OH240700   6.196   2.794   5.401
13608TIP3    H140701   6.247   2.775   5.480
13608TIP3    H240702   6.262   2.809   5.333
13609TIP3   OH240703   6.832   3.273   6.981
13609TIP3    H140704   6.787   3.296   6.900
13609TIP3    H240705   6.867   3.185   6.964
13610TIP3   OH240706   6.773   3.019   5.239
13610TIP3    H140707   6.749   3.032   5.331
13610TIP3    H240708   6.749   2.928   5.221
13611TIP3   OH240709   7.305   3.318   6.598
13611TIP3    H140710   7.383   3.345   6.549
13611TIP3    H240711   7.241   3.388   6.583
13612TIP3   OH240712   6.328   2.934   7.214
13612TIP3    H140713   6.400   2.908   7.157
13612TIP3    H240714   6.369   2.955   7.298
13613TIP3   OH240715   6.372   2.740   5.612
13613TIP3    H140716   6.347   2.712   5.701
13613TIP3    H240717   6.418   2.665   5.576
13614TIP3   OH240718   6.690   2.822   6.868
13614TIP3    H140719   6.604   2.861   6.878
13614TIP3    H240720   6.720   2.849   6.781
13615TIP3   OH240721   6.511   2.551   5.461
13615TIP3    H140722   6.481   2.557   5.370
13615TIP3    H240723   6.606   2.563   5.455
13616TIP3   OH240724   7.189   3.191   6.946
13616TIP3    H140725   7.258   3.154   6.891
13616TIP3    H240726   7.189   3.137   7.024
13617TIP3   OH240727   7.303   2.838   5.142
13617TIP3    H140728   7.292   2.800   5.055
13617TIP3    H240729   7.280   2.930   5.131
13618TIP3   OH240730   6.791   2.590   6.978
13618TIP3    H140731   6.794   2.519   6.914
13618TIP3    H240732   6.757   2.665   6.929
13619TIP3   OH240733   6.801   2.389   6.775
13619TIP3    H140734   6.828   2.427   6.691
13619TIP3    H240735   6.710   2.363   6.761
13620TIP3   OH240736   6.802   2.917   6.639
13620TIP3    H140737   6.891   2.952   6.629
13620TIP3    H240738   6.747   2.977   6.591
13621TIP3   OH240739   7.398   2.868   7.027
13621TIP3    H140740   7.436   2.782   7.043
13621TIP3    H240741   7.473   2.924   7.008
13622TIP3   OH240742   7.428   3.141   6.764
13622TIP3    H140743   7.375   3.203   6.713
13622TIP3    H240744   7.518   3.155   6.733
13623TIP3   OH240745   6.676   2.678   7.220
13623TIP3    H140746   6.608   2.614   7.242
13623TIP3    H240747   6.705   2.651   7.133
13624TIP3   OH240748   6.923   2.156   6.877
13624TIP3    H140749   6.882   2.237   6.845
13624TIP3    H240750   6.855   2.089   6.864
13625TIP3   OH240751   7.048   2.628   7.079
13625TIP3    H140752   7.038   2.616   7.173
13625TIP3    H240753   6.961   2.607   7.043
13626TIP3   OH240754   7.291   2.579   6.948
13626TIP3    H140755   7.213   2.580   7.003
13626TIP3    H240756   7.362   2.556   7.008
13627TIP3   OH240757   7.528   2.551   7.096
13627TIP3    H140758   7.543   2.456   7.104
13627TIP3    H240759   7.523   2.582   7.187
13628TIP3   OH240760   6.512   2.453   7.283
13628TIP3    H140761   6.519   2.365   7.247
13628TIP3    H240762   6.550   2.446   7.371
13629TIP3   OH240763   6.991   2.133   7.143
13629TIP3    H140764   7.061   2.069   7.137
13629TIP3    H240765   6.960   2.144   7.052
13630TIP3   OH240766   7.083   2.351   7.285
13630TIP3    H140767   7.052   2.279   7.231
13630TIP3    H240768   7.011   2.414   7.286
13631TIP3   OH240769   6.339   3.601   5.393
13631TIP3    H140770   6.428   3.581   5.363
13631TIP3    H240771   6.299   3.646   5.318
13632TIP3   OH240772   5.708   3.568   6.032
13632TIP3    H140773   5.643   3.515   5.987
13632TIP3    H240774   5.752   3.507   6.092
13633TIP3   OH240775   5.851   3.399   6.200
13633TIP3    H140776   5.841   3.331   6.267
13633TIP3    H240777   5.903   3.467   6.242
13634TIP3   OH240778   7.588   3.802   6.010
13634TIP3    H140779   7.607   3.829   6.100
13634TIP3    H240780   7.641   3.860   5.956
13635TIP3   OH240781   7.604   3.836   6.291
13635TIP3    H140782   7.557   3.753   6.286
13635TIP3    H240783   7.674   3.820   6.355
13636TIP3   OH240784   7.659   3.538   6.867
13636TIP3    H140785   7.590   3.548   6.933
13636TIP3    H240786   7.705   3.622   6.867
13637TIP3   OH240787   7.486   3.049   5.467
13637TIP3    H140788   7.541   3.122   5.439
13637TIP3    H240789   7.531   3.013   5.544
13638TIP3   OH240790   7.616   2.908   5.671
13638TIP3    H140791   7.548   2.873   5.729
13638TIP3    H240792   7.681   2.947   5.730
13639TIP3   OH240793   7.655   3.313   6.106
13639TIP3    H140794   7.708   3.245   6.065
13639TIP3    H240795   7.657   3.386   6.044
13640TIP3   OH240796   7.462   3.597   6.295
13640TIP3    H140797   7.395   3.642   6.346
13640TIP3    H240798   7.414   3.556   6.222
13641TIP3   OH240799   7.515   2.822   5.316
13641TIP3    H140800   7.441   2.823   5.256
13641TIP3    H240801   7.504   2.901   5.369
13642TIP3   OH240802   7.374   2.466   5.251
13642TIP3    H140803   7.321   2.504   5.181
13642TIP3    H240804   7.367   2.372   5.238
13643TIP3   OH240805   7.409   2.772   5.807
13643TIP3    H140806   7.413   2.677   5.794
13643TIP3    H240807   7.389   2.783   5.900
13644TIP3   OH240808   6.027   2.830   6.584
13644TIP3    H140809   6.017   2.802   6.494
13644TIP3    H240810   6.121   2.827   6.601
13645TIP3   OH240811   7.686   3.186   6.670
13645TIP3    H140812   7.752   3.118   6.654
13645TIP3    H240813   7.704   3.252   6.603
13646TIP3   OH240814   7.861   2.973   6.659
13646TIP3    H140815   7.788   2.931   6.706
13646TIP3    H240816   7.936   2.918   6.679
13647TIP3   OH240817   7.334   2.192   5.218
13647TIP3    H140818   7.396   2.173   5.289
13647TIP3    H240819   7.250   2.161   5.251
13648TIP3   OH240820   7.398   2.492   5.693
13648TIP3    H140821   7.444   2.409   5.705
13648TIP3    H240822   7.440   2.531   5.616
13649TIP3   OH240823   7.551   2.656   6.216
13649TIP3    H140824   7.632   2.674   6.168
13649TIP3    H240825   7.565   2.696   6.302
13650TIP3   OH240826   7.626   2.804   6.444
13650TIP3    H140827   7.555   2.834   6.501
13650TIP3    H240828   7.657   2.884   6.402
13651TIP3   OH240829   6.249   2.515   7.221
13651TIP3    H140830   6.342   2.513   7.242
13651TIP3    H240831   6.214   2.433   7.256
13652TIP3   OH240832   8.092   2.402   6.986
13652TIP3    H140833   8.157   2.346   6.942
13652TIP3    H240834   8.053   2.454   6.915
13653TIP3   OH240835   7.515   2.243   5.743
13653TIP3    H140836   7.561   2.229   5.826
13653TIP3    H240837   7.453   2.171   5.738
13654TIP3   OH240838   6.222   2.228   6.576
13654TIP3    H140839   6.276   2.149   6.580
13654TIP3    H240840   6.284   2.298   6.557
13655TIP3   OH240841   5.998   2.490   6.630
13655TIP3    H140842   6.052   2.481   6.552
13655TIP3    H240843   6.019   2.577   6.663
13656TIP3   OH240844   7.940   2.524   6.796
13656TIP3    H140845   7.863   2.565   6.836
13656TIP3    H240846   7.903   2.456   6.739
13657TIP3   OH240847   7.557   2.157   5.380
13657TIP3    H140848   7.607   2.096   5.326
13657TIP3    H240849   7.613   2.234   5.387
13658TIP3   OH240850   5.987   1.998   6.127
13658TIP3    H140851   5.902   1.989   6.171
13658TIP3    H240852   5.969   2.055   6.053
13659TIP3   OH240853   7.149   3.718   5.651
13659TIP3    H140854   7.205   3.709   5.574
13659TIP3    H240855   7.188   3.790   5.701
13660TIP3   OH240856   6.213   2.043   6.952
13660TIP3    H140857   6.167   2.044   7.036
13660TIP3    H240858   6.160   2.098   6.895
13661TIP3   OH240859   6.246   3.503   7.040
13661TIP3    H140860   6.153   3.492   7.020
13661TIP3    H240861   6.251   3.495   7.135
13662TIP3   OH240862   6.459   3.565   6.593
13662TIP3    H140863   6.406   3.637   6.560
13662TIP3    H240864   6.542   3.573   6.545
13663TIP3   OH240865   6.849   3.792   6.713
13663TIP3    H140866   6.887   3.787   6.801
13663TIP3    H240867   6.911   3.846   6.664
13664TIP3   OH240868   7.043   3.947   6.592
13664TIP3    H140869   7.106   3.895   6.543
13664TIP3    H240870   7.096   4.004   6.647
13665TIP3   OH240871   7.847   2.280   6.679
13665TIP3    H140872   7.762   2.278   6.635
13665TIP3    H240873   7.879   2.190   6.673
13666TIP3   OH240874   6.111   3.793   6.628
13666TIP3    H140875   6.020   3.808   6.605
13666TIP3    H240876   6.131   3.862   6.692
13667TIP3   OH240877   6.344   3.790   6.481
13667TIP3    H140878   6.260   3.793   6.527
13667TIP3    H240879   6.323   3.813   6.391
13668TIP3   OH240880   6.758   3.807   6.271
13668TIP3    H140881   6.686   3.818   6.209
13668TIP3    H240882   6.768   3.894   6.311
13669TIP3   OH240883   7.022   3.741   6.319
13669TIP3    H140884   6.930   3.762   6.299
13669TIP3    H240885   7.072   3.808   6.272
13670TIP3   OH240886   7.223   3.912   6.220
13670TIP3    H140887   7.223   4.000   6.182
13670TIP3    H240888   7.253   3.855   6.149
13671TIP3   OH240889   6.026   3.577   6.339
13671TIP3    H140890   6.047   3.552   6.429
13671TIP3    H240891   6.098   3.543   6.287
13672TIP3   OH240892   6.230   3.461   6.203
13672TIP3    H140893   6.241   3.377   6.248
13672TIP3    H240894   6.316   3.502   6.208
13673TIP3   OH240895   6.497   3.547   6.230
13673TIP3    H140896   6.518   3.455   6.215
13673TIP3    H240897   6.551   3.571   6.306
13674TIP3   OH240898   7.055   2.197   6.315
13674TIP3    H140899   7.017   2.126   6.366
13674TIP3    H240900   7.124   2.155   6.263
13675TIP3   OH240901   7.560   2.110   6.200
13675TIP3    H140902   7.597   2.161   6.128
13675TIP3    H240903   7.469   2.138   6.204
13676TIP3   OH240904   7.674   2.191   5.964
13676TIP3    H140905   7.743   2.130   5.938
13676TIP3    H240906   7.714   2.278   5.951
13677TIP3   OH240907   6.295   1.900   6.312
13677TIP3    H140908   6.206   1.866   6.322
13677TIP3    H240909   6.349   1.821   6.304
13678TIP3   OH240910   6.120   1.807   5.966
13678TIP3    H140911   6.144   1.857   5.888
13678TIP3    H240912   6.080   1.872   6.024
13679TIP3   OH240913   6.779   1.939   6.210
13679TIP3    H140914   6.827   1.987   6.142
13679TIP3    H240915   6.818   1.968   6.292
13680TIP3   OH240916   7.269   2.080   6.184
13680TIP3    H140917   7.286   2.044   6.097
13680TIP3    H240918   7.276   2.004   6.243
13681TIP3   OH240919   7.329   2.033   5.751
13681TIP3    H140920   7.249   2.080   5.776
13681TIP3    H240921   7.318   1.947   5.791
13682TIP3   OH240922   5.793   3.373   5.732
13682TIP3    H140923   5.712   3.337   5.696
13682TIP3    H240924   5.795   3.463   5.700
13683TIP3   OH240925   6.223   1.936   5.727
13683TIP3    H140926   6.269   1.875   5.669
13683TIP3    H240927   6.292   1.992   5.762
13684TIP3   OH240928   6.710   2.130   5.827
13684TIP3    H140929   6.769   2.079   5.882
13684TIP3    H240930   6.724   2.220   5.855
13685TIP3   OH240931   6.594   3.527   5.321
13685TIP3    H140932   6.677   3.555   5.283
13685TIP3    H240933   6.564   3.456   5.264
13686TIP3   OH240934   7.299   3.671   5.422
13686TIP3    H140935   7.292   3.576   5.414
13686TIP3    H240936   7.254   3.705   5.344
13687TIP3   OH240937   6.525   2.179   7.196
13687TIP3    H140938   6.489   2.117   7.259
13687TIP3    H240939   6.617   2.187   7.221
13688TIP3   OH240940   6.771   2.181   7.323
13688TIP3    H140941   6.850   2.159   7.274
13688TIP3    H240942   6.767   2.114   7.392
13689TIP3   OH240943   5.893   3.362   5.373
13689TIP3    H140944   5.891   3.373   5.468
13689TIP3    H240945   5.976   3.319   5.355
13690TIP3   OH240946   7.595   2.280   7.106
13690TIP3    H140947   7.610   2.252   7.196
13690TIP3    H240948   7.680   2.274   7.064
13691TIP3   OH240949   7.509   3.808   6.613
13691TIP3    H140950   7.435   3.779   6.560
13691TIP3    H240951   7.497   3.903   6.620
13692TIP3   OH240952   8.772   3.205   5.358
13692TIP3    H140953   8.744   3.291   5.326
13692TIP3    H240954   8.700   3.146   5.334
13693TIP3   OH240955   8.816   3.185   5.820
13693TIP3    H140956   8.846   3.161   5.908
13693TIP3    H240957   8.781   3.103   5.784
13694TIP3   OH240958   8.083   3.049   6.119
13694TIP3    H140959   8.118   2.991   6.186
13694TIP3    H240960   8.159   3.075   6.067
13695TIP3   OH240961   9.061   3.483   5.436
13695TIP3    H140962   9.036   3.421   5.504
13695TIP3    H240963   9.068   3.567   5.481
13696TIP3   OH240964   8.078   3.473   5.799
13696TIP3    H140965   8.059   3.379   5.809
13696TIP3    H240966   8.173   3.478   5.794
13697TIP3   OH240967   7.760   2.680   5.587
13697TIP3    H140968   7.724   2.764   5.614
13697TIP3    H240969   7.686   2.633   5.549
13698TIP3   OH240970   7.844   2.997   5.812
13698TIP3    H140971   7.894   2.920   5.839
13698TIP3    H240972   7.910   3.062   5.791
13699TIP3   OH240973   8.718   3.930   5.465
13699TIP3    H140974   8.742   3.862   5.402
13699TIP3    H240975   8.722   3.886   5.550
13700TIP3   OH240976   8.589   3.404   5.782
13700TIP3    H140977   8.632   3.322   5.757
13700TIP3    H240978   8.660   3.462   5.808
13701TIP3   OH240979   9.486   2.677   5.790
13701TIP3    H140980   9.526   2.734   5.856
13701TIP3    H240981   9.426   2.735   5.742
13702TIP3   OH240982   8.999   2.914   5.759
13702TIP3    H140983   9.027   2.852   5.827
13702TIP3    H240984   8.940   2.863   5.703
13703TIP3   OH240985   8.353   2.555   5.774
13703TIP3    H140986   8.334   2.629   5.716
13703TIP3    H240987   8.296   2.485   5.742
13704TIP3   OH240988   9.027   2.646   5.419
13704TIP3    H140989   9.096   2.633   5.485
13704TIP3    H240990   9.073   2.688   5.346
13705TIP3   OH240991   7.979   2.772   5.904
13705TIP3    H140992   8.062   2.755   5.948
13705TIP3    H240993   7.984   2.721   5.823
13706TIP3   OH240994   8.402   2.973   5.719
13706TIP3    H140995   8.495   2.957   5.729
13706TIP3    H240996   8.366   2.890   5.686
13707TIP3   OH240997   9.581   2.851   5.975
13707TIP3    H140998   9.565   2.946   5.979
13707TIP3    H240999   9.674   2.842   5.992
13708TIP3   OH241000   8.338   2.561   6.224
13708TIP3    H141001   8.287   2.599   6.153
13708TIP3    H241002   8.283   2.574   6.302
13709TIP3   OH241003   8.684   3.420   5.206
13709TIP3    H141004   8.644   3.388   5.125
13709TIP3    H241005   8.629   3.494   5.232
13710TIP3   OH241006   8.443   3.326   6.005
13710TIP3    H141007   8.388   3.398   6.037
13710TIP3    H241008   8.492   3.364   5.932
13711TIP3   OH241009   9.218   2.644   5.612
13711TIP3    H141010   9.161   2.633   5.688
13711TIP3    H241011   9.259   2.730   5.624
13712TIP3   OH241012   8.226   2.668   5.994
13712TIP3    H141013   8.282   2.742   6.015
13712TIP3    H241014   8.271   2.623   5.923
13713TIP3   OH241015   8.279   3.534   6.095
13713TIP3    H141016   8.265   3.623   6.063
13713TIP3    H241017   8.201   3.515   6.147
13714TIP3   OH241018   7.653   3.243   5.350
13714TIP3    H141019   7.617   3.264   5.264
13714TIP3    H241020   7.676   3.328   5.388
13715TIP3   OH241021   9.061   3.739   5.559
13715TIP3    H141022   8.979   3.729   5.607
13715TIP3    H241023   9.053   3.823   5.514
13716TIP3   OH241024   9.357   2.572   6.014
13716TIP3    H141025   9.268   2.601   6.031
13716TIP3    H241026   9.377   2.607   5.927
13717TIP3   OH241027   8.671   2.251   5.954
13717TIP3    H141028   8.667   2.160   5.982
13717TIP3    H241029   8.594   2.292   5.994
13718TIP3   OH241030   8.798   3.773   5.249
13718TIP3    H141031   8.848   3.692   5.237
13718TIP3    H241032   8.856   3.842   5.218
13719TIP3   OH241033   8.935   3.544   5.195
13719TIP3    H141034   8.859   3.485   5.195
13719TIP3    H241035   8.988   3.515   5.268
13720TIP3   OH241036   9.274   3.649   5.916
13720TIP3    H141037   9.263   3.571   5.861
13720TIP3    H241038   9.275   3.722   5.855
13721TIP3   OH241039   8.603   3.040   5.206
13721TIP3    H141040   8.521   3.085   5.186
13721TIP3    H241041   8.648   3.033   5.122
13722TIP3   OH241042   8.570   2.837   4.889
13722TIP3    H141043   8.634   2.885   4.943
13722TIP3    H241044   8.622   2.769   4.845
13723TIP3   OH241045   9.407   3.226   5.758
13723TIP3    H141046   9.351   3.303   5.767
13723TIP3    H241047   9.496   3.263   5.749
13724TIP3   OH241048   8.944   3.116   5.168
13724TIP3    H141049   8.893   3.150   5.241
13724TIP3    H241050   9.023   3.080   5.209
13725TIP3   OH241051   9.181   3.182   6.114
13725TIP3    H141052   9.172   3.266   6.159
13725TIP3    H241053   9.091   3.151   6.103
13726TIP3   OH241054   8.204   3.104   5.566
13726TIP3    H141055   8.169   3.043   5.502
13726TIP3    H241056   8.277   3.057   5.607
13727TIP3   OH241057   8.341   3.526   5.710
13727TIP3    H141058   8.322   3.511   5.617
13727TIP3    H241059   8.427   3.486   5.723
13728TIP3   OH241060   8.298   3.102   5.942
13728TIP3    H141061   8.338   3.068   5.862
13728TIP3    H241062   8.350   3.179   5.963
13729TIP3   OH241063   8.843   3.733   5.717
13729TIP3    H141064   8.831   3.811   5.771
13729TIP3    H241065   8.836   3.660   5.778
13730TIP3   OH241066   8.471   3.637   6.268
13730TIP3    H141067   8.407   3.693   6.313
13730TIP3    H241068   8.418   3.584   6.208
13731TIP3   OH241069   8.785   2.976   4.999
13731TIP3    H141070   8.843   3.034   5.048
13731TIP3    H241071   8.816   2.981   4.909
13732TIP3   OH241072   8.219   3.199   6.422
13732TIP3    H141073   8.219   3.294   6.435
13732TIP3    H241074   8.127   3.176   6.410
13733TIP3   OH241075   8.547   3.656   5.249
13733TIP3    H141076   8.628   3.706   5.260
13733TIP3    H241077   8.488   3.717   5.204
13734TIP3   OH241078   8.260   3.794   6.351
13734TIP3    H141079   8.235   3.803   6.259
13734TIP3    H241080   8.178   3.781   6.397
13735TIP3   OH241081   9.317   2.198   5.082
13735TIP3    H141082   9.233   2.216   5.125
13735TIP3    H241083   9.314   2.249   5.001
13736TIP3   OH241084   8.076   2.946   5.366
13736TIP3    H141085   7.997   2.992   5.337
13736TIP3    H241086   8.045   2.858   5.389
13737TIP3   OH241087   9.042   3.598   4.607
13737TIP3    H141088   9.055   3.689   4.581
13737TIP3    H241089   9.129   3.566   4.630
13738TIP3   OH241090   7.858   3.357   6.298
13738TIP3    H141091   7.788   3.338   6.236
13738TIP3    H241092   7.890   3.272   6.326
13739TIP3   OH241093   7.700   3.548   5.954
13739TIP3    H141094   7.791   3.572   5.974
13739TIP3    H241095   7.649   3.624   5.982
13740TIP3   OH241096   9.459   3.941   5.968
13740TIP3    H141097   9.483   3.853   5.998
13740TIP3    H241098   9.389   3.968   6.028
13741TIP3   OH241099   8.651   3.790   6.128
13741TIP3    H141100   8.644   3.880   6.160
13741TIP3    H241101   8.586   3.741   6.179
13742TIP3   OH241102   8.439   3.880   5.082
13742TIP3    H141103   8.391   3.859   5.002
13742TIP3    H241104   8.402   3.962   5.112
13743TIP3   OH241105   7.877   3.733   5.458
13743TIP3    H141106   7.921   3.725   5.542
13743TIP3    H241107   7.827   3.652   5.448
13744TIP3   OH241108   8.636   3.833   4.711
13744TIP3    H141109   8.678   3.753   4.678
13744TIP3    H241110   8.670   3.842   4.800
13745TIP3   OH241111   8.694   3.856   4.981
13745TIP3    H141112   8.607   3.857   5.022
13745TIP3    H241113   8.751   3.818   5.048
13746TIP3   OH241114   9.387   3.112   6.294
13746TIP3    H141115   9.317   3.137   6.234
13746TIP3    H241116   9.402   3.019   6.276
13747TIP3   OH241117   8.059   3.543   6.264
13747TIP3    H141118   8.107   3.534   6.346
13747TIP3    H241119   7.987   3.481   6.272
13748TIP3   OH241120   8.438   2.343   6.082
13748TIP3    H141121   8.353   2.312   6.051
13748TIP3    H241122   8.418   2.425   6.128
13749TIP3   OH241123   8.979   2.468   6.281
13749TIP3    H141124   9.048   2.439   6.341
13749TIP3    H241125   8.898   2.454   6.330
13750TIP3   OH241126   9.131   2.882   6.187
13750TIP3    H141127   9.123   2.891   6.282
13750TIP3    H241128   9.061   2.938   6.152
13751TIP3   OH241129   8.864   2.956   4.738
13751TIP3    H141130   8.812   2.959   4.658
13751TIP3    H241131   8.937   3.016   4.722
13752TIP3   OH241132   8.589   2.384   5.050
13752TIP3    H141133   8.554   2.391   5.139
13752TIP3    H241134   8.553   2.303   5.016
13753TIP3   OH241135   8.386   2.877   6.078
13753TIP3    H141136   8.341   2.882   6.162
13753TIP3    H241137   8.361   2.958   6.033
13754TIP3   OH241138   8.259   2.757   5.612
13754TIP3    H141139   8.170   2.734   5.638
13754TIP3    H241140   8.268   2.723   5.523
13755TIP3   OH241141   8.723   2.827   5.331
13755TIP3    H141142   8.680   2.904   5.295
13755TIP3    H241143   8.781   2.798   5.261
13756TIP3   OH241144   8.919   3.145   6.419
13756TIP3    H141145   8.913   3.061   6.465
13756TIP3    H241146   8.918   3.122   6.327
13757TIP3   OH241147   8.840   2.787   5.576
13757TIP3    H141148   8.791   2.819   5.500
13757TIP3    H241149   8.905   2.727   5.539
13758TIP3   OH241150   8.208   2.871   6.295
13758TIP3    H141151   8.271   2.921   6.346
13758TIP3    H241152   8.189   2.794   6.348
13759TIP3   OH241153   8.256   2.365   5.026
13759TIP3    H141154   8.249   2.369   5.121
13759TIP3    H241155   8.179   2.411   4.994
13760TIP3   OH241156   7.810   2.412   5.892
13760TIP3    H141157   7.878   2.449   5.948
13760TIP3    H241158   7.853   2.401   5.807
13761TIP3   OH241159   7.712   2.388   5.395
13761TIP3    H141160   7.758   2.425   5.319
13761TIP3    H241161   7.649   2.456   5.420
13762TIP3   OH241162   8.616   2.539   5.658
13762TIP3    H141163   8.541   2.542   5.717
13762TIP3    H241164   8.692   2.533   5.716
13763TIP3   OH241165   8.020   2.632   5.671
13763TIP3    H141166   7.932   2.636   5.633
13763TIP3    H241167   8.050   2.543   5.654
13764TIP3   OH241168   8.266   2.630   5.367
13764TIP3    H141169   8.361   2.640   5.359
13764TIP3    H241170   8.233   2.649   5.279
13765TIP3   OH241171   9.045   2.633   5.824
13765TIP3    H141172   9.060   2.630   5.918
13765TIP3    H241173   8.969   2.576   5.810
13766TIP3   OH241174   8.158   2.654   5.116
13766TIP3    H141175   8.094   2.605   5.064
13766TIP3    H241176   8.210   2.702   5.051
13767TIP3   OH241177   9.259   4.342   6.087
13767TIP3    H141178   9.258   4.356   5.993
13767TIP3    H241179   9.330   4.397   6.120
13768TIP3   OH241180   8.207   3.466   6.504
13768TIP3    H141181   8.288   3.482   6.552
13768TIP3    H241182   8.138   3.472   6.571
13769TIP3   OH241183   8.669   2.911   5.769
13769TIP3    H141184   8.728   2.864   5.709
13769TIP3    H241185   8.687   2.872   5.854
13770TIP3   OH241186   8.161   2.383   5.656
13770TIP3    H141187   8.133   2.308   5.708
13770TIP3    H241188   8.187   2.347   5.572
13771TIP3   OH241189   8.667   2.828   6.052
13771TIP3    H141190   8.580   2.866   6.063
13771TIP3    H241191   8.726   2.899   6.079
13772TIP3   OH241192   8.370   3.175   5.142
13772TIP3    H141193   8.296   3.119   5.120
13772TIP3    H241194   8.345   3.216   5.225
13773TIP3   OH241195   9.240   3.442   5.741
13773TIP3    H141196   9.285   3.468   5.661
13773TIP3    H241197   9.160   3.399   5.711
13774TIP3   OH241198   8.841   2.487   5.046
13774TIP3    H141199   8.748   2.464   5.044
13774TIP3    H241200   8.843   2.581   5.060
13775TIP3   OH241201   8.784   3.530   6.150
13775TIP3    H141202   8.825   3.508   6.234
13775TIP3    H241203   8.741   3.614   6.166
13776TIP3   OH241204   8.891   2.748   5.122
13776TIP3    H141205   8.986   2.754   5.138
13776TIP3    H241206   8.871   2.826   5.071
13777TIP3   OH241207   8.066   3.180   5.794
13777TIP3    H141208   8.106   3.164   5.709
13777TIP3    H241209   8.133   3.154   5.857
13778TIP3   OH241210   8.528   3.333   4.987
13778TIP3    H141211   8.482   3.417   4.984
13778TIP3    H241212   8.472   3.276   5.040
13779TIP3   OH241213   7.944   3.129   6.435
13779TIP3    H141214   7.954   3.099   6.526
13779TIP3    H241215   7.873   3.075   6.399
13780TIP3   OH241216   8.681   3.274   6.444
13780TIP3    H141217   8.632   3.246   6.366
13780TIP3    H241218   8.766   3.231   6.435
13781TIP3   OH241219   8.919   3.813   6.047
13781TIP3    H141220   8.824   3.800   6.053
13781TIP3    H241221   8.946   3.836   6.136
13782TIP3   OH241222   9.283   2.826   4.961
13782TIP3    H141223   9.220   2.779   4.906
13782TIP3    H241224   9.288   2.914   4.923
13783TIP3   OH241225   9.504   3.688   6.061
13783TIP3    H141226   9.409   3.681   6.049
13783TIP3    H241227   9.540   3.618   6.006
13784TIP3   OH241228   9.036   3.669   4.891
13784TIP3    H141229   9.007   3.611   4.963
13784TIP3    H241230   9.016   3.620   4.812
13785TIP3   OH241231   9.025   3.293   5.649
13785TIP3    H141232   8.950   3.263   5.701
13785TIP3    H241233   9.060   3.213   5.609
13786TIP3   OH241234   8.195   3.531   5.465
13786TIP3    H141235   8.189   3.606   5.406
13786TIP3    H241236   8.109   3.526   5.507
13787TIP3   OH241237   7.746   2.815   5.165
13787TIP3    H141238   7.792   2.895   5.189
13787TIP3    H241239   7.668   2.815   5.221
13788TIP3   OH241240   8.278   3.287   5.369
13788TIP3    H141241   8.260   3.376   5.399
13788TIP3    H241242   8.254   3.231   5.443
13789TIP3   OH241243   8.476   3.855   5.917
13789TIP3    H141244   8.512   3.929   5.867
13789TIP3    H241245   8.549   3.824   5.970
13790TIP3   OH241246   8.111   3.752   5.313
13790TIP3    H141247   8.024   3.758   5.352
13790TIP3    H241248   8.146   3.841   5.319
13791TIP3   OH241249   8.827   3.506   5.881
13791TIP3    H141250   8.816   3.512   5.976
13791TIP3    H241251   8.876   3.425   5.868
13792TIP3   OH241252   8.794   3.394   4.770
13792TIP3    H141253   8.843   3.367   4.848
13792TIP3    H241254   8.709   3.352   4.779
13793TIP3   OH241255   9.078   4.006   5.923
13793TIP3    H141256   9.011   3.942   5.948
13793TIP3    H241257   9.037   4.057   5.853
13794TIP3   OH241258   9.079   3.863   4.565
13794TIP3    H141259   9.140   3.924   4.524
13794TIP3    H241260   9.011   3.920   4.601
13795TIP3   OH241261   8.164   2.627   6.433
13795TIP3    H141262   8.069   2.638   6.441
13795TIP3    H241263   8.189   2.579   6.512
13796TIP3   OH241264   8.953   3.310   4.975
13796TIP3    H141265   8.938   3.242   5.040
13796TIP3    H241266   9.030   3.357   5.005
13797TIP3   OH241267   7.908   3.744   6.080
13797TIP3    H141268   7.961   3.684   6.133
13797TIP3    H241269   7.922   3.830   6.120
13798TIP3   OH241270   8.175   3.360   4.776
13798TIP3    H141271   8.186   3.269   4.750
13798TIP3    H241272   8.160   3.356   4.871
13799TIP3   OH241273   8.117   3.376   5.048
13799TIP3    H141274   8.180   3.350   5.115
13799TIP3    H241275   8.114   3.472   5.052
13800TIP3   OH241276   7.847   3.062   5.256
13800TIP3    H141277   7.783   3.111   5.309
13800TIP3    H241278   7.868   3.121   5.184
13801TIP3   OH241279   9.097   2.631   6.090
13801TIP3    H141280   9.101   2.719   6.127
13801TIP3    H241281   9.052   2.578   6.157
13802TIP3   OH241282   8.888   2.434   5.316
13802TIP3    H141283   8.870   2.457   5.225
13802TIP3    H241284   8.929   2.511   5.353
13803TIP3   OH241285   8.386   3.562   4.982
13803TIP3    H141286   8.301   3.585   5.021
13803TIP3    H241287   8.407   3.637   4.927
13804TIP3   OH241288   8.543   2.636   5.409
13804TIP3    H141289   8.603   2.705   5.381
13804TIP3    H241290   8.569   2.616   5.499
13805TIP3   OH241291   8.711   2.330   5.498
13805TIP3    H141292   8.689   2.407   5.551
13805TIP3    H241293   8.779   2.361   5.438
13806TIP3   OH241294   8.136   3.649   5.061
13806TIP3    H141295   8.114   3.720   5.001
13806TIP3    H241296   8.125   3.686   5.148
13807TIP3   OH241297   8.228   2.357   5.305
13807TIP3    H141298   8.216   2.448   5.335
13807TIP3    H241299   8.323   2.342   5.312
13808TIP3   OH241300   9.412   2.856   6.201
13808TIP3    H141301   9.318   2.852   6.186
13808TIP3    H241302   9.450   2.846   6.114
13809TIP3   OH241303   9.134   3.044   5.567
13809TIP3    H141304   9.075   3.009   5.634
13809TIP3    H241305   9.220   3.009   5.589
13810TIP3   OH241306   7.873   3.241   5.041
13810TIP3    H141307   7.943   3.305   5.051
13810TIP3    H241308   7.905   3.179   4.976
13811TIP3   OH241309   7.778   2.537   5.174
13811TIP3    H141310   7.791   2.632   5.180
13811TIP3    H241311   7.717   2.525   5.102
13812TIP3   OH241312   9.067   4.007   5.479
13812TIP3    H141313   9.022   4.056   5.411
13812TIP3    H241314   9.157   4.039   5.477
13813TIP3   OH241315   8.176   2.259   6.041
13813TIP3    H141316   8.148   2.227   5.955
13813TIP3    H241317   8.170   2.184   6.099
13814TIP3   OH241318   7.699   3.513   5.432
13814TIP3    H141319   7.657   3.549   5.510
13814TIP3    H241320   7.655   3.555   5.359
13815TIP3   OH241321   7.908   4.052   6.506
13815TIP3    H141322   7.989   4.058   6.557
13815TIP3    H241323   7.896   3.958   6.492
13816TIP3   OH241324   8.369   3.959   6.544
13816TIP3    H141325   8.459   3.930   6.556
13816TIP3    H241326   8.336   3.905   6.472
13817TIP3   OH241327   8.328   3.561   4.664
13817TIP3    H141328   8.280   3.492   4.711
13817TIP3    H241329   8.400   3.515   4.622
13818TIP3   OH241330   8.979   3.874   6.307
13818TIP3    H141331   8.993   3.803   6.370
13818TIP3    H241332   9.049   3.936   6.325
13819TIP3   OH241333   8.743   3.608   4.607
13819TIP3    H141334   8.778   3.544   4.669
13819TIP3    H241335   8.805   3.606   4.533
13820TIP3   OH241336   8.003   3.450   6.693
13820TIP3    H141337   8.023   3.357   6.704
13820TIP3    H241338   7.916   3.451   6.653
13821TIP3   OH241339   7.996   3.053   4.886
13821TIP3    H141340   8.046   3.029   4.964
13821TIP3    H241341   8.062   3.067   4.819
13822TIP3   OH241342   8.625   3.543   6.474
13822TIP3    H141343   8.578   3.565   6.393
13822TIP3    H241344   8.653   3.453   6.462
13823TIP3   OH241345   8.545   3.270   4.721
13823TIP3    H141346   8.524   3.281   4.813
13823TIP3    H241347   8.529   3.177   4.703
13824TIP3   OH241348   9.088   3.586   6.105
13824TIP3    H141349   9.154   3.611   6.041
13824TIP3    H241350   9.012   3.639   6.083
13825TIP3   OH241351   8.115   3.194   6.700
13825TIP3    H141352   8.187   3.181   6.638
13825TIP3    H241353   8.158   3.213   6.783
13826TIP3   OH241354   8.165   2.994   5.099
13826TIP3    H141355   8.146   2.964   5.188
13826TIP3    H241356   8.212   2.920   5.059
13827TIP3   OH241357   8.425   3.033   6.351
13827TIP3    H141358   8.362   3.099   6.381
13827TIP3    H241359   8.484   3.082   6.294
13828TIP3   OH241360   8.300   2.808   4.940
13828TIP3    H141361   8.271   2.812   4.848
13828TIP3    H241362   8.395   2.815   4.935
13829TIP3   OH241363   8.994   3.409   6.458
13829TIP3    H141364   9.066   3.420   6.396
13829TIP3    H241365   8.963   3.319   6.444
13830TIP3   OH241366   9.063   3.121   4.638
13830TIP3    H141367   9.045   3.071   4.558
13830TIP3    H241368   9.028   3.208   4.620
13831TIP3   OH241369   8.595   2.845   6.460
13831TIP3    H141370   8.601   2.771   6.400
13831TIP3    H241371   8.541   2.909   6.413
13832TIP3   OH241372   8.600   2.644   6.262
13832TIP3    H141373   8.631   2.691   6.184
13832TIP3    H241374   8.509   2.621   6.242
13833TIP3   OH241375   8.595   3.180   6.195
13833TIP3    H141376   8.681   3.155   6.162
13833TIP3    H241377   8.557   3.233   6.125
13834TIP3   OH241378   9.238   3.119   6.543
13834TIP3    H141379   9.199   3.041   6.503
13834TIP3    H241380   9.307   3.145   6.483
13835TIP3   OH241381   9.208   3.415   6.274
13835TIP3    H141382   9.163   3.479   6.219
13835TIP3    H241383   9.298   3.413   6.240
13836TIP3   OH241384   8.475   2.919   6.705
13836TIP3    H141385   8.404   2.857   6.721
13836TIP3    H241386   8.504   2.899   6.616
13837TIP3   OH241387   8.715   2.411   6.363
13837TIP3    H141388   8.675   2.492   6.329
13837TIP3    H241389   8.648   2.344   6.349
13838TIP3   OH241390   8.851   2.906   6.558
13838TIP3    H141391   8.829   2.887   6.649
13838TIP3    H241392   8.772   2.886   6.509
13839TIP3   OH241393   9.111   2.891   6.458
13839TIP3    H141394   9.026   2.876   6.499
13839TIP3    H241395   9.172   2.836   6.508
13840TIP3   OH241396   9.309   2.765   6.606
13840TIP3    H141397   9.327   2.672   6.593
13840TIP3    H241398   9.292   2.774   6.700
13841TIP3   OH241399   8.301   2.706   6.768
13841TIP3    H141400   8.307   2.617   6.733
13841TIP3    H241401   8.340   2.701   6.855
13842TIP3   OH241402   8.778   2.391   6.628
13842TIP3    H141403   8.847   2.324   6.624
13842TIP3    H241404   8.750   2.403   6.538
13843TIP3   OH241405   8.862   2.596   6.795
13843TIP3    H141406   8.834   2.532   6.730
13843TIP3    H241407   8.811   2.675   6.776
13844TIP3   OH241408   8.130   3.859   4.879
13844TIP3    H141409   8.218   3.838   4.851
13844TIP3    H241410   8.091   3.905   4.805
13845TIP3   OH241411   7.599   3.244   5.054
13845TIP3    H141412   7.694   3.254   5.053
13845TIP3    H241413   7.584   3.157   5.017
13846TIP3   OH241414   7.505   3.823   5.519
13846TIP3    H141415   7.440   3.770   5.473
13846TIP3    H241416   7.549   3.762   5.578
13847TIP3   OH241417   7.649   3.654   5.685
13847TIP3    H141418   7.640   3.585   5.752
13847TIP3    H241419   7.701   3.722   5.728
13848TIP3   OH241420   9.308   4.127   5.486
13848TIP3    H141421   9.333   4.133   5.578
13848TIP3    H241422   9.391   4.127   5.439
13849TIP3   OH241423   9.372   4.115   5.751
13849TIP3    H141424   9.340   4.026   5.770
13849TIP3    H241425   9.463   4.115   5.780
13850TIP3   OH241426   9.411   3.806   6.336
13850TIP3    H141427   9.343   3.806   6.403
13850TIP3    H241428   9.439   3.898   6.331
13851TIP3   OH241429   9.198   3.386   5.074
13851TIP3    H141430   9.258   3.355   5.005
13851TIP3    H241431   9.232   3.346   5.154
13852TIP3   OH241432   9.349   3.183   5.222
13852TIP3    H141433   9.267   3.137   5.236
13852TIP3    H241434   9.386   3.193   5.310
13853TIP3   OH241435   9.425   3.515   5.550
13853TIP3    H141436   9.504   3.486   5.506
13853TIP3    H241437   9.417   3.608   5.526
13854TIP3   OH241438   9.232   3.859   5.739
13854TIP3    H141439   9.181   3.905   5.806
13854TIP3    H241440   9.166   3.816   5.685
13855TIP3   OH241441   9.250   3.057   4.825
13855TIP3    H141442   9.174   3.079   4.771
13855TIP3    H241443   9.278   3.141   4.862
13856TIP3   OH241444   9.124   2.713   4.774
13856TIP3    H141445   9.089   2.755   4.695
13856TIP3    H241446   9.127   2.620   4.752
13857TIP3   OH241447   9.157   3.003   5.295
13857TIP3    H141448   9.167   2.908   5.289
13857TIP3    H241449   9.146   3.020   5.389
13858TIP3   OH241450   7.820   3.092   6.068
13858TIP3    H141451   7.811   3.060   5.978
13858TIP3    H241452   7.914   3.087   6.086
13859TIP3   OH241453   9.471   3.410   6.182
13859TIP3    H141454   9.532   3.345   6.216
13859TIP3    H241455   9.504   3.432   6.095
13860TIP3   OH241456   9.637   3.222   6.299
13860TIP3    H141457   9.555   3.173   6.291
13860TIP3    H241458   9.705   3.159   6.273
13861TIP3   OH241459   9.130   2.443   4.714
13861TIP3    H141460   9.186   2.396   4.777
13861TIP3    H241461   9.042   2.411   4.733
13862TIP3   OH241462   9.170   2.734   5.196
13862TIP3    H141463   9.210   2.648   5.209
13862TIP3    H241464   9.212   2.768   5.117
13863TIP3   OH241465   9.339   2.883   5.679
13863TIP3    H141466   9.423   2.925   5.661
13863TIP3    H241467   9.311   2.922   5.763
13864TIP3   OH241468   9.297   3.022   5.908
13864TIP3    H141469   9.249   3.061   5.981
13864TIP3    H241470   9.340   3.095   5.865
13865TIP3   OH241471   8.038   2.766   6.705
13865TIP3    H141472   8.132   2.764   6.722
13865TIP3    H241473   8.004   2.686   6.746
13866TIP3   OH241474   9.276   2.480   5.232
13866TIP3    H141475   9.319   2.454   5.313
13866TIP3    H241476   9.209   2.413   5.217
13867TIP3   OH241477   8.016   2.485   6.064
13867TIP3    H141478   8.070   2.406   6.067
13867TIP3    H241479   8.078   2.555   6.046
13868TIP3   OH241480   7.795   2.745   6.118
13868TIP3    H141481   7.847   2.739   6.038
13868TIP3    H241482   7.826   2.824   6.162
13869TIP3   OH241483   9.682   2.786   6.260
13869TIP3    H141484   9.597   2.829   6.273
13869TIP3    H241485   9.662   2.707   6.211
13870TIP3   OH241486   9.379   2.367   4.864
13870TIP3    H141487   9.460   2.342   4.908
13870TIP3    H241488   9.388   2.461   4.849
13871TIP3   OH241489   7.783   2.246   5.616
13871TIP3    H141490   7.699   2.240   5.662
13871TIP3    H241491   7.766   2.305   5.543
13872TIP3   OH241492   8.944   3.966   5.135
13872TIP3    H141493   9.001   3.963   5.058
13872TIP3    H241494   8.973   4.043   5.184
13873TIP3   OH241495   8.007   2.302   6.443
13873TIP3    H141496   7.961   2.305   6.526
13873TIP3    H241497   7.954   2.355   6.384
13874TIP3   OH241498   8.033   3.771   6.515
13874TIP3    H141499   7.940   3.749   6.510
13874TIP3    H241500   8.054   3.763   6.608
13875TIP3   OH241501   8.250   3.813   6.067
13875TIP3    H141502   8.198   3.887   6.036
13875TIP3    H241503   8.334   3.822   6.022
13876TIP3   OH241504   8.643   4.054   6.210
13876TIP3    H141505   8.682   4.044   6.297
13876TIP3    H241506   8.708   4.106   6.161
13877TIP3   OH241507   8.838   4.200   6.080
13877TIP3    H141508   8.901   4.144   6.034
13877TIP3    H241509   8.892   4.258   6.134
13878TIP3   OH241510   9.588   2.545   6.160
13878TIP3    H141511   9.506   2.565   6.116
13878TIP3    H241512   9.616   2.462   6.122
13879TIP3   OH241513   7.911   4.053   6.116
13879TIP3    H141514   7.820   4.070   6.093
13879TIP3    H241515   7.932   4.120   6.181
13880TIP3   OH241516   8.141   4.046   5.965
13880TIP3    H141517   8.058   4.050   6.013
13880TIP3    H241518   8.118   4.070   5.875
13881TIP3   OH241519   8.548   4.068   5.755
13881TIP3    H141520   8.474   4.080   5.695
13881TIP3    H241521   8.559   4.154   5.797
13882TIP3   OH241522   8.807   3.995   5.801
13882TIP3    H141523   8.716   4.019   5.783
13882TIP3    H241524   8.859   4.062   5.757
13883TIP3   OH241525   9.002   4.163   5.701
13883TIP3    H141526   9.009   4.253   5.670
13883TIP3    H241527   9.026   4.110   5.625
13884TIP3   OH241528   7.823   3.832   5.829
13884TIP3    H141529   7.846   3.808   5.919
13884TIP3    H241530   7.894   3.799   5.776
13885TIP3   OH241531   8.026   3.716   5.690
13885TIP3    H141532   8.036   3.632   5.734
13885TIP3    H241533   8.112   3.757   5.695
13886TIP3   OH241534   8.292   3.803   5.714
13886TIP3    H141535   8.312   3.711   5.700
13886TIP3    H241536   8.346   3.828   5.789
13887TIP3   OH241537   8.845   2.437   5.786
13887TIP3    H141538   8.806   2.370   5.842
13887TIP3    H241539   8.919   2.394   5.744
13888TIP3   OH241540   9.362   2.376   5.722
13888TIP3    H141541   9.383   2.419   5.639
13888TIP3    H241542   9.268   2.391   5.733
13889TIP3   OH241543   9.432   2.418   5.452
13889TIP3    H141544   9.519   2.386   5.429
13889TIP3    H241545   9.440   2.514   5.451
13890TIP3   OH241546   8.090   2.156   5.799
13890TIP3    H141547   8.001   2.122   5.809
13890TIP3    H241548   8.145   2.078   5.792
13891TIP3   OH241549   7.902   2.055   5.445
13891TIP3    H141550   7.933   2.107   5.371
13891TIP3    H241551   7.868   2.120   5.507
13892TIP3   OH241552   8.567   2.194   5.697
13892TIP3    H141553   8.615   2.242   5.629
13892TIP3    H241554   8.606   2.223   5.779
13893TIP3   OH241555   9.074   2.315   5.683
13893TIP3    H141556   9.111   2.280   5.602
13893TIP3    H241557   9.077   2.241   5.744
13894TIP3   OH241558   9.096   2.273   5.231
13894TIP3    H141559   9.018   2.321   5.257
13894TIP3    H241560   9.089   2.189   5.276
13895TIP3   OH241561   7.582   3.632   5.214
13895TIP3    H141562   7.497   3.602   5.180
13895TIP3    H241563   7.588   3.723   5.183
13896TIP3   OH241564   8.019   2.190   5.215
13896TIP3    H141565   8.065   2.130   5.157
13896TIP3    H241566   8.087   2.246   5.251
13897TIP3   OH241567   8.503   2.384   5.313
13897TIP3    H141568   8.562   2.333   5.368
13897TIP3    H241569   8.516   2.475   5.342
13898TIP3   OH241570   8.384   3.785   4.810
13898TIP3    H141571   8.465   3.817   4.771
13898TIP3    H241572   8.357   3.713   4.752
13899TIP3   OH241573   9.083   3.939   4.893
13899TIP3    H141574   9.072   3.844   4.895
13899TIP3    H241575   9.030   3.968   4.819
13900TIP3   OH241576   8.315   2.436   6.679
13900TIP3    H141577   8.281   2.370   6.739
13900TIP3    H241578   8.408   2.445   6.702
13901TIP3   OH241579   8.561   2.442   6.804
13901TIP3    H141580   8.640   2.422   6.753
13901TIP3    H241581   8.557   2.373   6.869
13902TIP3   OH241582   7.696   3.625   4.866
13902TIP3    H141583   7.696   3.638   4.961
13902TIP3    H241584   7.778   3.579   4.848
13903TIP3   OH241585   9.386   2.503   6.596
13903TIP3    H141586   9.411   2.476   6.685
13903TIP3    H241587   9.467   2.499   6.546
13904TIP3   OH241588   9.266   4.064   6.115
13904TIP3    H141589   9.196   4.043   6.053
13904TIP3    H241590   9.271   4.160   6.113
13905TIP3   OH241591   9.450   2.921   5.174
13905TIP3    H141592   9.406   3.005   5.189
13905TIP3    H241593   9.397   2.877   5.107
13906TIP3   OH241594   9.678   3.169   5.331
13906TIP3    H141595   9.671   3.078   5.362
13906TIP3    H241596   9.646   3.165   5.241
13907TIP3   OH241597   9.539   3.534   4.845
13907TIP3    H141598   9.541   3.441   4.867
13907TIP3    H241599   9.477   3.573   4.906
13908TIP3   OH241600   9.639   3.656   5.683
13908TIP3    H141601   9.571   3.591   5.668
13908TIP3    H241602   9.720   3.605   5.687
13909TIP3   OH241603   9.388   3.786   5.504
13909TIP3    H141604   9.469   3.829   5.529
13909TIP3    H241605   9.325   3.812   5.571
13910TIP3   OH241606   9.624   4.022   5.066
13910TIP3    H141607   9.701   3.970   5.089
13910TIP3    H241608   9.560   3.957   5.037
13911TIP3   OH241609   9.741   3.823   5.869
13911TIP3    H141610   9.779   3.753   5.922
13911TIP3    H241611   9.685   3.778   5.806
13912TIP3   OH241612   9.504   2.678   5.393
13912TIP3    H141613   9.545   2.764   5.403
13912TIP3    H241614   9.494   2.667   5.298
13913TIP3   OH241615   0.010   3.239   5.992
13913TIP3    H141616   0.066   3.305   6.033
13913TIP3    H241617   0.024   3.252   5.898
13914TIP3   OH241618   9.508   3.185   4.680
13914TIP3    H141619   9.554   3.121   4.735
13914TIP3    H241620   9.444   3.133   4.632
13915TIP3   OH241621   9.608   3.923   5.603
13915TIP3    H141622   9.640   3.838   5.634
13915TIP3    H241623   9.629   3.983   5.675
13916TIP3   OH241624   9.463   3.849   4.936
13916TIP3    H141625   9.421   3.774   4.977
13916TIP3    H241626   9.422   3.856   4.850
13917TIP3   OH241627   9.680   4.392   6.017
13917TIP3    H141628   9.760   4.394   6.069
13917TIP3    H241629   9.645   4.304   6.029
13918TIP3   OH241630   0.012   3.611   6.022
13918TIP3    H141631   0.079   3.549   6.049
13918TIP3    H241632  -0.017   3.653   6.103
13919TIP3   OH241633   9.275   3.463   4.653
13919TIP3    H141634   9.346   3.522   4.626
13919TIP3    H241635   9.266   3.401   4.581
13920TIP3   OH241636   9.283   4.091   5.000
13920TIP3    H141637   9.216   4.038   4.957
13920TIP3    H241638   9.317   4.035   5.070
13921TIP3   OH241639   9.353   3.936   5.222
13921TIP3    H141640   9.311   3.876   5.284
13921TIP3    H241641   9.412   3.988   5.276
13922TIP3   OH241642   9.670   3.412   5.464
13922TIP3    H141643   9.664   3.330   5.415
13922TIP3    H241644   9.742   3.460   5.421
13923TIP3   OH241645   0.013   3.032   6.216
13923TIP3    H141646   0.026   3.045   6.122
13923TIP3    H241647  -0.017   2.941   6.223
13924TIP3   OH241648   9.590   2.985   5.639
13924TIP3    H141649   9.649   2.912   5.656
13924TIP3    H241650   9.623   3.056   5.695
13925TIP3   OH241651   9.503   2.597   5.128
13925TIP3    H141652   9.424   2.546   5.145
13925TIP3    H241653   9.575   2.534   5.134
13926TIP3   OH241654   0.066   4.017   6.004
13926TIP3    H141655   0.029   3.957   5.940
13926TIP3    H241656   0.096   3.961   6.075
13927TIP3   OH241657   9.672   4.311   5.546
13927TIP3    H141658   9.587   4.354   5.544
13927TIP3    H241659   9.668   4.253   5.622
13928TIP3   OH241660   0.121   4.292   5.439
13928TIP3    H141661   0.034   4.281   5.476
13928TIP3    H241662   0.106   4.329   5.352
13929TIP3   OH241663   9.552   4.052   5.374
13929TIP3    H141664   9.562   4.013   5.461
13929TIP3    H241665   9.640   4.049   5.336
13930TIP3   OH241666   0.026   3.860   5.155
13930TIP3    H141667   0.068   3.790   5.105
13930TIP3    H241668   0.098   3.918   5.180
13931TIP3   OH241669   9.335   3.861   4.692
13931TIP3    H141670   9.242   3.840   4.694
13931TIP3    H241671   9.342   3.931   4.626
13932TIP3   OH241672   9.482   3.916   4.352
13932TIP3    H141673   9.519   3.970   4.422
13932TIP3    H241674   9.551   3.854   4.331
13933TIP3   OH241675   1.243   3.982   7.039
13933TIP3    H141676   1.205   4.068   7.024
13933TIP3    H241677   1.174   3.920   7.015
13934TIP3   OH241678   1.252   3.967   7.462
13934TIP3    H141679   1.302   3.951   7.542
13934TIP3    H241680   1.208   3.884   7.444
13935TIP3   OH241681   0.568   3.877   7.838
13935TIP3    H141682   0.593   3.802   7.893
13935TIP3    H241683   0.636   3.880   7.771
13936TIP3   OH241684   1.510   4.283   7.135
13936TIP3    H141685   1.497   4.216   7.201
13936TIP3    H241686   1.530   4.362   7.184
13937TIP3   OH241687   0.588   4.265   7.421
13937TIP3    H141688   0.570   4.173   7.438
13937TIP3    H241689   0.684   4.269   7.412
13938TIP3   OH241690   0.048   3.530   7.267
13938TIP3    H141691   0.045   3.595   7.337
13938TIP3    H241692   0.025   3.447   7.310
13939TIP3   OH241693   0.329   3.790   7.554
13939TIP3    H141694   0.381   3.713   7.575
13939TIP3    H241695   0.342   3.804   7.460
13940TIP3   OH241696   1.170   4.707   7.152
13940TIP3    H141697   1.191   4.641   7.086
13940TIP3    H241698   1.176   4.661   7.235
13941TIP3   OH241699   1.079   4.187   7.478
13941TIP3    H141700   1.123   4.105   7.453
13941TIP3    H241701   1.150   4.243   7.509
13942TIP3   OH241702   2.086   3.519   7.482
13942TIP3    H141703   2.100   3.605   7.522
13942TIP3    H241704   2.112   3.530   7.390
13943TIP3   OH241705   1.456   3.687   7.506
13943TIP3    H141706   1.490   3.601   7.530
13943TIP3    H241707   1.417   3.674   7.419
13944TIP3   OH241708   0.834   3.342   7.455
13944TIP3    H141709   0.810   3.415   7.399
13944TIP3    H241710   0.781   3.269   7.423
13945TIP3   OH241711   1.507   3.448   7.099
13945TIP3    H141712   1.572   3.441   7.169
13945TIP3    H241713   1.556   3.482   7.024
13946TIP3   OH241714   0.440   3.550   7.635
13946TIP3    H141715   0.530   3.517   7.639
13946TIP3    H241716   0.403   3.510   7.557
13947TIP3   OH241717   0.868   3.765   7.415
13947TIP3    H141718   0.963   3.753   7.419
13947TIP3    H241719   0.835   3.685   7.375
13948TIP3   OH241720   2.135   3.741   7.650
13948TIP3    H141721   2.051   3.784   7.638
13948TIP3    H241722   2.174   3.783   7.726
13949TIP3   OH241723   0.802   3.339   7.899
13949TIP3    H141724   0.748   3.371   7.827
13949TIP3    H241725   0.750   3.358   7.977
13950TIP3   OH241726   1.095   4.188   6.933
13950TIP3    H141727   1.093   4.178   6.838
13950TIP3    H241728   1.055   4.273   6.949
13951TIP3   OH241729   0.892   4.121   7.673
13951TIP3    H141730   0.838   4.195   7.704
13951TIP3    H241731   0.946   4.159   7.604
13952TIP3   OH241732   1.668   3.469   7.318
13952TIP3    H141733   1.625   3.446   7.400
13952TIP3    H241734   1.723   3.544   7.340
13953TIP3   OH241735   0.694   3.448   7.674
13953TIP3    H141736   0.751   3.522   7.697
13953TIP3    H241737   0.738   3.406   7.600
13954TIP3   OH241738   0.732   4.325   7.775
13954TIP3    H141739   0.725   4.418   7.753
13954TIP3    H241740   0.658   4.307   7.833
13955TIP3   OH241741   0.157   3.949   7.069
13955TIP3    H141742   0.086   3.975   7.009
13955TIP3    H241743   0.206   4.029   7.086
13956TIP3   OH241744   1.542   4.529   7.279
13956TIP3    H141745   1.453   4.520   7.312
13956TIP3    H241746   1.542   4.612   7.232
13957TIP3   OH241747   1.886   3.401   7.643
13957TIP3    H141748   1.800   3.429   7.611
13957TIP3    H241749   1.948   3.432   7.577
13958TIP3   OH241750   1.142   3.049   7.627
13958TIP3    H141751   1.128   2.957   7.645
13958TIP3    H241752   1.066   3.093   7.664
13959TIP3   OH241753   1.246   4.555   6.931
13959TIP3    H141754   1.298   4.475   6.920
13959TIP3    H241755   1.305   4.626   6.905
13960TIP3   OH241756   1.401   4.338   6.886
13960TIP3    H141757   1.418   4.265   6.826
13960TIP3    H241758   1.441   4.311   6.968
13961TIP3   OH241759   1.778   4.421   7.619
13961TIP3    H141760   1.762   4.346   7.562
13961TIP3    H241761   1.764   4.497   7.564
13962TIP3   OH241762   1.068   3.822   6.890
13962TIP3    H141763   0.992   3.876   6.870
13962TIP3    H241764   1.117   3.818   6.807
13963TIP3   OH241765   1.038   3.627   6.576
13963TIP3    H141766   1.102   3.677   6.628
13963TIP3    H241767   1.090   3.562   6.530
13964TIP3   OH241768   1.959   4.081   7.489
13964TIP3    H141769   1.875   4.126   7.488
13964TIP3    H241770   1.994   4.094   7.401
13965TIP3   OH241771   1.427   3.916   6.848
13965TIP3    H141772   1.372   3.942   6.922
13965TIP3    H241773   1.510   3.888   6.888
13966TIP3   OH241774   1.658   3.949   7.788
13966TIP3    H141775   1.654   4.030   7.839
13966TIP3    H241776   1.573   3.944   7.744
13967TIP3   OH241777   0.658   3.890   7.279
13967TIP3    H141778   0.631   3.830   7.209
13967TIP3    H241779   0.734   3.847   7.318
13968TIP3   OH241780   0.858   4.318   7.380
13968TIP3    H141781   0.849   4.301   7.286
13968TIP3    H241782   0.939   4.273   7.405
13969TIP3   OH241783   0.766   3.880   7.644
13969TIP3    H141784   0.800   3.844   7.562
13969TIP3    H241785   0.812   3.963   7.654
13970TIP3   OH241786   1.298   4.516   7.402
13970TIP3    H141787   1.297   4.597   7.454
13970TIP3    H241788   1.294   4.446   7.467
13971TIP3   OH241789   0.933   4.417   7.947
13971TIP3    H141790   0.874   4.478   7.992
13971TIP3    H241791   0.875   4.368   7.887
13972TIP3   OH241792   1.257   3.773   6.685
13972TIP3    H141793   1.317   3.830   6.731
13972TIP3    H241794   1.284   3.778   6.593
13973TIP3   OH241795   3.966   8.617   0.085
13973TIP3    H141796   3.961   8.706   0.119
13973TIP3    H241797   3.894   8.612   0.022
13974TIP3   OH241798   0.991   4.447   6.948
13974TIP3    H141799   1.078   4.484   6.954
13974TIP3    H241800   0.945   4.502   6.884
13975TIP3   OH241801   4.013   9.213   0.040
13975TIP3    H141802   3.988   9.224  -0.052
13975TIP3    H241803   3.931   9.202   0.087
13976TIP3   OH241804   1.769   2.999   6.745
13976TIP3    H141805   1.692   3.019   6.799
13976TIP3    H241806   1.779   3.075   6.688
13977TIP3   OH241807   0.556   3.744   7.063
13977TIP3    H141808   0.489   3.783   7.006
13977TIP3    H241809   0.513   3.667   7.101
13978TIP3   OH241810   1.598   4.371   6.301
13978TIP3    H141811   1.592   4.463   6.276
13978TIP3    H241812   1.687   4.344   6.278
13979TIP3   OH241813   3.593   8.789   0.064
13979TIP3    H141814   3.528   8.788  -0.007
13979TIP3    H241815   3.611   8.697   0.082
13980TIP3   OH241816   2.014   4.777   7.690
13980TIP3    H141817   2.016   4.683   7.706
13980TIP3    H241818   1.935   4.808   7.735
13981TIP3   OH241819   1.128   4.565   7.826
13981TIP3    H141820   1.119   4.655   7.857
13981TIP3    H241821   1.057   4.518   7.869
13982TIP3   OH241822   0.895   4.641   6.760
13982TIP3    H141823   0.835   4.649   6.686
13982TIP3    H241824   0.854   4.692   6.830
13983TIP3   OH241825   0.475   4.462   7.202
13983TIP3    H141826   0.499   4.527   7.269
13983TIP3    H241827   0.427   4.395   7.250
13984TIP3   OH241828   1.098   4.595   6.397
13984TIP3    H141829   1.148   4.520   6.364
13984TIP3    H241830   1.133   4.611   6.485
13985TIP3   OH241831   1.150   4.638   6.665
13985TIP3    H141832   1.062   4.640   6.702
13985TIP3    H241833   1.205   4.602   6.735
13986TIP3   OH241834   1.893   3.915   7.967
13986TIP3    H141835   1.813   3.915   7.914
13986TIP3    H241836   1.916   3.822   7.976
13987TIP3   OH241837   0.538   4.317   7.969
13987TIP3    H141838   0.595   4.303   8.044
13987TIP3    H241839   0.458   4.270   7.991
13988TIP3   OH241840   0.908   3.141   7.741
13988TIP3    H141841   0.825   3.107   7.707
13988TIP3    H241842   0.884   3.218   7.792
13989TIP3   OH241843   1.442   3.266   7.954
13989TIP3    H141844   1.509   3.232   8.013
13989TIP3    H241845   1.359   3.239   7.993
13990TIP3   OH241846   1.662   3.681   7.856
13990TIP3    H141847   1.621   3.680   7.942
13990TIP3    H241848   1.650   3.771   7.824
13991TIP3   OH241849   1.335   3.765   6.424
13991TIP3    H141850   1.291   3.761   6.339
13991TIP3    H241851   1.419   3.808   6.406
13992TIP3   OH241852   1.046   3.163   6.728
13992TIP3    H141853   1.008   3.168   6.816
13992TIP3    H241854   1.006   3.085   6.689
13993TIP3   OH241855   0.840   3.659   7.791
13993TIP3    H141856   0.790   3.666   7.872
13993TIP3    H241857   0.819   3.738   7.743
13994TIP3   OH241858   0.745   3.554   7.297
13994TIP3    H141859   0.663   3.518   7.331
13994TIP3    H241860   0.751   3.520   7.208
13995TIP3   OH241861   1.197   3.622   7.028
13995TIP3    H141862   1.147   3.692   6.987
13995TIP3    H241863   1.254   3.589   6.958
13996TIP3   OH241864   4.657   8.565   0.092
13996TIP3    H141865   4.623   8.481   0.122
13996TIP3    H241866   4.752   8.559   0.104
13997TIP3   OH241867   1.361   3.633   7.253
13997TIP3    H141868   1.294   3.656   7.189
13997TIP3    H241869   1.409   3.559   7.214
13998TIP3   OH241870   3.937   8.302   0.008
13998TIP3    H141871   3.927   8.347   0.092
13998TIP3    H241872   3.922   8.209   0.028
13999TIP3   OH241873   0.720   3.183   6.724
13999TIP3    H141874   0.703   3.176   6.818
13999TIP3    H241875   0.642   3.226   6.689
14000TIP3   OH241876   0.253   3.228   7.555
14000TIP3    H141877   0.308   3.240   7.632
14000TIP3    H241878   0.300   3.164   7.502
14001TIP3   OH241879   0.293   3.359   7.133
14001TIP3    H141880   0.364   3.334   7.073
14001TIP3    H241881   0.215   3.360   7.077
14002TIP3   OH241882   1.403   3.884   7.686
14002TIP3    H141883   1.427   3.816   7.622
14002TIP3    H241884   1.362   3.836   7.757
14003TIP3   OH241885   1.091   3.333   7.344
14003TIP3    H141886   1.012   3.333   7.399
14003TIP3    H241887   1.163   3.325   7.407
14004TIP3   OH241888   0.542   3.401   7.379
14004TIP3    H141889   0.447   3.411   7.376
14004TIP3    H241890   0.556   3.308   7.360
14005TIP3   OH241891   0.743   3.423   7.058
14005TIP3    H141892   0.837   3.432   7.041
14005TIP3    H241893   0.701   3.448   6.976
14006TIP3   OH241894   1.525   3.421   7.552
14006TIP3    H141895   1.505   3.441   7.644
14006TIP3    H241896   1.457   3.359   7.525
14007TIP3   OH241897   0.602   3.466   6.832
14007TIP3    H141898   0.522   3.417   6.813
14007TIP3    H241899   0.641   3.483   6.746
14008TIP3   OH241900   1.712   5.128   7.771
14008TIP3    H141901   1.711   5.144   7.676
14008TIP3    H241902   1.794   5.168   7.801
14009TIP3   OH241903   3.947   8.876   0.192
14009TIP3    H141904   4.027   8.890   0.242
14009TIP3    H241905   3.879   8.923   0.240
14010TIP3   OH241906   1.138   3.706   7.452
14010TIP3    H141907   1.200   3.653   7.402
14010TIP3    H241908   1.133   3.663   7.538
14011TIP3   OH241909   0.663   3.153   7.335
14011TIP3    H141910   0.632   3.078   7.385
14011TIP3    H241911   0.686   3.117   7.249
14012TIP3   OH241912   1.102   3.610   7.713
14012TIP3    H141913   1.015   3.639   7.741
14012TIP3    H241914   1.162   3.660   7.769
14013TIP3   OH241915   0.842   3.981   6.827
14013TIP3    H141916   0.780   3.912   6.807
14013TIP3    H241917   0.820   4.009   6.916
14014TIP3   OH241918   1.724   4.217   7.441
14014TIP3    H141919   1.760   4.266   7.368
14014TIP3    H241920   1.645   4.175   7.406
14015TIP3   OH241921   1.295   3.274   6.749
14015TIP3    H141922   1.203   3.250   6.739
14015TIP3    H241923   1.294   3.369   6.757
14016TIP3   OH241924   1.245   4.301   7.855
14016TIP3    H141925   1.293   4.289   7.937
14016TIP3    H241926   1.206   4.388   7.862
14017TIP3   OH241927   1.355   3.542   6.811
14017TIP3    H141928   1.451   3.544   6.819
14017TIP3    H241929   1.334   3.618   6.757
14018TIP3   OH241930   0.539   4.008   7.498
14018TIP3    H141931   0.570   3.963   7.418
14018TIP3    H241932   0.579   3.958   7.569
14019TIP3   OH241933   1.017   4.113   6.661
14019TIP3    H141934   0.976   4.199   6.656
14019TIP3    H241935   0.959   4.063   6.719
14020TIP3   OH241936   3.665   8.527   0.116
14020TIP3    H141937   3.723   8.487   0.180
14020TIP3    H241938   3.623   8.454   0.072
14021TIP3   OH241939   4.413   8.679   0.121
14021TIP3    H141940   4.350   8.614   0.090
14021TIP3    H241941   4.498   8.644   0.094
14022TIP3   OH241942   1.393   4.585   7.741
14022TIP3    H141943   1.299   4.570   7.747
14022TIP3    H241944   1.417   4.628   7.823
14023TIP3   OH241945   1.770   3.631   6.630
14023TIP3    H141946   1.712   3.587   6.569
14023TIP3    H241947   1.778   3.720   6.595
14024TIP3   OH241948   2.023   4.495   7.715
14024TIP3    H141949   1.928   4.484   7.705
14024TIP3    H241950   2.059   4.469   7.630
14025TIP3   OH241951   1.511   4.445   6.558
14025TIP3    H141952   1.488   4.368   6.611
14025TIP3    H241953   1.537   4.408   6.474
14026TIP3   OH241954   1.498   4.080   7.337
14026TIP3    H141955   1.409   4.059   7.366
14026TIP3    H241956   1.531   3.999   7.299
14027TIP3   OH241957   0.720   4.313   7.140
14027TIP3    H141958   0.746   4.383   7.080
14027TIP3    H241959   0.639   4.344   7.180
14028TIP3   OH241960   0.223   3.597   6.813
14028TIP3    H141961   0.273   3.679   6.819
14028TIP3    H241962   0.137   3.619   6.849
14029TIP3   OH241963   0.743   4.052   7.068
14029TIP3    H141964   0.745   4.143   7.098
14029TIP3    H241965   0.715   4.002   7.144
14030TIP3   OH241966   0.961   4.654   7.618
14030TIP3    H141967   1.000   4.729   7.572
14030TIP3    H241968   1.033   4.620   7.671
14031TIP3   OH241969   0.637   4.532   6.988
14031TIP3    H141970   0.574   4.543   7.059
14031TIP3    H241971   0.690   4.612   6.989
14032TIP3   OH241972   1.305   4.303   7.587
14032TIP3    H141973   1.284   4.299   7.680
14032TIP3    H241974   1.393   4.266   7.580
14033TIP3   OH241975   1.281   4.180   6.475
14033TIP3    H141976   1.335   4.168   6.553
14033TIP3    H241977   1.195   4.145   6.500
14034TIP3   OH241978   1.544   4.806   7.623
14034TIP3    H141979   1.470   4.746   7.631
14034TIP3    H241980   1.520   4.865   7.551
14035TIP3   OH241981   1.593   4.642   6.256
14035TIP3    H141982   1.617   4.700   6.184
14035TIP3    H241983   1.522   4.689   6.301
14036TIP3   OH241984   3.902   8.046   0.096
14036TIP3    H141985   3.807   8.030   0.097
14036TIP3    H241986   3.933   8.005   0.176
14037TIP3   OH241987   1.458   4.139   6.686
14037TIP3    H141988   1.439   4.062   6.739
14037TIP3    H241989   1.551   4.131   6.665
14038TIP3   OH241990   0.449   4.515   7.797
14038TIP3    H141991   0.425   4.442   7.740
14038TIP3    H241992   0.484   4.474   7.875
14039TIP3   OH241993   0.653   4.137   6.458
14039TIP3    H141994   0.669   4.047   6.431
14039TIP3    H241995   0.646   4.133   6.553
14040TIP3   OH241996   0.642   4.173   6.730
14040TIP3    H141997   0.724   4.143   6.768
14040TIP3    H241998   0.649   4.269   6.731
14041TIP3   OH241999   0.337   3.830   6.905
14041TIP3    H142000   0.272   3.862   6.967
14041TIP3    H242001   0.363   3.908   6.856
14042TIP3   OH242002   1.465   3.493   7.807
14042TIP3    H142003   1.545   3.539   7.835
14042TIP3    H242004   1.460   3.417   7.865
14043TIP3   OH242005   1.360   3.227   7.014
14043TIP3    H142006   1.337   3.245   6.922
14043TIP3    H242007   1.403   3.308   7.043
14044TIP3   OH242008   0.896   4.354   6.652
14044TIP3    H142009   0.811   4.386   6.681
14044TIP3    H242010   0.937   4.429   6.610
14045TIP3   OH242011   1.021   3.421   7.091
14045TIP3    H142012   1.080   3.493   7.067
14045TIP3    H242013   1.043   3.401   7.182
14046TIP3   OH242014   1.305   3.708   7.877
14046TIP3    H142015   1.314   3.717   7.972
14046TIP3    H242016   1.355   3.629   7.855
14047TIP3   OH242017   1.170   3.120   7.181
14047TIP3    H142018   1.148   3.197   7.233
14047TIP3    H242019   1.241   3.150   7.124
14048TIP3   OH242020   0.650   4.447   6.731
14048TIP3    H142021   0.620   4.520   6.677
14048TIP3    H242022   0.647   4.480   6.820
14049TIP3   OH242023   0.690   3.155   7.009
14049TIP3    H142024   0.688   3.246   7.037
14049TIP3    H242025   0.783   3.134   7.002
14050TIP3   OH242026   1.930   3.642   7.867
14050TIP3    H142027   1.834   3.640   7.873
14050TIP3    H242028   1.949   3.624   7.775
14051TIP3   OH242029   1.587   3.821   7.250
14051TIP3    H142030   1.509   3.766   7.261
14051TIP3    H242031   1.653   3.781   7.306
14052TIP3   OH242032   0.394   4.055   6.762
14052TIP3    H142033   0.455   4.128   6.768
14052TIP3    H242034   0.432   3.997   6.696
14053TIP3   OH242035   0.357   3.314   6.862
14053TIP3    H142036   0.275   3.363   6.869
14053TIP3    H242037   0.329   3.225   6.840
14054TIP3   OH242038   1.570   4.793   7.193
14054TIP3    H142039   1.530   4.847   7.125
14054TIP3    H242040   1.664   4.804   7.180
14055TIP3   OH242041   0.649   3.057   7.706
14055TIP3    H142042   0.627   3.025   7.618
14055TIP3    H242043   0.625   2.985   7.764
14056TIP3   OH242044   0.282   4.185   7.100
14056TIP3    H142045   0.206   4.242   7.111
14056TIP3    H242046   0.337   4.231   7.036
14057TIP3   OH242047   7.355   0.170   0.221
14057TIP3    H142048   7.447   0.157   0.242
14057TIP3    H242049   7.334   0.101   0.158
14058TIP3   OH242050   0.794   4.348   6.356
14058TIP3    H142051   0.747   4.276   6.397
14058TIP3    H242052   0.872   4.307   6.317
14059TIP3   OH242053   7.973   0.077  -0.015
14059TIP3    H142054   7.988   0.005   0.046
14059TIP3    H242055   8.048   0.135  -0.003
14060TIP3   OH242056   1.225   4.380   6.290
14060TIP3    H142057   1.263   4.316   6.350
14060TIP3    H242058   1.281   4.375   6.212
14061TIP3   OH242059   3.684   8.901   0.304
14061TIP3    H142060   3.722   8.818   0.333
14061TIP3    H242061   3.642   8.880   0.221
14062TIP3   OH242062   0.510   3.870   6.603
14062TIP3    H142063   0.557   3.833   6.677
14062TIP3    H242064   0.571   3.865   6.530
14063TIP3   OH242065   4.356   8.946   0.147
14063TIP3    H142066   4.308   8.968   0.067
14063TIP3    H242067   4.385   8.855   0.133
14064TIP3   OH242068   0.995   4.055   6.393
14064TIP3    H142069   0.993   4.062   6.488
14064TIP3    H242070   0.988   3.961   6.375
14065TIP3   OH242071   1.555   4.358   7.768
14065TIP3    H142072   1.634   4.386   7.721
14065TIP3    H242073   1.493   4.430   7.757
14066TIP3   OH242074   3.885   8.418   0.265
14066TIP3    H142075   3.925   8.493   0.221
14066TIP3    H242076   3.932   8.411   0.348
14067TIP3   OH242077   0.669   3.771   6.803
14067TIP3    H142078   0.646   3.741   6.891
14067TIP3    H242079   0.701   3.693   6.759
14068TIP3   OH242080   4.212   8.494   0.028
14068TIP3    H142081   4.128   8.539   0.032
14068TIP3    H242082   4.249   8.519  -0.057
14069TIP3   OH242083   0.765   3.577   6.631
14069TIP3    H142084   0.737   3.582   6.540
14069TIP3    H242085   0.861   3.587   6.627
14070TIP3   OH242086   4.717   8.860   0.116
14070TIP3    H142087   4.779   8.825   0.052
14070TIP3    H242088   4.707   8.789   0.179
14071TIP3   OH242089   1.559   3.888   6.319
14071TIP3    H142090   1.548   3.846   6.234
14071TIP3    H242091   1.533   3.979   6.304
14072TIP3   OH242092   4.297   8.235   0.101
14072TIP3    H142093   4.306   8.161   0.041
14072TIP3    H242094   4.256   8.304   0.048
14073TIP3   OH242095   1.063   3.414   7.913
14073TIP3    H142096   1.084   3.460   7.832
14073TIP3    H242097   0.971   3.391   7.905
14074TIP3   OH242098   1.072   3.961   7.808
14074TIP3    H142099   1.160   3.994   7.794
14074TIP3    H242100   1.016   4.022   7.759
14075TIP3   OH242101   4.917   8.552   0.166
14075TIP3    H142102   4.938   8.465   0.200
14075TIP3    H242103   5.002   8.593   0.150
14076TIP3   OH242104   1.680   4.188   7.939
14076TIP3    H142105   1.627   4.248   7.886
14076TIP3    H242106   1.770   4.201   7.908
14077TIP3   OH242107   4.177   8.427   0.293
14077TIP3    H142108   4.148   8.336   0.290
14077TIP3    H242109   4.211   8.445   0.205
14078TIP3   OH242110   1.180   3.184   8.008
14078TIP3    H142111   1.144   3.267   7.977
14078TIP3    H242112   1.109   3.121   7.998
14079TIP3   OH242113   4.540   8.333   0.166
14079TIP3    H142114   4.552   8.297   0.253
14079TIP3    H242115   4.453   8.302   0.139
14080TIP3   OH242116   4.825   8.259   0.095
14080TIP3    H142117   4.758   8.222   0.154
14080TIP3    H242118   4.907   8.224   0.127
14081TIP3   OH242119   5.067   8.176   0.195
14081TIP3    H142120   5.067   8.086   0.228
14081TIP3    H242121   5.043   8.230   0.270
14082TIP3   OH242122   4.061   8.182   0.376
14082TIP3    H142123   4.041   8.091   0.353
14082TIP3    H242124   3.996   8.204   0.443
14083TIP3   OH242125   4.512   7.776   0.266
14083TIP3    H142126   4.608   7.784   0.264
14083TIP3    H242127   4.486   7.777   0.174
14084TIP3   OH242128   4.711   8.108   0.296
14084TIP3    H142129   4.738   8.017   0.314
14084TIP3    H242130   4.618   8.110   0.320
14085TIP3   OH242131   0.604   4.679   6.594
14085TIP3    H142132   0.670   4.664   6.526
14085TIP3    H242133   0.520   4.676   6.548
14086TIP3   OH242134   9.792   4.047   6.879
14086TIP3    H142135   9.822   4.102   6.806
14086TIP3    H242136   9.710   4.010   6.849
14087TIP3   OH242137   1.840   4.846   7.185
14087TIP3    H142138   1.858   4.877   7.274
14087TIP3    H242139   1.894   4.901   7.129
14088TIP3   OH242140   1.854   4.878   7.465
14088TIP3    H142141   1.810   4.793   7.461
14088TIP3    H242142   1.925   4.866   7.529
14089TIP3   OH242143   5.178   9.201   0.023
14089TIP3    H142144   5.097   9.213   0.073
14089TIP3    H242145   5.225   9.284   0.033
14090TIP3   OH242146   1.730   4.100   6.647
14090TIP3    H142147   1.788   4.168   6.614
14090TIP3    H242148   1.778   4.059   6.719
14091TIP3   OH242149   1.859   3.954   6.845
14091TIP3    H142150   1.792   3.916   6.902
14091TIP3    H242151   1.924   3.990   6.906
14092TIP3   OH242152   1.907   4.354   7.281
14092TIP3    H142153   1.958   4.286   7.237
14092TIP3    H242154   1.909   4.429   7.220
14093TIP3   OH242155   1.712   4.640   7.471
14093TIP3    H142156   1.646   4.686   7.522
14093TIP3    H242157   1.663   4.600   7.399
14094TIP3   OH242158   1.769   3.872   6.494
14094TIP3    H142159   1.698   3.870   6.430
14094TIP3    H242160   1.753   3.951   6.546
14095TIP3   OH242161   1.612   3.520   6.437
14095TIP3    H142162   1.571   3.556   6.359
14095TIP3    H242163   1.606   3.425   6.425
14096TIP3   OH242164   1.653   3.815   6.980
14096TIP3    H142165   1.658   3.721   6.965
14096TIP3    H242166   1.635   3.824   7.074
14097TIP3   OH242167   0.294   3.884   7.808
14097TIP3    H142168   0.293   3.862   7.715
14097TIP3    H242169   0.386   3.893   7.830
14098TIP3   OH242170   1.936   4.232   7.840
14098TIP3    H142171   2.000   4.164   7.821
14098TIP3    H242172   1.955   4.302   7.777
14099TIP3   OH242173   2.110   4.019   7.831
14099TIP3    H142174   2.036   3.981   7.879
14099TIP3    H242175   2.185   3.966   7.857
14100TIP3   OH242176   1.582   3.248   6.404
14100TIP3    H142177   1.647   3.221   6.469
14100TIP3    H242178   1.500   3.210   6.436
14101TIP3   OH242179   1.648   3.537   6.869
14101TIP3    H142180   1.694   3.454   6.882
14101TIP3    H242181   1.690   3.576   6.792
14102TIP3   OH242182   1.802   3.701   7.395
14102TIP3    H142183   1.883   3.719   7.346
14102TIP3    H242184   1.815   3.743   7.480
14103TIP3   OH242185   1.877   3.854   7.622
14103TIP3    H142186   1.803   3.883   7.675
14103TIP3    H242187   1.908   3.932   7.577
14104TIP3   OH242188   3.733   8.210   0.397
14104TIP3    H142189   3.790   8.258   0.337
14104TIP3    H242190   3.791   8.180   0.467
14105TIP3   OH242191   5.599   8.082   0.125
14105TIP3    H142192   5.662   8.017   0.094
14105TIP3    H242193   5.566   8.123   0.045
14106TIP3   OH242194   1.765   3.287   6.923
14106TIP3    H142195   1.809   3.272   7.006
14106TIP3    H242196   1.702   3.216   6.915
14107TIP3   OH242197   0.455   3.246   7.752
14107TIP3    H142198   0.528   3.187   7.736
14107TIP3    H242199   0.494   3.333   7.751
14108TIP3   OH242200   0.282   3.606   7.868
14108TIP3    H142201   0.331   3.571   7.793
14108TIP3    H242202   0.273   3.699   7.849
14109TIP3   OH242203   2.184   3.570   7.929
14109TIP3    H142204   2.099   3.612   7.943
14109TIP3    H242205   2.164   3.489   7.882
14110TIP3   OH242206   1.810   3.198   6.560
14110TIP3    H142207   1.859   3.139   6.504
14110TIP3    H242208   1.863   3.278   6.563
14111TIP3   OH242209   0.325   3.026   7.376
14111TIP3    H142210   0.286   2.953   7.425
14111TIP3    H242211   0.255   3.056   7.318
14112TIP3   OH242212   1.387   4.764   6.831
14112TIP3    H142213   1.440   4.749   6.752
14112TIP3    H242214   1.439   4.826   6.883
14113TIP3   OH242215   3.715   7.733   0.051
14113TIP3    H142216   3.692   7.819   0.085
14113TIP3    H242217   3.692   7.736  -0.042
14114TIP3   OH242218   3.797   9.209   0.209
14114TIP3    H142219   3.702   9.197   0.210
14114TIP3    H242220   3.813   9.278   0.274
14115TIP3   OH242221   0.736   4.602   7.763
14115TIP3    H142222   0.668   4.659   7.726
14115TIP3    H242223   0.815   4.623   7.713
14116TIP3   OH242224   1.113   4.834   7.892
14116TIP3    H142225   1.148   4.830   7.982
14116TIP3    H242226   1.179   4.884   7.844
14117TIP3   OH242227   1.310   4.985   7.771
14117TIP3    H142228   1.378   4.932   7.730
14117TIP3    H242229   1.358   5.049   7.824
14118TIP3   OH242230   2.090   3.328   7.836
14118TIP3    H142231   2.009   3.338   7.786
14118TIP3    H242232   2.112   3.236   7.827
14119TIP3   OH242233   0.558   4.784   7.643
14119TIP3    H142234   0.498   4.710   7.632
14119TIP3    H242235   0.555   4.830   7.559
14120TIP3   OH242236   1.039   4.860   7.455
14120TIP3    H142237   0.975   4.866   7.384
14120TIP3    H242238   1.047   4.950   7.487
14121TIP3   OH242239   1.293   4.775   7.494
14121TIP3    H142240   1.202   4.802   7.480
14121TIP3    H242241   1.344   4.842   7.449
14122TIP3   OH242242   1.479   4.957   7.394
14122TIP3    H142243   1.474   5.044   7.354
14122TIP3    H242244   1.511   4.900   7.324
14123TIP3   OH242245   0.303   4.578   7.546
14123TIP3    H142246   0.285   4.547   7.635
14123TIP3    H242247   0.395   4.556   7.532
14124TIP3   OH242248   0.554   4.531   7.467
14124TIP3    H142249   0.568   4.436   7.460
14124TIP3    H242250   0.638   4.569   7.441
14125TIP3   OH242251   0.811   4.593   7.397
14125TIP3    H142252   0.834   4.502   7.378
14125TIP3    H242253   0.865   4.616   7.473
14126TIP3   OH242254   1.311   3.242   7.493
14126TIP3    H142255   1.263   3.172   7.537
14126TIP3    H242256   1.379   3.196   7.443
14127TIP3   OH242257   1.806   3.160   7.387
14127TIP3    H142258   1.841   3.209   7.312
14127TIP3    H242259   1.712   3.176   7.384
14128TIP3   OH242260   1.921   3.230   7.146
14128TIP3    H142261   1.989   3.170   7.118
14128TIP3    H242262   1.958   3.317   7.134
14129TIP3   OH242263   0.575   2.935   7.475
14129TIP3    H142264   0.481   2.925   7.462
14129TIP3    H242265   0.609   2.846   7.475
14130TIP3   OH242266   0.366   2.846   7.159
14130TIP3    H142267   0.401   2.885   7.079
14130TIP3    H242268   0.383   2.910   7.227
14131TIP3   OH242269   1.020   2.985   7.377
14131TIP3    H142270   1.068   3.026   7.305
14131TIP3    H242271   1.063   3.018   7.456
14132TIP3   OH242272   1.522   3.117   7.366
14132TIP3    H142273   1.530   3.082   7.277
14132TIP3    H242274   1.529   3.040   7.422
14133TIP3   OH242275   1.579   3.076   6.930
14133TIP3    H142276   1.500   3.124   6.954
14133TIP3    H242277   1.567   2.988   6.966
14134TIP3   OH242278   0.482   2.985   6.948
14134TIP3    H142279   0.528   2.918   6.897
14134TIP3    H242280   0.551   3.045   6.976
14135TIP3   OH242281   0.964   3.171   6.994
14135TIP3    H142282   1.024   3.119   7.048
14135TIP3    H242283   0.981   3.262   7.019
14136TIP3   OH242284   0.832   4.593   6.470
14136TIP3    H142285   0.921   4.612   6.438
14136TIP3    H242286   0.809   4.510   6.429
14137TIP3   OH242287   1.538   4.713   6.602
14137TIP3    H142288   1.535   4.618   6.593
14137TIP3    H242289   1.502   4.747   6.520
14138TIP3   OH242290   4.003   7.919   0.318
14138TIP3    H142291   3.956   7.837   0.332
14138TIP3    H242292   4.095   7.895   0.317
14139TIP3   OH242293   4.261   7.851   0.359
14139TIP3    H142294   4.348   7.832   0.324
14139TIP3    H242295   4.277   7.916   0.427
14140TIP3   OH242296   0.201   4.458   6.517
14140TIP3    H142297   0.241   4.523   6.575
14140TIP3    H242298   0.269   4.392   6.504
14141TIP3   OH242299   5.114   7.912   0.257
14141TIP3    H142300   5.135   7.907   0.350
14141TIP3    H242301   5.198   7.923   0.213
14142TIP3   OH242302   1.766   4.858   7.781
14142TIP3    H142303   1.692   4.826   7.729
14142TIP3    H242304   1.754   4.953   7.784
14143TIP3   OH242305   3.037   4.238   6.530
14143TIP3    H142306   3.002   4.325   6.513
14143TIP3    H242307   2.968   4.178   6.501
14144TIP3   OH242308   3.041   4.234   6.950
14144TIP3    H142309   3.091   4.214   7.029
14144TIP3    H242310   2.994   4.152   6.930
14145TIP3   OH242311   2.334   4.095   7.296
14145TIP3    H142312   2.374   4.043   7.366
14145TIP3    H242313   2.408   4.119   7.240
14146TIP3   OH242314   3.330   4.534   6.623
14146TIP3    H142315   3.301   4.474   6.691
14146TIP3    H242316   3.335   4.619   6.667
14147TIP3   OH242317   2.322   4.521   6.983
14147TIP3    H142318   2.305   4.427   6.988
14147TIP3    H242319   2.417   4.527   6.972
14148TIP3   OH242320   2.007   3.724   6.770
14148TIP3    H142321   1.970   3.810   6.791
14148TIP3    H242322   1.936   3.677   6.727
14149TIP3   OH242323   2.088   4.037   6.988
14149TIP3    H142324   2.139   3.960   7.013
14149TIP3    H242325   2.154   4.102   6.962
14150TIP3   OH242326   2.956   4.975   6.638
14150TIP3    H142327   2.994   4.912   6.576
14150TIP3    H242328   2.938   4.923   6.716
14151TIP3   OH242329   2.840   4.456   6.953
14151TIP3    H142330   2.884   4.378   6.919
14151TIP3    H242331   2.911   4.511   6.988
14152TIP3   OH242332   3.869   3.778   6.970
14152TIP3    H142333   3.890   3.861   7.012
14152TIP3    H242334   3.908   3.784   6.883
14153TIP3   OH242335   3.252   3.941   6.990
14153TIP3    H142336   3.286   3.856   7.017
14153TIP3    H242337   3.213   3.926   6.904
14154TIP3   OH242338   2.605   3.598   6.948
14154TIP3    H142339   2.585   3.672   6.891
14154TIP3    H242340   2.550   3.527   6.916
14155TIP3   OH242341   3.303   3.703   6.588
14155TIP3    H142342   3.367   3.701   6.659
14155TIP3    H242343   3.352   3.734   6.512
14156TIP3   OH242344   2.228   3.814   7.081
14156TIP3    H142345   2.312   3.798   7.123
14156TIP3    H242346   2.231   3.764   6.999
14157TIP3   OH242347   2.648   4.016   6.897
14157TIP3    H142348   2.742   4.001   6.901
14157TIP3    H242349   2.613   3.934   6.861
14158TIP3   OH242350   3.924   3.998   7.134
14158TIP3    H142351   3.834   4.028   7.137
14158TIP3    H242352   3.964   4.033   7.213
14159TIP3   OH242353   2.584   3.606   7.401
14159TIP3    H142354   2.535   3.641   7.327
14159TIP3    H242355   2.529   3.624   7.477
14160TIP3   OH242356   2.902   4.452   6.422
14160TIP3    H142357   2.885   4.433   6.330
14160TIP3    H242358   2.866   4.539   6.436
14161TIP3   OH242359   2.676   4.381   7.164
14161TIP3    H142360   2.624   4.453   7.198
14161TIP3    H242361   2.725   4.420   7.091
14162TIP3   OH242362   3.462   3.739   6.808
14162TIP3    H142363   3.426   3.712   6.892
14162TIP3    H242364   3.521   3.811   6.829
14163TIP3   OH242365   2.477   3.711   7.169
14163TIP3    H142366   2.532   3.786   7.191
14163TIP3    H242367   2.522   3.668   7.097
14164TIP3   OH242368   2.524   4.585   7.273
14164TIP3    H142369   2.511   4.676   7.244
14164TIP3    H242370   2.446   4.565   7.325
14165TIP3   OH242371   1.901   4.286   6.528
14165TIP3    H142372   1.872   4.303   6.438
14165TIP3    H242373   1.925   4.372   6.562
14166TIP3   OH242374   3.346   4.793   6.753
14166TIP3    H142375   3.263   4.782   6.800
14166TIP3    H242376   3.336   4.876   6.706
14167TIP3   OH242377   3.679   3.661   7.154
14167TIP3    H142378   3.590   3.674   7.120
14167TIP3    H242379   3.736   3.685   7.081
14168TIP3   OH242380   2.924   3.296   7.135
14168TIP3    H142381   2.915   3.204   7.159
14168TIP3    H242382   2.847   3.338   7.172
14169TIP3   OH242383   3.062   4.831   6.425
14169TIP3    H142384   3.107   4.747   6.413
14169TIP3    H242385   3.128   4.896   6.402
14170TIP3   OH242386   3.204   4.602   6.380
14170TIP3    H142387   3.211   4.532   6.315
14170TIP3    H242388   3.249   4.568   6.457
14171TIP3   OH242389   3.569   4.674   7.102
14171TIP3    H142390   3.557   4.598   7.045
14171TIP3    H242391   3.553   4.750   7.044
14172TIP3   OH242392   2.867   4.078   6.377
14172TIP3    H142393   2.786   4.126   6.359
14172TIP3    H242394   2.913   4.076   6.293
14173TIP3   OH242395   2.835   3.862   6.094
14173TIP3    H142396   2.902   3.914   6.137
14173TIP3    H242397   2.883   3.802   6.037
14174TIP3   OH242398   3.767   4.319   6.981
14174TIP3    H142399   3.688   4.368   6.960
14174TIP3    H242400   3.782   4.263   6.905
14175TIP3   OH242401   3.218   4.174   6.336
14175TIP3    H142402   3.162   4.199   6.410
14175TIP3    H242403   3.298   4.140   6.377
14176TIP3   OH242404   3.448   4.195   7.291
14176TIP3    H142405   3.446   4.280   7.334
14176TIP3    H242406   3.367   4.192   7.241
14177TIP3   OH242407   2.449   4.149   6.743
14177TIP3    H142408   2.413   4.090   6.677
14177TIP3    H242409   2.522   4.101   6.781
14178TIP3   OH242410   2.584   4.570   6.883
14178TIP3    H142411   2.560   4.558   6.791
14178TIP3    H242412   2.671   4.532   6.890
14179TIP3   OH242413   2.546   4.144   7.119
14179TIP3    H142414   2.584   4.108   7.039
14179TIP3    H242415   2.593   4.226   7.134
14180TIP3   OH242416   3.123   4.777   6.907
14180TIP3    H142417   3.103   4.858   6.954
14180TIP3    H242418   3.099   4.707   6.967
14181TIP3   OH242419   2.724   4.677   7.442
14181TIP3    H142420   2.664   4.735   7.490
14181TIP3    H242421   2.667   4.628   7.383
14182TIP3   OH242422   3.059   4.020   6.171
14182TIP3    H142423   3.116   4.082   6.216
14182TIP3    H242424   3.069   4.041   6.078
14183TIP3   OH242425   2.476   4.223   7.592
14183TIP3    H142426   2.481   4.317   7.607
14183TIP3    H242427   2.383   4.206   7.580
14184TIP3   OH242428   2.805   4.716   6.422
14184TIP3    H142429   2.889   4.761   6.426
14184TIP3    H242430   2.748   4.776   6.374
14185TIP3   OH242431   2.518   4.837   7.532
14185TIP3    H142432   2.495   4.854   7.441
14185TIP3    H242433   2.435   4.825   7.577
14186TIP3   OH242434   3.565   3.256   6.231
14186TIP3    H142435   3.488   3.277   6.284
14186TIP3    H242436   3.575   3.332   6.173
14187TIP3   OH242437   2.328   3.992   6.540
14187TIP3    H142438   2.249   4.038   6.511
14187TIP3    H242439   2.302   3.900   6.545
14188TIP3   OH242440   3.386   4.630   5.779
14188TIP3    H142441   3.387   4.722   5.753
14188TIP3    H242442   3.474   4.599   5.760
14189TIP3   OH242443   2.107   4.396   7.476
14189TIP3    H142444   2.038   4.379   7.412
14189TIP3    H242445   2.142   4.309   7.497
14190TIP3   OH242446   1.954   4.589   7.128
14190TIP3    H142447   2.048   4.608   7.137
14190TIP3    H242448   1.911   4.668   7.161
14191TIP3   OH242449   3.805   5.023   7.178
14191TIP3    H142450   3.810   4.929   7.195
14191TIP3    H242451   3.726   5.052   7.224
14192TIP3   OH242452   2.910   4.827   7.307
14192TIP3    H142453   2.904   4.917   7.338
14192TIP3    H242454   2.844   4.779   7.356
14193TIP3   OH242455   2.662   4.929   6.246
14193TIP3    H142456   2.601   4.913   6.174
14193TIP3    H242457   2.636   5.015   6.280
14194TIP3   OH242458   2.130   4.778   6.630
14194TIP3    H142459   2.174   4.771   6.714
14194TIP3    H242460   2.080   4.696   6.622
14195TIP3   OH242461   2.929   4.991   6.218
14195TIP3    H142462   2.838   4.960   6.221
14195TIP3    H242463   2.980   4.920   6.256
14196TIP3   OH242464   3.694   4.154   7.451
14196TIP3    H142465   3.610   4.167   7.407
14196TIP3    H242466   3.713   4.061   7.439
14197TIP3   OH242467   2.307   4.582   7.443
14197TIP3    H142468   2.356   4.572   7.525
14197TIP3    H242469   2.234   4.521   7.450
14198TIP3   OH242470   2.688   3.388   7.260
14198TIP3    H142471   2.605   3.355   7.226
14198TIP3    H242472   2.666   3.469   7.305
14199TIP3   OH242473   3.222   3.514   7.462
14199TIP3    H142474   3.288   3.491   7.527
14199TIP3    H242475   3.138   3.499   7.506
14200TIP3   OH242476   3.448   3.929   7.375
14200TIP3    H142477   3.410   3.924   7.463
14200TIP3    H242478   3.434   4.019   7.348
14201TIP3   OH242479   3.071   4.074   5.901
14201TIP3    H142480   3.071   4.054   5.808
14201TIP3    H242481   3.077   4.170   5.905
14202TIP3   OH242482   2.844   3.424   6.229
14202TIP3    H142483   2.804   3.433   6.315
14202TIP3    H242484   2.806   3.343   6.193
14203TIP3   OH242485   2.628   3.922   7.266
14203TIP3    H142486   2.583   3.930   7.350
14203TIP3    H242487   2.607   4.003   7.220
14204TIP3   OH242488   2.509   3.800   6.790
14204TIP3    H142489   2.419   3.777   6.813
14204TIP3    H242490   2.519   3.769   6.700
14205TIP3   OH242491   2.988   3.874   6.515
14205TIP3    H142492   2.941   3.946   6.474
14205TIP3    H242493   3.046   3.841   6.446
14206TIP3   OH242494   3.179   4.142   7.585
14206TIP3    H142495   3.152   4.075   7.647
14206TIP3    H242496   3.271   4.159   7.606
14207TIP3   OH242497   3.154   3.889   6.739
14207TIP3    H142498   3.087   3.911   6.675
14207TIP3    H242499   3.202   3.816   6.700
14208TIP3   OH242500   2.468   3.940   7.489
14208TIP3    H142501   2.479   4.005   7.558
14208TIP3    H242502   2.449   3.858   7.536
14209TIP3   OH242503   2.511   3.411   6.204
14209TIP3    H142504   2.500   3.418   6.299
14209TIP3    H242505   2.433   3.454   6.168
14210TIP3   OH242506   2.053   3.453   7.075
14210TIP3    H142507   2.126   3.491   7.124
14210TIP3    H242508   2.088   3.441   6.986
14211TIP3   OH242509   1.958   3.434   6.571
14211TIP3    H142510   2.003   3.469   6.494
14211TIP3    H242511   1.894   3.501   6.594
14212TIP3   OH242512   3.200   4.142   7.165
14212TIP3    H142513   3.225   4.075   7.101
14212TIP3    H242514   3.154   4.093   7.233
14213TIP3   OH242515   2.875   3.588   6.839
14213TIP3    H142516   2.797   3.588   6.894
14213TIP3    H242517   2.948   3.582   6.901
14214TIP3   OH242518   2.269   3.675   6.848
14214TIP3    H142519   2.181   3.680   6.810
14214TIP3    H242520   2.298   3.586   6.830
14215TIP3   OH242521   2.523   3.679   6.544
14215TIP3    H142522   2.617   3.689   6.531
14215TIP3    H242523   2.485   3.695   6.457
14216TIP3   OH242524   3.326   3.680   7.049
14216TIP3    H142525   3.302   3.697   7.140
14216TIP3    H242526   3.260   3.618   7.018
14217TIP3   OH242527   2.404   3.697   6.299
14217TIP3    H142528   2.342   3.648   6.244
14217TIP3    H242529   2.457   3.747   6.237
14218TIP3   OH242530   3.543   5.375   7.269
14218TIP3    H142531   3.542   5.382   7.174
14218TIP3    H242532   3.621   5.423   7.296
14219TIP3   OH242533   2.460   4.490   7.681
14219TIP3    H142534   2.540   4.513   7.727
14219TIP3    H242535   2.390   4.503   7.745
14220TIP3   OH242536   2.922   3.963   6.945
14220TIP3    H142537   2.988   3.914   6.895
14220TIP3    H242538   2.921   3.920   7.031
14221TIP3   OH242539   2.412   3.427   6.829
14221TIP3    H142540   2.384   3.351   6.880
14221TIP3    H242541   2.430   3.393   6.742
14222TIP3   OH242542   2.894   3.863   7.210
14222TIP3    H142543   2.807   3.895   7.232
14222TIP3    H242544   2.953   3.916   7.262
14223TIP3   OH242545   2.639   4.224   6.311
14223TIP3    H142546   2.563   4.173   6.282
14223TIP3    H242547   2.611   4.263   6.394
14224TIP3   OH242548   3.534   4.461   6.923
14224TIP3    H142549   3.562   4.516   6.849
14224TIP3    H242550   3.450   4.424   6.894
14225TIP3   OH242551   3.095   3.530   6.233
14225TIP3    H142552   3.002   3.507   6.228
14225TIP3    H242553   3.095   3.625   6.244
14226TIP3   OH242554   3.036   4.559   7.348
14226TIP3    H142555   3.087   4.551   7.428
14226TIP3    H242556   2.995   4.645   7.354
14227TIP3   OH242557   3.153   3.795   6.302
14227TIP3    H142558   3.249   3.798   6.309
14227TIP3    H242559   3.130   3.870   6.248
14228TIP3   OH242560   2.314   4.229   6.971
14228TIP3    H142561   2.352   4.213   6.885
14228TIP3    H242562   2.381   4.202   7.033
14229TIP3   OH242563   2.818   4.381   6.159
14229TIP3    H142564   2.764   4.455   6.131
14229TIP3    H242565   2.756   4.321   6.201
14230TIP3   OH242566   2.201   4.161   7.605
14230TIP3    H142567   2.203   4.135   7.697
14230TIP3    H242568   2.126   4.115   7.568
14231TIP3   OH242569   2.945   4.295   7.628
14231TIP3    H142570   2.876   4.236   7.600
14231TIP3    H242571   3.026   4.255   7.597
14232TIP3   OH242572   3.181   4.847   7.230
14232TIP3    H142573   3.086   4.833   7.237
14232TIP3    H242574   3.206   4.884   7.314
14233TIP3   OH242575   3.566   3.889   6.115
14233TIP3    H142576   3.511   3.840   6.054
14233TIP3    H242577   3.571   3.977   6.077
14234TIP3   OH242578   3.817   4.740   7.197
14234TIP3    H142579   3.722   4.732   7.186
14234TIP3    H242580   3.852   4.718   7.111
14235TIP3   OH242581   3.312   4.692   6.041
14235TIP3    H142582   3.283   4.614   6.088
14235TIP3    H242583   3.333   4.661   5.953
14236TIP3   OH242584   3.292   4.336   6.829
14236TIP3    H142585   3.202   4.317   6.855
14236TIP3    H242586   3.323   4.255   6.788
14237TIP3   OH242587   2.448   4.574   6.635
14237TIP3    H142588   2.448   4.649   6.575
14237TIP3    H242589   2.356   4.558   6.653
14238TIP3   OH242590   2.007   3.857   6.352
14238TIP3    H142591   2.049   3.941   6.373
14238TIP3    H242592   1.926   3.859   6.402
14239TIP3   OH242593   2.531   4.327   6.540
14239TIP3    H142594   2.518   4.416   6.571
14239TIP3    H242595   2.504   4.272   6.613
14240TIP3   OH242596   2.727   4.892   7.098
14240TIP3    H142597   2.763   4.962   7.045
14240TIP3    H242598   2.800   4.862   7.152
14241TIP3   OH242599   2.362   4.795   6.477
14241TIP3    H142600   2.275   4.797   6.516
14241TIP3    H242601   2.396   4.884   6.488
14242TIP3   OH242602   3.073   4.556   7.073
14242TIP3    H142603   3.060   4.555   7.168
14242TIP3    H242604   3.148   4.499   7.058
14243TIP3   OH242605   3.052   4.346   5.986
14243TIP3    H142606   3.116   4.373   6.051
14243TIP3    H242607   2.967   4.359   6.028
14244TIP3   OH242608   3.340   5.057   7.102
14244TIP3    H142609   3.266   4.999   7.118
14244TIP3    H242610   3.308   5.119   7.036
14245TIP3   OH242611   3.405   4.906   5.734
14245TIP3    H142612   3.416   4.963   5.659
14245TIP3    H242613   3.334   4.946   5.785
14246TIP3   OH242614   2.413   3.685   7.608
14246TIP3    H142615   2.318   3.692   7.612
14246TIP3    H242616   2.437   3.635   7.685
14247TIP3   OH242617   3.251   4.399   6.178
14247TIP3    H142618   3.230   4.323   6.233
14247TIP3    H242619   3.343   4.387   6.155
14248TIP3   OH242620   2.156   4.799   7.257
14248TIP3    H142621   2.209   4.741   7.311
14248TIP3    H242622   2.169   4.886   7.295
14249TIP3   OH242623   2.338   4.364   5.969
14249TIP3    H142624   2.377   4.413   5.897
14249TIP3    H242625   2.373   4.405   6.048
14250TIP3   OH242626   2.370   4.436   6.244
14250TIP3    H142627   2.441   4.404   6.301
14250TIP3    H242628   2.385   4.530   6.239
14251TIP3   OH242629   2.099   4.108   6.436
14251TIP3    H142630   2.034   4.157   6.487
14251TIP3    H242631   2.122   4.167   6.365
14252TIP3   OH242632   3.256   3.740   7.308
14252TIP3    H142633   3.334   3.786   7.341
14252TIP3    H242634   3.247   3.665   7.366
14253TIP3   OH242635   3.154   3.484   6.501
14253TIP3    H142636   3.132   3.501   6.410
14253TIP3    H242637   3.197   3.564   6.532
14254TIP3   OH242638   2.650   4.591   6.094
14254TIP3    H142639   2.576   4.625   6.145
14254TIP3    H242640   2.676   4.665   6.039
14255TIP3   OH242641   2.804   3.682   6.586
14255TIP3    H142642   2.865   3.751   6.559
14255TIP3    H242643   2.828   3.663   6.677
14256TIP3   OH242644   3.098   3.978   7.362
14256TIP3    H142645   3.125   4.023   7.442
14256TIP3    H242646   3.148   3.897   7.362
14257TIP3   OH242647   2.965   3.378   6.674
14257TIP3    H142648   2.941   3.456   6.724
14257TIP3    H242649   3.035   3.409   6.615
14258TIP3   OH242650   2.428   4.703   6.222
14258TIP3    H142651   2.422   4.776   6.160
14258TIP3    H242652   2.406   4.741   6.307
14259TIP3   OH242653   2.476   3.405   6.484
14259TIP3    H142654   2.464   3.497   6.510
14259TIP3    H242655   2.570   3.390   6.490
14260TIP3   OH242656   3.714   3.887   7.352
14260TIP3    H142657   3.619   3.890   7.365
14260TIP3    H242658   3.726   3.831   7.275
14261TIP3   OH242659   3.379   4.078   6.734
14261TIP3    H142660   3.302   4.022   6.748
14261TIP3    H242661   3.446   4.040   6.791
14262TIP3   OH242662   2.129   4.294   6.232
14262TIP3    H142663   2.202   4.355   6.243
14262TIP3    H242664   2.155   4.238   6.159
14263TIP3   OH242665   2.031   3.580   6.351
14263TIP3    H142666   2.041   3.675   6.359
14263TIP3    H242667   1.992   3.567   6.265
14264TIP3   OH242668   3.353   5.075   6.681
14264TIP3    H142669   3.310   5.124   6.612
14264TIP3    H242670   3.446   5.086   6.664
14265TIP3   OH242671   2.427   3.303   7.216
14265TIP3    H142672   2.399   3.272   7.130
14265TIP3    H242673   2.418   3.227   7.273
14266TIP3   OH242674   1.951   4.556   6.613
14266TIP3    H142675   1.910   4.593   6.690
14266TIP3    H242676   1.907   4.599   6.539
14267TIP3   OH242677   2.158   5.092   7.660
14267TIP3    H142678   2.234   5.102   7.718
14267TIP3    H242679   2.153   4.997   7.644
14268TIP3   OH242680   2.607   5.003   7.738
14268TIP3    H142681   2.701   5.018   7.732
14268TIP3    H242682   2.586   4.947   7.663
14269TIP3   OH242683   3.240   4.945   7.479
14269TIP3    H142684   3.254   4.876   7.543
14269TIP3    H242685   3.314   5.005   7.492
14270TIP3   OH242686   2.253   4.492   7.870
14270TIP3    H142687   2.271   4.398   7.881
14270TIP3    H242688   2.166   4.495   7.829
14271TIP3   OH242689   2.236   4.123   6.045
14271TIP3    H142690   2.303   4.089   6.105
14271TIP3    H242691   2.279   4.197   6.002
14272TIP3   OH242692   2.877   4.572   7.646
14272TIP3    H142693   2.832   4.595   7.565
14272TIP3    H242694   2.912   4.484   7.630
14273TIP3   OH242695   3.348   4.619   7.260
14273TIP3    H142696   3.425   4.646   7.210
14273TIP3    H242697   3.284   4.689   7.246
14274TIP3   OH242698   2.368   4.233   7.874
14274TIP3    H142699   2.438   4.224   7.809
14274TIP3    H242700   2.413   4.259   7.954
14275TIP3   OH242701   2.422   4.051   6.260
14275TIP3    H142702   2.400   4.021   6.348
14275TIP3    H242703   2.468   3.977   6.220
14276TIP3   OH242704   2.737   4.122   7.534
14276TIP3    H142705   2.651   4.162   7.546
14276TIP3    H242706   2.766   4.152   7.449
14277TIP3   OH242707   2.557   3.847   6.129
14277TIP3    H142708   2.530   3.840   6.038
14277TIP3    H242709   2.653   3.850   6.126
14278TIP3   OH242710   3.229   4.497   7.616
14278TIP3    H142711   3.297   4.458   7.561
14278TIP3    H242712   3.226   4.441   7.694
14279TIP3   OH242713   3.398   4.181   5.751
14279TIP3    H142714   3.354   4.129   5.683
14279TIP3    H242715   3.340   4.256   5.764
14280TIP3   OH242716   2.838   3.888   7.637
14280TIP3    H142717   2.840   3.818   7.571
14280TIP3    H242718   2.805   3.964   7.589
14281TIP3   OH242719   2.845   3.689   7.436
14281TIP3    H142720   2.872   3.727   7.352
14281TIP3    H242721   2.754   3.663   7.422
14282TIP3   OH242722   2.848   4.223   7.308
14282TIP3    H142723   2.935   4.261   7.297
14282TIP3    H242724   2.791   4.281   7.258
14283TIP3   OH242725   3.445   4.184   7.686
14283TIP3    H142726   3.499   4.105   7.688
14283TIP3    H242727   3.509   4.256   7.680
14284TIP3   OH242728   3.474   4.442   7.423
14284TIP3    H142729   3.420   4.504   7.374
14284TIP3    H242730   3.563   4.458   7.392
14285TIP3   OH242731   2.719   3.970   7.877
14285TIP3    H142732   2.647   3.911   7.898
14285TIP3    H242733   2.746   3.946   7.789
14286TIP3   OH242734   2.961   3.458   7.543
14286TIP3    H142735   2.921   3.538   7.510
14286TIP3    H242736   2.895   3.390   7.529
14287TIP3   OH242737   3.093   3.933   7.740
14287TIP3    H142738   3.079   3.920   7.834
14287TIP3    H242739   3.008   3.912   7.700
14288TIP3   OH242740   3.339   3.882   7.616
14288TIP3    H142741   3.260   3.885   7.671
14288TIP3    H242742   3.410   3.862   7.677
14289TIP3   OH242743   3.578   3.846   7.761
14289TIP3    H142744   3.590   3.751   7.770
14289TIP3    H242745   3.570   3.878   7.851
14290TIP3   OH242746   2.552   3.750   7.942
14290TIP3    H142747   2.559   3.662   7.905
14290TIP3    H242748   2.596   3.743   8.027
14291TIP3   OH242749   3.040   3.426   7.804
14291TIP3    H142750   3.109   3.360   7.797
14291TIP3    H242751   3.007   3.437   7.715
14292TIP3   OH242752   3.133   3.656   7.925
14292TIP3    H142753   3.101   3.581   7.876
14292TIP3    H242754   3.058   3.716   7.928
14293TIP3   OH242755   2.475   4.908   6.030
14293TIP3    H142756   2.542   4.934   5.966
14293TIP3    H242757   2.393   4.916   5.982
14294TIP3   OH242758   1.853   4.280   6.237
14294TIP3    H142759   1.948   4.294   6.233
14294TIP3    H242760   1.840   4.194   6.199
14295TIP3   OH242761   1.748   4.867   6.697
14295TIP3    H142762   1.684   4.812   6.651
14295TIP3    H242763   1.794   4.806   6.755
14296TIP3   OH242764   1.895   4.700   6.863
14296TIP3    H142765   1.887   4.631   6.930
14296TIP3    H242766   1.947   4.768   6.904
14297TIP3   OH242767   3.626   5.121   6.668
14297TIP3    H142768   3.654   5.149   6.755
14297TIP3    H242769   3.690   5.160   6.609
14298TIP3   OH242770   3.662   5.133   6.954
14298TIP3    H142771   3.612   5.053   6.944
14298TIP3    H242772   3.730   5.111   7.018
14299TIP3   OH242773   3.714   4.839   7.522
14299TIP3    H142774   3.641   4.848   7.583
14299TIP3    H242775   3.758   4.924   7.526
14300TIP3   OH242776   3.519   4.343   6.138
14300TIP3    H142777   3.576   4.411   6.102
14300TIP3    H242778   3.568   4.306   6.211
14301TIP3   OH242779   3.640   4.207   6.350
14301TIP3    H142780   3.566   4.156   6.384
14301TIP3    H242781   3.669   4.260   6.425
14302TIP3   OH242782   3.694   4.618   6.752
14302TIP3    H142783   3.688   4.576   6.666
14302TIP3    H242784   3.696   4.712   6.732
14303TIP3   OH242785   3.511   4.898   6.951
14303TIP3    H142786   3.446   4.945   7.004
14303TIP3    H242787   3.460   4.862   6.878
14304TIP3   OH242788   3.557   4.127   5.971
14304TIP3    H142789   3.499   4.136   5.896
14304TIP3    H242790   3.536   4.202   6.027
14305TIP3   OH242791   3.416   3.769   5.919
14305TIP3    H142792   3.371   3.809   5.845
14305TIP3    H242793   3.409   3.675   5.905
14306TIP3   OH242794   3.438   4.060   6.464
14306TIP3    H142795   3.443   3.965   6.449
14306TIP3    H242796   3.420   4.068   6.558
14307TIP3   OH242797   2.070   4.128   7.245
14307TIP3    H142798   2.061   4.099   7.154
14307TIP3    H242799   2.164   4.126   7.261
14308TIP3   OH242800   3.733   4.490   7.334
14308TIP3    H142801   3.798   4.421   7.317
14308TIP3    H242802   3.759   4.562   7.275
14309TIP3   OH242803   3.906   4.276   7.327
14309TIP3    H142804   3.833   4.235   7.374
14309TIP3    H242805   3.981   4.218   7.344
14310TIP3   OH242806   3.380   3.497   5.881
14310TIP3    H142807   3.443   3.475   5.950
14310TIP3    H242808   3.296   3.463   5.914
14311TIP3   OH242809   3.445   3.791   6.356
14311TIP3    H142810   3.490   3.709   6.370
14311TIP3    H242811   3.486   3.829   6.278
14312TIP3   OH242812   3.602   3.975   6.876
14312TIP3    H142813   3.682   4.004   6.831
14312TIP3    H242814   3.612   4.006   6.966
14313TIP3   OH242815   3.662   4.103   7.119
14313TIP3    H142816   3.588   4.128   7.174
14313TIP3    H242817   3.697   4.186   7.086
14314TIP3   OH242818   2.292   3.820   7.882
14314TIP3    H142819   2.386   3.815   7.902
14314TIP3    H242820   2.257   3.737   7.914
14315TIP3   OH242821   4.136   3.690   7.647
14315TIP3    H142822   4.203   3.641   7.600
14315TIP3    H242823   4.096   3.746   7.580
14316TIP3   OH242824   3.560   3.544   6.412
14316TIP3    H142825   3.605   3.527   6.495
14316TIP3    H242826   3.498   3.471   6.405
14317TIP3   OH242827   2.266   3.528   7.240
14317TIP3    H142828   2.320   3.449   7.242
14317TIP3    H242829   2.328   3.598   7.218
14318TIP3   OH242830   2.045   3.794   7.297
14318TIP3    H142831   2.097   3.781   7.218
14318TIP3    H242832   2.063   3.885   7.322
14319TIP3   OH242833   3.979   3.828   7.471
14319TIP3    H142834   3.913   3.875   7.523
14319TIP3    H242835   3.929   3.761   7.424
14320TIP3   OH242836   3.602   3.457   6.046
14320TIP3    H142837   3.649   3.396   5.989
14320TIP3    H242838   3.658   3.535   6.050
14321TIP3   OH242839   2.034   3.305   6.800
14321TIP3    H142840   1.948   3.291   6.840
14321TIP3    H242841   2.015   3.358   6.722
14322TIP3   OH242842   3.238   5.019   6.330
14322TIP3    H142843   3.272   4.978   6.251
14322TIP3    H242844   3.266   5.111   6.324
14323TIP3   OH242845   2.264   3.351   7.613
14323TIP3    H142846   2.211   3.346   7.693
14323TIP3    H242847   2.211   3.402   7.553
14324TIP3   OH242848   2.288   4.814   7.688
14324TIP3    H142849   2.195   4.791   7.685
14324TIP3    H242850   2.307   4.820   7.782
14325TIP3   OH242851   2.499   4.862   7.249
14325TIP3    H142852   2.448   4.937   7.218
14325TIP3    H242853   2.583   4.870   7.204
14326TIP3   OH242854   2.897   5.092   7.388
14326TIP3    H142855   2.935   5.090   7.476
14326TIP3    H242856   2.955   5.150   7.338
14327TIP3   OH242857   3.078   5.245   7.244
14327TIP3    H142858   3.131   5.184   7.192
14327TIP3    H242859   3.142   5.288   7.301
14328TIP3   OH242860   3.860   3.589   7.374
14328TIP3    H142861   3.795   3.609   7.307
14328TIP3    H242862   3.903   3.510   7.343
14329TIP3   OH242863   2.157   5.097   7.292
14329TIP3    H142864   2.064   5.114   7.272
14329TIP3    H242865   2.181   5.165   7.354
14330TIP3   OH242866   2.387   5.090   7.142
14330TIP3    H142867   2.304   5.095   7.189
14330TIP3    H242868   2.365   5.113   7.051
14331TIP3   OH242869   2.805   5.095   6.927
14331TIP3    H142870   2.732   5.105   6.866
14331TIP3    H242871   2.813   5.180   6.970
14332TIP3   OH242872   3.073   5.046   6.979
14332TIP3    H142873   2.980   5.056   6.960
14332TIP3    H242874   3.116   5.105   6.918
14333TIP3   OH242875   3.289   5.241   6.892
14333TIP3    H142876   3.263   5.324   6.851
14333TIP3    H242877   3.311   5.184   6.818
14334TIP3   OH242878   2.069   4.879   7.006
14334TIP3    H142879   2.095   4.857   7.095
14334TIP3    H242880   2.140   4.846   6.951
14335TIP3   OH242881   2.271   4.763   6.867
14335TIP3    H142882   2.282   4.679   6.910
14335TIP3    H242883   2.358   4.804   6.871
14336TIP3   OH242884   2.540   4.847   6.894
14336TIP3    H142885   2.558   4.754   6.879
14336TIP3    H242886   2.593   4.869   6.971
14337TIP3   OH242887   3.107   3.500   6.978
14337TIP3    H142888   3.068   3.427   7.027
14337TIP3    H242889   3.175   3.460   6.925
14338TIP3   OH242890   3.610   3.408   6.876
14338TIP3    H142891   3.646   3.456   6.801
14338TIP3    H242892   3.516   3.427   6.873
14339TIP3   OH242893   3.717   3.489   6.636
14339TIP3    H142894   3.785   3.427   6.609
14339TIP3    H242895   3.756   3.575   6.620
14340TIP3   OH242896   2.341   3.200   6.975
14340TIP3    H142897   2.251   3.167   6.983
14340TIP3    H242898   2.394   3.121   6.965
14341TIP3   OH242899   2.172   3.113   6.637
14341TIP3    H142900   2.193   3.160   6.556
14341TIP3    H242901   2.131   3.179   6.693
14342TIP3   OH242902   2.823   3.236   6.873
14342TIP3    H142903   2.868   3.283   6.803
14342TIP3    H242904   2.863   3.267   6.954
14343TIP3   OH242905   3.323   3.387   6.846
14343TIP3    H142906   3.334   3.356   6.756
14343TIP3    H242907   3.324   3.308   6.899
14344TIP3   OH242908   3.374   3.334   6.416
14344TIP3    H142909   3.294   3.381   6.439
14344TIP3    H242910   3.363   3.247   6.453
14345TIP3   OH242911   1.829   4.680   6.401
14345TIP3    H142912   1.749   4.645   6.363
14345TIP3    H242913   1.837   4.768   6.364
14346TIP3   OH242914   2.268   3.236   6.391
14346TIP3    H142915   2.314   3.176   6.333
14346TIP3    H242916   2.337   3.293   6.426
14347TIP3   OH242917   2.751   3.431   6.491
14347TIP3    H142918   2.811   3.378   6.544
14347TIP3    H242919   2.767   3.521   6.518
14348TIP3   OH242920   3.347   4.959   6.084
14348TIP3    H142921   3.341   4.865   6.072
14348TIP3    H242922   3.305   4.996   6.006
14349TIP3   OH242923   2.574   3.482   7.855
14349TIP3    H142924   2.539   3.414   7.913
14349TIP3    H242925   2.666   3.489   7.879
14350TIP3   OH242926   2.822   3.478   7.980
14350TIP3    H142927   2.900   3.456   7.930
14350TIP3    H242928   2.813   3.408   8.044
14351TIP3   OH242929   1.957   4.682   6.037
14351TIP3    H142930   1.961   4.649   6.127
14351TIP3    H242931   2.021   4.630   5.989
14352TIP3   OH242932   3.641   3.573   7.767
14352TIP3    H142933   3.655   3.547   7.858
14352TIP3    H242934   3.727   3.565   7.726
14353TIP3   OH242935   3.559   5.099   7.273
14353TIP3    H142936   3.482   5.075   7.220
14353TIP3    H242937   3.552   5.194   7.283
14354TIP3   OH242938   4.845   4.479   6.017
14354TIP3    H142939   4.820   4.568   5.993
14354TIP3    H242940   4.769   4.426   5.991
14355TIP3   OH242941   4.820   4.486   6.432
14355TIP3    H142942   4.874   4.471   6.510
14355TIP3    H242943   4.784   4.400   6.412
14356TIP3   OH242944   4.165   4.408   6.793
14356TIP3    H142945   4.157   4.319   6.827
14356TIP3    H242946   4.190   4.461   6.870
14357TIP3   OH242947   5.084   4.819   6.105
14357TIP3    H142948   5.081   4.748   6.169
14357TIP3    H242949   5.114   4.895   6.155
14358TIP3   OH242950   4.179   4.651   6.538
14358TIP3    H142951   4.167   4.673   6.446
14358TIP3    H242952   4.220   4.728   6.577
14359TIP3   OH242953   3.799   3.989   6.263
14359TIP3    H142954   3.757   4.071   6.290
14359TIP3    H242955   3.729   3.941   6.218
14360TIP3   OH242956   4.641   4.705   6.444
14360TIP3    H142957   4.689   4.626   6.418
14360TIP3    H242958   4.710   4.765   6.473
14361TIP3   OH242959   5.674   4.032   6.462
14361TIP3    H142960   5.691   4.115   6.506
14361TIP3    H242961   5.691   4.050   6.369
14362TIP3   OH242962   5.041   4.197   6.476
14362TIP3    H142963   5.075   4.113   6.506
14362TIP3    H242964   5.008   4.180   6.388
14363TIP3   OH242965   4.404   3.855   6.434
14363TIP3    H142966   4.382   3.930   6.379
14363TIP3    H242967   4.347   3.784   6.404
14364TIP3   OH242968   5.098   3.959   6.071
14364TIP3    H142969   5.160   3.952   6.144
14364TIP3    H242970   5.150   3.993   5.999
14365TIP3   OH242971   4.033   4.082   6.595
14365TIP3    H142972   4.116   4.045   6.625
14365TIP3    H242973   4.023   4.049   6.506
14366TIP3   OH242974   4.455   4.267   6.360
14366TIP3    H142975   4.548   4.247   6.369
14366TIP3    H242976   4.416   4.186   6.329
14367TIP3   OH242977   5.731   4.255   6.620
14367TIP3    H142978   5.641   4.286   6.618
14367TIP3    H242979   5.767   4.291   6.701
14368TIP3   OH242980   4.398   3.901   6.911
14368TIP3    H142981   4.347   3.890   6.831
14368TIP3    H242982   4.333   3.902   6.981
14369TIP3   OH242983   4.748   4.707   5.887
14369TIP3    H142984   4.709   4.687   5.802
14369TIP3    H242985   4.678   4.750   5.937
14370TIP3   OH242986   4.492   4.638   6.665
14370TIP3    H142987   4.435   4.710   6.692
14370TIP3    H242988   4.542   4.672   6.592
14371TIP3   OH242989   5.254   3.980   6.295
14371TIP3    H142990   5.211   3.958   6.378
14371TIP3    H242991   5.309   4.055   6.316
14372TIP3   OH242992   4.273   3.949   6.662
14372TIP3    H142993   4.328   4.024   6.684
14372TIP3    H242994   4.319   3.906   6.590
14373TIP3   OH242995   4.304   4.834   6.742
14373TIP3    H142996   4.302   4.926   6.717
14373TIP3    H242997   4.234   4.825   6.806
14374TIP3   OH242998   3.687   4.522   6.015
14374TIP3    H142999   3.656   4.539   5.926
14374TIP3    H243000   3.707   4.609   6.050
14375TIP3   OH243001   5.144   5.062   6.239
14375TIP3    H143002   5.062   5.048   6.288
14375TIP3    H243003   5.133   5.147   6.197
14376TIP3   OH243004   5.475   3.915   6.627
14376TIP3    H143005   5.389   3.940   6.592
14376TIP3    H243006   5.537   3.944   6.560
14377TIP3   OH243007   4.736   3.550   6.610
14377TIP3    H143008   4.752   3.456   6.619
14377TIP3    H243009   4.658   3.566   6.665
14378TIP3   OH243010   4.952   4.893   5.877
14378TIP3    H143011   4.890   4.819   5.872
14378TIP3    H243012   5.007   4.873   5.952
14379TIP3   OH243013   5.367   4.939   6.592
14379TIP3    H143014   5.351   4.863   6.537
14379TIP3    H243015   5.353   5.014   6.535
14380TIP3   OH243016   4.658   4.337   5.864
14380TIP3    H143017   4.579   4.386   5.843
14380TIP3    H243018   4.706   4.333   5.781
14381TIP3   OH243019   4.621   4.154   5.544
14381TIP3    H143020   4.686   4.202   5.596
14381TIP3    H243021   4.672   4.087   5.498
14382TIP3   OH243022   5.551   4.590   6.458
14382TIP3    H143023   5.467   4.636   6.461
14382TIP3    H243024   5.583   4.604   6.369
14383TIP3   OH243025   5.025   4.430   5.818
14383TIP3    H143026   4.970   4.449   5.894
14383TIP3    H243027   5.108   4.402   5.855
14384TIP3   OH243028   5.241   4.433   6.746
14384TIP3    H143029   5.253   4.516   6.792
14384TIP3    H243030   5.154   4.440   6.706
14385TIP3   OH243031   4.251   4.415   6.232
14385TIP3    H143032   4.208   4.356   6.170
14385TIP3    H243033   4.323   4.363   6.269
14386TIP3   OH243034   4.373   4.823   6.374
14386TIP3    H143035   4.339   4.811   6.285
14386TIP3    H243036   4.460   4.783   6.372
14387TIP3   OH243037   4.370   4.409   6.574
14387TIP3    H143038   4.404   4.365   6.496
14387TIP3    H243039   4.435   4.476   6.594
14388TIP3   OH243040   4.926   5.033   6.394
14388TIP3    H143041   4.896   5.115   6.433
14388TIP3    H243042   4.897   4.965   6.454
14389TIP3   OH243043   4.514   4.936   6.918
14389TIP3    H143044   4.454   4.991   6.967
14389TIP3    H243045   4.457   4.883   6.861
14390TIP3   OH243046   4.848   4.290   5.658
14390TIP3    H143047   4.909   4.347   5.704
14390TIP3    H243048   4.876   4.292   5.567
14391TIP3   OH243049   4.246   4.520   7.032
14391TIP3    H143050   4.260   4.607   7.071
14391TIP3    H243051   4.163   4.490   7.069
14392TIP3   OH243052   4.305   5.092   7.010
14392TIP3    H143053   4.282   5.107   6.918
14392TIP3    H243054   4.221   5.083   7.055
14393TIP3   OH243055   5.363   3.505   5.713
14393TIP3    H143056   5.286   3.526   5.767
14393TIP3    H243057   5.374   3.582   5.658
14394TIP3   OH243058   4.123   4.254   6.032
14394TIP3    H143059   4.046   4.300   5.999
14394TIP3    H243060   4.092   4.165   6.050
14395TIP3   OH243061   5.182   4.885   5.270
14395TIP3    H143062   5.175   4.977   5.246
14395TIP3    H243063   5.276   4.866   5.264
14396TIP3   OH243064   3.899   4.649   6.951
14396TIP3    H143065   3.832   4.627   6.887
14396TIP3    H243066   3.928   4.564   6.986
14397TIP3   OH243067   3.739   4.869   6.644
14397TIP3    H143068   3.824   4.905   6.670
14397TIP3    H243069   3.679   4.943   6.650
14398TIP3   OH243070   5.603   5.292   6.663
14398TIP3    H143071   5.608   5.198   6.679
14398TIP3    H243072   5.524   5.320   6.710
14399TIP3   OH243073   4.710   5.084   6.793
14399TIP3    H143074   4.701   5.174   6.825
14399TIP3    H243075   4.642   5.035   6.839
14400TIP3   OH243076   4.517   5.210   5.724
14400TIP3    H143077   4.444   5.150   5.738
14400TIP3    H243078   4.484   5.295   5.754
14401TIP3   OH243079   4.764   5.076   5.675
14401TIP3    H143080   4.685   5.123   5.698
14401TIP3    H243081   4.752   5.051   5.584
14402TIP3   OH243082   5.518   4.403   6.923
14402TIP3    H143083   5.424   4.422   6.932
14402TIP3    H243084   5.521   4.308   6.910
14403TIP3   OH243085   4.100   4.839   6.927
14403TIP3    H143086   4.147   4.832   7.010
14403TIP3    H243087   4.028   4.777   6.935
14404TIP3   OH243088   5.017   3.762   6.944
14404TIP3    H143089   5.086   3.743   7.008
14404TIP3    H243090   4.936   3.744   6.991
14405TIP3   OH243091   5.258   4.178   6.855
14405TIP3    H143092   5.218   4.180   6.942
14405TIP3    H243093   5.242   4.266   6.820
14406TIP3   OH243094   4.929   4.270   5.398
14406TIP3    H143095   4.890   4.257   5.311
14406TIP3    H243096   5.010   4.318   5.380
14407TIP3   OH243097   4.635   3.688   5.716
14407TIP3    H143098   4.601   3.694   5.805
14407TIP3    H243099   4.600   3.606   5.681
14408TIP3   OH243100   4.420   4.177   6.730
14408TIP3    H143101   4.377   4.187   6.814
14408TIP3    H243102   4.402   4.258   6.683
14409TIP3   OH243103   4.304   4.053   6.274
14409TIP3    H143104   4.214   4.034   6.303
14409TIP3    H243105   4.309   4.018   6.185
14410TIP3   OH243106   4.781   4.130   5.999
14410TIP3    H143107   4.734   4.202   5.959
14410TIP3    H243108   4.840   4.098   5.931
14411TIP3   OH243109   4.973   4.415   7.101
14411TIP3    H143110   4.954   4.339   7.155
14411TIP3    H243111   5.038   4.465   7.151
14412TIP3   OH243112   4.951   4.145   6.223
14412TIP3    H143113   4.883   4.166   6.159
14412TIP3    H243114   4.999   4.072   6.183
14413TIP3   OH243115   4.234   4.180   6.951
14413TIP3    H143116   4.306   4.227   6.994
14413TIP3    H243117   4.225   4.099   7.002
14414TIP3   OH243118   4.300   3.667   5.690
14414TIP3    H143119   4.292   3.671   5.786
14414TIP3    H243120   4.223   3.713   5.658
14415TIP3   OH243121   3.852   3.708   6.554
14415TIP3    H143122   3.925   3.748   6.603
14415TIP3    H243123   3.891   3.682   6.470
14416TIP3   OH243124   3.755   3.690   6.060
14416TIP3    H143125   3.800   3.723   5.982
14416TIP3    H243126   3.694   3.760   6.083
14417TIP3   OH243127   4.975   4.396   6.648
14417TIP3    H143128   5.003   4.328   6.587
14417TIP3    H243129   4.944   4.348   6.725
14418TIP3   OH243130   4.671   3.847   6.325
14418TIP3    H143131   4.593   3.845   6.379
14418TIP3    H243132   4.744   3.836   6.386
14419TIP3   OH243133   4.059   3.947   6.349
14419TIP3    H143134   3.971   3.950   6.312
14419TIP3    H243135   4.089   3.858   6.332
14420TIP3   OH243136   4.316   3.932   6.029
14420TIP3    H143137   4.411   3.943   6.020
14420TIP3    H243138   4.282   3.951   5.941
14421TIP3   OH243139   5.112   3.935   6.534
14421TIP3    H143140   5.094   3.952   6.626
14421TIP3    H243141   5.044   3.873   6.507
14422TIP3   OH243142   4.205   3.959   5.780
14422TIP3    H143143   4.141   3.910   5.728
14422TIP3    H243144   4.258   4.007   5.715
14423TIP3   OH243145   5.314   5.642   6.758
14423TIP3    H143146   5.315   5.654   6.663
14423TIP3    H243147   5.392   5.688   6.789
14424TIP3   OH243148   4.253   4.763   7.164
14424TIP3    H143149   4.335   4.779   7.210
14424TIP3    H243150   4.186   4.768   7.233
14425TIP3   OH243151   4.721   4.214   6.426
14425TIP3    H143152   4.791   4.166   6.380
14425TIP3    H243153   4.721   4.177   6.514
14426TIP3   OH243154   4.199   3.697   6.319
14426TIP3    H143155   4.171   3.620   6.370
14426TIP3    H243156   4.223   3.662   6.233
14427TIP3   OH243157   4.697   4.132   6.694
14427TIP3    H143158   4.606   4.152   6.717
14427TIP3    H243159   4.749   4.180   6.757
14428TIP3   OH243160   4.432   4.493   5.802
14428TIP3    H143161   4.359   4.435   5.780
14428TIP3    H243162   4.409   4.530   5.887
14429TIP3   OH243163   5.316   4.732   6.415
14429TIP3    H143164   5.354   4.780   6.342
14429TIP3    H243165   5.237   4.692   6.379
14430TIP3   OH243166   4.888   3.792   5.714
14430TIP3    H143167   4.795   3.770   5.713
14430TIP3    H243168   4.890   3.887   5.728
14431TIP3   OH243169   4.828   4.814   6.832
14431TIP3    H143170   4.894   4.799   6.899
14431TIP3    H243171   4.800   4.904   6.845
14432TIP3   OH243172   4.947   4.056   5.784
14432TIP3    H143173   5.042   4.060   5.796
14432TIP3    H243174   4.926   4.134   5.733
14433TIP3   OH243175   4.601   4.666   5.659
14433TIP3    H143176   4.546   4.743   5.646
14433TIP3    H243177   4.541   4.599   5.693
14434TIP3   OH243178   3.991   4.430   7.102
14434TIP3    H143179   4.003   4.401   7.193
14434TIP3    H243180   3.920   4.376   7.068
14435TIP3   OH243181   4.748   4.575   7.101
14435TIP3    H143182   4.702   4.544   7.023
14435TIP3    H243183   4.833   4.532   7.098
14436TIP3   OH243184   4.980   5.100   6.716
14436TIP3    H143185   4.885   5.089   6.720
14436TIP3    H243186   5.004   5.136   6.801
14437TIP3   OH243187   5.364   4.143   5.601
14437TIP3    H143188   5.309   4.096   5.538
14437TIP3    H243189   5.368   4.233   5.569
14438TIP3   OH243190   5.615   5.008   6.686
14438TIP3    H143191   5.520   4.996   6.680
14438TIP3    H243192   5.648   4.983   6.600
14439TIP3   OH243193   5.045   4.973   5.603
14439TIP3    H143194   5.082   4.885   5.607
14439TIP3    H243195   4.994   4.973   5.522
14440TIP3   OH243196   5.088   4.602   6.301
14440TIP3    H143197   4.999   4.582   6.329
14440TIP3    H243198   5.122   4.519   6.267
14441TIP3   OH243199   4.215   4.819   6.132
14441TIP3    H143200   4.207   4.909   6.100
14441TIP3    H243201   4.127   4.783   6.126
14442TIP3   OH243202   3.804   4.113   5.846
14442TIP3    H143203   3.846   4.197   5.864
14442TIP3    H243204   3.721   4.116   5.894
14443TIP3   OH243205   4.351   4.594   6.043
14443TIP3    H143206   4.312   4.678   6.065
14443TIP3    H243207   4.320   4.534   6.111
14444TIP3   OH243208   4.529   5.153   6.587
14444TIP3    H143209   4.563   5.228   6.538
14444TIP3    H243210   4.604   5.123   6.638
14445TIP3   OH243211   4.872   4.814   6.561
14445TIP3    H143212   4.852   4.810   6.654
14445TIP3    H243213   4.958   4.774   6.553
14446TIP3   OH243214   4.841   4.686   5.462
14446TIP3    H143215   4.911   4.674   5.526
14446TIP3    H243216   4.761   4.676   5.513
14447TIP3   OH243217   5.131   5.310   6.598
14447TIP3    H143218   5.065   5.244   6.618
14447TIP3    H243219   5.092   5.362   6.528
14448TIP3   OH243220   5.192   5.159   5.225
14448TIP3    H143221   5.188   5.196   5.137
14448TIP3    H243222   5.120   5.201   5.272
14449TIP3   OH243223   4.209   3.936   7.108
14449TIP3    H143224   4.117   3.947   7.129
14449TIP3    H243225   4.246   3.891   7.185
14450TIP3   OH243226   5.051   4.647   5.638
14450TIP3    H143227   5.031   4.582   5.706
14450TIP3    H243228   5.145   4.638   5.624
14451TIP3   OH243229   3.950   5.039   6.754
14451TIP3    H143230   4.005   4.985   6.810
14451TIP3    H243231   3.963   5.128   6.787
14452TIP3   OH243232   4.139   4.701   5.743
14452TIP3    H143233   4.228   4.667   5.754
14452TIP3    H243234   4.149   4.796   5.748
14453TIP3   OH243235   3.896   4.366   5.919
14453TIP3    H143236   3.828   4.411   5.970
14453TIP3    H243237   3.914   4.426   5.847
14454TIP3   OH243238   5.054   3.995   6.796
14454TIP3    H143239   5.132   4.039   6.830
14454TIP3    H243240   5.043   3.918   6.852
14455TIP3   OH243241   4.952   3.740   5.981
14455TIP3    H143242   4.931   3.759   5.890
14455TIP3    H243243   4.995   3.819   6.013
14456TIP3   OH243244   4.431   4.885   5.636
14456TIP3    H143245   4.352   4.906   5.686
14456TIP3    H243246   4.432   4.948   5.564
14457TIP3   OH243247   4.596   3.940   6.074
14457TIP3    H143248   4.658   4.008   6.047
14457TIP3    H243249   4.620   3.919   6.164
14458TIP3   OH243250   4.895   4.248   6.867
14458TIP3    H143251   4.923   4.293   6.946
14458TIP3    H243252   4.943   4.165   6.869
14459TIP3   OH243253   4.767   3.638   6.160
14459TIP3    H143254   4.744   3.715   6.212
14459TIP3    H243255   4.836   3.668   6.101
14460TIP3   OH243256   4.194   4.975   5.751
14460TIP3    H143257   4.155   5.033   5.686
14460TIP3    H243258   4.159   5.006   5.835
14461TIP3   OH243259   4.275   3.660   5.969
14461TIP3    H143260   4.264   3.751   5.997
14461TIP3    H243261   4.369   3.643   5.977
14462TIP3   OH243262   5.521   4.120   6.828
14462TIP3    H143263   5.429   4.134   6.846
14462TIP3    H243264   5.522   4.058   6.754
14463TIP3   OH243265   5.176   4.338   6.223
14463TIP3    H143266   5.099   4.283   6.236
14463TIP3    H243267   5.243   4.298   6.279
14464TIP3   OH243268   3.912   4.550   5.708
14464TIP3    H143269   3.980   4.615   5.726
14464TIP3    H243270   3.952   4.491   5.644
14465TIP3   OH243271   3.822   3.835   5.837
14465TIP3    H143272   3.838   3.928   5.851
14465TIP3    H243273   3.765   3.832   5.760
14466TIP3   OH243274   5.142   5.332   6.154
14466TIP3    H143275   5.102   5.380   6.081
14466TIP3    H243276   5.236   5.347   6.143
14467TIP3   OH243277   3.739   4.781   6.093
14467TIP3    H143278   3.739   4.843   6.166
14467TIP3    H243279   3.721   4.834   6.016
14468TIP3   OH243280   3.960   5.355   7.166
14468TIP3    H143281   4.039   5.365   7.219
14468TIP3    H243282   3.954   5.261   7.149
14469TIP3   OH243283   4.414   5.258   7.202
14469TIP3    H143284   4.504   5.229   7.217
14469TIP3    H243285   4.383   5.203   7.131
14470TIP3   OH243286   5.033   5.199   6.964
14470TIP3    H143287   5.036   5.127   7.026
14470TIP3    H243288   5.111   5.252   6.984
14471TIP3   OH243289   4.872   4.991   5.396
14471TIP3    H143290   4.871   4.912   5.342
14471TIP3    H243291   4.847   5.062   5.336
14472TIP3   OH243292   4.050   4.747   7.353
14472TIP3    H143293   4.074   4.655   7.363
14472TIP3    H243294   3.962   4.745   7.315
14473TIP3   OH243295   4.044   4.357   5.566
14473TIP3    H143296   4.101   4.340   5.640
14473TIP3    H243297   4.103   4.368   5.492
14474TIP3   OH243298   4.667   4.842   7.132
14474TIP3    H143299   4.629   4.859   7.046
14474TIP3    H243300   4.711   4.758   7.123
14475TIP3   OH243301   5.144   4.869   6.739
14475TIP3    H143302   5.224   4.900   6.697
14475TIP3    H243303   5.083   4.942   6.732
14476TIP3   OH243304   4.179   4.493   7.355
14476TIP3    H143305   4.263   4.472   7.315
14476TIP3    H243306   4.200   4.513   7.446
14477TIP3   OH243307   4.229   4.304   5.769
14477TIP3    H143308   4.206   4.274   5.857
14477TIP3    H243309   4.270   4.229   5.728
14478TIP3   OH243310   4.460   4.341   6.992
14478TIP3    H143311   4.399   4.411   7.015
14478TIP3    H243312   4.529   4.385   6.942
14479TIP3   OH243313   4.352   4.113   5.605
14479TIP3    H143314   4.319   4.115   5.515
14479TIP3    H243315   4.447   4.124   5.597
14480TIP3   OH243316   5.055   4.744   7.190
14480TIP3    H143317   5.146   4.764   7.169
14480TIP3    H243318   5.060   4.680   7.261
14481TIP3   OH243319   5.148   4.402   5.285
14481TIP3    H143320   5.136   4.369   5.196
14481TIP3    H243321   5.116   4.492   5.282
14482TIP3   OH243322   4.626   4.153   7.126
14482TIP3    H143323   4.645   4.079   7.068
14482TIP3    H243324   4.577   4.215   7.072
14483TIP3   OH243325   4.662   3.953   6.927
14483TIP3    H143326   4.688   3.982   6.840
14483TIP3    H243327   4.569   3.932   6.919
14484TIP3   OH243328   4.644   4.488   6.848
14484TIP3    H143329   4.732   4.481   6.811
14484TIP3    H243330   4.598   4.547   6.790
14485TIP3   OH243331   5.294   4.673   6.868
14485TIP3    H143332   5.233   4.739   6.833
14485TIP3    H243333   5.381   4.705   6.842
14486TIP3   OH243334   4.510   4.237   7.366
14486TIP3    H143335   4.446   4.168   7.385
14486TIP3    H243336   4.545   4.213   7.280
14487TIP3   OH243337   4.744   3.696   7.007
14487TIP3    H143338   4.712   3.782   6.980
14487TIP3    H243339   4.683   3.634   6.969
14488TIP3   OH243340   4.894   4.183   7.227
14488TIP3    H143341   4.890   4.173   7.322
14488TIP3    H243342   4.804   4.168   7.197
14489TIP3   OH243343   5.140   4.145   7.095
14489TIP3    H143344   5.062   4.150   7.150
14489TIP3    H243345   5.213   4.140   7.156
14490TIP3   OH243346   5.373   4.120   7.257
14490TIP3    H143347   5.376   4.026   7.276
14490TIP3    H243348   5.351   4.160   7.341
14491TIP3   OH243349   4.340   4.032   7.450
14491TIP3    H143350   4.343   3.944   7.412
14491TIP3    H243351   4.383   4.023   7.535
14492TIP3   OH243352   4.813   3.682   7.274
14492TIP3    H143353   4.887   3.621   7.269
14492TIP3    H243354   4.780   3.687   7.184
14493TIP3   OH243355   4.901   3.887   7.439
14493TIP3    H143356   4.873   3.823   7.374
14493TIP3    H243357   4.834   3.956   7.435
14494TIP3   OH243358   4.150   5.132   5.521
14494TIP3    H143359   4.241   5.106   5.505
14494TIP3    H243360   4.130   5.192   5.449
14495TIP3   OH243361   3.639   4.524   5.732
14495TIP3    H143362   3.730   4.549   5.721
14495TIP3    H243363   3.632   4.440   5.687
14496TIP3   OH243364   3.556   5.115   6.174
14496TIP3    H143365   3.494   5.058   6.128
14496TIP3    H243366   3.605   5.056   6.232
14497TIP3   OH243367   3.706   4.957   6.345
14497TIP3    H143368   3.689   4.893   6.413
14497TIP3    H243369   3.764   5.021   6.386
14498TIP3   OH243370   5.411   5.392   6.153
14498TIP3    H143371   5.442   5.403   6.243
14498TIP3    H243372   5.485   5.419   6.098
14499TIP3   OH243373   5.458   5.391   6.436
14499TIP3    H143374   5.407   5.310   6.430
14499TIP3    H243375   5.524   5.372   6.502
14500TIP3   OH243376   5.505   5.096   7.013
14500TIP3    H143377   5.432   5.100   7.075
14500TIP3    H243378   5.547   5.182   7.019
14501TIP3   OH243379   5.327   4.609   5.624
14501TIP3    H143380   5.387   4.678   5.598
14501TIP3    H243381   5.370   4.566   5.698
14502TIP3   OH243382   5.454   4.463   5.822
14502TIP3    H143383   5.387   4.425   5.879
14502TIP3    H243384   5.519   4.500   5.882
14503TIP3   OH243385   5.496   4.867   6.251
14503TIP3    H143386   5.549   4.796   6.216
14503TIP3    H243387   5.502   4.937   6.186
14504TIP3   OH243388   5.307   5.160   6.440
14504TIP3    H143389   5.240   5.201   6.494
14504TIP3    H243390   5.259   5.121   6.366
14505TIP3   OH243391   5.353   4.384   5.466
14505TIP3    H143392   5.281   4.384   5.403
14505TIP3    H243393   5.338   4.462   5.520
14506TIP3   OH243394   5.219   4.027   5.400
14506TIP3    H143395   5.167   4.062   5.327
14506TIP3    H243396   5.210   3.932   5.393
14507TIP3   OH243397   5.247   4.326   5.954
14507TIP3    H143398   5.251   4.231   5.942
14507TIP3    H243399   5.226   4.337   6.047
14508TIP3   OH243400   5.551   4.755   6.811
14508TIP3    H143401   5.617   4.687   6.798
14508TIP3    H243402   5.583   4.830   6.761
14509TIP3   OH243403   5.720   4.538   6.804
14509TIP3    H143404   5.644   4.496   6.844
14509TIP3    H243405   5.794   4.480   6.825
14510TIP3   OH243406   5.176   3.755   5.374
14510TIP3    H143407   5.239   3.731   5.442
14510TIP3    H243408   5.092   3.719   5.405
14511TIP3   OH243409   5.240   4.049   5.841
14511TIP3    H143410   5.285   3.965   5.854
14511TIP3    H243411   5.282   4.088   5.764
14512TIP3   OH243412   5.390   4.213   6.363
14512TIP3    H143413   5.472   4.229   6.315
14512TIP3    H243414   5.405   4.252   6.449
14513TIP3   OH243415   5.469   4.357   6.589
14513TIP3    H143416   5.396   4.380   6.647
14513TIP3    H243417   5.497   4.441   6.552
14514TIP3   OH243418   4.078   4.062   7.363
14514TIP3    H143419   4.170   4.068   7.389
14514TIP3    H243420   4.046   3.983   7.407
14515TIP3   OH243421   5.931   3.957   7.134
14515TIP3    H143422   5.993   3.901   7.086
14515TIP3    H243423   5.891   4.010   7.066
14516TIP3   OH243424   5.356   3.799   5.892
14516TIP3    H143425   5.400   3.785   5.975
14516TIP3    H243426   5.295   3.726   5.884
14517TIP3   OH243427   4.056   3.782   6.743
14517TIP3    H143428   4.101   3.698   6.746
14517TIP3    H243429   4.123   3.844   6.715
14518TIP3   OH243430   3.852   4.107   6.808
14518TIP3    H143431   3.896   4.101   6.723
14518TIP3    H243432   3.920   4.087   6.872
14519TIP3   OH243433   5.775   4.101   6.961
14519TIP3    H143434   5.718   4.140   7.028
14519TIP3    H243435   5.714   4.066   6.896
14520TIP3   OH243436   5.400   3.713   5.535
14520TIP3    H143437   5.447   3.652   5.477
14520TIP3    H243438   5.456   3.790   5.539
14521TIP3   OH243439   3.824   3.553   6.286
14521TIP3    H143440   3.738   3.544   6.327
14521TIP3    H243441   3.808   3.609   6.210
14522TIP3   OH243442   5.002   5.219   5.809
14522TIP3    H143443   5.054   5.255   5.737
14522TIP3    H243444   4.996   5.291   5.872
14523TIP3   OH243445   4.001   3.588   7.115
14523TIP3    H143446   4.041   3.645   7.181
14523TIP3    H243447   3.958   3.648   7.054
14524TIP3   OH243448   4.075   5.077   7.172
14524TIP3    H143449   3.983   5.049   7.171
14524TIP3    H243450   4.102   5.066   7.263
14525TIP3   OH243451   4.297   5.112   6.728
14525TIP3    H143452   4.246   5.187   6.696
14525TIP3    H243453   4.383   5.123   6.687
14526TIP3   OH243454   4.691   5.351   6.872
14526TIP3    H143455   4.729   5.341   6.960
14526TIP3    H243456   4.756   5.403   6.824
14527TIP3   OH243457   4.887   5.501   6.745
14527TIP3    H143458   4.950   5.442   6.703
14527TIP3    H243459   4.941   5.558   6.800
14528TIP3   OH243460   5.683   3.832   6.828
14528TIP3    H143461   5.600   3.835   6.781
14528TIP3    H243462   5.712   3.740   6.820
14529TIP3   OH243463   3.949   5.347   6.781
14529TIP3    H143464   3.859   5.370   6.760
14529TIP3    H243465   3.977   5.414   6.844
14530TIP3   OH243466   4.185   5.345   6.630
14530TIP3    H143467   4.099   5.348   6.672
14530TIP3    H243468   4.167   5.366   6.538
14531TIP3   OH243469   4.606   5.369   6.429
14531TIP3    H143470   4.531   5.377   6.370
14531TIP3    H243471   4.615   5.456   6.469
14532TIP3   OH243472   4.868   5.297   6.465
14532TIP3    H143473   4.775   5.315   6.448
14532TIP3    H243474   4.914   5.368   6.421
14533TIP3   OH243475   5.068   5.480   6.374
14533TIP3    H143476   5.065   5.568   6.336
14533TIP3    H243477   5.095   5.424   6.302
14534TIP3   OH243478   3.870   5.132   6.502
14534TIP3    H143479   3.902   5.105   6.587
14534TIP3    H243480   3.940   5.110   6.441
14535TIP3   OH243481   4.071   5.070   6.336
14535TIP3    H143482   4.064   5.069   6.241
14535TIP3    H243483   4.164   5.085   6.353
14536TIP3   OH243484   4.344   5.101   6.384
14536TIP3    H143485   4.353   5.006   6.375
14536TIP3    H243486   4.404   5.125   6.455
14537TIP3   OH243487   4.895   3.754   6.467
14537TIP3    H143488   4.855   3.684   6.518
14537TIP3    H243489   4.963   3.711   6.416
14538TIP3   OH243490   5.399   3.664   6.349
14538TIP3    H143491   5.436   3.715   6.276
14538TIP3    H243492   5.307   3.691   6.353
14539TIP3   OH243493   5.514   3.749   6.114
14539TIP3    H143494   5.583   3.688   6.089
14539TIP3    H243495   5.552   3.835   6.101
14540TIP3   OH243496   4.123   3.466   6.446
14540TIP3    H143497   4.039   3.428   6.470
14540TIP3    H243498   4.185   3.393   6.451
14541TIP3   OH243499   3.943   3.359   6.113
14541TIP3    H143500   3.976   3.410   6.038
14541TIP3    H243501   3.914   3.425   6.175
14542TIP3   OH243502   4.618   3.495   6.354
14542TIP3    H143503   4.669   3.544   6.290
14542TIP3    H243504   4.654   3.522   6.439
14543TIP3   OH243505   5.111   3.641   6.333
14543TIP3    H143506   5.122   3.606   6.245
14543TIP3    H243507   5.115   3.564   6.390
14544TIP3   OH243508   5.172   3.587   5.897
14544TIP3    H143509   5.092   3.635   5.922
14544TIP3    H243510   5.161   3.500   5.935
14545TIP3   OH243511   3.650   4.928   5.873
14545TIP3    H143512   3.564   4.899   5.840
14545TIP3    H243513   3.656   5.020   5.845
14546TIP3   OH243514   4.065   3.491   5.881
14546TIP3    H143515   4.111   3.429   5.824
14546TIP3    H243516   4.134   3.547   5.917
14547TIP3   OH243517   4.551   3.686   5.980
14547TIP3    H143518   4.611   3.635   6.034
14547TIP3    H243519   4.564   3.777   6.008
14548TIP3   OH243520   4.411   5.085   5.439
14548TIP3    H143521   4.469   5.161   5.445
14548TIP3    H243522   4.397   5.074   5.345
14549TIP3   OH243523   5.136   5.237   5.567
14549TIP3    H143524   5.125   5.141   5.564
14549TIP3    H243525   5.090   5.268   5.489
14550TIP3   OH243526   4.346   3.775   7.351
14550TIP3    H143527   4.316   3.692   7.389
14550TIP3    H243528   4.441   3.774   7.364
14551TIP3   OH243529   4.603   3.747   7.456
14551TIP3    H143530   4.677   3.724   7.399
14551TIP3    H243531   4.602   3.677   7.522
14552TIP3   OH243532   3.730   4.955   5.529
14552TIP3    H143533   3.665   4.999   5.584
14552TIP3    H243534   3.781   4.903   5.590
14553TIP3   OH243535   5.429   3.837   7.258
14553TIP3    H143536   5.449   3.809   7.347
14553TIP3    H243537   5.514   3.836   7.213
14554TIP3   OH243538   5.355   5.367   6.759
14554TIP3    H143539   5.279   5.337   6.710
14554TIP3    H243540   5.339   5.460   6.772
14555TIP3   OH243541   6.634   4.744   5.500
14555TIP3    H143542   6.600   4.833   5.490
14555TIP3    H243543   6.562   4.688   5.472
14556TIP3   OH243544   6.632   4.747   5.926
14556TIP3    H143545   6.684   4.728   6.004
14556TIP3    H243546   6.585   4.666   5.907
14557TIP3   OH243547   5.924   4.609   6.267
14557TIP3    H143548   5.961   4.558   6.339
14557TIP3    H243549   6.000   4.634   6.215
14558TIP3   OH243550   6.914   5.049   5.604
14558TIP3    H143551   6.891   4.986   5.672
14558TIP3    H243552   6.926   5.132   5.651
14559TIP3   OH243553   5.909   5.032   5.960
14559TIP3    H143554   5.895   4.937   5.963
14559TIP3    H243555   6.004   5.041   5.950
14560TIP3   OH243556   5.603   4.239   5.736
14560TIP3    H143557   5.565   4.323   5.763
14560TIP3    H243558   5.530   4.190   5.698
14561TIP3   OH243559   5.683   4.551   5.961
14561TIP3    H143560   5.733   4.474   5.988
14561TIP3    H243561   5.749   4.616   5.938
14562TIP3   OH243562   6.553   5.483   5.618
14562TIP3    H143563   6.581   5.421   5.551
14562TIP3    H243564   6.554   5.433   5.700
14563TIP3   OH243565   6.432   4.972   5.928
14563TIP3    H143566   6.475   4.894   5.894
14563TIP3    H243567   6.503   5.027   5.960
14564TIP3   OH243568   7.470   4.289   5.947
14564TIP3    H143569   7.486   4.373   5.990
14564TIP3    H243570   7.490   4.304   5.855
14565TIP3   OH243571   6.841   4.455   5.963
14565TIP3    H143572   6.873   4.369   5.990
14565TIP3    H243573   6.804   4.440   5.875
14566TIP3   OH243574   6.199   4.113   5.922
14566TIP3    H143575   6.177   4.186   5.864
14566TIP3    H243576   6.142   4.042   5.892
14567TIP3   OH243577   6.894   4.217   5.560
14567TIP3    H143578   6.958   4.211   5.632
14567TIP3    H243579   6.944   4.253   5.487
14568TIP3   OH243580   5.822   4.331   6.054
14568TIP3    H143581   5.906   4.313   6.098
14568TIP3    H243582   5.826   4.279   5.974
14569TIP3   OH243583   6.241   4.529   5.870
14569TIP3    H143584   6.335   4.515   5.875
14569TIP3    H243585   6.206   4.447   5.834
14570TIP3   OH243586   7.525   4.510   6.111
14570TIP3    H143587   7.436   4.545   6.105
14570TIP3    H243588   7.559   4.545   6.193
14571TIP3   OH243589   6.178   4.118   6.375
14571TIP3    H143590   6.128   4.154   6.302
14571TIP3    H243591   6.123   4.134   6.452
14572TIP3   OH243592   6.489   4.961   5.416
14572TIP3    H143593   6.472   4.944   5.323
14572TIP3    H243594   6.450   5.048   5.431
14573TIP3   OH243595   6.270   4.894   6.139
14573TIP3    H143596   6.217   4.965   6.173
14573TIP3    H243597   6.319   4.934   6.066
14574TIP3   OH243598   7.054   4.236   5.782
14574TIP3    H143599   7.010   4.215   5.865
14574TIP3    H243600   7.108   4.311   5.803
14575TIP3   OH243601   6.071   4.226   6.143
14575TIP3    H143602   6.126   4.301   6.167
14575TIP3    H243603   6.118   4.183   6.071
14576TIP3   OH243604   6.115   5.096   6.247
14576TIP3    H143605   6.101   5.187   6.218
14576TIP3    H243606   6.037   5.076   6.299
14577TIP3   OH243607   5.505   4.799   5.525
14577TIP3    H143608   5.472   4.815   5.437
14577TIP3    H243609   5.528   4.886   5.558
14578TIP3   OH243610   6.933   5.301   5.741
14578TIP3    H143611   6.845   5.294   5.778
14578TIP3    H243612   6.932   5.383   5.692
14579TIP3   OH243613   7.271   4.177   6.115
14579TIP3    H143614   7.185   4.199   6.078
14579TIP3    H243615   7.334   4.205   6.049
14580TIP3   OH243616   6.521   3.809   6.109
14580TIP3    H143617   6.512   3.717   6.134
14580TIP3    H243618   6.444   3.852   6.148
14581TIP3   OH243619   6.644   5.334   5.404
14581TIP3    H143620   6.690   5.251   5.393
14581TIP3    H243621   6.709   5.400   5.381
14582TIP3   OH243622   6.795   5.116   5.362
14582TIP3    H143623   6.818   5.054   5.293
14582TIP3    H243624   6.839   5.082   5.440
14583TIP3   OH243625   7.174   5.187   6.084
14583TIP3    H143626   7.152   5.114   6.026
14583TIP3    H243627   7.158   5.265   6.030
14584TIP3   OH243628   6.451   4.594   5.350
14584TIP3    H143629   6.372   4.646   5.333
14584TIP3    H243630   6.500   4.598   5.268
14585TIP3   OH243631   6.416   4.409   5.036
14585TIP3    H143632   6.481   4.457   5.087
14585TIP3    H243633   6.467   4.344   4.987
14586TIP3   OH243634   7.344   4.851   5.951
14586TIP3    H143635   7.260   4.895   5.949
14586TIP3    H243636   7.380   4.863   5.863
14587TIP3   OH243637   6.817   4.691   5.304
14587TIP3    H143638   6.761   4.716   5.376
14587TIP3    H243639   6.900   4.666   5.345
14588TIP3   OH243640   7.045   4.710   6.260
14588TIP3    H143641   7.040   4.793   6.306
14588TIP3    H243642   6.964   4.705   6.209
14589TIP3   OH243643   6.039   4.660   5.723
14589TIP3    H143644   6.003   4.599   5.657
14589TIP3    H243645   6.113   4.613   5.760
14590TIP3   OH243646   6.174   5.085   5.862
14590TIP3    H143647   6.150   5.073   5.770
14590TIP3    H243648   6.262   5.049   5.869
14591TIP3   OH243649   6.139   4.658   6.093
14591TIP3    H143650   6.178   4.621   6.013
14591TIP3    H243651   6.187   4.739   6.108
14592TIP3   OH243652   6.694   5.297   5.872
14592TIP3    H143653   6.682   5.377   5.924
14592TIP3    H243654   6.678   5.226   5.933
14593TIP3   OH243655   6.314   5.192   6.416
14593TIP3    H143656   6.253   5.249   6.464
14593TIP3    H243657   6.258   5.141   6.358
14594TIP3   OH243658   6.645   4.542   5.146
14594TIP3    H143659   6.703   4.604   5.190
14594TIP3    H243660   6.671   4.547   5.054
14595TIP3   OH243661   6.068   4.738   6.555
14595TIP3    H143662   6.074   4.830   6.578
14595TIP3    H243663   5.974   4.721   6.549
14596TIP3   OH243664   6.387   5.223   5.420
14596TIP3    H143665   6.474   5.262   5.418
14596TIP3    H243666   6.334   5.281   5.365
14597TIP3   OH243667   6.103   5.349   6.504
14597TIP3    H143668   6.075   5.360   6.413
14597TIP3    H243669   6.021   5.335   6.553
14598TIP3   OH243670   7.156   3.769   5.205
14598TIP3    H143671   7.080   3.790   5.259
14598TIP3    H243672   7.168   3.845   5.149
14599TIP3   OH243673   5.912   4.498   5.526
14599TIP3    H143674   5.838   4.546   5.490
14599TIP3    H243675   5.878   4.411   5.547
14600TIP3   OH243676   6.978   5.143   4.767
14600TIP3    H143677   6.963   5.232   4.734
14600TIP3    H243678   7.071   5.127   4.751
14601TIP3   OH243679   5.698   4.909   6.446
14601TIP3    H143680   5.627   4.890   6.385
14601TIP3    H243681   5.732   4.823   6.472
14602TIP3   OH243682   5.575   5.084   6.086
14602TIP3    H143683   5.668   5.075   6.066
14602TIP3    H243684   5.571   5.157   6.148
14603TIP3   OH243685   7.401   5.564   6.148
14603TIP3    H143686   7.407   5.469   6.157
14603TIP3    H243687   7.321   5.587   6.195
14604TIP3   OH243688   6.503   5.336   6.278
14604TIP3    H143689   6.494   5.427   6.306
14604TIP3    H243690   6.435   5.290   6.327
14605TIP3   OH243691   6.265   5.434   5.247
14605TIP3    H143692   6.203   5.402   5.182
14605TIP3    H243693   6.235   5.523   5.268
14606TIP3   OH243694   5.721   5.291   5.611
14606TIP3    H143695   5.764   5.284   5.696
14606TIP3    H243696   5.672   5.210   5.602
14607TIP3   OH243697   6.470   5.408   4.910
14607TIP3    H143698   6.546   5.439   4.860
14607TIP3    H243699   6.499   5.410   5.001
14608TIP3   OH243700   6.528   5.447   5.175
14608TIP3    H143701   6.438   5.436   5.205
14608TIP3    H243702   6.581   5.401   5.239
14609TIP3   OH243703   7.290   4.666   6.417
14609TIP3    H143704   7.207   4.677   6.372
14609TIP3    H243705   7.308   4.572   6.412
14610TIP3   OH243706   5.897   5.097   6.417
14610TIP3    H143707   5.948   5.085   6.497
14610TIP3    H243708   5.826   5.033   6.424
14611TIP3   OH243709   6.284   3.901   6.235
14611TIP3    H143710   6.201   3.867   6.202
14611TIP3    H243711   6.261   3.982   6.280
14612TIP3   OH243712   6.822   4.024   6.433
14612TIP3    H143713   6.892   4.001   6.495
14612TIP3    H243714   6.741   4.009   6.482
14613TIP3   OH243715   7.045   4.445   6.351
14613TIP3    H143716   7.004   4.441   6.437
14613TIP3    H243717   7.029   4.534   6.321
14614TIP3   OH243718   6.720   4.523   4.883
14614TIP3    H143719   6.683   4.510   4.795
14614TIP3    H243720   6.800   4.573   4.868
14615TIP3   OH243721   6.434   3.939   5.202
14615TIP3    H143722   6.397   3.947   5.290
14615TIP3    H243723   6.396   3.859   5.167
14616TIP3   OH243724   6.221   4.437   6.242
14616TIP3    H143725   6.174   4.444   6.325
14616TIP3    H243726   6.199   4.518   6.196
14617TIP3   OH243727   6.102   4.313   5.761
14617TIP3    H143728   6.013   4.290   5.787
14617TIP3    H243729   6.111   4.281   5.672
14618TIP3   OH243730   6.577   4.390   5.486
14618TIP3    H143731   6.528   4.462   5.446
14618TIP3    H243732   6.635   4.358   5.417
14619TIP3   OH243733   6.766   4.654   6.562
14619TIP3    H143734   6.739   4.586   6.625
14619TIP3    H243735   6.858   4.670   6.582
14620TIP3   OH243736   6.748   4.405   5.710
14620TIP3    H143737   6.679   4.429   5.647
14620TIP3    H243738   6.793   4.331   5.669
14621TIP3   OH243739   6.056   4.452   6.461
14621TIP3    H143740   6.064   4.518   6.530
14621TIP3    H243741   6.038   4.370   6.508
14622TIP3   OH243742   6.094   3.924   5.175
14622TIP3    H143743   6.086   3.930   5.270
14622TIP3    H243744   6.017   3.969   5.142
14623TIP3   OH243745   5.648   3.969   6.038
14623TIP3    H143746   5.720   4.005   6.091
14623TIP3    H243747   5.688   3.950   5.954
14624TIP3   OH243748   5.554   3.946   5.544
14624TIP3    H143749   5.600   3.982   5.468
14624TIP3    H243750   5.491   4.014   5.569
14625TIP3   OH243751   6.795   4.655   6.139
14625TIP3    H143752   6.818   4.588   6.074
14625TIP3    H243753   6.750   4.607   6.208
14626TIP3   OH243754   6.466   4.102   5.812
14626TIP3    H143755   6.387   4.103   5.866
14626TIP3    H243756   6.538   4.095   5.874
14627TIP3   OH243757   5.862   4.191   5.821
14627TIP3    H143758   5.774   4.195   5.784
14627TIP3    H243759   5.890   4.100   5.807
14628TIP3   OH243760   6.114   4.190   5.515
14628TIP3    H143761   6.209   4.201   5.504
14628TIP3    H243762   6.077   4.207   5.429
14629TIP3   OH243763   6.910   4.192   6.020
14629TIP3    H143764   6.893   4.209   6.112
14629TIP3    H243765   6.841   4.131   5.993
14630TIP3   OH243766   5.998   4.209   5.268
14630TIP3    H143767   5.933   4.163   5.215
14630TIP3    H243768   6.052   4.256   5.205
14631TIP3   OH243769   7.110   5.897   6.241
14631TIP3    H143770   7.106   5.911   6.146
14631TIP3    H243771   7.189   5.944   6.268
14632TIP3   OH243772   6.056   5.006   6.648
14632TIP3    H143773   6.136   5.026   6.697
14632TIP3    H243774   5.986   5.014   6.712
14633TIP3   OH243775   6.514   4.477   5.920
14633TIP3    H143776   6.581   4.428   5.872
14633TIP3    H243777   6.512   4.437   6.006
14634TIP3   OH243778   6.003   3.941   5.807
14634TIP3    H143779   5.976   3.865   5.859
14634TIP3    H243780   6.023   3.905   5.721
14635TIP3   OH243781   6.487   4.380   6.184
14635TIP3    H143782   6.400   4.412   6.208
14635TIP3    H243783   6.547   4.432   6.237
14636TIP3   OH243784   6.215   4.740   5.293
14636TIP3    H143785   6.144   4.677   5.275
14636TIP3    H243786   6.192   4.778   5.378
14637TIP3   OH243787   7.110   4.987   5.905
14637TIP3    H143788   7.144   5.036   5.830
14637TIP3    H243789   7.030   4.945   5.872
14638TIP3   OH243790   6.685   4.047   5.204
14638TIP3    H143791   6.592   4.025   5.201
14638TIP3    H243792   6.687   4.142   5.216
14639TIP3   OH243793   6.631   5.071   6.316
14639TIP3    H143794   6.679   5.061   6.399
14639TIP3    H243795   6.589   5.156   6.323
14640TIP3   OH243796   6.743   4.312   5.272
14640TIP3    H143797   6.838   4.319   5.283
14640TIP3    H243798   6.718   4.390   5.222
14641TIP3   OH243799   5.905   4.744   5.948
14641TIP3    H143800   5.944   4.725   5.863
14641TIP3    H243801   5.971   4.715   6.012
14642TIP3   OH243802   6.393   4.904   5.161
14642TIP3    H143803   6.344   4.983   5.139
14642TIP3    H243804   6.328   4.843   5.195
14643TIP3   OH243805   5.792   4.674   6.573
14643TIP3    H143806   5.795   4.645   6.664
14643TIP3    H243807   5.717   4.629   6.535
14644TIP3   OH243808   6.535   4.811   6.604
14644TIP3    H143809   6.464   4.752   6.577
14644TIP3    H243810   6.614   4.768   6.574
14645TIP3   OH243811   6.775   5.359   6.201
14645TIP3    H143812   6.680   5.344   6.206
14645TIP3    H243813   6.797   5.394   6.287
14646TIP3   OH243814   7.161   4.398   5.087
14646TIP3    H143815   7.108   4.351   5.023
14646TIP3    H243816   7.166   4.488   5.053
14647TIP3   OH243817   7.418   5.288   6.168
14647TIP3    H143818   7.325   5.265   6.170
14647TIP3    H243819   7.450   5.251   6.086
14648TIP3   OH243820   6.895   5.196   5.029
14648TIP3    H143821   6.873   5.115   5.076
14648TIP3    H243822   6.918   5.166   4.941
14649TIP3   OH243823   6.881   4.850   5.806
14649TIP3    H143824   6.792   4.827   5.830
14649TIP3    H243825   6.916   4.770   5.764
14650TIP3   OH243826   6.039   5.089   5.616
14650TIP3    H143827   6.042   5.164   5.557
14650TIP3    H243828   5.945   5.074   5.630
14651TIP3   OH243829   5.584   4.376   5.317
14651TIP3    H143830   5.632   4.455   5.342
14651TIP3    H243831   5.505   4.377   5.371
14652TIP3   OH243832   6.120   4.839   5.525
14652TIP3    H143833   6.108   4.930   5.555
14652TIP3    H243834   6.093   4.786   5.600
14653TIP3   OH243835   6.318   5.410   6.070
14653TIP3    H143836   6.355   5.483   6.021
14653TIP3    H243837   6.392   5.375   6.120
14654TIP3   OH243838   5.953   5.313   5.462
14654TIP3    H143839   5.867   5.317   5.505
14654TIP3    H243840   5.987   5.402   5.469
14655TIP3   OH243841   6.667   5.074   6.042
14655TIP3    H143842   6.656   5.070   6.137
14655TIP3    H243843   6.740   5.016   6.023
14656TIP3   OH243844   6.929   5.570   6.082
14656TIP3    H143845   6.858   5.507   6.101
14656TIP3    H243846   6.894   5.624   6.011
14657TIP3   OH243847   6.947   5.406   4.703
14657TIP3    H143848   6.909   5.434   4.619
14657TIP3    H243849   6.895   5.452   4.769
14658TIP3   OH243850   6.006   4.197   6.580
14658TIP3    H143851   5.911   4.208   6.584
14658TIP3    H243852   6.029   4.153   6.661
14659TIP3   OH243853   6.873   4.934   5.162
14659TIP3    H143854   6.835   4.855   5.199
14659TIP3    H243855   6.962   4.909   5.136
14660TIP3   OH243856   5.735   5.300   6.238
14660TIP3    H143857   5.789   5.238   6.288
14660TIP3    H243858   5.750   5.384   6.281
14661TIP3   OH243859   5.993   4.897   4.920
14661TIP3    H143860   6.017   4.805   4.907
14661TIP3    H243861   5.986   4.906   5.015
14662TIP3   OH243862   5.964   4.931   5.200
14662TIP3    H143863   6.043   4.901   5.244
14662TIP3    H243864   5.968   5.026   5.204
14663TIP3   OH243865   5.690   4.621   5.409
14663TIP3    H143866   5.632   4.671   5.466
14663TIP3    H243867   5.713   4.682   5.339
14664TIP3   OH243868   6.856   4.253   6.282
14664TIP3    H143869   6.933   4.299   6.316
14664TIP3    H243870   6.846   4.177   6.339
14665TIP3   OH243871   6.747   3.998   5.472
14665TIP3    H143872   6.725   4.017   5.381
14665TIP3    H243873   6.789   4.078   5.504
14666TIP3   OH243874   6.231   5.123   5.120
14666TIP3    H143875   6.148   5.143   5.163
14666TIP3    H243876   6.237   5.187   5.049
14667TIP3   OH243877   6.394   4.196   5.559
14667TIP3    H143878   6.455   4.266   5.533
14667TIP3    H243879   6.418   4.177   5.650
14668TIP3   OH243880   6.694   4.492   6.336
14668TIP3    H143881   6.717   4.536   6.418
14668TIP3    H243882   6.743   4.410   6.338
14669TIP3   OH243883   6.559   3.894   5.648
14669TIP3    H143884   6.535   3.971   5.699
14669TIP3    H243885   6.628   3.924   5.589
14670TIP3   OH243886   5.983   5.205   5.213
14670TIP3    H143887   5.956   5.274   5.153
14670TIP3    H243888   5.971   5.243   5.300
14671TIP3   OH243889   6.070   3.917   5.455
14671TIP3    H143890   6.058   4.008   5.483
14671TIP3    H243891   6.164   3.902   5.461
14672TIP3   OH243892   7.309   4.391   6.327
14672TIP3    H143893   7.215   4.400   6.340
14672TIP3    H243894   7.318   4.333   6.252
14673TIP3   OH243895   6.974   4.593   5.711
14673TIP3    H143896   6.896   4.538   5.722
14673TIP3    H243897   7.039   4.552   5.768
14674TIP3   OH243898   5.717   4.806   5.195
14674TIP3    H143899   5.792   4.865   5.205
14674TIP3    H243900   5.748   4.738   5.135
14675TIP3   OH243901   5.612   4.097   5.321
14675TIP3    H143902   5.622   4.192   5.329
14675TIP3    H243903   5.536   4.086   5.264
14676TIP3   OH243904   6.957   5.569   5.656
14676TIP3    H143905   6.914   5.623   5.590
14676TIP3    H243906   7.050   5.578   5.638
14677TIP3   OH243907   6.025   3.814   6.189
14677TIP3    H143908   5.994   3.782   6.104
14677TIP3    H243909   6.014   3.739   6.247
14678TIP3   OH243910   5.544   5.072   5.591
14678TIP3    H143911   5.502   5.110   5.667
14678TIP3    H243912   5.499   5.112   5.516
14679TIP3   OH243913   5.744   5.612   6.659
14679TIP3    H143914   5.825   5.617   6.710
14679TIP3    H243915   5.726   5.518   6.654
14680TIP3   OH243916   6.211   5.518   6.694
14680TIP3    H143917   6.302   5.490   6.704
14680TIP3    H243918   6.176   5.462   6.624
14681TIP3   OH243919   6.832   5.454   6.452
14681TIP3    H143920   6.846   5.385   6.517
14681TIP3    H243921   6.905   5.515   6.465
14682TIP3   OH243922   5.850   5.010   6.836
14682TIP3    H143923   5.872   4.918   6.850
14682TIP3    H243924   5.761   5.008   6.800
14683TIP3   OH243925   5.842   4.603   5.064
14683TIP3    H143926   5.899   4.584   5.138
14683TIP3    H243927   5.901   4.614   4.990
14684TIP3   OH243928   6.471   5.089   6.618
14684TIP3    H143929   6.424   5.109   6.537
14684TIP3    H243930   6.504   5.000   6.605
14685TIP3   OH243931   6.946   5.135   6.237
14685TIP3    H143932   7.023   5.163   6.187
14685TIP3    H243933   6.881   5.203   6.219
14686TIP3   OH243934   5.966   4.760   6.850
14686TIP3    H143935   6.041   4.723   6.803
14686TIP3    H243936   5.998   4.773   6.939
14687TIP3   OH243937   6.020   4.546   5.265
14687TIP3    H143938   6.000   4.513   5.353
14687TIP3    H243939   6.066   4.473   5.223
14688TIP3   OH243940   6.329   4.637   6.508
14688TIP3    H143941   6.242   4.675   6.517
14688TIP3    H243942   6.359   4.665   6.421
14689TIP3   OH243943   6.150   4.361   5.099
14689TIP3    H143944   6.118   4.362   5.009
14689TIP3    H243945   6.244   4.376   5.091
14690TIP3   OH243946   6.824   5.010   6.589
14690TIP3    H143947   6.891   4.970   6.533
14690TIP3    H243948   6.820   4.953   6.666
14691TIP3   OH243949   6.937   4.661   4.776
14691TIP3    H143950   6.929   4.630   4.686
14691TIP3    H243951   6.908   4.752   4.773
14692TIP3   OH243952   6.430   4.404   6.612
14692TIP3    H143953   6.431   4.334   6.547
14692TIP3    H243954   6.396   4.480   6.566
14693TIP3   OH243955   6.437   4.204   6.410
14693TIP3    H143956   6.463   4.242   6.326
14693TIP3    H243957   6.346   4.177   6.397
14694TIP3   OH243958   6.441   4.731   6.278
14694TIP3    H143959   6.529   4.767   6.267
14694TIP3    H243960   6.384   4.790   6.230
14695TIP3   OH243961   7.034   4.692   6.659
14695TIP3    H143962   7.080   4.608   6.665
14695TIP3    H243963   7.104   4.757   6.650
14696TIP3   OH243964   7.063   4.954   6.402
14696TIP3    H143965   7.011   5.017   6.352
14696TIP3    H243966   7.153   4.968   6.371
14697TIP3   OH243967   6.317   4.485   6.858
14697TIP3    H143968   6.243   4.427   6.879
14697TIP3    H243969   6.342   4.461   6.769
14698TIP3   OH243970   6.557   3.974   6.516
14698TIP3    H143971   6.517   4.054   6.482
14698TIP3    H243972   6.490   3.907   6.502
14699TIP3   OH243973   6.684   4.442   6.718
14699TIP3    H143974   6.672   4.429   6.812
14699TIP3    H243975   6.599   4.422   6.679
14700TIP3   OH243976   6.931   4.398   6.590
14700TIP3    H143977   6.851   4.398   6.644
14700TIP3    H243978   7.001   4.375   6.651
14701TIP3   OH243979   7.169   4.364   6.738
14701TIP3    H143980   7.181   4.269   6.745
14701TIP3    H243981   7.163   4.394   6.828
14702TIP3   OH243982   6.148   4.265   6.918
14702TIP3    H143983   6.152   4.175   6.885
14702TIP3    H243984   6.185   4.259   7.006
14703TIP3   OH243985   6.621   3.943   6.781
14703TIP3    H143986   6.692   3.880   6.771
14703TIP3    H243987   6.590   3.959   6.692
14704TIP3   OH243988   6.721   4.162   6.919
14704TIP3    H143989   6.687   4.091   6.865
14704TIP3    H243990   6.649   4.225   6.923
14705TIP3   OH243991   5.964   5.405   5.020
14705TIP3    H143992   6.049   5.378   4.986
14705TIP3    H243993   5.914   5.435   4.944
14706TIP3   OH243994   5.449   4.801   5.253
14706TIP3    H143995   5.540   4.819   5.229
14706TIP3    H243996   5.431   4.714   5.217
14707TIP3   OH243997   5.354   5.374   5.656
14707TIP3    H143998   5.286   5.323   5.612
14707TIP3    H243999   5.392   5.313   5.720
14708TIP3   OH244000   5.483   5.211   5.839
14708TIP3    H144001   5.477   5.142   5.906
14708TIP3    H244002   5.531   5.281   5.882
14709TIP3   OH244003   7.230   5.612   5.642
14709TIP3    H144004   7.251   5.643   5.731
14709TIP3    H244005   7.288   5.663   5.585
14710TIP3   OH244006   7.243   5.649   5.924
14710TIP3    H144007   7.195   5.567   5.919
14710TIP3    H244008   7.313   5.633   5.987
14711TIP3   OH244009   7.301   5.349   6.496
14711TIP3    H144010   7.227   5.357   6.556
14711TIP3    H244011   7.346   5.433   6.502
14712TIP3   OH244012   7.135   4.857   5.106
14712TIP3    H144013   7.190   4.931   5.081
14712TIP3    H244014   7.180   4.818   5.181
14713TIP3   OH244015   7.257   4.716   5.310
14713TIP3    H144016   7.186   4.685   5.367
14713TIP3    H244017   7.319   4.757   5.370
14714TIP3   OH244018   7.296   5.126   5.745
14714TIP3    H144019   7.345   5.056   5.700
14714TIP3    H244020   7.295   5.198   5.683
14715TIP3   OH244021   7.102   5.409   5.935
14715TIP3    H144022   7.035   5.455   5.985
14715TIP3    H244023   7.055   5.368   5.862
14716TIP3   OH244024   7.153   4.636   4.945
14716TIP3    H144025   7.077   4.638   4.886
14716TIP3    H244026   7.142   4.713   5.000
14717TIP3   OH244027   7.024   4.281   4.880
14717TIP3    H144028   6.975   4.317   4.807
14717TIP3    H244029   7.012   4.187   4.873
14718TIP3   OH244030   7.043   4.589   5.442
14718TIP3    H144031   7.045   4.494   5.428
14718TIP3    H244032   7.022   4.599   5.535
14719TIP3   OH244033   5.661   4.650   6.215
14719TIP3    H144034   5.652   4.615   6.126
14719TIP3    H244035   5.755   4.645   6.234
14720TIP3   OH244036   7.319   4.998   6.303
14720TIP3    H144037   7.388   4.934   6.286
14720TIP3    H244038   7.317   5.053   6.224
14721TIP3   OH244039   7.502   4.790   6.297
14721TIP3    H144040   7.428   4.749   6.341
14721TIP3    H244041   7.577   4.734   6.319
14722TIP3   OH244042   6.975   4.010   4.862
14722TIP3    H144043   7.035   3.987   4.934
14722TIP3    H244044   6.890   3.979   4.892
14723TIP3   OH244045   7.037   4.308   5.330
14723TIP3    H144046   7.082   4.225   5.342
14723TIP3    H244047   7.078   4.347   5.253
14724TIP3   OH244048   7.189   4.469   5.854
14724TIP3    H144049   7.269   4.487   5.805
14724TIP3    H244050   7.203   4.510   5.939
14725TIP3   OH244051   7.264   4.620   6.081
14725TIP3    H144052   7.191   4.648   6.137
14725TIP3    H244053   7.293   4.701   6.039
14726TIP3   OH244054   5.888   4.326   6.850
14726TIP3    H144055   5.981   4.325   6.874
14726TIP3    H244056   5.850   4.251   6.897
14727TIP3   OH244057   7.725   4.221   6.619
14727TIP3    H144058   7.790   4.164   6.579
14727TIP3    H244059   7.688   4.270   6.546
14728TIP3   OH244060   7.154   4.058   5.379
14728TIP3    H144061   7.199   4.043   5.463
14728TIP3    H244062   7.090   3.987   5.374
14729TIP3   OH244063   5.862   4.040   6.201
14729TIP3    H144064   5.916   3.961   6.209
14729TIP3    H244065   5.925   4.110   6.186
14730TIP3   OH244066   5.638   4.295   6.269
14730TIP3    H144067   5.691   4.294   6.189
14730TIP3    H244068   5.667   4.374   6.315
14731TIP3   OH244069   7.576   4.338   6.423
14731TIP3    H144070   7.496   4.378   6.458
14731TIP3    H244071   7.545   4.266   6.369
14732TIP3   OH244072   7.201   3.969   5.022
14732TIP3    H144073   7.249   3.908   4.966
14732TIP3    H244074   7.254   4.048   5.024
14733TIP3   OH244075   5.626   3.811   5.771
14733TIP3    H144076   5.541   3.800   5.812
14733TIP3    H244077   5.609   3.866   5.694
14734TIP3   OH244078   6.801   5.533   5.306
14734TIP3    H144079   6.848   5.507   5.227
14734TIP3    H244080   6.846   5.612   5.337
14735TIP3   OH244081   5.846   3.857   6.594
14735TIP3    H144082   5.802   3.861   6.679
14735TIP3    H244083   5.793   3.912   6.537
14736TIP3   OH244084   5.879   5.324   6.671
14736TIP3    H144085   5.786   5.305   6.661
14736TIP3    H244086   5.895   5.313   6.765
14737TIP3   OH244087   6.089   5.372   6.219
14737TIP3    H144088   6.039   5.448   6.189
14737TIP3    H244089   6.174   5.381   6.176
14738TIP3   OH244090   6.488   5.603   6.354
14738TIP3    H144091   6.526   5.595   6.442
14738TIP3    H244092   6.551   5.658   6.306
14739TIP3   OH244093   6.678   5.760   6.228
14739TIP3    H144094   6.739   5.706   6.177
14739TIP3    H244095   6.735   5.815   6.282
14740TIP3   OH244096   7.487   4.090   6.315
14740TIP3    H144097   7.401   4.087   6.272
14740TIP3    H244098   7.519   4.000   6.310
14741TIP3   OH244099   5.752   5.618   6.265
14741TIP3    H144100   5.661   5.638   6.245
14741TIP3    H244101   5.776   5.680   6.334
14742TIP3   OH244102   5.983   5.605   6.116
14742TIP3    H144103   5.900   5.610   6.164
14742TIP3    H244104   5.960   5.627   6.026
14743TIP3   OH244105   6.396   5.621   5.908
14743TIP3    H144106   6.326   5.630   5.844
14743TIP3    H244107   6.405   5.708   5.946
14744TIP3   OH244108   6.661   5.561   5.959
14744TIP3    H144109   6.570   5.578   5.937
14744TIP3    H244110   6.710   5.625   5.908
14745TIP3   OH244111   6.864   5.732   5.858
14745TIP3    H144112   6.861   5.818   5.816
14745TIP3    H244113   6.895   5.673   5.788
14746TIP3   OH244114   5.655   5.389   5.987
14746TIP3    H144115   5.682   5.366   6.076
14746TIP3    H244116   5.727   5.358   5.932
14747TIP3   OH244117   5.862   5.278   5.848
14747TIP3    H144118   5.874   5.192   5.888
14747TIP3    H244119   5.948   5.318   5.850
14748TIP3   OH244120   6.130   5.363   5.868
14748TIP3    H144121   6.150   5.270   5.852
14748TIP3    H244122   6.185   5.386   5.943
14749TIP3   OH244123   6.693   4.012   5.955
14749TIP3    H144124   6.653   3.941   6.005
14749TIP3    H244125   6.761   3.970   5.903
14750TIP3   OH244126   7.196   3.926   5.839
14750TIP3    H144127   7.232   3.976   5.766
14750TIP3    H244128   7.103   3.950   5.841
14751TIP3   OH244129   7.311   4.003   5.602
14751TIP3    H144130   7.380   3.942   5.576
14751TIP3    H244131   7.349   4.090   5.590
14752TIP3   OH244132   5.934   3.712   5.948
14752TIP3    H144133   5.844   3.678   5.959
14752TIP3    H244134   5.988   3.633   5.940
14753TIP3   OH244135   5.748   3.615   5.602
14753TIP3    H144136   5.775   3.666   5.526
14753TIP3    H244137   5.713   3.680   5.663
14754TIP3   OH244138   6.417   3.749   5.847
14754TIP3    H144139   6.463   3.798   5.779
14754TIP3    H244140   6.455   3.780   5.929
14755TIP3   OH244141   6.906   3.896   5.823
14755TIP3    H144142   6.917   3.861   5.734
14755TIP3    H244143   6.913   3.819   5.879
14756TIP3   OH244144   6.967   3.848   5.389
14756TIP3    H144145   6.887   3.896   5.413
14756TIP3    H244146   6.955   3.761   5.427
14757TIP3   OH244147   5.426   5.191   5.372
14757TIP3    H144148   5.347   5.160   5.327
14757TIP3    H244149   5.437   5.281   5.342
14758TIP3   OH244150   5.859   3.749   5.366
14758TIP3    H144151   5.904   3.688   5.309
14758TIP3    H244152   5.928   3.805   5.402
14759TIP3   OH244153   6.346   3.944   5.465
14759TIP3    H144154   6.405   3.892   5.519
14759TIP3    H244155   6.360   4.035   5.492
14760TIP3   OH244156   6.210   5.328   4.925
14760TIP3    H144157   6.299   5.363   4.920
14760TIP3    H244158   6.200   5.276   4.845
14761TIP3   OH244159   6.933   5.464   5.073
14761TIP3    H144160   6.926   5.369   5.065
14761TIP3    H244161   6.885   5.498   4.997
14762TIP3   OH244162   6.156   3.993   6.830
14762TIP3    H144163   6.121   3.926   6.888
14762TIP3    H244164   6.248   4.002   6.856
14763TIP3   OH244165   6.403   4.004   6.953
14763TIP3    H144166   6.481   3.979   6.903
14763TIP3    H244167   6.394   3.935   7.018
14764TIP3   OH244168   5.566   5.254   5.075
14764TIP3    H144169   5.506   5.306   5.129
14764TIP3    H244170   5.595   5.183   5.132
14765TIP3   OH244171   7.231   4.092   6.744
14765TIP3    H144172   7.247   4.062   6.834
14765TIP3    H244173   7.316   4.086   6.701
14766TIP3   OH244174   7.149   5.624   6.246
14766TIP3    H144175   7.076   5.592   6.194
14766TIP3    H244176   7.134   5.718   6.254
14767TIP3   OH244177   8.425   5.028   4.980
14767TIP3    H144178   8.383   5.114   4.973
14767TIP3    H244179   8.356   4.965   4.959
14768TIP3   OH244180   8.461   4.993   5.399
14768TIP3    H144181   8.498   4.975   5.485
14768TIP3    H244182   8.396   4.925   5.385
14769TIP3   OH244183   7.722   4.866   5.757
14769TIP3    H144184   7.762   4.813   5.826
14769TIP3    H244185   7.794   4.890   5.700
14770TIP3   OH244186   8.693   5.318   5.083
14770TIP3    H144187   8.684   5.248   5.148
14770TIP3    H244188   8.718   5.395   5.134
14771TIP3   OH244189   7.712   5.288   5.452
14771TIP3    H144190   7.689   5.195   5.450
14771TIP3    H244191   7.806   5.291   5.432
14772TIP3   OH244192   7.399   4.490   5.226
14772TIP3    H144193   7.363   4.574   5.254
14772TIP3    H244194   7.326   4.444   5.185
14773TIP3   OH244195   7.481   4.810   5.451
14773TIP3    H144196   7.532   4.734   5.476
14773TIP3    H244197   7.546   4.877   5.429
14774TIP3   OH244198   8.267   5.700   5.083
14774TIP3    H144199   8.222   5.618   5.067
14774TIP3    H244200   8.288   5.698   5.177
14775TIP3   OH244201   8.229   5.234   5.443
14775TIP3    H144202   8.247   5.202   5.355
14775TIP3    H244203   8.312   5.269   5.474
14776TIP3   OH244204   9.215   4.531   5.437
14776TIP3    H144205   9.242   4.619   5.466
14776TIP3    H244206   9.231   4.532   5.343
14777TIP3   OH244207   8.644   4.710   5.454
14777TIP3    H144208   8.673   4.623   5.480
14777TIP3    H244209   8.602   4.698   5.369
14778TIP3   OH244210   7.995   4.370   5.408
14778TIP3    H144211   7.972   4.444   5.351
14778TIP3    H244212   7.938   4.299   5.378
14779TIP3   OH244213   8.684   4.476   5.054
14779TIP3    H144214   8.749   4.462   5.123
14779TIP3    H244215   8.735   4.510   4.980
14780TIP3   OH244216   7.618   4.586   5.541
14780TIP3    H144217   7.702   4.568   5.584
14780TIP3    H244218   7.622   4.535   5.460
14781TIP3   OH244219   8.036   4.791   5.350
14781TIP3    H144220   8.130   4.774   5.358
14781TIP3    H244221   7.999   4.709   5.317
14782TIP3   OH244222   9.284   4.747   5.605
14782TIP3    H144223   9.203   4.797   5.592
14782TIP3    H244224   9.284   4.725   5.698
14783TIP3   OH244225   7.973   4.376   5.862
14783TIP3    H144226   7.924   4.411   5.789
14783TIP3    H244227   7.918   4.392   5.939
14784TIP3   OH244228   8.290   5.261   4.903
14784TIP3    H144229   8.231   5.242   4.831
14784TIP3    H244230   8.236   5.307   4.967
14785TIP3   OH244231   8.065   5.142   5.642
14785TIP3    H144232   8.009   5.214   5.673
14785TIP3    H244233   8.118   5.181   5.573
14786TIP3   OH244234   8.853   4.475   5.271
14786TIP3    H144235   8.803   4.458   5.351
14786TIP3    H244236   8.901   4.556   5.289
14787TIP3   OH244237   7.867   4.481   5.630
14787TIP3    H144238   7.921   4.557   5.653
14787TIP3    H244239   7.914   4.439   5.558
14788TIP3   OH244240   7.912   5.351   5.738
14788TIP3    H144241   7.897   5.437   5.699
14788TIP3    H244242   7.833   5.334   5.789
14789TIP3   OH244243   7.298   5.058   5.000
14789TIP3    H144244   7.260   5.072   4.913
14789TIP3    H244245   7.315   5.146   5.034
14790TIP3   OH244246   8.740   5.559   5.216
14790TIP3    H144247   8.661   5.548   5.268
14790TIP3    H244248   8.731   5.645   5.176
14791TIP3   OH244249   9.039   4.432   5.620
14791TIP3    H144250   8.951   4.450   5.586
14791TIP3    H244251   9.098   4.458   5.550
14792TIP3   OH244252   8.313   4.067   5.595
14792TIP3    H144253   8.307   3.974   5.620
14792TIP3    H244254   8.236   4.108   5.634
14793TIP3   OH244255   8.537   5.369   4.869
14793TIP3    H144256   8.451   5.332   4.890
14793TIP3    H244257   8.591   5.348   4.945
14794TIP3   OH244258   8.951   5.449   5.568
14794TIP3    H144259   8.934   5.373   5.512
14794TIP3    H244260   8.939   5.525   5.511
14795TIP3   OH244261   8.252   4.853   4.848
14795TIP3    H144262   8.169   4.898   4.831
14795TIP3    H244263   8.295   4.849   4.763
14796TIP3   OH244264   8.227   4.656   4.526
14796TIP3    H144265   8.291   4.703   4.580
14796TIP3    H244266   8.278   4.591   4.479
14797TIP3   OH244267   9.125   5.096   5.419
14797TIP3    H144268   9.042   5.144   5.426
14797TIP3    H244269   9.155   5.112   5.330
14798TIP3   OH244270   8.612   4.953   4.798
14798TIP3    H144271   8.558   4.983   4.871
14798TIP3    H244272   8.693   4.924   4.839
14799TIP3   OH244273   8.839   4.974   5.748
14799TIP3    H144274   8.836   5.058   5.794
14799TIP3    H244275   8.756   4.969   5.701
14800TIP3   OH244276   7.844   4.938   5.199
14800TIP3    H144277   7.809   4.882   5.130
14800TIP3    H244278   7.916   4.888   5.237
14801TIP3   OH244279   7.973   5.315   5.369
14801TIP3    H144280   7.994   5.345   5.281
14801TIP3    H244281   8.058   5.294   5.408
14802TIP3   OH244282   7.932   4.912   5.577
14802TIP3    H144283   7.971   4.880   5.496
14802TIP3    H244284   7.979   4.993   5.596
14803TIP3   OH244285   8.529   5.546   5.380
14803TIP3    H144286   8.493   5.625   5.420
14803TIP3    H244287   8.497   5.474   5.435
14804TIP3   OH244288   8.110   5.451   5.903
14804TIP3    H144289   8.049   5.510   5.947
14804TIP3    H244290   8.054   5.400   5.844
14805TIP3   OH244291   8.442   4.801   4.646
14805TIP3    H144292   8.498   4.858   4.697
14805TIP3    H244293   8.469   4.815   4.555
14806TIP3   OH244294   7.862   4.991   6.049
14806TIP3    H144295   7.867   5.085   6.066
14806TIP3    H244296   7.769   4.973   6.041
14807TIP3   OH244297   7.900   5.613   5.984
14807TIP3    H144298   7.876   5.620   5.892
14807TIP3    H244299   7.818   5.595   6.030
14808TIP3   OH244300   8.933   4.060   4.687
14808TIP3    H144301   8.862   4.079   4.748
14808TIP3    H244302   8.952   4.144   4.645
14809TIP3   OH244303   7.714   4.772   4.999
14809TIP3    H144304   7.635   4.817   4.968
14809TIP3    H244305   7.682   4.687   5.030
14810TIP3   OH244306   8.764   5.429   4.286
14810TIP3    H144307   8.760   5.517   4.249
14810TIP3    H244308   8.848   5.394   4.255
14811TIP3   OH244309   7.496   5.164   5.939
14811TIP3    H144310   7.427   5.148   5.875
14811TIP3    H244311   7.530   5.077   5.960
14812TIP3   OH244312   7.338   5.356   5.587
14812TIP3    H144313   7.431   5.377   5.594
14812TIP3    H244314   7.293   5.435   5.616
14813TIP3   OH244315   9.195   5.819   5.649
14813TIP3    H144316   9.198   5.723   5.653
14813TIP3    H244317   9.114   5.842   5.693
14814TIP3   OH244318   8.297   5.594   5.761
14814TIP3    H144319   8.285   5.686   5.788
14814TIP3    H244320   8.228   5.547   5.808
14815TIP3   OH244321   8.156   5.756   4.627
14815TIP3    H144322   8.089   5.702   4.585
14815TIP3    H244323   8.107   5.810   4.690
14816TIP3   OH244324   7.517   5.547   5.097
14816TIP3    H144325   7.571   5.533   5.174
14816TIP3    H244326   7.471   5.464   5.084
14817TIP3   OH244327   8.271   5.616   4.345
14817TIP3    H144328   8.321   5.545   4.302
14817TIP3    H244329   8.287   5.603   4.438
14818TIP3   OH244330   9.076   4.925   5.908
14818TIP3    H144331   8.995   4.934   5.859
14818TIP3    H244332   9.090   4.830   5.915
14819TIP3   OH244333   7.694   5.354   5.908
14819TIP3    H144334   7.745   5.338   5.988
14819TIP3    H244335   7.623   5.291   5.913
14820TIP3   OH244336   8.078   4.159   5.720
14820TIP3    H144337   7.994   4.125   5.689
14820TIP3    H244338   8.055   4.239   5.767
14821TIP3   OH244339   8.619   4.281   5.922
14821TIP3    H144340   8.689   4.254   5.982
14821TIP3    H244341   8.538   4.264   5.970
14822TIP3   OH244342   8.831   4.710   5.841
14822TIP3    H144343   8.789   4.703   5.927
14822TIP3    H244344   8.813   4.800   5.813
14823TIP3   OH244345   8.531   4.832   4.395
14823TIP3    H144346   8.486   4.814   4.313
14823TIP3    H244347   8.614   4.870   4.369
14824TIP3   OH244348   8.232   4.197   4.689
14824TIP3    H144349   8.195   4.205   4.777
14824TIP3    H244350   8.193   4.118   4.653
14825TIP3   OH244351   8.017   4.693   5.726
14825TIP3    H144352   7.971   4.700   5.810
14825TIP3    H244353   7.993   4.773   5.679
14826TIP3   OH244354   7.898   4.571   5.249
14826TIP3    H144355   7.808   4.548   5.275
14826TIP3    H244356   7.906   4.537   5.160
14827TIP3   OH244357   8.377   4.646   4.979
14827TIP3    H144358   8.329   4.720   4.940
14827TIP3    H244359   8.433   4.615   4.909
14828TIP3   OH244360   8.562   4.912   6.050
14828TIP3    H144361   8.533   4.846   6.113
14828TIP3    H244362   8.654   4.927   6.071
14829TIP3   OH244363   8.539   4.660   5.205
14829TIP3    H144364   8.470   4.681   5.142
14829TIP3    H244365   8.586   4.587   5.165
14830TIP3   OH244366   7.857   4.709   5.949
14830TIP3    H144367   7.864   4.774   6.018
14830TIP3    H244368   7.837   4.627   5.995
14831TIP3   OH244369   7.888   4.182   4.661
14831TIP3    H144370   7.881   4.187   4.756
14831TIP3    H244371   7.809   4.226   4.628
14832TIP3   OH244372   7.444   4.225   5.530
14832TIP3    H144373   7.516   4.261   5.581
14832TIP3    H244374   7.481   4.213   5.442
14833TIP3   OH244375   7.352   4.204   5.027
14833TIP3    H144376   7.395   4.240   4.950
14833TIP3    H244377   7.289   4.271   5.053
14834TIP3   OH244378   8.594   4.909   5.632
14834TIP3    H144379   8.619   4.842   5.568
14834TIP3    H244380   8.547   4.861   5.700
14835TIP3   OH244381   8.260   4.360   5.300
14835TIP3    H144382   8.181   4.360   5.353
14835TIP3    H244383   8.332   4.351   5.362
14836TIP3   OH244384   7.659   4.446   5.309
14836TIP3    H144385   7.571   4.450   5.271
14836TIP3    H244386   7.687   4.356   5.293
14837TIP3   OH244387   7.911   4.445   5.005
14837TIP3    H144388   8.006   4.457   4.993
14837TIP3    H244389   7.874   4.463   4.919
14838TIP3   OH244390   8.705   4.443   5.504
14838TIP3    H144391   8.689   4.461   5.597
14838TIP3    H244392   8.633   4.385   5.479
14839TIP3   OH244393   7.796   4.464   4.758
14839TIP3    H144394   7.730   4.421   4.704
14839TIP3    H244395   7.852   4.511   4.695
14840TIP3   OH244396   8.905   6.155   5.727
14840TIP3    H144397   8.904   6.169   5.632
14840TIP3    H244398   8.984   6.201   5.757
14841TIP3   OH244399   7.850   5.260   6.139
14841TIP3    H144400   7.930   5.281   6.187
14841TIP3    H244401   7.780   5.269   6.204
14842TIP3   OH244402   8.308   4.733   5.406
14842TIP3    H144403   8.375   4.683   5.360
14842TIP3    H244404   8.305   4.694   5.494
14843TIP3   OH244405   7.801   4.197   5.295
14843TIP3    H144406   7.773   4.122   5.347
14843TIP3    H244407   7.820   4.160   5.209
14844TIP3   OH244408   8.284   4.638   5.672
14844TIP3    H144409   8.197   4.670   5.695
14844TIP3    H244410   8.343   4.690   5.726
14845TIP3   OH244411   8.021   4.996   4.792
14845TIP3    H144412   7.946   4.939   4.773
14845TIP3    H244413   7.996   5.041   4.872
14846TIP3   OH244414   8.898   5.247   5.390
14846TIP3    H144415   8.932   5.301   5.318
14846TIP3    H244416   8.821   5.203   5.353
14847TIP3   OH244417   8.482   4.304   4.687
14847TIP3    H144418   8.389   4.282   4.687
14847TIP3    H244419   8.484   4.399   4.702
14848TIP3   OH244420   8.428   5.329   5.808
14848TIP3    H144421   8.473   5.322   5.892
14848TIP3    H244422   8.383   5.414   5.812
14849TIP3   OH244423   8.541   4.568   4.762
14849TIP3    H144424   8.636   4.574   4.771
14849TIP3    H244425   8.516   4.646   4.712
14850TIP3   OH244426   7.699   4.992   5.430
14850TIP3    H144427   7.739   4.987   5.343
14850TIP3    H244428   7.768   4.967   5.490
14851TIP3   OH244429   8.167   5.159   4.631
14851TIP3    H144430   8.120   5.243   4.631
14851TIP3    H244431   8.113   5.101   4.685
14852TIP3   OH244432   7.589   4.927   6.066
14852TIP3    H144433   7.588   4.900   6.158
14852TIP3    H244434   7.513   4.882   6.028
14853TIP3   OH244435   8.330   5.069   6.091
14853TIP3    H144436   8.260   5.009   6.064
14853TIP3    H244437   8.410   5.027   6.060
14854TIP3   OH244438   8.569   5.619   5.693
14854TIP3    H144439   8.474   5.604   5.697
14854TIP3    H244440   8.591   5.652   5.780
14855TIP3   OH244441   8.983   4.641   4.585
14855TIP3    H144442   8.936   4.595   4.515
14855TIP3    H244443   8.979   4.733   4.559
14856TIP3   OH244444   9.193   5.539   5.657
14856TIP3    H144445   9.099   5.520   5.657
14856TIP3    H244446   9.224   5.509   5.572
14857TIP3   OH244447   8.651   5.407   4.536
14857TIP3    H144448   8.647   5.312   4.534
14857TIP3    H244449   8.687   5.432   4.451
14858TIP3   OH244450   8.686   5.108   5.275
14858TIP3    H144451   8.600   5.084   5.310
14858TIP3    H244452   8.719   5.027   5.236
14859TIP3   OH244453   7.384   4.636   4.791
14859TIP3    H144454   7.428   4.716   4.817
14859TIP3    H244455   7.303   4.635   4.841
14860TIP3   OH244456   7.959   5.135   5.015
14860TIP3    H144457   7.994   5.219   5.045
14860TIP3    H244458   7.918   5.097   5.093
14861TIP3   OH244459   8.114   5.646   5.537
14861TIP3    H144460   8.145   5.721   5.487
14861TIP3    H244461   8.190   5.618   5.588
14862TIP3   OH244462   7.691   5.620   4.890
14862TIP3    H144463   7.631   5.598   4.961
14862TIP3    H244464   7.738   5.697   4.922
14863TIP3   OH244465   8.475   5.319   5.537
14863TIP3    H144466   8.462   5.319   5.632
14863TIP3    H244467   8.551   5.262   5.523
14864TIP3   OH244468   8.458   5.198   4.390
14864TIP3    H144469   8.500   5.165   4.469
14864TIP3    H244470   8.372   5.155   4.388
14865TIP3   OH244471   8.722   5.822   5.571
14865TIP3    H144472   8.655   5.758   5.593
14865TIP3    H244473   8.684   5.873   5.500
14866TIP3   OH244474   8.764   5.691   4.211
14866TIP3    H144475   8.762   5.737   4.127
14866TIP3    H244476   8.697   5.735   4.264
14867TIP3   OH244477   7.801   4.455   6.067
14867TIP3    H144478   7.705   4.465   6.072
14867TIP3    H244479   7.823   4.405   6.146
14868TIP3   OH244480   8.631   5.143   4.599
14868TIP3    H144481   8.611   5.081   4.669
14868TIP3    H244482   8.725   5.132   4.584
14869TIP3   OH244483   7.545   5.560   5.719
14869TIP3    H144484   7.596   5.498   5.771
14869TIP3    H244485   7.562   5.645   5.760
14870TIP3   OH244486   7.804   5.151   4.381
14870TIP3    H144487   7.811   5.057   4.365
14870TIP3    H244488   7.781   5.158   4.473
14871TIP3   OH244489   7.753   5.198   4.656
14871TIP3    H144490   7.809   5.170   4.728
14871TIP3    H244491   7.752   5.294   4.662
14872TIP3   OH244492   7.484   4.882   4.887
14872TIP3    H144493   7.424   4.930   4.944
14872TIP3    H244494   7.501   4.942   4.814
14873TIP3   OH244495   8.660   4.503   5.765
14873TIP3    H144496   8.730   4.555   5.805
14873TIP3    H244497   8.648   4.429   5.825
14874TIP3   OH244498   8.536   4.258   4.959
14874TIP3    H144499   8.518   4.276   4.867
14874TIP3    H244500   8.577   4.339   4.992
14875TIP3   OH244501   8.032   5.396   4.635
14875TIP3    H144502   7.949   5.412   4.679
14875TIP3    H244503   8.036   5.463   4.567
14876TIP3   OH244504   8.192   4.452   5.046
14876TIP3    H144505   8.253   4.522   5.022
14876TIP3    H244506   8.213   4.433   5.138
14877TIP3   OH244507   8.490   4.748   5.828
14877TIP3    H144508   8.511   4.794   5.909
14877TIP3    H244509   8.538   4.665   5.835
14878TIP3   OH244510   8.353   4.150   5.137
14878TIP3    H144511   8.328   4.227   5.188
14878TIP3    H244512   8.421   4.182   5.078
14879TIP3   OH244513   7.766   5.470   4.678
14879TIP3    H144514   7.735   5.526   4.606
14879TIP3    H244515   7.740   5.516   4.757
14880TIP3   OH244516   7.867   4.173   4.940
14880TIP3    H144517   7.855   4.263   4.970
14880TIP3    H244518   7.961   4.158   4.947
14881TIP3   OH244519   9.087   4.642   5.810
14881TIP3    H144520   8.995   4.663   5.826
14881TIP3    H244521   9.085   4.571   5.745
14882TIP3   OH244522   8.762   4.845   5.191
14882TIP3    H144523   8.681   4.798   5.206
14882TIP3    H244524   8.825   4.805   5.252
14883TIP3   OH244525   7.507   5.062   4.669
14883TIP3    H144526   7.574   5.130   4.678
14883TIP3    H244527   7.546   4.997   4.611
14884TIP3   OH244528   7.402   4.357   4.803
14884TIP3    H144529   7.413   4.452   4.808
14884TIP3    H244530   7.322   4.345   4.751
14885TIP3   OH244531   8.744   5.825   5.141
14885TIP3    H144532   8.700   5.874   5.071
14885TIP3    H244533   8.837   5.841   5.127
14886TIP3   OH244534   7.818   4.070   5.679
14886TIP3    H144535   7.788   4.038   5.593
14886TIP3    H244536   7.809   3.995   5.737
14887TIP3   OH244537   7.326   5.334   5.059
14887TIP3    H144538   7.284   5.373   5.137
14887TIP3    H244539   7.280   5.373   4.985
14888TIP3   OH244540   7.541   5.860   6.140
14888TIP3    H144541   7.624   5.860   6.187
14888TIP3    H244542   7.519   5.767   6.130
14889TIP3   OH244543   8.010   5.768   6.183
14889TIP3    H144544   8.100   5.736   6.189
14889TIP3    H244545   7.972   5.719   6.110
14890TIP3   OH244546   7.963   5.363   4.307
14890TIP3    H144547   7.913   5.290   4.343
14890TIP3    H244548   8.037   5.322   4.262
14891TIP3   OH244549   8.627   5.712   5.944
14891TIP3    H144550   8.642   5.642   6.008
14891TIP3    H244551   8.702   5.771   5.956
14892TIP3   OH244552   8.400   5.410   4.224
14892TIP3    H144553   8.437   5.340   4.278
14892TIP3    H244554   8.453   5.409   4.144
14893TIP3   OH244555   7.643   5.266   6.328
14893TIP3    H144556   7.660   5.173   6.340
14893TIP3    H244557   7.557   5.270   6.286
14894TIP3   OH244558   7.659   4.891   4.526
14894TIP3    H144559   7.716   4.864   4.597
14894TIP3    H244560   7.711   4.878   4.447
14895TIP3   OH244561   8.264   5.344   6.105
14895TIP3    H144562   8.217   5.366   6.024
14895TIP3    H244563   8.297   5.256   6.091
14896TIP3   OH244564   8.209   5.086   4.369
14896TIP3    H144565   8.184   5.099   4.460
14896TIP3    H244566   8.189   4.994   4.351
14897TIP3   OH244567   8.736   5.391   5.728
14897TIP3    H144568   8.811   5.419   5.676
14897TIP3    H244569   8.670   5.459   5.711
14898TIP3   OH244570   7.758   5.011   6.339
14898TIP3    H144571   7.832   4.989   6.282
14898TIP3    H244572   7.797   5.029   6.424
14899TIP3   OH244573   7.822   4.812   4.739
14899TIP3    H144574   7.790   4.785   4.825
14899TIP3    H244575   7.865   4.735   4.704
14900TIP3   OH244576   8.126   4.894   5.999
14900TIP3    H144577   8.038   4.932   6.006
14900TIP3    H244578   8.156   4.919   5.911
14901TIP3   OH244579   7.955   4.615   4.592
14901TIP3    H144580   7.922   4.615   4.503
14901TIP3    H244581   8.050   4.627   4.583
14902TIP3   OH244582   8.621   5.267   6.079
14902TIP3    H144583   8.687   5.228   6.022
14902TIP3    H244584   8.617   5.208   6.155
14903TIP3   OH244585   8.757   4.931   4.272
14903TIP3    H144586   8.739   4.887   4.189
14903TIP3    H244587   8.737   5.023   4.254
14904TIP3   OH244588   8.223   4.659   6.102
14904TIP3    H144589   8.225   4.589   6.036
14904TIP3    H244590   8.190   4.735   6.055
14905TIP3   OH244591   8.233   4.462   5.897
14905TIP3    H144592   8.259   4.500   5.813
14905TIP3    H244593   8.142   4.435   5.884
14906TIP3   OH244594   8.243   4.979   5.769
14906TIP3    H144595   8.329   5.016   5.752
14906TIP3    H244596   8.182   5.038   5.724
14907TIP3   OH244597   8.830   4.940   6.148
14907TIP3    H144598   8.869   4.853   6.160
14907TIP3    H244599   8.904   4.997   6.131
14908TIP3   OH244600   8.862   5.216   5.890
14908TIP3    H144601   8.808   5.277   5.841
14908TIP3    H244602   8.951   5.232   5.858
14909TIP3   OH244603   8.110   4.743   6.346
14909TIP3    H144604   8.039   4.681   6.367
14909TIP3    H244605   8.137   4.719   6.258
14910TIP3   OH244606   8.354   4.229   5.998
14910TIP3    H144607   8.313   4.309   5.966
14910TIP3    H244608   8.287   4.161   5.986
14911TIP3   OH244609   8.476   4.704   6.206
14911TIP3    H144610   8.465   4.689   6.300
14911TIP3    H244611   8.391   4.681   6.168
14912TIP3   OH244612   8.717   4.651   6.077
14912TIP3    H144613   8.639   4.653   6.132
14912TIP3    H244614   8.788   4.626   6.136
14913TIP3   OH244615   8.956   4.621   6.221
14913TIP3    H144616   8.971   4.527   6.227
14913TIP3    H244617   8.954   4.651   6.312
14914TIP3   OH244618   7.942   4.522   6.408
14914TIP3    H144619   7.949   4.434   6.371
14914TIP3    H244620   7.981   4.515   6.495
14915TIP3   OH244621   8.416   4.208   6.265
14915TIP3    H144622   8.486   4.142   6.260
14915TIP3    H244623   8.387   4.218   6.174
14916TIP3   OH244624   8.518   4.428   6.394
14916TIP3    H144625   8.485   4.353   6.344
14916TIP3    H244626   8.444   4.488   6.402
14917TIP3   OH244627   7.735   5.637   4.453
14917TIP3    H144628   7.830   5.632   4.459
14917TIP3    H244629   7.718   5.695   4.379
14918TIP3   OH244630   7.238   5.057   4.725
14918TIP3    H144631   7.329   5.074   4.702
14918TIP3    H244632   7.215   4.978   4.677
14919TIP3   OH244633   7.134   5.636   5.153
14919TIP3    H144634   7.070   5.578   5.111
14919TIP3    H244635   7.181   5.579   5.214
14920TIP3   OH244636   7.281   5.473   5.320
14920TIP3    H144637   7.270   5.403   5.385
14920TIP3    H244638   7.341   5.534   5.361
14921TIP3   OH244639   9.015   5.875   5.139
14921TIP3    H144640   9.035   5.897   5.230
14921TIP3    H244641   9.061   5.941   5.087
14922TIP3   OH244642   9.042   5.906   5.418
14922TIP3    H144643   8.993   5.824   5.414
14922TIP3    H244644   9.109   5.890   5.484
14923TIP3   OH244645   9.090   5.604   5.979
14923TIP3    H144646   9.015   5.608   6.038
14923TIP3    H244647   9.131   5.690   5.984
14924TIP3   OH244648   8.902   5.134   4.578
14924TIP3    H144649   8.965   5.201   4.551
14924TIP3    H244650   8.940   5.097   4.658
14925TIP3   OH244651   9.009   5.007   4.788
14925TIP3    H144652   8.956   4.950   4.843
14925TIP3    H244653   9.087   5.025   4.840
14926TIP3   OH244654   9.064   5.396   5.226
14926TIP3    H144655   9.109   5.323   5.183
14926TIP3    H244656   9.069   5.467   5.162
14927TIP3   OH244657   8.898   5.671   5.416
14927TIP3    H144658   8.828   5.712   5.467
14927TIP3    H244659   8.853   5.630   5.342
14928TIP3   OH244660   8.948   4.887   4.458
14928TIP3    H144661   8.880   4.892   4.392
14928TIP3    H244662   8.936   4.966   4.511
14929TIP3   OH244663   8.843   4.523   4.380
14929TIP3    H144664   8.800   4.574   4.312
14929TIP3    H244665   8.803   4.436   4.374
14930TIP3   OH244666   8.834   4.840   4.925
14930TIP3    H144667   8.834   4.746   4.906
14930TIP3    H244668   8.814   4.846   5.019
14931TIP3   OH244669   7.457   4.898   5.708
14931TIP3    H144670   7.448   4.870   5.617
14931TIP3    H244671   7.551   4.897   5.724
14932TIP3   OH244672   9.119   5.265   5.796
14932TIP3    H144673   9.183   5.195   5.783
14932TIP3    H244674   9.141   5.330   5.730
14933TIP3   OH244675   9.287   5.049   5.788
14933TIP3    H144676   9.213   5.004   5.828
14933TIP3    H244677   9.364   5.000   5.817
14934TIP3   OH244678   8.753   4.266   4.380
14934TIP3    H144679   8.803   4.186   4.395
14934TIP3    H244680   8.662   4.240   4.390
14935TIP3   OH244681   8.828   4.571   4.817
14935TIP3    H144682   8.867   4.487   4.841
14935TIP3    H244683   8.880   4.601   4.742
14936TIP3   OH244684   8.965   4.721   5.341
14936TIP3    H144685   9.043   4.748   5.294
14936TIP3    H244686   8.974   4.760   5.428
14937TIP3   OH244687   9.040   4.876   5.564
14937TIP3    H144688   8.972   4.908   5.624
14937TIP3    H244689   9.069   4.955   5.518
14938TIP3   OH244690   7.679   4.583   6.346
14938TIP3    H144691   7.773   4.580   6.365
14938TIP3    H244692   7.644   4.502   6.384
14939TIP3   OH244693   9.466   4.532   6.107
14939TIP3    H144694   9.544   4.484   6.080
14939TIP3    H244695   9.437   4.576   6.027
14940TIP3   OH244696   8.927   4.333   4.916
14940TIP3    H144697   8.984   4.322   4.992
14940TIP3    H244698   8.874   4.253   4.915
14941TIP3   OH244699   7.657   4.297   5.693
14941TIP3    H144700   7.710   4.218   5.700
14941TIP3    H244701   7.720   4.367   5.676
14942TIP3   OH244702   7.433   4.560   5.755
14942TIP3    H144703   7.486   4.550   5.676
14942TIP3    H244704   7.451   4.649   5.785
14943TIP3   OH244705   9.353   4.625   5.874
14943TIP3    H144706   9.262   4.644   5.897
14943TIP3    H244707   9.350   4.536   5.838
14944TIP3   OH244708   9.013   4.285   4.529
14944TIP3    H144709   9.031   4.213   4.469
14944TIP3    H244710   8.960   4.347   4.478
14945TIP3   OH244711   7.422   4.071   5.256
14945TIP3    H144712   7.336   4.060   5.297
14945TIP3    H244713   7.405   4.126   5.179
14946TIP3   OH244714   7.647   4.120   6.080
14946TIP3    H144715   7.599   4.118   6.163
14946TIP3    H244716   7.593   4.172   6.021
14947TIP3   OH244717   7.679   5.580   6.155
14947TIP3    H144718   7.585   5.563   6.143
14947TIP3    H244719   7.694   5.565   6.248
14948TIP3   OH244720   7.890   5.629   5.699
14948TIP3    H144721   7.841   5.706   5.670
14948TIP3    H244722   7.969   5.629   5.645
14949TIP3   OH244723   8.282   5.860   5.844
14949TIP3    H144724   8.321   5.852   5.931
14949TIP3    H244725   8.345   5.914   5.795
14950TIP3   OH244726   8.472   6.014   5.714
14950TIP3    H144727   8.533   5.959   5.665
14950TIP3    H244728   8.529   6.072   5.765
14951TIP3   OH244729   9.268   4.363   5.801
14951TIP3    H144730   9.181   4.364   5.761
14951TIP3    H244731   9.298   4.272   5.792
14952TIP3   OH244732   7.551   5.871   5.755
14952TIP3    H144733   7.459   5.888   5.732
14952TIP3    H244734   7.572   5.938   5.820
14953TIP3   OH244735   7.781   5.865   5.604
14953TIP3    H144736   7.697   5.867   5.651
14953TIP3    H244737   7.758   5.885   5.514
14954TIP3   OH244738   8.193   5.869   5.383
14954TIP3    H144739   8.117   5.879   5.325
14954TIP3    H244740   8.202   5.954   5.426
14955TIP3   OH244741   8.455   5.810   5.444
14955TIP3    H144742   8.363   5.826   5.422
14955TIP3    H244743   8.503   5.878   5.396
14956TIP3   OH244744   8.656   5.986   5.346
14956TIP3    H144745   8.653   6.072   5.306
14956TIP3    H244746   8.684   5.927   5.276
14957TIP3   OH244747   7.468   5.639   5.464
14957TIP3    H144748   7.493   5.615   5.554
14957TIP3    H244749   7.540   5.609   5.410
14958TIP3   OH244750   7.677   5.531   5.325
14958TIP3    H144751   7.687   5.447   5.369
14958TIP3    H244752   7.766   5.561   5.308
14959TIP3   OH244753   7.949   5.619   5.285
14959TIP3    H144754   7.988   5.563   5.217
14959TIP3    H244755   7.993   5.594   5.366
14960TIP3   OH244756   8.484   4.268   5.443
14960TIP3    H144757   8.444   4.198   5.494
14960TIP3    H244758   8.549   4.224   5.388
14961TIP3   OH244759   8.976   4.189   5.292
14961TIP3    H144760   9.026   4.254   5.242
14961TIP3    H244761   8.889   4.228   5.302
14962TIP3   OH244762   9.135   4.316   5.097
14962TIP3    H144763   9.197   4.246   5.073
14962TIP3    H244764   9.191   4.390   5.121
14963TIP3   OH244765   7.730   3.968   5.437
14963TIP3    H144766   7.641   3.936   5.447
14963TIP3    H244767   7.784   3.890   5.429
14964TIP3   OH244768   7.554   3.879   5.093
14964TIP3    H144769   7.577   3.928   5.014
14964TIP3    H244770   7.515   3.944   5.152
14965TIP3   OH244771   8.211   4.005   5.334
14965TIP3    H144772   8.257   4.055   5.267
14965TIP3    H244773   8.249   4.035   5.417
14966TIP3   OH244774   8.687   4.148   5.304
14966TIP3    H144775   8.700   4.108   5.218
14966TIP3    H244776   8.701   4.076   5.366
14967TIP3   OH244777   8.762   4.110   4.896
14967TIP3    H144778   8.677   4.152   4.914
14967TIP3    H244779   8.751   4.020   4.928
14968TIP3   OH244780   7.198   5.446   4.835
14968TIP3    H144781   7.117   5.414   4.795
14968TIP3    H244782   7.205   5.537   4.807
14969TIP3   OH244783   7.656   4.006   4.852
14969TIP3    H144784   7.702   3.944   4.795
14969TIP3    H244785   7.726   4.062   4.887
14970TIP3   OH244786   8.142   4.201   4.951
14970TIP3    H144787   8.200   4.149   5.007
14970TIP3    H244788   8.157   4.291   4.979
14971TIP3   OH244789   8.010   5.597   4.436
14971TIP3    H144790   8.087   5.630   4.388
14971TIP3    H244791   7.985   5.519   4.387
14972TIP3   OH244792   7.958   4.251   6.320
14972TIP3    H144793   7.923   4.186   6.380
14972TIP3    H244794   8.050   4.260   6.345
14973TIP3   OH244795   8.204   4.257   6.445
14973TIP3    H144796   8.281   4.236   6.393
14973TIP3    H244797   8.201   4.188   6.512
14974TIP3   OH244798   7.332   5.489   4.557
14974TIP3    H144799   7.271   5.551   4.595
14974TIP3    H244800   7.341   5.420   4.623
14975TIP3   OH244801   9.021   4.351   6.231
14975TIP3    H144802   9.038   4.327   6.321
14975TIP3    H244803   9.105   4.344   6.187
14976TIP3   OH244804   8.941   5.882   5.734
14976TIP3    H144805   8.868   5.849   5.682
14976TIP3    H244806   8.926   5.976   5.741
14977TIP3   OH244807   9.453   5.153   5.298
14977TIP3    H144808   9.499   5.078   5.335
14977TIP3    H244809   9.493   5.229   5.341
14978TIP3   OH244810   9.416   5.558   4.971
14978TIP3    H144811   9.367   5.478   4.989
14978TIP3    H244812   9.507   5.528   4.960
14979TIP3   OH244813   9.245   5.064   4.921
14979TIP3    H144814   9.289   4.981   4.938
14979TIP3    H244815   9.315   5.128   4.915
14980TIP3   OH244816   0.277   5.807   4.560
14980TIP3    H144817   0.350   5.867   4.546
14980TIP3    H244818   0.269   5.800   4.655
14981TIP3   OH244819   0.198   5.528   5.002
14981TIP3    H144820   0.241   5.521   4.917
14981TIP3    H244821   0.269   5.544   5.063
14982TIP3   OH244822   0.034   4.630   5.063
14982TIP3    H144823   0.016   4.724   5.059
14982TIP3    H244824   0.107   4.617   5.002
14983TIP3   OH244825   9.364   4.834   5.003
14983TIP3    H144826   9.419   4.808   5.077
14983TIP3    H244827   9.368   4.760   4.942
14984TIP3   OH244828   0.112   5.051   4.827
14984TIP3    H144829   0.188   5.109   4.821
14984TIP3    H244830   0.107   5.009   4.741
14985TIP3   OH244831   9.719   4.592   5.383
14985TIP3    H144832   9.671   4.524   5.336
14985TIP3    H244833   9.660   4.617   5.454
14986TIP3   OH244834   0.037   5.379   5.158
14986TIP3    H144835  -0.017   5.446   5.199
14986TIP3    H244836   0.098   5.427   5.102
14987TIP3   OH244837   9.491   4.758   5.228
14987TIP3    H144838   9.551   4.821   5.267
14987TIP3    H244839   9.543   4.678   5.219
14988TIP3   OH244840   9.657   5.582   5.211
14988TIP3    H144841   9.650   5.675   5.188
14988TIP3    H244842   9.581   5.566   5.267
14989TIP3   OH244843   9.077   5.322   4.477
14989TIP3    H144844   9.037   5.338   4.392
14989TIP3    H244845   9.100   5.409   4.509
14990TIP3   OH244846   9.468   5.314   4.683
14990TIP3    H144847   9.412   5.290   4.609
14990TIP3    H244848   9.532   5.242   4.689
14991TIP3   OH244849   9.780   5.687   4.803
14991TIP3    H144850   9.734   5.615   4.846
14991TIP3    H244851   9.865   5.692   4.847
14992TIP3   OH244852   9.719   5.208   4.967
14992TIP3    H144853   9.771   5.152   4.909
14992TIP3    H244854   9.780   5.232   5.037
14993TIP3   OH244855   0.041   5.675   5.413
14993TIP3    H144856   0.018   5.748   5.470
14993TIP3    H244857  -0.041   5.648   5.372
14994TIP3   OH244858   9.551   5.350   5.474
14994TIP3    H144859   9.567   5.428   5.528
14994TIP3    H244860   9.486   5.300   5.523
14995TIP3   OH244861   0.262   5.708   4.307
14995TIP3    H144862   0.274   5.721   4.401
14995TIP3    H244863   0.170   5.727   4.291
14996TIP3   OH244864   9.665   5.887   5.453
14996TIP3    H144865   9.636   5.874   5.363
14996TIP3    H244866   9.588   5.869   5.507
14997TIP3   OH244867   9.436   5.043   4.535
14997TIP3    H144868   9.372   5.070   4.469
14997TIP3    H244869   9.411   4.953   4.557
14998TIP3   OH244870   9.263   5.439   5.415
14998TIP3    H144871   9.191   5.422   5.354
14998TIP3    H244872   9.289   5.352   5.446
14999TIP3   OH244873   9.126   5.624   5.068
14999TIP3    H144874   9.218   5.645   5.082
14999TIP3    H244875   9.079   5.699   5.103
15000TIP3   OH244876   0.210   5.796   5.241
15000TIP3    H144877   0.243   5.870   5.292
15000TIP3    H244878   0.151   5.749   5.300
15001TIP3   OH244879   9.713   6.066   4.128
15001TIP3    H144880   9.762   6.002   4.076
15001TIP3    H244881   9.779   6.129   4.156
15002TIP3   OH244882   9.293   5.806   4.574
15002TIP3    H144883   9.334   5.798   4.660
15002TIP3    H244884   9.245   5.724   4.561
15003TIP3   OH244885   9.450   5.640   5.389
15003TIP3    H144886   9.492   5.642   5.475
15003TIP3    H244887   9.384   5.571   5.395
15004TIP3   OH244888   0.093   4.401   5.194
15004TIP3    H144889   0.013   4.348   5.187
15004TIP3    H244890   0.070   4.485   5.155
15005TIP3   OH244891   0.154   5.009   5.155
15005TIP3    H144892   0.107   4.947   5.210
15005TIP3    H244893   0.125   4.990   5.066
15006TIP3   OH244894   9.706   4.746   4.735
15006TIP3    H144895   9.615   4.754   4.707
15006TIP3    H244896   9.756   4.788   4.664
15007TIP3   OH244897   9.617   4.937   5.460
15007TIP3    H144898   9.629   5.003   5.528
15007TIP3    H244899   9.595   4.857   5.508
15008TIP3   OH244900   9.764   4.492   4.145
15008TIP3    H144901   9.731   4.425   4.086
15008TIP3    H244902   9.709   4.568   4.128
15009TIP3   OH244903   9.258   4.561   4.565
15009TIP3    H144904   9.260   4.577   4.470
15009TIP3    H244905   9.169   4.587   4.591
15010TIP3   OH244906   9.671   4.752   4.446
15010TIP3    H144907   9.750   4.732   4.396
15010TIP3    H244908   9.603   4.763   4.379
15011TIP3   OH244909   9.467   4.806   4.272
15011TIP3    H144910   9.380   4.771   4.286
15011TIP3    H244911   9.493   4.774   4.185
15012TIP3   OH244912   9.600   5.568   5.630
15012TIP3    H144913   9.683   5.560   5.678
15012TIP3    H244914   9.533   5.571   5.698
15013TIP3   OH244915   9.507   4.440   4.671
15013TIP3    H144916   9.561   4.441   4.750
15013TIP3    H244917   9.570   4.450   4.599
15014TIP3   OH244918  -0.008   5.273   4.249
15014TIP3    H144919   0.065   5.213   4.236
15014TIP3    H244920  -0.032   5.261   4.341
15015TIP3   OH244921   0.379   5.580   5.208
15015TIP3    H144922   0.458   5.581   5.262
15015TIP3    H244923   0.348   5.671   5.210
15016TIP3   OH244924   9.447   5.249   4.948
15016TIP3    H144925   9.446   5.286   4.860
15016TIP3    H244926   9.538   5.224   4.962
15017TIP3   OH244927   9.330   5.210   5.567
15017TIP3    H144928   9.344   5.164   5.650
15017TIP3    H244929   9.269   5.154   5.519
15018TIP3   OH244930   9.563   5.550   4.561
15018TIP3    H144931   9.519   5.635   4.556
15018TIP3    H244932   9.506   5.496   4.617
15019TIP3   OH244933   9.168   4.889   4.296
15019TIP3    H144934   9.205   4.976   4.308
15019TIP3    H244935   9.092   4.887   4.354
15020TIP3   OH244936   9.738   5.314   4.524
15020TIP3    H144937   9.666   5.378   4.523
15020TIP3    H244938   9.699   5.234   4.559
15021TIP3   OH244939   0.070   5.894   5.031
15021TIP3    H144940   0.114   5.977   5.014
15021TIP3    H244941   0.122   5.852   5.099
15022TIP3   OH244942   9.532   5.830   4.443
15022TIP3    H144943   9.446   5.840   4.484
15022TIP3    H244944   9.566   5.920   4.439
15023TIP3   OH244945   9.558   4.698   5.582
15023TIP3    H144946   9.463   4.709   5.587
15023TIP3    H244947   9.580   4.646   5.660
15024TIP3   OH244948   9.324   5.827   5.202
15024TIP3    H144949   9.369   5.765   5.260
15024TIP3    H244950   9.331   5.911   5.247
15025TIP3   OH244951   9.563   5.472   3.845
15025TIP3    H144952   9.572   5.379   3.823
15025TIP3    H244953   9.500   5.473   3.917
15026TIP3   OH244954   9.504   5.483   4.121
15026TIP3    H144955   9.595   5.485   4.092
15026TIP3    H244956   9.483   5.574   4.142
15027TIP3   OH244957   9.248   5.144   4.356
15027TIP3    H144958   9.188   5.192   4.413
15027TIP3    H244959   9.276   5.207   4.291
15028TIP3   OH244960  -0.021   5.553   4.066
15028TIP3    H144961  -0.021   5.544   4.161
15028TIP3    H244962   0.066   5.586   4.045
15029TIP3   OH244963   9.494   5.751   4.184
15029TIP3    H144964   9.453   5.830   4.149
15029TIP3    H244965   9.511   5.772   4.276
15030TIP3   OH244966   9.687   4.319   4.342
15030TIP3    H144967   9.632   4.396   4.357
15030TIP3    H244968   9.745   4.345   4.271
15031TIP3   OH244969   9.257   5.342   4.136
15031TIP3    H144970   9.316   5.417   4.134
15031TIP3    H244971   9.296   5.279   4.075
15032TIP3   OH244972   9.223   4.623   4.302
15032TIP3    H144973   9.188   4.711   4.291
15032TIP3    H244974   9.182   4.572   4.232
15033TIP3   OH244975   9.667   4.254   5.217
15033TIP3    H144976   9.643   4.186   5.154
15033TIP3    H244977   9.616   4.234   5.296
15034TIP3   OH244978   9.122   5.585   4.561
15034TIP3    H144979   9.095   5.618   4.647
15034TIP3    H244980   9.067   5.633   4.499
15035TIP3   OH244981   9.311   6.104   5.623
15035TIP3    H144982   9.387   6.107   5.681
15035TIP3    H244983   9.293   6.010   5.612
15036TIP3   OH244984   9.730   6.077   5.634
15036TIP3    H144985   9.824   6.082   5.651
15036TIP3    H244986   9.719   5.999   5.580
15037TIP3   OH244987   9.758   5.646   3.785
15037TIP3    H144988   9.701   5.578   3.820
15037TIP3    H244989   9.843   5.604   3.776
15038TIP3   OH244990   9.408   5.542   5.826
15038TIP3    H144991   9.435   5.450   5.830
15038TIP3    H244992   9.322   5.539   5.783
15039TIP3   OH244993   9.402   5.165   3.991
15039TIP3    H144994   9.453   5.139   4.068
15039TIP3    H244995   9.468   5.179   3.923
15040TIP3   OH244996   0.221   5.552   5.649
15040TIP3    H144997   0.209   5.647   5.650
15040TIP3    H244998   0.223   5.529   5.556
15041TIP3   OH244999   9.517   5.293   5.814
15041TIP3    H145000   9.565   5.225   5.767
15041TIP3    H245001   9.565   5.305   5.896
15042TIP3   OH245002   9.531   5.070   4.215
15042TIP3    H145003   9.499   4.988   4.252
15042TIP3    H245004   9.626   5.067   4.226
15043TIP3   OH245005   0.179   5.104   5.442
15043TIP3    H145006   0.093   5.143   5.426
15043TIP3    H245007   0.203   5.064   5.359
15044TIP3   OH245008   9.721   4.773   4.111
15044TIP3    H145009   9.682   4.832   4.046
15044TIP3    H245010   9.813   4.766   4.084
15045TIP3   OH245011   0.137   4.864   5.595
15045TIP3    H145012   0.153   4.786   5.542
15045TIP3    H245013   0.114   4.932   5.531
15046TIP3   OH245014   0.230   4.649   5.455
15046TIP3    H145015   0.324   4.635   5.441
15046TIP3    H245016   0.192   4.645   5.368
15047TIP3   OH245017   0.290   5.244   5.197
15047TIP3    H145018   0.253   5.158   5.173
15047TIP3    H245019   0.213   5.298   5.216
15048TIP3   OH245020   0.064   4.998   5.819
15048TIP3    H145021   0.007   4.931   5.858
15048TIP3    H245022   0.102   4.956   5.742
15049TIP3   OH245023   9.724   4.789   5.915
15049TIP3    H145024   9.714   4.704   5.872
15049TIP3    H245025   9.753   4.768   6.003
15050TIP3   OH245026   9.457   6.002   4.051
15050TIP3    H145027   9.545   6.023   4.081
15050TIP3    H245028   9.471   5.947   3.974
15051TIP3   OH245029   8.997   5.309   4.205
15051TIP3    H145030   9.088   5.325   4.182
15051TIP3    H245031   8.974   5.228   4.160
15052TIP3   OH245032   8.933   5.885   4.623
15052TIP3    H145033   8.929   5.835   4.542
15052TIP3    H245034   8.969   5.824   4.687
15053TIP3   OH245035   9.072   5.721   4.805
15053TIP3    H145036   9.069   5.657   4.876
15053TIP3    H245037   9.116   5.797   4.843
15054TIP3   OH245038   9.212   5.172   5.171
15054TIP3    H145039   9.213   5.136   5.082
15054TIP3    H245040   9.304   5.172   5.198
15055TIP3   OH245041   9.472   4.878   5.887
15055TIP3    H145042   9.565   4.856   5.888
15055TIP3    H245043   9.428   4.793   5.890
15056TIP3   OH245044   9.302   4.535   5.171
15056TIP3    H145045   9.393   4.511   5.150
15056TIP3    H245046   9.305   4.630   5.185
15057TIP3   OH245047   9.198   4.824   5.242
15057TIP3    H145048   9.237   4.848   5.158
15057TIP3    H245049   9.237   4.883   5.305
15058TIP3   OH245050   9.137   4.386   4.747
15058TIP3    H145051   9.078   4.378   4.823
15058TIP3    H245052   9.084   4.356   4.673
15059TIP3   OH245053   9.424   4.412   5.569
15059TIP3    H145054   9.383   4.395   5.654
15059TIP3    H245055   9.353   4.442   5.513
15060TIP3   OH245056   9.474   5.849   5.644
15060TIP3    H145057   9.385   5.825   5.668
15060TIP3    H245058   9.525   5.836   5.725
15061TIP3   OH245059   9.642   5.854   5.176
15061TIP3    H145060   9.588   5.928   5.148
15061TIP3    H245061   9.725   5.866   5.130
15062TIP3   OH245062   0.300   6.013   5.368
15062TIP3    H145063   0.346   6.050   5.444
15062TIP3    H245064   0.264   6.088   5.323
15063TIP3   OH245065   9.332   6.121   5.247
15063TIP3    H145066   9.241   6.137   5.220
15063TIP3    H245067   9.350   6.190   5.311
15064TIP3   OH245068   9.548   6.096   5.083
15064TIP3    H145069   9.469   6.105   5.137
15064TIP3    H245070   9.524   6.133   4.999
15065TIP3   OH245071   0.146   6.126   4.874
15065TIP3    H145072   0.112   6.215   4.879
15065TIP3    H245073   0.218   6.125   4.937
15066TIP3   OH245074   0.504   6.158   4.927
15066TIP3    H145075   0.521   6.078   4.878
15066TIP3    H245076   0.573   6.218   4.900
15067TIP3   OH245077   9.237   5.911   4.950
15067TIP3    H145078   9.261   5.887   5.040
15067TIP3    H245079   9.306   5.872   4.896
15068TIP3   OH245080   9.427   5.780   4.808
15068TIP3    H145081   9.432   5.705   4.867
15068TIP3    H245082   9.508   5.828   4.824
15069TIP3   OH245083   9.658   5.934   4.837
15069TIP3    H145084   9.707   5.858   4.805
15069TIP3    H245085   9.701   5.957   4.919
15070TIP3   OH245086   9.484   4.285   4.990
15070TIP3    H145087   9.425   4.211   5.004
15070TIP3    H245088   9.558   4.248   4.942
15071TIP3   OH245089   9.257   4.068   4.523
15071TIP3    H145090   9.299   4.120   4.454
15071TIP3    H245091   9.272   4.119   4.603
15072TIP3   OH245092   8.973   5.737   4.388
15072TIP3    H145093   8.901   5.703   4.335
15072TIP3    H245094   9.005   5.812   4.338
15073TIP3   OH245095   9.392   4.282   4.407
15073TIP3    H145096   9.417   4.242   4.324
15073TIP3    H245097   9.458   4.251   4.469
15074TIP3   OH245098   0.043   5.858   4.003
15074TIP3    H145099   0.135   5.883   4.001
15074TIP3    H245100   0.025   5.824   3.916
15075TIP3   OH245101   9.662   4.551   5.794
15075TIP3    H145102   9.664   4.491   5.869
15075TIP3    H245103   9.741   4.530   5.744
15076TIP3   OH245104   0.122   4.575   5.984
15076TIP3    H145105   0.197   4.600   5.931
15076TIP3    H245106   0.150   4.496   6.030
15077TIP3   OH245107   9.084   5.720   4.014
15077TIP3    H145108   9.090   5.759   4.102
15077TIP3    H245109   9.167   5.674   4.003
15078TIP3   OH245110   0.904   5.823   6.692
15078TIP3    H145111   0.884   5.907   6.651
15078TIP3    H245112   0.844   5.761   6.651
15079TIP3   OH245113   0.904   5.792   7.092
15079TIP3    H145114   0.955   5.780   7.173
15079TIP3    H245115   0.861   5.708   7.079
15080TIP3   OH245116   1.146   6.104   6.770
15080TIP3    H145117   1.139   6.033   6.834
15080TIP3    H245118   1.169   6.181   6.822
15081TIP3   OH245119   0.794   6.532   6.786
15081TIP3    H145120   0.841   6.461   6.743
15081TIP3    H245121   0.797   6.510   6.879
15082TIP3   OH245122   0.691   5.972   7.074
15082TIP3    H145123   0.752   5.898   7.071
15082TIP3    H245124   0.742   6.043   7.113
15083TIP3   OH245125   1.717   5.330   7.124
15083TIP3    H145126   1.737   5.413   7.167
15083TIP3    H245127   1.747   5.341   7.034
15084TIP3   OH245128   1.104   5.504   7.156
15084TIP3    H145129   1.149   5.424   7.183
15084TIP3    H245130   1.071   5.485   7.068
15085TIP3   OH245131   0.470   5.241   7.089
15085TIP3    H145132   0.398   5.302   7.074
15085TIP3    H245133   0.443   5.161   7.044
15086TIP3   OH245134   1.146   5.263   6.733
15086TIP3    H145135   1.209   5.258   6.805
15086TIP3    H245136   1.197   5.295   6.659
15087TIP3   OH245137   0.572   5.656   7.011
15087TIP3    H145138   0.657   5.614   7.027
15087TIP3    H245139   0.509   5.584   7.016
15088TIP3   OH245140   1.776   5.554   7.281
15088TIP3    H145141   1.687   5.588   7.284
15088TIP3    H245142   1.818   5.588   7.360
15089TIP3   OH245143   0.829   6.015   6.503
15089TIP3    H145144   0.778   5.969   6.436
15089TIP3    H245145   0.769   6.080   6.538
15090TIP3   OH245146   1.298   5.296   6.954
15090TIP3    H145147   1.270   5.267   7.041
15090TIP3    H245148   1.361   5.366   6.972
15091TIP3   OH245149   1.183   6.346   6.917
15091TIP3    H145150   1.095   6.337   6.954
15091TIP3    H245151   1.181   6.430   6.871
15092TIP3   OH245152   1.514   5.217   7.288
15092TIP3    H145153   1.429   5.241   7.250
15092TIP3    H245154   1.578   5.247   7.224
15093TIP3   OH245155   0.836   4.858   7.267
15093TIP3    H145156   0.803   4.774   7.300
15093TIP3    H245157   0.757   4.906   7.241
15094TIP3   OH245158   0.929   6.374   6.603
15094TIP3    H145159   0.984   6.298   6.584
15094TIP3    H245160   0.978   6.448   6.569
15095TIP3   OH245161   1.066   6.157   6.512
15095TIP3    H145162   0.996   6.094   6.499
15095TIP3    H245163   1.108   6.130   6.594
15096TIP3   OH245164   1.417   6.235   7.258
15096TIP3    H145165   1.400   6.161   7.199
15096TIP3    H245166   1.404   6.313   7.204
15097TIP3   OH245167   0.752   5.665   6.520
15097TIP3    H145168   0.677   5.723   6.505
15097TIP3    H245169   0.799   5.664   6.436
15098TIP3   OH245170   0.750   5.403   6.271
15098TIP3    H145171   0.808   5.474   6.297
15098TIP3    H245172   0.798   5.354   6.205
15099TIP3   OH245173   1.594   5.893   7.131
15099TIP3    H145174   1.511   5.940   7.123
15099TIP3    H245175   1.636   5.906   7.046
15100TIP3   OH245176   1.088   5.744   6.501
15100TIP3    H145177   1.041   5.776   6.578
15100TIP3    H245178   1.170   5.709   6.536
15101TIP3   OH245179   1.293   5.755   7.434
15101TIP3    H145180   1.294   5.836   7.485
15101TIP3    H245181   1.211   5.758   7.385
15102TIP3   OH245182   0.465   5.729   7.338
15102TIP3    H145183   0.401   5.771   7.281
15102TIP3    H245184   0.540   5.789   7.339
15103TIP3   OH245185   0.942   6.334   7.042
15103TIP3    H145186   0.924   6.417   7.086
15103TIP3    H245187   0.918   6.267   7.106
15104TIP3   OH245188   0.938   5.600   6.322
15104TIP3    H145189   0.999   5.658   6.368
15104TIP3    H245190   0.961   5.609   6.230
15105TIP3   OH245191   0.686   6.262   6.542
15105TIP3    H145192   0.767   6.292   6.583
15105TIP3    H245193   0.626   6.336   6.551
15106TIP3   OH245194   1.411   4.812   6.375
15106TIP3    H145195   1.335   4.832   6.430
15106TIP3    H245196   1.420   4.887   6.317
15107TIP3   OH245197   1.232   6.186   5.945
15107TIP3    H145198   1.227   6.278   5.921
15107TIP3    H245199   1.321   6.160   5.922
15108TIP3   OH245200   1.648   6.598   7.327
15108TIP3    H145201   1.654   6.504   7.339
15108TIP3    H245202   1.569   6.623   7.374
15109TIP3   OH245203   0.767   6.341   7.450
15109TIP3    H145204   0.770   6.431   7.483
15109TIP3    H245205   0.686   6.337   7.399
15110TIP3   OH245206   0.556   6.501   6.487
15110TIP3    H145207   0.526   6.487   6.397
15110TIP3    H245208   0.572   6.595   6.492
15111TIP3   OH245209   0.769   6.409   6.048
15111TIP3    H145210   0.823   6.342   6.007
15111TIP3    H245211   0.800   6.413   6.139
15112TIP3   OH245212   0.810   6.431   6.323
15112TIP3    H145213   0.734   6.437   6.382
15112TIP3    H245214   0.884   6.418   6.382
15113TIP3   OH245215   1.519   5.692   7.608
15113TIP3    H145216   1.451   5.704   7.542
15113TIP3    H245217   1.552   5.603   7.593
15114TIP3   OH245218   0.529   4.953   7.431
15114TIP3    H145219   0.542   4.900   7.352
15114TIP3    H245220   0.546   5.043   7.403
15115TIP3   OH245221   1.100   5.081   7.613
15115TIP3    H145222   1.168   5.051   7.672
15115TIP3    H245223   1.018   5.059   7.658
15116TIP3   OH245224   1.305   5.488   7.516
15116TIP3    H145225   1.262   5.483   7.602
15116TIP3    H245226   1.289   5.578   7.487
15117TIP3   OH245227   0.995   5.595   6.058
15117TIP3    H145228   0.953   5.577   5.974
15117TIP3    H245229   1.079   5.636   6.035
15118TIP3   OH245230   0.689   4.988   6.356
15118TIP3    H145231   0.662   4.993   6.448
15118TIP3    H245232   0.675   4.896   6.332
15119TIP3   OH245233   0.464   5.506   7.557
15119TIP3    H145234   0.423   5.422   7.580
15119TIP3    H245235   0.413   5.539   7.484
15120TIP3   OH245236   0.302   5.429   6.964
15120TIP3    H145237   0.229   5.487   6.984
15120TIP3    H245238   0.343   5.468   6.886
15121TIP3   OH245239   0.879   5.459   6.657
15121TIP3    H145240   0.846   5.538   6.614
15121TIP3    H245241   0.936   5.418   6.591
15122TIP3   OH245242   1.038   5.713   7.748
15122TIP3    H145243   1.007   5.648   7.810
15122TIP3    H245244   1.132   5.719   7.765
15123TIP3   OH245245   1.002   5.440   6.906
15123TIP3    H145246   0.945   5.467   6.834
15123TIP3    H245247   1.053   5.368   6.871
15124TIP3   OH245248   0.343   4.915   6.320
15124TIP3    H145249   0.342   4.949   6.410
15124TIP3    H245250   0.317   4.990   6.267
15125TIP3   OH245251   1.028   5.704   7.324
15125TIP3    H145252   1.060   5.638   7.263
15125TIP3    H245253   1.005   5.656   7.403
15126TIP3   OH245254   0.806   5.177   6.960
15126TIP3    H145255   0.770   5.265   6.976
15126TIP3    H245256   0.873   5.167   7.027
15127TIP3   OH245257   0.425   5.293   6.728
15127TIP3    H145258   0.474   5.365   6.689
15127TIP3    H245259   0.375   5.255   6.656
15128TIP3   OH245260   1.191   5.242   7.204
15128TIP3    H145261   1.167   5.259   7.295
15128TIP3    H245262   1.126   5.177   7.174
15129TIP3   OH245263   0.118   5.359   6.392
15129TIP3    H145264   0.041   5.307   6.417
15129TIP3    H245265   0.100   5.384   6.301
15130TIP3   OH245266   1.365   6.947   7.416
15130TIP3    H145267   1.362   6.960   7.322
15130TIP3    H245268   1.445   6.992   7.444
15131TIP3   OH245269   0.804   5.534   7.111
15131TIP3    H145270   0.861   5.486   7.051
15131TIP3    H245271   0.817   5.491   7.196
15132TIP3   OH245272   0.245   4.985   6.854
15132TIP3    H145273   0.229   4.907   6.801
15132TIP3    H245274   0.341   4.994   6.854
15133TIP3   OH245275   0.777   5.436   7.373
15133TIP3    H145276   0.697   5.472   7.412
15133TIP3    H245277   0.848   5.474   7.425
15134TIP3   OH245278   0.498   5.773   6.567
15134TIP3    H145279   0.448   5.710   6.516
15134TIP3    H245280   0.433   5.818   6.620
15135TIP3   OH245281   1.361   6.034   7.077
15135TIP3    H145282   1.400   6.082   7.004
15135TIP3    H245283   1.284   5.991   7.040
15136TIP3   OH245284   0.942   5.101   6.372
15136TIP3    H145285   0.847   5.086   6.364
15136TIP3    H245286   0.950   5.196   6.384
15137TIP3   OH245287   0.853   6.078   7.491
15137TIP3    H145288   0.910   6.071   7.569
15137TIP3    H245289   0.824   6.169   7.491
15138TIP3   OH245290   1.022   5.360   6.441
15138TIP3    H145291   1.117   5.354   6.454
15138TIP3    H245292   1.010   5.438   6.387
15139TIP3   OH245293   0.634   5.910   6.324
15139TIP3    H145294   0.641   6.003   6.300
15139TIP3    H245295   0.545   5.902   6.359
15140TIP3   OH245296   0.806   5.860   7.782
15140TIP3    H145297   0.744   5.798   7.743
15140TIP3    H245298   0.892   5.826   7.758
15141TIP3   OH245299   1.032   6.402   7.381
15141TIP3    H145300   0.940   6.375   7.387
15141TIP3    H245301   1.052   6.440   7.467
15142TIP3   OH245302   1.409   5.446   6.267
15142TIP3    H145303   1.348   5.403   6.208
15142TIP3    H245304   1.419   5.535   6.231
15143TIP3   OH245305   1.665   6.321   7.347
15143TIP3    H145306   1.571   6.301   7.348
15143TIP3    H245307   1.696   6.286   7.264
15144TIP3   OH245308   1.132   6.258   6.207
15144TIP3    H145309   1.125   6.191   6.275
15144TIP3    H245310   1.162   6.210   6.130
15145TIP3   OH245311   1.141   5.896   6.965
15145TIP3    H145312   1.052   5.874   6.992
15145TIP3    H245313   1.176   5.814   6.930
15146TIP3   OH245314   0.324   5.912   6.731
15146TIP3    H145315   0.355   5.996   6.697
15146TIP3    H245316   0.359   5.907   6.820
15147TIP3   OH245317   0.902   6.114   7.216
15147TIP3    H145318   0.889   6.100   7.310
15147TIP3    H245319   0.988   6.074   7.198
15148TIP3   OH245320   0.925   6.011   6.103
15148TIP3    H145321   0.985   5.973   6.167
15148TIP3    H245322   0.851   6.043   6.154
15149TIP3   OH245323   1.169   6.620   7.269
15149TIP3    H145324   1.105   6.550   7.283
15149TIP3    H245325   1.137   6.666   7.191
15150TIP3   OH245326   1.227   6.457   5.891
15150TIP3    H145327   1.246   6.515   5.816
15150TIP3    H245328   1.159   6.503   5.940
15151TIP3   OH245329   1.102   5.917   6.285
15151TIP3    H145330   1.088   5.867   6.366
15151TIP3    H245331   1.197   5.921   6.276
15152TIP3   OH245332   0.359   5.959   6.090
15152TIP3    H145333   0.441   5.914   6.069
15152TIP3    H245334   0.329   5.918   6.172
15153TIP3   OH245335   1.111   5.301   7.455
15153TIP3    H145336   1.188   5.351   7.484
15153TIP3    H245337   1.107   5.227   7.515
15154TIP3   OH245338   1.010   5.041   6.634
15154TIP3    H145339   0.988   5.063   6.543
15154TIP3    H245340   1.049   5.121   6.669
15155TIP3   OH245341   0.439   6.153   6.364
15155TIP3    H145342   0.364   6.206   6.336
15155TIP3    H245343   0.514   6.211   6.356
15156TIP3   OH245344   0.736   5.227   6.695
15156TIP3    H145345   0.775   5.311   6.671
15156TIP3    H245346   0.760   5.214   6.786
15157TIP3   OH245347   0.967   5.546   7.537
15157TIP3    H145348   0.983   5.603   7.613
15157TIP3    H245349   1.020   5.468   7.555
15158TIP3   OH245350   0.827   4.948   6.815
15158TIP3    H145351   0.824   5.029   6.866
15158TIP3    H245352   0.898   4.963   6.752
15159TIP3   OH245353   0.361   4.964   6.591
15159TIP3    H145354   0.330   5.054   6.582
15159TIP3    H245355   0.455   4.972   6.607
15160TIP3   OH245356   1.571   5.423   7.505
15160TIP3    H145357   1.476   5.434   7.510
15160TIP3    H245358   1.585   5.357   7.437
15161TIP3   OH245359   1.227   5.635   6.888
15161TIP3    H145360   1.153   5.576   6.903
15161TIP3    H245361   1.297   5.600   6.942
15162TIP3   OH245362   1.204   6.611   6.827
15162TIP3    H145363   1.164   6.665   6.759
15162TIP3    H245364   1.298   6.624   6.816
15163TIP3   OH245365   0.489   6.200   6.069
15163TIP3    H145366   0.429   6.134   6.104
15163TIP3    H245367   0.536   6.154   5.999
15164TIP3   OH245368   1.083   6.501   7.634
15164TIP3    H145369   1.099   6.428   7.693
15164TIP3    H245370   1.160   6.557   7.644
15165TIP3   OH245371   0.899   6.211   5.915
15165TIP3    H145372   0.934   6.147   5.977
15165TIP3    H245373   0.953   6.199   5.836
15166TIP3   OH245374   0.740   6.132   7.779
15166TIP3    H145375   0.671   6.118   7.714
15166TIP3    H245376   0.777   6.045   7.793
15167TIP3   OH245377   0.624   5.885   6.042
15167TIP3    H145378   0.648   5.877   6.134
15167TIP3    H245379   0.640   5.798   6.005
15168TIP3   OH245380   1.191   6.171   7.404
15168TIP3    H145381   1.271   6.195   7.359
15168TIP3    H245382   1.133   6.247   7.394
15169TIP3   OH245383   0.307   5.560   6.424
15169TIP3    H145384   0.242   5.490   6.433
15169TIP3    H245385   0.375   5.522   6.367
15170TIP3   OH245386   0.658   5.675   7.639
15170TIP3    H145387   0.581   5.625   7.614
15170TIP3    H245388   0.683   5.723   7.560
15171TIP3   OH245389   0.480   5.403   6.274
15171TIP3    H145390   0.467   5.470   6.208
15171TIP3    H245391   0.575   5.388   6.276
15172TIP3   OH245392   1.084   6.041   7.764
15172TIP3    H145393   1.154   6.011   7.705
15172TIP3    H245394   1.090   5.983   7.840
15173TIP3   OH245395   1.215   5.710   5.937
15173TIP3    H145396   1.203   5.667   5.852
15173TIP3    H245397   1.183   5.799   5.923
15174TIP3   OH245398   0.697   5.445   7.808
15174TIP3    H145399   0.699   5.373   7.745
15174TIP3    H245400   0.676   5.522   7.756
15175TIP3   OH245401   0.719   5.260   7.600
15175TIP3    H145402   0.778   5.299   7.535
15175TIP3    H245403   0.641   5.235   7.550
15176TIP3   OH245404   0.748   5.825   7.420
15176TIP3    H145405   0.824   5.790   7.372
15176TIP3    H245406   0.774   5.913   7.445
15177TIP3   OH245407   1.308   5.704   7.834
15177TIP3    H145408   1.332   5.614   7.857
15177TIP3    H245409   1.383   5.738   7.786
15178TIP3   OH245410   1.309   5.997   7.579
15178TIP3    H145411   1.259   6.059   7.525
15178TIP3    H245412   1.400   6.010   7.551
15179TIP3   OH245413   0.834   5.017   7.672
15179TIP3    H145414   0.786   5.099   7.658
15179TIP3    H245415   0.777   4.949   7.635
15180TIP3   OH245416   0.950   5.507   7.901
15180TIP3    H145417   0.956   5.494   7.996
15180TIP3    H245418   0.860   5.480   7.879
15181TIP3   OH245419   1.163   5.434   7.742
15181TIP3    H145420   1.089   5.446   7.801
15181TIP3    H245421   1.237   5.415   7.800
15182TIP3   OH245422   1.382   5.418   7.906
15182TIP3    H145423   1.418   5.329   7.902
15182TIP3    H245424   1.393   5.444   7.997
15183TIP3   OH245425   0.897   5.002   7.936
15183TIP3    H145426   0.964   4.933   7.934
15183TIP3    H245427   0.868   5.010   7.845
15184TIP3   OH245428   7.512   0.596   0.090
15184TIP3    H145429   7.489   0.523   0.031
15184TIP3    H245430   7.436   0.654   0.087
15185TIP3   OH245431   1.470   6.677   6.821
15185TIP3    H145432   1.493   6.701   6.911
15185TIP3    H245433   1.536   6.720   6.767
15186TIP3   OH245434   1.497   6.695   7.104
15186TIP3    H145435   1.447   6.614   7.097
15186TIP3    H245436   1.562   6.677   7.172
15187TIP3   OH245437   1.535   6.407   7.647
15187TIP3    H145438   1.473   6.410   7.720
15187TIP3    H245439   1.588   6.486   7.658
15188TIP3   OH245440   1.378   5.912   6.282
15188TIP3    H145441   1.437   5.982   6.253
15188TIP3    H245442   1.422   5.873   6.357
15189TIP3   OH245443   1.501   5.770   6.485
15189TIP3    H145444   1.437   5.728   6.543
15189TIP3    H245445   1.567   5.804   6.545
15190TIP3   OH245446   1.539   6.167   6.913
15190TIP3    H145447   1.594   6.096   6.881
15190TIP3    H245448   1.547   6.235   6.847
15191TIP3   OH245449   1.348   6.460   7.111
15191TIP3    H145450   1.279   6.501   7.164
15191TIP3    H245451   1.301   6.417   7.039
15192TIP3   OH245452   1.409   5.685   6.130
15192TIP3    H145453   1.341   5.688   6.062
15192TIP3    H245454   1.394   5.764   6.182
15193TIP3   OH245455   1.241   5.343   6.079
15193TIP3    H145456   1.214   5.375   5.992
15193TIP3    H245457   1.238   5.247   6.071
15194TIP3   OH245458   1.305   5.622   6.622
15194TIP3    H145459   1.312   5.528   6.606
15194TIP3    H245460   1.285   5.630   6.715
15195TIP3   OH245461   1.565   6.037   7.480
15195TIP3    H145462   1.628   5.965   7.474
15195TIP3    H245463   1.582   6.090   7.402
15196TIP3   OH245464   1.733   5.822   7.484
15196TIP3    H145465   1.669   5.784   7.543
15196TIP3    H245466   1.813   5.773   7.499
15197TIP3   OH245467   1.219   5.074   6.045
15197TIP3    H145468   1.292   5.041   6.098
15197TIP3    H245469   1.144   5.022   6.073
15198TIP3   OH245470   1.297   5.349   6.507
15198TIP3    H145471   1.341   5.266   6.521
15198TIP3    H245472   1.340   5.387   6.430
15199TIP3   OH245473   1.441   5.522   7.028
15199TIP3    H145474   1.522   5.539   6.980
15199TIP3    H245475   1.456   5.558   7.115
15200TIP3   OH245476   1.511   5.665   7.259
15200TIP3    H145477   1.439   5.696   7.313
15200TIP3    H245478   1.547   5.744   7.218
15201TIP3   OH245479   1.966   5.229   7.799
15201TIP3    H145480   2.033   5.187   7.745
15201TIP3    H245481   1.939   5.306   7.750
15202TIP3   OH245482   1.403   5.099   6.559
15202TIP3    H145483   1.448   5.084   6.642
15202TIP3    H245484   1.344   5.024   6.551
15203TIP3   OH245485   1.821   5.414   7.643
15203TIP3    H145486   1.793   5.454   7.726
15203TIP3    H245487   1.740   5.399   7.595
15204TIP3   OH245488   1.448   5.012   6.190
15204TIP3    H145489   1.498   4.950   6.136
15204TIP3    H245490   1.505   5.089   6.197
15205TIP3   OH245491   1.027   6.586   6.460
15205TIP3    H145492   1.088   6.568   6.389
15205TIP3    H245493   1.073   6.650   6.515
15206TIP3   OH245494   0.777   6.606   7.515
15206TIP3    H145495   0.790   6.619   7.609
15206TIP3    H245496   0.834   6.670   7.474
15207TIP3   OH245497   0.960   6.786   7.403
15207TIP3    H145498   1.031   6.734   7.367
15207TIP3    H245499   1.004   6.851   7.459
15208TIP3   OH245500   1.724   5.124   7.490
15208TIP3    H145501   1.641   5.116   7.443
15208TIP3    H245502   1.764   5.037   7.483
15209TIP3   OH245503   0.668   6.726   7.037
15209TIP3    H145504   0.577   6.701   7.051
15209TIP3    H245505   0.687   6.788   7.107
15210TIP3   OH245506   0.905   6.599   7.105
15210TIP3    H145507   0.819   6.637   7.085
15210TIP3    H245508   0.968   6.665   7.076
15211TIP3   OH245509   1.115   6.767   7.036
15211TIP3    H145510   1.113   6.855   6.999
15211TIP3    H245511   1.147   6.712   6.964
15212TIP3   OH245512   0.990   5.064   7.132
15212TIP3    H145513   0.945   4.997   7.183
15212TIP3    H245514   1.049   5.015   7.075
15213TIP3   OH245515   1.452   4.969   7.019
15213TIP3    H145516   1.488   5.017   6.945
15213TIP3    H245517   1.358   4.985   7.015
15214TIP3   OH245518   1.559   5.050   6.782
15214TIP3    H145519   1.628   4.989   6.755
15214TIP3    H245520   1.598   5.137   6.768
15215TIP3   OH245521   0.794   4.752   7.002
15215TIP3    H145522   0.795   4.832   6.948
15215TIP3    H245523   0.827   4.781   7.087
15216TIP3   OH245524   1.173   4.923   6.985
15216TIP3    H145525   1.199   4.884   6.902
15216TIP3    H245526   1.172   4.850   7.047
15217TIP3   OH245527   1.223   4.884   6.561
15217TIP3    H145528   1.144   4.933   6.585
15217TIP3    H245529   1.210   4.797   6.601
15218TIP3   OH245530   0.055   4.739   6.476
15218TIP3    H145531   0.141   4.706   6.503
15218TIP3    H245532   0.010   4.759   6.558
15219TIP3   OH245533   0.628   4.993   6.621
15219TIP3    H145534   0.685   4.929   6.664
15219TIP3    H245535   0.670   5.077   6.638
15220TIP3   OH245536   0.521   6.417   6.231
15220TIP3    H145537   0.573   6.466   6.167
15220TIP3    H245538   0.486   6.342   6.181
15221TIP3   OH245539   1.182   6.523   6.242
15221TIP3    H145540   1.172   6.428   6.234
15221TIP3    H245541   1.148   6.557   6.159
15222TIP3   OH245542   7.225   0.414   0.114
15222TIP3    H145543   7.296   0.412   0.050
15222TIP3    H245544   7.231   0.330   0.159
15223TIP3   OH245545   1.478   5.153   7.916
15223TIP3    H145546   1.498   5.125   8.006
15223TIP3    H245547   1.562   5.146   7.870
15224TIP3   OH245548   1.399   6.672   7.421
15224TIP3    H145549   1.323   6.643   7.372
15224TIP3    H245550   1.388   6.767   7.429
15225TIP3   OH245551   2.675   6.056   6.162
15225TIP3    H145552   2.639   6.142   6.140
15225TIP3    H245553   2.607   5.994   6.139
15226TIP3   OH245554   2.669   6.052   6.586
15226TIP3    H145555   2.726   6.031   6.660
15226TIP3    H245556   2.625   5.970   6.565
15227TIP3   OH245557   1.969   5.902   6.939
15227TIP3    H145558   2.009   5.854   7.011
15227TIP3    H245559   2.043   5.931   6.885
15228TIP3   OH245560   2.942   6.359   6.260
15228TIP3    H145561   2.929   6.289   6.325
15228TIP3    H245562   2.962   6.437   6.312
15229TIP3   OH245563   1.957   6.335   6.626
15229TIP3    H145564   1.941   6.241   6.627
15229TIP3    H245565   2.051   6.344   6.617
15230TIP3   OH245566   1.648   5.541   6.403
15230TIP3    H145567   1.609   5.626   6.426
15230TIP3    H245568   1.576   5.493   6.362
15231TIP3   OH245569   1.728   5.852   6.629
15231TIP3    H145570   1.777   5.774   6.654
15231TIP3    H245571   1.795   5.916   6.604
15232TIP3   OH245572   2.606   6.777   6.279
15232TIP3    H145573   2.626   6.715   6.208
15232TIP3    H245574   2.619   6.727   6.359
15233TIP3   OH245575   2.477   6.273   6.591
15233TIP3    H145576   2.521   6.193   6.563
15233TIP3    H245577   2.548   6.331   6.619
15234TIP3   OH245578   3.492   5.579   6.617
15234TIP3    H145579   3.523   5.661   6.657
15234TIP3    H245580   3.517   5.588   6.524
15235TIP3   OH245581   2.896   5.749   6.629
15235TIP3    H145582   2.938   5.668   6.657
15235TIP3    H245583   2.858   5.728   6.544
15236TIP3   OH245584   2.242   5.416   6.590
15236TIP3    H145585   2.221   5.488   6.530
15236TIP3    H245586   2.188   5.343   6.558
15237TIP3   OH245587   2.939   5.523   6.225
15237TIP3    H145588   3.005   5.517   6.294
15237TIP3    H245589   2.987   5.551   6.148
15238TIP3   OH245590   1.866   5.629   6.715
15238TIP3    H145591   1.949   5.610   6.760
15238TIP3    H245592   1.870   5.578   6.635
15239TIP3   OH245593   2.284   5.831   6.535
15239TIP3    H145594   2.379   5.817   6.539
15239TIP3    H245595   2.249   5.749   6.501
15240TIP3   OH245596   3.579   5.797   6.770
15240TIP3    H145597   3.494   5.841   6.767
15240TIP3    H245598   3.624   5.836   6.845
15241TIP3   OH245599   2.225   5.415   7.039
15241TIP3    H145600   2.172   5.450   6.967
15241TIP3    H245601   2.171   5.429   7.117
15242TIP3   OH245602   2.538   6.264   6.045
15242TIP3    H145603   2.514   6.245   5.955
15242TIP3    H245604   2.496   6.348   6.064
15243TIP3   OH245605   2.316   6.194   6.802
15243TIP3    H145606   2.264   6.266   6.838
15243TIP3    H245607   2.365   6.234   6.730
15244TIP3   OH245608   3.119   5.542   6.429
15244TIP3    H145609   3.156   5.469   6.479
15244TIP3    H245610   3.166   5.619   6.460
15245TIP3   OH245611   2.110   5.524   6.810
15245TIP3    H145612   2.165   5.599   6.833
15245TIP3    H245613   2.157   5.481   6.738
15246TIP3   OH245614   2.162   6.397   6.910
15246TIP3    H145615   2.144   6.487   6.881
15246TIP3    H245616   2.085   6.374   6.962
15247TIP3   OH245617   1.545   6.103   6.165
15247TIP3    H145618   1.513   6.119   6.076
15247TIP3    H245619   1.569   6.189   6.198
15248TIP3   OH245620   2.975   6.605   6.407
15248TIP3    H145621   2.886   6.598   6.442
15248TIP3    H245622   2.977   6.687   6.359
15249TIP3   OH245623   3.258   5.508   6.797
15249TIP3    H145624   3.171   5.508   6.756
15249TIP3    H245625   3.319   5.523   6.726
15250TIP3   OH245626   2.564   5.104   6.773
15250TIP3    H145627   2.554   5.012   6.799
15250TIP3    H245628   2.488   5.148   6.811
15251TIP3   OH245629   2.681   6.632   6.052
15251TIP3    H145630   2.733   6.552   6.043
15251TIP3    H245631   2.741   6.702   6.026
15252TIP3   OH245632   2.840   6.416   6.008
15252TIP3    H145633   2.842   6.337   5.954
15252TIP3    H245634   2.877   6.388   6.092
15253TIP3   OH245635   3.219   6.483   6.748
15253TIP3    H145636   3.197   6.411   6.690
15253TIP3    H245637   3.206   6.562   6.695
15254TIP3   OH245638   2.500   5.893   6.018
15254TIP3    H145639   2.419   5.939   5.996
15254TIP3    H245640   2.549   5.889   5.936
15255TIP3   OH245641   2.467   5.710   5.702
15255TIP3    H145642   2.533   5.755   5.755
15255TIP3    H245643   2.516   5.642   5.656
15256TIP3   OH245644   3.391   6.151   6.626
15256TIP3    H145645   3.305   6.193   6.618
15256TIP3    H245646   3.430   6.161   6.540
15257TIP3   OH245647   2.861   5.991   5.973
15257TIP3    H145648   2.806   6.016   6.048
15257TIP3    H245649   2.942   5.958   6.013
15258TIP3   OH245650   3.095   6.021   6.894
15258TIP3    H145651   3.083   6.092   6.957
15258TIP3    H245652   3.009   6.009   6.855
15259TIP3   OH245653   2.087   5.964   6.382
15259TIP3    H145654   2.052   5.902   6.318
15259TIP3    H245655   2.160   5.917   6.423
15260TIP3   OH245656   2.220   6.387   6.525
15260TIP3    H145657   2.196   6.372   6.434
15260TIP3    H245658   2.307   6.349   6.534
15261TIP3   OH245659   2.180   5.959   6.759
15261TIP3    H145660   2.220   5.922   6.680
15261TIP3    H245661   2.230   6.039   6.775
15262TIP3   OH245662   2.730   6.605   6.529
15262TIP3    H145663   2.724   6.681   6.587
15262TIP3    H245664   2.720   6.530   6.588
15263TIP3   OH245665   2.359   6.497   7.078
15263TIP3    H145666   2.297   6.553   7.125
15263TIP3    H245667   2.304   6.444   7.020
15264TIP3   OH245668   2.689   5.848   5.813
15264TIP3    H145669   2.750   5.904   5.860
15264TIP3    H245670   2.715   5.855   5.721
15265TIP3   OH245671   2.118   6.060   7.190
15265TIP3    H145672   2.122   6.147   7.230
15265TIP3    H245673   2.026   6.034   7.197
15266TIP3   OH245674   2.428   6.522   6.065
15266TIP3    H145675   2.516   6.561   6.069
15266TIP3    H245676   2.376   6.584   6.013
15267TIP3   OH245677   2.148   6.656   7.161
15267TIP3    H145678   2.122   6.663   7.069
15267TIP3    H245679   2.066   6.638   7.208
15268TIP3   OH245680   3.218   5.067   5.866
15268TIP3    H145681   3.129   5.078   5.898
15268TIP3    H245682   3.231   5.140   5.805
15269TIP3   OH245683   1.965   5.803   6.182
15269TIP3    H145684   1.885   5.846   6.151
15269TIP3    H245685   1.940   5.712   6.195
15270TIP3   OH245686   3.026   6.447   5.423
15270TIP3    H145687   3.022   6.540   5.400
15270TIP3    H245688   3.116   6.421   5.401
15271TIP3   OH245689   1.742   6.206   7.113
15271TIP3    H145690   1.674   6.181   7.050
15271TIP3    H245691   1.776   6.122   7.144
15272TIP3   OH245692   1.614   6.384   6.746
15272TIP3    H145693   1.709   6.376   6.733
15272TIP3    H245694   1.604   6.458   6.805
15273TIP3   OH245695   3.446   6.868   6.812
15273TIP3    H145696   3.453   6.773   6.819
15273TIP3    H245697   3.366   6.891   6.860
15274TIP3   OH245698   2.548   6.640   6.939
15274TIP3    H145699   2.540   6.731   6.969
15274TIP3    H245700   2.481   6.593   6.989
15275TIP3   OH245701   2.327   6.737   5.892
15275TIP3    H145702   2.282   6.716   5.810
15275TIP3    H245703   2.289   6.821   5.919
15276TIP3   OH245704   1.765   6.595   6.276
15276TIP3    H145705   1.810   6.586   6.359
15276TIP3    H245706   1.716   6.513   6.265
15277TIP3   OH245707   2.529   6.668   5.519
15277TIP3    H145708   2.579   6.594   5.484
15277TIP3    H245709   2.564   6.682   5.607
15278TIP3   OH245710   2.581   6.713   5.788
15278TIP3    H145711   2.495   6.716   5.830
15278TIP3    H245712   2.638   6.672   5.854
15279TIP3   OH245713   1.942   6.392   7.079
15279TIP3    H145714   1.995   6.381   7.158
15279TIP3    H245715   1.872   6.327   7.088
15280TIP3   OH245716   2.327   5.199   6.895
15280TIP3    H145717   2.243   5.167   6.862
15280TIP3    H245718   2.305   5.280   6.941
15281TIP3   OH245719   2.855   5.311   7.089
15281TIP3    H145720   2.925   5.289   7.151
15281TIP3    H245721   2.774   5.297   7.139
15282TIP3   OH245722   2.766   5.859   5.553
15282TIP3    H145723   2.723   5.843   5.469
15282TIP3    H245724   2.852   5.895   5.529
15283TIP3   OH245725   2.504   5.220   5.855
15283TIP3    H145726   2.455   5.213   5.937
15283TIP3    H245727   2.548   5.136   5.847
15284TIP3   OH245728   2.262   5.735   6.903
15284TIP3    H145729   2.219   5.741   6.989
15284TIP3    H245730   2.240   5.817   6.859
15285TIP3   OH245731   2.145   5.616   6.427
15285TIP3    H145732   2.057   5.590   6.451
15285TIP3    H245733   2.156   5.584   6.337
15286TIP3   OH245734   2.621   5.688   6.158
15286TIP3    H145735   2.574   5.759   6.115
15286TIP3    H245736   2.681   5.654   6.091
15287TIP3   OH245737   2.796   5.958   7.228
15287TIP3    H145738   2.774   5.883   7.284
15287TIP3    H245739   2.855   6.011   7.282
15288TIP3   OH245740   2.791   5.702   6.379
15288TIP3    H145741   2.722   5.722   6.315
15288TIP3    H245742   2.841   5.631   6.339
15289TIP3   OH245743   2.106   5.746   7.130
15289TIP3    H145744   2.136   5.803   7.201
15289TIP3    H245745   2.088   5.662   7.173
15290TIP3   OH245746   2.157   5.219   5.841
15290TIP3    H145747   2.147   5.221   5.936
15290TIP3    H245748   2.078   5.263   5.808
15291TIP3   OH245749   1.690   5.273   6.705
15291TIP3    H145750   1.763   5.307   6.757
15291TIP3    H245751   1.729   5.251   6.621
15292TIP3   OH245752   1.596   5.247   6.213
15292TIP3    H145753   1.644   5.281   6.138
15292TIP3    H245754   1.532   5.315   6.235
15293TIP3   OH245755   2.835   5.959   6.790
15293TIP3    H145756   2.864   5.890   6.730
15293TIP3    H245757   2.793   5.911   6.862
15294TIP3   OH245758   2.512   5.404   6.483
15294TIP3    H145759   2.435   5.405   6.540
15294TIP3    H245760   2.587   5.402   6.543
15295TIP3   OH245761   1.907   5.488   6.484
15295TIP3    H145762   1.820   5.492   6.446
15295TIP3    H245763   1.936   5.398   6.469
15296TIP3   OH245764   2.158   5.495   6.180
15296TIP3    H145765   2.253   5.500   6.172
15296TIP3    H245766   2.125   5.512   6.092
15297TIP3   OH245767   2.978   5.505   6.737
15297TIP3    H145768   2.942   5.526   6.824
15297TIP3    H245769   2.914   5.445   6.699
15298TIP3   OH245770   2.049   5.522   5.929
15298TIP3    H145771   1.989   5.465   5.880
15298TIP3    H245772   2.102   5.565   5.863
15299TIP3   OH245773   3.155   7.199   6.907
15299TIP3    H145774   3.152   7.212   6.812
15299TIP3    H245775   3.234   7.244   6.935
15300TIP3   OH245776   2.099   6.315   7.313
15300TIP3    H145777   2.180   6.329   7.362
15300TIP3    H245778   2.030   6.313   7.380
15301TIP3   OH245779   2.559   5.781   6.579
15301TIP3    H145780   2.626   5.734   6.529
15301TIP3    H245781   2.557   5.737   6.664
15302TIP3   OH245782   2.051   5.240   6.472
15302TIP3    H145783   2.022   5.164   6.523
15302TIP3    H245784   2.075   5.204   6.387
15303TIP3   OH245785   2.528   5.679   6.844
15303TIP3    H145786   2.440   5.708   6.866
15303TIP3    H245787   2.585   5.736   6.896
15304TIP3   OH245788   2.262   6.031   5.955
15304TIP3    H145789   2.189   5.974   5.933
15304TIP3    H245790   2.237   6.071   6.038
15305TIP3   OH245791   3.156   6.286   6.567
15305TIP3    H145792   3.193   6.333   6.492
15305TIP3    H245793   3.077   6.244   6.532
15306TIP3   OH245794   2.697   5.401   5.787
15306TIP3    H145795   2.623   5.351   5.822
15306TIP3    H245796   2.719   5.463   5.857
15307TIP3   OH245797   2.676   6.375   6.970
15307TIP3    H145798   2.725   6.360   7.051
15307TIP3    H245799   2.635   6.460   6.983
15308TIP3   OH245800   2.790   5.618   5.946
15308TIP3    H145801   2.886   5.617   5.951
15308TIP3    H245802   2.769   5.692   5.889
15309TIP3   OH245803   1.954   6.049   6.610
15309TIP3    H145804   1.992   6.029   6.524
15309TIP3    H245805   2.018   6.018   6.673
15310TIP3   OH245806   2.418   6.191   5.798
15310TIP3    H145807   2.369   6.273   5.797
15310TIP3    H245808   2.364   6.132   5.851
15311TIP3   OH245809   1.851   6.000   7.268
15311TIP3    H145810   1.887   6.005   7.357
15311TIP3    H245811   1.790   5.926   7.271
15312TIP3   OH245812   2.562   6.112   7.266
15312TIP3    H145813   2.489   6.054   7.244
15312TIP3    H245814   2.639   6.068   7.230
15313TIP3   OH245815   2.820   6.664   6.863
15313TIP3    H145816   2.726   6.648   6.866
15313TIP3    H245817   2.841   6.697   6.950
15314TIP3   OH245818   3.202   5.693   5.747
15314TIP3    H145819   3.145   5.646   5.687
15314TIP3    H245820   3.204   5.782   5.713
15315TIP3   OH245821   3.463   6.593   6.831
15315TIP3    H145822   3.372   6.564   6.839
15315TIP3    H245823   3.493   6.556   6.748
15316TIP3   OH245824   2.944   6.516   5.684
15316TIP3    H145825   2.919   6.443   5.740
15316TIP3    H245826   2.966   6.475   5.600
15317TIP3   OH245827   2.927   6.152   6.459
15317TIP3    H145828   2.837   6.130   6.481
15317TIP3    H245829   2.963   6.071   6.423
15318TIP3   OH245830   2.084   6.390   6.279
15318TIP3    H145831   2.084   6.466   6.221
15318TIP3    H245832   1.991   6.371   6.294
15319TIP3   OH245833   1.642   5.671   5.983
15319TIP3    H145834   1.687   5.752   6.006
15319TIP3    H245835   1.563   5.670   6.037
15320TIP3   OH245836   2.162   6.143   6.180
15320TIP3    H145837   2.153   6.232   6.213
15320TIP3    H245838   2.139   6.087   6.254
15321TIP3   OH245839   2.363   6.713   6.735
15321TIP3    H145840   2.401   6.785   6.684
15321TIP3    H245841   2.436   6.677   6.785
15322TIP3   OH245842   1.997   6.613   6.127
15322TIP3    H145843   1.911   6.619   6.169
15322TIP3    H245844   2.031   6.702   6.132
15323TIP3   OH245845   2.714   6.379   6.697
15323TIP3    H145846   2.703   6.375   6.792
15323TIP3    H245847   2.783   6.315   6.678
15324TIP3   OH245848   2.713   6.254   5.585
15324TIP3    H145849   2.759   6.237   5.667
15324TIP3    H245850   2.630   6.207   5.594
15325TIP3   OH245851   2.977   6.868   6.746
15325TIP3    H145852   2.908   6.805   6.769
15325TIP3    H245853   2.940   6.921   6.676
15326TIP3   OH245854   3.023   6.720   5.381
15326TIP3    H145855   3.045   6.782   5.312
15326TIP3    H245856   2.951   6.761   5.429
15327TIP3   OH245857   2.058   5.493   7.247
15327TIP3    H145858   1.963   5.499   7.256
15327TIP3    H245859   2.088   5.453   7.329
15328TIP3   OH245860   2.886   6.208   5.804
15328TIP3    H145861   2.867   6.133   5.859
15328TIP3    H245862   2.979   6.201   5.784
15329TIP3   OH245863   1.788   6.581   6.902
15329TIP3    H145864   1.842   6.510   6.938
15329TIP3    H245865   1.791   6.649   6.969
15330TIP3   OH245866   2.057   6.217   5.591
15330TIP3    H145867   2.069   6.126   5.564
15330TIP3    H245868   2.045   6.213   5.686
15331TIP3   OH245869   2.004   6.235   5.864
15331TIP3    H145870   2.072   6.206   5.926
15331TIP3    H245871   2.005   6.330   5.869
15332TIP3   OH245872   1.737   5.920   6.071
15332TIP3    H145873   1.674   5.969   6.124
15332TIP3    H245874   1.759   5.979   5.998
15333TIP3   OH245875   2.893   5.568   7.010
15333TIP3    H145876   2.923   5.592   7.098
15333TIP3    H245877   2.867   5.477   7.017
15334TIP3   OH245878   2.758   5.325   6.142
15334TIP3    H145879   2.802   5.293   6.063
15334TIP3    H245880   2.813   5.398   6.172
15335TIP3   OH245881   2.271   6.418   5.796
15335TIP3    H145882   2.188   6.444   5.836
15335TIP3    H245883   2.296   6.492   5.741
15336TIP3   OH245884   2.435   5.494   6.226
15336TIP3    H145885   2.499   5.560   6.198
15336TIP3    H245886   2.461   5.471   6.315
15337TIP3   OH245887   2.732   5.804   6.992
15337TIP3    H145888   2.751   5.851   7.074
15337TIP3    H245889   2.783   5.723   6.999
15338TIP3   OH245890   2.593   5.197   6.316
15338TIP3    H145891   2.567   5.272   6.371
15338TIP3    H245892   2.657   5.233   6.254
15339TIP3   OH245893   2.023   6.509   5.875
15339TIP3    H145894   2.003   6.581   5.816
15339TIP3    H245895   2.013   6.546   5.963
15340TIP3   OH245896   2.118   5.221   6.121
15340TIP3    H145897   2.106   5.312   6.148
15340TIP3    H245898   2.212   5.206   6.123
15341TIP3   OH245899   3.250   5.665   7.032
15341TIP3    H145900   3.244   5.600   6.963
15341TIP3    H245901   3.302   5.736   6.995
15342TIP3   OH245902   3.018   5.892   6.375
15342TIP3    H145903   2.941   5.836   6.386
15342TIP3    H245904   3.085   5.853   6.431
15343TIP3   OH245905   1.761   6.102   5.856
15343TIP3    H145906   1.834   6.163   5.866
15343TIP3    H245907   1.791   6.038   5.792
15344TIP3   OH245908   1.670   5.394   5.996
15344TIP3    H145909   1.677   5.489   5.995
15344TIP3    H245910   1.651   5.370   5.906
15345TIP3   OH245911   3.000   6.870   6.320
15345TIP3    H145912   2.958   6.922   6.251
15345TIP3    H245913   3.094   6.881   6.305
15346TIP3   OH245914   2.063   5.116   6.855
15346TIP3    H145915   2.035   5.083   6.770
15346TIP3    H245916   2.056   5.041   6.914
15347TIP3   OH245917   1.590   6.374   6.247
15347TIP3    H145918   1.545   6.408   6.325
15347TIP3    H245919   1.545   6.416   6.173
15348TIP3   OH245920   1.791   6.897   7.321
15348TIP3    H145921   1.874   6.900   7.369
15348TIP3    H245922   1.768   6.804   7.320
15349TIP3   OH245923   2.262   6.819   7.350
15349TIP3    H145924   2.351   6.785   7.363
15349TIP3    H245925   2.225   6.765   7.280
15350TIP3   OH245926   2.213   6.417   5.480
15350TIP3    H145927   2.167   6.347   5.525
15350TIP3    H245928   2.289   6.373   5.440
15351TIP3   OH245929   2.873   6.757   7.116
15351TIP3    H145930   2.886   6.685   7.178
15351TIP3    H245931   2.948   6.814   7.130
15352TIP3   OH245932   2.657   6.455   5.404
15352TIP3    H145933   2.690   6.392   5.468
15352TIP3    H245934   2.717   6.447   5.330
15353TIP3   OH245935   1.895   6.304   7.503
15353TIP3    H145936   1.912   6.212   7.520
15353TIP3    H245937   1.808   6.306   7.463
15354TIP3   OH245938   1.881   5.913   5.700
15354TIP3    H145939   1.931   5.885   5.777
15354TIP3    H245940   1.947   5.924   5.632
15355TIP3   OH245941   2.512   6.390   7.281
15355TIP3    H145942   2.466   6.411   7.200
15355TIP3    H245943   2.541   6.300   7.270
15356TIP3   OH245944   2.451   6.133   5.533
15356TIP3    H145945   2.430   6.142   5.626
15356TIP3    H245946   2.437   6.040   5.514
15357TIP3   OH245947   2.991   6.439   6.904
15357TIP3    H145948   3.069   6.463   6.854
15357TIP3    H245949   2.927   6.507   6.882
15358TIP3   OH245950   1.996   6.034   7.515
15358TIP3    H145951   2.022   5.942   7.520
15358TIP3    H245952   2.032   6.073   7.595
15359TIP3   OH245953   2.054   5.852   5.912
15359TIP3    H145954   2.037   5.820   6.000
15359TIP3    H245955   2.102   5.781   5.869
15360TIP3   OH245956   2.363   5.935   7.164
15360TIP3    H145957   2.279   5.981   7.170
15360TIP3    H245958   2.399   5.960   7.079
15361TIP3   OH245959   2.194   5.672   5.749
15361TIP3    H145960   2.167   5.672   5.657
15361TIP3    H245961   2.289   5.680   5.746
15362TIP3   OH245962   2.884   6.302   7.259
15362TIP3    H145963   2.954   6.277   7.200
15362TIP3    H245964   2.889   6.238   7.331
15363TIP3   OH245965   2.993   5.965   5.434
15363TIP3    H145966   2.981   5.920   5.351
15363TIP3    H245967   2.966   6.055   5.417
15364TIP3   OH245968   2.471   5.709   7.278
15364TIP3    H145969   2.472   5.637   7.215
15364TIP3    H245970   2.433   5.782   7.230
15365TIP3   OH245971   2.480   5.508   7.076
15365TIP3    H145972   2.506   5.544   6.992
15365TIP3    H245973   2.391   5.477   7.063
15366TIP3   OH245974   2.484   6.024   6.939
15366TIP3    H145975   2.574   6.049   6.917
15366TIP3    H245976   2.429   6.088   6.892
15367TIP3   OH245977   3.102   6.258   7.073
15367TIP3    H145978   3.051   6.319   7.020
15367TIP3    H245979   3.192   6.267   7.042
15368TIP3   OH245980   2.366   5.791   7.528
15368TIP3    H145981   2.293   5.733   7.550
15368TIP3    H245982   2.394   5.763   7.441
15369TIP3   OH245983   2.598   5.273   7.181
15369TIP3    H145984   2.557   5.354   7.152
15369TIP3    H245985   2.530   5.206   7.169
15370TIP3   OH245986   2.735   5.730   7.361
15370TIP3    H145987   2.737   5.712   7.455
15370TIP3    H245988   2.644   5.715   7.335
15371TIP3   OH245989   2.982   5.645   7.272
15371TIP3    H145990   2.895   5.685   7.282
15371TIP3    H245991   2.999   5.606   7.358
15372TIP3   OH245992   3.263   5.623   7.360
15372TIP3    H145993   3.288   5.530   7.367
15372TIP3    H245994   3.213   5.640   7.440
15373TIP3   OH245995   2.194   5.573   7.576
15373TIP3    H145996   2.198   5.483   7.544
15373TIP3    H245997   2.222   5.567   7.667
15374TIP3   OH245998   2.649   5.213   7.447
15374TIP3    H145999   2.731   5.165   7.439
15374TIP3    H246000   2.629   5.242   7.358
15375TIP3   OH246001   2.022   6.721   5.695
15375TIP3    H146002   2.110   6.697   5.666
15375TIP3    H246003   1.984   6.765   5.619
15376TIP3   OH246004   1.488   6.099   5.880
15376TIP3    H146005   1.583   6.112   5.873
15376TIP3    H246006   1.472   6.013   5.841
15377TIP3   OH246007   1.391   6.679   6.332
15377TIP3    H146008   1.327   6.623   6.288
15377TIP3    H246009   1.437   6.620   6.393
15378TIP3   OH246010   1.533   6.517   6.504
15378TIP3    H146011   1.527   6.446   6.568
15378TIP3    H246012   1.584   6.585   6.549
15379TIP3   OH246013   3.270   6.922   6.307
15379TIP3    H146014   3.294   6.950   6.395
15379TIP3    H246015   3.332   6.967   6.249
15380TIP3   OH246016   3.290   6.950   6.589
15380TIP3    H146017   3.243   6.866   6.582
15380TIP3    H246018   3.359   6.934   6.653
15381TIP3   OH246019   3.341   6.655   7.161
15381TIP3    H146020   3.269   6.661   7.224
15381TIP3    H246021   3.388   6.738   7.170
15382TIP3   OH246022   3.160   6.170   5.771
15382TIP3    H146023   3.221   6.237   5.740
15382TIP3    H246024   3.206   6.129   5.845
15383TIP3   OH246025   3.286   6.023   5.971
15383TIP3    H146026   3.219   5.981   6.024
15383TIP3    H246027   3.351   6.054   6.035
15384TIP3   OH246028   3.340   6.420   6.404
15384TIP3    H146029   3.391   6.348   6.366
15384TIP3    H246030   3.344   6.489   6.338
15385TIP3   OH246031   3.151   6.707   6.599
15385TIP3    H146032   3.084   6.754   6.650
15385TIP3    H246033   3.102   6.667   6.527
15386TIP3   OH246034   3.194   5.939   5.620
15386TIP3    H146035   3.125   5.941   5.553
15386TIP3    H246036   3.178   6.017   5.673
15387TIP3   OH246037   3.044   5.568   5.559
15387TIP3    H146038   3.003   5.592   5.476
15387TIP3    H246039   3.040   5.472   5.561
15388TIP3   OH246040   3.084   5.880   6.104
15388TIP3    H146041   3.089   5.786   6.088
15388TIP3    H246042   3.066   5.888   6.197
15389TIP3   OH246043   1.708   5.953   6.884
15389TIP3    H146044   1.698   5.915   6.796
15389TIP3    H246045   1.801   5.943   6.905
15390TIP3   OH246046   3.357   6.298   6.972
15390TIP3    H146047   3.418   6.225   6.961
15390TIP3    H246048   3.351   6.338   6.885
15391TIP3   OH246049   3.517   6.077   6.957
15391TIP3    H146050   3.457   6.014   6.918
15391TIP3    H246051   3.593   6.025   6.984
15392TIP3   OH246052   3.021   5.292   5.537
15392TIP3    H146053   3.088   5.266   5.600
15392TIP3    H246054   2.942   5.246   5.566
15393TIP3   OH246055   3.081   5.604   5.991
15393TIP3    H146056   3.122   5.518   6.004
15393TIP3    H246057   3.123   5.639   5.913
15394TIP3   OH246058   3.235   5.780   6.523
15394TIP3    H146059   3.317   5.802   6.478
15394TIP3    H246060   3.249   5.809   6.613
15395TIP3   OH246061   3.335   5.935   6.789
15395TIP3    H146062   3.249   5.956   6.824
15395TIP3    H246063   3.353   6.005   6.726
15396TIP3   OH246064   1.928   5.627   7.506
15396TIP3    H146065   2.018   5.642   7.536
15396TIP3    H246066   1.896   5.555   7.559
15397TIP3   OH246067   3.776   5.532   7.267
15397TIP3    H146068   3.843   5.469   7.240
15397TIP3    H246069   3.749   5.574   7.185
15398TIP3   OH246070   3.179   5.345   6.042
15398TIP3    H146071   3.220   5.314   6.123
15398TIP3    H246072   3.116   5.276   6.020
15399TIP3   OH246073   1.900   5.341   6.878
15399TIP3    H146074   1.953   5.261   6.881
15399TIP3    H246075   1.963   5.410   6.859
15400TIP3   OH246076   1.683   5.606   6.930
15400TIP3    H146077   1.734   5.600   6.849
15400TIP3    H246078   1.731   5.670   6.983
15401TIP3   OH246079   3.610   5.642   7.071
15401TIP3    H146080   3.553   5.673   7.142
15401TIP3    H246081   3.567   5.564   7.038
15402TIP3   OH246082   3.261   5.265   5.681
15402TIP3    H146083   3.308   5.208   5.620
15402TIP3    H246084   3.312   5.346   5.682
15403TIP3   OH246085   1.674   5.122   6.443
15403TIP3    H146086   1.587   5.105   6.481
15403TIP3    H246087   1.656   5.172   6.364
15404TIP3   OH246088   2.825   6.838   5.952
15404TIP3    H146089   2.879   6.822   5.875
15404TIP3    H246090   2.873   6.903   6.003
15405TIP3   OH246091   1.892   5.165   7.265
15405TIP3    H146092   1.848   5.168   7.350
15405TIP3    H246093   1.836   5.215   7.207
15406TIP3   OH246094   1.925   6.621   7.326
15406TIP3    H146095   1.831   6.601   7.320
15406TIP3    H246096   1.950   6.594   7.414
15407TIP3   OH246097   2.132   6.673   6.880
15407TIP3    H146098   2.082   6.748   6.846
15407TIP3    H246099   2.217   6.681   6.838
15408TIP3   OH246100   2.536   6.906   7.021
15408TIP3    H146101   2.575   6.896   7.107
15408TIP3    H246102   2.599   6.959   6.972
15409TIP3   OH246103   2.723   7.062   6.890
15409TIP3    H146104   2.781   7.005   6.839
15409TIP3    H246105   2.782   7.115   6.943
15410TIP3   OH246106   3.528   5.374   6.990
15410TIP3    H146107   3.440   5.347   6.962
15410TIP3    H246108   3.581   5.294   6.980
15411TIP3   OH246109   1.804   7.015   6.886
15411TIP3    H146110   1.711   6.994   6.886
15411TIP3    H246111   1.823   7.044   6.976
15412TIP3   OH246112   2.030   6.906   6.772
15412TIP3    H146113   1.949   6.937   6.814
15412TIP3    H246114   2.014   6.918   6.678
15413TIP3   OH246115   2.443   6.923   6.572
15413TIP3    H146116   2.375   6.931   6.505
15413TIP3    H246117   2.451   7.011   6.609
15414TIP3   OH246118   2.707   6.866   6.628
15414TIP3    H146119   2.616   6.881   6.603
15414TIP3    H246120   2.757   6.929   6.576
15415TIP3   OH246121   2.908   7.032   6.522
15415TIP3    H146122   2.907   7.119   6.481
15415TIP3    H246123   2.939   6.973   6.453
15416TIP3   OH246124   1.711   6.692   6.655
15416TIP3    H146125   1.735   6.661   6.742
15416TIP3    H246126   1.781   6.660   6.598
15417TIP3   OH246127   1.911   6.580   6.509
15417TIP3    H146128   1.922   6.494   6.550
15417TIP3    H246129   1.998   6.618   6.511
15418TIP3   OH246130   2.180   6.664   6.529
15418TIP3    H146131   2.198   6.571   6.514
15418TIP3    H246132   2.234   6.687   6.605
15419TIP3   OH246133   2.761   5.319   6.619
15419TIP3    H146134   2.721   5.242   6.659
15419TIP3    H246135   2.824   5.284   6.556
15420TIP3   OH246136   3.219   5.281   6.522
15420TIP3    H146137   3.265   5.283   6.438
15420TIP3    H246138   3.131   5.249   6.501
15421TIP3   OH246139   3.347   5.275   6.271
15421TIP3    H146140   3.420   5.221   6.239
15421TIP3    H246141   3.377   5.365   6.260
15422TIP3   OH246142   1.977   5.011   6.614
15422TIP3    H146143   1.888   4.976   6.623
15422TIP3    H246144   2.032   4.933   6.604
15423TIP3   OH246145   1.790   4.923   6.273
15423TIP3    H146146   1.821   4.970   6.195
15423TIP3    H246147   1.760   4.991   6.332
15424TIP3   OH246148   2.454   5.050   6.513
15424TIP3    H146149   2.501   5.098   6.445
15424TIP3    H246150   2.497   5.077   6.595
15425TIP3   OH246151   2.959   5.184   6.463
15425TIP3    H146152   2.952   5.141   6.377
15425TIP3    H246153   2.958   5.112   6.526
15426TIP3   OH246154   2.972   5.128   5.982
15426TIP3    H146155   2.912   5.082   5.923
15426TIP3    H246156   2.961   5.084   6.067
15427TIP3   OH246157   1.467   6.494   6.032
15427TIP3    H146158   1.387   6.458   5.993
15427TIP3    H246159   1.472   6.584   5.999
15428TIP3   OH246160   1.898   5.060   6.042
15428TIP3    H146161   1.938   4.996   5.984
15428TIP3    H246162   1.970   5.114   6.074
15429TIP3   OH246163   2.393   5.240   6.118
15429TIP3    H146164   2.455   5.191   6.172
15429TIP3    H246165   2.410   5.332   6.140
15430TIP3   OH246166   2.274   6.641   5.623
15430TIP3    H146167   2.358   6.667   5.585
15430TIP3    H246168   2.244   6.569   5.567
15431TIP3   OH246169   2.975   6.785   5.724
15431TIP3    H146170   2.970   6.689   5.716
15431TIP3    H246171   2.934   6.818   5.645
15432TIP3   OH246172   2.206   5.302   7.486
15432TIP3    H146173   2.168   5.237   7.545
15432TIP3    H246174   2.297   5.310   7.513
15433TIP3   OH246175   2.448   5.299   7.617
15433TIP3    H146176   2.525   5.276   7.564
15433TIP3    H246177   2.443   5.230   7.683
15434TIP3   OH246178   1.589   6.485   5.683
15434TIP3    H146179   1.594   6.491   5.779
15434TIP3    H246180   1.669   6.437   5.659
15435TIP3   OH246181   3.293   5.354   7.381
15435TIP3    H146182   3.295   5.343   7.476
15435TIP3    H246183   3.384   5.347   7.354
15436TIP3   OH246184   3.195   6.926   6.912
15436TIP3    H146185   3.122   6.894   6.859
15436TIP3    H246186   3.179   7.020   6.921
15437TIP3   OH246187   4.473   6.318   5.650
15437TIP3    H146188   4.440   6.403   5.621
15437TIP3    H246189   4.404   6.256   5.625
15438TIP3   OH246190   4.469   6.304   6.079
15438TIP3    H146191   4.524   6.283   6.155
15438TIP3    H246192   4.426   6.221   6.057
15439TIP3   OH246193   3.767   6.160   6.427
15439TIP3    H146194   3.806   6.106   6.496
15439TIP3    H246195   3.840   6.184   6.371
15440TIP3   OH246196   4.739   6.613   5.750
15440TIP3    H146197   4.727   6.545   5.816
15440TIP3    H246198   4.759   6.692   5.801
15441TIP3   OH246199   3.758   6.600   6.113
15441TIP3    H146200   3.742   6.506   6.115
15441TIP3    H246201   3.853   6.607   6.101
15442TIP3   OH246202   3.441   5.796   5.889
15442TIP3    H146203   3.399   5.879   5.912
15442TIP3    H246204   3.372   5.745   5.847
15443TIP3   OH246205   3.515   6.097   6.121
15443TIP3    H146206   3.564   6.018   6.142
15443TIP3    H246207   3.579   6.155   6.079
15444TIP3   OH246208   4.399   7.037   5.764
15444TIP3    H146209   4.422   6.975   5.695
15444TIP3    H246210   4.405   6.987   5.845
15445TIP3   OH246211   4.272   6.525   6.079
15445TIP3    H146212   4.317   6.444   6.052
15445TIP3    H246213   4.343   6.582   6.108
15446TIP3   OH246214   5.308   5.844   6.093
15446TIP3    H146215   5.325   5.929   6.133
15446TIP3    H246216   5.330   5.856   6.000
15447TIP3   OH246217   4.680   6.018   6.114
15447TIP3    H146218   4.701   5.929   6.143
15447TIP3    H246219   4.642   6.006   6.027
15448TIP3   OH246220   4.048   5.684   6.084
15448TIP3    H146221   4.021   5.752   6.022
15448TIP3    H246222   4.002   5.605   6.055
15449TIP3   OH246223   4.757   5.778   5.733
15449TIP3    H146224   4.820   5.752   5.799
15449TIP3    H246225   4.810   5.801   5.657
15450TIP3   OH246226   3.659   5.876   6.202
15450TIP3    H146227   3.742   5.858   6.245
15450TIP3    H246228   3.662   5.823   6.122
15451TIP3   OH246229   4.077   6.087   6.025
15451TIP3    H146230   4.171   6.071   6.029
15451TIP3    H246231   4.040   6.005   5.992
15452TIP3   OH246232   5.364   6.067   6.256
15452TIP3    H146233   5.274   6.099   6.252
15452TIP3    H246234   5.396   6.096   6.341
15453TIP3   OH246235   4.021   5.672   6.525
15453TIP3    H146236   3.968   5.705   6.452
15453TIP3    H246237   3.966   5.687   6.602
15454TIP3   OH246238   4.371   6.534   5.509
15454TIP3    H146239   4.330   6.502   5.429
15454TIP3    H246240   4.316   6.608   5.536
15455TIP3   OH246241   4.113   6.449   6.293
15455TIP3    H146242   4.060   6.521   6.326
15455TIP3    H246243   4.161   6.487   6.219
15456TIP3   OH246244   4.917   5.754   5.971
15456TIP3    H146245   4.847   5.757   6.036
15456TIP3    H246246   4.957   5.841   5.975
15457TIP3   OH246247   3.906   5.781   6.299
15457TIP3    H146248   3.960   5.856   6.323
15457TIP3    H246249   3.953   5.739   6.227
15458TIP3   OH246250   3.958   6.655   6.398
15458TIP3    H146251   3.942   6.744   6.366
15458TIP3    H246252   3.880   6.634   6.449
15459TIP3   OH246253   3.336   6.355   5.652
15459TIP3    H146254   3.303   6.372   5.563
15459TIP3    H246255   3.359   6.442   5.685
15460TIP3   OH246256   4.772   6.861   5.892
15460TIP3    H146257   4.684   6.853   5.929
15460TIP3    H246258   4.771   6.944   5.845
15461TIP3   OH246259   5.108   5.741   6.262
15461TIP3    H146260   5.025   5.768   6.222
15461TIP3    H246261   5.175   5.765   6.198
15462TIP3   OH246262   4.376   5.376   6.273
15462TIP3    H146263   4.361   5.281   6.275
15462TIP3    H246264   4.292   5.414   6.300
15463TIP3   OH246265   4.480   6.893   5.540
15463TIP3    H146266   4.532   6.814   5.532
15463TIP3    H246267   4.537   6.964   5.512
15464TIP3   OH246268   4.622   6.666   5.505
15464TIP3    H146269   4.552   6.601   5.498
15464TIP3    H246270   4.672   6.640   5.582
15465TIP3   OH246271   5.013   6.743   6.233
15465TIP3    H146272   4.992   6.669   6.176
15465TIP3    H246273   4.999   6.821   6.179
15466TIP3   OH246274   4.299   6.153   5.505
15466TIP3    H146275   4.216   6.194   5.484
15466TIP3    H246276   4.345   6.146   5.421
15467TIP3   OH246277   4.261   5.968   5.193
15467TIP3    H146278   4.331   6.009   5.244
15467TIP3    H246279   4.303   5.894   5.149
15468TIP3   OH246280   5.191   6.410   6.099
15468TIP3    H146281   5.106   6.453   6.096
15468TIP3    H246282   5.228   6.422   6.012
15469TIP3   OH246283   4.657   6.245   5.461
15469TIP3    H146284   4.602   6.273   5.534
15469TIP3    H246285   4.738   6.216   5.501
15470TIP3   OH246286   4.887   6.269   6.410
15470TIP3    H146287   4.882   6.351   6.459
15470TIP3    H246288   4.805   6.265   6.361
15471TIP3   OH246289   3.881   6.219   5.869
15471TIP3    H146290   3.845   6.159   5.804
15471TIP3    H246291   3.953   6.171   5.910
15472TIP3   OH246292   4.020   6.646   6.011
15472TIP3    H146293   3.994   6.630   5.920
15472TIP3    H246294   4.106   6.605   6.019
15473TIP3   OH246295   3.978   6.213   6.250
15473TIP3    H146296   4.015   6.176   6.170
15473TIP3    H246297   4.028   6.294   6.264
15474TIP3   OH246298   4.531   6.858   6.020
15474TIP3    H146299   4.521   6.936   6.075
15474TIP3    H246300   4.518   6.785   6.079
15475TIP3   OH246301   4.153   6.757   6.566
15475TIP3    H146302   4.092   6.814   6.613
15475TIP3    H246303   4.098   6.704   6.508
15476TIP3   OH246304   4.489   6.096   5.300
15476TIP3    H146305   4.548   6.155   5.347
15476TIP3    H246306   4.517   6.103   5.209
15477TIP3   OH246307   3.912   6.309   6.711
15477TIP3    H146308   3.911   6.403   6.729
15477TIP3    H246309   3.820   6.286   6.697
15478TIP3   OH246310   4.232   6.773   5.552
15478TIP3    H146311   4.314   6.821   5.556
15478TIP3    H246312   4.173   6.830   5.502
15479TIP3   OH246313   3.943   6.918   6.655
15479TIP3    H146314   3.917   6.924   6.563
15479TIP3    H246315   3.862   6.898   6.701
15480TIP3   OH246316   4.995   5.311   5.346
15480TIP3    H146317   4.919   5.272   5.303
15480TIP3    H246318   5.018   5.386   5.292
15481TIP3   OH246319   3.759   6.060   5.669
15481TIP3    H146320   3.677   6.100   5.638
15481TIP3    H246321   3.738   5.968   5.679
15482TIP3   OH246322   4.823   6.703   4.911
15482TIP3    H146323   4.818   6.796   4.889
15482TIP3    H246324   4.912   6.678   4.888
15483TIP3   OH246325   3.538   6.471   6.599
15483TIP3    H146326   3.469   6.449   6.536
15483TIP3    H246327   3.572   6.386   6.627
15484TIP3   OH246328   3.398   6.647   6.241
15484TIP3    H146329   3.494   6.655   6.240
15484TIP3    H246330   3.368   6.725   6.287
15485TIP3   OH246331   5.244   7.122   6.303
15485TIP3    H146332   5.250   7.027   6.310
15485TIP3    H246333   5.164   7.145   6.351
15486TIP3   OH246334   4.345   6.899   6.430
15486TIP3    H146335   4.334   6.989   6.458
15486TIP3    H246336   4.277   6.850   6.477
15487TIP3   OH246337   4.124   6.994   5.379
15487TIP3    H146338   4.076   6.973   5.299
15487TIP3    H246339   4.086   7.077   5.408
15488TIP3   OH246340   3.558   6.851   5.759
15488TIP3    H146341   3.603   6.843   5.844
15488TIP3    H246342   3.510   6.770   5.750
15489TIP3   OH246343   4.325   6.927   5.005
15489TIP3    H146344   4.375   6.853   4.970
15489TIP3    H246345   4.359   6.940   5.093
15490TIP3   OH246346   4.377   6.970   5.275
15490TIP3    H146347   4.291   6.973   5.316
15490TIP3    H246348   4.433   6.929   5.341
15491TIP3   OH246349   5.131   6.226   6.569
15491TIP3    H146350   5.049   6.231   6.520
15491TIP3    H246351   5.151   6.133   6.575
15492TIP3   OH246352   3.739   6.657   6.570
15492TIP3    H146353   3.789   6.643   6.650
15492TIP3    H246354   3.667   6.594   6.574
15493TIP3   OH246355   4.127   5.456   6.383
15493TIP3    H146356   4.047   5.419   6.346
15493TIP3    H246357   4.098   5.536   6.428
15494TIP3   OH246358   4.667   5.589   6.590
15494TIP3    H146359   4.738   5.560   6.649
15494TIP3    H246360   4.587   5.568   6.638
15495TIP3   OH246361   4.887   6.003   6.499
15495TIP3    H146362   4.847   5.998   6.586
15495TIP3    H246363   4.872   6.093   6.470
15496TIP3   OH246364   4.567   6.099   5.038
15496TIP3    H146365   4.520   6.095   4.955
15496TIP3    H246366   4.650   6.141   5.017
15497TIP3   OH246367   4.288   5.484   5.355
15497TIP3    H146368   4.257   5.497   5.444
15497TIP3    H246369   4.242   5.406   5.324
15498TIP3   OH246370   4.063   5.991   6.393
15498TIP3    H146371   4.017   5.996   6.477
15498TIP3    H246372   4.039   6.072   6.348
15499TIP3   OH246373   3.935   5.873   5.920
15499TIP3    H146374   3.848   5.840   5.944
15499TIP3    H246375   3.948   5.843   5.830
15500TIP3   OH246376   4.420   5.947   5.646
15500TIP3    H146377   4.373   6.019   5.603
15500TIP3    H246378   4.477   5.911   5.578
15501TIP3   OH246379   4.609   6.214   6.716
15501TIP3    H146380   4.581   6.145   6.775
15501TIP3    H246381   4.702   6.226   6.735
15502TIP3   OH246382   4.598   5.966   5.858
15502TIP3    H146383   4.526   5.979   5.797
15502TIP3    H246384   4.647   5.892   5.822
15503TIP3   OH246385   3.901   5.998   6.616
15503TIP3    H146386   3.941   6.052   6.685
15503TIP3    H246387   3.883   5.914   6.660
15504TIP3   OH246388   3.946   5.494   5.329
15504TIP3    H146389   3.938   5.496   5.424
15504TIP3    H246390   3.868   5.539   5.296
15505TIP3   OH246391   3.473   5.505   6.204
15505TIP3    H146392   3.551   5.542   6.248
15505TIP3    H246393   3.504   5.481   6.117
15506TIP3   OH246394   3.401   5.504   5.699
15506TIP3    H146395   3.447   5.536   5.621
15506TIP3    H246396   3.334   5.569   5.717
15507TIP3   OH246397   4.635   6.216   6.292
15507TIP3    H146398   4.659   6.150   6.227
15507TIP3    H246399   4.592   6.166   6.361
15508TIP3   OH246400   4.311   5.671   5.971
15508TIP3    H146401   4.232   5.665   6.025
15508TIP3    H246402   4.383   5.650   6.032
15509TIP3   OH246403   3.703   5.732   5.972
15509TIP3    H146404   3.616   5.737   5.932
15509TIP3    H246405   3.733   5.644   5.952
15510TIP3   OH246406   3.954   5.761   5.673
15510TIP3    H146407   4.049   5.762   5.663
15510TIP3    H246408   3.920   5.772   5.584
15511TIP3   OH246409   4.725   5.751   6.171
15511TIP3    H146410   4.710   5.767   6.265
15511TIP3    H246411   4.658   5.687   6.147
15512TIP3   OH246412   3.843   5.785   5.423
15512TIP3    H146413   3.780   5.733   5.373
15512TIP3    H246414   3.898   5.826   5.356
15513TIP3   OH246415   4.951   7.457   6.394
15513TIP3    H146416   4.948   7.471   6.300
15513TIP3    H246417   5.030   7.502   6.423
15514TIP3   OH246418   3.890   6.572   6.804
15514TIP3    H146419   3.971   6.590   6.853
15514TIP3    H246420   3.821   6.577   6.870
15515TIP3   OH246421   4.351   6.035   6.070
15515TIP3    H146422   4.403   5.975   6.017
15515TIP3    H246423   4.349   5.995   6.157
15516TIP3   OH246424   3.886   5.487   5.974
15516TIP3    H146425   3.843   5.411   6.014
15516TIP3    H246426   3.968   5.452   5.939
15517TIP3   OH246427   4.329   5.939   6.333
15517TIP3    H146428   4.241   5.965   6.359
15517TIP3    H246429   4.387   5.989   6.390
15518TIP3   OH246430   4.059   6.286   5.446
15518TIP3    H146431   3.985   6.230   5.423
15518TIP3    H246432   4.034   6.326   5.529
15519TIP3   OH246433   4.953   6.543   6.054
15519TIP3    H146434   4.988   6.591   5.979
15519TIP3    H246435   4.874   6.500   6.020
15520TIP3   OH246436   4.440   5.698   5.259
15520TIP3    H146437   4.394   5.622   5.295
15520TIP3    H246438   4.488   5.735   5.334
15521TIP3   OH246439   4.475   6.631   6.461
15521TIP3    H146440   4.525   6.615   6.542
15521TIP3    H246441   4.435   6.717   6.475
15522TIP3   OH246442   4.592   5.868   5.437
15522TIP3    H146443   4.687   5.872   5.447
15522TIP3    H246444   4.571   5.943   5.382
15523TIP3   OH246445   3.759   6.318   6.097
15523TIP3    H146446   3.793   6.293   6.012
15523TIP3    H246447   3.820   6.281   6.160
15524TIP3   OH246448   4.214   6.448   5.291
15524TIP3    H146449   4.165   6.530   5.288
15524TIP3    H246450   4.158   6.389   5.343
15525TIP3   OH246451   3.637   6.251   6.740
15525TIP3    H146452   3.655   6.238   6.834
15525TIP3    H246453   3.565   6.191   6.722
15526TIP3   OH246454   4.381   6.373   6.747
15526TIP3    H146455   4.314   6.316   6.707
15526TIP3    H246456   4.464   6.331   6.723
15527TIP3   OH246457   4.616   6.920   6.350
15527TIP3    H146458   4.521   6.904   6.354
15527TIP3    H246459   4.637   6.955   6.437
15528TIP3   OH246460   5.008   5.948   5.233
15528TIP3    H146461   4.951   5.897   5.175
15528TIP3    H246462   5.007   6.036   5.196
15529TIP3   OH246463   5.257   6.846   6.318
15529TIP3    H146464   5.164   6.821   6.322
15529TIP3    H246465   5.288   6.808   6.236
15530TIP3   OH246466   4.742   6.772   5.177
15530TIP3    H146467   4.714   6.702   5.236
15530TIP3    H246468   4.761   6.728   5.094
15531TIP3   OH246469   4.724   6.407   5.950
15531TIP3    H146470   4.634   6.384   5.973
15531TIP3    H246471   4.760   6.327   5.912
15532TIP3   OH246472   3.877   6.645   5.767
15532TIP3    H146473   3.875   6.721   5.709
15532TIP3    H246474   3.785   6.628   5.788
15533TIP3   OH246475   3.431   5.920   5.479
15533TIP3    H146476   3.476   6.001   5.501
15533TIP3    H246477   3.351   5.922   5.532
15534TIP3   OH246478   3.964   6.400   5.672
15534TIP3    H146479   3.947   6.489   5.703
15534TIP3    H246480   3.937   6.343   5.744
15535TIP3   OH246481   4.159   6.968   6.221
15535TIP3    H146482   4.195   7.041   6.170
15535TIP3    H246483   4.234   6.933   6.270
15536TIP3   OH246484   3.793   6.868   5.615
15536TIP3    H146485   3.706   6.874   5.655
15536TIP3    H246486   3.828   6.957   5.620
15537TIP3   OH246487   4.508   6.633   6.187
15537TIP3    H146488   4.498   6.629   6.282
15537TIP3    H246489   4.576   6.568   6.167
15538TIP3   OH246490   4.505   6.511   5.061
15538TIP3    H146491   4.555   6.485   5.138
15538TIP3    H246492   4.422   6.463   5.069
15539TIP3   OH246493   4.772   7.126   6.234
15539TIP3    H146494   4.703   7.064   6.255
15539TIP3    H246495   4.736   7.179   6.163
15540TIP3   OH246496   4.817   6.976   4.866
15540TIP3    H146497   4.832   7.036   4.793
15540TIP3    H246498   4.747   7.017   4.916
15541TIP3   OH246499   3.857   5.741   6.738
15541TIP3    H146500   3.761   5.739   6.737
15541TIP3    H246501   3.881   5.683   6.810
15542TIP3   OH246502   4.681   6.435   5.257
15542TIP3    H146503   4.663   6.377   5.331
15542TIP3    H246504   4.776   6.437   5.250
15543TIP3   OH246505   3.585   6.863   6.385
15543TIP3    H146506   3.636   6.800   6.436
15543TIP3    H246507   3.603   6.947   6.426
15544TIP3   OH246508   3.854   6.472   5.076
15544TIP3    H146509   3.865   6.381   5.049
15544TIP3    H246510   3.840   6.468   5.170
15545TIP3   OH246511   3.798   6.491   5.348
15545TIP3    H146512   3.863   6.463   5.412
15545TIP3    H246513   3.798   6.587   5.354
15546TIP3   OH246514   3.529   6.173   5.558
15546TIP3    H146515   3.465   6.222   5.609
15546TIP3    H246516   3.550   6.231   5.485
15547TIP3   OH246517   4.690   5.816   6.437
15547TIP3    H146518   4.771   5.859   6.465
15547TIP3    H246519   4.683   5.739   6.493
15548TIP3   OH246520   4.552   5.609   5.637
15548TIP3    H146521   4.580   5.594   5.547
15548TIP3    H246522   4.616   5.671   5.672
15549TIP3   OH246523   4.069   6.677   5.285
15549TIP3    H146524   3.984   6.701   5.323
15549TIP3    H246525   4.092   6.750   5.228
15550TIP3   OH246526   4.232   5.755   5.716
15550TIP3    H146527   4.297   5.820   5.689
15550TIP3    H246528   4.258   5.731   5.805
15551TIP3   OH246529   4.534   6.050   6.488
15551TIP3    H146530   4.560   6.089   6.571
15551TIP3    H246531   4.582   5.967   6.484
15552TIP3   OH246532   4.398   5.459   5.802
15552TIP3    H146533   4.371   5.525   5.866
15552TIP3    H246534   4.453   5.506   5.740
15553TIP3   OH246535   3.820   6.765   5.362
15553TIP3    H146536   3.799   6.837   5.303
15553TIP3    H246537   3.809   6.803   5.450
15554TIP3   OH246538   3.911   5.485   5.602
15554TIP3    H146539   3.897   5.568   5.649
15554TIP3    H246540   4.004   5.465   5.618
15555TIP3   OH246541   5.151   5.946   6.474
15555TIP3    H146542   5.057   5.958   6.487
15555TIP3    H246543   5.157   5.881   6.404
15556TIP3   OH246544   4.816   6.150   5.862
15556TIP3    H146545   4.737   6.096   5.868
15556TIP3    H246546   4.880   6.106   5.917
15557TIP3   OH246547   3.555   6.356   5.343
15557TIP3    H146548   3.627   6.418   5.352
15557TIP3    H246549   3.586   6.292   5.278
15558TIP3   OH246550   3.461   5.640   5.470
15558TIP3    H146551   3.460   5.736   5.469
15558TIP3    H246552   3.397   5.615   5.404
15559TIP3   OH246553   4.793   7.127   5.806
15559TIP3    H146554   4.752   7.179   5.737
15559TIP3    H246555   4.887   7.138   5.791
15560TIP3   OH246556   3.862   5.368   6.342
15560TIP3    H146557   3.847   5.332   6.255
15560TIP3    H246558   3.857   5.293   6.401
15561TIP3   OH246559   3.385   6.629   5.732
15561TIP3    H146560   3.339   6.662   5.809
15561TIP3    H246561   3.342   6.671   5.658
15562TIP3   OH246562   3.588   7.161   6.803
15562TIP3    H146563   3.672   7.161   6.849
15562TIP3    H246564   3.564   7.069   6.794
15563TIP3   OH246565   4.063   7.071   6.850
15563TIP3    H146566   4.149   7.029   6.857
15563TIP3    H246567   4.020   7.025   6.777
15564TIP3   OH246568   4.009   6.673   4.965
15564TIP3    H146569   3.962   6.603   5.010
15564TIP3    H246570   4.085   6.629   4.925
15565TIP3   OH246571   4.669   7.016   6.602
15565TIP3    H146572   4.685   6.943   6.662
15565TIP3    H246573   4.744   7.074   6.614
15566TIP3   OH246574   4.453   6.716   4.888
15566TIP3    H146575   4.484   6.651   4.951
15566TIP3    H246576   4.513   6.707   4.813
15567TIP3   OH246577   3.686   6.564   6.993
15567TIP3    H146578   3.698   6.470   7.006
15567TIP3    H246579   3.601   6.572   6.950
15568TIP3   OH246580   3.677   6.168   5.187
15568TIP3    H146581   3.727   6.142   5.264
15568TIP3    H246582   3.743   6.180   5.119
15569TIP3   OH246583   4.307   6.645   6.768
15569TIP3    H146584   4.263   6.665   6.686
15569TIP3    H246585   4.344   6.558   6.754
15570TIP3   OH246586   4.251   6.389   5.025
15570TIP3    H146587   4.228   6.398   5.117
15570TIP3    H246588   4.234   6.297   5.005
15571TIP3   OH246589   4.790   6.697   6.393
15571TIP3    H146590   4.866   6.722   6.341
15571TIP3    H246591   4.723   6.763   6.371
15572TIP3   OH246592   3.791   6.299   6.991
15572TIP3    H146593   3.868   6.289   6.935
15572TIP3    H246594   3.826   6.320   7.077
15573TIP3   OH246595   3.849   6.111   5.401
15573TIP3    H146596   3.830   6.079   5.489
15573TIP3    H246597   3.897   6.039   5.359
15574TIP3   OH246598   4.150   6.178   6.656
15574TIP3    H146599   4.072   6.231   6.671
15574TIP3    H246600   4.188   6.212   6.575
15575TIP3   OH246601   3.991   5.930   5.244
15575TIP3    H146602   3.963   5.930   5.153
15575TIP3    H246603   4.086   5.941   5.240
15576TIP3   OH246604   4.669   6.563   6.735
15576TIP3    H146605   4.738   6.525   6.681
15576TIP3    H246606   4.666   6.508   6.813
15577TIP3   OH246607   4.789   6.219   4.920
15577TIP3    H146608   4.775   6.176   4.836
15577TIP3    H246609   4.764   6.310   4.906
15578TIP3   OH246610   4.267   5.956   6.766
15578TIP3    H146611   4.273   5.885   6.702
15578TIP3    H246612   4.230   6.029   6.717
15579TIP3   OH246613   4.278   5.761   6.561
15579TIP3    H146614   4.307   5.793   6.476
15579TIP3    H246615   4.189   5.730   6.546
15580TIP3   OH246616   4.280   6.294   6.449
15580TIP3    H146617   4.369   6.312   6.421
15580TIP3    H246618   4.226   6.352   6.395
15581TIP3   OH246619   4.877   6.239   6.815
15581TIP3    H146620   4.905   6.148   6.827
15581TIP3    H246621   4.958   6.286   6.796
15582TIP3   OH246622   4.905   6.513   6.556
15582TIP3    H146623   4.855   6.577   6.506
15582TIP3    H246624   4.995   6.524   6.525
15583TIP3   OH246625   4.153   6.043   7.008
15583TIP3    H146626   4.084   5.979   7.028
15583TIP3    H246627   4.183   6.018   6.921
15584TIP3   OH246628   4.400   5.529   6.665
15584TIP3    H146629   4.360   5.608   6.629
15584TIP3    H246630   4.335   5.460   6.650
15585TIP3   OH246631   4.524   6.001   6.866
15585TIP3    H146632   4.515   5.987   6.960
15585TIP3    H246633   4.438   5.978   6.830
15586TIP3   OH246634   4.772   5.960   6.739
15586TIP3    H146635   4.693   5.955   6.793
15586TIP3    H246636   4.842   5.929   6.797
15587TIP3   OH246637   5.006   5.920   6.887
15587TIP3    H146638   5.022   5.826   6.894
15587TIP3    H246639   5.004   5.951   6.977
15588TIP3   OH246640   3.979   5.828   7.074
15588TIP3    H146641   3.988   5.741   7.035
15588TIP3    H246642   4.019   5.819   7.161
15589TIP3   OH246643   4.465   5.509   6.930
15589TIP3    H146644   4.534   5.443   6.926
15589TIP3    H246645   4.436   5.519   6.840
15590TIP3   OH246646   4.564   5.725   7.071
15590TIP3    H146647   4.534   5.651   7.017
15590TIP3    H246648   4.490   5.785   7.072
15591TIP3   OH246649   3.819   6.978   5.181
15591TIP3    H146650   3.906   6.953   5.152
15591TIP3    H246651   3.780   7.022   5.106
15592TIP3   OH246652   3.282   6.356   5.364
15592TIP3    H146653   3.377   6.366   5.359
15592TIP3    H246654   3.264   6.272   5.322
15593TIP3   OH246655   3.182   6.938   5.820
15593TIP3    H146656   3.118   6.884   5.775
15593TIP3    H246657   3.227   6.877   5.879
15594TIP3   OH246658   3.327   6.771   5.987
15594TIP3    H146659   3.319   6.701   6.052
15594TIP3    H246660   3.378   6.839   6.032
15595TIP3   OH246661   5.065   7.174   5.798
15595TIP3    H146662   5.085   7.202   5.887
15595TIP3    H246663   5.123   7.226   5.742
15596TIP3   OH246664   5.086   7.205   6.078
15596TIP3    H146665   5.039   7.122   6.073
15596TIP3    H246666   5.155   7.190   6.143
15597TIP3   OH246667   5.135   6.913   6.647
15597TIP3    H146668   5.066   6.921   6.714
15597TIP3    H246669   5.183   6.995   6.653
15598TIP3   OH246670   4.960   6.421   5.253
15598TIP3    H146671   5.018   6.492   5.225
15598TIP3    H246672   5.002   6.383   5.329
15599TIP3   OH246673   5.080   6.279   5.458
15599TIP3    H146674   5.011   6.239   5.510
15599TIP3    H246675   5.143   6.311   5.523
15600TIP3   OH246676   5.135   6.681   5.892
15600TIP3    H146677   5.188   6.613   5.850
15600TIP3    H246678   5.135   6.754   5.829
15601TIP3   OH246679   4.944   6.966   6.084
15601TIP3    H146680   4.878   7.012   6.136
15601TIP3    H246681   4.896   6.925   6.013
15602TIP3   OH246682   4.993   6.192   5.102
15602TIP3    H146683   4.923   6.193   5.037
15602TIP3    H246684   4.978   6.270   5.156
15603TIP3   OH246685   4.850   5.806   5.056
15603TIP3    H146686   4.809   5.816   4.970
15603TIP3    H246687   4.821   5.720   5.086
15604TIP3   OH246688   4.880   6.139   5.591
15604TIP3    H146689   4.883   6.045   5.575
15604TIP3    H246690   4.863   6.147   5.685
15605TIP3   OH246691   3.502   6.192   6.378
15605TIP3    H146692   3.493   6.162   6.287
15605TIP3    H246693   3.597   6.192   6.394
15606TIP3   OH246694   5.161   6.556   6.454
15606TIP3    H146695   5.229   6.490   6.440
15606TIP3    H246696   5.159   6.605   6.373
15607TIP3   OH246697   5.344   6.348   6.446
15607TIP3    H146698   5.270   6.306   6.490
15607TIP3    H246699   5.419   6.292   6.466
15608TIP3   OH246700   4.883   5.870   5.482
15608TIP3    H146701   4.924   5.784   5.496
15608TIP3    H246702   4.925   5.904   5.403
15609TIP3   OH246703   5.024   6.015   6.004
15609TIP3    H146704   5.104   6.031   5.954
15609TIP3    H246705   5.038   6.059   6.087
15610TIP3   OH246706   5.102   6.177   6.225
15610TIP3    H146707   5.031   6.205   6.282
15610TIP3    H246708   5.134   6.258   6.184
15611TIP3   OH246709   3.715   5.885   7.000
15611TIP3    H146710   3.809   5.884   7.020
15611TIP3    H246711   3.682   5.802   7.034
15612TIP3   OH246712   5.556   5.785   6.766
15612TIP3    H146713   5.625   5.725   6.737
15612TIP3    H246714   5.527   5.829   6.686
15613TIP3   OH246715   4.983   5.620   5.540
15613TIP3    H146716   5.033   5.589   5.615
15613TIP3    H246717   4.915   5.553   5.527
15614TIP3   OH246718   3.694   5.589   6.360
15614TIP3    H146719   3.748   5.509   6.361
15614TIP3    H246720   3.756   5.659   6.341
15615TIP3   OH246721   3.478   5.868   6.424
15615TIP3    H146722   3.526   5.841   6.346
15615TIP3    H246723   3.506   5.958   6.440
15616TIP3   OH246724   5.416   5.894   6.557
15616TIP3    H146725   5.331   5.930   6.580
15616TIP3    H246726   5.396   5.812   6.511
15617TIP3   OH246727   5.106   5.499   5.179
15617TIP3    H146728   5.141   5.446   5.107
15617TIP3    H246729   5.144   5.585   5.166
15618TIP3   OH246730   3.460   5.374   5.933
15618TIP3    H146731   3.370   5.355   5.961
15618TIP3    H246732   3.449   5.425   5.852
15619TIP3   OH246733   4.624   7.096   5.438
15619TIP3    H146734   4.679   7.081   5.361
15619TIP3    H246735   4.669   7.164   5.487
15620TIP3   OH246736   3.688   5.436   6.759
15620TIP3    H146737   3.635   5.427   6.839
15620TIP3    H246738   3.628   5.473   6.694
15621TIP3   OH246739   3.723   6.883   6.826
15621TIP3    H146740   3.630   6.866   6.812
15621TIP3    H246741   3.737   6.865   6.919
15622TIP3   OH246742   3.931   6.932   6.371
15622TIP3    H146743   3.881   7.007   6.339
15622TIP3    H246744   4.015   6.940   6.327
15623TIP3   OH246745   4.329   7.164   6.516
15623TIP3    H146746   4.370   7.153   6.602
15623TIP3    H246747   4.391   7.217   6.467
15624TIP3   OH246748   4.518   7.318   6.386
15624TIP3    H146749   4.576   7.266   6.330
15624TIP3    H246750   4.577   7.373   6.437
15625TIP3   OH246751   5.333   5.637   6.468
15625TIP3    H146752   5.243   5.620   6.439
15625TIP3    H246753   5.376   5.551   6.464
15626TIP3   OH246754   3.593   7.173   6.417
15626TIP3    H146755   3.502   7.191   6.394
15626TIP3    H246756   3.615   7.239   6.483
15627TIP3   OH246757   3.825   7.165   6.267
15627TIP3    H146758   3.741   7.169   6.314
15627TIP3    H246759   3.803   7.187   6.177
15628TIP3   OH246760   4.237   7.179   6.059
15628TIP3    H146761   4.166   7.189   5.995
15628TIP3    H246762   4.246   7.266   6.098
15629TIP3   OH246763   4.501   7.121   6.114
15629TIP3    H146764   4.410   7.137   6.090
15629TIP3    H246765   4.551   7.184   6.063
15630TIP3   OH246766   4.704   7.288   6.010
15630TIP3    H146767   4.702   7.375   5.970
15630TIP3    H246768   4.733   7.230   5.940
15631TIP3   OH246769   3.501   6.949   6.135
15631TIP3    H146770   3.528   6.924   6.224
15631TIP3    H246771   3.572   6.918   6.079
15632TIP3   OH246772   3.705   6.839   5.993
15632TIP3    H146773   3.717   6.755   6.036
15632TIP3    H246774   3.792   6.879   5.995
15633TIP3   OH246775   3.974   6.922   6.016
15633TIP3    H146776   3.993   6.830   6.000
15633TIP3    H246777   4.028   6.945   6.092
15634TIP3   OH246778   4.528   5.560   6.112
15634TIP3    H146779   4.483   5.491   6.161
15634TIP3    H246780   4.588   5.513   6.054
15635TIP3   OH246781   5.006   5.485   5.954
15635TIP3    H146782   5.065   5.501   5.881
15635TIP3    H246783   4.974   5.572   5.978
15636TIP3   OH246784   5.159   5.547   5.742
15636TIP3    H146785   5.231   5.492   5.711
15636TIP3    H246786   5.193   5.636   5.737
15637TIP3   OH246787   3.810   5.249   6.100
15637TIP3    H146788   3.729   5.198   6.099
15637TIP3    H246789   3.877   5.188   6.070
15638TIP3   OH246790   3.595   5.175   5.748
15638TIP3    H146791   3.617   5.234   5.676
15638TIP3    H246792   3.557   5.231   5.815
15639TIP3   OH246793   4.136   5.377   5.931
15639TIP3    H146794   4.229   5.375   5.911
15639TIP3    H246795   4.115   5.289   5.962
15640TIP3   OH246796   4.721   5.454   5.944
15640TIP3    H146797   4.705   5.428   5.854
15640TIP3    H246798   4.816   5.449   5.954
15641TIP3   OH246799   4.791   5.418   5.501
15641TIP3    H146800   4.726   5.410   5.431
15641TIP3    H246801   4.862   5.359   5.475
15642TIP3   OH246802   3.267   6.751   5.516
15642TIP3    H146803   3.184   6.716   5.483
15642TIP3    H246804   3.270   6.841   5.483
15643TIP3   OH246805   3.692   5.328   5.527
15643TIP3    H146806   3.745   5.268   5.476
15643TIP3    H246807   3.755   5.389   5.565
15644TIP3   OH246808   4.191   5.503   5.614
15644TIP3    H146809   4.241   5.452   5.677
15644TIP3    H246810   4.203   5.594   5.641
15645TIP3   OH246811   4.070   6.897   5.108
15645TIP3    H146812   4.154   6.924   5.070
15645TIP3    H246813   4.041   6.825   5.052
15646TIP3   OH246814   4.774   7.041   5.210
15646TIP3    H146815   4.768   6.946   5.204
15646TIP3    H246816   4.731   7.074   5.132
15647TIP3   OH246817   4.001   5.558   6.980
15647TIP3    H146818   3.969   5.490   7.040
15647TIP3    H246819   4.094   5.567   7.001
15648TIP3   OH246820   4.249   5.560   7.105
15648TIP3    H146821   4.326   5.540   7.052
15648TIP3    H246822   4.246   5.491   7.171
15649TIP3   OH246823   3.383   6.744   5.167
15649TIP3    H146824   3.384   6.747   5.263
15649TIP3    H246825   3.463   6.696   5.144
15650TIP3   OH246826   5.072   5.650   6.896
15650TIP3    H146827   5.088   5.619   6.985
15650TIP3    H246828   5.157   5.644   6.853
15651TIP3   OH246829   4.991   7.183   6.401
15651TIP3    H146830   4.918   7.152   6.347
15651TIP3    H246831   4.977   7.277   6.408
15652TIP3   OH246832   6.262   6.573   5.138
15652TIP3    H146833   6.225   6.658   5.113
15652TIP3    H246834   6.196   6.509   5.111
15653TIP3   OH246835   6.149   6.566   5.591
15653TIP3    H146836   6.221   6.538   5.648
15653TIP3    H246837   6.124   6.487   5.543
15654TIP3   OH246838   5.572   6.423   5.902
15654TIP3    H146839   5.604   6.370   5.974
15654TIP3    H246840   5.652   6.454   5.858
15655TIP3   OH246841   6.544   6.881   5.230
15655TIP3    H146842   6.554   6.809   5.293
15655TIP3    H246843   6.563   6.960   5.281
15656TIP3   OH246844   5.565   6.865   5.597
15656TIP3    H146845   5.548   6.771   5.604
15656TIP3    H246846   5.660   6.872   5.586
15657TIP3   OH246847   5.235   6.056   5.375
15657TIP3    H146848   5.192   6.138   5.400
15657TIP3    H246849   5.166   6.006   5.332
15658TIP3   OH246850   5.308   6.350   5.605
15658TIP3    H146851   5.357   6.273   5.633
15658TIP3    H246852   5.369   6.400   5.551
15659TIP3   OH246853   6.187   7.309   5.237
15659TIP3    H146854   6.212   7.236   5.180
15659TIP3    H246855   6.167   7.267   5.321
15660TIP3   OH246856   6.117   6.836   5.558
15660TIP3    H146857   6.128   6.744   5.535
15660TIP3    H246858   6.174   6.883   5.497
15661TIP3   OH246859   7.110   6.099   5.580
15661TIP3    H146860   7.125   6.186   5.616
15661TIP3    H246861   7.130   6.108   5.487
15662TIP3   OH246862   6.468   6.298   5.588
15662TIP3    H146863   6.509   6.218   5.623
15662TIP3    H246864   6.421   6.268   5.510
15663TIP3   OH246865   5.834   5.927   5.560
15663TIP3    H146866   5.811   5.999   5.501
15663TIP3    H246867   5.781   5.854   5.531
15664TIP3   OH246868   6.533   6.039   5.211
15664TIP3    H146869   6.596   6.031   5.283
15664TIP3    H246870   6.583   6.075   5.138
15665TIP3   OH246871   5.457   6.137   5.693
15665TIP3    H146872   5.540   6.119   5.736
15665TIP3    H246873   5.459   6.084   5.613
15666TIP3   OH246874   5.869   6.332   5.506
15666TIP3    H146875   5.962   6.309   5.510
15666TIP3    H246876   5.827   6.253   5.471
15667TIP3   OH246877   7.164   6.323   5.748
15667TIP3    H146878   7.076   6.358   5.737
15667TIP3    H246879   7.193   6.357   5.833
15668TIP3   OH246880   5.814   5.929   6.014
15668TIP3    H146881   5.762   5.962   5.940
15668TIP3    H246882   5.758   5.943   6.090
15669TIP3   OH246883   6.125   6.781   5.024
15669TIP3    H146884   6.103   6.760   4.933
15669TIP3    H246885   6.082   6.864   5.041
15670TIP3   OH246886   5.980   6.770   5.793
15670TIP3    H146887   5.909   6.805   5.846
15670TIP3    H246888   5.941   6.755   5.707
15671TIP3   OH246889   6.697   6.045   5.429
15671TIP3    H146890   6.647   6.037   5.510
15671TIP3    H246891   6.757   6.118   5.445
15672TIP3   OH246892   5.706   6.036   5.781
15672TIP3    H146893   5.763   6.108   5.807
15672TIP3    H246894   5.752   5.993   5.709
15673TIP3   OH246895   5.753   6.903   5.888
15673TIP3    H146896   5.737   6.989   5.849
15673TIP3    H246897   5.672   6.884   5.936
15674TIP3   OH246898   5.131   6.613   5.137
15674TIP3    H146899   5.095   6.630   5.050
15674TIP3    H246900   5.153   6.700   5.171
15675TIP3   OH246901   6.562   7.127   5.379
15675TIP3    H146902   6.472   7.112   5.407
15675TIP3    H246903   6.560   7.210   5.332
15676TIP3   OH246904   6.908   6.000   5.753
15676TIP3    H146905   6.824   6.017   5.710
15676TIP3    H246906   6.973   6.023   5.686
15677TIP3   OH246907   6.157   5.622   5.745
15677TIP3    H146908   6.150   5.530   5.771
15677TIP3    H246909   6.080   5.663   5.784
15678TIP3   OH246910   6.272   7.140   5.030
15678TIP3    H146911   6.324   7.060   5.018
15678TIP3    H246912   6.329   7.211   5.002
15679TIP3   OH246913   6.432   6.927   4.979
15679TIP3    H146914   6.437   6.849   4.924
15679TIP3    H246915   6.473   6.902   5.061
15680TIP3   OH246916   6.835   7.004   5.727
15680TIP3    H146917   6.786   6.928   5.694
15680TIP3    H246918   6.813   7.074   5.665
15681TIP3   OH246919   6.092   6.408   4.989
15681TIP3    H146920   6.011   6.454   4.969
15681TIP3    H246921   6.138   6.404   4.905
15682TIP3   OH246922   6.062   6.220   4.676
15682TIP3    H146923   6.130   6.260   4.729
15682TIP3    H246924   6.109   6.156   4.621
15683TIP3   OH246925   6.964   6.676   5.597
15683TIP3    H146926   6.873   6.706   5.604
15683TIP3    H246927   6.985   6.686   5.505
15684TIP3   OH246928   6.449   6.502   4.950
15684TIP3    H146929   6.396   6.528   5.025
15684TIP3    H246930   6.530   6.468   4.988
15685TIP3   OH246931   6.702   6.544   5.892
15685TIP3    H146932   6.684   6.609   5.960
15685TIP3    H246933   6.679   6.587   5.810
15686TIP3   OH246934   5.677   6.475   5.358
15686TIP3    H146935   5.639   6.417   5.293
15686TIP3    H246936   5.749   6.424   5.396
15687TIP3   OH246937   5.826   6.918   5.494
15687TIP3    H146938   5.785   6.904   5.409
15687TIP3    H246939   5.916   6.890   5.483
15688TIP3   OH246940   5.807   6.468   5.736
15688TIP3    H146941   5.825   6.426   5.652
15688TIP3    H246942   5.893   6.497   5.767
15689TIP3   OH246943   6.321   7.086   5.517
15689TIP3    H146944   6.316   7.175   5.553
15689TIP3    H246945   6.352   7.033   5.591
15690TIP3   OH246946   5.956   7.002   6.045
15690TIP3    H146947   5.906   7.067   6.095
15690TIP3    H246948   5.891   6.958   5.991
15691TIP3   OH246949   6.288   6.345   4.790
15691TIP3    H146950   6.345   6.404   4.839
15691TIP3    H246951   6.314   6.357   4.698
15692TIP3   OH246952   5.710   6.563   6.179
15692TIP3    H146953   5.712   6.654   6.207
15692TIP3    H246954   5.618   6.540   6.177
15693TIP3   OH246955   6.017   7.038   5.050
15693TIP3    H146956   6.105   7.075   5.047
15693TIP3    H246957   5.965   7.094   4.994
15694TIP3   OH246958   5.736   7.156   6.138
15694TIP3    H146959   5.694   7.147   6.052
15694TIP3    H246960   5.665   7.141   6.201
15695TIP3   OH246961   6.787   5.570   4.864
15695TIP3    H146962   6.716   5.616   4.909
15695TIP3    H246963   6.814   5.629   4.794
15696TIP3   OH246964   5.553   6.319   5.158
15696TIP3    H146965   5.475   6.365   5.125
15696TIP3    H246966   5.523   6.229   5.172
15697TIP3   OH246967   6.619   6.961   4.398
15697TIP3    H146968   6.616   7.053   4.374
15697TIP3    H246969   6.708   6.934   4.376
15698TIP3   OH246970   5.335   6.723   6.088
15698TIP3    H146971   5.265   6.703   6.025
15698TIP3    H246972   5.371   6.637   6.112
15699TIP3   OH246973   5.175   6.919   5.741
15699TIP3    H146974   5.265   6.944   5.763
15699TIP3    H246975   5.122   6.994   5.769
15700TIP3   OH246976   7.039   7.389   5.784
15700TIP3    H146977   7.048   7.294   5.789
15700TIP3    H246978   6.958   7.408   5.832
15701TIP3   OH246979   5.920   7.250   4.867
15701TIP3    H146980   5.874   7.228   4.785
15701TIP3    H246981   5.881   7.333   4.895
15702TIP3   OH246982   5.350   7.107   5.235
15702TIP3    H146983   5.390   7.098   5.322
15702TIP3    H246984   5.300   7.026   5.225
15703TIP3   OH246985   6.122   7.185   4.489
15703TIP3    H146986   6.170   7.110   4.454
15703TIP3    H246987   6.155   7.196   4.578
15704TIP3   OH246988   6.172   7.222   4.761
15704TIP3    H146989   6.087   7.225   4.804
15704TIP3    H246990   6.230   7.182   4.827
15705TIP3   OH246991   6.928   6.481   6.058
15705TIP3    H146992   6.852   6.493   6.001
15705TIP3    H246993   6.946   6.388   6.055
15706TIP3   OH246994   5.528   6.918   6.056
15706TIP3    H146995   5.580   6.905   6.136
15706TIP3    H246996   5.458   6.852   6.062
15707TIP3   OH246997   5.919   5.713   5.870
15707TIP3    H146998   5.836   5.679   5.839
15707TIP3    H246999   5.896   5.793   5.917
15708TIP3   OH247000   6.460   5.840   6.069
15708TIP3    H147001   6.530   5.813   6.129
15708TIP3    H247002   6.379   5.822   6.116
15709TIP3   OH247003   6.682   6.274   5.981
15709TIP3    H147004   6.641   6.272   6.068
15709TIP3    H247005   6.664   6.362   5.948
15710TIP3   OH247006   6.360   6.372   4.529
15710TIP3    H147007   6.314   6.357   4.446
15710TIP3    H247008   6.444   6.409   4.503
15711TIP3   OH247009   6.093   5.744   4.846
15711TIP3    H147010   6.046   5.757   4.929
15711TIP3    H247011   6.093   5.650   4.832
15712TIP3   OH247012   5.861   6.239   5.886
15712TIP3    H147013   5.813   6.245   5.968
15712TIP3    H247014   5.840   6.320   5.839
15713TIP3   OH247015   5.727   6.123   5.399
15713TIP3    H147016   5.639   6.094   5.424
15713TIP3    H247017   5.738   6.090   5.310
15714TIP3   OH247018   6.213   6.198   5.122
15714TIP3    H147019   6.169   6.273   5.081
15714TIP3    H247020   6.274   6.167   5.056
15715TIP3   OH247021   6.399   6.472   6.203
15715TIP3    H147022   6.375   6.402   6.263
15715TIP3    H247023   6.492   6.489   6.220
15716TIP3   OH247024   6.342   6.188   5.368
15716TIP3    H147025   6.289   6.210   5.291
15716TIP3    H247026   6.413   6.134   5.334
15717TIP3   OH247027   5.694   6.261   6.102
15717TIP3    H147028   5.703   6.321   6.175
15717TIP3    H247029   5.674   6.176   6.143
15718TIP3   OH247030   5.744   5.743   4.814
15718TIP3    H147031   5.738   5.751   4.909
15718TIP3    H247032   5.666   5.788   4.781
15719TIP3   OH247033   5.272   5.786   5.690
15719TIP3    H147034   5.351   5.819   5.732
15719TIP3    H247035   5.299   5.766   5.600
15720TIP3   OH247036   5.212   5.760   5.181
15720TIP3    H147037   5.256   5.800   5.106
15720TIP3    H247038   5.142   5.821   5.203
15721TIP3   OH247039   6.327   6.462   5.769
15721TIP3    H147040   6.386   6.423   5.705
15721TIP3    H247041   6.336   6.408   5.847
15722TIP3   OH247042   6.103   5.914   5.449
15722TIP3    H147043   6.026   5.915   5.507
15722TIP3    H247044   6.178   5.911   5.508
15723TIP3   OH247045   5.491   5.996   5.460
15723TIP3    H147046   5.404   6.002   5.422
15723TIP3    H247047   5.518   5.906   5.445
15724TIP3   OH247048   5.750   6.006   5.153
15724TIP3    H147049   5.845   6.017   5.146
15724TIP3    H247050   5.717   6.025   5.066
15725TIP3   OH247051   6.537   6.030   5.658
15725TIP3    H147052   6.520   6.043   5.751
15725TIP3    H247053   6.472   5.966   5.630
15726TIP3   OH247054   5.643   6.035   4.904
15726TIP3    H147055   5.579   5.985   4.853
15726TIP3    H247056   5.696   6.080   4.838
15727TIP3   OH247057   6.748   7.712   5.877
15727TIP3    H147058   6.741   7.723   5.783
15727TIP3    H247059   6.828   7.759   5.901
15728TIP3   OH247060   5.690   6.826   6.284
15728TIP3    H147061   5.770   6.844   6.333
15728TIP3    H247062   5.621   6.830   6.350
15729TIP3   OH247063   6.134   6.274   5.548
15729TIP3    H147064   6.204   6.237   5.494
15729TIP3    H247065   6.146   6.232   5.633
15730TIP3   OH247066   5.644   5.752   5.446
15730TIP3    H147067   5.615   5.678   5.500
15730TIP3    H247068   5.667   5.713   5.362
15731TIP3   OH247069   6.125   6.182   5.818
15731TIP3    H147070   6.038   6.211   5.846
15731TIP3    H247071   6.186   6.227   5.877
15732TIP3   OH247072   5.852   6.547   4.935
15732TIP3    H147073   5.779   6.490   4.913
15732TIP3    H247074   5.828   6.587   5.018
15733TIP3   OH247075   6.258   5.929   4.727
15733TIP3    H147076   6.203   5.866   4.773
15733TIP3    H247077   6.305   5.976   4.797
15734TIP3   OH247078   6.229   6.850   5.945
15734TIP3    H147079   6.273   6.788   6.002
15734TIP3    H247080   6.231   6.933   5.992
15735TIP3   OH247081   6.383   6.106   4.914
15735TIP3    H147082   6.478   6.110   4.925
15735TIP3    H247083   6.362   6.183   4.862
15736TIP3   OH247084   5.577   6.587   5.591
15736TIP3    H147085   5.604   6.554   5.506
15736TIP3    H247086   5.635   6.543   5.653
15737TIP3   OH247087   6.008   6.704   4.775
15737TIP3    H147088   5.961   6.787   4.773
15737TIP3    H247089   5.953   6.647   4.829
15738TIP3   OH247090   5.438   6.492   6.216
15738TIP3    H147091   5.444   6.471   6.309
15738TIP3    H247092   5.363   6.440   6.184
15739TIP3   OH247093   6.173   6.631   6.228
15739TIP3    H147094   6.103   6.569   6.208
15739TIP3    H247095   6.254   6.583   6.210
15740TIP3   OH247096   6.404   7.183   5.823
15740TIP3    H147097   6.321   7.227   5.805
15740TIP3    H247098   6.425   7.208   5.913
15741TIP3   OH247099   6.797   6.194   4.715
15741TIP3    H147100   6.745   6.140   4.656
15741TIP3    H247101   6.795   6.282   4.677
15742TIP3   OH247102   7.070   7.118   5.803
15742TIP3    H147103   6.981   7.084   5.807
15742TIP3    H247104   7.108   7.076   5.725
15743TIP3   OH247105   6.539   7.030   4.660
15743TIP3    H147106   6.511   6.958   4.716
15743TIP3    H247107   6.560   6.989   4.576
15744TIP3   OH247108   5.672   6.904   5.263
15744TIP3    H147109   5.670   6.978   5.202
15744TIP3    H247110   5.580   6.884   5.279
15745TIP3   OH247111   5.234   6.188   4.965
15745TIP3    H147112   5.275   6.272   4.988
15745TIP3    H247113   5.152   6.187   5.015
15746TIP3   OH247114   5.757   6.658   5.163
15746TIP3    H147115   5.742   6.747   5.195
15746TIP3    H247116   5.731   6.601   5.235
15747TIP3   OH247117   5.592   7.123   5.105
15747TIP3    H147118   5.503   7.130   5.139
15747TIP3    H247119   5.626   7.212   5.109
15748TIP3   OH247120   6.362   6.854   5.700
15748TIP3    H147121   6.406   6.881   5.780
15748TIP3    H247122   6.429   6.808   5.649
15749TIP3   OH247123   6.307   6.769   4.556
15749TIP3    H147124   6.349   6.750   4.640
15749TIP3    H247125   6.224   6.720   4.560
15750TIP3   OH247126   6.570   7.395   5.718
15750TIP3    H147127   6.498   7.332   5.725
15750TIP3    H247128   6.547   7.450   5.644
15751TIP3   OH247129   6.614   7.234   4.353
15751TIP3    H147130   6.631   7.295   4.281
15751TIP3    H247131   6.540   7.272   4.400
15752TIP3   OH247132   5.640   6.008   6.218
15752TIP3    H147133   5.544   6.016   6.222
15752TIP3    H247134   5.662   5.952   6.292
15753TIP3   OH247135   6.476   6.719   4.780
15753TIP3    H147136   6.457   6.643   4.834
15753TIP3    H247137   6.568   6.710   4.757
15754TIP3   OH247138   5.384   7.110   5.873
15754TIP3    H147139   5.430   7.047   5.927
15754TIP3    H247140   5.395   7.194   5.917
15755TIP3   OH247141   5.651   6.731   4.562
15755TIP3    H147142   5.661   6.640   4.535
15755TIP3    H247143   5.637   6.726   4.657
15756TIP3   OH247144   5.596   6.748   4.834
15756TIP3    H147145   5.664   6.720   4.896
15756TIP3    H247146   5.596   6.844   4.840
15757TIP3   OH247147   5.329   6.439   5.046
15757TIP3    H147148   5.263   6.487   5.097
15757TIP3    H247149   5.348   6.496   4.972
15758TIP3   OH247150   6.490   6.074   5.926
15758TIP3    H147151   6.572   6.115   5.956
15758TIP3    H247152   6.483   5.994   5.979
15759TIP3   OH247153   6.374   5.838   5.110
15759TIP3    H147154   6.344   5.884   5.032
15759TIP3    H247155   6.427   5.903   5.157
15760TIP3   OH247156   5.867   6.935   4.774
15760TIP3    H147157   5.783   6.959   4.811
15760TIP3    H247158   5.889   7.007   4.715
15761TIP3   OH247159   6.027   6.011   5.199
15761TIP3    H147160   6.089   6.078   5.172
15761TIP3    H247161   6.053   5.990   5.289
15762TIP3   OH247162   6.323   6.293   5.983
15762TIP3    H147163   6.354   6.336   6.063
15762TIP3    H247164   6.379   6.215   5.974
15763TIP3   OH247165   6.195   5.709   5.283
15763TIP3    H147166   6.172   5.784   5.338
15763TIP3    H247167   6.264   5.742   5.226
15764TIP3   OH247168   5.618   7.022   4.851
15764TIP3    H147169   5.597   7.094   4.791
15764TIP3    H247170   5.607   7.059   4.938
15765TIP3   OH247171   5.710   5.735   5.092
15765TIP3    H147172   5.698   5.825   5.123
15765TIP3    H247173   5.804   5.718   5.101
15766TIP3   OH247174   6.945   6.204   5.966
15766TIP3    H147175   6.850   6.219   5.974
15766TIP3    H247176   6.953   6.144   5.892
15767TIP3   OH247177   6.635   6.369   5.338
15767TIP3    H147178   6.569   6.391   5.404
15767TIP3    H247179   6.709   6.336   5.389
15768TIP3   OH247180   5.352   6.614   4.828
15768TIP3    H147181   5.424   6.677   4.837
15768TIP3    H247182   5.382   6.551   4.764
15769TIP3   OH247183   5.271   5.913   4.962
15769TIP3    H147184   5.276   6.009   4.969
15769TIP3    H247185   5.214   5.898   4.887
15770TIP3   OH247186   6.585   7.391   5.287
15770TIP3    H147187   6.543   7.440   5.216
15770TIP3    H247188   6.679   7.408   5.275
15771TIP3   OH247189   5.658   5.627   5.832
15771TIP3    H147190   5.630   5.593   5.747
15771TIP3    H247191   5.646   5.553   5.892
15772TIP3   OH247192   5.177   6.884   5.216
15772TIP3    H147193   5.131   6.919   5.293
15772TIP3    H247194   5.133   6.926   5.142
15773TIP3   OH247195   5.380   7.419   6.293
15773TIP3    H147196   5.464   7.420   6.339
15773TIP3    H247197   5.357   7.326   6.288
15774TIP3   OH247198   5.848   7.327   6.325
15774TIP3    H147199   5.938   7.297   6.337
15774TIP3    H247200   5.813   7.273   6.254
15775TIP3   OH247201   5.807   6.930   4.453
15775TIP3    H147202   5.759   6.860   4.497
15775TIP3    H247203   5.882   6.886   4.411
15776TIP3   OH247204   6.468   7.264   6.078
15776TIP3    H147205   6.479   7.195   6.144
15776TIP3    H247206   6.540   7.325   6.095
15777TIP3   OH247207   6.250   6.970   4.377
15777TIP3    H147208   6.283   6.907   4.440
15777TIP3    H247209   6.308   6.962   4.302
15778TIP3   OH247210   5.486   6.821   6.475
15778TIP3    H147211   5.505   6.728   6.486
15778TIP3    H247212   5.399   6.824   6.435
15779TIP3   OH247213   5.473   6.424   4.674
15779TIP3    H147214   5.524   6.399   4.751
15779TIP3    H247215   5.538   6.437   4.606
15780TIP3   OH247216   6.105   6.903   6.252
15780TIP3    H147217   6.060   6.923   6.170
15780TIP3    H247218   6.138   6.814   6.240
15781TIP3   OH247219   6.054   6.646   4.511
15781TIP3    H147220   6.028   6.656   4.603
15781TIP3    H247221   6.036   6.554   4.491
15782TIP3   OH247222   6.548   6.932   5.890
15782TIP3    H147223   6.597   6.890   5.819
15782TIP3    H247224   6.542   7.024   5.864
15783TIP3   OH247225   5.604   6.567   6.482
15783TIP3    H147226   5.683   6.537   6.439
15783TIP3    H247227   5.631   6.586   6.572
15784TIP3   OH247228   5.647   6.366   4.887
15784TIP3    H147229   5.628   6.332   4.974
15784TIP3    H247230   5.696   6.295   4.845
15785TIP3   OH247231   5.969   6.457   6.138
15785TIP3    H147232   5.881   6.494   6.148
15785TIP3    H247233   5.990   6.472   6.046
15786TIP3   OH247234   5.790   6.186   4.728
15786TIP3    H147235   5.761   6.188   4.637
15786TIP3    H247236   5.885   6.194   4.723
15787TIP3   OH247237   6.466   6.819   6.231
15787TIP3    H147238   6.540   6.787   6.180
15787TIP3    H247239   6.465   6.764   6.309
15788TIP3   OH247240   6.585   6.477   4.405
15788TIP3    H147241   6.572   6.432   4.321
15788TIP3    H247242   6.560   6.568   4.388
15789TIP3   OH247243   6.064   6.221   6.250
15789TIP3    H147244   6.067   6.149   6.187
15789TIP3    H247245   6.033   6.296   6.200
15790TIP3   OH247246   6.072   6.017   6.052
15790TIP3    H147247   6.100   6.046   5.966
15790TIP3    H247248   5.981   5.988   6.039
15791TIP3   OH247249   6.055   6.514   5.882
15791TIP3    H147250   6.143   6.492   5.851
15791TIP3    H247251   6.046   6.608   5.862
15792TIP3   OH247252   6.669   6.502   6.293
15792TIP3    H147253   6.692   6.409   6.297
15792TIP3    H247254   6.752   6.546   6.272
15793TIP3   OH247255   6.698   6.775   6.058
15793TIP3    H147256   6.640   6.834   6.009
15793TIP3    H247257   6.784   6.787   6.018
15794TIP3   OH247258   5.949   6.303   6.493
15794TIP3    H147259   5.882   6.240   6.517
15794TIP3    H247260   5.979   6.276   6.406
15795TIP3   OH247261   6.197   5.786   6.151
15795TIP3    H147262   6.154   5.866   6.121
15795TIP3    H247263   6.131   5.717   6.139
15796TIP3   OH247264   6.322   6.256   6.352
15796TIP3    H147265   6.313   6.242   6.446
15796TIP3    H247266   6.236   6.235   6.316
15797TIP3   OH247267   6.574   6.226   6.226
15797TIP3    H147268   6.494   6.217   6.278
15797TIP3    H247269   6.643   6.190   6.281
15798TIP3   OH247270   6.805   6.174   6.374
15798TIP3    H147271   6.818   6.080   6.382
15798TIP3    H247272   6.799   6.205   6.465
15799TIP3   OH247273   5.786   6.081   6.557
15799TIP3    H147274   5.791   5.993   6.520
15799TIP3    H247275   5.823   6.073   6.645
15800TIP3   OH247276   6.264   5.763   6.417
15800TIP3    H147277   6.332   5.696   6.411
15800TIP3    H247278   6.233   5.774   6.327
15801TIP3   OH247279   6.359   5.981   6.557
15801TIP3    H147280   6.328   5.907   6.505
15801TIP3    H247281   6.285   6.041   6.559
15802TIP3   OH247282   5.616   7.234   4.670
15802TIP3    H147283   5.704   7.210   4.640
15802TIP3    H247284   5.576   7.278   4.595
15803TIP3   OH247285   5.078   6.613   4.847
15803TIP3    H147286   5.173   6.623   4.843
15803TIP3    H247287   5.060   6.528   4.808
15804TIP3   OH247288   4.979   7.196   5.307
15804TIP3    H147289   4.915   7.142   5.261
15804TIP3    H247290   5.024   7.136   5.365
15805TIP3   OH247291   5.124   7.029   5.473
15805TIP3    H147292   5.115   6.958   5.537
15805TIP3    H247293   5.175   7.096   5.519
15806TIP3   OH247294   6.848   7.468   5.276
15806TIP3    H147295   6.883   7.478   5.365
15806TIP3    H247296   6.923   7.485   5.219
15807TIP3   OH247297   6.882   7.464   5.560
15807TIP3    H147298   6.837   7.380   5.551
15807TIP3    H247299   6.952   7.448   5.623
15808TIP3   OH247300   6.942   7.179   6.143
15808TIP3    H147301   6.870   7.182   6.206
15808TIP3    H247302   6.982   7.266   6.148
15809TIP3   OH247303   6.750   6.680   4.740
15809TIP3    H147304   6.810   6.748   4.710
15809TIP3    H247305   6.794   6.639   4.814
15810TIP3   OH247306   6.873   6.537   4.942
15810TIP3    H147307   6.807   6.492   4.995
15810TIP3    H247308   6.939   6.565   5.005
15811TIP3   OH247309   6.972   6.947   5.386
15811TIP3    H147310   6.996   6.859   5.358
15811TIP3    H247311   6.905   6.975   5.323
15812TIP3   OH247312   6.743   7.222   5.570
15812TIP3    H147313   6.676   7.266   5.624
15812TIP3    H247314   6.693   7.180   5.500
15813TIP3   OH247315   6.785   6.445   4.592
15813TIP3    H147316   6.717   6.449   4.524
15813TIP3    H247317   6.770   6.523   4.645
15814TIP3   OH247318   6.651   6.030   4.538
15814TIP3    H147319   6.607   6.052   4.456
15814TIP3    H247320   6.640   5.935   4.547
15815TIP3   OH247321   6.673   6.385   5.067
15815TIP3    H147322   6.678   6.293   5.042
15815TIP3    H247323   6.660   6.384   5.162
15816TIP3   OH247324   5.305   6.463   5.855
15816TIP3    H147325   5.293   6.426   5.767
15816TIP3    H247326   5.400   6.458   5.869
15817TIP3   OH247327   6.943   6.817   5.934
15817TIP3    H147328   7.012   6.754   5.911
15817TIP3    H247329   6.921   6.860   5.852
15818TIP3   OH247330   7.138   6.608   5.935
15818TIP3    H147331   7.063   6.569   5.980
15818TIP3    H247332   7.212   6.552   5.958
15819TIP3   OH247333   6.669   6.119   4.960
15819TIP3    H147334   6.713   6.037   4.983
15819TIP3    H247335   6.713   6.149   4.880
15820TIP3   OH247336   6.844   6.274   5.496
15820TIP3    H147337   6.923   6.296   5.446
15820TIP3    H247338   6.855   6.320   5.580
15821TIP3   OH247339   6.908   6.434   5.718
15821TIP3    H147340   6.834   6.457   5.774
15821TIP3    H247341   6.932   6.516   5.674
15822TIP3   OH247342   5.521   6.143   6.498
15822TIP3    H147343   5.615   6.139   6.516
15822TIP3    H247344   5.487   6.060   6.532
15823TIP3   OH247345   7.362   6.030   6.257
15823TIP3    H147346   7.428   5.976   6.213
15823TIP3    H247347   7.323   6.082   6.186
15824TIP3   OH247348   6.782   5.878   5.032
15824TIP3    H147349   6.831   5.860   5.112
15824TIP3    H247350   6.718   5.806   5.026
15825TIP3   OH247351   5.496   5.853   5.842
15825TIP3    H147352   5.548   5.772   5.850
15825TIP3    H247353   5.561   5.921   5.824
15826TIP3   OH247354   5.269   6.107   5.906
15826TIP3    H147355   5.321   6.098   5.826
15826TIP3    H247356   5.301   6.188   5.946
15827TIP3   OH247357   7.211   6.151   6.062
15827TIP3    H147358   7.128   6.189   6.090
15827TIP3    H247359   7.186   6.078   6.006
15828TIP3   OH247360   6.894   5.720   4.656
15828TIP3    H147361   6.850   5.657   4.599
15828TIP3    H247362   6.871   5.806   4.620
15829TIP3   OH247363   5.264   5.655   5.431
15829TIP3    H147364   5.174   5.631   5.454
15829TIP3    H247365   5.256   5.695   5.344
15830TIP3   OH247366   6.414   7.344   4.926
15830TIP3    H147367   6.472   7.333   4.850
15830TIP3    H247368   6.456   7.411   4.979
15831TIP3   OH247369   5.493   5.700   6.241
15831TIP3    H147370   5.438   5.681   6.318
15831TIP3    H247371   5.433   5.741   6.179
15832TIP3   OH247372   5.524   7.132   6.317
15832TIP3    H147373   5.430   7.119   6.303
15832TIP3    H247374   5.536   7.120   6.411
15833TIP3   OH247375   5.743   7.179   5.839
15833TIP3    H147376   5.690   7.253   5.809
15833TIP3    H247377   5.821   7.219   5.876
15834TIP3   OH247378   6.118   7.447   5.993
15834TIP3    H147379   6.156   7.416   6.075
15834TIP3    H247380   6.191   7.486   5.945
15835TIP3   OH247381   6.328   7.569   5.860
15835TIP3    H147382   6.396   7.522   5.812
15835TIP3    H247383   6.376   7.630   5.917
15836TIP3   OH247384   7.124   5.901   5.954
15836TIP3    H147385   7.038   5.895   5.914
15836TIP3    H247386   7.160   5.812   5.946
15837TIP3   OH247387   5.396   7.433   5.898
15837TIP3    H147388   5.304   7.447   5.876
15837TIP3    H247389   5.415   7.498   5.965
15838TIP3   OH247390   5.623   7.406   5.744
15838TIP3    H147391   5.542   7.415   5.795
15838TIP3    H247392   5.599   7.437   5.656
15839TIP3   OH247393   6.054   7.439   5.519
15839TIP3    H147394   5.971   7.445   5.472
15839TIP3    H247395   6.058   7.519   5.571
15840TIP3   OH247396   6.306   7.357   5.589
15840TIP3    H147397   6.215   7.377   5.569
15840TIP3    H247398   6.356   7.426   5.546
15841TIP3   OH247399   6.504   7.548   5.496
15841TIP3    H147400   6.497   7.635   5.458
15841TIP3    H247401   6.532   7.492   5.424
15842TIP3   OH247402   5.297   7.206   5.624
15842TIP3    H147403   5.325   7.180   5.711
15842TIP3    H247404   5.365   7.173   5.566
15843TIP3   OH247405   5.491   7.094   5.471
15843TIP3    H147406   5.506   7.011   5.517
15843TIP3    H247407   5.577   7.136   5.468
15844TIP3   OH247408   5.753   7.191   5.506
15844TIP3    H147409   5.789   7.103   5.493
15844TIP3    H247410   5.761   7.206   5.600
15845TIP3   OH247411   6.336   5.829   5.587
15845TIP3    H147412   6.298   5.757   5.637
15845TIP3    H247413   6.406   5.789   5.535
15846TIP3   OH247414   6.834   5.757   5.496
15846TIP3    H147415   6.870   5.800   5.419
15846TIP3    H247416   6.739   5.770   5.489
15847TIP3   OH247417   6.944   5.814   5.250
15847TIP3    H147418   7.014   5.758   5.215
15847TIP3    H247419   6.979   5.903   5.243
15848TIP3   OH247420   5.575   5.525   5.589
15848TIP3    H147421   5.486   5.490   5.596
15848TIP3    H247422   5.631   5.447   5.581
15849TIP3   OH247423   5.417   5.437   5.236
15849TIP3    H147424   5.431   5.496   5.162
15849TIP3    H247425   5.357   5.484   5.294
15850TIP3   OH247426   6.048   5.569   5.485
15850TIP3    H147427   6.098   5.616   5.418
15850TIP3    H247428   6.090   5.594   5.568
15851TIP3   OH247429   6.548   5.704   5.458
15851TIP3    H147430   6.575   5.667   5.374
15851TIP3    H247431   6.552   5.630   5.519
15852TIP3   OH247432   6.594   5.676   5.038
15852TIP3    H147433   6.512   5.722   5.054
15852TIP3    H247434   6.586   5.595   5.088
15853TIP3   OH247435   5.061   7.006   4.999
15853TIP3    H147436   4.978   6.974   4.966
15853TIP3    H247437   5.066   7.097   4.968
15854TIP3   OH247438   5.492   5.581   5.006
15854TIP3    H147439   5.535   5.515   4.951
15854TIP3    H247440   5.564   5.635   5.039
15855TIP3   OH247441   5.985   5.759   5.101
15855TIP3    H147442   6.044   5.709   5.158
15855TIP3    H247443   5.996   5.850   5.128
15856TIP3   OH247444   5.868   7.154   4.595
15856TIP3    H147445   5.951   7.182   4.556
15856TIP3    H247446   5.838   7.083   4.539
15857TIP3   OH247447   6.565   7.300   4.695
15857TIP3    H147448   6.562   7.204   4.690
15857TIP3    H247449   6.520   7.329   4.616
15858TIP3   OH247450   5.800   5.810   6.473
15858TIP3    H147451   5.763   5.745   6.533
15858TIP3    H247452   5.892   5.817   6.498
15859TIP3   OH247453   6.047   5.813   6.596
15859TIP3    H147454   6.125   5.789   6.546
15859TIP3    H247455   6.040   5.745   6.663
15860TIP3   OH247456   5.178   6.998   4.653
15860TIP3    H147457   5.178   7.003   4.748
15860TIP3    H247458   5.258   6.951   4.631
15861TIP3   OH247459   6.868   5.904   6.379
15861TIP3    H147460   6.885   5.874   6.469
15861TIP3    H247461   6.953   5.898   6.336
15862TIP3   OH247462   6.787   7.440   5.887
15862TIP3    H147463   6.716   7.407   5.833
15862TIP3    H247464   6.771   7.534   5.893
15863TIP3   OH247465   8.065   6.826   4.623
15863TIP3    H147466   8.035   6.913   4.597
15863TIP3    H247467   7.995   6.767   4.597
15864TIP3   OH247468   8.064   6.818   5.050
15864TIP3    H147469   8.117   6.798   5.127
15864TIP3    H247470   8.018   6.736   5.030
15865TIP3   OH247471   7.351   6.678   5.388
15865TIP3    H147472   7.387   6.624   5.458
15865TIP3    H247473   7.426   6.701   5.334
15866TIP3   OH247474   8.332   7.126   4.724
15866TIP3    H147475   8.319   7.059   4.792
15866TIP3    H247476   8.351   7.206   4.773
15867TIP3   OH247477   7.354   7.114   5.082
15867TIP3    H147478   7.338   7.020   5.086
15867TIP3    H247479   7.449   7.122   5.071
15868TIP3   OH247480   7.035   6.318   4.858
15868TIP3    H147481   6.985   6.397   4.879
15868TIP3    H247482   6.970   6.258   4.821
15869TIP3   OH247483   7.104   6.609   5.088
15869TIP3    H147484   7.155   6.532   5.112
15869TIP3    H247485   7.168   6.669   5.049
15870TIP3   OH247486   7.989   7.554   4.736
15870TIP3    H147487   8.014   7.491   4.668
15870TIP3    H247488   7.992   7.504   4.817
15871TIP3   OH247489   7.868   7.040   5.050
15871TIP3    H147490   7.912   6.960   5.021
15871TIP3    H247491   7.938   7.097   5.081
15872TIP3   OH247492   8.903   6.363   5.072
15872TIP3    H147493   8.916   6.448   5.114
15872TIP3    H247494   8.930   6.376   4.981
15873TIP3   OH247495   8.278   6.527   5.088
15873TIP3    H147496   8.308   6.440   5.115
15873TIP3    H247497   8.239   6.513   5.002
15874TIP3   OH247498   7.637   6.185   5.044
15874TIP3    H147499   7.609   6.256   4.986
15874TIP3    H247500   7.584   6.110   5.017
15875TIP3   OH247501   8.331   6.305   4.683
15875TIP3    H147502   8.392   6.295   4.756
15875TIP3    H247503   8.385   6.334   4.610
15876TIP3   OH247504   7.256   6.395   5.174
15876TIP3    H147505   7.339   6.375   5.217
15876TIP3    H247506   7.258   6.342   5.095
15877TIP3   OH247507   7.671   6.598   4.995
15877TIP3    H147508   7.765   6.582   4.999
15877TIP3    H247509   7.635   6.516   4.961
15878TIP3   OH247510   8.949   6.585   5.239
15878TIP3    H147511   8.860   6.617   5.230
15878TIP3    H247512   8.979   6.620   5.323
15879TIP3   OH247513   7.610   6.190   5.500
15879TIP3    H147514   7.560   6.222   5.424
15879TIP3    H247515   7.553   6.206   5.575
15880TIP3   OH247516   7.964   7.045   4.486
15880TIP3    H147517   7.923   7.013   4.405
15880TIP3    H247518   7.909   7.119   4.513
15881TIP3   OH247519   7.705   6.962   5.260
15881TIP3    H147520   7.652   7.034   5.294
15881TIP3    H247521   7.753   7.001   5.187
15882TIP3   OH247522   8.481   6.315   4.909
15882TIP3    H147523   8.442   6.287   4.991
15882TIP3    H247524   8.538   6.387   4.932
15883TIP3   OH247525   7.506   6.294   5.265
15883TIP3    H147526   7.561   6.369   5.288
15883TIP3    H247527   7.553   6.251   5.193
15884TIP3   OH247528   7.553   7.168   5.366
15884TIP3    H147529   7.537   7.256   5.334
15884TIP3    H247530   7.478   7.148   5.421
15885TIP3   OH247531   6.926   6.870   4.626
15885TIP3    H147532   6.893   6.885   4.537
15885TIP3    H247533   6.949   6.957   4.657
15886TIP3   OH247534   8.365   7.376   4.861
15886TIP3    H147535   8.277   7.369   4.899
15886TIP3    H247536   8.364   7.460   4.814
15887TIP3   OH247537   8.703   6.251   5.239
15887TIP3    H147538   8.617   6.267   5.200
15887TIP3    H247539   8.765   6.278   5.172
15888TIP3   OH247540   7.956   5.890   5.225
15888TIP3    H147541   7.950   5.795   5.239
15888TIP3    H247542   7.878   5.926   5.267
15889TIP3   OH247543   8.071   7.405   4.516
15889TIP3    H147544   8.124   7.326   4.507
15889TIP3    H247545   8.129   7.476   4.486
15890TIP3   OH247546   8.212   7.176   4.480
15890TIP3    H147547   8.140   7.113   4.477
15890TIP3    H247548   8.263   7.150   4.557
15891TIP3   OH247549   8.600   7.260   5.206
15891TIP3    H147550   8.581   7.185   5.149
15891TIP3    H247551   8.585   7.336   5.150
15892TIP3   OH247552   7.890   6.666   4.476
15892TIP3    H147553   7.806   6.708   4.458
15892TIP3    H247554   7.935   6.664   4.392
15893TIP3   OH247555   7.859   6.470   4.167
15893TIP3    H147556   7.925   6.519   4.216
15893TIP3    H247557   7.908   6.404   4.119
15894TIP3   OH247558   8.779   6.923   5.075
15894TIP3    H147559   8.694   6.967   5.074
15894TIP3    H247560   8.813   6.935   4.987
15895TIP3   OH247561   8.250   6.754   4.435
15895TIP3    H147562   8.196   6.782   4.508
15895TIP3    H247563   8.334   6.730   4.475
15896TIP3   OH247564   8.478   6.782   5.384
15896TIP3    H147565   8.473   6.865   5.430
15896TIP3    H247566   8.396   6.777   5.334
15897TIP3   OH247567   7.473   6.731   4.843
15897TIP3    H147568   7.436   6.670   4.779
15897TIP3    H247569   7.544   6.682   4.884
15898TIP3   OH247570   7.615   7.161   4.982
15898TIP3    H147571   7.589   7.144   4.891
15898TIP3    H247572   7.702   7.120   4.990
15899TIP3   OH247573   7.571   6.726   5.219
15899TIP3    H147574   7.608   6.689   5.139
15899TIP3    H247575   7.620   6.807   5.233
15900TIP3   OH247576   8.127   7.370   4.993
15900TIP3    H147577   8.116   7.449   5.046
15900TIP3    H247578   8.113   7.297   5.054
15901TIP3   OH247579   7.749   7.263   5.538
15901TIP3    H147580   7.687   7.319   5.583
15901TIP3    H247581   7.696   7.211   5.477
15902TIP3   OH247582   8.080   6.613   4.269
15902TIP3    H147583   8.139   6.671   4.316
15902TIP3    H247584   8.109   6.617   4.178
15903TIP3   OH247585   7.493   6.802   5.688
15903TIP3    H147586   7.497   6.896   5.704
15903TIP3    H247587   7.399   6.784   5.680
15904TIP3   OH247588   7.824   7.283   4.527
15904TIP3    H147589   7.906   7.333   4.531
15904TIP3    H247590   7.764   7.337   4.476
15905TIP3   OH247591   7.538   7.419   5.619
15905TIP3    H147592   7.511   7.428   5.527
15905TIP3    H247593   7.456   7.404   5.666
15906TIP3   OH247594   8.582   5.843   4.341
15906TIP3    H147595   8.506   5.860   4.397
15906TIP3    H247596   8.589   5.922   4.287
15907TIP3   OH247597   7.348   6.572   4.644
15907TIP3    H147598   7.269   6.618   4.613
15907TIP3    H247599   7.319   6.482   4.659
15908TIP3   OH247600   8.417   7.216   3.885
15908TIP3    H147601   8.409   7.309   3.862
15908TIP3    H247602   8.506   7.192   3.861
15909TIP3   OH247603   7.156   6.981   5.585
15909TIP3    H147604   7.088   6.970   5.519
15909TIP3    H247605   7.178   6.892   5.612
15910TIP3   OH247606   6.988   7.167   5.182
15910TIP3    H147607   7.070   7.118   5.191
15910TIP3    H247608   6.984   7.220   5.262
15911TIP3   OH247609   8.834   7.621   5.276
15911TIP3    H147610   8.840   7.526   5.289
15911TIP3    H247611   8.755   7.647   5.322
15912TIP3   OH247612   7.937   7.410   5.401
15912TIP3    H147613   7.927   7.500   5.430
15912TIP3    H247614   7.870   7.362   5.450
15913TIP3   OH247615   7.715   7.508   4.353
15913TIP3    H147616   7.671   7.485   4.272
15913TIP3    H247617   7.677   7.592   4.380
15914TIP3   OH247618   7.151   7.372   4.734
15914TIP3    H147619   7.195   7.361   4.819
15914TIP3    H247620   7.102   7.290   4.722
15915TIP3   OH247621   7.918   7.441   3.980
15915TIP3    H147622   7.968   7.367   3.945
15915TIP3    H247623   7.952   7.453   4.068
15916TIP3   OH247624   7.969   7.484   4.250
15916TIP3    H147625   7.882   7.486   4.291
15916TIP3    H247626   8.026   7.446   4.317
15917TIP3   OH247627   8.720   6.734   5.542
15917TIP3    H147628   8.638   6.745   5.495
15917TIP3    H247629   8.739   6.641   5.537
15918TIP3   OH247630   7.345   7.172   5.546
15918TIP3    H147631   7.398   7.157   5.625
15918TIP3    H247632   7.275   7.106   5.551
15919TIP3   OH247633   7.719   5.973   5.357
15919TIP3    H147634   7.637   5.936   5.325
15919TIP3    H247635   7.693   6.053   5.404
15920TIP3   OH247636   8.254   6.087   5.549
15920TIP3    H147637   8.322   6.062   5.612
15920TIP3    H247638   8.172   6.073   5.595
15921TIP3   OH247639   8.480   6.516   5.477
15921TIP3    H147640   8.438   6.513   5.562
15921TIP3    H247641   8.462   6.604   5.444
15922TIP3   OH247642   8.161   6.593   4.007
15922TIP3    H147643   8.112   6.598   3.925
15922TIP3    H247644   8.242   6.640   3.990
15923TIP3   OH247645   7.868   5.998   4.325
15923TIP3    H147646   7.834   6.003   4.414
15923TIP3    H247647   7.821   5.925   4.285
15924TIP3   OH247648   7.655   6.506   5.367
15924TIP3    H147649   7.606   6.510   5.449
15924TIP3    H247650   7.632   6.586   5.321
15925TIP3   OH247651   7.529   6.383   4.887
15925TIP3    H147652   7.441   6.355   4.912
15925TIP3    H247653   7.541   6.351   4.798
15926TIP3   OH247654   8.014   6.461   4.613
15926TIP3    H147655   7.966   6.534   4.572
15926TIP3    H247656   8.071   6.429   4.544
15927TIP3   OH247657   8.196   6.726   5.688
15927TIP3    H147658   8.170   6.658   5.750
15927TIP3    H247659   8.289   6.740   5.707
15928TIP3   OH247660   8.180   6.481   4.837
15928TIP3    H147661   8.111   6.501   4.774
15928TIP3    H247662   8.230   6.410   4.796
15929TIP3   OH247663   7.487   6.522   5.582
15929TIP3    H147664   7.488   6.588   5.651
15929TIP3    H247665   7.467   6.440   5.628
15930TIP3   OH247666   7.538   6.007   4.303
15930TIP3    H147667   7.528   6.009   4.398
15930TIP3    H247668   7.459   6.049   4.269
15931TIP3   OH247669   7.060   6.052   5.196
15931TIP3    H147670   7.145   6.080   5.227
15931TIP3    H247671   7.074   6.033   5.103
15932TIP3   OH247672   7.021   6.026   4.676
15932TIP3    H147673   7.059   6.060   4.595
15932TIP3    H247674   6.943   6.080   4.691
15933TIP3   OH247675   8.228   6.727   5.262
15933TIP3    H147676   8.253   6.661   5.198
15933TIP3    H247677   8.184   6.678   5.332
15934TIP3   OH247678   7.905   6.179   4.939
15934TIP3    H147679   7.823   6.175   4.989
15934TIP3    H247680   7.974   6.168   5.004
15935TIP3   OH247681   7.292   6.254   4.942
15935TIP3    H147682   7.204   6.261   4.905
15935TIP3    H247683   7.315   6.161   4.930
15936TIP3   OH247684   7.554   6.265   4.642
15936TIP3    H147685   7.648   6.273   4.629
15936TIP3    H247686   7.516   6.282   4.556
15937TIP3   OH247687   8.340   6.263   5.149
15937TIP3    H147688   8.321   6.281   5.241
15937TIP3    H247689   8.273   6.201   5.122
15938TIP3   OH247690   7.436   6.291   4.397
15938TIP3    H147691   7.370   6.242   4.348
15938TIP3    H247692   7.489   6.334   4.329
15939TIP3   OH247693   8.540   7.958   5.373
15939TIP3    H147694   8.536   7.971   5.278
15939TIP3    H247695   8.619   8.004   5.400
15940TIP3   OH247696   7.489   7.075   5.776
15940TIP3    H147697   7.570   7.092   5.825
15940TIP3    H247698   7.420   7.079   5.842
15941TIP3   OH247699   7.947   6.550   5.043
15941TIP3    H147700   8.009   6.497   4.993
15941TIP3    H247701   7.943   6.509   5.129
15942TIP3   OH247702   7.449   6.004   4.938
15942TIP3    H147703   7.414   5.933   4.992
15942TIP3    H247704   7.468   5.964   4.853
15943TIP3   OH247705   7.921   6.452   5.305
15943TIP3    H147706   7.833   6.481   5.331
15943TIP3    H247707   7.980   6.503   5.360
15944TIP3   OH247708   7.650   6.798   4.422
15944TIP3    H147709   7.576   6.742   4.399
15944TIP3    H247710   7.624   6.838   4.505
15945TIP3   OH247711   8.543   7.057   5.028
15945TIP3    H147712   8.578   7.106   4.953
15945TIP3    H247713   8.464   7.015   4.994
15946TIP3   OH247714   8.116   6.116   4.326
15946TIP3    H147715   8.024   6.090   4.324
15946TIP3    H247716   8.114   6.211   4.335
15947TIP3   OH247717   8.065   7.145   5.436
15947TIP3    H147718   8.112   7.133   5.519
15947TIP3    H247719   8.022   7.230   5.445
15948TIP3   OH247720   8.176   6.382   4.396
15948TIP3    H147721   8.271   6.387   4.406
15948TIP3    H247722   8.153   6.459   4.345
15949TIP3   OH247723   7.350   6.833   5.070
15949TIP3    H147724   7.385   6.806   4.985
15949TIP3    H247725   7.409   6.794   5.134
15950TIP3   OH247726   7.806   6.960   4.269
15950TIP3    H147727   7.758   7.043   4.265
15950TIP3    H247728   7.749   6.903   4.320
15951TIP3   OH247729   7.218   6.733   5.700
15951TIP3    H147730   7.212   6.703   5.790
15951TIP3    H247731   7.139   6.698   5.658
15952TIP3   OH247732   7.966   6.883   5.730
15952TIP3    H147733   7.895   6.825   5.703
15952TIP3    H247734   8.046   6.840   5.699
15953TIP3   OH247735   8.208   7.433   5.325
15953TIP3    H147736   8.113   7.417   5.329
15953TIP3    H247737   8.230   7.467   5.411
15954TIP3   OH247738   8.592   6.470   4.210
15954TIP3    H147739   8.536   6.424   4.148
15954TIP3    H247740   8.597   6.560   4.176
15955TIP3   OH247741   8.845   7.342   5.297
15955TIP3    H147742   8.751   7.328   5.291
15955TIP3    H247743   8.880   7.312   5.213
15956TIP3   OH247744   8.339   7.285   4.151
15956TIP3    H147745   8.307   7.215   4.208
15956TIP3    H247746   8.356   7.242   4.067
15957TIP3   OH247747   8.315   6.922   4.925
15957TIP3    H147748   8.226   6.899   4.950
15957TIP3    H247749   8.351   6.841   4.886
15958TIP3   OH247750   7.470   7.158   4.740
15958TIP3    H147751   7.467   7.234   4.682
15958TIP3    H247752   7.378   7.142   4.765
15959TIP3   OH247753   7.026   6.439   4.454
15959TIP3    H147754   7.069   6.522   4.477
15959TIP3    H247755   6.945   6.438   4.506
15960TIP3   OH247756   7.557   6.912   4.648
15960TIP3    H147757   7.539   7.001   4.679
15960TIP3    H247758   7.529   6.856   4.721
15961TIP3   OH247759   7.752   7.481   5.194
15961TIP3    H147760   7.789   7.553   5.143
15961TIP3    H247761   7.826   7.447   5.244
15962TIP3   OH247762   7.387   7.383   4.591
15962TIP3    H147763   7.300   7.389   4.630
15962TIP3    H247764   7.422   7.472   4.594
15963TIP3   OH247765   8.102   7.146   5.162
15963TIP3    H147766   8.090   7.142   5.257
15963TIP3    H247767   8.173   7.085   5.145
15964TIP3   OH247768   8.100   7.024   4.032
15964TIP3    H147769   8.149   6.996   4.109
15964TIP3    H247770   8.016   6.978   4.039
15965TIP3   OH247771   8.364   7.635   5.205
15965TIP3    H147772   8.296   7.573   5.228
15965TIP3    H247773   8.325   7.689   5.136
15966TIP3   OH247774   8.406   7.489   3.837
15966TIP3    H147775   8.415   7.545   3.760
15966TIP3    H247776   8.337   7.530   3.889
15967TIP3   OH247777   7.434   6.269   5.703
15967TIP3    H147778   7.339   6.280   5.705
15967TIP3    H247779   7.453   6.209   5.775
15968TIP3   OH247780   8.273   6.939   4.227
15968TIP3    H147781   8.257   6.885   4.304
15968TIP3    H247782   8.368   6.946   4.222
15969TIP3   OH247783   7.165   7.377   5.364
15969TIP3    H147784   7.220   7.311   5.407
15969TIP3    H247785   7.190   7.460   5.404
15970TIP3   OH247786   7.449   6.986   4.049
15970TIP3    H147787   7.458   6.895   4.021
15970TIP3    H247788   7.433   6.981   4.143
15971TIP3   OH247789   7.390   7.004   4.321
15971TIP3    H147790   7.456   6.976   4.385
15971TIP3    H247791   7.390   7.100   4.326
15972TIP3   OH247792   7.122   6.692   4.533
15972TIP3    H147793   7.058   6.741   4.584
15972TIP3    H247794   7.142   6.749   4.459
15973TIP3   OH247795   8.285   6.325   5.412
15973TIP3    H147796   8.365   6.366   5.445
15973TIP3    H247797   8.275   6.245   5.463
15974TIP3   OH247798   8.181   6.092   4.596
15974TIP3    H147799   8.158   6.107   4.504
15974TIP3    H247800   8.223   6.173   4.624
15975TIP3   OH247801   7.663   7.191   4.261
15975TIP3    H147802   7.577   7.214   4.297
15975TIP3    H247803   7.684   7.262   4.201
15976TIP3   OH247804   7.835   6.263   4.682
15976TIP3    H147805   7.895   6.333   4.657
15976TIP3    H247806   7.856   6.245   4.774
15977TIP3   OH247807   8.128   6.563   5.458
15977TIP3    H147808   8.150   6.603   5.542
15977TIP3    H247809   8.175   6.480   5.458
15978TIP3   OH247810   8.009   5.974   4.774
15978TIP3    H147811   7.978   6.047   4.829
15978TIP3    H247812   8.070   6.015   4.713
15979TIP3   OH247813   7.413   7.277   4.338
15979TIP3    H147814   7.393   7.349   4.278
15979TIP3    H247815   7.402   7.315   4.426
15980TIP3   OH247816   7.512   5.992   4.580
15980TIP3    H147817   7.500   6.081   4.614
15980TIP3    H247818   7.606   5.975   4.590
15981TIP3   OH247819   8.743   6.458   5.452
15981TIP3    H147820   8.649   6.469   5.464
15981TIP3    H247821   8.750   6.398   5.377
15982TIP3   OH247822   8.408   6.665   4.836
15982TIP3    H147823   8.329   6.610   4.846
15982TIP3    H247824   8.473   6.623   4.892
15983TIP3   OH247825   7.146   6.870   4.316
15983TIP3    H147826   7.219   6.933   4.323
15983TIP3    H247827   7.177   6.806   4.251
15984TIP3   OH247828   7.060   6.163   4.441
15984TIP3    H147829   7.058   6.259   4.444
15984TIP3    H247830   6.989   6.139   4.382
15985TIP3   OH247831   8.386   7.646   4.778
15985TIP3    H147832   8.343   7.694   4.708
15985TIP3    H247833   8.479   7.664   4.766
15986TIP3   OH247834   7.459   5.881   5.318
15986TIP3    H147835   7.429   5.851   5.233
15986TIP3    H247836   7.453   5.805   5.375
15987TIP3   OH247837   6.977   7.148   4.700
15987TIP3    H147838   6.930   7.181   4.776
15987TIP3    H247839   6.935   7.190   4.625
15988TIP3   OH247840   7.178   7.669   5.779
15988TIP3    H147841   7.266   7.665   5.817
15988TIP3    H247842   7.154   7.578   5.764
15989TIP3   OH247843   7.652   7.581   5.807
15989TIP3    H147844   7.742   7.551   5.818
15989TIP3    H247845   7.617   7.527   5.736
15990TIP3   OH247846   7.602   7.188   3.939
15990TIP3    H147847   7.555   7.118   3.983
15990TIP3    H247848   7.676   7.145   3.897
15991TIP3   OH247849   8.264   7.527   5.576
15991TIP3    H147850   8.278   7.457   5.640
15991TIP3    H247851   8.337   7.587   5.589
15992TIP3   OH247852   8.045   7.230   3.861
15992TIP3    H147853   8.079   7.165   3.922
15992TIP3    H247854   8.102   7.223   3.784
15993TIP3   OH247855   7.286   7.085   5.969
15993TIP3    H147856   7.303   6.991   5.980
15993TIP3    H247857   7.202   7.089   5.924
15994TIP3   OH247858   7.269   6.681   4.162
15994TIP3    H147859   7.320   6.655   4.239
15994TIP3    H247860   7.335   6.694   4.094
15995TIP3   OH247861   7.900   7.159   5.744
15995TIP3    H147862   7.856   7.179   5.662
15995TIP3    H247863   7.934   7.070   5.732
15996TIP3   OH247864   7.850   6.903   4.004
15996TIP3    H147865   7.825   6.914   4.095
15996TIP3    H247866   7.830   6.811   3.984
15997TIP3   OH247867   8.378   7.208   5.364
15997TIP3    H147868   8.455   7.234   5.313
15997TIP3    H247869   8.312   7.274   5.345
15998TIP3   OH247870   7.398   6.832   5.975
15998TIP3    H147871   7.468   6.798   5.919
15998TIP3    H247872   7.439   6.843   6.061
15999TIP3   OH247873   7.442   6.621   4.375
15999TIP3    H147874   7.420   6.588   4.463
15999TIP3    H247875   7.490   6.548   4.335
16000TIP3   OH247876   7.760   6.711   5.638
16000TIP3    H147877   7.670   6.744   5.645
16000TIP3    H247878   7.788   6.737   5.550
16001TIP3   OH247879   7.587   6.439   4.221
16001TIP3    H147880   7.556   6.442   4.130
16001TIP3    H247881   7.682   6.447   4.215
16002TIP3   OH247882   8.258   7.080   5.714
16002TIP3    H147883   8.324   7.039   5.657
16002TIP3    H247884   8.254   7.022   5.790
16003TIP3   OH247885   8.380   6.726   3.898
16003TIP3    H147886   8.365   6.686   3.812
16003TIP3    H247887   8.357   6.818   3.886
16004TIP3   OH247888   7.864   6.476   5.737
16004TIP3    H147889   7.863   6.406   5.672
16004TIP3    H247890   7.828   6.552   5.690
16005TIP3   OH247891   7.869   6.277   5.535
16005TIP3    H147892   7.895   6.311   5.449
16005TIP3    H247893   7.778   6.248   5.522
16006TIP3   OH247894   7.871   6.799   5.406
16006TIP3    H147895   7.961   6.828   5.388
16006TIP3    H247896   7.816   6.859   5.355
16007TIP3   OH247897   8.466   6.759   5.783
16007TIP3    H147898   8.504   6.671   5.784
16007TIP3    H247899   8.541   6.817   5.768
16008TIP3   OH247900   8.497   7.026   5.526
16008TIP3    H147901   8.444   7.089   5.477
16008TIP3    H247902   8.586   7.039   5.494
16009TIP3   OH247903   7.750   6.554   5.983
16009TIP3    H147904   7.678   6.493   6.002
16009TIP3    H247905   7.775   6.533   5.893
16010TIP3   OH247906   7.992   6.046   5.638
16010TIP3    H147907   7.950   6.126   5.604
16010TIP3    H247908   7.927   5.978   5.625
16011TIP3   OH247909   8.117   6.512   5.842
16011TIP3    H147910   8.103   6.499   5.936
16011TIP3    H247911   8.032   6.493   5.803
16012TIP3   OH247912   8.364   6.475   5.716
16012TIP3    H147913   8.284   6.471   5.768
16012TIP3    H247914   8.433   6.446   5.776
16013TIP3   OH247915   8.603   6.437   5.862
16013TIP3    H147916   8.614   6.342   5.866
16013TIP3    H247917   8.598   6.464   5.954
16014TIP3   OH247918   7.578   6.337   6.044
16014TIP3    H147919   7.583   6.249   6.007
16014TIP3    H247920   7.617   6.328   6.131
16015TIP3   OH247921   8.057   6.020   5.904
16015TIP3    H147922   8.124   5.952   5.896
16015TIP3    H247923   8.027   6.034   5.814
16016TIP3   OH247924   8.153   6.231   6.053
16016TIP3    H147925   8.122   6.160   5.997
16016TIP3    H247926   8.080   6.294   6.053
16017TIP3   OH247927   7.412   7.490   4.161
16017TIP3    H147928   7.500   7.468   4.130
16017TIP3    H247929   7.369   7.531   4.085
16018TIP3   OH247930   6.874   6.869   4.340
16018TIP3    H147931   6.968   6.879   4.332
16018TIP3    H247932   6.855   6.786   4.297
16019TIP3   OH247933   6.769   7.458   4.784
16019TIP3    H147934   6.705   7.402   4.741
16019TIP3    H247935   6.815   7.400   4.844
16020TIP3   OH247936   6.920   7.303   4.952
16020TIP3    H147937   6.917   7.233   5.016
16020TIP3    H247938   6.971   7.372   4.994
16021TIP3   OH247939   8.650   7.721   4.765
16021TIP3    H147940   8.685   7.725   4.854
16021TIP3    H247941   8.725   7.736   4.709
16022TIP3   OH247942   8.693   7.706   5.046
16022TIP3    H147943   8.642   7.626   5.039
16022TIP3    H247944   8.758   7.688   5.113
16023TIP3   OH247945   8.732   7.419   5.622
16023TIP3    H147946   8.659   7.429   5.682
16023TIP3    H247947   8.777   7.503   5.623
16024TIP3   OH247948   8.553   6.937   4.229
16024TIP3    H147949   8.609   7.008   4.199
16024TIP3    H247950   8.599   6.899   4.304
16025TIP3   OH247951   8.683   6.796   4.431
16025TIP3    H147952   8.615   6.760   4.488
16025TIP3    H247953   8.747   6.834   4.491
16026TIP3   OH247954   8.726   7.195   4.866
16026TIP3    H147955   8.776   7.123   4.827
16026TIP3    H247956   8.734   7.266   4.801
16027TIP3   OH247957   8.537   7.479   5.053
16027TIP3    H147958   8.471   7.526   5.104
16027TIP3    H247959   8.488   7.440   4.981
16028TIP3   OH247960   8.589   6.711   4.076
16028TIP3    H147961   8.517   6.709   4.012
16028TIP3    H247962   8.572   6.789   4.128
16029TIP3   OH247963   8.443   6.357   4.013
16029TIP3    H147964   8.395   6.394   3.938
16029TIP3    H247965   8.432   6.262   4.002
16030TIP3   OH247966   8.479   6.658   4.567
16030TIP3    H147967   8.482   6.564   4.551
16030TIP3    H247968   8.459   6.666   4.660
16031TIP3   OH247969   7.081   6.694   5.347
16031TIP3    H147970   7.074   6.668   5.255
16031TIP3    H247971   7.175   6.698   5.364
16032TIP3   OH247972   8.753   7.071   5.429
16032TIP3    H147973   8.820   7.005   5.412
16032TIP3    H247974   8.765   7.136   5.359
16033TIP3   OH247975   8.931   6.862   5.422
16033TIP3    H147976   8.856   6.820   5.465
16033TIP3    H247977   9.006   6.807   5.445
16034TIP3   OH247978   8.401   6.085   3.989
16034TIP3    H147979   8.464   6.060   4.057
16034TIP3    H247980   8.319   6.047   4.018
16035TIP3   OH247981   8.471   6.381   4.452
16035TIP3    H147982   8.512   6.295   4.463
16035TIP3    H247983   8.512   6.417   4.373
16036TIP3   OH247984   8.622   6.543   4.980
16036TIP3    H147985   8.703   6.561   4.932
16036TIP3    H247986   8.635   6.584   5.066
16037TIP3   OH247987   8.693   6.694   5.207
16037TIP3    H147988   8.619   6.723   5.261
16037TIP3    H247989   8.723   6.775   5.164
16038TIP3   OH247990   7.313   6.401   5.993
16038TIP3    H147991   7.408   6.394   6.005
16038TIP3    H247992   7.278   6.319   6.028
16039TIP3   OH247993   9.157   6.290   5.747
16039TIP3    H147994   9.214   6.226   5.703
16039TIP3    H247995   9.118   6.340   5.676
16040TIP3   OH247996   8.571   6.124   4.504
16040TIP3    H147997   8.619   6.106   4.585
16040TIP3    H247998   8.509   6.052   4.496
16041TIP3   OH247999   7.298   6.109   5.330
16041TIP3    H148000   7.349   6.028   5.335
16041TIP3    H248001   7.362   6.176   5.308
16042TIP3   OH248002   7.074   6.386   5.392
16042TIP3    H148003   7.129   6.366   5.316
16042TIP3    H248004   7.079   6.481   5.401
16043TIP3   OH248005   9.008   6.405   5.550
16043TIP3    H148006   8.928   6.444   5.583
16043TIP3    H248007   8.979   6.334   5.493
16044TIP3   OH248008   8.627   6.040   4.150
16044TIP3    H148009   8.675   5.978   4.094
16044TIP3    H248010   8.682   6.118   4.150
16045TIP3   OH248011   7.053   5.950   4.938
16045TIP3    H148012   6.968   5.906   4.949
16045TIP3    H248013   7.060   5.966   4.844
16046TIP3   OH248014   8.217   7.604   4.411
16046TIP3    H148015   8.275   7.592   4.336
16046TIP3    H248016   8.260   7.671   4.464
16047TIP3   OH248017   7.289   5.947   5.726
16047TIP3    H148018   7.235   5.937   5.804
16047TIP3    H248019   7.233   5.992   5.663
16048TIP3   OH248020   7.318   7.393   5.790
16048TIP3    H148021   7.225   7.377   5.780
16048TIP3    H248022   7.339   7.360   5.878
16049TIP3   OH248023   7.521   7.444   5.339
16049TIP3    H148024   7.472   7.520   5.308
16049TIP3    H248025   7.607   7.453   5.296
16050TIP3   OH248026   7.919   7.675   5.480
16050TIP3    H148027   7.957   7.667   5.568
16050TIP3    H248028   7.981   7.730   5.432
16051TIP3   OH248029   8.108   7.830   5.352
16051TIP3    H148030   8.168   7.776   5.301
16051TIP3    H248031   8.165   7.883   5.407
16052TIP3   OH248032   8.920   6.157   5.440
16052TIP3    H148033   8.833   6.151   5.401
16052TIP3    H248034   8.955   6.068   5.436
16053TIP3   OH248035   7.187   7.693   5.389
16053TIP3    H148036   7.096   7.714   5.368
16053TIP3    H248037   7.212   7.757   5.456
16054TIP3   OH248038   7.416   7.678   5.238
16054TIP3    H148039   7.333   7.684   5.285
16054TIP3    H248040   7.393   7.699   5.147
16055TIP3   OH248041   7.830   7.690   5.030
16055TIP3    H148042   7.758   7.700   4.967
16055TIP3    H248043   7.839   7.776   5.070
16056TIP3   OH248044   8.096   7.634   5.081
16056TIP3    H148045   8.004   7.649   5.060
16056TIP3    H248046   8.143   7.701   5.031
16057TIP3   OH248047   8.303   7.809   4.985
16057TIP3    H148048   8.290   7.894   4.943
16057TIP3    H248049   8.330   7.751   4.914
16058TIP3   OH248050   7.093   7.470   5.113
16058TIP3    H148051   7.114   7.439   5.201
16058TIP3    H248052   7.163   7.435   5.057
16059TIP3   OH248053   7.295   7.356   4.970
16059TIP3    H148054   7.306   7.270   5.012
16059TIP3    H248055   7.383   7.395   4.972
16060TIP3   OH248056   7.566   7.436   4.990
16060TIP3    H148057   7.585   7.344   4.973
16060TIP3    H248058   7.620   7.458   5.066
16061TIP3   OH248059   8.130   6.079   5.085
16061TIP3    H148060   8.080   6.013   5.133
16061TIP3    H248061   8.194   6.028   5.036
16062TIP3   OH248062   8.615   5.981   4.960
16062TIP3    H148063   8.647   6.016   4.878
16062TIP3    H248064   8.519   5.984   4.953
16063TIP3   OH248065   8.734   6.057   4.717
16063TIP3    H148066   8.800   5.994   4.688
16063TIP3    H248067   8.776   6.142   4.711
16064TIP3   OH248068   7.367   5.779   5.080
16064TIP3    H148069   7.277   5.748   5.085
16064TIP3    H248070   7.419   5.700   5.072
16065TIP3   OH248071   7.169   5.677   4.678
16065TIP3    H148072   7.199   5.753   4.627
16065TIP3    H248073   7.073   5.687   4.679
16066TIP3   OH248074   7.839   5.843   4.964
16066TIP3    H148075   7.902   5.873   4.899
16066TIP3    H248076   7.881   5.859   5.048
16067TIP3   OH248077   8.327   5.932   4.946
16067TIP3    H148078   8.302   5.912   4.856
16067TIP3    H248079   8.314   5.850   4.993
16068TIP3   OH248080   8.371   5.910   4.512
16068TIP3    H148081   8.314   5.981   4.540
16068TIP3    H248082   8.321   5.830   4.528
16069TIP3   OH248083   6.858   7.275   4.485
16069TIP3    H148084   6.776   7.236   4.453
16069TIP3    H248085   6.858   7.364   4.450
16070TIP3   OH248086   7.296   5.842   4.483
16070TIP3    H148087   7.342   5.773   4.435
16070TIP3    H248088   7.366   5.892   4.525
16071TIP3   OH248089   7.789   6.008   4.591
16071TIP3    H148090   7.846   5.959   4.651
16071TIP3    H248091   7.802   6.100   4.616
16072TIP3   OH248092   7.664   7.411   4.084
16072TIP3    H148093   7.746   7.439   4.045
16072TIP3    H248094   7.633   7.341   4.027
16073TIP3   OH248095   8.370   7.555   4.185
16073TIP3    H148096   8.365   7.459   4.179
16073TIP3    H248097   8.324   7.587   4.108
16074TIP3   OH248098   7.595   6.066   5.962
16074TIP3    H148099   7.561   5.997   6.019
16074TIP3    H248100   7.687   6.074   5.987
16075TIP3   OH248101   7.844   6.074   6.085
16075TIP3    H148102   7.919   6.049   6.031
16075TIP3    H248103   7.835   6.003   6.148
16076TIP3   OH248104   6.976   7.263   4.137
16076TIP3    H148105   6.975   7.258   4.233
16076TIP3    H248106   7.055   7.215   4.111
16077TIP3   OH248107   8.661   6.165   5.862
16077TIP3    H148108   8.677   6.134   5.951
16077TIP3    H248109   8.746   6.158   5.818
16078TIP3   OH248110   8.583   7.686   5.371
16078TIP3    H148111   8.510   7.656   5.318
16078TIP3    H248112   8.568   7.780   5.382
16079TIP3   OH248113   9.744   7.116   4.136
16079TIP3    H148114   9.784   7.201   4.157
16079TIP3    H248115   9.651   7.128   4.151
16080TIP3   OH248116   9.758   7.065   4.551
16080TIP3    H148117   9.820   7.086   4.621
16080TIP3    H248118   9.808   7.012   4.489
16081TIP3   OH248119   9.150   6.944   4.881
16081TIP3    H148120   9.188   6.895   4.954
16081TIP3    H248121   9.225   6.970   4.828
16082TIP3   OH248122   9.127   7.358   4.573
16082TIP3    H148123   9.114   7.263   4.573
16082TIP3    H248124   9.221   7.369   4.561
16083TIP3   OH248125   8.823   6.565   4.352
16083TIP3    H148126   8.786   6.651   4.375
16083TIP3    H248127   8.751   6.520   4.307
16084TIP3   OH248128   8.910   6.884   4.573
16084TIP3    H148129   8.960   6.806   4.597
16084TIP3    H248130   8.977   6.949   4.550
16085TIP3   OH248131   9.786   7.819   4.267
16085TIP3    H148132   9.841   7.763   4.213
16085TIP3    H248133   9.779   7.773   4.351
16086TIP3   OH248134   9.627   7.306   4.537
16086TIP3    H148135   9.660   7.219   4.518
16086TIP3    H248136   9.706   7.357   4.560
16087TIP3   OH248137   0.248   6.930   4.589
16087TIP3    H148138   0.320   6.867   4.593
16087TIP3    H248139   0.206   6.913   4.505
16088TIP3   OH248140   9.389   6.429   4.537
16088TIP3    H148141   9.372   6.504   4.480
16088TIP3    H248142   9.336   6.359   4.500
16089TIP3   OH248143   0.350   6.431   4.159
16089TIP3    H148144   0.375   6.400   4.246
16089TIP3    H248145   0.362   6.526   4.163
16090TIP3   OH248146   9.044   6.659   4.663
16090TIP3    H148147   9.125   6.636   4.708
16090TIP3    H248148   9.045   6.606   4.583
16091TIP3   OH248149   9.447   6.837   4.483
16091TIP3    H148150   9.535   6.805   4.505
16091TIP3    H248151   9.403   6.762   4.443
16092TIP3   OH248152   9.389   6.470   5.009
16092TIP3    H148153   9.341   6.505   4.934
16092TIP3    H248154   9.333   6.489   5.084
16093TIP3   OH248155   9.492   7.224   4.760
16093TIP3    H148156   9.437   7.293   4.795
16093TIP3    H248157   9.536   7.263   4.685
16094TIP3   OH248158   9.282   6.547   4.763
16094TIP3    H148159   9.335   6.624   4.778
16094TIP3    H248160   9.325   6.501   4.691
16095TIP3   OH248161   9.336   7.425   4.859
16095TIP3    H148162   9.328   7.516   4.831
16095TIP3    H248163   9.257   7.410   4.911
16096TIP3   OH248164   8.722   7.128   4.111
16096TIP3    H148165   8.687   7.144   4.023
16096TIP3    H248166   8.744   7.215   4.145
16097TIP3   OH248167   9.665   6.189   4.691
16097TIP3    H148168   9.674   6.102   4.729
16097TIP3    H248169   9.599   6.233   4.744
16098TIP3   OH248170   0.127   7.671   4.074
16098TIP3    H148171   0.125   7.590   4.125
16098TIP3    H248172   0.054   7.662   4.012
16099TIP3   OH248173   9.656   6.934   3.902
16099TIP3    H148174   9.576   6.986   3.902
16099TIP3    H248175   9.727   6.998   3.909
16100TIP3   OH248176   9.614   6.762   3.682
16100TIP3    H148177   9.629   6.818   3.759
16100TIP3    H248178   9.693   6.709   3.675
16101TIP3   OH248179   9.268   6.988   4.329
16101TIP3    H148180   9.229   6.928   4.264
16101TIP3    H248181   9.336   6.936   4.371
16102TIP3   OH248182   9.383   7.413   4.469
16102TIP3    H148183   9.369   7.400   4.376
16102TIP3    H248184   9.471   7.379   4.486
16103TIP3   OH248185   9.361   6.991   4.701
16103TIP3    H148186   9.401   6.953   4.622
16103TIP3    H248187   9.413   7.070   4.718
16104TIP3   OH248188   0.048   7.676   4.529
16104TIP3    H148189   0.127   7.678   4.583
16104TIP3    H248190   0.023   7.583   4.527
16105TIP3   OH248191   9.540   7.522   5.020
16105TIP3    H148192   9.482   7.583   5.066
16105TIP3    H248193   9.482   7.472   4.962
16106TIP3   OH248194   0.130   6.831   3.815
16106TIP3    H148195   0.133   6.925   3.831
16106TIP3    H248196   0.112   6.823   3.721
16107TIP3   OH248197   9.294   7.067   5.167
16107TIP3    H148198   9.301   7.161   5.186
16107TIP3    H248199   9.200   7.050   5.163
16108TIP3   OH248200   9.692   7.548   3.984
16108TIP3    H148201   9.731   7.490   4.049
16108TIP3    H248202   9.598   7.540   3.999
16109TIP3   OH248203   9.338   7.684   5.119
16109TIP3    H148204   9.315   7.697   5.027
16109TIP3    H248205   9.255   7.669   5.162
16110TIP3   OH248206   9.140   6.829   4.132
16110TIP3    H148207   9.063   6.878   4.102
16110TIP3    H248208   9.109   6.739   4.141
16111TIP3   OH248209   8.927   7.235   5.061
16111TIP3    H148210   8.857   7.217   4.998
16111TIP3    H248211   8.961   7.148   5.083
16112TIP3   OH248212   8.813   7.411   4.701
16112TIP3    H148213   8.903   7.398   4.670
16112TIP3    H248214   8.820   7.486   4.761
16113TIP3   OH248215   9.758   7.633   4.894
16113TIP3    H148216   9.751   7.727   4.913
16113TIP3    H248217   9.680   7.595   4.935
16114TIP3   OH248218   9.507   7.823   3.780
16114TIP3    H148219   9.465   7.784   3.704
16114TIP3    H248220   9.435   7.859   3.832
16115TIP3   OH248221   8.947   7.615   4.220
16115TIP3    H148222   8.991   7.607   4.305
16115TIP3    H248223   8.896   7.534   4.212
16116TIP3   OH248224   9.727   7.694   3.477
16116TIP3    H148225   9.812   7.654   3.459
16116TIP3    H248226   9.726   7.705   3.572
16117TIP3   OH248227   9.740   7.688   3.751
16117TIP3    H148228   9.669   7.749   3.769
16117TIP3    H248229   9.735   7.624   3.822
16118TIP3   OH248230   9.120   7.429   5.030
16118TIP3    H148231   9.172   7.416   5.110
16118TIP3    H248232   9.051   7.363   5.037
16119TIP3   OH248233   9.466   6.248   4.870
16119TIP3    H148234   9.383   6.215   4.837
16119TIP3    H248235   9.443   6.327   4.919
16120TIP3   OH248236   0.312   6.317   5.027
16120TIP3    H148237   0.393   6.268   5.010
16120TIP3    H248238   0.286   6.291   5.115
16121TIP3   OH248239   9.675   6.127   3.823
16121TIP3    H148240   9.666   6.187   3.897
16121TIP3    H248241   9.587   6.092   3.811
16122TIP3   OH248242   9.419   6.766   4.847
16122TIP3    H148243   9.378   6.778   4.933
16122TIP3    H248244   9.403   6.848   4.801
16123TIP3   OH248245   9.314   6.629   4.365
16123TIP3    H148246   9.224   6.608   4.389
16123TIP3    H248247   9.325   6.590   4.278
16124TIP3   OH248248   9.744   6.779   4.119
16124TIP3    H148249   9.693   6.818   4.049
16124TIP3    H248250   9.823   6.833   4.124
16125TIP3   OH248251   0.169   7.014   5.196
16125TIP3    H148252   0.147   6.946   5.259
16125TIP3    H248253   0.257   7.042   5.219
16126TIP3   OH248254   0.072   6.836   4.402
16126TIP3    H148255   0.069   6.888   4.321
16126TIP3    H248256   0.080   6.745   4.371
16127TIP3   OH248257   9.278   6.788   5.080
16127TIP3    H148258   9.296   6.858   5.143
16127TIP3    H248259   9.260   6.711   5.134
16128TIP3   OH248260   9.314   6.271   3.794
16128TIP3    H148261   9.310   6.266   3.890
16128TIP3    H248262   9.233   6.313   3.768
16129TIP3   OH248263   8.872   6.282   4.659
16129TIP3    H148264   8.933   6.329   4.716
16129TIP3    H248265   8.908   6.291   4.571
16130TIP3   OH248266   8.781   6.272   4.157
16130TIP3    H148267   8.827   6.307   4.080
16130TIP3    H248268   8.718   6.340   4.180
16131TIP3   OH248269   0.146   7.092   4.781
16131TIP3    H148270   0.195   7.054   4.708
16131TIP3    H248271   0.192   7.064   4.859
16132TIP3   OH248272   9.645   6.464   4.436
16132TIP3    H148273   9.566   6.434   4.481
16132TIP3    H248274   9.669   6.545   4.481
16133TIP3   OH248275   9.077   6.510   4.435
16133TIP3    H148276   8.990   6.519   4.396
16133TIP3    H248277   9.106   6.422   4.410
16134TIP3   OH248278   9.332   6.493   4.126
16134TIP3    H148279   9.424   6.514   4.110
16134TIP3    H248280   9.288   6.516   4.044
16135TIP3   OH248281   0.173   6.534   4.692
16135TIP3    H148282   0.250   6.477   4.692
16135TIP3    H248283   0.108   6.486   4.744
16136TIP3   OH248284   9.203   6.546   3.890
16136TIP3    H148285   9.138   6.498   3.841
16136TIP3    H248286   9.256   6.590   3.823
16137TIP3   OH248287   9.279   7.333   5.260
16137TIP3    H148288   9.359   7.354   5.309
16137TIP3    H248289   9.209   7.341   5.325
16138TIP3   OH248290   9.683   6.705   4.561
16138TIP3    H148291   9.752   6.764   4.531
16138TIP3    H248292   9.696   6.699   4.656
16139TIP3   OH248293   9.212   6.265   4.395
16139TIP3    H148294   9.190   6.187   4.447
16139TIP3    H248295   9.219   6.232   4.306
16140TIP3   OH248296   9.676   6.685   4.839
16140TIP3    H148297   9.585   6.716   4.838
16140TIP3    H248298   9.722   6.750   4.893
16141TIP3   OH248299   9.420   7.083   3.901
16141TIP3    H148300   9.350   7.019   3.887
16141TIP3    H248301   9.411   7.110   3.992
16142TIP3   OH248302   0.166   6.414   3.766
16142TIP3    H148303   0.071   6.408   3.756
16142TIP3    H248304   0.180   6.482   3.832
16143TIP3   OH248305   0.104   7.389   4.929
16143TIP3    H148306   0.115   7.369   5.022
16143TIP3    H248307   0.057   7.472   4.927
16144TIP3   OH248308   0.238   6.619   3.937
16144TIP3    H148309   0.323   6.644   3.972
16144TIP3    H248310   0.206   6.698   3.894
16145TIP3   OH248311   9.131   7.071   4.554
16145TIP3    H148312   9.169   7.053   4.469
16145TIP3    H248313   9.198   7.045   4.617
16146TIP3   OH248314   9.583   7.211   3.720
16146TIP3    H148315   9.558   7.302   3.733
16146TIP3    H248316   9.531   7.163   3.785
16147TIP3   OH248317   9.022   7.002   5.192
16147TIP3    H148318   9.025   6.977   5.284
16147TIP3    H248319   8.946   6.955   5.157
16148TIP3   OH248320   9.730   7.148   5.215
16148TIP3    H148321   9.668   7.084   5.179
16148TIP3    H248322   9.816   7.117   5.186
16149TIP3   OH248323   0.212   7.665   4.786
16149TIP3    H148324   0.121   7.646   4.809
16149TIP3    H248325   0.247   7.712   4.862
16150TIP3   OH248326   9.264   7.406   4.215
16150TIP3    H148327   9.258   7.485   4.160
16150TIP3    H248328   9.173   7.389   4.241
16151TIP3   OH248329   8.830   6.699   3.942
16151TIP3    H148330   8.870   6.784   3.962
16151TIP3    H248331   8.747   6.700   3.991
16152TIP3   OH248332   9.391   7.167   4.156
16152TIP3    H148333   9.356   7.254   4.172
16152TIP3    H248334   9.349   7.111   4.222
16153TIP3   OH248335   9.555   7.722   4.682
16153TIP3    H148336   9.585   7.795   4.627
16153TIP3    H248337   9.635   7.678   4.709
16154TIP3   OH248338   9.180   7.632   4.075
16154TIP3    H148339   9.093   7.638   4.114
16154TIP3    H248340   9.213   7.722   4.076
16155TIP3   OH248341   0.062   7.403   4.646
16155TIP3    H148342   0.069   7.381   4.738
16155TIP3    H248343   0.152   7.416   4.617
16156TIP3   OH248344   9.223   6.537   5.213
16156TIP3    H148345   9.128   6.547   5.213
16156TIP3    H248346   9.242   6.484   5.290
16157TIP3   OH248347   8.964   7.630   4.851
16157TIP3    H148348   9.018   7.573   4.905
16157TIP3    H248349   8.979   7.718   4.885
16158TIP3   OH248350   9.240   7.252   3.534
16158TIP3    H148351   9.259   7.163   3.505
16158TIP3    H248352   9.225   7.244   3.628
16159TIP3   OH248353   9.192   7.255   3.806
16159TIP3    H148354   9.275   7.228   3.846
16159TIP3    H248355   9.192   7.351   3.815
16160TIP3   OH248356   8.920   6.953   4.020
16160TIP3    H148357   8.854   7.001   4.070
16160TIP3    H248358   8.940   7.010   3.946
16161TIP3   OH248359   0.341   6.600   4.931
16161TIP3    H148360   0.312   6.654   5.005
16161TIP3    H248361   0.260   6.580   4.883
16162TIP3   OH248362   0.083   6.390   4.050
16162TIP3    H148363   0.124   6.333   3.984
16162TIP3    H248364   0.155   6.443   4.083
16163TIP3   OH248365   9.464   7.456   3.753
16163TIP3    H148366   9.375   7.477   3.781
16163TIP3    H248367   9.487   7.528   3.694
16164TIP3   OH248368   9.602   6.541   4.166
16164TIP3    H148369   9.638   6.628   4.147
16164TIP3    H248370   9.618   6.528   4.259
16165TIP3   OH248371   0.028   6.827   5.025
16165TIP3    H148372   0.065   6.903   5.070
16165TIP3    H248373   0.080   6.819   4.945
16166TIP3   OH248374   9.792   6.288   4.290
16166TIP3    H148375   9.744   6.355   4.339
16166TIP3    H248376   9.825   6.333   4.213
16167TIP3   OH248377   9.208   7.528   3.823
16167TIP3    H148378   9.187   7.598   3.761
16167TIP3    H248379   9.194   7.567   3.909
16168TIP3   OH248380   9.280   6.221   4.074
16168TIP3    H148381   9.316   6.305   4.101
16168TIP3    H248382   9.355   6.161   4.075
16169TIP3   OH248383   8.944   7.129   3.804
16169TIP3    H148384   9.017   7.190   3.813
16169TIP3    H248385   8.973   7.067   3.737
16170TIP3   OH248386   8.849   6.421   3.936
16170TIP3    H148387   8.862   6.515   3.945
16170TIP3    H248388   8.789   6.412   3.863
16171TIP3   OH248389   9.221   6.147   4.805
16171TIP3    H148390   9.200   6.117   4.717
16171TIP3    H248391   9.215   6.069   4.860
16172TIP3   OH248392   8.767   7.400   4.191
16172TIP3    H148393   8.718   7.433   4.266
16172TIP3    H248394   8.726   7.441   4.115
16173TIP3   OH248395   8.970   7.936   5.255
16173TIP3    H148396   9.051   7.943   5.306
16173TIP3    H248397   8.955   7.842   5.247
16174TIP3   OH248398   9.438   7.864   5.304
16174TIP3    H148399   9.516   7.904   5.264
16174TIP3    H248400   9.410   7.798   5.241
16175TIP3   OH248401   9.408   7.437   3.416
16175TIP3    H148402   9.359   7.369   3.462
16175TIP3    H248403   9.482   7.391   3.377
16176TIP3   OH248404   0.284   7.747   5.068
16176TIP3    H148405   0.261   7.687   5.139
16176TIP3    H248406   0.377   7.732   5.052
16177TIP3   OH248407   9.076   7.331   5.451
16177TIP3    H148408   9.094   7.238   5.462
16177TIP3    H248409   8.988   7.334   5.412
16178TIP3   OH248410   9.064   6.940   3.647
16178TIP3    H148411   9.115   6.917   3.725
16178TIP3    H248412   9.130   6.958   3.580
16179TIP3   OH248413   9.683   7.420   5.228
16179TIP3    H148414   9.640   7.443   5.146
16179TIP3    H248415   9.712   7.330   5.215
16180TIP3   OH248416   9.542   7.157   3.458
16180TIP3    H148417   9.554   7.175   3.551
16180TIP3    H248418   9.534   7.061   3.453
16181TIP3   OH248419   9.190   7.075   5.457
16181TIP3    H148420   9.266   7.058   5.402
16181TIP3    H248421   9.225   7.093   5.544
16182TIP3   OH248422   9.232   6.883   3.867
16182TIP3    H148423   9.209   6.851   3.954
16182TIP3    H248424   9.273   6.809   3.824
16183TIP3   OH248425   9.551   6.962   5.106
16183TIP3    H148426   9.467   7.006   5.111
16183TIP3    H248427   9.589   6.992   5.023
16184TIP3   OH248428   9.350   6.690   3.709
16184TIP3    H148429   9.320   6.696   3.618
16184TIP3    H248430   9.444   6.706   3.705
16185TIP3   OH248431   0.194   7.327   5.213
16185TIP3    H148432   0.282   7.312   5.179
16185TIP3    H248433   0.189   7.273   5.292
16186TIP3   OH248434   9.631   6.727   5.230
16186TIP3    H148435   9.647   6.657   5.167
16186TIP3    H248436   9.612   6.804   5.175
16187TIP3   OH248437   9.658   6.503   5.041
16187TIP3    H148438   9.674   6.562   4.967
16187TIP3    H248439   9.564   6.487   5.039
16188TIP3   OH248440   9.680   7.070   4.891
16188TIP3    H148441   9.767   7.088   4.853
16188TIP3    H248442   9.621   7.129   4.843
16189TIP3   OH248443   0.507   7.016   5.277
16189TIP3    H148444   0.582   7.001   5.220
16189TIP3    H248445   0.545   7.045   5.360
16190TIP3   OH248446   9.513   6.818   5.462
16190TIP3    H148447   9.450   6.751   5.487
16190TIP3    H248448   9.544   6.791   5.376
16191TIP3   OH248449   9.741   6.271   5.172
16191TIP3    H148450   9.709   6.353   5.133
16191TIP3    H248451   9.682   6.204   5.137
16192TIP3   OH248452   0.082   6.793   5.333
16192TIP3    H148453   0.061   6.784   5.426
16192TIP3    H248454   0.001   6.770   5.288
16193TIP3   OH248455   0.289   6.746   5.151
16193TIP3    H148456   0.208   6.764   5.198
16193TIP3    H248457   0.337   6.685   5.207
16194TIP3   OH248458   0.676   6.609   5.438
16194TIP3    H148459   0.639   6.523   5.457
16194TIP3    H248460   0.602   6.659   5.404
16195TIP3   OH248461   9.363   6.597   5.541
16195TIP3    H148462   9.368   6.505   5.514
16195TIP3    H248463   9.397   6.597   5.631
16196TIP3   OH248464   9.767   6.281   5.444
16196TIP3    H148465   9.766   6.193   5.481
16196TIP3    H248466   9.747   6.268   5.351
16197TIP3   OH248467   0.075   6.498   5.568
16197TIP3    H148468   0.029   6.429   5.520
16197TIP3    H248469   0.019   6.575   5.559
16198TIP3   OH248470   9.201   7.734   3.640
16198TIP3    H148471   9.288   7.713   3.605
16198TIP3    H248472   9.157   7.781   3.570
16199TIP3   OH248473   8.670   7.126   3.821
16199TIP3    H148474   8.765   7.137   3.816
16199TIP3    H248475   8.654   7.041   3.780
16200TIP3   OH248476   8.571   7.713   4.281
16200TIP3    H148477   8.507   7.658   4.235
16200TIP3    H248478   8.615   7.653   4.342
16201TIP3   OH248479   8.711   7.544   4.451
16201TIP3    H148480   8.699   7.473   4.514
16201TIP3    H248481   8.766   7.608   4.497
16202TIP3   OH248482   8.886   6.972   4.830
16202TIP3    H148483   8.878   6.942   4.740
16202TIP3    H248484   8.981   6.971   4.847
16203TIP3   OH248485   9.102   6.655   5.478
16203TIP3    H148486   9.196   6.652   5.495
16203TIP3    H248487   9.069   6.573   5.514
16204TIP3   OH248488   9.069   6.375   4.832
16204TIP3    H148489   9.118   6.293   4.832
16204TIP3    H248490   9.135   6.442   4.812
16205TIP3   OH248491   8.864   6.636   4.881
16205TIP3    H148492   8.915   6.627   4.801
16205TIP3    H248493   8.887   6.722   4.915
16206TIP3   OH248494   8.858   6.131   4.378
16206TIP3    H148495   8.775   6.119   4.423
16206TIP3    H248496   8.838   6.188   4.304
16207TIP3   OH248497   9.071   6.184   5.200
16207TIP3    H148498   9.023   6.183   5.283
16207TIP3    H248499   9.019   6.240   5.143
16208TIP3   OH248500   9.109   7.653   5.277
16208TIP3    H148501   9.016   7.632   5.268
16208TIP3    H248502   9.125   7.649   5.372
16209TIP3   OH248503   9.328   7.700   4.836
16209TIP3    H148504   9.273   7.767   4.795
16209TIP3    H248505   9.413   7.708   4.793
16210TIP3   OH248506   9.751   7.902   4.956
16210TIP3    H148507   9.792   7.908   5.042
16210TIP3    H248508   9.804   7.959   4.900
16211TIP3   OH248509   0.105   8.063   4.797
16211TIP3    H148510   0.118   8.017   4.714
16211TIP3    H248511   0.186   8.111   4.811
16212TIP3   OH248512   8.969   7.925   4.876
16212TIP3    H148513   8.879   7.954   4.860
16212TIP3    H248514   9.003   7.988   4.939
16213TIP3   OH248515   9.196   7.905   4.715
16213TIP3    H148516   9.113   7.916   4.761
16213TIP3    H248517   9.178   7.935   4.626
16214TIP3   OH248518   9.621   7.924   4.514
16214TIP3    H148519   9.580   7.946   4.431
16214TIP3    H248520   9.643   8.008   4.554
16215TIP3   OH248521   0.149   7.941   4.556
16215TIP3    H148522   0.088   7.869   4.542
16215TIP3    H248523   0.152   7.987   4.472
16216TIP3   OH248524   8.888   7.714   4.599
16216TIP3    H148525   8.917   7.692   4.687
16216TIP3    H248526   8.959   7.685   4.542
16217TIP3   OH248527   9.091   7.605   4.456
16217TIP3    H148528   9.103   7.520   4.498
16217TIP3    H248529   9.177   7.646   4.460
16218TIP3   OH248530   9.358   7.690   4.482
16218TIP3    H148531   9.374   7.596   4.469
16218TIP3    H248532   9.418   7.715   4.552
16219TIP3   OH248533   0.110   6.250   4.564
16219TIP3    H148534   0.024   6.265   4.603
16219TIP3    H248535   0.097   6.265   4.470
16220TIP3   OH248536   9.156   6.046   4.556
16220TIP3    H148537   9.065   6.016   4.563
16220TIP3    H248538   9.207   5.966   4.548
16221TIP3   OH248539   9.017   5.954   4.228
16221TIP3    H148540   9.025   5.996   4.143
16221TIP3    H248541   8.966   6.016   4.281
16222TIP3   OH248542   9.625   6.088   4.436
16222TIP3    H148543   9.669   6.147   4.375
16222TIP3    H248544   9.629   6.134   4.520
16223TIP3   OH248545   8.651   7.521   3.971
16223TIP3    H148546   8.568   7.488   3.937
16223TIP3    H248547   8.658   7.610   3.937
16224TIP3   OH248548   9.068   6.075   3.980
16224TIP3    H148549   9.114   6.016   3.921
16224TIP3    H248550   9.136   6.133   4.014
16225TIP3   OH248551   9.586   6.300   4.024
16225TIP3    H148552   9.613   6.239   4.092
16225TIP3    H248553   9.604   6.387   4.061
16226TIP3   OH248554   9.455   7.665   3.553
16226TIP3    H148555   9.540   7.691   3.518
16226TIP3    H248556   9.428   7.590   3.501
16227TIP3   OH248557   9.361   6.317   5.452
16227TIP3    H148558   9.321   6.246   5.501
16227TIP3    H248559   9.446   6.331   5.494
16228TIP3   OH248560   9.572   6.345   5.625
16228TIP3    H148561   9.648   6.319   5.573
16228TIP3    H248562   9.559   6.274   5.687
16229TIP3   OH248563   8.767   7.508   3.628
16229TIP3    H148564   8.770   7.517   3.724
16229TIP3    H248565   8.848   7.462   3.606
16230TIP3   OH248566   0.829   7.877   6.383
16230TIP3    H148567   0.826   7.816   6.457
16230TIP3    H248568   0.888   7.946   6.410
16231TIP3   OH248569   1.354   7.133   6.748
16231TIP3    H148570   1.366   7.217   6.792
16231TIP3    H248571   1.385   7.148   6.658
16232TIP3   OH248572   0.778   7.338   6.794
16232TIP3    H148573   0.814   7.253   6.821
16232TIP3    H248574   0.729   7.319   6.715
16233TIP3   OH248575   0.785   7.089   6.376
16233TIP3    H148576   0.852   7.075   6.443
16233TIP3    H248577   0.833   7.117   6.298
16234TIP3   OH248578   1.379   7.355   6.911
16234TIP3    H148579   1.296   7.399   6.897
16234TIP3    H248580   1.374   7.322   7.000
16235TIP3   OH248581   0.965   7.088   6.580
16235TIP3    H148582   0.926   7.076   6.666
16235TIP3    H248583   1.021   7.164   6.589
16236TIP3   OH248584   1.155   7.024   6.921
16236TIP3    H148585   1.068   7.045   6.886
16236TIP3    H248586   1.215   7.052   6.851
16237TIP3   OH248587   0.649   7.935   6.180
16237TIP3    H148588   0.686   7.900   6.099
16237TIP3    H248589   0.714   7.915   6.247
16238TIP3   OH248590   1.052   8.083   6.903
16238TIP3    H148591   1.034   8.003   6.854
16238TIP3    H248592   1.019   8.154   6.847
16239TIP3   OH248593   1.236   7.707   6.752
16239TIP3    H148594   1.158   7.762   6.755
16239TIP3    H248595   1.267   7.713   6.661
16240TIP3   OH248596   0.709   7.555   6.116
16240TIP3    H148597   0.663   7.586   6.194
16240TIP3    H248598   0.792   7.520   6.149
16241TIP3   OH248599   0.950   7.570   7.060
16241TIP3    H148600   0.948   7.654   7.105
16241TIP3    H248601   0.869   7.569   7.008
16242TIP3   OH248602   0.591   7.368   5.945
16242TIP3    H148603   0.625   7.441   5.996
16242TIP3    H248604   0.583   7.402   5.856
16243TIP3   OH248605   1.053   6.628   6.021
16243TIP3    H148606   0.982   6.655   6.078
16243TIP3    H248607   1.071   6.705   5.967
16244TIP3   OH248608   0.874   8.020   5.568
16244TIP3    H148609   0.870   8.114   5.547
16244TIP3    H248610   0.963   7.995   5.546
16245TIP3   OH248611   1.303   8.415   6.939
16245TIP3    H148612   1.306   8.321   6.956
16245TIP3    H248613   1.222   8.444   6.980
16246TIP3   OH248614   1.200   7.531   7.224
16246TIP3    H148615   1.113   7.526   7.182
16246TIP3    H248616   1.212   7.444   7.264
16247TIP3   OH248617   0.742   6.879   7.257
16247TIP3    H148618   0.817   6.840   7.302
16247TIP3    H248619   0.695   6.927   7.326
16248TIP3   OH248620   0.966   7.328   7.195
16248TIP3    H148621   0.948   7.362   7.283
16248TIP3    H248622   0.942   7.400   7.137
16249TIP3   OH248623   0.579   7.414   5.667
16249TIP3    H148624   0.553   7.409   5.575
16249TIP3    H248625   0.666   7.454   5.665
16250TIP3   OH248626   0.665   7.275   6.543
16250TIP3    H148627   0.570   7.260   6.544
16250TIP3    H248628   0.700   7.207   6.486
16251TIP3   OH248629   0.863   7.066   6.833
16251TIP3    H148630   0.862   7.071   6.929
16251TIP3    H248631   0.795   7.003   6.812
16252TIP3   OH248632   1.019   7.872   6.727
16252TIP3    H148633   1.059   7.920   6.654
16252TIP3    H248634   0.950   7.819   6.686
16253TIP3   OH248635   0.481   6.966   6.097
16253TIP3    H148636   0.403   7.008   6.062
16253TIP3    H248637   0.551   7.030   6.084
16254TIP3   OH248638   0.684   7.134   6.046
16254TIP3    H148639   0.774   7.150   6.075
16254TIP3    H248640   0.655   7.217   6.010
16255TIP3   OH248641   1.058   7.267   5.909
16255TIP3    H148642   1.001   7.223   5.846
16255TIP3    H248643   1.063   7.357   5.877
16256TIP3   OH248644   1.307   8.132   6.984
16256TIP3    H148645   1.212   8.123   6.977
16256TIP3    H248646   1.340   8.101   6.900
16257TIP3   OH248647   0.791   8.046   5.836
16257TIP3    H148648   0.767   7.964   5.879
16257TIP3    H248649   0.816   8.020   5.747
16258TIP3   OH248650   0.830   7.709   6.606
16258TIP3    H148651   0.747   7.691   6.651
16258TIP3    H248652   0.857   7.624   6.571
16259TIP3   OH248653   0.871   8.295   5.510
16259TIP3    H148654   0.946   8.353   5.521
16259TIP3    H248655   0.816   8.339   5.444
16260TIP3   OH248656   0.754   7.789   5.961
16260TIP3    H148657   0.722   7.709   6.003
16260TIP3    H248658   0.846   7.770   5.941
16261TIP3   OH248659   0.869   7.078   7.101
16261TIP3    H148660   0.888   7.155   7.154
16261TIP3    H248661   0.823   7.018   7.160
16262TIP3   OH248662   0.658   6.855   6.286
16262TIP3    H148663   0.590   6.891   6.229
16262TIP3    H248664   0.692   6.931   6.334
16263TIP3   OH248665   1.207   7.224   7.111
16263TIP3    H148666   1.122   7.253   7.145
16263TIP3    H248667   1.185   7.154   7.050
16264TIP3   OH248668   0.877   7.452   6.516
16264TIP3    H148669   0.801   7.396   6.530
16264TIP3    H248670   0.948   7.410   6.565
16265TIP3   OH248671   0.882   8.349   6.478
16265TIP3    H148672   0.799   8.337   6.433
16265TIP3    H248673   0.941   8.384   6.411
16266TIP3   OH248674   0.822   7.530   5.601
16266TIP3    H148675   0.827   7.495   5.512
16266TIP3    H248676   0.798   7.622   5.590
16267TIP3   OH248677   0.936   7.463   7.436
16267TIP3    H148678   0.981   7.411   7.502
16267TIP3    H248679   0.950   7.554   7.464
16268TIP3   OH248680   0.976   7.823   7.178
16268TIP3    H148681   0.933   7.905   7.154
16268TIP3    H248682   1.067   7.835   7.150
16269TIP3   OH248683   0.804   7.195   7.419
16269TIP3    H148684   0.786   7.289   7.425
16269TIP3    H248685   0.893   7.185   7.451
16270TIP3   OH248686   1.063   7.219   7.540
16270TIP3    H148687   1.079   7.125   7.551
16270TIP3    H248688   1.041   7.250   7.628
16271TIP3   OH248689   1.180   8.603   6.468
16271TIP3    H148690   1.147   8.566   6.550
16271TIP3    H248691   1.103   8.642   6.427
16272TIP3   OH248692   1.117   8.509   6.724
16272TIP3    H148693   1.061   8.432   6.735
16272TIP3    H248694   1.197   8.488   6.772
16273TIP3   OH248695   1.165   8.228   7.356
16273TIP3    H148696   1.133   8.231   7.446
16273TIP3    H248697   1.212   8.310   7.344
16274TIP3   OH248698   1.018   7.727   5.920
16274TIP3    H148699   1.076   7.796   5.888
16274TIP3    H248700   1.066   7.687   5.993
16275TIP3   OH248701   1.142   7.583   6.120
16275TIP3    H148702   1.073   7.544   6.173
16275TIP3    H248703   1.205   7.617   6.183
16276TIP3   OH248704   1.183   7.995   6.541
16276TIP3    H148705   1.236   7.922   6.510
16276TIP3    H248706   1.206   8.068   6.484
16277TIP3   OH248707   0.946   8.285   6.738
16277TIP3    H148708   0.860   8.301   6.777
16277TIP3    H248709   0.932   8.295   6.644
16278TIP3   OH248710   1.042   7.503   5.766
16278TIP3    H148711   0.966   7.500   5.707
16278TIP3    H248712   1.029   7.582   5.818
16279TIP3   OH248713   0.909   7.172   5.705
16279TIP3    H148714   0.878   7.200   5.619
16279TIP3    H248715   0.897   7.077   5.705
16280TIP3   OH248716   0.932   7.443   6.245
16280TIP3    H148717   0.941   7.349   6.228
16280TIP3    H248718   0.919   7.449   6.340
16281TIP3   OH248719   1.237   7.869   7.106
16281TIP3    H148720   1.300   7.798   7.107
16281TIP3    H248721   1.268   7.928   7.038
16282TIP3   OH248722   1.418   7.660   7.129
16282TIP3    H148723   1.341   7.615   7.163
16282TIP3    H248724   1.491   7.604   7.156
16283TIP3   OH248725   0.890   6.901   5.708
16283TIP3    H148726   0.968   6.877   5.758
16283TIP3    H248727   0.829   6.828   5.722
16284TIP3   OH248728   0.947   7.171   6.150
16284TIP3    H148729   0.992   7.088   6.166
16284TIP3    H248730   0.990   7.206   6.072
16285TIP3   OH248731   1.087   7.328   6.644
16285TIP3    H148732   1.171   7.352   6.604
16285TIP3    H248733   1.092   7.365   6.732
16286TIP3   OH248734   1.139   7.479   6.873
16286TIP3    H148735   1.075   7.507   6.938
16286TIP3    H248736   1.170   7.560   6.834
16287TIP3   OH248737   1.612   7.085   7.412
16287TIP3    H148738   1.675   7.018   7.384
16287TIP3    H248739   1.586   7.128   7.331
16288TIP3   OH248740   1.052   6.917   6.200
16288TIP3    H148741   1.098   6.905   6.283
16288TIP3    H248742   0.988   6.846   6.197
16289TIP3   OH248743   1.471   7.227   7.223
16289TIP3    H148744   1.401   7.261   7.278
16289TIP3    H248745   1.429   7.159   7.169
16290TIP3   OH248746   1.116   6.828   5.845
16290TIP3    H148747   1.160   6.768   5.785
16290TIP3    H248748   1.171   6.907   5.844
16291TIP3   OH248749   1.380   6.949   7.132
16291TIP3    H148750   1.293   6.943   7.092
16291TIP3    H248751   1.415   6.860   7.126
16292TIP3   OH248752   0.687   6.866   6.784
16292TIP3    H148753   0.679   6.801   6.854
16292TIP3    H248754   0.707   6.814   6.706
16293TIP3   OH248755   1.086   6.784   6.648
16293TIP3    H148756   1.132   6.833   6.580
16293TIP3    H248757   1.001   6.828   6.655
16294TIP3   OH248758   1.209   6.865   6.420
16294TIP3    H148759   1.277   6.804   6.392
16294TIP3    H248760   1.246   6.952   6.406
16295TIP3   OH248761   0.796   6.707   6.579
16295TIP3    H148762   0.869   6.675   6.526
16295TIP3    H248763   0.791   6.646   6.652
16296TIP3   OH248764   0.869   6.701   6.216
16296TIP3    H148765   0.798   6.753   6.255
16296TIP3    H248766   0.874   6.622   6.271
16297TIP3   OH248767   0.869   8.308   5.817
16297TIP3    H148768   0.838   8.221   5.841
16297TIP3    H248769   0.808   8.338   5.749
16298TIP3   OH248770   1.125   6.951   7.556
16298TIP3    H148771   1.138   6.916   7.644
16298TIP3    H248772   1.211   6.946   7.516
16299TIP3   OH248773   1.061   8.483   7.045
16299TIP3    H148774   1.014   8.422   7.102
16299TIP3    H248775   1.044   8.569   7.083
16300TIP3   OH248776   2.312   7.864   5.801
16300TIP3    H148777   2.275   7.951   5.784
16300TIP3    H248778   2.243   7.803   5.774
16301TIP3   OH248779   2.303   7.858   6.230
16301TIP3    H148780   2.362   7.840   6.303
16301TIP3    H248781   2.266   7.773   6.208
16302TIP3   OH248782   1.616   7.778   6.578
16302TIP3    H148783   1.655   7.825   6.651
16302TIP3    H248784   1.685   7.772   6.512
16303TIP3   OH248785   2.577   8.167   5.896
16303TIP3    H148786   2.567   8.100   5.963
16303TIP3    H248787   2.598   8.247   5.944
16304TIP3   OH248788   1.593   8.136   6.271
16304TIP3    H148789   1.581   8.041   6.264
16304TIP3    H248790   1.687   8.149   6.259
16305TIP3   OH248791   1.292   7.358   6.042
16305TIP3    H148792   1.253   7.442   6.065
16305TIP3    H248793   1.222   7.309   6.000
16306TIP3   OH248794   1.368   7.665   6.265
16306TIP3    H148795   1.418   7.588   6.289
16306TIP3    H248796   1.433   7.727   6.233
16307TIP3   OH248797   2.243   8.582   5.921
16307TIP3    H148798   2.265   8.521   5.851
16307TIP3    H248799   2.255   8.532   6.002
16308TIP3   OH248800   2.115   8.075   6.242
16308TIP3    H148801   2.162   7.997   6.212
16308TIP3    H248802   2.183   8.137   6.266
16309TIP3   OH248803   3.150   7.400   6.244
16309TIP3    H148804   3.166   7.485   6.285
16309TIP3    H248805   3.178   7.412   6.153
16310TIP3   OH248806   2.522   7.568   6.266
16310TIP3    H148807   2.559   7.484   6.291
16310TIP3    H248808   2.486   7.552   6.178
16311TIP3   OH248809   1.876   7.232   6.234
16311TIP3    H148810   1.857   7.304   6.173
16311TIP3    H248811   1.824   7.159   6.202
16312TIP3   OH248812   2.575   7.333   5.859
16312TIP3    H148813   2.639   7.328   5.930
16312TIP3    H248814   2.625   7.367   5.785
16313TIP3   OH248815   1.516   7.448   6.354
16313TIP3    H148816   1.597   7.425   6.398
16313TIP3    H248817   1.516   7.396   6.274
16314TIP3   OH248818   1.924   7.640   6.174
16314TIP3    H148819   2.019   7.625   6.174
16314TIP3    H248820   1.888   7.559   6.137
16315TIP3   OH248821   3.205   7.619   6.410
16315TIP3    H148822   3.118   7.658   6.404
16315TIP3    H248823   3.244   7.656   6.489
16316TIP3   OH248824   1.870   7.201   6.685
16316TIP3    H148825   1.793   7.238   6.641
16316TIP3    H248826   1.833   7.146   6.754
16317TIP3   OH248827   2.165   8.069   5.693
16317TIP3    H148828   2.150   8.057   5.599
16317TIP3    H248829   2.127   8.155   5.712
16318TIP3   OH248830   1.964   7.997   6.460
16318TIP3    H148831   1.909   8.070   6.488
16318TIP3    H248832   2.013   8.032   6.385
16319TIP3   OH248833   2.731   7.360   6.082
16319TIP3    H148834   2.695   7.335   6.167
16319TIP3    H248835   2.790   7.432   6.101
16320TIP3   OH248836   1.752   7.340   6.460
16320TIP3    H148837   1.811   7.409   6.492
16320TIP3    H248838   1.800   7.299   6.388
16321TIP3   OH248839   1.800   8.199   6.554
16321TIP3    H148840   1.791   8.287   6.518
16321TIP3    H248841   1.721   8.186   6.606
16322TIP3   OH248842   1.182   7.915   5.801
16322TIP3    H148843   1.147   7.939   5.715
16322TIP3    H248844   1.207   7.998   5.842
16323TIP3   OH248845   2.608   8.410   6.042
16323TIP3    H148846   2.519   8.408   6.075
16323TIP3    H248847   2.614   8.493   5.994
16324TIP3   OH248848   2.949   7.293   6.413
16324TIP3    H148849   2.864   7.314   6.375
16324TIP3    H248850   3.012   7.319   6.346
16325TIP3   OH248851   2.211   6.919   6.401
16325TIP3    H148852   2.206   6.827   6.427
16325TIP3    H248853   2.132   6.958   6.438
16326TIP3   OH248854   2.319   8.441   5.695
16326TIP3    H148855   2.373   8.363   5.683
16326TIP3    H248856   2.374   8.513   5.663
16327TIP3   OH248857   2.475   8.226   5.645
16327TIP3    H148858   2.492   8.155   5.583
16327TIP3    H248859   2.513   8.196   5.728
16328TIP3   OH248860   2.841   8.304   6.383
16328TIP3    H148861   2.828   8.229   6.325
16328TIP3    H248862   2.829   8.380   6.326
16329TIP3   OH248863   2.137   7.704   5.651
16329TIP3    H148864   2.057   7.753   5.633
16329TIP3    H248865   2.186   7.704   5.569
16330TIP3   OH248866   2.106   7.516   5.337
16330TIP3    H148867   2.172   7.563   5.389
16330TIP3    H248868   2.155   7.449   5.291
16331TIP3   OH248869   3.029   7.964   6.256
16331TIP3    H148870   2.946   8.010   6.251
16331TIP3    H248871   3.069   7.978   6.170
16332TIP3   OH248872   2.497   7.804   5.608
16332TIP3    H148873   2.442   7.829   5.682
16332TIP3    H248874   2.579   7.776   5.647
16333TIP3   OH248875   2.726   7.824   6.563
16333TIP3    H148876   2.725   7.909   6.608
16333TIP3    H248877   2.646   7.823   6.512
16334TIP3   OH248878   1.725   7.772   6.015
16334TIP3    H148879   1.688   7.712   5.949
16334TIP3    H248880   1.799   7.723   6.052
16335TIP3   OH248881   1.856   8.188   6.170
16335TIP3    H148882   1.835   8.180   6.077
16335TIP3    H248883   1.944   8.152   6.178
16336TIP3   OH248884   1.825   7.769   6.395
16336TIP3    H148885   1.861   7.731   6.315
16336TIP3    H248886   1.878   7.848   6.408
16337TIP3   OH248887   2.363   8.414   6.165
16337TIP3    H148888   2.356   8.492   6.219
16337TIP3    H248889   2.352   8.341   6.227
16338TIP3   OH248890   1.999   8.306   6.717
16338TIP3    H148891   1.940   8.367   6.760
16338TIP3    H248892   1.943   8.255   6.659
16339TIP3   OH248893   2.328   7.658   5.445
16339TIP3    H148894   2.387   7.717   5.491
16339TIP3    H248895   2.356   7.661   5.353
16340TIP3   OH248896   1.720   7.857   6.856
16340TIP3    H148897   1.721   7.948   6.884
16340TIP3    H248898   1.628   7.831   6.863
16341TIP3   OH248899   2.067   8.329   5.710
16341TIP3    H148900   2.154   8.370   5.714
16341TIP3    H248901   2.015   8.389   5.657
16342TIP3   OH248902   1.794   8.468   6.800
16342TIP3    H148903   1.767   8.477   6.709
16342TIP3    H248904   1.713   8.449   6.847
16343TIP3   OH248905   2.838   6.885   5.504
16343TIP3    H148906   2.762   6.905   5.557
16343TIP3    H248907   2.849   6.961   5.446
16344TIP3   OH248908   1.599   7.615   5.817
16344TIP3    H148909   1.522   7.663   5.786
16344TIP3    H248910   1.569   7.525   5.825
16345TIP3   OH248911   2.650   8.270   5.036
16345TIP3    H148912   2.651   8.365   5.029
16345TIP3    H248913   2.738   8.243   5.008
16346TIP3   OH248914   1.381   8.016   6.749
16346TIP3    H148915   1.313   8.009   6.682
16346TIP3    H248916   1.404   7.925   6.769
16347TIP3   OH248917   1.301   8.197   6.384
16347TIP3    H148918   1.382   8.172   6.341
16347TIP3    H248919   1.326   8.270   6.441
16348TIP3   OH248920   3.075   8.650   6.455
16348TIP3    H148921   3.079   8.556   6.472
16348TIP3    H248922   2.997   8.680   6.502
16349TIP3   OH248923   2.189   8.448   6.577
16349TIP3    H148924   2.182   8.539   6.607
16349TIP3    H248925   2.120   8.401   6.626
16350TIP3   OH248926   1.964   8.528   5.536
16350TIP3    H148927   1.921   8.518   5.451
16350TIP3    H248928   1.934   8.613   5.569
16351TIP3   OH248929   1.404   8.395   5.921
16351TIP3    H148930   1.448   8.394   6.006
16351TIP3    H248931   1.357   8.312   5.917
16352TIP3   OH248932   2.173   8.469   5.160
16352TIP3    H148933   2.225   8.398   5.124
16352TIP3    H248934   2.204   8.479   5.250
16353TIP3   OH248935   2.215   8.499   5.429
16353TIP3    H148936   2.131   8.505   5.475
16353TIP3    H248937   2.275   8.463   5.494
16354TIP3   OH248938   2.965   7.781   6.728
16354TIP3    H148939   2.886   7.789   6.675
16354TIP3    H248940   2.987   7.687   6.724
16355TIP3   OH248941   1.580   8.207   6.721
16355TIP3    H148942   1.618   8.209   6.809
16355TIP3    H248943   1.509   8.143   6.727
16356TIP3   OH248944   1.972   7.005   6.518
16356TIP3    H148945   1.887   6.972   6.489
16356TIP3    H248946   1.951   7.086   6.565
16357TIP3   OH248947   2.505   7.144   6.732
16357TIP3    H148948   2.577   7.117   6.789
16357TIP3    H248949   2.426   7.121   6.781
16358TIP3   OH248950   2.725   7.556   6.643
16358TIP3    H148951   2.690   7.554   6.732
16358TIP3    H248952   2.715   7.648   6.616
16359TIP3   OH248953   2.403   7.638   5.181
16359TIP3    H148954   2.360   7.640   5.096
16359TIP3    H248955   2.486   7.685   5.168
16360TIP3   OH248956   2.110   7.064   5.499
16360TIP3    H148957   2.075   7.070   5.588
16360TIP3    H248958   2.077   6.980   5.466
16361TIP3   OH248959   1.913   7.555   6.551
16361TIP3    H148960   1.910   7.592   6.639
16361TIP3    H248961   1.881   7.624   6.494
16362TIP3   OH248962   1.785   7.429   6.063
16362TIP3    H148963   1.696   7.403   6.088
16362TIP3    H248964   1.795   7.396   5.974
16363TIP3   OH248965   2.262   7.502   5.788
16363TIP3    H148966   2.215   7.573   5.747
16363TIP3    H248967   2.322   7.470   5.720
16364TIP3   OH248968   2.455   7.771   6.858
16364TIP3    H148969   2.429   7.703   6.920
16364TIP3    H248970   2.547   7.786   6.875
16365TIP3   OH248971   2.426   7.516   6.014
16365TIP3    H148972   2.361   7.538   5.947
16365TIP3    H248973   2.476   7.444   5.976
16366TIP3   OH248974   1.780   7.039   5.478
16366TIP3    H148975   1.771   7.043   5.573
16366TIP3    H248976   1.703   7.086   5.445
16367TIP3   OH248977   1.333   7.089   6.338
16367TIP3    H148978   1.406   7.125   6.388
16367TIP3    H248979   1.370   7.067   6.253
16368TIP3   OH248980   1.249   7.070   5.850
16368TIP3    H148981   1.290   7.102   5.769
16368TIP3    H248982   1.184   7.137   5.871
16369TIP3   OH248983   2.472   7.767   6.441
16369TIP3    H148984   2.499   7.703   6.376
16369TIP3    H248985   2.430   7.716   6.510
16370TIP3   OH248986   2.148   7.219   6.115
16370TIP3    H148987   2.072   7.218   6.173
16370TIP3    H248988   2.222   7.206   6.174
16371TIP3   OH248989   1.548   7.302   6.126
16371TIP3    H148990   1.461   7.308   6.087
16371TIP3    H248991   1.577   7.212   6.108
16372TIP3   OH248992   1.797   7.308   5.817
16372TIP3    H148993   1.892   7.317   5.807
16372TIP3    H248994   1.762   7.325   5.730
16373TIP3   OH248995   2.598   7.307   6.325
16373TIP3    H148996   2.573   7.325   6.416
16373TIP3    H248997   2.535   7.241   6.296
16374TIP3   OH248998   1.685   7.334   5.569
16374TIP3    H148999   1.621   7.285   5.518
16374TIP3    H249000   1.739   7.379   5.504
16375TIP3   OH249001   2.798   9.004   6.541
16375TIP3    H149002   2.796   9.018   6.447
16375TIP3    H249003   2.877   9.051   6.570
16376TIP3   OH249004   1.724   8.104   6.972
16376TIP3    H149005   1.806   8.132   7.013
16376TIP3    H249006   1.657   8.118   7.040
16377TIP3   OH249007   2.200   7.586   6.212
16377TIP3    H149008   2.265   7.543   6.156
16377TIP3    H249009   2.201   7.536   6.293
16378TIP3   OH249010   1.690   7.054   6.112
16378TIP3    H149011   1.661   6.979   6.163
16378TIP3    H249012   1.716   7.018   6.028
16379TIP3   OH249013   2.171   7.477   6.474
16379TIP3    H149014   2.084   7.509   6.499
16379TIP3    H249015   2.231   7.526   6.529
16380TIP3   OH249016   1.904   7.845   5.592
16380TIP3    H149017   1.829   7.791   5.569
16380TIP3    H249018   1.879   7.887   5.674
16381TIP3   OH249019   2.794   8.101   6.203
16381TIP3    H149020   2.832   8.150   6.129
16381TIP3    H249021   2.715   8.060   6.166
16382TIP3   OH249022   2.366   7.162   5.504
16382TIP3    H149023   2.272   7.143   5.499
16382TIP3    H249024   2.370   7.257   5.516
16383TIP3   OH249025   2.310   8.183   6.618
16383TIP3    H149026   2.376   8.180   6.688
16383TIP3    H249027   2.278   8.273   6.620
16384TIP3   OH249028   2.427   7.427   5.573
16384TIP3    H149029   2.522   7.430   5.583
16384TIP3    H249030   2.406   7.505   5.521
16385TIP3   OH249031   1.594   7.854   6.242
16385TIP3    H149032   1.629   7.837   6.154
16385TIP3    H249033   1.662   7.824   6.302
16386TIP3   OH249034   2.062   8.002   5.432
16386TIP3    H149035   2.014   8.084   5.431
16386TIP3    H249036   2.009   7.944   5.486
16387TIP3   OH249037   1.464   7.774   6.886
16387TIP3    H149038   1.461   7.732   6.972
16387TIP3    H249039   1.392   7.733   6.837
16388TIP3   OH249040   2.235   7.939   6.881
16388TIP3    H149041   2.192   7.925   6.797
16388TIP3    H249042   2.319   7.895   6.873
16389TIP3   OH249043   2.457   8.473   6.502
16389TIP3    H149044   2.362   8.462   6.505
16389TIP3    H249045   2.479   8.512   6.586
16390TIP3   OH249046   2.840   7.518   5.390
16390TIP3    H149047   2.783   7.473   5.327
16390TIP3    H249048   2.845   7.608   5.358
16391TIP3   OH249049   3.088   8.369   6.478
16391TIP3    H149050   2.994   8.358   6.465
16391TIP3    H249051   3.126   8.348   6.393
16392TIP3   OH249052   2.570   8.322   5.305
16392TIP3    H149053   2.577   8.245   5.362
16392TIP3    H249054   2.608   8.293   5.222
16393TIP3   OH249055   2.564   7.966   6.099
16393TIP3    H149056   2.473   7.945   6.120
16393TIP3    H249057   2.600   7.885   6.062
16394TIP3   OH249058   1.725   8.201   5.922
16394TIP3    H149059   1.730   8.276   5.862
16394TIP3    H249060   1.632   8.192   5.941
16395TIP3   OH249061   1.283   7.484   5.632
16395TIP3    H149062   1.325   7.567   5.653
16395TIP3    H249063   1.200   7.486   5.681
16396TIP3   OH249064   1.798   7.956   5.815
16396TIP3    H149065   1.788   8.045   5.849
16396TIP3    H249066   1.774   7.900   5.889
16397TIP3   OH249067   2.006   8.526   6.370
16397TIP3    H149068   2.037   8.601   6.320
16397TIP3    H249069   2.082   8.495   6.418
16398TIP3   OH249070   1.631   8.418   5.767
16398TIP3    H149071   1.545   8.421   5.809
16398TIP3    H249072   1.664   8.508   5.775
16399TIP3   OH249073   2.348   8.192   6.342
16399TIP3    H149074   2.337   8.184   6.437
16399TIP3    H249075   2.430   8.145   6.324
16400TIP3   OH249076   2.352   8.068   5.235
16400TIP3    H149077   2.407   8.060   5.313
16400TIP3    H249078   2.267   8.034   5.262
16401TIP3   OH249079   2.611   8.680   6.387
16401TIP3    H149080   2.541   8.617   6.405
16401TIP3    H249081   2.578   8.732   6.314
16402TIP3   OH249082   2.661   8.544   5.030
16402TIP3    H149083   2.723   8.609   4.996
16402TIP3    H249084   2.584   8.595   5.055
16403TIP3   OH249085   2.532   8.028   5.446
16403TIP3    H149086   2.515   7.950   5.499
16403TIP3    H249087   2.625   8.021   5.423
16404TIP3   OH249088   1.421   8.394   6.542
16404TIP3    H149089   1.484   8.349   6.599
16404TIP3    H249090   1.434   8.487   6.561
16405TIP3   OH249091   1.697   8.032   5.228
16405TIP3    H149092   1.710   7.941   5.200
16405TIP3    H249093   1.685   8.026   5.322
16406TIP3   OH249094   1.643   8.046   5.501
16406TIP3    H149095   1.709   8.018   5.564
16406TIP3    H249096   1.643   8.141   5.506
16407TIP3   OH249097   1.375   7.737   5.708
16407TIP3    H149098   1.311   7.787   5.758
16407TIP3    H249099   1.396   7.794   5.633
16408TIP3   OH249100   2.524   7.376   6.585
16408TIP3    H149101   2.605   7.419   6.611
16408TIP3    H249102   2.519   7.297   6.639
16409TIP3   OH249103   2.427   7.114   5.772
16409TIP3    H149104   2.407   7.131   5.680
16409TIP3    H249105   2.471   7.193   5.802
16410TIP3   OH249106   1.911   8.226   5.433
16410TIP3    H149107   1.829   8.252   5.474
16410TIP3    H249108   1.938   8.302   5.381
16411TIP3   OH249109   2.076   7.313   5.863
16411TIP3    H149110   2.139   7.380   5.836
16411TIP3    H249111   2.100   7.293   5.953
16412TIP3   OH249112   2.363   7.603   6.637
16412TIP3    H149113   2.395   7.646   6.716
16412TIP3    H249114   2.415   7.524   6.629
16413TIP3   OH249115   2.240   7.009   5.947
16413TIP3    H149116   2.218   7.086   5.999
16413TIP3    H249117   2.310   7.038   5.889
16414TIP3   OH249118   1.664   8.318   5.515
16414TIP3    H149119   1.645   8.392   5.458
16414TIP3    H249120   1.652   8.353   5.604
16415TIP3   OH249121   1.753   7.034   5.758
16415TIP3    H149122   1.742   7.124   5.786
16415TIP3    H249123   1.848   7.019   5.763
16416TIP3   OH249124   2.993   7.508   6.633
16416TIP3    H149125   2.898   7.512   6.640
16416TIP3    H249126   3.010   7.458   6.554
16417TIP3   OH249127   2.656   7.709   6.012
16417TIP3    H149128   2.581   7.650   6.023
16417TIP3    H249129   2.725   7.670   6.065
16418TIP3   OH249130   1.398   7.915   5.492
16418TIP3    H149131   1.471   7.977   5.502
16418TIP3    H249132   1.428   7.853   5.426
16419TIP3   OH249133   1.302   7.205   5.619
16419TIP3    H149134   1.310   7.300   5.623
16419TIP3    H249135   1.236   7.189   5.551
16420TIP3   OH249136   2.641   8.673   5.957
16420TIP3    H149137   2.594   8.723   5.890
16420TIP3    H249138   2.733   8.697   5.945
16421TIP3   OH249139   1.703   6.930   6.498
16421TIP3    H149140   1.674   6.895   6.413
16421TIP3    H249141   1.696   6.855   6.558
16422TIP3   OH249142   1.237   8.170   5.908
16422TIP3    H149143   1.190   8.208   5.982
16422TIP3    H249144   1.197   8.210   5.830
16423TIP3   OH249145   1.411   8.722   6.949
16423TIP3    H149146   1.493   8.724   6.998
16423TIP3    H249147   1.391   8.629   6.940
16424TIP3   OH249148   1.895   8.628   7.001
16424TIP3    H149149   1.987   8.603   7.008
16424TIP3    H249150   1.862   8.578   6.926
16425TIP3   OH249151   1.857   8.229   5.119
16425TIP3    H149152   1.810   8.159   5.163
16425TIP3    H249153   1.933   8.185   5.079
16426TIP3   OH249154   2.511   8.575   6.750
16426TIP3    H149155   2.522   8.503   6.812
16426TIP3    H249156   2.588   8.631   6.763
16427TIP3   OH249157   2.304   8.262   5.042
16427TIP3    H149158   2.337   8.204   5.110
16427TIP3    H249159   2.369   8.257   4.972
16428TIP3   OH249160   1.519   8.117   7.163
16428TIP3    H149161   1.493   8.057   7.233
16428TIP3    H249162   1.441   8.125   7.108
16429TIP3   OH249163   1.521   7.726   5.337
16429TIP3    H149164   1.571   7.702   5.415
16429TIP3    H249165   1.586   7.740   5.269
16430TIP3   OH249166   2.154   8.210   6.923
16430TIP3    H149167   2.112   8.233   6.840
16430TIP3    H249168   2.200   8.129   6.905
16431TIP3   OH249169   2.063   7.947   5.162
16431TIP3    H149170   2.055   7.956   5.257
16431TIP3    H249171   2.056   7.853   5.146
16432TIP3   OH249172   2.620   8.248   6.537
16432TIP3    H149173   2.699   8.271   6.488
16432TIP3    H249174   2.559   8.320   6.520
16433TIP3   OH249175   1.769   7.809   7.141
16433TIP3    H149176   1.772   7.743   7.210
16433TIP3    H249177   1.735   7.887   7.185
16434TIP3   OH249178   1.694   7.668   5.549
16434TIP3    H149179   1.674   7.636   5.637
16434TIP3    H249180   1.742   7.596   5.508
16435TIP3   OH249181   1.948   7.732   6.788
16435TIP3    H149182   1.876   7.789   6.761
16435TIP3    H249183   2.025   7.767   6.743
16436TIP3   OH249184   1.835   7.484   5.394
16436TIP3    H149185   1.805   7.487   5.303
16436TIP3    H249186   1.930   7.492   5.388
16437TIP3   OH249187   2.510   8.120   6.887
16437TIP3    H149188   2.583   8.087   6.834
16437TIP3    H249189   2.511   8.064   6.965
16438TIP3   OH249190   2.623   7.774   5.083
16438TIP3    H149191   2.612   7.733   4.997
16438TIP3    H249192   2.601   7.866   5.069
16439TIP3   OH249193   2.133   7.507   6.896
16439TIP3    H149194   2.140   7.427   6.844
16439TIP3    H249195   2.104   7.574   6.833
16440TIP3   OH249196   2.121   7.306   6.706
16440TIP3    H149197   2.146   7.333   6.617
16440TIP3    H249198   2.031   7.274   6.698
16441TIP3   OH249199   2.132   7.859   6.633
16441TIP3    H149200   2.216   7.847   6.589
16441TIP3    H249201   2.081   7.915   6.574
16442TIP3   OH249202   2.719   7.806   6.961
16442TIP3    H149203   2.756   7.718   6.965
16442TIP3    H249204   2.795   7.863   6.945
16443TIP3   OH249205   2.748   8.072   6.700
16443TIP3    H149206   2.695   8.134   6.649
16443TIP3    H249207   2.837   8.086   6.669
16444TIP3   OH249208   1.922   7.584   7.052
16444TIP3    H149209   1.895   7.516   7.113
16444TIP3    H249210   2.004   7.552   7.014
16445TIP3   OH249211   2.245   7.082   6.817
16445TIP3    H149212   2.203   7.160   6.780
16445TIP3    H249213   2.181   7.011   6.802
16446TIP3   OH249214   2.377   7.565   7.020
16446TIP3    H149215   2.378   7.556   7.116
16446TIP3    H249216   2.290   7.536   6.994
16447TIP3   OH249217   2.623   7.521   6.890
16447TIP3    H149218   2.545   7.519   6.945
16447TIP3    H249219   2.694   7.491   6.947
16448TIP3   OH249220   2.850   7.473   7.043
16448TIP3    H149221   2.864   7.379   7.049
16448TIP3    H249222   2.845   7.503   7.133
16449TIP3   OH249223   1.864   7.370   7.216
16449TIP3    H149224   1.853   7.283   7.179
16449TIP3    H249225   1.894   7.354   7.306
16450TIP3   OH249226   2.317   7.066   7.080
16450TIP3    H149227   2.384   6.998   7.076
16450TIP3    H249228   2.285   7.074   6.990
16451TIP3   OH249229   2.398   7.287   7.222
16451TIP3    H149230   2.379   7.210   7.169
16451TIP3    H249231   2.318   7.340   7.217
16452TIP3   OH249232   1.671   8.536   5.340
16452TIP3    H149233   1.756   8.507   5.310
16452TIP3    H249234   1.625   8.563   5.261
16453TIP3   OH249235   1.125   7.918   5.508
16453TIP3    H149236   1.220   7.928   5.505
16453TIP3    H249237   1.108   7.833   5.469
16454TIP3   OH249238   1.023   8.482   5.966
16454TIP3    H149239   0.966   8.431   5.909
16454TIP3    H249240   1.060   8.418   6.027
16455TIP3   OH249241   1.160   8.310   6.141
16455TIP3    H149242   1.173   8.249   6.214
16455TIP3    H249243   1.213   8.387   6.165
16456TIP3   OH249244   2.898   8.766   5.945
16456TIP3    H149245   2.931   8.770   6.035
16456TIP3    H249246   2.974   8.785   5.890
16457TIP3   OH249247   2.936   8.750   6.226
16457TIP3    H149248   2.887   8.668   6.217
16457TIP3    H249249   3.003   8.731   6.292
16458TIP3   OH249250   2.965   8.458   6.805
16458TIP3    H149251   2.898   8.468   6.873
16458TIP3    H249252   3.011   8.542   6.805
16459TIP3   OH249253   2.802   8.001   5.396
16459TIP3    H149254   2.853   8.069   5.353
16459TIP3    H249255   2.859   7.970   5.467
16460TIP3   OH249256   2.931   7.843   5.600
16460TIP3    H149257   2.861   7.809   5.656
16460TIP3    H249258   2.994   7.880   5.662
16461TIP3   OH249259   2.976   8.238   6.041
16461TIP3    H149260   3.028   8.166   6.005
16461TIP3    H249261   2.989   8.310   5.979
16462TIP3   OH249262   2.781   8.522   6.231
16462TIP3    H149263   2.715   8.569   6.282
16462TIP3    H249264   2.732   8.482   6.159
16463TIP3   OH249265   2.834   7.761   5.260
16463TIP3    H149266   2.762   7.761   5.197
16463TIP3    H249267   2.824   7.843   5.308
16464TIP3   OH249268   2.686   7.402   5.195
16464TIP3    H149269   2.640   7.439   5.119
16464TIP3    H249270   2.680   7.307   5.183
16465TIP3   OH249271   2.723   7.705   5.740
16465TIP3    H149272   2.732   7.611   5.727
16465TIP3    H249273   2.706   7.715   5.834
16466TIP3   OH249274   1.349   7.779   6.512
16466TIP3    H149275   1.341   7.737   6.426
16466TIP3    H249276   1.443   7.779   6.530
16467TIP3   OH249277   3.007   8.116   6.609
16467TIP3    H149278   3.070   8.046   6.591
16467TIP3    H249279   3.033   8.188   6.551
16468TIP3   OH249280   3.176   7.900   6.599
16468TIP3    H149281   3.104   7.858   6.646
16468TIP3    H249282   3.252   7.845   6.617
16469TIP3   OH249283   2.651   7.129   5.160
16469TIP3    H149284   2.716   7.105   5.225
16469TIP3    H249285   2.569   7.092   5.192
16470TIP3   OH249286   2.717   7.422   5.629
16470TIP3    H149287   2.763   7.339   5.642
16470TIP3    H249288   2.759   7.461   5.552
16471TIP3   OH249289   2.872   7.590   6.153
16471TIP3    H149290   2.952   7.608   6.104
16471TIP3    H249291   2.887   7.629   6.239
16472TIP3   OH249292   2.946   7.735   6.383
16472TIP3    H149293   2.874   7.765   6.439
16472TIP3    H249294   2.979   7.814   6.341
16473TIP3   OH249295   1.605   7.473   7.208
16473TIP3    H149296   1.697   7.445   7.211
16473TIP3    H249297   1.555   7.391   7.208
16474TIP3   OH249298   3.409   7.330   6.922
16474TIP3    H149299   3.475   7.276   6.878
16474TIP3    H249300   3.369   7.381   6.851
16475TIP3   OH249301   2.833   7.173   5.683
16475TIP3    H149302   2.879   7.158   5.766
16475TIP3    H249303   2.771   7.100   5.676
16476TIP3   OH249304   1.543   7.156   6.511
16476TIP3    H149305   1.594   7.075   6.514
16476TIP3    H249306   1.607   7.224   6.491
16477TIP3   OH249307   1.330   7.426   6.564
16477TIP3    H149308   1.382   7.425   6.484
16477TIP3    H249309   1.388   7.465   6.630
16478TIP3   OH249310   3.254   7.444   6.726
16478TIP3    H149311   3.170   7.485   6.747
16478TIP3    H249312   3.232   7.369   6.672
16479TIP3   OH249313   2.877   7.085   5.318
16479TIP3    H149314   2.926   7.025   5.263
16479TIP3    H249315   2.932   7.164   5.323
16480TIP3   OH249316   1.320   6.940   6.078
16480TIP3    H149317   1.233   6.924   6.116
16480TIP3    H249318   1.304   6.994   6.001
16481TIP3   OH249319   2.447   8.653   5.581
16481TIP3    H149320   2.504   8.633   5.507
16481TIP3    H249321   2.500   8.707   5.639
16482TIP3   OH249322   1.534   6.985   6.897
16482TIP3    H149323   1.487   6.981   6.980
16482TIP3    H249324   1.473   7.027   6.837
16483TIP3   OH249325   1.579   8.418   6.966
16483TIP3    H149326   1.484   8.418   6.951
16483TIP3    H249327   1.588   8.436   7.060
16484TIP3   OH249328   1.780   8.472   6.517
16484TIP3    H149329   1.723   8.542   6.484
16484TIP3    H249330   1.864   8.486   6.473
16485TIP3   OH249331   2.181   8.710   6.659
16485TIP3    H149332   2.220   8.708   6.746
16485TIP3    H249333   2.241   8.765   6.607
16486TIP3   OH249334   2.365   8.864   6.524
16486TIP3    H149335   2.421   8.811   6.468
16486TIP3    H249336   2.425   8.915   6.579
16487TIP3   OH249337   3.169   7.199   6.618
16487TIP3    H149338   3.081   7.191   6.579
16487TIP3    H249339   3.206   7.111   6.611
16488TIP3   OH249340   1.423   8.697   6.555
16488TIP3    H149341   1.336   8.681   6.519
16488TIP3    H249342   1.414   8.778   6.605
16489TIP3   OH249343   1.660   8.693   6.414
16489TIP3    H149344   1.577   8.702   6.461
16489TIP3    H249345   1.641   8.725   6.326
16490TIP3   OH249346   2.079   8.735   6.204
16490TIP3    H149347   2.015   8.744   6.133
16490TIP3    H249348   2.086   8.823   6.241
16491TIP3   OH249349   2.338   8.669   6.267
16491TIP3    H149350   2.248   8.690   6.240
16491TIP3    H249351   2.392   8.730   6.217
16492TIP3   OH249352   2.541   8.825   6.162
16492TIP3    H149353   2.539   8.913   6.125
16492TIP3    H249354   2.574   8.770   6.091
16493TIP3   OH249355   1.327   8.501   6.244
16493TIP3    H149356   1.314   8.513   6.338
16493TIP3    H249357   1.414   8.462   6.236
16494TIP3   OH249358   1.557   8.383   6.153
16494TIP3    H149359   1.571   8.298   6.196
16494TIP3    H249360   1.643   8.424   6.153
16495TIP3   OH249361   1.823   8.471   6.166
16495TIP3    H149362   1.844   8.378   6.152
16495TIP3    H249363   1.879   8.497   6.239
16496TIP3   OH249364   2.373   7.120   6.252
16496TIP3    H149365   2.334   7.048   6.301
16496TIP3    H249366   2.443   7.079   6.201
16497TIP3   OH249367   2.879   7.044   6.145
16497TIP3    H149368   2.914   7.092   6.070
16497TIP3    H249369   2.785   7.062   6.143
16498TIP3   OH249370   2.990   7.119   5.906
16498TIP3    H149371   3.058   7.057   5.879
16498TIP3    H249372   3.029   7.205   5.893
16499TIP3   OH249373   1.616   6.827   6.256
16499TIP3    H149374   1.528   6.793   6.263
16499TIP3    H249375   1.672   6.750   6.247
16500TIP3   OH249376   1.434   6.738   5.908
16500TIP3    H149377   1.465   6.784   5.830
16500TIP3    H249378   1.404   6.808   5.967
16501TIP3   OH249379   2.092   6.869   6.145
16501TIP3    H149380   2.142   6.913   6.075
16501TIP3    H249381   2.139   6.892   6.225
16502TIP3   OH249382   2.592   7.004   6.126
16502TIP3    H149383   2.609   6.969   6.039
16502TIP3    H249384   2.599   6.929   6.185
16503TIP3   OH249385   2.648   6.962   5.689
16503TIP3    H149386   2.568   7.008   5.714
16503TIP3    H249387   2.638   6.874   5.727
16504TIP3   OH249388   1.117   8.286   5.696
16504TIP3    H149389   1.027   8.285   5.728
16504TIP3    H249390   1.121   8.361   5.638
16505TIP3   OH249391   1.548   6.860   5.673
16505TIP3    H149392   1.594   6.799   5.615
16505TIP3    H249393   1.616   6.918   5.706
16506TIP3   OH249394   2.028   7.062   5.764
16506TIP3    H149395   2.087   7.008   5.816
16506TIP3    H249396   2.044   7.152   5.794
16507TIP3   OH249397   1.917   8.453   5.261
16507TIP3    H149398   2.003   8.476   5.225
16507TIP3    H249399   1.887   8.381   5.205
16508TIP3   OH249400   2.598   8.588   5.357
16508TIP3    H149401   2.594   8.493   5.348
16508TIP3    H249402   2.568   8.621   5.273
16509TIP3   OH249403   1.862   7.099   7.147
16509TIP3    H149404   1.824   7.029   7.201
16509TIP3    H249405   1.953   7.104   7.175
16510TIP3   OH249406   2.112   7.114   7.264
16510TIP3    H149407   2.186   7.091   7.208
16510TIP3    H249408   2.104   7.040   7.324
16511TIP3   OH249409   1.213   8.286   5.314
16511TIP3    H149410   1.213   8.309   5.407
16511TIP3    H249411   1.297   8.242   5.300
16512TIP3   OH249412   2.912   7.203   7.044
16512TIP3    H149413   2.929   7.172   7.133
16512TIP3    H249414   2.998   7.198   7.000
16513TIP3   OH249415   2.830   8.731   6.553
16513TIP3    H149416   2.756   8.702   6.499
16513TIP3    H249417   2.821   8.826   6.557
16514TIP3   OH249418   4.114   8.129   5.286
16514TIP3    H149419   4.081   8.214   5.259
16514TIP3    H249420   4.044   8.068   5.261
16515TIP3   OH249421   4.108   8.118   5.712
16515TIP3    H149422   4.162   8.101   5.789
16515TIP3    H249423   4.064   8.035   5.694
16516TIP3   OH249424   3.403   7.980   6.058
16516TIP3    H149425   3.439   7.923   6.127
16516TIP3    H249426   3.479   8.005   6.006
16517TIP3   OH249427   4.374   8.425   5.386
16517TIP3    H149428   4.363   8.357   5.453
16517TIP3    H249429   4.395   8.504   5.435
16518TIP3   OH249430   3.380   8.405   5.752
16518TIP3    H149431   3.367   8.310   5.751
16518TIP3    H249432   3.474   8.416   5.742
16519TIP3   OH249433   3.079   7.613   5.527
16519TIP3    H149434   3.042   7.699   5.548
16519TIP3    H249435   3.006   7.565   5.486
16520TIP3   OH249436   3.156   7.924   5.752
16520TIP3    H149437   3.207   7.846   5.776
16520TIP3    H249438   3.221   7.987   5.723
16521TIP3   OH249439   4.035   8.848   5.405
16521TIP3    H149440   4.061   8.783   5.339
16521TIP3    H249441   4.040   8.800   5.488
16522TIP3   OH249442   3.908   8.339   5.721
16522TIP3    H149443   3.954   8.260   5.690
16522TIP3    H249444   3.978   8.397   5.749
16523TIP3   OH249445   4.950   7.659   5.735
16523TIP3    H149446   4.965   7.744   5.776
16523TIP3    H249447   4.970   7.674   5.642
16524TIP3   OH249448   4.322   7.826   5.752
16524TIP3    H149449   4.355   7.741   5.780
16524TIP3    H249450   4.285   7.810   5.665
16525TIP3   OH249451   3.676   7.484   5.710
16525TIP3    H149452   3.655   7.557   5.653
16525TIP3    H249453   3.620   7.412   5.679
16526TIP3   OH249454   4.373   7.587   5.346
16526TIP3    H149455   4.436   7.581   5.418
16526TIP3    H249456   4.424   7.621   5.273
16527TIP3   OH249457   3.298   7.701   5.840
16527TIP3    H149458   3.381   7.682   5.884
16527TIP3    H249459   3.301   7.651   5.759
16528TIP3   OH249460   3.719   7.901   5.657
16528TIP3    H149461   3.814   7.886   5.662
16528TIP3    H249462   3.684   7.819   5.623
16529TIP3   OH249463   5.003   7.882   5.896
16529TIP3    H149464   4.913   7.916   5.892
16529TIP3    H249465   5.037   7.917   5.979
16530TIP3   OH249466   3.656   7.490   6.162
16530TIP3    H149467   3.605   7.525   6.089
16530TIP3    H249468   3.600   7.504   6.239
16531TIP3   OH249469   4.008   8.343   5.146
16531TIP3    H149470   3.967   8.312   5.066
16531TIP3    H249471   3.954   8.417   5.174
16532TIP3   OH249472   3.760   8.258   5.942
16532TIP3    H149473   3.708   8.329   5.978
16532TIP3    H249474   3.806   8.296   5.867
16533TIP3   OH249475   4.529   7.611   5.570
16533TIP3    H149476   4.488   7.588   5.653
16533TIP3    H249477   4.585   7.686   5.591
16534TIP3   OH249478   3.544   7.593   5.930
16534TIP3    H149479   3.598   7.669   5.952
16534TIP3    H249480   3.590   7.550   5.859
16535TIP3   OH249481   3.609   8.461   6.051
16535TIP3    H149482   3.598   8.551   6.019
16535TIP3    H249483   3.529   8.442   6.099
16536TIP3   OH249484   4.408   8.668   5.529
16536TIP3    H149485   4.320   8.663   5.566
16536TIP3    H249486   4.410   8.751   5.482
16537TIP3   OH249487   4.748   7.552   5.903
16537TIP3    H149488   4.663   7.572   5.864
16537TIP3    H249489   4.812   7.578   5.837
16538TIP3   OH249490   3.999   7.182   5.895
16538TIP3    H149491   3.992   7.090   5.920
16538TIP3    H249492   3.922   7.223   5.933
16539TIP3   OH249493   4.120   8.704   5.183
16539TIP3    H149494   4.174   8.626   5.173
16539TIP3    H249495   4.175   8.776   5.151
16540TIP3   OH249496   4.256   8.474   5.141
16540TIP3    H149497   4.182   8.413   5.139
16540TIP3    H249498   4.306   8.449   5.219
16541TIP3   OH249499   4.650   8.557   5.872
16541TIP3    H149500   4.630   8.483   5.815
16541TIP3    H249501   4.634   8.634   5.817
16542TIP3   OH249502   3.944   7.961   5.141
16542TIP3    H149503   3.860   8.004   5.125
16542TIP3    H249504   3.988   7.961   5.057
16543TIP3   OH249505   3.898   7.778   4.826
16543TIP3    H149506   3.964   7.825   4.877
16543TIP3    H249507   3.947   7.708   4.782
16544TIP3   OH249508   4.825   8.222   5.736
16544TIP3    H149509   4.740   8.267   5.735
16544TIP3    H249510   4.860   8.235   5.648
16545TIP3   OH249511   4.295   8.054   5.095
16545TIP3    H149512   4.241   8.084   5.168
16545TIP3    H249513   4.378   8.029   5.135
16546TIP3   OH249514   4.524   8.083   6.048
16546TIP3    H149515   4.519   8.166   6.095
16546TIP3    H249516   4.442   8.080   5.997
16547TIP3   OH249517   3.520   8.036   5.507
16547TIP3    H149518   3.482   7.976   5.443
16547TIP3    H249519   3.592   7.986   5.545
16548TIP3   OH249520   3.645   8.453   5.650
16548TIP3    H149521   3.622   8.439   5.559
16548TIP3    H249522   3.733   8.415   5.659
16549TIP3   OH249523   3.617   8.031   5.880
16549TIP3    H149524   3.656   7.997   5.799
16549TIP3    H249525   3.668   8.109   5.900
16550TIP3   OH249526   4.167   8.669   5.655
16550TIP3    H149527   4.154   8.747   5.709
16550TIP3    H249528   4.153   8.596   5.715
16551TIP3   OH249529   3.801   8.600   6.222
16551TIP3    H149530   3.728   8.651   6.257
16551TIP3    H249531   3.760   8.523   6.182
16552TIP3   OH249532   4.126   7.913   4.927
16552TIP3    H149533   4.186   7.971   4.973
16552TIP3    H249534   4.153   7.918   4.835
16553TIP3   OH249535   3.551   8.129   6.350
16553TIP3    H149536   3.555   8.224   6.366
16553TIP3    H249537   3.458   8.110   6.340
16554TIP3   OH249538   3.873   8.580   5.192
16554TIP3    H149539   3.953   8.631   5.199
16554TIP3    H249540   3.814   8.633   5.138
16555TIP3   OH249541   3.575   8.745   6.283
16555TIP3    H149542   3.556   8.741   6.189
16555TIP3    H249543   3.491   8.726   6.325
16556TIP3   OH249544   4.635   7.141   4.992
16556TIP3    H149545   4.558   7.161   5.045
16556TIP3    H249546   4.645   7.217   4.935
16557TIP3   OH249547   3.391   7.879   5.309
16557TIP3    H149548   3.319   7.927   5.269
16557TIP3    H249549   3.356   7.792   5.327
16558TIP3   OH249550   4.459   8.515   4.545
16558TIP3    H149551   4.455   8.609   4.527
16558TIP3    H249552   4.548   8.490   4.523
16559TIP3   OH249553   3.177   8.285   6.235
16559TIP3    H149554   3.108   8.264   6.172
16559TIP3    H249555   3.211   8.200   6.263
16560TIP3   OH249556   3.080   8.452   5.883
16560TIP3    H149557   3.165   8.433   5.843
16560TIP3    H249558   3.097   8.524   5.943
16561TIP3   OH249559   4.882   8.931   5.939
16561TIP3    H149560   4.888   8.836   5.950
16561TIP3    H249561   4.802   8.955   5.985
16562TIP3   OH249562   3.980   8.717   6.054
16562TIP3    H149563   3.981   8.808   6.083
16562TIP3    H249564   3.915   8.675   6.110
16563TIP3   OH249565   3.765   8.785   5.021
16563TIP3    H149566   3.717   8.774   4.939
16563TIP3    H249567   3.733   8.868   5.056
16564TIP3   OH249568   3.186   8.653   5.396
16564TIP3    H149569   3.228   8.645   5.482
16564TIP3    H249570   3.127   8.578   5.391
16565TIP3   OH249571   3.967   8.736   4.646
16565TIP3    H149572   4.018   8.662   4.611
16565TIP3    H249573   3.999   8.745   4.736
16566TIP3   OH249574   4.017   8.764   4.916
16566TIP3    H149575   3.931   8.768   4.957
16566TIP3    H249576   4.074   8.727   4.983
16567TIP3   OH249577   4.769   8.037   6.204
16567TIP3    H149578   4.685   8.048   6.159
16567TIP3    H249579   4.786   7.942   6.201
16568TIP3   OH249580   3.377   8.471   6.205
16568TIP3    H149581   3.429   8.459   6.284
16568TIP3    H249582   3.306   8.408   6.212
16569TIP3   OH249583   3.760   7.272   6.020
16569TIP3    H149584   3.677   7.238   5.988
16569TIP3    H249585   3.737   7.353   6.066
16570TIP3   OH249586   4.299   7.396   6.222
16570TIP3    H149587   4.369   7.373   6.284
16570TIP3    H249588   4.218   7.381   6.270
16571TIP3   OH249589   4.524   7.818   6.138
16571TIP3    H149590   4.483   7.810   6.225
16571TIP3    H249591   4.507   7.908   6.112
16572TIP3   OH249592   4.197   7.889   4.660
16572TIP3    H149593   4.157   7.893   4.573
16572TIP3    H249594   4.280   7.936   4.650
16573TIP3   OH249595   3.910   7.318   4.986
16573TIP3    H149596   3.874   7.325   5.074
16573TIP3    H249597   3.875   7.235   4.953
16574TIP3   OH249598   3.699   7.804   6.016
16574TIP3    H149599   3.658   7.812   6.102
16574TIP3    H249600   3.675   7.885   5.971
16575TIP3   OH249601   3.579   7.685   5.550
16575TIP3    H149602   3.490   7.662   5.575
16575TIP3    H249603   3.589   7.653   5.461
16576TIP3   OH249604   4.061   7.756   5.279
16576TIP3    H149605   4.015   7.830   5.239
16576TIP3    H249606   4.119   7.724   5.210
16577TIP3   OH249607   4.272   8.016   6.334
16577TIP3    H149608   4.239   7.955   6.400
16577TIP3    H249609   4.361   8.036   6.362
16578TIP3   OH249610   4.228   7.773   5.501
16578TIP3    H149611   4.160   7.793   5.437
16578TIP3    H249612   4.276   7.700   5.462
16579TIP3   OH249613   3.529   7.806   6.238
16579TIP3    H149614   3.590   7.857   6.291
16579TIP3    H249615   3.511   7.728   6.291
16580TIP3   OH249616   3.577   7.296   4.965
16580TIP3    H149617   3.568   7.300   5.060
16580TIP3    H249618   3.498   7.341   4.932
16581TIP3   OH249619   3.124   7.340   5.832
16581TIP3    H149620   3.196   7.376   5.884
16581TIP3    H249621   3.163   7.325   5.746
16582TIP3   OH249622   3.028   7.320   5.332
16582TIP3    H149623   3.073   7.355   5.255
16582TIP3    H249624   2.965   7.388   5.356
16583TIP3   OH249625   4.273   8.028   5.924
16583TIP3    H149626   4.298   7.962   5.860
16583TIP3    H249627   4.229   7.979   5.994
16584TIP3   OH249628   3.945   7.474   5.601
16584TIP3    H149629   3.867   7.473   5.656
16584TIP3    H249630   4.018   7.465   5.662
16585TIP3   OH249631   3.339   7.561   5.608
16585TIP3    H149632   3.251   7.566   5.570
16585TIP3    H249633   3.367   7.471   5.592
16586TIP3   OH249634   3.593   7.562   5.305
16586TIP3    H149635   3.687   7.572   5.294
16586TIP3    H249636   3.556   7.580   5.218
16587TIP3   OH249637   4.390   7.563   5.810
16587TIP3    H149638   4.371   7.580   5.902
16587TIP3    H249639   4.322   7.501   5.782
16588TIP3   OH249640   3.480   7.585   5.056
16588TIP3    H149641   3.415   7.537   5.004
16588TIP3    H249642   3.532   7.633   4.992
16589TIP3   OH249643   7.862   0.026   6.030
16589TIP3    H149644   7.859   0.040   5.935
16589TIP3    H249645   7.939   0.073   6.059
16590TIP3   OH249646   3.533   8.397   6.434
16590TIP3    H149647   3.615   8.425   6.477
16590TIP3    H249648   3.468   8.399   6.504
16591TIP3   OH249649   3.994   7.848   5.706
16591TIP3    H149650   4.059   7.799   5.656
16591TIP3    H249651   3.991   7.805   5.791
16592TIP3   OH249652   3.482   7.311   5.596
16592TIP3    H149653   3.453   7.236   5.648
16592TIP3    H249654   3.504   7.274   5.510
16593TIP3   OH249655   3.965   7.745   5.968
16593TIP3    H149656   3.877   7.775   5.990
16593TIP3    H249657   4.024   7.797   6.023
16594TIP3   OH249658   3.708   8.093   5.089
16594TIP3    H149659   3.631   8.044   5.062
16594TIP3    H249660   3.681   8.139   5.168
16595TIP3   OH249661   4.589   8.358   5.692
16595TIP3    H149662   4.625   8.407   5.618
16595TIP3    H249663   4.510   8.317   5.657
16596TIP3   OH249664   4.163   7.420   4.988
16596TIP3    H149665   4.070   7.399   4.986
16596TIP3    H249666   4.166   7.515   5.003
16597TIP3   OH249667   4.100   8.442   6.098
16597TIP3    H149668   4.138   8.425   6.184
16597TIP3    H249669   4.052   8.525   6.109
16598TIP3   OH249670   4.223   7.684   5.060
16598TIP3    H149671   4.318   7.688   5.071
16598TIP3    H249672   4.201   7.762   5.009
16599TIP3   OH249673   3.386   8.120   5.734
16599TIP3    H149674   3.424   8.101   5.648
16599TIP3    H249675   3.451   8.090   5.797
16600TIP3   OH249676   3.852   8.258   4.927
16600TIP3    H149677   3.805   8.341   4.925
16600TIP3    H249678   3.798   8.201   4.980
16601TIP3   OH249679   3.275   8.067   6.378
16601TIP3    H149680   3.297   8.051   6.470
16601TIP3    H249681   3.206   8.004   6.359
16602TIP3   OH249682   4.029   8.139   6.389
16602TIP3    H149683   3.976   8.151   6.310
16602TIP3    H249684   4.114   8.110   6.356
16603TIP3   OH249685   4.254   8.728   5.988
16603TIP3    H149686   4.160   8.714   5.988
16603TIP3    H249687   4.274   8.762   6.075
16604TIP3   OH249688   4.638   7.770   4.877
16604TIP3    H149689   4.581   7.724   4.815
16604TIP3    H249690   4.643   7.860   4.842
16605TIP3   OH249691   4.894   8.653   5.958
16605TIP3    H149692   4.800   8.633   5.957
16605TIP3    H249693   4.927   8.619   5.875
16606TIP3   OH249694   4.373   8.581   4.812
16606TIP3    H149695   4.348   8.512   4.872
16606TIP3    H249696   4.394   8.536   4.730
16607TIP3   OH249697   4.361   8.222   5.587
16607TIP3    H149698   4.271   8.201   5.612
16607TIP3    H249699   4.395   8.141   5.549
16608TIP3   OH249700   3.509   8.454   5.402
16608TIP3    H149701   3.506   8.531   5.346
16608TIP3    H249702   3.417   8.429   5.414
16609TIP3   OH249703   3.069   7.743   5.114
16609TIP3    H149704   3.114   7.827   5.127
16609TIP3    H249705   2.990   7.750   5.168
16610TIP3   OH249706   3.605   8.213   5.308
16610TIP3    H149707   3.587   8.302   5.337
16610TIP3    H249708   3.577   8.158   5.381
16611TIP3   OH249709   3.795   8.782   5.850
16611TIP3    H149710   3.830   8.856   5.800
16611TIP3    H249711   3.869   8.752   5.903
16612TIP3   OH249712   3.420   8.675   5.252
16612TIP3    H149713   3.333   8.675   5.290
16612TIP3    H249714   3.451   8.765   5.261
16613TIP3   OH249715   4.146   8.447   5.826
16613TIP3    H149716   4.131   8.444   5.921
16613TIP3    H249717   4.222   8.391   5.812
16614TIP3   OH249718   4.140   8.322   4.697
16614TIP3    H149719   4.193   8.294   4.772
16614TIP3    H249720   4.055   8.280   4.711
16615TIP3   OH249721   4.409   8.932   5.876
16615TIP3    H149722   4.341   8.868   5.898
16615TIP3    H249723   4.371   8.982   5.803
16616TIP3   OH249724   4.469   8.789   4.509
16616TIP3    H149725   4.518   8.859   4.467
16616TIP3    H249726   4.389   8.831   4.541
16617TIP3   OH249727   3.482   7.558   6.370
16617TIP3    H149728   3.387   7.568   6.374
16617TIP3    H249729   3.503   7.502   6.445
16618TIP3   OH249730   4.320   8.236   4.885
16618TIP3    H149731   4.303   8.184   4.963
16618TIP3    H249732   4.416   8.243   4.881
16619TIP3   OH249733   3.219   8.663   6.033
16619TIP3    H149734   3.276   8.606   6.085
16619TIP3    H249735   3.233   8.750   6.069
16620TIP3   OH249736   3.499   8.286   4.703
16620TIP3    H149737   3.506   8.194   4.678
16620TIP3    H249738   3.488   8.284   4.798
16621TIP3   OH249739   3.460   8.294   4.972
16621TIP3    H149740   3.475   8.258   5.059
16621TIP3    H249741   3.447   8.388   4.986
16622TIP3   OH249742   3.186   7.992   5.160
16622TIP3    H149743   3.123   8.053   5.199
16622TIP3    H249744   3.216   8.036   5.081
16623TIP3   OH249745   4.332   7.626   6.071
16623TIP3    H149746   4.409   7.671   6.105
16623TIP3    H249747   4.321   7.550   6.128
16624TIP3   OH249748   4.223   7.370   5.258
16624TIP3    H149749   4.203   7.388   5.166
16624TIP3    H249750   4.267   7.449   5.289
16625TIP3   OH249751   3.715   8.490   4.921
16625TIP3    H149752   3.629   8.505   4.960
16625TIP3    H249753   3.731   8.567   4.867
16626TIP3   OH249754   3.873   7.568   5.349
16626TIP3    H149755   3.935   7.636   5.323
16626TIP3    H249756   3.896   7.548   5.440
16627TIP3   OH249757   4.171   7.861   6.119
16627TIP3    H149758   4.203   7.905   6.197
16627TIP3    H249759   4.220   7.779   6.115
16628TIP3   OH249760   4.036   7.265   5.435
16628TIP3    H149761   4.013   7.342   5.486
16628TIP3    H249762   4.106   7.295   5.376
16629TIP3   OH249763   3.462   8.569   5.002
16629TIP3    H149764   3.437   8.640   4.943
16629TIP3    H249765   3.445   8.604   5.090
16630TIP3   OH249766   3.549   7.289   5.244
16630TIP3    H149767   3.537   7.380   5.273
16630TIP3    H249768   3.643   7.274   5.250
16631TIP3   OH249769   4.787   7.759   6.115
16631TIP3    H149770   4.693   7.771   6.128
16631TIP3    H249771   4.794   7.699   6.041
16632TIP3   OH249772   4.452   7.964   5.499
16632TIP3    H149773   4.375   7.908   5.510
16632TIP3    H249774   4.519   7.924   5.555
16633TIP3   OH249775   3.098   7.466   5.111
16633TIP3    H149776   3.108   7.561   5.123
16633TIP3    H249777   3.048   7.457   5.030
16634TIP3   OH249778   4.436   8.930   5.442
16634TIP3    H149779   4.393   8.984   5.375
16634TIP3    H249780   4.529   8.944   5.428
16635TIP3   OH249781   3.498   7.187   5.981
16635TIP3    H149782   3.468   7.154   5.896
16635TIP3    H249783   3.488   7.112   6.040
16636TIP3   OH249784   3.231   8.974   6.443
16636TIP3    H149785   3.310   8.990   6.495
16636TIP3    H249786   3.232   8.880   6.426
16637TIP3   OH249787   3.691   8.894   6.485
16637TIP3    H149788   3.773   8.848   6.501
16637TIP3    H249789   3.652   8.848   6.410
16638TIP3   OH249790   3.656   8.486   4.601
16638TIP3    H149791   3.606   8.417   4.645
16638TIP3    H249792   3.731   8.440   4.563
16639TIP3   OH249793   4.306   8.828   6.238
16639TIP3    H149794   4.321   8.759   6.302
16639TIP3    H249795   4.380   8.888   6.250
16640TIP3   OH249796   4.094   8.528   4.523
16640TIP3    H149797   4.125   8.464   4.587
16640TIP3    H249798   4.155   8.520   4.450
16641TIP3   OH249799   3.326   8.380   6.622
16641TIP3    H149800   3.351   8.288   6.633
16641TIP3    H249801   3.238   8.376   6.584
16642TIP3   OH249802   3.316   7.972   4.828
16642TIP3    H149803   3.365   7.963   4.910
16642TIP3    H249804   3.382   7.998   4.763
16643TIP3   OH249805   3.880   8.207   4.659
16643TIP3    H149806   3.858   8.219   4.752
16643TIP3    H249807   3.859   8.116   4.642
16644TIP3   OH249808   4.422   8.502   6.023
16644TIP3    H149809   4.500   8.531   5.975
16644TIP3    H249810   4.357   8.570   6.007
16645TIP3   OH249811   3.438   8.124   6.625
16645TIP3    H149812   3.516   8.119   6.569
16645TIP3    H249813   3.474   8.137   6.713
16646TIP3   OH249814   3.492   7.928   5.043
16646TIP3    H149815   3.469   7.897   5.131
16646TIP3    H249816   3.535   7.853   5.002
16647TIP3   OH249817   3.758   7.967   6.274
16647TIP3    H149818   3.696   8.031   6.307
16647TIP3    H249819   3.820   8.017   6.221
16648TIP3   OH249820   3.627   7.741   4.884
16648TIP3    H149821   3.596   7.748   4.794
16648TIP3    H249822   3.722   7.751   4.878
16649TIP3   OH249823   4.304   8.386   6.380
16649TIP3    H149824   4.369   8.343   6.323
16649TIP3    H249825   4.297   8.327   6.455
16650TIP3   OH249826   4.419   8.028   4.567
16650TIP3    H149827   4.409   7.988   4.480
16650TIP3    H249828   4.395   8.120   4.553
16651TIP3   OH249829   3.910   7.771   6.393
16651TIP3    H149830   3.915   7.698   6.332
16651TIP3    H249831   3.864   7.840   6.346
16652TIP3   OH249832   3.917   7.570   6.195
16652TIP3    H149833   3.944   7.606   6.110
16652TIP3    H249834   3.825   7.544   6.182
16653TIP3   OH249835   3.925   8.127   6.122
16653TIP3    H149836   4.011   8.139   6.081
16653TIP3    H249837   3.865   8.176   6.066
16654TIP3   OH249838   4.530   8.060   6.447
16654TIP3    H149839   4.583   7.981   6.455
16654TIP3    H249840   4.594   8.131   6.438
16655TIP3   OH249841   4.543   8.326   6.190
16655TIP3    H149842   4.490   8.387   6.140
16655TIP3    H249843   4.632   8.341   6.159
16656TIP3   OH249844   3.790   7.853   6.638
16656TIP3    H149845   3.722   7.788   6.653
16656TIP3    H249846   3.820   7.836   6.549
16657TIP3   OH249847   4.037   7.347   6.310
16657TIP3    H149848   3.997   7.425   6.272
16657TIP3    H249849   3.972   7.277   6.296
16658TIP3   OH249850   4.163   7.820   6.497
16658TIP3    H149851   4.137   7.835   6.588
16658TIP3    H249852   4.081   7.800   6.452
16659TIP3   OH249853   4.410   7.755   6.374
16659TIP3    H149854   4.331   7.761   6.429
16659TIP3    H249855   4.481   7.739   6.437
16660TIP3   OH249856   4.646   7.732   6.527
16660TIP3    H149857   4.661   7.638   6.536
16660TIP3    H249858   4.640   7.764   6.616
16661TIP3   OH249859   3.616   7.640   6.703
16661TIP3    H149860   3.623   7.551   6.668
16661TIP3    H249861   3.653   7.634   6.791
16662TIP3   OH249862   4.107   7.331   6.576
16662TIP3    H149863   4.174   7.263   6.569
16662TIP3    H249864   4.076   7.342   6.486
16663TIP3   OH249865   4.189   7.553   6.722
16663TIP3    H149866   4.164   7.479   6.666
16663TIP3    H249867   4.118   7.616   6.711
16664TIP3   OH249868   3.462   8.786   4.824
16664TIP3    H149869   3.549   8.758   4.793
16664TIP3    H249870   3.417   8.815   4.745
16665TIP3   OH249871   2.898   8.179   4.937
16665TIP3    H149872   2.933   8.191   5.025
16665TIP3    H249873   2.902   8.084   4.922
16666TIP3   OH249874   2.819   8.727   5.446
16666TIP3    H149875   2.753   8.669   5.408
16666TIP3    H249876   2.866   8.672   5.509
16667TIP3   OH249877   2.962   8.600   5.641
16667TIP3    H149878   2.955   8.520   5.693
16667TIP3    H249879   3.011   8.660   5.696
16668TIP3   OH249880   4.705   8.983   5.430
16668TIP3    H149881   4.728   9.008   5.519
16668TIP3    H249882   4.762   9.036   5.374
16669TIP3   OH249883   4.728   9.007   5.709
16669TIP3    H149884   4.681   8.924   5.707
16669TIP3    H249885   4.797   8.993   5.774
16670TIP3   OH249886   4.776   8.721   6.285
16670TIP3    H149887   4.703   8.730   6.347
16670TIP3    H249888   4.822   8.805   6.289
16671TIP3   OH249889   4.599   8.235   4.892
16671TIP3    H149890   4.657   8.306   4.863
16671TIP3    H249891   4.644   8.198   4.968
16672TIP3   OH249892   4.727   8.094   5.095
16672TIP3    H149893   4.660   8.057   5.152
16672TIP3    H249894   4.792   8.131   5.155
16673TIP3   OH249895   4.772   8.496   5.531
16673TIP3    H149896   4.824   8.428   5.489
16673TIP3    H249897   4.775   8.570   5.470
16674TIP3   OH249898   4.579   8.775   5.721
16674TIP3    H149899   4.513   8.821   5.773
16674TIP3    H249900   4.530   8.735   5.650
16675TIP3   OH249901   4.632   8.009   4.739
16675TIP3    H149902   4.558   8.009   4.678
16675TIP3    H249903   4.618   8.088   4.793
16676TIP3   OH249904   4.485   7.655   4.681
16676TIP3    H149905   4.438   7.689   4.605
16676TIP3    H249906   4.479   7.560   4.673
16677TIP3   OH249907   4.521   7.956   5.229
16677TIP3    H149908   4.525   7.862   5.216
16677TIP3    H249909   4.502   7.966   5.323
16678TIP3   OH249910   3.139   8.017   6.010
16678TIP3    H149911   3.129   7.985   5.920
16678TIP3    H249912   3.233   8.014   6.026
16679TIP3   OH249913   4.800   8.371   6.093
16679TIP3    H149914   4.868   8.306   6.076
16679TIP3    H249915   4.805   8.430   6.018
16680TIP3   OH249916   4.980   8.162   6.084
16680TIP3    H149917   4.906   8.120   6.127
16680TIP3    H249918   5.055   8.106   6.106
16681TIP3   OH249919   4.448   7.384   4.647
16681TIP3    H149920   4.513   7.358   4.713
16681TIP3    H249921   4.365   7.346   4.679
16682TIP3   OH249922   4.514   7.679   5.117
16682TIP3    H149923   4.559   7.595   5.129
16682TIP3    H249924   4.556   7.717   5.040
16683TIP3   OH249925   4.667   7.843   5.641
16683TIP3    H149926   4.748   7.860   5.593
16683TIP3    H249927   4.681   7.883   5.727
16684TIP3   OH249928   4.742   7.993   5.868
16684TIP3    H149929   4.670   8.021   5.925
16684TIP3    H249930   4.772   8.074   5.826
16685TIP3   OH249931   3.351   7.691   6.642
16685TIP3    H149932   3.446   7.690   6.657
16685TIP3    H249933   3.319   7.611   6.683
16686TIP3   OH249934   5.202   7.594   6.406
16686TIP3    H149935   5.267   7.536   6.366
16686TIP3    H249936   5.164   7.642   6.333
16687TIP3   OH249937   4.630   7.429   5.169
16687TIP3    H149938   4.674   7.414   5.252
16687TIP3    H249939   4.567   7.357   5.162
16688TIP3   OH249940   3.334   7.411   6.002
16688TIP3    H149941   3.388   7.332   6.006
16688TIP3    H249942   3.396   7.482   5.982
16689TIP3   OH249943   3.115   7.679   6.055
16689TIP3    H149944   3.166   7.669   5.975
16689TIP3    H249945   3.145   7.762   6.093
16690TIP3   OH249946   5.052   7.706   6.207
16690TIP3    H149947   4.968   7.746   6.231
16690TIP3    H249948   5.028   7.630   6.154
16691TIP3   OH249949   4.674   7.341   4.806
16691TIP3    H149950   4.723   7.280   4.750
16691TIP3    H249951   4.730   7.419   4.810
16692TIP3   OH249952   3.103   7.189   5.560
16692TIP3    H149953   3.018   7.176   5.601
16692TIP3    H249954   3.084   7.243   5.483
16693TIP3   OH249955   4.253   8.910   5.069
16693TIP3    H149956   4.310   8.895   4.994
16693TIP3    H249957   4.302   8.970   5.125
16694TIP3   OH249958   3.332   7.249   6.389
16694TIP3    H149959   3.277   7.237   6.467
16694TIP3    H249960   3.274   7.293   6.327
16695TIP3   OH249961   3.344   8.708   6.437
16695TIP3    H149962   3.254   8.675   6.441
16695TIP3    H249963   3.383   8.681   6.520
16696TIP3   OH249964   3.573   8.731   6.004
16696TIP3    H149965   3.518   8.802   5.970
16696TIP3    H249966   3.657   8.743   5.958
16697TIP3   OH249967   3.978   8.973   6.152
16697TIP3    H149968   4.016   8.960   6.240
16697TIP3    H249969   4.042   9.028   6.107
16698TIP3   OH249970   4.162   9.125   6.015
16698TIP3    H149971   4.218   9.068   5.962
16698TIP3    H249972   4.223   9.177   6.067
16699TIP3   OH249973   4.967   7.457   6.103
16699TIP3    H149974   4.880   7.451   6.063
16699TIP3    H249975   5.002   7.368   6.098
16700TIP3   OH249976   3.227   8.959   6.051
16700TIP3    H149977   3.138   8.986   6.029
16700TIP3    H249978   3.257   9.022   6.116
16701TIP3   OH249979   3.457   8.954   5.900
16701TIP3    H149980   3.373   8.959   5.945
16701TIP3    H249981   3.437   8.979   5.810
16702TIP3   OH249982   3.873   8.992   5.687
16702TIP3    H149983   3.804   9.001   5.620
16702TIP3    H249984   3.879   9.078   5.727
16703TIP3   OH249985   4.131   8.925   5.755
16703TIP3    H149986   4.042   8.946   5.728
16703TIP3    H249987   4.186   8.986   5.706
16704TIP3   OH249988   4.336   9.078   5.651
16704TIP3    H149989   4.334   9.167   5.614
16704TIP3    H249990   4.368   9.023   5.579
16705TIP3   OH249991   3.141   8.763   5.786
16705TIP3    H149992   3.171   8.737   5.873
16705TIP3    H249993   3.208   8.728   5.727
16706TIP3   OH249994   3.334   8.648   5.631
16706TIP3    H149995   3.346   8.563   5.672
16706TIP3    H249996   3.421   8.688   5.631
16707TIP3   OH249997   3.605   8.730   5.653
16707TIP3    H149998   3.622   8.637   5.640
16707TIP3    H249999   3.661   8.755   5.726
16708TIP3   OH250000   4.174   7.382   5.740
16708TIP3    H150001   4.133   7.310   5.790
16708TIP3    H250002   4.242   7.339   5.688
16709TIP3   OH250003   4.675   7.302   5.631
16709TIP3    H150004   4.709   7.351   5.557
16709TIP3    H250005   4.581   7.320   5.630
16710TIP3   OH250006   4.787   7.377   5.392
16710TIP3    H150007   4.855   7.316   5.365
16710TIP3    H250008   4.825   7.464   5.378
16711TIP3   OH250009   3.409   7.084   5.740
16711TIP3    H150010   3.320   7.050   5.749
16711TIP3    H250011   3.463   7.006   5.731
16712TIP3   OH250012   3.225   6.993   5.391
16712TIP3    H150013   3.253   7.042   5.313
16712TIP3    H250014   3.191   7.060   5.450
16713TIP3   OH250015   3.891   7.123   5.634
16713TIP3    H150016   3.939   7.170   5.565
16713TIP3    H250017   3.933   7.152   5.715
16714TIP3   OH250018   4.388   7.263   5.610
16714TIP3    H150019   4.403   7.226   5.523
16714TIP3    H250020   4.394   7.187   5.669
16715TIP3   OH250021   4.444   7.219   5.176
16715TIP3    H150022   4.364   7.265   5.201
16715TIP3    H250023   4.434   7.131   5.214
16716TIP3   OH250024   2.974   8.496   5.099
16716TIP3    H150025   2.991   8.411   5.141
16716TIP3    H250026   2.883   8.515   5.122
16717TIP3   OH250027   3.338   7.122   5.154
16717TIP3    H150028   3.384   7.060   5.098
16717TIP3    H250029   3.407   7.178   5.190
16718TIP3   OH250030   3.824   7.318   5.250
16718TIP3    H150031   3.883   7.264   5.303
16718TIP3    H250032   3.840   7.407   5.280
16719TIP3   OH250033   3.711   8.710   4.744
16719TIP3    H150034   3.796   8.736   4.709
16719TIP3    H250035   3.684   8.637   4.689
16720TIP3   OH250036   4.402   8.851   4.842
16720TIP3    H150037   4.395   8.755   4.836
16720TIP3    H250038   4.364   8.882   4.760
16721TIP3   OH250039   3.638   7.368   6.623
16721TIP3    H150040   3.605   7.299   6.681
16721TIP3    H250041   3.730   7.378   6.648
16722TIP3   OH250042   3.886   7.378   6.748
16722TIP3    H150043   3.963   7.356   6.697
16722TIP3    H250044   3.878   7.306   6.811
16723TIP3   OH250045   3.023   8.565   4.830
16723TIP3    H150046   3.009   8.548   4.924
16723TIP3    H250047   3.102   8.515   4.809
16724TIP3   OH250048   4.711   7.459   6.539
16724TIP3    H150049   4.731   7.429   6.628
16724TIP3    H250050   4.796   7.456   6.494
16725TIP3   OH250051   4.631   8.992   6.034
16725TIP3    H150052   4.555   8.962   5.983
16725TIP3    H250053   4.618   9.087   6.042
16726TIP3   OH250054   5.906   8.384   4.773
16726TIP3    H150055   5.876   8.471   4.747
16726TIP3    H250056   5.835   8.325   4.748
16727TIP3   OH250057   5.904   8.374   5.199
16727TIP3    H150058   5.957   8.356   5.277
16727TIP3    H250059   5.859   8.292   5.182
16728TIP3   OH250060   5.200   8.236   5.542
16728TIP3    H150061   5.238   8.185   5.613
16728TIP3    H250062   5.274   8.261   5.488
16729TIP3   OH250063   6.171   8.681   4.873
16729TIP3    H150064   6.159   8.616   4.942
16729TIP3    H250065   6.192   8.762   4.920
16730TIP3   OH250066   5.194   8.661   5.228
16730TIP3    H150067   5.175   8.568   5.236
16730TIP3    H250068   5.290   8.665   5.221
16731TIP3   OH250069   4.876   7.868   5.012
16731TIP3    H150070   4.837   7.952   5.038
16731TIP3    H250071   4.804   7.819   4.973
16732TIP3   OH250072   4.956   8.180   5.236
16732TIP3    H150073   5.007   8.103   5.262
16732TIP3    H250074   5.023   8.245   5.212
16733TIP3   OH250075   5.829   9.114   4.884
16733TIP3    H150076   5.858   9.046   4.823
16733TIP3    H250077   5.819   9.069   4.968
16734TIP3   OH250078   5.712   8.595   5.201
16734TIP3    H150079   5.757   8.516   5.174
16734TIP3    H250080   5.781   8.653   5.234
16735TIP3   OH250081   6.742   7.918   5.219
16735TIP3    H150082   6.756   8.003   5.260
16735TIP3    H250083   6.776   7.928   5.130
16736TIP3   OH250084   6.118   8.084   5.239
16736TIP3    H150085   6.149   7.998   5.267
16736TIP3    H250086   6.079   8.068   5.153
16737TIP3   OH250087   5.473   7.741   5.196
16737TIP3    H150088   5.451   7.814   5.139
16737TIP3    H250089   5.417   7.670   5.167
16738TIP3   OH250090   6.164   7.843   4.838
16738TIP3    H150091   6.228   7.837   4.909
16738TIP3    H250092   6.214   7.879   4.765
16739TIP3   OH250093   5.096   7.958   5.328
16739TIP3    H150094   5.179   7.939   5.371
16739TIP3    H250095   5.099   7.906   5.247
16740TIP3   OH250096   5.515   8.157   5.144
16740TIP3    H150097   5.609   8.142   5.150
16740TIP3    H250098   5.480   8.074   5.109
16741TIP3   OH250099   6.797   8.139   5.381
16741TIP3    H150100   6.708   8.174   5.378
16741TIP3    H250101   6.833   8.170   5.464
16742TIP3   OH250102   5.451   7.748   5.650
16742TIP3    H150103   5.401   7.783   5.576
16742TIP3    H250104   5.396   7.764   5.726
16743TIP3   OH250105   5.805   8.601   4.635
16743TIP3    H150106   5.764   8.569   4.555
16743TIP3    H250107   5.751   8.675   4.662
16744TIP3   OH250108   5.546   8.520   5.411
16744TIP3    H150109   5.493   8.590   5.447
16744TIP3    H250110   5.594   8.560   5.339
16745TIP3   OH250111   6.325   7.868   5.057
16745TIP3    H150112   6.283   7.845   5.140
16745TIP3    H250113   6.380   7.943   5.079
16746TIP3   OH250114   5.344   7.854   5.417
16746TIP3    H150115   5.399   7.929   5.440
16746TIP3    H250116   5.391   7.811   5.345
16747TIP3   OH250117   5.391   8.718   5.523
16747TIP3    H150118   5.379   8.808   5.494
16747TIP3    H250119   5.312   8.699   5.575
16748TIP3   OH250120   4.770   8.424   4.776
16748TIP3    H150121   4.735   8.447   4.689
16748TIP3    H250122   4.794   8.507   4.815
16749TIP3   OH250123   6.207   8.930   5.009
16749TIP3    H150124   6.121   8.922   5.049
16749TIP3    H250125   6.205   9.013   4.962
16750TIP3   OH250126   6.541   7.812   5.389
16750TIP3    H150127   6.456   7.833   5.351
16750TIP3    H250128   6.605   7.837   5.322
16751TIP3   OH250129   5.797   7.444   5.380
16751TIP3    H150130   5.788   7.352   5.407
16751TIP3    H250131   5.721   7.488   5.418
16752TIP3   OH250132   5.919   8.959   4.671
16752TIP3    H150133   5.971   8.880   4.660
16752TIP3    H250134   5.976   9.030   4.641
16753TIP3   OH250135   6.055   8.727   4.627
16753TIP3    H150136   5.979   8.668   4.627
16753TIP3    H250137   6.104   8.703   4.706
16754TIP3   OH250138   6.441   8.817   5.358
16754TIP3    H150139   6.424   8.742   5.301
16754TIP3    H250140   6.423   8.893   5.303
16755TIP3   OH250141   5.731   8.222   4.627
16755TIP3    H150142   5.647   8.264   4.610
16755TIP3    H250143   5.776   8.222   4.543
16756TIP3   OH250144   5.698   8.030   4.317
16756TIP3    H150145   5.765   8.077   4.367
16756TIP3    H250146   5.747   7.960   4.273
16757TIP3   OH250147   6.623   8.479   5.222
16757TIP3    H150148   6.538   8.523   5.222
16757TIP3    H250149   6.659   8.494   5.135
16758TIP3   OH250150   6.092   8.309   4.587
16758TIP3    H150151   6.037   8.340   4.659
16758TIP3    H250152   6.175   8.286   4.628
16759TIP3   OH250153   6.319   8.339   5.535
16759TIP3    H150154   6.316   8.422   5.582
16759TIP3    H250155   6.237   8.336   5.485
16760TIP3   OH250156   5.316   8.289   4.992
16760TIP3    H150157   5.280   8.228   4.928
16760TIP3    H250158   5.389   8.241   5.032
16761TIP3   OH250159   5.458   8.709   5.135
16761TIP3    H150160   5.434   8.696   5.043
16761TIP3    H250161   5.546   8.671   5.142
16762TIP3   OH250162   5.413   8.285   5.367
16762TIP3    H150163   5.452   8.248   5.287
16762TIP3    H250164   5.462   8.366   5.382
16763TIP3   OH250165   5.974   8.919   5.145
16763TIP3    H150166   5.956   9.000   5.193
16763TIP3    H250167   5.956   8.850   5.208
16764TIP3   OH250168   5.589   8.820   5.690
16764TIP3    H150169   5.529   8.878   5.737
16764TIP3    H250170   5.532   8.768   5.633
16765TIP3   OH250171   5.921   8.171   4.419
16765TIP3    H150172   5.980   8.229   4.467
16765TIP3    H250173   5.951   8.177   4.328
16766TIP3   OH250174   5.342   8.366   5.836
16766TIP3    H150175   5.347   8.459   5.854
16766TIP3    H250176   5.248   8.348   5.828
16767TIP3   OH250177   5.671   8.837   4.679
16767TIP3    H150178   5.752   8.887   4.686
16767TIP3    H250179   5.613   8.893   4.627
16768TIP3   OH250180   5.382   8.980   5.779
16768TIP3    H150181   5.356   8.988   5.688
16768TIP3    H250182   5.300   8.963   5.826
16769TIP3   OH250183   6.421   7.392   4.474
16769TIP3    H150184   6.346   7.409   4.531
16769TIP3    H250185   6.421   7.465   4.412
16770TIP3   OH250186   5.191   8.131   4.792
16770TIP3    H150187   5.113   8.178   4.762
16770TIP3    H250188   5.159   8.042   4.810
16771TIP3   OH250189   6.255   8.772   4.033
16771TIP3    H150190   6.246   8.865   4.013
16771TIP3    H250191   6.346   8.752   4.014
16772TIP3   OH250192   4.973   8.537   5.725
16772TIP3    H150193   4.903   8.519   5.663
16772TIP3    H250194   5.007   8.451   5.749
16773TIP3   OH250195   4.820   8.729   5.380
16773TIP3    H150196   4.911   8.754   5.399
16773TIP3    H250197   4.769   8.805   5.407
16774TIP3   OH250198   6.671   9.180   5.428
16774TIP3    H150199   6.676   9.085   5.441
16774TIP3    H250200   6.592   9.206   5.475
16775TIP3   OH250201   5.778   8.962   5.551
16775TIP3    H150202   5.772   9.053   5.579
16775TIP3    H250203   5.709   8.916   5.599
16776TIP3   OH250204   5.563   9.034   4.507
16776TIP3    H150205   5.521   9.022   4.422
16776TIP3    H250206   5.532   9.120   4.536
16777TIP3   OH250207   4.994   8.906   4.885
16777TIP3    H150208   5.039   8.903   4.970
16777TIP3    H250209   4.947   8.822   4.881
16778TIP3   OH250210   5.760   8.997   4.132
16778TIP3    H150211   5.813   8.926   4.097
16778TIP3    H250212   5.795   9.011   4.221
16779TIP3   OH250213   5.817   9.031   4.402
16779TIP3    H150214   5.731   9.026   4.444
16779TIP3    H250215   5.878   8.996   4.468
16780TIP3   OH250216   6.563   8.292   5.690
16780TIP3    H150217   6.480   8.300   5.644
16780TIP3    H250218   6.582   8.198   5.689
16781TIP3   OH250219   5.173   8.725   5.693
16781TIP3    H150220   5.222   8.713   5.774
16781TIP3    H250221   5.100   8.662   5.700
16782TIP3   OH250222   5.558   7.532   5.507
16782TIP3    H150223   5.475   7.498   5.474
16782TIP3    H250224   5.534   7.612   5.554
16783TIP3   OH250225   6.098   7.645   5.705
16783TIP3    H150226   6.167   7.618   5.766
16783TIP3    H250227   6.017   7.627   5.752
16784TIP3   OH250228   6.324   8.074   5.625
16784TIP3    H150229   6.280   8.070   5.710
16784TIP3    H250230   6.306   8.162   5.593
16785TIP3   OH250231   6.007   8.152   4.158
16785TIP3    H150232   5.964   8.148   4.073
16785TIP3    H250233   6.088   8.201   4.142
16786TIP3   OH250234   5.709   7.572   4.474
16786TIP3    H150235   5.672   7.580   4.562
16786TIP3    H250236   5.674   7.490   4.440
16787TIP3   OH250237   5.495   8.065   5.516
16787TIP3    H150238   5.449   8.071   5.599
16787TIP3    H250239   5.473   8.146   5.470
16788TIP3   OH250240   5.375   7.942   5.036
16788TIP3    H150241   5.286   7.918   5.062
16788TIP3    H250242   5.384   7.909   4.947
16789TIP3   OH250243   5.853   8.019   4.766
16789TIP3    H150244   5.806   8.092   4.725
16789TIP3    H250245   5.910   7.986   4.697
16790TIP3   OH250246   6.038   8.284   5.836
16790TIP3    H150247   6.012   8.216   5.898
16790TIP3    H250248   6.131   8.300   5.855
16791TIP3   OH250249   6.021   8.032   4.988
16791TIP3    H150250   5.953   8.053   4.925
16791TIP3    H250251   6.067   7.957   4.950
16792TIP3   OH250252   5.333   8.081   5.737
16792TIP3    H150253   5.342   8.146   5.806
16792TIP3    H250254   5.314   7.999   5.783
16793TIP3   OH250255   5.376   7.554   4.450
16793TIP3    H150256   5.366   7.557   4.546
16793TIP3    H250257   5.297   7.597   4.417
16794TIP3   OH250258   4.921   7.598   5.316
16794TIP3    H150259   4.995   7.633   5.366
16794TIP3    H250260   4.958   7.577   5.230
16795TIP3   OH250261   4.827   7.574   4.819
16795TIP3    H150262   4.873   7.610   4.744
16795TIP3    H250263   4.764   7.642   4.843
16796TIP3   OH250264   6.069   8.286   5.413
16796TIP3    H150265   6.093   8.219   5.349
16796TIP3    H250266   6.024   8.237   5.482
16797TIP3   OH250267   5.741   7.731   5.086
16797TIP3    H150268   5.663   7.731   5.142
16797TIP3    H250269   5.814   7.723   5.147
16798TIP3   OH250270   5.136   7.818   5.095
16798TIP3    H150271   5.048   7.822   5.058
16798TIP3    H250272   5.164   7.728   5.080
16799TIP3   OH250273   5.388   7.820   4.790
16799TIP3    H150274   5.483   7.830   4.779
16799TIP3    H250275   5.352   7.837   4.703
16800TIP3   OH250276   6.186   7.822   5.297
16800TIP3    H150277   6.167   7.838   5.390
16800TIP3    H250278   6.118   7.760   5.270
16801TIP3   OH250279   5.274   7.843   4.542
16801TIP3    H150280   5.212   7.793   4.490
16801TIP3    H250281   5.328   7.888   4.477
16802TIP3   OH250282   9.654   0.285   5.514
16802TIP3    H150283   9.650   0.306   5.421
16802TIP3    H250284   9.732   0.331   5.546
16803TIP3   OH250285   5.328   8.633   5.926
16803TIP3    H150286   5.408   8.654   5.974
16803TIP3    H250287   5.258   8.644   5.991
16804TIP3   OH250288   5.788   8.105   5.193
16804TIP3    H150289   5.854   8.055   5.145
16804TIP3    H250290   5.786   8.065   5.280
16805TIP3   OH250291   5.279   7.569   5.082
16805TIP3    H150292   5.250   7.494   5.134
16805TIP3    H250293   5.300   7.532   4.996
16806TIP3   OH250294   5.761   8.009   5.457
16806TIP3    H150295   5.675   8.041   5.482
16806TIP3    H250296   5.822   8.060   5.511
16807TIP3   OH250297   5.491   8.353   4.573
16807TIP3    H150298   5.416   8.299   4.548
16807TIP3    H250299   5.466   8.395   4.655
16808TIP3   OH250300   6.387   8.615   5.177
16808TIP3    H150301   6.421   8.665   5.104
16808TIP3    H250302   6.307   8.574   5.144
16809TIP3   OH250303   5.961   7.677   4.476
16809TIP3    H150304   5.869   7.653   4.473
16809TIP3    H250305   5.961   7.772   4.491
16810TIP3   OH250306   5.904   8.698   5.592
16810TIP3    H150307   5.953   8.690   5.674
16810TIP3    H250308   5.863   8.784   5.597
16811TIP3   OH250309   6.016   7.941   4.550
16811TIP3    H150310   6.111   7.946   4.562
16811TIP3    H250311   5.995   8.020   4.499
16812TIP3   OH250312   5.182   8.371   5.220
16812TIP3    H150313   5.220   8.354   5.134
16812TIP3    H250314   5.248   8.342   5.283
16813TIP3   OH250315   5.648   8.513   4.419
16813TIP3    H150316   5.600   8.595   4.413
16813TIP3    H250317   5.592   8.455   4.470
16814TIP3   OH250318   5.067   8.302   5.854
16814TIP3    H150319   5.069   8.276   5.946
16814TIP3    H250320   4.992   8.256   5.817
16815TIP3   OH250321   5.808   8.439   5.879
16815TIP3    H150322   5.738   8.380   5.851
16815TIP3    H250323   5.888   8.397   5.848
16816TIP3   OH250324   6.049   8.985   5.476
16816TIP3    H150325   5.955   8.971   5.479
16816TIP3    H250326   6.071   9.021   5.562
16817TIP3   OH250327   6.448   8.011   4.382
16817TIP3    H150328   6.458   7.949   4.310
16817TIP3    H250329   6.434   8.096   4.339
16818TIP3   OH250330   6.685   8.900   5.448
16818TIP3    H150331   6.591   8.885   5.441
16818TIP3    H250332   6.720   8.870   5.364
16819TIP3   OH250333   6.178   8.845   4.301
16819TIP3    H150334   6.147   8.776   4.360
16819TIP3    H250335   6.194   8.800   4.218
16820TIP3   OH250336   6.157   8.480   5.076
16820TIP3    H150337   6.067   8.458   5.101
16820TIP3    H250338   6.191   8.399   5.037
16821TIP3   OH250339   5.312   8.713   4.894
16821TIP3    H150340   5.308   8.787   4.833
16821TIP3    H250341   5.224   8.705   4.930
16822TIP3   OH250342   4.869   7.999   4.600
16822TIP3    H150343   4.913   8.082   4.622
16822TIP3    H250344   4.789   8.000   4.651
16823TIP3   OH250345   5.396   8.470   4.796
16823TIP3    H150346   5.379   8.559   4.826
16823TIP3    H250347   5.370   8.414   4.869
16824TIP3   OH250348   5.595   9.038   5.344
16824TIP3    H150349   5.629   9.111   5.292
16824TIP3    H250350   5.671   9.007   5.393
16825TIP3   OH250351   5.224   8.929   4.738
16825TIP3    H150352   5.138   8.932   4.779
16825TIP3    H250353   5.259   9.018   4.747
16826TIP3   OH250354   5.943   8.700   5.319
16826TIP3    H150355   5.930   8.697   5.413
16826TIP3    H250356   6.021   8.647   5.303
16827TIP3   OH250357   5.945   8.576   4.179
16827TIP3    H150358   5.994   8.545   4.255
16827TIP3    H250359   5.860   8.532   4.186
16828TIP3   OH250360   6.196   9.198   5.362
16828TIP3    H150361   6.128   9.134   5.379
16828TIP3    H250362   6.164   9.248   5.287
16829TIP3   OH250363   6.252   9.044   3.991
16829TIP3    H150364   6.276   9.104   3.921
16829TIP3    H250365   6.182   9.088   4.038
16830TIP3   OH250366   5.278   7.827   5.854
16830TIP3    H150367   5.183   7.837   5.858
16830TIP3    H250368   5.300   7.776   5.932
16831TIP3   OH250369   6.118   8.481   4.369
16831TIP3    H150370   6.101   8.434   4.451
16831TIP3    H250371   6.213   8.490   4.366
16832TIP3   OH250372   5.021   8.928   5.503
16832TIP3    H150373   5.075   8.874   5.561
16832TIP3    H250374   5.031   9.017   5.537
16833TIP3   OH250375   5.292   8.544   4.200
16833TIP3    H150376   5.302   8.453   4.172
16833TIP3    H250377   5.277   8.539   4.294
16834TIP3   OH250378   5.233   8.556   4.472
16834TIP3    H150379   5.297   8.530   4.538
16834TIP3    H250380   5.232   8.652   4.477
16835TIP3   OH250381   4.965   8.250   4.681
16835TIP3    H150382   4.900   8.297   4.733
16835TIP3    H250383   4.985   8.308   4.608
16836TIP3   OH250384   6.130   7.880   5.561
16836TIP3    H150385   6.208   7.923   5.595
16836TIP3    H250386   6.120   7.802   5.615
16837TIP3   OH250387   6.018   7.625   4.745
16837TIP3    H150388   5.999   7.644   4.654
16837TIP3    H250389   6.061   7.704   4.778
16838TIP3   OH250390   5.501   8.738   4.406
16838TIP3    H150391   5.418   8.764   4.445
16838TIP3    H250392   5.527   8.814   4.353
16839TIP3   OH250393   5.668   7.826   4.835
16839TIP3    H150394   5.730   7.895   4.810
16839TIP3    H250395   5.692   7.805   4.926
16840TIP3   OH250396   5.970   8.119   5.609
16840TIP3    H150397   5.993   8.162   5.691
16840TIP3    H250398   6.019   8.037   5.610
16841TIP3   OH250399   5.831   7.521   4.921
16841TIP3    H150400   5.809   7.598   4.973
16841TIP3    H250401   5.901   7.551   4.863
16842TIP3   OH250402   5.253   8.827   4.487
16842TIP3    H150403   5.232   8.899   4.427
16842TIP3    H250404   5.242   8.865   4.574
16843TIP3   OH250405   5.345   7.546   4.730
16843TIP3    H150406   5.333   7.637   4.758
16843TIP3    H250407   5.439   7.531   4.736
16844TIP3   OH250408   6.587   8.011   5.601
16844TIP3    H150409   6.493   8.025   5.614
16844TIP3    H250410   6.592   7.951   5.526
16845TIP3   OH250411   6.247   8.222   4.986
16845TIP3    H150412   6.169   8.167   4.999
16845TIP3    H250413   6.313   8.182   5.043
16846TIP3   OH250414   4.987   8.427   4.465
16846TIP3    H150415   5.059   8.490   4.474
16846TIP3    H250416   5.018   8.365   4.399
16847TIP3   OH250417   4.897   7.722   4.600
16847TIP3    H150418   4.908   7.817   4.607
16847TIP3    H250419   4.841   7.710   4.523
16848TIP3   OH250420   6.229   9.194   4.920
16848TIP3    H150421   6.187   9.248   4.853
16848TIP3    H250422   6.322   9.213   4.911
16849TIP3   OH250423   5.298   7.442   5.466
16849TIP3    H150424   5.267   7.410   5.382
16849TIP3    H250425   5.286   7.369   5.526
16850TIP3   OH250426   4.823   8.683   4.872
16850TIP3    H150427   4.785   8.720   4.951
16850TIP3    H250428   4.778   8.728   4.800
16851TIP3   OH250429   5.009   9.226   5.929
16851TIP3    H150430   5.094   9.228   5.974
16851TIP3    H250431   4.986   9.133   5.927
16852TIP3   OH250432   5.489   9.143   5.975
16852TIP3    H150433   5.579   9.114   5.982
16852TIP3    H250434   5.453   9.090   5.903
16853TIP3   OH250435   5.442   8.749   4.090
16853TIP3    H150436   5.395   8.678   4.134
16853TIP3    H250437   5.519   8.707   4.052
16854TIP3   OH250438   6.106   9.083   5.726
16854TIP3    H150439   6.121   9.014   5.790
16854TIP3    H250440   6.179   9.144   5.738
16855TIP3   OH250441   5.895   8.790   4.017
16855TIP3    H150442   5.927   8.723   4.078
16855TIP3    H250443   5.954   8.785   3.942
16856TIP3   OH250444   5.122   8.636   6.115
16856TIP3    H150445   5.139   8.542   6.127
16856TIP3    H250446   5.035   8.639   6.075
16857TIP3   OH250447   5.111   8.239   4.311
16857TIP3    H150448   5.161   8.215   4.389
16857TIP3    H250449   5.177   8.252   4.243
16858TIP3   OH250450   5.744   8.716   5.894
16858TIP3    H150451   5.698   8.738   5.812
16858TIP3    H250452   5.777   8.628   5.880
16859TIP3   OH250453   5.693   8.459   4.154
16859TIP3    H150454   5.668   8.470   4.246
16859TIP3    H250455   5.670   8.368   4.133
16860TIP3   OH250456   6.218   8.760   5.513
16860TIP3    H150457   6.295   8.788   5.463
16860TIP3    H250458   6.153   8.829   5.496
16861TIP3   OH250459   5.236   8.379   6.126
16861TIP3    H150460   5.312   8.364   6.069
16861TIP3    H250461   5.274   8.400   6.211
16862TIP3   OH250462   5.281   8.179   4.524
16862TIP3    H150463   5.261   8.148   4.613
16862TIP3    H250464   5.330   8.107   4.485
16863TIP3   OH250465   5.603   8.265   5.783
16863TIP3    H150466   5.516   8.304   5.793
16863TIP3    H250467   5.632   8.294   5.697
16864TIP3   OH250468   5.426   7.996   4.371
16864TIP3    H150469   5.396   8.000   4.280
16864TIP3    H250470   5.521   8.005   4.365
16865TIP3   OH250471   6.097   8.637   5.864
16865TIP3    H150472   6.164   8.596   5.809
16865TIP3    H250473   6.092   8.581   5.941
16866TIP3   OH250474   6.229   8.275   4.040
16866TIP3    H150475   6.215   8.236   3.954
16866TIP3    H250476   6.202   8.367   4.029
16867TIP3   OH250477   5.704   8.031   5.886
16867TIP3    H150478   5.706   7.962   5.820
16867TIP3    H250479   5.670   8.108   5.839
16868TIP3   OH250480   5.711   7.833   5.682
16868TIP3    H150481   5.738   7.871   5.598
16868TIP3    H250482   5.620   7.808   5.669
16869TIP3   OH250483   5.716   8.359   5.555
16869TIP3    H150484   5.804   8.395   5.544
16869TIP3    H250485   5.659   8.417   5.504
16870TIP3   OH250486   6.306   8.323   5.933
16870TIP3    H150487   6.353   8.239   5.933
16870TIP3    H250488   6.375   8.389   5.927
16871TIP3   OH250489   6.339   8.583   5.679
16871TIP3    H150490   6.286   8.645   5.629
16871TIP3    H250491   6.429   8.597   5.648
16872TIP3   OH250492   5.586   8.111   6.129
16872TIP3    H150493   5.516   8.049   6.150
16872TIP3    H250494   5.614   8.088   6.041
16873TIP3   OH250495   5.829   7.601   5.784
16873TIP3    H150496   5.791   7.682   5.750
16873TIP3    H250497   5.763   7.534   5.768
16874TIP3   OH250498   5.958   8.071   5.991
16874TIP3    H150499   5.944   8.059   6.085
16874TIP3    H250500   5.873   8.050   5.952
16875TIP3   OH250501   6.202   8.030   5.861
16875TIP3    H150502   6.124   8.028   5.915
16875TIP3    H250503   6.273   8.004   5.919
16876TIP3   OH250504   6.440   7.989   6.002
16876TIP3    H150505   6.453   7.894   6.010
16876TIP3    H250506   6.434   8.020   6.092
16877TIP3   OH250507   5.418   7.893   6.195
16877TIP3    H150508   5.425   7.804   6.160
16877TIP3    H250509   5.457   7.887   6.282
16878TIP3   OH250510   5.890   7.587   6.052
16878TIP3    H150511   5.965   7.528   6.046
16878TIP3    H250512   5.860   7.599   5.962
16879TIP3   OH250513   5.992   7.794   6.204
16879TIP3    H150514   5.961   7.723   6.147
16879TIP3    H250515   5.921   7.858   6.203
16880TIP3   OH250516   5.249   9.036   4.306
16880TIP3    H150517   5.340   9.016   4.282
16880TIP3    H250518   5.213   9.076   4.227
16881TIP3   OH250519   4.714   8.428   4.482
16881TIP3    H150520   4.809   8.439   4.479
16881TIP3    H250521   4.699   8.341   4.444
16882TIP3   OH250522   4.621   8.981   4.943
16882TIP3    H150523   4.555   8.930   4.896
16882TIP3    H250524   4.664   8.918   5.001
16883TIP3   OH250525   4.769   8.824   5.114
16883TIP3    H150526   4.765   8.760   5.185
16883TIP3    H250527   4.817   8.898   5.152
16884TIP3   OH250528   9.764   0.022   4.929
16884TIP3    H150529   9.778   0.022   5.024
16884TIP3    H250530   9.787   0.111   4.902
16885TIP3   OH250531   6.514   9.268   5.206
16885TIP3    H150532   6.465   9.186   5.206
16885TIP3    H250533   6.582   9.255   5.271
16886TIP3   OH250534   6.577   8.976   5.774
16886TIP3    H150535   6.502   8.986   5.833
16886TIP3    H250536   6.621   9.061   5.777
16887TIP3   OH250537   6.397   8.478   4.376
16887TIP3    H150538   6.452   8.550   4.344
16887TIP3    H250539   6.443   8.445   4.453
16888TIP3   OH250540   6.526   8.343   4.581
16888TIP3    H150541   6.458   8.308   4.638
16888TIP3    H250542   6.590   8.381   4.641
16889TIP3   OH250543   6.565   8.761   5.017
16889TIP3    H150544   6.617   8.695   4.972
16889TIP3    H250545   6.566   8.836   4.957
16890TIP3   OH250546   6.367   9.035   5.209
16890TIP3    H150547   6.299   9.079   5.260
16890TIP3    H250548   6.321   8.995   5.136
16891TIP3   OH250549   6.412   8.241   4.237
16891TIP3    H150550   6.344   8.254   4.170
16891TIP3    H250551   6.406   8.319   4.292
16892TIP3   OH250552   6.415   7.912   4.092
16892TIP3    H150553   6.358   7.989   4.101
16892TIP3    H250554   6.358   7.838   4.112
16893TIP3   OH250555   6.319   8.212   4.719
16893TIP3    H150556   6.321   8.118   4.706
16893TIP3    H250557   6.299   8.224   4.812
16894TIP3   OH250558   4.936   8.274   5.492
16894TIP3    H150559   4.926   8.243   5.403
16894TIP3    H250560   5.030   8.271   5.509
16895TIP3   OH250561   6.597   8.629   5.584
16895TIP3    H150562   6.664   8.563   5.567
16895TIP3    H250563   6.611   8.696   5.517
16896TIP3   OH250564   6.774   8.419   5.573
16896TIP3    H150565   6.699   8.377   5.614
16896TIP3    H250566   6.848   8.360   5.591
16897TIP3   OH250567   6.245   7.704   4.158
16897TIP3    H150568   6.312   7.659   4.210
16897TIP3    H250569   6.165   7.653   4.174
16898TIP3   OH250570   6.306   7.933   4.609
16898TIP3    H150571   6.346   7.847   4.622
16898TIP3    H250572   6.352   7.970   4.534
16899TIP3   OH250573   6.462   8.101   5.129
16899TIP3    H150574   6.542   8.119   5.080
16899TIP3    H250575   6.476   8.140   5.215
16900TIP3   OH250576   6.537   8.251   5.356
16900TIP3    H150577   6.465   8.280   5.411
16900TIP3    H250578   6.568   8.331   5.313
16901TIP3   OH250579   5.155   7.953   6.133
16901TIP3    H150580   5.249   7.950   6.152
16901TIP3    H250581   5.121   7.872   6.170
16902TIP3   OH250582   7.005   7.840   5.902
16902TIP3    H150583   7.067   7.781   5.860
16902TIP3    H250584   6.966   7.889   5.829
16903TIP3   OH250585   6.418   7.682   4.655
16903TIP3    H150586   6.467   7.671   4.737
16903TIP3    H250587   6.356   7.608   4.654
16904TIP3   OH250588   5.135   7.668   5.480
16904TIP3    H150589   5.189   7.589   5.486
16904TIP3    H250590   5.198   7.738   5.462
16905TIP3   OH250591   4.912   7.930   5.544
16905TIP3    H150592   4.964   7.921   5.463
16905TIP3    H250593   4.938   8.014   5.580
16906TIP3   OH250594   6.849   7.958   5.711
16906TIP3    H150595   6.768   8.000   5.738
16906TIP3    H250596   6.821   7.890   5.650
16907TIP3   OH250597   6.464   7.598   4.292
16907TIP3    H150598   6.510   7.538   4.234
16907TIP3    H250599   6.533   7.640   4.343
16908TIP3   OH250600   4.901   7.447   5.050
16908TIP3    H150601   4.815   7.432   5.089
16908TIP3    H250602   4.882   7.499   4.971
16909TIP3   OH250603   6.060   9.160   4.560
16909TIP3    H150604   6.118   9.149   4.485
16909TIP3    H250605   6.101   9.228   4.613
16910TIP3   OH250606   5.130   7.495   5.870
16910TIP3    H150607   5.079   7.489   5.951
16910TIP3    H250608   5.074   7.545   5.810
16911TIP3   OH250609   5.160   8.945   5.944
16911TIP3    H150610   5.065   8.931   5.934
16911TIP3    H250611   5.174   8.941   6.038
16912TIP3   OH250612   5.372   8.990   5.497
16912TIP3    H150613   5.315   9.059   5.462
16912TIP3    H250614   5.455   9.003   5.452
16913TIP3   OH250615   9.039  -0.013   5.629
16913TIP3    H150616   9.076  -0.019   5.717
16913TIP3    H250617   9.101   0.041   5.581
16914TIP3   OH250618   9.230   0.144   5.505
16914TIP3    H150619   9.295   0.093   5.457
16914TIP3    H250620   9.281   0.205   5.558
16915TIP3   OH250621   6.761   7.712   5.591
16915TIP3    H150622   6.675   7.706   5.548
16915TIP3    H250623   6.799   7.625   5.582
16916TIP3   OH250624   8.286  -0.026   5.537
16916TIP3    H150625   8.196  -0.001   5.513
16916TIP3    H250626   8.312   0.038   5.602
16917TIP3   OH250627   5.250   9.206   5.387
16917TIP3    H150628   5.166   9.214   5.431
16917TIP3    H250629   5.232   9.231   5.296
16918TIP3   OH250630   8.937   0.004   5.172
16918TIP3    H150631   8.866   0.014   5.109
16918TIP3    H250632   8.945   0.089   5.215
16919TIP3   OH250633   5.931   9.178   5.231
16919TIP3    H150634   5.840   9.200   5.209
16919TIP3    H250635   5.983   9.244   5.185
16920TIP3   OH250636   9.399   0.103   5.131
16920TIP3    H150637   9.404   0.193   5.097
16920TIP3    H250638   9.428   0.048   5.059
16921TIP3   OH250639   4.936   9.015   5.253
16921TIP3    H150640   4.962   8.992   5.341
16921TIP3    H250641   5.009   8.987   5.198
16922TIP3   OH250642   5.142   8.904   5.116
16922TIP3    H150643   5.153   8.820   5.161
16922TIP3    H250644   5.228   8.945   5.121
16923TIP3   OH250645   5.410   8.985   5.142
16923TIP3    H150646   5.429   8.892   5.129
16923TIP3    H250647   5.464   9.010   5.217
16924TIP3   OH250648   5.970   7.643   5.224
16924TIP3    H150649   5.934   7.571   5.276
16924TIP3    H250650   6.037   7.602   5.170
16925TIP3   OH250651   6.470   7.558   5.100
16925TIP3    H150652   6.507   7.613   5.031
16925TIP3    H250653   6.377   7.582   5.102
16926TIP3   OH250654   6.590   7.652   4.867
16926TIP3    H150655   6.650   7.580   4.846
16926TIP3    H250656   6.639   7.731   4.845
16927TIP3   OH250657   5.205   7.342   5.226
16927TIP3    H150658   5.115   7.309   5.235
16927TIP3    H250659   5.258   7.264   5.213
16928TIP3   OH250660   5.027   7.253   4.881
16928TIP3    H150661   5.052   7.301   4.802
16928TIP3    H250662   4.991   7.319   4.940
16929TIP3   OH250663   5.688   7.379   5.121
16929TIP3    H150664   5.734   7.425   5.051
16929TIP3    H250665   5.729   7.410   5.201
16930TIP3   OH250666   6.182   7.531   5.083
16930TIP3    H150667   6.194   7.494   4.996
16930TIP3    H250668   6.188   7.456   5.142
16931TIP3   OH250669   6.237   7.471   4.665
16931TIP3    H150670   6.156   7.517   4.689
16931TIP3    H250671   6.227   7.384   4.703
16932TIP3   OH250672   4.703   8.805   4.661
16932TIP3    H150673   4.619   8.772   4.629
16932TIP3    H250674   4.715   8.888   4.615
16933TIP3   OH250675   5.134   7.379   4.641
16933TIP3    H150676   5.180   7.316   4.584
16933TIP3    H250677   5.204   7.435   4.676
16934TIP3   OH250678   5.620   7.575   4.737
16934TIP3    H150679   5.678   7.521   4.790
16934TIP3    H250680   5.636   7.664   4.766
16935TIP3   OH250681   5.507   8.968   4.237
16935TIP3    H150682   5.589   8.996   4.198
16935TIP3    H250683   5.475   8.899   4.180
16936TIP3   OH250684   6.218   9.114   4.336
16936TIP3    H150685   6.208   9.019   4.327
16936TIP3    H250686   6.177   9.149   4.257
16937TIP3   OH250687   5.435   7.622   6.109
16937TIP3    H150688   5.400   7.555   6.168
16937TIP3    H250689   5.526   7.631   6.136
16938TIP3   OH250690   5.681   7.632   6.234
16938TIP3    H150691   5.757   7.612   6.179
16938TIP3    H250692   5.676   7.561   6.297
16939TIP3   OH250693   4.811   8.809   4.286
16939TIP3    H150694   4.811   8.830   4.379
16939TIP3    H250695   4.893   8.762   4.272
16940TIP3   OH250696   6.505   7.721   6.014
16940TIP3    H150697   6.523   7.691   6.104
16940TIP3    H250698   6.590   7.715   5.970
16941TIP3   OH250699   9.688   0.011   5.521
16941TIP3    H150700   9.612  -0.018   5.470
16941TIP3    H250701   9.677   0.106   5.527
16942TIP3   OH250702   7.691   8.642   4.264
16942TIP3    H150703   7.649   8.727   4.253
16942TIP3    H250704   7.626   8.579   4.232
16943TIP3   OH250705   7.670   8.620   4.679
16943TIP3    H150706   7.721   8.607   4.759
16943TIP3    H250707   7.632   8.534   4.661
16944TIP3   OH250708   6.994   8.491   5.033
16944TIP3    H150709   7.033   8.440   5.104
16944TIP3    H250710   7.068   8.515   4.977
16945TIP3   OH250711   7.975   8.893   4.339
16945TIP3    H150712   7.944   8.839   4.413
16945TIP3    H250713   8.008   8.973   4.380
16946TIP3   OH250714   6.678   8.116   4.503
16946TIP3    H150715   6.640   8.201   4.527
16946TIP3    H250716   6.604   8.066   4.467
16947TIP3   OH250717   6.745   8.425   4.729
16947TIP3    H150718   6.792   8.346   4.757
16947TIP3    H250719   6.814   8.486   4.704
16948TIP3   OH250720   1.055   0.131   4.333
16948TIP3    H150721   1.094   0.059   4.284
16948TIP3    H250722   1.083   0.117   4.424
16949TIP3   OH250723   7.477   8.843   4.669
16949TIP3    H150724   7.515   8.757   4.648
16949TIP3    H250725   7.552   8.895   4.699
16950TIP3   OH250726   8.517   8.137   4.697
16950TIP3    H150727   8.544   8.217   4.744
16950TIP3    H250728   8.567   8.140   4.615
16951TIP3   OH250729   7.909   8.338   4.723
16951TIP3    H150730   7.949   8.256   4.751
16951TIP3    H250731   7.870   8.318   4.637
16952TIP3   OH250732   7.266   8.001   4.685
16952TIP3    H150733   7.248   8.074   4.626
16952TIP3    H250734   7.211   7.929   4.653
16953TIP3   OH250735   7.962   8.101   4.321
16953TIP3    H150736   8.029   8.085   4.388
16953TIP3    H250737   8.010   8.134   4.246
16954TIP3   OH250738   6.889   8.206   4.818
16954TIP3    H150739   6.974   8.193   4.860
16954TIP3    H250740   6.896   8.160   4.735
16955TIP3   OH250741   7.312   8.417   4.627
16955TIP3    H150742   7.405   8.397   4.636
16955TIP3    H250743   7.273   8.337   4.592
16956TIP3   OH250744   8.610   8.351   4.835
16956TIP3    H150745   8.539   8.413   4.850
16956TIP3    H250746   8.670   8.364   4.908
16957TIP3   OH250747   7.249   8.003   5.136
16957TIP3    H150748   7.199   8.038   5.063
16957TIP3    H250749   7.194   8.019   5.213
16958TIP3   OH250750   7.511   8.839   4.176
16958TIP3    H150751   7.518   8.824   4.082
16958TIP3    H250752   7.486   8.932   4.183
16959TIP3   OH250753   7.333   8.775   4.898
16959TIP3    H150754   7.283   8.847   4.936
16959TIP3    H250755   7.380   8.815   4.824
16960TIP3   OH250756   8.135   8.098   4.533
16960TIP3    H150757   8.092   8.087   4.618
16960TIP3    H250758   8.186   8.179   4.543
16961TIP3   OH250759   7.138   8.109   4.907
16961TIP3    H150760   7.193   8.184   4.931
16961TIP3    H250761   7.184   8.067   4.835
16962TIP3   OH250762   7.180   8.976   5.010
16962TIP3    H150763   7.165   9.067   4.985
16962TIP3    H250764   7.104   8.953   5.063
16963TIP3   OH250765   6.561   8.669   4.256
16963TIP3    H150766   6.529   8.688   4.168
16963TIP3    H250767   6.585   8.754   4.292
16964TIP3   OH250768   8.021   9.148   4.454
16964TIP3    H150769   7.944   9.146   4.511
16964TIP3    H250770   8.004   9.219   4.393
16965TIP3   OH250771   8.306   8.064   4.868
16965TIP3    H150772   8.222   8.085   4.828
16965TIP3    H250773   8.371   8.082   4.800
16966TIP3   OH250774   7.591   7.695   4.868
16966TIP3    H150775   7.584   7.603   4.893
16966TIP3    H250776   7.514   7.736   4.906
16967TIP3   OH250777   7.703   9.183   4.176
16967TIP3    H150778   7.748   9.100   4.157
16967TIP3    H250779   7.757   9.249   4.132
16968TIP3   OH250780   7.846   8.964   4.108
16968TIP3    H150781   7.872   8.907   4.036
16968TIP3    H250782   7.895   8.932   4.184
16969TIP3   OH250783   8.293   9.026   4.726
16969TIP3    H150784   8.270   8.940   4.691
16969TIP3    H250785   8.209   9.066   4.746
16970TIP3   OH250786   7.520   8.480   4.116
16970TIP3    H150787   7.438   8.522   4.090
16970TIP3    H250788   7.570   8.474   4.035
16971TIP3   OH250789   7.497   8.279   3.825
16971TIP3    H150790   7.564   8.332   3.867
16971TIP3    H250791   7.547   8.212   3.777
16972TIP3   OH250792   8.384   8.637   4.620
16972TIP3    H150793   8.311   8.697   4.624
16972TIP3    H250794   8.437   8.667   4.546
16973TIP3   OH250795   7.881   8.583   4.075
16973TIP3    H150796   7.828   8.609   4.150
16973TIP3    H250797   7.961   8.548   4.114
16974TIP3   OH250798   8.082   8.598   4.996
16974TIP3    H150799   8.087   8.677   5.050
16974TIP3    H250800   7.996   8.602   4.955
16975TIP3   OH250801   7.138   8.573   4.471
16975TIP3    H150802   7.092   8.514   4.410
16975TIP3    H250803   7.202   8.517   4.514
16976TIP3   OH250804   7.236   8.940   4.536
16976TIP3    H150805   7.183   8.862   4.555
16976TIP3    H250806   7.321   8.922   4.576
16977TIP3   OH250807   7.207   8.537   4.854
16977TIP3    H150808   7.248   8.502   4.775
16977TIP3    H250809   7.253   8.619   4.871
16978TIP3   OH250810   7.821   9.149   4.641
16978TIP3    H150811   7.757   9.220   4.635
16978TIP3    H250812   7.772   9.074   4.674
16979TIP3   OH250813   7.373   9.067   5.189
16979TIP3    H150814   7.313   9.126   5.234
16979TIP3    H250815   7.318   9.016   5.131
16980TIP3   OH250816   7.711   8.437   3.916
16980TIP3    H150817   7.770   8.493   3.967
16980TIP3    H250818   7.736   8.451   3.825
16981TIP3   OH250819   7.140   8.627   5.318
16981TIP3    H150820   7.142   8.721   5.337
16981TIP3    H250821   7.046   8.607   5.312
16982TIP3   OH250822   7.435   9.109   4.192
16982TIP3    H150823   7.527   9.135   4.193
16982TIP3    H250824   7.395   9.167   4.127
16983TIP3   OH250825   7.166   9.235   5.262
16983TIP3    H150826   7.138   9.246   5.171
16983TIP3    H250827   7.085   9.221   5.310
16984TIP3   OH250828   8.227   7.654   3.970
16984TIP3    H150829   8.148   7.674   4.020
16984TIP3    H250830   8.240   7.729   3.913
16985TIP3   OH250831   6.992   8.407   4.290
16985TIP3    H150832   6.914   8.446   4.250
16985TIP3    H250833   6.963   8.320   4.317
16986TIP3   OH250834   8.042   9.034   3.514
16986TIP3    H150835   8.039   9.127   3.492
16986TIP3    H250836   8.134   9.009   3.499
16987TIP3   OH250837   6.767   8.791   5.213
16987TIP3    H150838   6.697   8.774   5.149
16987TIP3    H250839   6.801   8.705   5.235
16988TIP3   OH250840   6.606   9.010   4.875
16988TIP3    H150841   6.687   9.037   4.918
16988TIP3    H250842   6.546   9.084   4.889
16989TIP3   OH250843   1.968   0.275   4.977
16989TIP3    H150844   1.928   0.190   4.963
16989TIP3    H250845   1.957   0.292   5.071
16990TIP3   OH250846   7.522   9.229   5.027
16990TIP3    H150847   7.520   9.314   5.070
16990TIP3    H250848   7.477   9.170   5.088
16991TIP3   OH250849   0.819   0.063   3.999
16991TIP3    H150850   0.786   0.045   3.911
16991TIP3    H250851   0.794   0.153   4.017
16992TIP3   OH250852   6.779   9.154   4.374
16992TIP3    H150853   6.735   9.155   4.459
16992TIP3    H250854   6.747   9.076   4.330
16993TIP3   OH250855   7.550   9.246   3.617
16993TIP3    H150856   7.600   9.174   3.579
16993TIP3    H250857   7.586   9.256   3.705
16994TIP3   OH250858   1.073   0.049   3.883
16994TIP3    H150859   0.998   0.039   3.941
16994TIP3    H250860   1.149   0.052   3.942
16995TIP3   OH250861   8.330   8.536   5.224
16995TIP3    H150862   8.249   8.501   5.187
16995TIP3    H250863   8.375   8.459   5.259
16996TIP3   OH250864   6.963   8.979   5.179
16996TIP3    H150865   7.014   8.971   5.259
16996TIP3    H250866   6.892   8.915   5.188
16997TIP3   OH250867   7.352   7.786   4.992
16997TIP3    H150868   7.267   7.754   4.961
16997TIP3    H250869   7.331   7.867   5.039
16998TIP3   OH250870   7.891   7.908   5.190
16998TIP3    H150871   7.960   7.886   5.252
16998TIP3    H250872   7.809   7.894   5.238
16999TIP3   OH250873   8.130   8.356   5.124
16999TIP3    H150874   8.071   8.340   5.197
16999TIP3    H250875   8.090   8.429   5.076
17000TIP3   OH250876   7.799   8.475   3.665
17000TIP3    H150877   7.757   8.432   3.591
17000TIP3    H250878   7.884   8.502   3.632
17001TIP3   OH250879   7.510   7.813   3.971
17001TIP3    H150880   7.467   7.822   4.056
17001TIP3    H250881   7.469   7.735   3.932
17002TIP3   OH250882   7.291   8.319   5.003
17002TIP3    H150883   7.247   8.327   5.088
17002TIP3    H250884   7.268   8.399   4.957
17003TIP3   OH250885   7.176   8.201   4.520
17003TIP3    H150886   7.087   8.177   4.545
17003TIP3    H250887   7.185   8.169   4.430
17004TIP3   OH250888   7.646   8.274   4.250
17004TIP3    H150889   7.597   8.345   4.209
17004TIP3    H250890   7.706   8.244   4.182
17005TIP3   OH250891   7.837   8.533   5.326
17005TIP3    H150892   7.805   8.465   5.385
17005TIP3    H250893   7.926   8.552   5.356
17006TIP3   OH250894   7.812   8.279   4.472
17006TIP3    H150895   7.743   8.301   4.410
17006TIP3    H250896   7.860   8.207   4.432
17007TIP3   OH250897   7.128   8.334   5.225
17007TIP3    H150898   7.145   8.397   5.295
17007TIP3    H250899   7.110   8.252   5.270
17008TIP3   OH250900   7.176   7.815   3.926
17008TIP3    H150901   7.167   7.819   4.021
17008TIP3    H250902   7.097   7.857   3.892
17009TIP3   OH250903   6.771   7.835   4.769
17009TIP3    H150904   6.801   7.888   4.843
17009TIP3    H250905   6.850   7.793   4.736
17010TIP3   OH250906   7.833   8.541   4.887
17010TIP3    H150907   7.866   8.472   4.830
17010TIP3    H250908   7.796   8.495   4.962
17011TIP3   OH250909   7.538   7.990   4.574
17011TIP3    H150910   7.461   7.989   4.631
17011TIP3    H250911   7.612   7.979   4.634
17012TIP3   OH250912   6.939   8.077   4.581
17012TIP3    H150913   6.849   8.080   4.547
17012TIP3    H250914   6.966   7.986   4.568
17013TIP3   OH250915   7.184   8.079   4.273
17013TIP3    H150916   7.279   8.086   4.264
17013TIP3    H250917   7.150   8.097   4.185
17014TIP3   OH250918   7.997   8.079   4.780
17014TIP3    H150919   7.980   8.097   4.872
17014TIP3    H250920   7.928   8.018   4.755
17015TIP3   OH250921   7.072   8.101   4.023
17015TIP3    H150922   7.012   8.049   3.969
17015TIP3    H250923   7.128   8.146   3.959
17016TIP3   OH250924   1.749   0.543   5.049
17016TIP3    H150925   1.756   0.584   4.963
17016TIP3    H250926   1.821   0.579   5.100
17017TIP3   OH250927   7.120   8.895   5.410
17017TIP3    H150928   7.201   8.914   5.456
17017TIP3    H250929   7.052   8.904   5.476
17018TIP3   OH250930   7.578   8.349   4.678
17018TIP3    H150931   7.644   8.299   4.631
17018TIP3    H250932   7.579   8.313   4.767
17019TIP3   OH250933   7.073   7.825   4.568
17019TIP3    H150934   7.052   7.745   4.617
17019TIP3    H250935   7.103   7.793   4.483
17020TIP3   OH250936   7.559   8.265   4.947
17020TIP3    H150937   7.472   8.297   4.971
17020TIP3    H250938   7.620   8.316   5.000
17021TIP3   OH250939   7.282   8.612   4.044
17021TIP3    H150940   7.207   8.556   4.022
17021TIP3    H250941   7.255   8.658   4.123
17022TIP3   OH250942   8.172   8.808   4.609
17022TIP3    H150943   8.192   8.859   4.531
17022TIP3    H250944   8.081   8.781   4.599
17023TIP3   OH250945   7.755   7.927   3.953
17023TIP3    H150946   7.664   7.895   3.954
17023TIP3    H250947   7.747   8.021   3.942
17024TIP3   OH250948   7.673   8.853   5.117
17024TIP3    H150949   7.726   8.845   5.196
17024TIP3    H250950   7.695   8.939   5.082
17025TIP3   OH250951   7.817   8.206   4.040
17025TIP3    H150952   7.913   8.204   4.038
17025TIP3    H250953   7.793   8.276   3.980
17026TIP3   OH250954   6.971   8.577   4.696
17026TIP3    H150955   7.018   8.588   4.614
17026TIP3    H250956   7.040   8.569   4.762
17027TIP3   OH250957   7.447   8.774   3.899
17027TIP3    H150958   7.399   8.857   3.897
17027TIP3    H250959   7.389   8.713   3.945
17028TIP3   OH250960   6.865   8.560   5.343
17028TIP3    H150961   6.868   8.536   5.435
17028TIP3    H250962   6.791   8.512   5.308
17029TIP3   OH250963   7.600   8.683   5.362
17029TIP3    H150964   7.534   8.624   5.327
17029TIP3    H250965   7.683   8.645   5.335
17030TIP3   OH250966   7.757   9.089   4.998
17030TIP3    H150967   7.670   9.129   4.990
17030TIP3    H250968   7.815   9.161   5.022
17031TIP3   OH250969   8.223   8.273   3.851
17031TIP3    H150970   8.170   8.232   3.782
17031TIP3    H250971   8.236   8.362   3.820
17032TIP3   OH250972   8.549   9.135   4.892
17032TIP3    H150973   8.469   9.184   4.870
17032TIP3    H250974   8.552   9.064   4.828
17033TIP3   OH250975   7.957   9.090   3.774
17033TIP3    H150976   7.927   9.012   3.821
17033TIP3    H250977   7.981   9.058   3.687
17034TIP3   OH250978   7.916   8.713   4.551
17034TIP3    H150979   7.827   8.690   4.575
17034TIP3    H250980   7.952   8.634   4.512
17035TIP3   OH250981   6.607   8.291   4.044
17035TIP3    H150982   6.671   8.355   4.076
17035TIP3    H250983   6.552   8.272   4.120
17036TIP3   OH250984   7.219   8.749   4.270
17036TIP3    H150985   7.307   8.779   4.294
17036TIP3    H250986   7.191   8.696   4.345
17037TIP3   OH250987   0.813   0.022   4.819
17037TIP3    H150988   0.845   0.091   4.762
17037TIP3    H250989   0.884   0.008   4.882
17038TIP3   OH250990   7.053   9.188   4.327
17038TIP3    H150991   6.957   9.182   4.336
17038TIP3    H250992   7.067   9.276   4.292
17039TIP3   OH250993   7.725   8.923   4.766
17039TIP3    H150994   7.741   8.950   4.857
17039TIP3    H250995   7.776   8.843   4.756
17040TIP3   OH250996   7.744   8.833   3.674
17040TIP3    H150997   7.785   8.813   3.759
17040TIP3    H250998   7.663   8.782   3.674
17041TIP3   OH250999   1.497   0.116   4.884
17041TIP3    H151000   1.415   0.111   4.934
17041TIP3    H251001   1.515   0.209   4.877
17042TIP3   OH251002   1.502   0.068   3.469
17042TIP3    H151003   1.500   0.102   3.380
17042TIP3    H251004   1.435   0.118   3.516
17043TIP3   OH251005   7.072   8.079   5.339
17043TIP3    H151006   6.977   8.092   5.341
17043TIP3    H251007   7.089   8.013   5.407
17044TIP3   OH251008   7.917   8.791   3.897
17044TIP3    H151009   7.894   8.716   3.952
17044TIP3    H251010   8.011   8.780   3.879
17045TIP3   OH251011   6.815   9.156   5.001
17045TIP3    H151012   6.870   9.099   5.054
17045TIP3    H251013   6.822   9.241   5.043
17046TIP3   OH251014   7.082   8.801   3.687
17046TIP3    H151015   7.093   8.710   3.659
17046TIP3    H251016   7.070   8.795   3.781
17047TIP3   OH251017   7.028   8.826   3.960
17047TIP3    H151018   7.098   8.799   4.019
17047TIP3    H251019   7.025   8.922   3.968
17048TIP3   OH251020   6.761   8.501   4.161
17048TIP3    H151021   6.696   8.548   4.214
17048TIP3    H251022   6.784   8.561   4.091
17049TIP3   OH251023   7.945   8.137   5.044
17049TIP3    H151024   8.015   8.178   5.094
17049TIP3    H251025   7.921   8.060   5.096
17050TIP3   OH251026   7.808   7.888   4.225
17050TIP3    H151027   7.788   7.907   4.133
17050TIP3    H251028   7.852   7.967   4.256
17051TIP3   OH251029   7.296   9.000   3.906
17051TIP3    H151030   7.216   9.030   3.948
17051TIP3    H251031   7.319   9.070   3.845
17052TIP3   OH251032   7.462   8.081   4.322
17052TIP3    H151033   7.524   8.148   4.293
17052TIP3    H251034   7.488   8.061   4.412
17053TIP3   OH251035   7.767   8.374   5.098
17053TIP3    H151036   7.791   8.423   5.177
17053TIP3    H251037   7.821   8.294   5.103
17054TIP3   OH251038   7.628   7.780   4.406
17054TIP3    H151039   7.606   7.857   4.458
17054TIP3    H251040   7.694   7.810   4.344
17055TIP3   OH251041   7.051   9.101   3.993
17055TIP3    H151042   7.033   9.166   3.926
17055TIP3    H251043   7.041   9.148   4.076
17056TIP3   OH251044   7.132   7.807   4.207
17056TIP3    H151045   7.126   7.898   4.236
17056TIP3    H251046   7.225   7.786   4.216
17057TIP3   OH251047   8.378   8.257   5.068
17057TIP3    H151048   8.291   8.290   5.090
17057TIP3    H251049   8.362   8.192   5.000
17058TIP3   OH251050   8.026   8.468   4.457
17058TIP3    H151051   7.951   8.410   4.473
17058TIP3    H251052   8.098   8.430   4.506
17059TIP3   OH251053   6.787   8.687   3.952
17059TIP3    H151054   6.857   8.751   3.961
17059TIP3    H251055   6.818   8.625   3.885
17060TIP3   OH251056   1.470   0.161   4.325
17060TIP3    H151057   1.425   0.225   4.271
17060TIP3    H251058   1.562   0.172   4.304
17061TIP3   OH251059   7.086   7.704   4.957
17061TIP3    H151060   7.058   7.667   4.874
17061TIP3    H251061   7.081   7.631   5.019
17062TIP3   OH251062   6.608   8.932   4.332
17062TIP3    H151063   6.561   8.964   4.410
17062TIP3    H251064   6.567   8.978   4.259
17063TIP3   OH251065   0.273   0.252   5.410
17063TIP3    H151066   0.355   0.256   5.459
17063TIP3    H251067   0.256   0.158   5.400
17064TIP3   OH251068   0.740   0.155   5.460
17064TIP3    H151069   0.828   0.118   5.472
17064TIP3    H251070   0.704   0.107   5.385
17065TIP3   OH251071   7.239   9.001   3.581
17065TIP3    H151072   7.190   8.930   3.622
17065TIP3    H251073   7.313   8.958   3.538
17066TIP3   OH251074   7.981   9.188   5.227
17066TIP3    H151075   7.914   9.155   5.286
17066TIP3    H251076   7.962   9.281   5.219
17067TIP3   OH251077   7.678   9.035   3.499
17067TIP3    H151078   7.717   8.972   3.560
17067TIP3    H251079   7.733   9.032   3.422
17068TIP3   OH251080   6.917   8.893   5.602
17068TIP3    H151081   6.938   8.800   5.611
17068TIP3    H251082   6.829   8.893   5.562
17069TIP3   OH251083   6.902   8.498   3.793
17069TIP3    H151084   6.954   8.469   3.867
17069TIP3    H251085   6.965   8.509   3.722
17070TIP3   OH251086   7.538   8.961   5.383
17070TIP3    H151087   7.495   8.987   5.302
17070TIP3    H251088   7.571   8.873   5.366
17071TIP3   OH251089   7.494   8.708   3.636
17071TIP3    H151090   7.471   8.721   3.728
17071TIP3    H251091   7.478   8.615   3.620
17072TIP3   OH251092   7.957   8.902   4.983
17072TIP3    H151093   8.014   8.944   4.919
17072TIP3    H251094   7.889   8.966   5.002
17073TIP3   OH251095   7.033   8.639   5.608
17073TIP3    H151096   7.109   8.621   5.553
17073TIP3    H251097   7.069   8.652   5.696
17074TIP3   OH251098   7.077   8.431   4.001
17074TIP3    H151099   7.061   8.394   4.088
17074TIP3    H251100   7.128   8.364   3.956
17075TIP3   OH251101   7.394   8.515   5.260
17075TIP3    H151102   7.311   8.561   5.272
17075TIP3    H251103   7.428   8.549   5.177
17076TIP3   OH251104   7.223   8.250   3.850
17076TIP3    H151105   7.200   8.251   3.757
17076TIP3    H251106   7.318   8.256   3.851
17077TIP3   OH251107   7.859   8.864   5.354
17077TIP3    H151108   7.941   8.845   5.308
17077TIP3    H251109   7.866   8.815   5.436
17078TIP3   OH251110   8.030   8.544   3.525
17078TIP3    H151111   8.006   8.497   3.446
17078TIP3    H251112   8.004   8.634   3.508
17079TIP3   OH251113   7.496   8.288   5.374
17079TIP3    H151114   7.501   8.217   5.310
17079TIP3    H251115   7.463   8.363   5.324
17080TIP3   OH251116   7.508   8.090   5.172
17080TIP3    H151117   7.535   8.128   5.089
17080TIP3    H251118   7.417   8.063   5.157
17081TIP3   OH251119   7.516   8.631   5.046
17081TIP3    H151120   7.584   8.694   5.067
17081TIP3    H251121   7.455   8.679   4.989
17082TIP3   OH251122   8.085   8.551   5.459
17082TIP3    H151123   8.146   8.480   5.478
17082TIP3    H251124   8.139   8.629   5.456
17083TIP3   OH251125   8.100   8.828   5.197
17083TIP3    H151126   8.034   8.852   5.131
17083TIP3    H251127   8.182   8.862   5.161
17084TIP3   OH251128   7.380   8.369   5.616
17084TIP3    H151129   7.311   8.304   5.631
17084TIP3    H251130   7.413   8.348   5.529
17085TIP3   OH251131   7.629   7.859   5.273
17085TIP3    H151132   7.588   7.939   5.241
17085TIP3    H251133   7.562   7.791   5.260
17086TIP3   OH251134   7.752   8.323   5.478
17086TIP3    H151135   7.741   8.313   5.572
17086TIP3    H251136   7.665   8.304   5.442
17087TIP3   OH251137   7.985   8.263   5.332
17087TIP3    H151138   7.910   8.273   5.391
17087TIP3    H251139   8.060   8.247   5.390
17088TIP3   OH251140   8.225   8.235   5.482
17088TIP3    H151141   8.240   8.141   5.495
17088TIP3    H251142   8.219   8.271   5.570
17089TIP3   OH251143   7.207   8.154   5.670
17089TIP3    H151144   7.212   8.066   5.631
17089TIP3    H251145   7.256   8.147   5.751
17090TIP3   OH251146   7.697   7.836   5.537
17090TIP3    H151147   7.765   7.769   5.532
17090TIP3    H251148   7.668   7.848   5.447
17091TIP3   OH251149   7.790   8.050   5.687
17091TIP3    H151150   7.761   7.979   5.630
17091TIP3    H251151   7.718   8.113   5.685
17092TIP3   OH251152   0.512   0.059   3.799
17092TIP3    H151153   0.600   0.039   3.768
17092TIP3    H251154   0.469   0.102   3.725
17093TIP3   OH251155   6.513   8.691   3.976
17093TIP3    H151156   6.608   8.703   3.968
17093TIP3    H251157   6.495   8.610   3.928
17094TIP3   OH251158   6.429   9.267   4.433
17094TIP3    H151159   6.365   9.210   4.390
17094TIP3    H251160   6.479   9.208   4.490
17095TIP3   OH251161   6.604   9.119   4.600
17095TIP3    H151162   6.586   9.051   4.664
17095TIP3    H251163   6.654   9.185   4.649
17096TIP3   OH251164   1.748   0.197   4.308
17096TIP3    H151165   1.790   0.225   4.389
17096TIP3    H251166   1.781   0.258   4.241
17097TIP3   OH251167   1.865   0.240   4.562
17097TIP3    H151168   1.866   0.146   4.578
17097TIP3    H251169   1.860   0.279   4.649
17098TIP3   OH251170   1.927   0.098   5.363
17098TIP3    H151171   1.845   0.052   5.385
17098TIP3    H251172   1.898   0.185   5.336
17099TIP3   OH251173   8.192   8.738   3.879
17099TIP3    H151174   8.250   8.802   3.836
17099TIP3    H251175   8.241   8.708   3.954
17100TIP3   OH251176   8.307   8.625   4.117
17100TIP3    H151177   8.233   8.566   4.133
17100TIP3    H251178   8.294   8.697   4.179
17101TIP3   OH251179   8.299   8.955   4.416
17101TIP3    H151180   8.370   8.893   4.399
17101TIP3    H251181   8.325   9.035   4.369
17102TIP3   OH251182   1.662   0.044   4.625
17102TIP3    H151183   1.593   0.110   4.634
17102TIP3    H251184   1.625  -0.021   4.565
17103TIP3   OH251185   8.225   8.517   3.717
17103TIP3    H151186   8.158   8.518   3.649
17103TIP3    H251187   8.206   8.594   3.771
17104TIP3   OH251188   8.086   8.162   3.645
17104TIP3    H151189   8.031   8.199   3.575
17104TIP3    H251190   8.076   8.068   3.635
17105TIP3   OH251191   8.103   8.459   4.193
17105TIP3    H151192   8.101   8.366   4.172
17105TIP3    H251193   8.076   8.464   4.285
17106TIP3   OH251194   6.732   8.539   4.978
17106TIP3    H151195   6.721   8.503   4.891
17106TIP3    H251196   6.826   8.532   4.996
17107TIP3   OH251197   8.445   8.820   5.166
17107TIP3    H151198   8.486   8.733   5.167
17107TIP3    H251199   8.387   8.819   5.090
17108TIP3   OH251200   8.624   8.616   5.177
17108TIP3    H151201   8.622   8.604   5.271
17108TIP3    H251202   8.683   8.548   5.145
17109TIP3   OH251203   8.044   7.888   3.624
17109TIP3    H151204   8.099   7.868   3.700
17109TIP3    H251205   7.956   7.860   3.649
17110TIP3   OH251206   8.110   8.193   4.093
17110TIP3    H151207   8.149   8.107   4.107
17110TIP3    H251208   8.150   8.225   4.012
17111TIP3   OH251209   8.258   8.345   4.564
17111TIP3    H151210   8.339   8.383   4.531
17111TIP3    H251211   8.252   8.376   4.654
17112TIP3   OH251212   8.250   8.471   4.806
17112TIP3    H151213   8.187   8.517   4.861
17112TIP3    H251214   8.295   8.541   4.758
17113TIP3   OH251215   6.942   8.204   5.618
17113TIP3    H151216   7.036   8.201   5.630
17113TIP3    H251217   6.910   8.123   5.659
17114TIP3   OH251218   8.784   8.100   5.376
17114TIP3    H151219   8.854   8.043   5.343
17114TIP3    H251220   8.744   8.137   5.298
17115TIP3   OH251221   8.211   7.943   4.156
17115TIP3    H151222   8.259   7.924   4.237
17115TIP3    H251223   8.150   7.870   4.147
17116TIP3   OH251224   6.923   7.928   4.987
17116TIP3    H151225   6.978   7.850   4.991
17116TIP3    H251226   6.984   7.999   4.966
17117TIP3   OH251227   6.704   8.190   5.029
17117TIP3    H151228   6.759   8.183   4.951
17117TIP3    H251229   6.733   8.271   5.071
17118TIP3   OH251230   8.625   8.186   5.173
17118TIP3    H151231   8.542   8.235   5.174
17118TIP3    H251232   8.604   8.105   5.127
17119TIP3   OH251233   8.274   7.854   3.789
17119TIP3    H151234   8.317   7.796   3.726
17119TIP3    H251235   8.327   7.934   3.788
17120TIP3   OH251236   6.638   7.708   4.483
17120TIP3    H151237   6.563   7.690   4.540
17120TIP3    H251238   6.682   7.782   4.524
17121TIP3   OH251239   1.294   0.134   4.029
17121TIP3    H151240   1.358   0.131   3.958
17121TIP3    H251241   1.314   0.214   4.076
17122TIP3   OH251242   6.930   7.784   5.374
17122TIP3    H151243   6.874   7.761   5.448
17122TIP3    H251244   6.869   7.819   5.309
17123TIP3   OH251245   6.946   9.207   5.427
17123TIP3    H151246   6.852   9.189   5.422
17123TIP3    H251247   6.966   9.207   5.521
17124TIP3   OH251248   0.597   0.009   4.984
17124TIP3    H151249   0.536   0.068   4.940
17124TIP3    H251250   0.679   0.017   4.935
17125TIP3   OH251251   1.030   0.232   5.152
17125TIP3    H151252   1.067   0.214   5.238
17125TIP3    H251253   1.088   0.299   5.114
17126TIP3   OH251254   1.246   0.391   5.090
17126TIP3    H151255   1.268   0.358   5.003
17126TIP3    H251256   1.327   0.434   5.120
17127TIP3   OH251257   8.549   7.937   5.081
17127TIP3    H151258   8.460   7.913   5.055
17127TIP3    H251259   8.599   7.856   5.075
17128TIP3   OH251260   0.283   0.255   5.015
17128TIP3    H151261   0.191   0.265   4.991
17128TIP3    H251262   0.300   0.325   5.078
17129TIP3   OH251263   0.473   0.200   4.829
17129TIP3    H151264   0.405   0.231   4.890
17129TIP3    H251265   0.465   0.257   4.753
17130TIP3   OH251266   0.879   0.211   4.632
17130TIP3    H151267   0.823   0.256   4.569
17130TIP3    H251268   0.905   0.278   4.695
17131TIP3   OH251269   1.140   0.141   4.605
17131TIP3    H151270   1.046   0.146   4.621
17131TIP3    H251271   1.163   0.226   4.567
17132TIP3   OH251272   1.421   0.490   4.672
17132TIP3    H151273   1.387   0.542   4.600
17132TIP3    H251274   1.479   0.427   4.631
17133TIP3   OH251275   0.241   0.044   4.746
17133TIP3    H151276   0.233  -0.004   4.829
17133TIP3    H251277   0.327   0.086   4.751
17134TIP3   OH251278   0.673   0.001   4.576
17134TIP3    H151279   0.689   0.093   4.555
17134TIP3    H251280   0.699  -0.007   4.668
17135TIP3   OH251281   7.764   7.898   4.716
17135TIP3    H151282   7.724   7.827   4.766
17135TIP3    H251283   7.832   7.856   4.664
17136TIP3   OH251284   8.267   7.811   4.594
17136TIP3    H151285   8.303   7.867   4.525
17136TIP3    H251286   8.174   7.835   4.598
17137TIP3   OH251287   8.392   7.906   4.364
17137TIP3    H151288   8.456   7.840   4.335
17137TIP3    H251289   8.442   7.988   4.365
17138TIP3   OH251290   6.996   7.600   4.714
17138TIP3    H151291   6.910   7.559   4.725
17138TIP3    H251292   7.057   7.527   4.705
17139TIP3   OH251293   6.806   7.516   4.353
17139TIP3    H151294   6.837   7.560   4.274
17139TIP3    H251295   6.756   7.583   4.400
17140TIP3   OH251296   7.481   7.640   4.607
17140TIP3    H151297   7.530   7.684   4.538
17140TIP3    H251298   7.524   7.666   4.688
17141TIP3   OH251299   7.978   7.781   4.585
17141TIP3    H151300   7.988   7.746   4.497
17141TIP3    H251301   7.985   7.705   4.642
17142TIP3   OH251302   8.030   7.733   4.149
17142TIP3    H151303   7.948   7.778   4.166
17142TIP3    H251304   8.018   7.646   4.187
17143TIP3   OH251305   6.494   9.070   4.130
17143TIP3    H151306   6.409   9.040   4.098
17143TIP3    H251307   6.506   9.156   4.089
17144TIP3   OH251308   6.908   7.657   4.112
17144TIP3    H151309   6.949   7.591   4.056
17144TIP3    H251310   6.981   7.706   4.149
17145TIP3   OH251311   7.407   7.828   4.229
17145TIP3    H151312   7.469   7.774   4.280
17145TIP3    H251313   7.427   7.918   4.255
17146TIP3   OH251314   7.300   9.221   3.728
17146TIP3    H151315   7.383   9.250   3.689
17146TIP3    H251316   7.269   9.152   3.671
17147TIP3   OH251317   1.458   0.120   3.809
17147TIP3    H151318   1.453   0.025   3.798
17147TIP3    H251319   1.417   0.155   3.730
17148TIP3   OH251320   7.230   7.880   5.598
17148TIP3    H151321   7.197   7.812   5.656
17148TIP3    H251322   7.322   7.890   5.622
17149TIP3   OH251323   7.483   7.886   5.708
17149TIP3    H151324   7.559   7.867   5.654
17149TIP3    H251325   7.479   7.815   5.772
17150TIP3   OH251326   6.605   9.074   3.768
17150TIP3    H151327   6.607   9.104   3.858
17150TIP3    H251328   6.688   9.027   3.756
17151TIP3   OH251329   8.297   7.968   5.507
17151TIP3    H151330   8.313   7.941   5.597
17151TIP3    H251331   8.383   7.962   5.464
17152TIP3   OH251332   1.691   0.270   5.099
17152TIP3    H151333   1.617   0.300   5.047
17152TIP3    H251334   1.750   0.345   5.102
17153TIP3   OH251335   8.928   8.826   4.518
17153TIP3    H151336   8.929   8.731   4.524
17153TIP3    H251337   8.903   8.856   4.606
17154TIP3   OH251338   8.808   9.153   4.235
17154TIP3    H151339   8.847   9.067   4.218
17154TIP3    H251340   8.870   9.216   4.197
17155TIP3   OH251341   8.633   8.542   4.189
17155TIP3    H151342   8.717   8.561   4.231
17155TIP3    H251343   8.609   8.623   4.144
17156TIP3   OH251344   9.045   8.264   4.182
17156TIP3    H151345   9.019   8.333   4.121
17156TIP3    H251346   9.009   8.184   4.144
17157TIP3   OH251347   9.061   8.692   4.070
17157TIP3    H151348   9.155   8.692   4.054
17157TIP3    H251349   9.033   8.602   4.052
17158TIP3   OH251350   9.026   8.238   4.605
17158TIP3    H151351   8.974   8.284   4.538
17158TIP3    H251352   8.971   8.241   4.683
17159TIP3   OH251353   8.879   8.338   4.390
17159TIP3    H151354   8.872   8.431   4.367
17159TIP3    H251355   8.943   8.303   4.327
17160TIP3   OH251356   8.358   8.909   3.737
17160TIP3    H151357   8.318   8.927   3.653
17160TIP3    H251358   8.371   8.995   3.777
17161TIP3   OH251359   9.368   7.942   4.345
17161TIP3    H151360   9.374   7.854   4.382
17161TIP3    H251361   9.293   7.982   4.388
17162TIP3   OH251362   8.825   8.777   3.952
17162TIP3    H151363   8.804   8.720   3.878
17162TIP3    H251364   8.914   8.752   3.977
17163TIP3   OH251365   9.155   8.771   4.327
17163TIP3    H151366   9.109   8.759   4.244
17163TIP3    H251367   9.090   8.811   4.385
17164TIP3   OH251368   9.081   8.839   4.842
17164TIP3    H151369   9.108   8.914   4.894
17164TIP3    H251370   8.990   8.858   4.817
17165TIP3   OH251371   8.759   8.590   3.756
17165TIP3    H151372   8.686   8.641   3.722
17165TIP3    H251373   8.746   8.502   3.720
17166TIP3   OH251374   8.586   8.957   4.675
17166TIP3    H151375   8.534   9.021   4.626
17166TIP3    H251376   8.522   8.897   4.713
17167TIP3   OH251377   8.409   9.197   4.319
17167TIP3    H151378   8.495   9.232   4.295
17167TIP3    H251379   8.351   9.273   4.318
17168TIP3   OH251380   8.782   9.176   4.573
17168TIP3    H151381   8.804   9.197   4.664
17168TIP3    H251382   8.722   9.102   4.580
17169TIP3   OH251383   9.130   8.020   4.472
17169TIP3    H151384   9.044   7.993   4.440
17169TIP3    H251385   9.115   8.106   4.511
17170TIP3   OH251386   9.667   8.147   4.665
17170TIP3    H151387   9.740   8.137   4.726
17170TIP3    H251388   9.589   8.127   4.716
17171TIP3   OH251389   9.324   8.034   3.481
17171TIP3    H151390   9.283   8.053   3.565
17171TIP3    H251391   9.265   7.971   3.439
17172TIP3   OH251392   9.053   8.568   4.514
17172TIP3    H151393   9.034   8.529   4.599
17172TIP3    H251394   9.134   8.617   4.527
17173TIP3   OH251395   8.948   8.447   4.000
17173TIP3    H151396   8.853   8.460   4.000
17173TIP3    H251397   8.966   8.404   3.916
17174TIP3   OH251398   8.942   8.511   4.758
17174TIP3    H151399   8.874   8.566   4.795
17174TIP3    H251400   8.925   8.424   4.795
17175TIP3   OH251401   8.942   8.056   3.427
17175TIP3    H151402   8.939   8.062   3.523
17175TIP3    H251403   8.865   8.104   3.397
17176TIP3   OH251404   8.555   8.219   4.226
17176TIP3    H151405   8.617   8.175   4.285
17176TIP3    H251406   8.530   8.151   4.163
17177TIP3   OH251407   8.426   8.088   3.802
17177TIP3    H151408   8.477   8.125   3.730
17177TIP3    H251409   8.360   8.154   3.821
17178TIP3   OH251410   9.304   8.311   4.070
17178TIP3    H151411   9.227   8.297   4.126
17178TIP3    H251412   9.375   8.264   4.114
17179TIP3   OH251413   8.976   8.326   3.755
17179TIP3    H151414   9.069   8.343   3.746
17179TIP3    H251415   8.939   8.347   3.669
17180TIP3   OH251416   8.834   8.359   3.521
17180TIP3    H151417   8.758   8.305   3.503
17180TIP3    H251418   8.874   8.374   3.436
17181TIP3   OH251419   9.090   9.073   4.983
17181TIP3    H151420   9.133   9.151   4.950
17181TIP3    H251421   9.020   9.106   5.040
17182TIP3   OH251422   8.911   8.060   4.056
17182TIP3    H151423   8.870   7.988   4.103
17182TIP3    H251424   8.922   8.027   3.966
17183TIP3   OH251425   9.401   8.392   4.508
17183TIP3    H151426   9.375   8.436   4.427
17183TIP3    H251427   9.481   8.437   4.535
17184TIP3   OH251428   8.640   8.815   4.152
17184TIP3    H151429   8.699   8.820   4.077
17184TIP3    H251430   8.681   8.871   4.218
17185TIP3   OH251431   8.721   8.654   4.843
17185TIP3    H151432   8.724   8.735   4.893
17185TIP3    H251433   8.647   8.605   4.879
17186TIP3   OH251434   8.462   8.505   3.579
17186TIP3    H151435   8.502   8.591   3.593
17186TIP3    H251436   8.381   8.508   3.629
17187TIP3   OH251437   8.899   8.254   4.848
17187TIP3    H151438   8.815   8.208   4.851
17187TIP3    H251439   8.948   8.219   4.923
17188TIP3   OH251440   2.116   0.113   4.399
17188TIP3    H151441   2.158   0.059   4.466
17188TIP3    H251442   2.170   0.192   4.393
17189TIP3   OH251443   8.566   8.751   3.645
17189TIP3    H151444   8.501   8.808   3.685
17189TIP3    H251445   8.625   8.811   3.598
17190TIP3   OH251446   9.250   8.347   3.802
17190TIP3    H151447   9.333   8.382   3.769
17190TIP3    H251448   9.265   8.337   3.896
17191TIP3   OH251449   9.419   8.051   3.913
17191TIP3    H151450   9.440   8.096   3.995
17191TIP3    H251451   9.503   8.033   3.872
17192TIP3   OH251452   8.936   8.052   3.707
17192TIP3    H151453   8.926   8.142   3.737
17192TIP3    H251454   9.030   8.034   3.715
17193TIP3   OH251455   8.515   8.235   3.587
17193TIP3    H151456   8.505   8.330   3.589
17193TIP3    H251457   8.466   8.208   3.509
17194TIP3   OH251458   8.854   7.948   4.447
17194TIP3    H151459   8.839   7.915   4.358
17194TIP3    H251460   8.859   7.870   4.502
17195TIP3   OH251461   8.383   9.165   3.823
17195TIP3    H151462   8.362   9.224   3.896
17195TIP3    H251463   8.349   9.211   3.746
17196TIP3   OH251464   8.860   9.161   5.109
17196TIP3    H151465   8.859   9.069   5.138
17196TIP3    H251466   8.772   9.193   5.129
17197TIP3   OH251467   8.892   8.895   5.154
17197TIP3    H151468   8.958   8.836   5.117
17197TIP3    H251469   8.869   8.857   5.238
17198TIP3   OH251470   8.849   8.691   3.500
17198TIP3    H151471   8.848   8.646   3.584
17198TIP3    H251472   8.936   8.673   3.464
17199TIP3   OH251473   9.235   8.759   4.626
17199TIP3    H151474   9.180   8.803   4.691
17199TIP3    H251475   9.270   8.830   4.571
17200TIP3   OH251476   9.437   8.452   4.859
17200TIP3    H151477   9.397   8.375   4.818
17200TIP3    H251478   9.370   8.520   4.853
17201TIP3   OH251479   9.271   8.281   4.713
17201TIP3    H151480   9.317   8.318   4.638
17201TIP3    H251481   9.182   8.266   4.682
17202TIP3   OH251482   9.272   8.504   5.127
17202TIP3    H151483   9.180   8.499   5.153
17202TIP3    H251484   9.270   8.517   5.032
17203TIP3   OH251485   9.420   8.065   4.778
17203TIP3    H151486   9.371   8.145   4.758
17203TIP3    H251487   9.362   7.994   4.752
17204TIP3   OH251488   9.639   8.552   5.012
17204TIP3    H151489   9.602   8.557   5.100
17204TIP3    H251490   9.573   8.506   4.960
17205TIP3   OH251491   9.005   8.409   5.169
17205TIP3    H151492   9.030   8.324   5.133
17205TIP3    H251493   9.024   8.403   5.262
17206TIP3   OH251494   9.527   8.041   5.028
17206TIP3    H151495   9.601   7.986   5.006
17206TIP3    H251496   9.480   8.053   4.945
17207TIP3   OH251497   9.523   8.269   5.174
17207TIP3    H151498   9.535   8.187   5.127
17207TIP3    H251499   9.576   8.333   5.125
17208TIP3   OH251500   8.294   8.926   3.463
17208TIP3    H151501   8.378   8.957   3.431
17208TIP3    H251502   8.284   8.838   3.425
17209TIP3   OH251503   1.656   0.289   3.897
17209TIP3    H151504   1.590   0.229   3.861
17209TIP3    H251505   1.716   0.231   3.945
17210TIP3   OH251506   1.806   0.098   4.035
17210TIP3    H151507   1.763   0.051   4.106
17210TIP3    H251508   1.897   0.104   4.061
17211TIP3   OH251509   8.499   8.766   4.390
17211TIP3    H151510   8.521   8.760   4.297
17211TIP3    H251511   8.571   8.817   4.429
17212TIP3   OH251512   8.752   8.403   5.071
17212TIP3    H151513   8.843   8.406   5.100
17212TIP3    H251514   8.716   8.324   5.112
17213TIP3   OH251515   8.690   8.167   4.479
17213TIP3    H151516   8.739   8.084   4.480
17213TIP3    H251517   8.755   8.232   4.454
17214TIP3   OH251518   8.530   8.409   4.449
17214TIP3    H151519   8.569   8.332   4.489
17214TIP3    H251520   8.572   8.483   4.494
17215TIP3   OH251521   8.466   8.020   4.064
17215TIP3    H151522   8.381   7.981   4.083
17215TIP3    H251523   8.462   8.041   3.970
17216TIP3   OH251524   8.712   8.033   4.868
17216TIP3    H151525   8.661   8.000   4.942
17216TIP3    H251526   8.646   8.050   4.800
17217TIP3   OH251527   2.250   0.257   4.972
17217TIP3    H151528   2.156   0.238   4.969
17217TIP3    H251529   2.269   0.271   5.065
17218TIP3   OH251530   9.492   8.128   4.167
17218TIP3    H151531   9.463   8.073   4.239
17218TIP3    H251532   9.579   8.094   4.144
17219TIP3   OH251533   8.800   7.846   4.196
17219TIP3    H151534   8.712   7.811   4.205
17219TIP3    H251535   8.856   7.769   4.188
17220TIP3   OH251536   8.627   7.764   3.843
17220TIP3    H151537   8.658   7.798   3.759
17220TIP3    H251538   8.592   7.841   3.888
17221TIP3   OH251539   9.267   7.889   4.088
17221TIP3    H151540   9.307   7.951   4.027
17221TIP3    H251541   9.303   7.913   4.174
17222TIP3   OH251542   9.714   7.998   4.070
17222TIP3    H151543   9.781   7.982   4.003
17222TIP3    H251544   9.737   7.939   4.142
17223TIP3   OH251545   1.738   0.066   3.617
17223TIP3    H151546   1.658   0.059   3.566
17223TIP3    H251547   1.753   0.161   3.625
17224TIP3   OH251548   8.733   7.882   3.610
17224TIP3    H151549   8.779   7.824   3.550
17224TIP3    H251550   8.801   7.938   3.648
17225TIP3   OH251551   9.210   8.083   3.734
17225TIP3    H151552   9.275   8.048   3.795
17225TIP3    H251553   9.214   8.178   3.746
17226TIP3   OH251554   9.026   8.134   5.070
17226TIP3    H151555   8.991   8.070   5.132
17226TIP3    H251556   9.117   8.147   5.096
17227TIP3   OH251557   9.262   8.175   5.204
17227TIP3    H151558   9.347   8.215   5.184
17227TIP3    H251559   9.283   8.092   5.247
17228TIP3   OH251560   1.008   8.978   6.383
17228TIP3    H151561   0.997   9.070   6.360
17228TIP3    H251562   1.037   8.936   6.302
17229TIP3   OH251563   1.220   8.886   7.068
17229TIP3    H151564   1.285   8.835   7.021
17229TIP3    H251565   1.171   8.932   7.000
17230TIP3   OH251566   1.066   9.011   6.873
17230TIP3    H151567   0.978   9.047   6.879
17230TIP3    H251568   1.056   8.929   6.824
17231TIP3   OH251569   0.713   8.668   5.458
17231TIP3    H151570   0.752   8.594   5.413
17231TIP3    H251571   0.787   8.725   5.480
17232TIP3   OH251572   1.011   8.766   6.748
17232TIP3    H151573   0.921   8.749   6.720
17232TIP3    H251574   1.051   8.679   6.752
17233TIP3   OH251575   0.855   8.651   6.109
17233TIP3    H151576   0.910   8.590   6.060
17233TIP3    H251577   0.853   8.730   6.055
17234TIP3   OH251578   0.963   9.041   5.724
17234TIP3    H151579   0.896   9.109   5.730
17234TIP3    H251580   0.941   8.980   5.794
17235TIP3   OH251581   2.772   9.197   5.899
17235TIP3    H151582   2.804   9.275   5.945
17235TIP3    H251583   2.820   9.197   5.816
17236TIP3   OH251584   5.391   0.058   5.900
17236TIP3    H151585   5.430  -0.025   5.927
17236TIP3    H251586   5.354   0.041   5.813
17237TIP3   OH251587   1.519   8.977   5.900
17237TIP3    H151588   1.517   9.042   5.830
17237TIP3    H251589   1.474   8.901   5.863
17238TIP3   OH251590   2.217   9.116   5.486
17238TIP3    H151591   2.278   9.096   5.558
17238TIP3    H251592   2.274   9.126   5.410
17239TIP3   OH251593   1.099   9.212   6.006
17239TIP3    H151594   1.178   9.160   6.015
17239TIP3    H251595   1.056   9.177   5.927
17240TIP3   OH251596   4.837   0.259   5.802
17240TIP3    H151597   4.909   0.296   5.751
17240TIP3    H251598   4.784   0.211   5.738
17241TIP3   OH251599   6.159   0.166   6.029
17241TIP3    H151600   6.153   0.225   5.954
17241TIP3    H251601   6.180   0.224   6.103
17242TIP3   OH251602   1.486   9.017   6.307
17242TIP3    H151603   1.418   9.036   6.242
17242TIP3    H251604   1.445   9.036   6.391
17243TIP3   OH251605   2.359   9.077   5.716
17243TIP3    H151606   2.318   9.063   5.801
17243TIP3    H251607   2.422   9.147   5.730
17244TIP3   OH251608   1.337   9.090   6.087
17244TIP3    H151609   1.365   9.181   6.095
17244TIP3    H251610   1.396   9.053   6.021
17245TIP3   OH251611   2.568   9.072   6.047
17245TIP3    H151612   2.483   9.092   6.007
17245TIP3    H251613   2.632   9.112   5.989
17246TIP3   OH251614   1.842   8.731   6.042
17246TIP3    H151615   1.838   8.639   6.069
17246TIP3    H251616   1.765   8.771   6.083
17247TIP3   OH251617   5.000   0.016   5.113
17247TIP3    H151618   5.036   0.097   5.148
17247TIP3    H251619   5.067  -0.017   5.054
17248TIP3   OH251620   5.773   0.517   6.044
17248TIP3    H151621   5.734   0.603   6.061
17248TIP3    H251622   5.714   0.455   6.088
17249TIP3   OH251623   2.481   8.727   5.140
17249TIP3    H151624   2.397   8.729   5.186
17249TIP3    H251625   2.525   8.808   5.166
17250TIP3   OH251626   5.897   0.328   6.270
17250TIP3    H151627   5.805   0.327   6.242
17250TIP3    H251628   5.919   0.235   6.280
17251TIP3   OH251629   1.605   8.808   6.170
17251TIP3    H151630   1.526   8.777   6.125
17251TIP3    H251631   1.579   8.891   6.209
17252TIP3   OH251632   2.143   8.948   6.377
17252TIP3    H151633   2.217   8.920   6.432
17252TIP3    H251634   2.066   8.913   6.421
17253TIP3   OH251635   5.654   0.087   6.299
17253TIP3    H151636   5.622   0.098   6.389
17253TIP3    H251637   5.640   0.173   6.259
17254TIP3   OH251638   1.751   8.841   5.142
17254TIP3    H151639   1.715   8.842   5.230
17254TIP3    H251640   1.722   8.758   5.105
17255TIP3   OH251641   4.671   0.109   6.157
17255TIP3    H151642   4.679   0.089   6.250
17255TIP3    H251643   4.761   0.120   6.127
17256TIP3   OH251644   1.490   9.137   5.683
17256TIP3    H151645   1.399   9.144   5.712
17256TIP3    H251646   1.485   9.130   5.587
17257TIP3   OH251647   5.187   0.001   5.377
17257TIP3    H151648   5.119   0.066   5.364
17257TIP3    H251649   5.208  -0.029   5.288
17258TIP3   OH251650   5.384   0.352   6.526
17258TIP3    H151651   5.379   0.298   6.605
17258TIP3    H251652   5.477   0.356   6.505
17259TIP3   OH251653   2.035   9.246   5.646
17259TIP3    H151654   1.965   9.253   5.582
17259TIP3    H251655   2.103   9.195   5.602
17260TIP3   OH251656   4.700   0.087   6.428
17260TIP3    H151657   4.639   0.145   6.474
17260TIP3    H251658   4.694   0.004   6.475
17261TIP3   OH251659   1.395   8.789   5.075
17261TIP3    H151660   1.363   8.853   5.138
17261TIP3    H251661   1.341   8.804   4.997
17262TIP3   OH251662   0.947   8.871   5.944
17262TIP3    H151663   0.897   8.933   5.997
17262TIP3    H251664   1.029   8.860   5.993
17263TIP3   OH251665   0.920   8.859   5.511
17263TIP3    H151666   0.898   8.891   5.424
17263TIP3    H251667   0.939   8.938   5.562
17264TIP3   OH251668   5.392   0.250   6.100
17264TIP3    H151669   5.392   0.170   6.048
17264TIP3    H251670   5.310   0.248   6.148
17265TIP3   OH251671   1.773   8.988   5.751
17265TIP3    H151672   1.698   8.960   5.803
17265TIP3    H251673   1.808   9.063   5.799
17266TIP3   OH251674   1.233   9.066   5.792
17266TIP3    H151675   1.150   9.065   5.744
17266TIP3    H251676   1.273   8.981   5.771
17267TIP3   OH251677   1.514   9.145   5.397
17267TIP3    H151678   1.593   9.094   5.413
17267TIP3    H251679   1.465   9.094   5.331
17268TIP3   OH251680   2.266   9.072   5.978
17268TIP3    H151681   2.247   9.102   6.067
17268TIP3    H251682   2.197   9.008   5.959
17269TIP3   OH251683   1.320   9.014   5.240
17269TIP3    H151684   1.231   9.040   5.264
17269TIP3    H251685   1.328   9.042   5.148
17270TIP3   OH251686   1.830   9.221   5.887
17270TIP3    H151687   1.881   9.299   5.866
17270TIP3    H251688   1.862   9.194   5.973
17271TIP3   OH251689   1.353   8.830   5.723
17271TIP3    H151690   1.314   8.751   5.761
17271TIP3    H251691   1.354   8.812   5.628
17272TIP3   OH251692   5.099  -0.026   6.167
17272TIP3    H151693   5.024   0.034   6.167
17272TIP3    H251694   5.165   0.019   6.220
17273TIP3   OH251695   1.995   8.961   5.168
17273TIP3    H151696   1.910   8.919   5.158
17273TIP3    H251697   1.994   9.035   5.107
17274TIP3   OH251698   5.421  -0.017   5.080
17274TIP3    H151699   5.481  -0.060   5.141
17274TIP3    H251700   5.430   0.076   5.099
17275TIP3   OH251701   5.151   0.482   6.585
17275TIP3    H151702   5.105   0.485   6.501
17275TIP3    H251703   5.237   0.445   6.565
17276TIP3   OH251704   5.882   0.102   5.032
17276TIP3    H151705   5.812   0.050   4.991
17276TIP3    H251706   5.835   0.170   5.081
17277TIP3   OH251707   1.391   9.080   6.556
17277TIP3    H151708   1.305   9.036   6.561
17277TIP3    H251709   1.442   9.041   6.627
17278TIP3   OH251710   2.183   9.168   6.221
17278TIP3    H151711   2.264   9.207   6.253
17278TIP3    H251712   2.169   9.091   6.277
17279TIP3   OH251713   2.063   8.900   5.423
17279TIP3    H151714   2.038   8.924   5.334
17279TIP3    H251715   2.112   8.975   5.456
17280TIP3   OH251716   1.756   9.041   5.481
17280TIP3    H151717   1.824   9.104   5.456
17280TIP3    H251718   1.761   9.036   5.576
17281TIP3   OH251719   5.271   0.114   6.326
17281TIP3    H151720   5.281   0.115   6.421
17281TIP3    H251721   5.341   0.057   6.295
17282TIP3   OH251722   1.885   8.787   5.599
17282TIP3    H151723   1.857   8.862   5.651
17282TIP3    H251724   1.952   8.822   5.540
17283TIP3   OH251725   1.368   8.815   5.434
17283TIP3    H151726   1.344   8.891   5.381
17283TIP3    H251727   1.462   8.806   5.420
17284TIP3   OH251728   5.920   0.057   6.257
17284TIP3    H151729   5.829   0.042   6.284
17284TIP3    H251730   5.916   0.062   6.162
17285TIP3   OH251731   5.602   0.158   5.600
17285TIP3    H151732   5.549   0.210   5.660
17285TIP3    H251733   5.666   0.115   5.655
17286TIP3   OH251734   0.851   8.945   5.261
17286TIP3    H151735   0.798   9.025   5.252
17286TIP3    H251736   0.819   8.887   5.192
17287TIP3   OH251737   1.349   8.729   6.098
17287TIP3    H151738   1.320   8.702   6.010
17287TIP3    H251739   1.338   8.650   6.151
17288TIP3   OH251740   4.703   0.411   6.789
17288TIP3    H151741   4.727   0.319   6.783
17288TIP3    H251742   4.629   0.413   6.850
17289TIP3   OH251743   4.951   0.181   6.362
17289TIP3    H151744   4.865   0.148   6.384
17289TIP3    H251745   4.952   0.270   6.397
17290TIP3   OH251746   4.726   0.072   5.083
17290TIP3    H151747   4.713   0.071   4.988
17290TIP3    H251748   4.821   0.065   5.094
17291TIP3   OH251749   1.757   9.240   6.566
17291TIP3    H151750   1.750   9.161   6.513
17291TIP3    H251751   1.739   9.311   6.505
17292TIP3   OH251752   1.747   9.052   6.367
17292TIP3    H151753   1.783   9.096   6.290
17292TIP3    H251754   1.654   9.039   6.346
17293TIP3   OH251755   5.654   0.307   6.717
17293TIP3    H151756   5.662   0.239   6.650
17293TIP3    H251757   5.741   0.348   6.721
17294TIP3   OH251758   4.787   0.159   6.762
17294TIP3    H151759   4.770   0.071   6.796
17294TIP3    H251760   4.874   0.154   6.723
17295TIP3   OH251761   1.894   8.844   6.451
17295TIP3    H151762   1.847   8.922   6.422
17295TIP3    H251763   1.831   8.773   6.439
17296TIP3   OH251764   5.289   0.061   6.602
17296TIP3    H151765   5.288   0.117   6.679
17296TIP3    H251766   5.200   0.025   6.598
17297TIP3   OH251767   5.558   0.092   6.549
17297TIP3    H151768   5.469   0.065   6.574
17297TIP3    H251769   5.615   0.045   6.609
17298TIP3   OH251770   2.510   9.261   6.706
17298TIP3    H151771   2.523   9.166   6.698
17298TIP3    H251772   2.504   9.276   6.800
17299TIP3   OH251773   1.442   9.169   6.893
17299TIP3    H151774   1.442   9.087   6.845
17299TIP3    H251775   1.502   9.154   6.967
17300TIP3   OH251776   1.950   8.853   6.717
17300TIP3    H151777   2.024   8.792   6.713
17300TIP3    H251778   1.919   8.857   6.626
17301TIP3   OH251779   2.043   9.072   6.852
17301TIP3    H151780   2.017   8.999   6.797
17301TIP3    H251781   1.966   9.129   6.853
17302TIP3   OH251782   2.420   9.210   4.899
17302TIP3    H151783   2.391   9.272   4.832
17302TIP3    H251784   2.341   9.193   4.950
17303TIP3   OH251785   5.553   0.388   5.382
17303TIP3    H151786   5.506   0.306   5.399
17303TIP3    H251787   5.614   0.397   5.455
17304TIP3   OH251788   5.943   0.604   6.322
17304TIP3    H151789   5.894   0.556   6.255
17304TIP3    H251790   5.986   0.674   6.273
17305TIP3   OH251791   2.290   8.955   4.828
17305TIP3    H151792   2.362   8.908   4.870
17305TIP3    H251793   2.212   8.904   4.849
17306TIP3   OH251794   2.358   9.150   5.243
17306TIP3    H151795   2.409   9.073   5.268
17306TIP3    H251796   2.412   9.225   5.270
17307TIP3   OH251797   5.785   0.046   5.772
17307TIP3    H151798   5.858   0.043   5.711
17307TIP3    H251799   5.823   0.073   5.856
17308TIP3   OH251800   5.829   0.179   6.013
17308TIP3    H151801   5.739   0.202   5.990
17308TIP3    H251802   5.880   0.256   5.991
17309TIP3   OH251803   1.185   9.270   6.803
17309TIP3    H151804   1.278   9.260   6.825
17309TIP3    H251805   1.149   9.181   6.812
17310TIP3   OH251806   3.047   9.141   6.559
17310TIP3    H151807   3.113   9.085   6.518
17310TIP3    H251808   3.010   9.190   6.485
17311TIP3   OH251809   2.470   8.932   5.354
17311TIP3    H151810   2.522   8.919   5.434
17311TIP3    H251811   2.404   8.862   5.358
17312TIP3   OH251812   1.145   8.905   6.152
17312TIP3    H151813   1.205   8.831   6.148
17312TIP3    H251814   1.199   8.981   6.133
17313TIP3   OH251815   4.258  -0.013   6.259
17313TIP3    H151816   4.304  -0.011   6.175
17313TIP3    H251817   4.260   0.078   6.290
17314TIP3   OH251818   2.901   9.241   6.349
17314TIP3    H151819   2.813   9.276   6.339
17314TIP3    H251820   2.900   9.157   6.303
17315TIP3   OH251821   2.566   8.932   4.912
17315TIP3    H151822   2.582   8.843   4.879
17315TIP3    H251823   2.608   8.932   4.998
17316TIP3   OH251824   0.985   8.682   5.707
17316TIP3    H151825   0.961   8.725   5.789
17316TIP3    H251826   0.961   8.745   5.639
17317TIP3   OH251827   1.180   8.909   6.580
17317TIP3    H151828   1.128   8.856   6.641
17317TIP3    H251829   1.119   8.934   6.511
17318TIP3   OH251830   2.813   8.995   6.254
17318TIP3    H151831   2.726   8.995   6.213
17318TIP3    H251832   2.844   8.905   6.246
17319TIP3   OH251833   2.049   8.921   5.912
17319TIP3    H151834   1.975   8.864   5.934
17319TIP3    H251835   2.094   8.876   5.841
17320TIP3   OH251836   2.517   8.839   5.780
17320TIP3    H151837   2.570   8.885   5.715
17320TIP3    H251838   2.431   8.879   5.774
17321TIP3   OH251839   2.655   8.912   5.558
17321TIP3    H151840   2.715   8.843   5.531
17321TIP3    H251841   2.690   8.992   5.518
17322TIP3   OH251842   1.251   8.619   5.867
17322TIP3    H151843   1.161   8.590   5.876
17322TIP3    H251844   1.303   8.538   5.873
17323TIP3   OH251845   1.073   8.495   5.524
17323TIP3    H151846   1.100   8.546   5.449
17323TIP3    H251847   1.044   8.560   5.589
17324TIP3   OH251848   1.724   8.671   5.794
17324TIP3    H151849   1.778   8.706   5.723
17324TIP3    H251850   1.768   8.699   5.874
17325TIP3   OH251851   2.222   8.789   5.742
17325TIP3    H151852   2.268   8.753   5.666
17325TIP3    H251853   2.230   8.722   5.809
17326TIP3   OH251854   2.272   8.746   5.323
17326TIP3    H151855   2.194   8.793   5.355
17326TIP3    H251856   2.265   8.659   5.362
17327TIP3   OH251857   1.187   8.642   5.310
17327TIP3    H151858   1.240   8.595   5.247
17327TIP3    H251859   1.249   8.696   5.359
17328TIP3   OH251860   1.638   8.813   5.390
17328TIP3    H151861   1.668   8.726   5.416
17328TIP3    H251862   1.693   8.873   5.440
17329TIP3   OH251863   1.482   8.923   6.768
17329TIP3    H151864   1.445   8.853   6.822
17329TIP3    H251865   1.575   8.924   6.791
17330TIP3   OH251866   1.731   8.908   6.881
17330TIP3    H151867   1.810   8.890   6.830
17330TIP3    H251868   1.727   8.836   6.945
17331TIP3   OH251869   2.558   8.993   6.677
17331TIP3    H151870   2.577   8.964   6.766
17331TIP3    H251871   2.643   8.992   6.633
17332TIP3   OH251872   6.049   0.150   5.273
17332TIP3    H151873   6.040   0.196   5.189
17332TIP3    H251874   5.965   0.106   5.286
17333TIP3   OH251875   7.825   0.215   5.391
17333TIP3    H151876   7.856   0.292   5.439
17333TIP3    H251877   7.874   0.216   5.309
17334TIP3   OH251878   7.194   0.325   5.377
17334TIP3    H151879   7.241   0.251   5.414
17334TIP3    H251880   7.156   0.292   5.296
17335TIP3   OH251881   3.336   9.225   5.395
17335TIP3    H151882   3.328   9.294   5.329
17335TIP3    H251883   3.287   9.151   5.358
17336TIP3   OH251884   7.276   0.124   4.976
17336TIP3    H151885   7.340   0.110   5.046
17336TIP3    H251886   7.329   0.143   4.898
17337TIP3   OH251887   6.185   0.233   5.494
17337TIP3    H151888   6.259   0.174   5.480
17337TIP3    H251889   6.124   0.214   5.422
17338TIP3   OH251890   6.660   0.518   5.281
17338TIP3    H151891   6.741   0.498   5.235
17338TIP3    H251892   6.591   0.480   5.226
17339TIP3   OH251893   7.948   0.421   5.522
17339TIP3    H151894   7.944   0.477   5.445
17339TIP3    H251895   7.971   0.481   5.594
17340TIP3   OH251896   6.558   0.027   5.807
17340TIP3    H151897   6.498   0.050   5.736
17340TIP3    H251898   6.507   0.040   5.887
17341TIP3   OH251899   7.426   0.109   5.202
17341TIP3    H151900   7.389   0.089   5.289
17341TIP3    H251901   7.486   0.182   5.218
17342TIP3   OH251902   6.422   0.100   5.584
17342TIP3    H151903   6.441   0.193   5.585
17342TIP3    H251904   6.478   0.064   5.516
17343TIP3   OH251905   7.627   0.086   5.538
17343TIP3    H151906   7.542   0.109   5.501
17343TIP3    H251907   7.691   0.129   5.481
17344TIP3   OH251908   3.632   8.986   5.528
17344TIP3    H151909   3.628   8.894   5.556
17344TIP3    H251910   3.555   9.026   5.567
17345TIP3   OH251911   6.762   0.303   4.643
17345TIP3    H151912   6.823   0.375   4.630
17345TIP3    H251913   6.783   0.240   4.574
17346TIP3   OH251914   7.569   0.770   5.533
17346TIP3    H151915   7.528   0.855   5.547
17346TIP3    H251916   7.511   0.707   5.576
17347TIP3   OH251917   4.267   8.946   4.614
17347TIP3    H151918   4.192   8.963   4.670
17347TIP3    H251919   4.281   9.029   4.568
17348TIP3   OH251920   7.708   0.590   5.765
17348TIP3    H151921   7.615   0.592   5.742
17348TIP3    H251922   7.729   0.497   5.774
17349TIP3   OH251923   3.394   9.059   5.656
17349TIP3    H151924   3.309   9.032   5.620
17349TIP3    H251925   3.377   9.142   5.699
17350TIP3   OH251926   3.939   9.201   5.863
17350TIP3    H151927   4.011   9.175   5.919
17350TIP3    H251928   3.861   9.169   5.907
17351TIP3   OH251929   7.457   0.333   5.789
17351TIP3    H151930   7.419   0.330   5.877
17351TIP3    H251931   7.442   0.422   5.759
17352TIP3   OH251932   3.548   9.105   4.643
17352TIP3    H151933   3.513   9.099   4.732
17352TIP3    H251934   3.523   9.022   4.602
17353TIP3   OH251935   6.474   0.363   5.638
17353TIP3    H151936   6.472   0.348   5.732
17353TIP3    H251937   6.567   0.379   5.618
17354TIP3   OH251938   6.561   0.160   5.195
17354TIP3    H151939   6.472   0.160   5.228
17354TIP3    H251940   6.554   0.131   5.104
17355TIP3   OH251941   6.990   0.258   4.846
17355TIP3    H151942   6.938   0.332   4.815
17355TIP3    H251943   7.041   0.230   4.770
17356TIP3   OH251944   7.205   0.590   5.986
17356TIP3    H151945   7.216   0.510   6.036
17356TIP3    H251946   7.293   0.628   5.980
17357TIP3   OH251947   7.104   0.267   5.128
17357TIP3    H151948   7.022   0.279   5.078
17357TIP3    H251949   7.154   0.204   5.076
17358TIP3   OH251950   6.476   0.341   5.911
17358TIP3    H151951   6.421   0.399   5.963
17358TIP3    H251952   6.470   0.256   5.955
17359TIP3   OH251953   3.217   9.061   4.570
17359TIP3    H151954   3.186   9.094   4.655
17359TIP3    H251955   3.159   9.101   4.506
17360TIP3   OH251956   2.763   9.106   5.401
17360TIP3    H151957   2.732   9.179   5.454
17360TIP3    H251958   2.854   9.127   5.383
17361TIP3   OH251959   2.822   9.155   5.041
17361TIP3    H151960   2.835   9.141   4.948
17361TIP3    H251961   2.759   9.226   5.046
17362TIP3   OH251962   7.204   0.498   5.604
17362TIP3    H151963   7.202   0.423   5.545
17362TIP3    H251964   7.114   0.506   5.635
17363TIP3   OH251965   6.843   0.008   5.235
17363TIP3    H151966   6.771  -0.025   5.289
17363TIP3    H251967   6.883   0.077   5.288
17364TIP3   OH251968   6.319   0.075   5.300
17364TIP3    H151969   6.234   0.092   5.259
17364TIP3    H251970   6.346  -0.010   5.266
17365TIP3   OH251971   6.549   0.098   4.931
17365TIP3    H151972   6.643   0.079   4.923
17365TIP3    H251973   6.517   0.097   4.841
17366TIP3   OH251974   7.326   0.096   5.461
17366TIP3    H151975   7.308   0.120   5.552
17366TIP3    H251976   7.258   0.033   5.439
17367TIP3   OH251977   6.418   0.084   4.698
17367TIP3    H151978   6.344   0.048   4.649
17367TIP3    H251979   6.453   0.153   4.642
17368TIP3   OH251980   6.898   0.238   5.377
17368TIP3    H151981   6.943   0.323   5.371
17368TIP3    H251982   6.917   0.207   5.466
17369TIP3   OH251983   3.161   9.074   5.228
17369TIP3    H151984   3.116   9.005   5.277
17369TIP3    H251985   3.184   9.032   5.145
17370TIP3   OH251986   6.890   0.219   5.655
17370TIP3    H151987   6.816   0.279   5.662
17370TIP3    H251988   6.959   0.258   5.709
17371TIP3   OH251989   3.804   9.206   4.662
17371TIP3    H151990   3.711   9.188   4.649
17371TIP3    H251991   3.815   9.296   4.632
17372TIP3   OH251992   7.167   0.231   4.624
17372TIP3    H151993   7.250   0.195   4.655
17372TIP3    H251994   7.185   0.323   4.608
17373TIP3   OH251995   6.926   0.621   6.002
17373TIP3    H151996   6.916   0.686   5.932
17373TIP3    H251997   7.021   0.605   6.005
17374TIP3   OH251998   7.594   0.349   4.509
17374TIP3    H151999   7.601   0.386   4.421
17374TIP3    H252000   7.567   0.423   4.563
17375TIP3   OH252001   6.427   0.087   6.038
17375TIP3    H152002   6.331   0.084   6.038
17375TIP3    H252003   6.453   0.022   6.104
17376TIP3   OH252004   7.247   0.181   5.707
17376TIP3    H152005   7.329   0.219   5.740
17376TIP3    H252006   7.232   0.105   5.763
17377TIP3   OH252007   3.865   9.144   4.916
17377TIP3    H152008   3.838   9.164   4.827
17377TIP3    H252009   3.912   9.221   4.946
17378TIP3   OH252010   6.823   0.062   4.960
17378TIP3    H152011   6.887   0.126   4.928
17378TIP3    H252012   6.835   0.063   5.055
17379TIP3   OH252013   7.059   0.355   5.817
17379TIP3    H152014   7.066   0.354   5.912
17379TIP3    H252015   7.136   0.307   5.786
17380TIP3   OH252016   3.681   9.041   5.089
17380TIP3    H152017   3.656   9.118   5.140
17380TIP3    H252018   3.751   9.072   5.031
17381TIP3   OH252019   3.171   9.073   4.871
17381TIP3    H152020   3.165   9.163   4.900
17381TIP3    H252021   3.264   9.052   4.874
17382TIP3   OH252022   7.722   0.319   5.743
17382TIP3    H152023   7.632   0.300   5.771
17382TIP3    H252024   7.716   0.329   5.648
17383TIP3   OH252025   7.363   0.402   5.087
17383TIP3    H152026   7.298   0.347   5.132
17383TIP3    H252027   7.443   0.390   5.138
17384TIP3   OH252028   2.702   9.173   4.774
17384TIP3    H152029   2.739   9.259   4.793
17384TIP3    H252030   2.756   9.140   4.702
17385TIP3   OH252031   3.121   8.987   5.620
17385TIP3    H152032   3.093   8.951   5.536
17385TIP3    H252033   3.120   8.912   5.679
17386TIP3   OH252034   6.434   0.677   6.252
17386TIP3    H152035   6.484   0.596   6.259
17386TIP3    H252036   6.393   0.687   6.338
17387TIP3   OH252037   6.744   0.416   5.833
17387TIP3    H152038   6.653   0.412   5.862
17387TIP3    H252039   6.767   0.508   5.838
17388TIP3   OH252040   6.497   0.311   4.564
17388TIP3    H152041   6.499   0.318   4.469
17388TIP3    H252042   6.588   0.319   4.591
17389TIP3   OH252043   6.798   0.287   6.080
17389TIP3    H152044   6.797   0.204   6.033
17389TIP3    H252045   6.780   0.353   6.013
17390TIP3   OH252046   6.808   0.090   5.886
17390TIP3    H152047   6.843   0.129   5.805
17390TIP3    H252048   6.718   0.067   5.864
17391TIP3   OH252049   7.455   0.556   6.184
17391TIP3    H152050   7.488   0.468   6.166
17391TIP3    H252051   7.528   0.601   6.227
17392TIP3   OH252052   6.579   0.446   6.280
17392TIP3    H152053   6.577   0.351   6.273
17392TIP3    H252054   6.623   0.476   6.200
17393TIP3   OH252055   3.687   9.109   5.939
17393TIP3    H152056   3.639   9.190   5.921
17393TIP3    H252057   3.623   9.039   5.925
17394TIP3   OH252058   7.071   0.328   6.092
17394TIP3    H152059   7.085   0.383   6.170
17394TIP3    H252060   6.980   0.300   6.099
17395TIP3   OH252061   7.334   0.309   6.024
17395TIP3    H152062   7.248   0.289   6.060
17395TIP3    H252063   7.395   0.285   6.093
17396TIP3   OH252064   7.558   0.282   6.189
17396TIP3    H152065   7.576   0.189   6.181
17396TIP3    H252066   7.558   0.298   6.284
17397TIP3   OH252067   6.518   0.181   6.340
17397TIP3    H152068   6.527   0.097   6.295
17397TIP3    H252069   6.568   0.171   6.421
17398TIP3   OH252070   3.746   9.115   6.205
17398TIP3    H152071   3.818   9.052   6.206
17398TIP3    H252072   3.716   9.116   6.114
17399TIP3   OH252073   7.105   0.091   6.346
17399TIP3    H152074   7.080   0.016   6.292
17399TIP3    H252075   7.028   0.148   6.344
17400TIP3   OH252076   7.506   0.195   4.267
17400TIP3    H152077   7.443   0.264   4.286
17400TIP3    H252078   7.470   0.118   4.310
17401TIP3   OH252079   7.365   0.656   4.889
17401TIP3    H152080   7.340   0.567   4.912
17401TIP3    H252081   7.365   0.703   4.972
17402TIP3   OH252082   7.763   0.873   5.790
17402TIP3    H152083   7.705   0.834   5.725
17402TIP3    H252084   7.803   0.948   5.745
17403TIP3   OH252085   4.062   9.250   4.379
17403TIP3    H152086   4.140   9.208   4.414
17403TIP3    H252087   3.994   9.182   4.382
17404TIP3   OH252088   7.410   0.168   4.739
17404TIP3    H152089   7.468   0.093   4.745
17404TIP3    H252090   7.467   0.244   4.756
17405TIP3   OH252091   7.566   0.333   5.260
17405TIP3    H152092   7.645   0.323   5.207
17405TIP3    H252093   7.599   0.353   5.348
17406TIP3   OH252094   7.618   0.442   5.507
17406TIP3    H152095   7.532   0.476   5.529
17406TIP3    H252096   7.669   0.518   5.481
17407TIP3   OH252097   6.254   0.256   6.279
17407TIP3    H152098   6.348   0.245   6.271
17407TIP3    H252099   6.223   0.171   6.313
17408TIP3   OH252100   8.107   0.171   6.046
17408TIP3    H152101   8.171   0.107   6.014
17408TIP3    H252102   8.073   0.212   5.966
17409TIP3   OH252103   4.295   9.191   4.815
17409TIP3    H152104   4.339   9.186   4.899
17409TIP3    H252105   4.227   9.123   4.818
17410TIP3   OH252106   2.943   9.196   5.680
17410TIP3    H152107   2.985   9.110   5.670
17410TIP3    H252108   3.010   9.259   5.653
17411TIP3   OH252109   6.127   0.264   5.765
17411TIP3    H152110   6.162   0.246   5.677
17411TIP3    H252111   6.095   0.354   5.760
17412TIP3   OH252112   7.968   0.255   5.827
17412TIP3    H152113   7.881   0.291   5.816
17412TIP3    H252114   7.964   0.169   5.786
17413TIP3   OH252115   4.313   9.163   4.443
17413TIP3    H152116   4.353   9.097   4.387
17413TIP3    H252117   4.384   9.224   4.463
17414TIP3   OH252118   2.701   8.944   5.159
17414TIP3    H152119   2.687   8.960   5.252
17414TIP3    H252120   2.754   9.019   5.130
17415TIP3   OH252121   2.976   9.066   6.038
17415TIP3    H152122   2.925   9.039   6.114
17415TIP3    H252123   2.912   9.098   5.975
17416TIP3   OH252124   4.605   9.252   5.739
17416TIP3    H152125   4.517   9.251   5.701
17416TIP3    H252126   4.635   9.161   5.731
17417TIP3   OH252127   3.843   9.183   5.394
17417TIP3    H152128   3.774   9.121   5.420
17417TIP3    H252129   3.892   9.137   5.326
17418TIP3   OH252130   4.319   9.101   5.264
17418TIP3    H152131   4.366   9.150   5.197
17418TIP3    H252132   4.229   9.133   5.259
17419TIP3   OH252133   4.455   9.173   5.039
17419TIP3    H152134   4.514   9.101   5.016
17419TIP3    H252135   4.498   9.251   5.006
17420TIP3   OH252136   3.037   8.881   5.377
17420TIP3    H152137   2.949   8.844   5.388
17420TIP3    H252138   3.094   8.804   5.370
17421TIP3   OH252139   2.811   8.764   4.970
17421TIP3    H152140   2.875   8.810   4.915
17421TIP3    H252141   2.800   8.821   5.047
17422TIP3   OH252142   3.509   8.932   5.279
17422TIP3    H152143   3.570   8.961   5.211
17422TIP3    H252144   3.553   8.955   5.361
17423TIP3   OH252145   4.026   9.057   5.230
17423TIP3    H152146   4.059   9.017   5.150
17423TIP3    H252147   4.030   8.987   5.295
17424TIP3   OH252148   4.086   9.010   4.814
17424TIP3    H152149   4.007   9.056   4.842
17424TIP3    H252150   4.078   8.923   4.853
17425TIP3   OH252151   2.966   8.917   4.780
17425TIP3    H152152   3.012   8.851   4.729
17425TIP3    H252153   3.036   8.969   4.820
17426TIP3   OH252154   3.442   9.061   4.892
17426TIP3    H152155   3.475   8.975   4.920
17426TIP3    H252156   3.498   9.124   4.938
17427TIP3   OH252157   3.278   9.158   6.244
17427TIP3    H152158   3.244   9.096   6.308
17427TIP3    H252159   3.370   9.168   6.266
17428TIP3   OH252160   3.523   9.173   6.365
17428TIP3    H152161   3.603   9.151   6.318
17428TIP3    H252162   3.519   9.108   6.436
17429TIP3   OH252163   7.621   0.017   6.167
17429TIP3    H152164   7.638  -0.012   6.256
17429TIP3    H252165   7.707   0.015   6.124
17430TIP3   OH252166   7.827   0.352   4.726
17430TIP3    H152167   7.817   0.416   4.656
17430TIP3    H252168   7.739   0.344   4.764
17431TIP3   OH252169   9.644   0.480   4.867
17431TIP3    H152170   9.673   0.559   4.914
17431TIP3    H252171   9.687   0.486   4.782
17432TIP3   OH252172   9.124   0.677   4.893
17432TIP3    H152173   9.128   0.584   4.915
17432TIP3    H252174   9.091   0.679   4.803
17433TIP3   OH252175   8.362   0.230   4.916
17433TIP3    H152176   8.400   0.307   4.873
17433TIP3    H252177   8.319   0.182   4.845
17434TIP3   OH252178   9.068   0.421   4.442
17434TIP3    H152179   9.126   0.411   4.518
17434TIP3    H252180   9.126   0.444   4.370
17435TIP3   OH252181   7.988   0.502   4.994
17435TIP3    H152182   8.068   0.452   5.012
17435TIP3    H252183   7.957   0.468   4.910
17436TIP3   OH252184   8.463   0.779   4.777
17436TIP3    H152185   8.556   0.793   4.757
17436TIP3    H252186   8.429   0.733   4.700
17437TIP3   OH252187   9.722   0.685   5.037
17437TIP3    H152188   9.646   0.735   5.009
17437TIP3    H252189   9.756   0.733   5.113
17438TIP3   OH252190   8.342   0.266   5.300
17438TIP3    H152191   8.283   0.298   5.232
17438TIP3    H252192   8.298   0.286   5.383
17439TIP3   OH252193   9.212   0.430   4.672
17439TIP3    H152194   9.186   0.406   4.761
17439TIP3    H252195   9.284   0.491   4.684
17440TIP3   OH252196   8.209   0.375   5.085
17440TIP3    H152197   8.264   0.453   5.098
17440TIP3    H252198   8.258   0.321   5.024
17441TIP3   OH252199   9.450   0.357   5.027
17441TIP3    H152200   9.365   0.390   4.999
17441TIP3    H252201   9.511   0.393   4.963
17442TIP3   OH252202   5.433   9.240   5.019
17442TIP3    H152203   5.427   9.148   5.045
17442TIP3    H252204   5.357   9.282   5.060
17443TIP3   OH252205   8.547   0.575   4.074
17443TIP3    H152206   8.570   0.622   4.154
17443TIP3    H252207   8.617   0.596   4.013
17444TIP3   OH252208   9.352   1.016   5.021
17444TIP3    H152209   9.348   1.107   5.051
17444TIP3    H252210   9.313   0.966   5.093
17445TIP3   OH252211   9.340  -0.030   4.115
17445TIP3    H152212   9.264  -0.011   4.169
17445TIP3    H252213   9.350   0.047   4.059
17446TIP3   OH252214   9.490   0.864   5.336
17446TIP3    H152215   9.405   0.876   5.292
17446TIP3    H252216   9.514   0.774   5.315
17447TIP3   OH252217   8.462   0.076   5.141
17447TIP3    H152218   8.403   0.078   5.066
17447TIP3    H252219   8.430   0.146   5.198
17448TIP3   OH252220   9.004   0.209   5.349
17448TIP3    H152221   9.077   0.190   5.408
17448TIP3    H252222   8.927   0.180   5.397
17449TIP3   OH252223   9.244   0.613   5.257
17449TIP3    H152224   9.210   0.592   5.344
17449TIP3    H252225   9.237   0.708   5.251
17450TIP3   OH252226   8.622   0.128   4.117
17450TIP3    H152227   8.595   0.122   4.208
17450TIP3    H252228   8.594   0.046   4.077
17451TIP3   OH252229   8.350   0.596   5.147
17451TIP3    H152230   8.327   0.601   5.239
17451TIP3    H252231   8.357   0.687   5.119
17452TIP3   OH252232   8.366   0.364   4.668
17452TIP3    H152233   8.280   0.387   4.704
17452TIP3    H252234   8.350   0.351   4.574
17453TIP3   OH252235   8.822   0.542   4.422
17453TIP3    H152236   8.852   0.632   4.414
17453TIP3    H252237   8.902   0.489   4.417
17454TIP3   OH252238   9.024   0.861   5.490
17454TIP3    H152239   8.990   0.822   5.570
17454TIP3    H252240   9.118   0.841   5.492
17455TIP3   OH252241   8.960   0.586   4.680
17455TIP3    H152242   8.887   0.560   4.622
17455TIP3    H252243   9.036   0.541   4.643
17456TIP3   OH252244   8.262   0.603   5.404
17456TIP3    H152245   8.208   0.658   5.461
17456TIP3    H252246   8.261   0.517   5.446
17457TIP3   OH252247   8.273   0.082   4.068
17457TIP3    H152248   8.249   0.103   4.159
17457TIP3    H252249   8.222   0.144   4.016
17458TIP3   OH252250   7.846   0.134   4.909
17458TIP3    H152251   7.818   0.200   4.973
17458TIP3    H252252   7.863   0.184   4.829
17459TIP3   OH252253   7.767   0.142   4.488
17459TIP3    H152254   7.849   0.192   4.495
17459TIP3    H252255   7.698   0.206   4.502
17460TIP3   OH252256   9.022   0.811   5.112
17460TIP3    H152257   9.055   0.774   5.030
17460TIP3    H252258   8.977   0.738   5.155
17461TIP3   OH252259   8.614   0.238   4.687
17461TIP3    H152260   8.522   0.260   4.697
17461TIP3    H252261   8.662   0.308   4.732
17462TIP3   OH252262   8.100   0.350   4.764
17462TIP3    H152263   8.007   0.347   4.741
17462TIP3    H252264   8.131   0.260   4.755
17463TIP3   OH252265   8.349   0.353   4.399
17463TIP3    H152266   8.444   0.360   4.390
17463TIP3    H252267   8.317   0.355   4.309
17464TIP3   OH252268   9.106   0.400   4.930
17464TIP3    H152269   9.086   0.410   5.023
17464TIP3    H252270   9.036   0.344   4.896
17465TIP3   OH252271   8.188   0.338   4.187
17465TIP3    H152272   8.094   0.331   4.197
17465TIP3    H252273   8.202   0.355   4.094
17466TIP3   OH252274   8.691   0.487   4.755
17466TIP3    H152275   8.765   0.521   4.805
17466TIP3    H252276   8.616   0.494   4.814
17467TIP3   OH252277   8.204   0.101   4.719
17467TIP3    H152278   8.164   0.032   4.772
17467TIP3    H252279   8.240   0.055   4.643
17468TIP3   OH252280   8.640   0.515   5.148
17468TIP3    H152281   8.590   0.578   5.199
17468TIP3    H252282   8.731   0.542   5.160
17469TIP3   OH252283   8.878   0.247   4.129
17469TIP3    H152284   8.785   0.234   4.114
17469TIP3    H252285   8.895   0.337   4.098
17470TIP3   OH252286   8.998   0.498   4.068
17470TIP3    H152287   9.074   0.488   4.126
17470TIP3    H252288   9.035   0.513   3.981
17471TIP3   OH252289   8.775   0.981   5.537
17471TIP3    H152290   8.726   0.995   5.456
17471TIP3    H252291   8.863   0.957   5.508
17472TIP3   OH252292   9.351   0.586   4.013
17472TIP3    H152293   9.290   0.587   3.940
17472TIP3    H252294   9.402   0.666   4.003
17473TIP3   OH252295   8.217   0.343   5.529
17473TIP3    H152296   8.122   0.342   5.531
17473TIP3    H252297   8.243   0.281   5.597
17474TIP3   OH252298   9.042   0.430   5.193
17474TIP3    H152299   9.122   0.472   5.226
17474TIP3    H252300   9.031   0.353   5.249
17475TIP3   OH252301   8.935   0.187   4.388
17475TIP3    H152302   8.910   0.205   4.297
17475TIP3    H252303   8.980   0.266   4.417
17476TIP3   OH252304   8.626   0.345   4.431
17476TIP3    H152305   8.691   0.414   4.418
17476TIP3    H252306   8.631   0.324   4.524
17477TIP3   OH252307   8.879   0.634   5.272
17477TIP3    H152308   8.878   0.637   5.368
17477TIP3    H252309   8.931   0.557   5.251
17478TIP3   OH252310   8.756   0.055   4.549
17478TIP3    H152311   8.721   0.126   4.602
17478TIP3    H252312   8.824   0.096   4.496
17479TIP3   OH252313   8.250   0.083   4.357
17479TIP3    H152314   8.256   0.175   4.380
17479TIP3    H252315   8.340   0.051   4.359
17480TIP3   OH252316   9.513   0.604   5.240
17480TIP3    H152317   9.419   0.589   5.245
17480TIP3    H252318   9.534   0.595   5.147
17481TIP3   OH252319   9.188   0.753   4.553
17481TIP3    H152320   9.149   0.828   4.599
17481TIP3    H252321   9.251   0.717   4.616
17482TIP3   OH252322   7.777   0.176   4.211
17482TIP3    H152323   7.842   0.244   4.228
17482TIP3    H252324   7.763   0.134   4.296
17483TIP3   OH252325   4.893   9.254   5.108
17483TIP3    H152326   4.877   9.219   5.021
17483TIP3    H252327   4.910   9.177   5.162
17484TIP3   OH252328   8.305   0.932   5.755
17484TIP3    H152329   8.330   0.840   5.765
17484TIP3    H252330   8.232   0.944   5.816
17485TIP3   OH252331   8.568   0.718   5.351
17485TIP3    H152332   8.533   0.780   5.414
17485TIP3    H252333   8.610   0.772   5.285
17486TIP3   OH252334   8.278   0.615   4.052
17486TIP3    H152335   8.256   0.608   3.959
17486TIP3    H252336   8.372   0.595   4.056
17487TIP3   OH252337   8.607   0.506   5.543
17487TIP3    H152338   8.602   0.430   5.486
17487TIP3    H252339   8.582   0.580   5.487
17488TIP3   OH252340   8.603   0.325   5.335
17488TIP3    H152341   8.623   0.378   5.259
17488TIP3    H252342   8.511   0.301   5.325
17489TIP3   OH252343   9.297   0.824   5.545
17489TIP3    H152344   9.316   0.740   5.586
17489TIP3    H252345   9.376   0.847   5.496
17490TIP3   OH252346   8.397   0.680   5.767
17490TIP3    H152347   8.380   0.586   5.774
17490TIP3    H252348   8.485   0.685   5.727
17491TIP3   OH252349   8.750   0.120   5.428
17491TIP3    H152350   8.706   0.197   5.394
17491TIP3    H252351   8.687   0.049   5.418
17492TIP3   OH252352   8.872   0.580   5.556
17492TIP3    H152353   8.874   0.639   5.632
17492TIP3    H252354   8.784   0.542   5.558
17493TIP3   OH252355   9.133   0.538   5.487
17493TIP3    H152356   9.044   0.540   5.522
17493TIP3    H252357   9.189   0.538   5.565
17494TIP3   OH252358   9.353   0.564   5.664
17494TIP3    H152359   9.370   0.470   5.662
17494TIP3    H252360   9.351   0.586   5.757
17495TIP3   OH252361   8.307   0.429   5.835
17495TIP3    H152362   8.318   0.346   5.790
17495TIP3    H252363   8.358   0.421   5.915
17496TIP3   OH252364   8.812   0.137   5.694
17496TIP3    H152365   8.882   0.072   5.690
17496TIP3    H252366   8.778   0.141   5.604
17497TIP3   OH252367   8.913   0.351   5.835
17497TIP3    H152368   8.887   0.277   5.781
17497TIP3    H252369   8.837   0.409   5.835
17498TIP3   OH252370   9.155   0.531   3.828
17498TIP3    H152371   9.184   0.563   3.743
17498TIP3    H252372   9.151   0.436   3.818
17499TIP3   OH252373   9.318   0.726   4.313
17499TIP3    H152374   9.284   0.638   4.295
17499TIP3    H252375   9.283   0.748   4.400
17500TIP3   OH252376   9.704   1.033   5.360
17500TIP3    H152377   9.630   0.977   5.338
17500TIP3    H252378   9.774   1.005   5.301
17501TIP3   OH252379   9.145   0.259   3.805
17501TIP3    H152380   9.223   0.224   3.848
17501TIP3    H252381   9.076   0.196   3.825
17502TIP3   OH252382   9.233   0.473   4.228
17502TIP3    H152383   9.279   0.391   4.246
17502TIP3    H252384   9.280   0.511   4.153
17503TIP3   OH252385   9.381   0.643   4.725
17503TIP3    H152386   9.465   0.673   4.690
17503TIP3    H252387   9.381   0.673   4.816
17504TIP3   OH252388   9.492   0.794   4.941
17504TIP3    H152389   9.444   0.874   4.965
17504TIP3    H252390   9.529   0.813   4.855
17505TIP3   OH252391   8.046   0.513   5.772
17505TIP3    H152392   8.141   0.507   5.760
17505TIP3    H252393   8.021   0.425   5.801
17506TIP3   OH252394   0.100   0.425   5.534
17506TIP3    H152395   0.165   0.365   5.497
17506TIP3    H252396   0.064   0.472   5.458
17507TIP3   OH252397   9.348   0.235   4.293
17507TIP3    H152398   9.396   0.227   4.376
17507TIP3    H252399   9.284   0.164   4.296
17508TIP3   OH252400   8.004   0.226   5.184
17508TIP3    H152401   8.041   0.141   5.160
17508TIP3    H252402   8.071   0.290   5.160
17509TIP3   OH252403   7.918   0.526   5.263
17509TIP3    H152404   7.953   0.513   5.175
17509TIP3    H252405   7.885   0.615   5.263
17510TIP3   OH252406   9.758   0.527   5.329
17510TIP3    H152407   9.672   0.570   5.325
17510TIP3    H252408   9.748   0.448   5.276
17511TIP3   OH252409   9.375   0.171   3.928
17511TIP3    H152410   9.420   0.109   3.871
17511TIP3    H252411   9.434   0.246   3.934
17512TIP3   OH252412   4.531   9.169   4.658
17512TIP3    H152413   4.462   9.170   4.724
17512TIP3    H252414   4.526   9.254   4.615
17513TIP3   OH252415   8.028   0.063   5.511
17513TIP3    H152416   7.979   0.048   5.592
17513TIP3    H252417   7.967   0.107   5.453
17514TIP3   OH252418   9.670   0.288   5.219
17514TIP3    H152419   9.586   0.294   5.175
17514TIP3    H252420   9.692   0.195   5.217
17515TIP3   OH252421   8.903   0.226   4.856
17515TIP3    H152422   8.843   0.161   4.892
17515TIP3    H252423   8.963   0.176   4.801
17516TIP3   OH252424   9.384   0.128   4.740
17516TIP3    H152425   9.424   0.179   4.670
17516TIP3    H252426   9.291   0.152   4.737
17517TIP3   OH252427   9.510   0.214   4.513
17517TIP3    H152428   9.579   0.154   4.487
17517TIP3    H252429   9.546   0.301   4.496
17518TIP3   OH252430   4.842   9.133   4.864
17518TIP3    H152431   4.752   9.101   4.875
17518TIP3    H252432   4.895   9.053   4.862
17519TIP3   OH252433   4.659   9.011   4.475
17519TIP3    H152434   4.685   9.070   4.404
17519TIP3    H252435   4.619   9.068   4.541
17520TIP3   OH252436   5.314   9.183   4.768
17520TIP3    H152437   5.356   9.237   4.700
17520TIP3    H252438   5.354   9.212   4.850
17521TIP3   OH252439   9.099   0.089   4.717
17521TIP3    H152440   9.115   0.045   4.633
17521TIP3    H252441   9.100   0.019   4.781
17522TIP3   OH252442   9.153   0.038   4.304
17522TIP3    H152443   9.074   0.086   4.328
17522TIP3    H252444   9.140  -0.049   4.342
17523TIP3   OH252445   4.762   9.177   4.260
17523TIP3    H152446   4.805   9.119   4.198
17523TIP3    H252447   4.833   9.227   4.300
17524TIP3   OH252448   8.529   0.094   4.373
17524TIP3    H152449   8.578   0.028   4.422
17524TIP3    H252450   8.567   0.178   4.401
17525TIP3   OH252451   8.334   0.171   5.732
17525TIP3    H152452   8.301   0.109   5.797
17525TIP3    H252453   8.427   0.182   5.754
17526TIP3   OH252454   8.581   0.191   5.851
17526TIP3    H152455   8.664   0.174   5.806
17526TIP3    H252456   8.576   0.124   5.919
17527TIP3   OH252457   9.414   0.295   5.655
17527TIP3    H152458   9.431   0.264   5.744
17527TIP3    H252459   9.499   0.287   5.611
17528TIP3   OH252460   9.550   0.744   4.166
17528TIP3    H152461   9.583   0.827   4.200
17528TIP3    H252462   9.469   0.728   4.214
17529TIP3   OH252463   1.036   0.937   4.355
17529TIP3    H152464   1.043   0.843   4.339
17529TIP3    H252465   1.025   0.975   4.267
17530TIP3   OH252466   0.310   0.559   4.373
17530TIP3    H152467   0.390   0.553   4.321
17530TIP3    H252468   0.242   0.524   4.315
17531TIP3   OH252469   1.071   0.667   3.960
17531TIP3    H152470   1.126   0.663   4.039
17531TIP3    H252471   1.130   0.645   3.888
17532TIP3   OH252472   9.757   0.755   4.474
17532TIP3    H152473   9.845   0.741   4.510
17532TIP3    H252474   9.756   0.703   4.394
17533TIP3   OH252475   0.451   0.930   4.327
17533TIP3    H152476   0.545   0.944   4.314
17533TIP3    H252477   0.425   0.876   4.252
17534TIP3   OH252478   0.336   0.556   4.787
17534TIP3    H152479   0.287   0.601   4.719
17534TIP3    H252480   0.289   0.575   4.868
17535TIP3   OH252481   1.262   0.667   4.155
17535TIP3    H152482   1.204   0.668   4.231
17535TIP3    H252483   1.321   0.741   4.168
17536TIP3   OH252484   0.203   0.681   4.583
17536TIP3    H152485   0.250   0.764   4.594
17536TIP3    H252486   0.245   0.639   4.508
17537TIP3   OH252487   1.384   0.570   4.412
17537TIP3    H152488   1.358   0.662   4.412
17537TIP3    H252489   1.438   0.560   4.334
17538TIP3   OH252490   0.673   0.293   4.473
17538TIP3    H152491   0.637   0.268   4.388
17538TIP3    H252492   0.599   0.332   4.520
17539TIP3   OH252493   0.576   0.784   3.481
17539TIP3    H152494   0.614   0.870   3.501
17539TIP3    H252495   0.641   0.742   3.424
17540TIP3   OH252496   1.328   0.242   3.593
17540TIP3    H152497   1.252   0.256   3.649
17540TIP3    H252498   1.335   0.323   3.542
17541TIP3   OH252499   0.443   0.364   4.613
17541TIP3    H152500   0.359   0.342   4.574
17541TIP3    H252501   0.429   0.448   4.657
17542TIP3   OH252502   0.965   0.338   4.855
17542TIP3    H152503   0.996   0.429   4.850
17542TIP3    H252504   0.876   0.345   4.890
17543TIP3   OH252505   1.264   0.839   4.826
17543TIP3    H152506   1.250   0.880   4.912
17543TIP3    H252507   1.205   0.886   4.767
17544TIP3   OH252508   0.578   0.414   3.572
17544TIP3    H152509   0.548   0.431   3.661
17544TIP3    H252510   0.552   0.323   3.555
17545TIP3   OH252511   0.336   0.920   4.574
17545TIP3    H152512   0.263   0.976   4.598
17545TIP3    H252513   0.357   0.945   4.484
17546TIP3   OH252514   0.775   0.872   3.851
17546TIP3    H152515   0.686   0.846   3.829
17546TIP3    H252516   0.829   0.840   3.779
17547TIP3   OH252517   0.965   1.197   5.144
17547TIP3    H152518   0.966   1.112   5.189
17547TIP3    H252519   1.053   1.204   5.106
17548TIP3   OH252520   0.912   0.880   4.086
17548TIP3    H152521   0.854   0.891   4.011
17548TIP3    H252522   0.967   0.804   4.064
17549TIP3   OH252523   0.168   0.891   4.837
17549TIP3    H152524   0.177   0.964   4.898
17549TIP3    H252525   0.196   0.814   4.887
17550TIP3   OH252526   0.251   0.371   3.548
17550TIP3    H152527   0.246   0.385   3.643
17550TIP3    H252528   0.180   0.424   3.512
17551TIP3   OH252529   9.631   0.447   4.452
17551TIP3    H152530   9.690   0.470   4.524
17551TIP3    H252531   9.669   0.489   4.375
17552TIP3   OH252532   9.536   0.397   3.944
17552TIP3    H152533   9.580   0.441   3.871
17552TIP3    H252534   9.476   0.463   3.978
17553TIP3   OH252535   0.967   1.163   4.495
17553TIP3    H152536   0.971   1.091   4.432
17553TIP3    H252537   0.891   1.144   4.549
17554TIP3   OH252538   9.769   0.587   4.256
17554TIP3    H152539   9.711   0.625   4.191
17554TIP3    H252540   9.833   0.537   4.206
17555TIP3   OH252541   1.068   0.670   4.350
17555TIP3    H152542   1.102   0.662   4.440
17555TIP3    H252543   0.997   0.606   4.346
17556TIP3   OH252544   0.081   0.644   3.663
17556TIP3    H152545   0.061   0.596   3.582
17556TIP3    H252546   0.160   0.694   3.643
17557TIP3   OH252547   0.732   0.943   4.309
17557TIP3    H152548   0.781   0.921   4.230
17557TIP3    H252549   0.774   0.892   4.379
17558TIP3   OH252550   0.175   0.427   4.162
17558TIP3    H152551   0.169   0.337   4.195
17558TIP3    H252552   0.267   0.437   4.137
17559TIP3   OH252553   0.583   0.748   4.577
17559TIP3    H152554   0.517   0.802   4.533
17559TIP3    H252555   0.667   0.781   4.545
17560TIP3   OH252556   0.831   0.516   3.612
17560TIP3    H152557   0.739   0.496   3.596
17560TIP3    H252558   0.837   0.611   3.601
17561TIP3   OH252559   0.928   0.784   3.631
17561TIP3    H152560   1.009   0.735   3.644
17561TIP3    H252561   0.955   0.864   3.586
17562TIP3   OH252562   0.567   1.202   5.119
17562TIP3    H152563   0.513   1.223   5.043
17562TIP3    H252564   0.622   1.130   5.090
17563TIP3   OH252565   0.194   0.628   5.005
17563TIP3    H152566   0.100   0.642   5.017
17563TIP3    H252567   0.221   0.577   5.082
17564TIP3   OH252568   1.135   0.655   4.613
17564TIP3    H152569   1.201   0.724   4.627
17564TIP3    H252570   1.112   0.626   4.702
17565TIP3   OH252571   0.920   0.451   3.868
17565TIP3    H152572   0.888   0.477   3.781
17565TIP3    H252573   0.958   0.531   3.903
17566TIP3   OH252574   0.791   0.888   4.813
17566TIP3    H152575   0.867   0.945   4.820
17566TIP3    H252576   0.792   0.858   4.721
17567TIP3   OH252577   0.740   0.324   4.035
17567TIP3    H152578   0.678   0.389   4.067
17567TIP3    H252579   0.802   0.374   3.982
17568TIP3   OH252580   0.233   0.384   3.822
17568TIP3    H152581   0.201   0.457   3.874
17568TIP3    H252582   0.328   0.384   3.836
17569TIP3   OH252583   1.486   0.791   4.689
17569TIP3    H152584   1.408   0.784   4.743
17569TIP3    H252585   1.478   0.876   4.646
17570TIP3   OH252586   9.625   0.559   3.739
17570TIP3    H152587   9.713   0.595   3.735
17570TIP3    H252588   9.586   0.581   3.655
17571TIP3   OH252589   0.181   0.274   4.578
17571TIP3    H152590   0.160   0.249   4.488
17571TIP3    H252591   0.180   0.193   4.627
17572TIP3   OH252592   0.190   1.083   5.229
17572TIP3    H152593   0.279   1.057   5.250
17572TIP3    H252594   0.192   1.179   5.226
17573TIP3   OH252595   0.527   1.002   4.749
17573TIP3    H152596   0.478   1.081   4.773
17573TIP3    H252597   0.469   0.955   4.689
17574TIP3   OH252598   0.299   0.743   3.517
17574TIP3    H152599   0.271   0.751   3.426
17574TIP3    H252600   0.394   0.755   3.515
17575TIP3   OH252601   0.605   0.708   5.050
17575TIP3    H152602   0.610   0.674   4.961
17575TIP3    H252603   0.542   0.780   5.046
17576TIP3   OH252604   0.601   0.596   4.798
17576TIP3    H152605   0.606   0.651   4.720
17576TIP3    H252606   0.508   0.577   4.808
17577TIP3   OH252607   0.443   0.946   5.273
17577TIP3    H152608   0.387   0.871   5.296
17577TIP3    H252609   0.451   0.940   5.178
17578TIP3   OH252610   0.696   0.362   4.917
17578TIP3    H152611   0.667   0.443   4.874
17578TIP3    H252612   0.630   0.297   4.893
17579TIP3   OH252613   0.843   0.754   5.170
17579TIP3    H152614   0.806   0.790   5.250
17579TIP3    H252615   0.768   0.719   5.123
17580TIP3   OH252616   1.010   0.773   4.965
17580TIP3    H152617   0.960   0.759   5.045
17580TIP3    H252618   1.080   0.708   4.968
17581TIP3   OH252619   1.434   0.856   5.248
17581TIP3    H152620   1.433   0.770   5.291
17581TIP3    H252621   1.389   0.914   5.309
17582TIP3   OH252622   0.301   0.719   5.336
17582TIP3    H152623   0.302   0.637   5.288
17582TIP3    H252624   0.337   0.698   5.422
17583TIP3   OH252625   0.818   0.414   5.165
17583TIP3    H152626   0.873   0.336   5.164
17583TIP3    H252627   0.763   0.406   5.087
17584TIP3   OH252628   0.781   0.566   5.393
17584TIP3    H152629   0.812   0.527   5.311
17584TIP3    H252630   0.750   0.653   5.369
17585TIP3   OH252631   1.079   0.558   3.319
17585TIP3    H152632   1.139   0.531   3.248
17585TIP3    H252633   1.017   0.485   3.326
17586TIP3   OH252634   0.040   0.787   5.261
17586TIP3    H152635   0.133   0.800   5.278
17586TIP3    H252636   0.018   0.707   5.309
17587TIP3   OH252637   1.262   0.541   3.809
17587TIP3    H152638   1.341   0.534   3.862
17587TIP3    H252639   1.234   0.450   3.797
17588TIP3   OH252640   0.018   0.487   4.653
17588TIP3    H152641   0.074   0.412   4.633
17588TIP3    H252642   0.073   0.563   4.636
17589TIP3   OH252643   9.616   0.818   4.698
17589TIP3    H152644   9.648   0.788   4.613
17589TIP3    H252645   9.678   0.886   4.725
17590TIP3   OH252646   9.600   0.222   4.147
17590TIP3    H152647   9.520   0.226   4.200
17590TIP3    H252648   9.591   0.295   4.085
17591TIP3   OH252649   9.816   0.295   4.977
17591TIP3    H152650   9.777   0.303   5.064
17591TIP3    H252651   9.765   0.357   4.923
17592TIP3   OH252652   1.732   0.631   4.781
17592TIP3    H152653   1.708   0.658   4.692
17592TIP3    H252654   1.767   0.543   4.770
17593TIP3   OH252655   0.881   0.476   4.383
17593TIP3    H152656   0.804   0.423   4.402
17593TIP3    H252657   0.928   0.427   4.315
17594TIP3   OH252658   1.343   0.359   4.176
17594TIP3    H152659   1.392   0.420   4.120
17594TIP3    H252660   1.260   0.403   4.192
17595TIP3   OH252661   1.487   0.493   3.971
17595TIP3    H152662   1.550   0.428   3.939
17595TIP3    H252663   1.536   0.542   4.037
17596TIP3   OH252664   0.125   0.176   4.325
17596TIP3    H152665   0.031   0.156   4.326
17596TIP3    H252666   0.167   0.090   4.317
17597TIP3   OH252667   9.742   0.056   3.977
17597TIP3    H152668   9.765   0.112   3.903
17597TIP3    H252669   9.696   0.115   4.038
17598TIP3   OH252670   0.571   0.203   4.231
17598TIP3    H152671   0.643   0.212   4.169
17598TIP3    H252672   0.515   0.279   4.215
17599TIP3   OH252673   1.054   0.365   4.195
17599TIP3    H152674   1.039   0.338   4.104
17599TIP3    H252675   1.057   0.282   4.244
17600TIP3   OH252676   1.131   0.295   3.776
17600TIP3    H152677   1.054   0.346   3.801
17600TIP3    H252678   1.114   0.208   3.811
17601TIP3   OH252679   0.033   0.202   3.752
17601TIP3    H152680   0.079   0.147   3.689
17601TIP3    H252681   0.099   0.264   3.783
17602TIP3   OH252682   0.512   0.402   3.837
17602TIP3    H152683   0.562   0.325   3.863
17602TIP3    H252684   0.503   0.453   3.917
17603TIP3   OH252685   0.302   0.456   5.216
17603TIP3    H152686   0.268   0.390   5.277
17603TIP3    H252687   0.395   0.464   5.237
17604TIP3   OH252688   0.537   0.447   5.351
17604TIP3    H152689   0.629   0.470   5.343
17604TIP3    H252690   0.535   0.374   5.413
17605TIP3   OH252691   1.513   0.481   5.190
17605TIP3    H152692   1.540   0.497   5.281
17605TIP3    H252693   1.584   0.518   5.137
17606TIP3   OH252694   6.111   5.721   0.889
17606TIP3    H152695   6.017   5.709   0.875
17606TIP3    H252696   6.149   5.715   0.801
17607TIP3   OH252697   5.978   6.230   0.839
17607TIP3    H152698   6.018   6.212   0.754
17607TIP3    H252699   5.957   6.144   0.875
17608TIP3   OH252700   5.680   5.770   0.891
17608TIP3    H152701   5.760   5.762   0.838
17608TIP3    H252702   5.682   5.860   0.924
17609TIP3   OH252703   7.407   5.677   1.084
17609TIP3    H152704   7.362   5.761   1.081
17609TIP3    H252705   7.350   5.617   1.035
17610TIP3   OH252706   7.814   6.052   1.170
17610TIP3    H152707   7.751   5.980   1.168
17610TIP3    H252708   7.764   6.129   1.141
17611TIP3   OH252709   7.232   6.389   1.179
17611TIP3    H152710   7.294   6.316   1.173
17611TIP3    H252711   7.228   6.409   1.272
17612TIP3   OH252712   7.342   5.946   1.030
17612TIP3    H152713   7.408   6.002   1.070
17612TIP3    H252714   7.265   6.002   1.021
17613TIP3   OH252715   7.629   6.361   1.029
17613TIP3    H152716   7.630   6.266   1.025
17613TIP3    H252717   7.628   6.390   0.938
17614TIP3   OH252718   7.606   6.106   0.957
17614TIP3    H152719   7.619   6.093   0.863
17614TIP3    H252720   7.610   6.018   0.994
17615TIP3   OH252721   7.295   5.514   0.893
17615TIP3    H152722   7.202   5.535   0.897
17615TIP3    H252723   7.321   5.533   0.804
17616TIP3   OH252724   7.322   5.317   0.529
17616TIP3    H152725   7.331   5.343   0.621
17616TIP3    H252726   7.314   5.222   0.533
17617TIP3   OH252727   7.611   5.678   0.898
17617TIP3    H152728   7.540   5.645   0.952
17617TIP3    H252729   7.684   5.618   0.915
17618TIP3   OH252730   7.505   5.493   0.694
17618TIP3    H152731   7.601   5.495   0.701
17618TIP3    H252732   7.487   5.532   0.609
17619TIP3   OH252733   7.157   6.138   0.988
17619TIP3    H152734   7.219   6.210   0.973
17619TIP3    H252735   7.088   6.153   0.923
17620TIP3   OH252736   7.843   6.086   0.226
17620TIP3    H152737   7.842   6.181   0.211
17620TIP3    H252738   7.932   6.060   0.206
17621TIP3   OH252739   7.143   6.326   0.709
17621TIP3    H152740   7.095   6.380   0.647
17621TIP3    H252741   7.151   6.380   0.788
17622TIP3   OH252742   7.357   6.340   0.355
17622TIP3    H152743   7.400   6.260   0.325
17622TIP3    H252744   7.376   6.344   0.449
17623TIP3   OH252745   7.404   6.373   0.624
17623TIP3    H152746   7.327   6.337   0.667
17623TIP3    H252747   7.470   6.378   0.693
17624TIP3   OH252748   7.567   5.574   0.428
17624TIP3    H152749   7.483   5.562   0.384
17624TIP3    H252750   7.629   5.595   0.358
17625TIP3   OH252751   7.418   5.156   1.069
17625TIP3    H152752   7.422   5.205   1.151
17625TIP3    H252753   7.466   5.210   1.006
17626TIP3   OH252754   6.833   5.050   0.840
17626TIP3    H152755   6.792   4.964   0.827
17626TIP3    H252756   6.927   5.033   0.830
17627TIP3   OH252757   7.038   5.579   0.936
17627TIP3    H152758   6.970   5.530   0.889
17627TIP3    H252759   7.011   5.671   0.927
17628TIP3   OH252760   7.602   5.179   0.743
17628TIP3    H152761   7.648   5.173   0.826
17628TIP3    H252762   7.513   5.206   0.766
17629TIP3   OH252763   7.318   5.872   0.528
17629TIP3    H152764   7.290   5.962   0.514
17629TIP3    H252765   7.340   5.868   0.621
17630TIP3   OH252766   8.092   5.241   0.532
17630TIP3    H152767   8.044   5.222   0.452
17630TIP3    H252768   8.083   5.336   0.543
17631TIP3   OH252769   7.816   6.108   0.499
17631TIP3    H152770   7.856   6.029   0.533
17631TIP3    H252771   7.813   6.095   0.404
17632TIP3   OH252772   6.714   6.216   0.988
17632TIP3    H152773   6.662   6.221   1.068
17632TIP3    H252774   6.786   6.278   1.002
17633TIP3   OH252775   7.562   5.892   0.404
17633TIP3    H152776   7.594   5.858   0.488
17633TIP3    H252777   7.473   5.859   0.396
17634TIP3   OH252778   7.845   6.359   0.231
17634TIP3    H152779   7.892   6.433   0.192
17634TIP3    H252780   7.761   6.396   0.258
17635TIP3   OH252781   7.661   5.806   0.649
17635TIP3    H152782   7.658   5.764   0.735
17635TIP3    H252783   7.754   5.820   0.633
17636TIP3   OH252784   6.821   5.849   0.388
17636TIP3    H152785   6.828   5.761   0.349
17636TIP3    H252786   6.798   5.832   0.479
17637TIP3   OH252787   6.813   5.838   0.664
17637TIP3    H152788   6.869   5.760   0.670
17637TIP3    H252789   6.843   5.895   0.734
17638TIP3   OH252790   7.099   5.954   0.726
17638TIP3    H152791   7.051   6.032   0.754
17638TIP3    H252792   7.101   5.960   0.631
17639TIP3   OH252793   6.716   6.149   0.618
17639TIP3    H152794   6.745   6.225   0.567
17639TIP3    H252795   6.691   6.186   0.703
17640TIP3   OH252796   6.563   5.762   0.755
17640TIP3    H152797   6.636   5.821   0.734
17640TIP3    H252798   6.600   5.674   0.742
17641TIP3   OH252799   7.711   6.574   1.169
17641TIP3    H152800   7.674   6.496   1.127
17641TIP3    H252801   7.790   6.541   1.213
17642TIP3   OH252802   7.046   6.119   0.254
17642TIP3    H152803   7.032   6.089   0.344
17642TIP3    H252804   7.123   6.071   0.224
17643TIP3   OH252805   7.484   6.116   0.258
17643TIP3    H152806   7.519   6.049   0.316
17643TIP3    H252807   7.531   6.104   0.176
17644TIP3   OH252808   6.683   5.616   0.507
17644TIP3    H152809   6.699   5.586   0.596
17644TIP3    H252810   6.746   5.567   0.453
17645TIP3   OH252811   7.337   5.757   0.274
17645TIP3    H152812   7.281   5.769   0.351
17645TIP3    H252813   7.333   5.663   0.256
17646TIP3   OH252814   6.878   5.365   0.849
17646TIP3    H152815   6.882   5.293   0.913
17646TIP3    H252816   6.939   5.339   0.780
17647TIP3   OH252817   7.044   5.260   0.659
17647TIP3    H152818   6.983   5.212   0.603
17647TIP3    H252819   7.091   5.192   0.707
17648TIP3   OH252820   7.777   5.599   0.241
17648TIP3    H152821   7.772   5.549   0.160
17648TIP3    H252822   7.758   5.689   0.216
17649TIP3   OH252823   6.819   6.367   0.486
17649TIP3    H152824   6.912   6.359   0.464
17649TIP3    H252825   6.780   6.412   0.410
17650TIP3   OH252826   6.378   5.579   0.847
17650TIP3    H152827   6.433   5.655   0.831
17650TIP3    H252828   6.317   5.578   0.772
17651TIP3   OH252829   7.926   5.864   0.588
17651TIP3    H152830   8.009   5.900   0.558
17651TIP3    H252831   7.948   5.815   0.668
17652TIP3   OH252832   8.193   5.773   0.713
17652TIP3    H152833   8.118   5.720   0.740
17652TIP3    H252834   8.183   5.855   0.761
17653TIP3   OH252835   8.089   5.940   1.174
17653TIP3    H152836   8.180   5.928   1.200
17653TIP3    H252837   8.080   6.035   1.162
17654TIP3   OH252838   7.989   5.649   0.415
17654TIP3    H152839   7.924   5.636   0.346
17654TIP3    H252840   7.961   5.729   0.460
17655TIP3   OH252841   7.976   5.181   0.295
17655TIP3    H152842   7.912   5.249   0.317
17655TIP3    H252843   7.929   5.099   0.306
17656TIP3   OH252844   7.800   5.487   0.956
17656TIP3    H152845   7.862   5.428   0.914
17656TIP3    H252846   7.840   5.505   1.042
17657TIP3   OH252847   7.895   5.075   0.777
17657TIP3    H152848   7.838   5.051   0.850
17657TIP3    H252849   7.920   5.165   0.793
17658TIP3   OH252850   7.633   6.438   0.769
17658TIP3    H152851   7.680   6.409   0.691
17658TIP3    H252852   7.684   6.512   0.802
17659TIP3   OH252853   6.275   6.140   0.975
17659TIP3    H152854   6.254   6.089   1.053
17659TIP3    H252855   6.361   6.108   0.948
17660TIP3   OH252856   7.079   6.349   0.402
17660TIP3    H152857   7.172   6.366   0.389
17660TIP3    H252858   7.057   6.286   0.334
17661TIP3   OH252859   7.771   6.376   0.544
17661TIP3    H152860   7.792   6.285   0.523
17661TIP3    H252861   7.727   6.410   0.466
17662TIP3   OH252862   6.326   6.176   0.609
17662TIP3    H152863   6.356   6.216   0.691
17662TIP3    H252864   6.400   6.124   0.579
17663TIP3   OH252865   9.261   5.924   0.543
17663TIP3    H152866   9.237   6.011   0.510
17663TIP3    H252867   9.198   5.865   0.501
17664TIP3   OH252868   9.333   5.890   0.824
17664TIP3    H152869   9.343   5.799   0.851
17664TIP3    H252870   9.305   5.885   0.733
17665TIP3   OH252871   8.579   5.692   1.223
17665TIP3    H152872   8.585   5.746   1.302
17665TIP3    H252873   8.660   5.711   1.175
17666TIP3   OH252874   9.515   6.238   0.621
17666TIP3    H152875   9.537   6.168   0.682
17666TIP3    H252876   9.551   6.317   0.661
17667TIP3   OH252877   8.549   6.221   0.936
17667TIP3    H152878   8.490   6.194   0.866
17667TIP3    H252879   8.628   6.170   0.922
17668TIP3   OH252880   8.258   5.286   0.755
17668TIP3    H152881   8.250   5.329   0.670
17668TIP3    H252882   8.246   5.193   0.735
17669TIP3   OH252883   8.308   5.740   0.995
17669TIP3    H152884   8.277   5.652   0.970
17669TIP3    H252885   8.359   5.769   0.919
17670TIP3   OH252886   9.163   6.677   0.617
17670TIP3    H152887   9.207   6.607   0.568
17670TIP3    H252888   9.186   6.660   0.709
17671TIP3   OH252889   9.182   6.221   0.852
17671TIP3    H152890   9.205   6.232   0.760
17671TIP3    H252891   9.266   6.229   0.898
17672TIP3   OH252892   9.481   5.663   0.965
17672TIP3    H152893   9.556   5.618   1.003
17672TIP3    H252894   9.464   5.618   0.882
17673TIP3   OH252895   8.427   5.470   1.141
17673TIP3    H152896   8.514   5.491   1.176
17673TIP3    H252897   8.442   5.398   1.080
17674TIP3   OH252898   8.934   5.664   0.841
17674TIP3    H152899   9.025   5.639   0.832
17674TIP3    H252900   8.892   5.634   0.760
17675TIP3   OH252901   0.360   5.684   1.203
17675TIP3    H152902   0.280   5.722   1.167
17675TIP3    H252903   0.332   5.599   1.238
17676TIP3   OH252904   9.170   6.137   0.382
17676TIP3    H152905   9.132   6.110   0.299
17676TIP3    H252906   9.123   6.218   0.405
17677TIP3   OH252907   8.874   5.996   1.162
17677TIP3    H152908   8.838   6.030   1.244
17677TIP3    H252909   8.905   6.073   1.115
17678TIP3   OH252910   8.709   5.421   1.202
17678TIP3    H152911   8.770   5.479   1.248
17678TIP3    H252912   8.734   5.428   1.110
17679TIP3   OH252913   8.860   6.305   1.278
17679TIP3    H152914   8.897   6.323   1.192
17679TIP3    H252915   8.771   6.340   1.274
17680TIP3   OH252916   8.141   5.975   0.470
17680TIP3    H152917   8.127   5.990   0.376
17680TIP3    H252918   8.174   6.058   0.503
17681TIP3   OH252919   9.572   6.483   0.749
17681TIP3    H152920   9.484   6.474   0.785
17681TIP3    H252921   9.570   6.567   0.703
17682TIP3   OH252922   9.291   6.522   0.425
17682TIP3    H152923   9.342   6.442   0.409
17682TIP3    H252924   9.345   6.592   0.390
17683TIP3   OH252925   9.410   6.283   0.372
17683TIP3    H152926   9.339   6.219   0.368
17683TIP3    H252927   9.459   6.260   0.451
17684TIP3   OH252928   0.016   6.385   1.094
17684TIP3    H152929   0.000   6.311   1.036
17684TIP3    H252930  -0.006   6.462   1.040
17685TIP3   OH252931   9.102   5.770   0.375
17685TIP3    H152932   9.018   5.812   0.360
17685TIP3    H252933   9.144   5.769   0.288
17686TIP3   OH252934   9.060   5.591   0.058
17686TIP3    H152935   9.127   5.634   0.111
17686TIP3    H252936   9.107   5.522   0.011
17687TIP3   OH252937   0.177   6.023   0.950
17687TIP3    H152938   0.096   6.074   0.953
17687TIP3    H252939   0.210   6.036   0.861
17688TIP3   OH252940   9.444   5.875   0.327
17688TIP3    H152941   9.395   5.901   0.404
17688TIP3    H252942   9.531   5.854   0.360
17689TIP3   OH252943   9.702   5.892   1.281
17689TIP3    H152944   9.698   5.977   1.324
17689TIP3    H252945   9.618   5.883   1.236
17690TIP3   OH252946   8.714   5.796   0.661
17690TIP3    H152947   8.692   5.729   0.595
17690TIP3    H252948   8.715   5.878   0.611
17691TIP3   OH252949   8.804   6.312   0.690
17691TIP3    H152950   8.787   6.270   0.605
17691TIP3    H252951   8.814   6.239   0.751
17692TIP3   OH252952   8.786   5.762   1.058
17692TIP3    H152953   8.833   5.741   0.977
17692TIP3    H252954   8.830   5.841   1.091
17693TIP3   OH252955   9.341   6.463   0.891
17693TIP3    H152956   9.339   6.552   0.925
17693TIP3    H252957   9.371   6.410   0.964
17694TIP3   OH252958   9.014   6.372   1.492
17694TIP3    H152959   8.959   6.338   1.563
17694TIP3    H252960   8.967   6.350   1.412
17695TIP3   OH252961   9.288   5.724   0.157
17695TIP3    H152962   9.342   5.786   0.206
17695TIP3    H252963   9.318   5.732   0.067
17696TIP3   OH252964   9.052   6.385   0.415
17696TIP3    H152965   9.128   6.441   0.427
17696TIP3    H252966   8.986   6.441   0.374
17697TIP3   OH252967   8.700   6.448   1.516
17697TIP3    H152968   8.714   6.507   1.442
17697TIP3    H252969   8.606   6.447   1.528
17698TIP3   OH252970   8.560   5.634   0.498
17698TIP3    H152971   8.477   5.676   0.477
17698TIP3    H252972   8.536   5.547   0.531
17699TIP3   OH252973   6.352   1.711   7.751
17699TIP3    H152974   6.349   1.806   7.742
17699TIP3    H252975   6.440   1.687   7.722
17700TIP3   OH252976   8.124   6.214   1.135
17700TIP3    H152977   8.193   6.175   1.081
17700TIP3    H252978   8.172   6.256   1.207
17701TIP3   OH252979   0.241   6.753   1.163
17701TIP3    H152980   0.248   6.658   1.174
17701TIP3    H252981   0.162   6.777   1.211
17702TIP3   OH252982   9.243   6.447   1.339
17702TIP3    H152983   9.238   6.539   1.366
17702TIP3    H252984   9.160   6.409   1.369
17703TIP3   OH252985   8.928   6.617   0.244
17703TIP3    H152986   8.880   6.594   0.164
17703TIP3    H252987   8.892   6.701   0.270
17704TIP3   OH252988   8.322   6.485   0.564
17704TIP3    H152989   8.396   6.456   0.617
17704TIP3    H252990   8.284   6.404   0.530
17705TIP3   OH252991   5.859   1.925   7.874
17705TIP3    H152992   5.910   1.852   7.839
17705TIP3    H252993   5.894   1.941   7.961
17706TIP3   OH252994   9.181   6.587   0.141
17706TIP3    H152995   9.096   6.592   0.185
17706TIP3    H252996   9.239   6.547   0.206
17707TIP3   OH252997   0.150   5.868   1.399
17707TIP3    H152998   0.059   5.857   1.371
17707TIP3    H252999   0.161   5.803   1.468
17708TIP3   OH253000   9.619   5.697   1.467
17708TIP3    H153001   9.610   5.742   1.551
17708TIP3    H253002   9.658   5.762   1.409
17709TIP3   OH253003   6.103   1.075   7.893
17709TIP3    H153004   6.054   1.084   7.811
17709TIP3    H253005   6.178   1.134   7.882
17710TIP3   OH253006   8.943   5.572   1.222
17710TIP3    H153007   8.966   5.621   1.301
17710TIP3    H253008   8.901   5.636   1.165
17711TIP3   OH253009   8.808   5.507   0.654
17711TIP3    H153010   8.714   5.526   0.662
17711TIP3    H253011   8.812   5.429   0.600
17712TIP3   OH253012   9.252   5.575   0.505
17712TIP3    H153013   9.195   5.642   0.469
17712TIP3    H253014   9.299   5.540   0.430
17713TIP3   OH253015   9.441   5.571   0.704
17713TIP3    H153016   9.378   5.587   0.633
17713TIP3    H253017   9.492   5.496   0.674
17714TIP3   OH253018   9.452   5.834   1.186
17714TIP3    H153019   9.450   5.799   1.097
17714TIP3    H253020   9.424   5.761   1.241
17715TIP3   OH253021   8.536   5.415   0.680
17715TIP3    H153022   8.535   5.444   0.771
17715TIP3    H253023   8.579   5.329   0.682
17716TIP3   OH253024   8.791   5.281   0.503
17716TIP3    H153025   8.884   5.291   0.480
17716TIP3    H253026   8.744   5.312   0.426
17717TIP3   OH253027   8.663   5.387   0.288
17717TIP3    H153028   8.591   5.352   0.235
17717TIP3    H253029   8.708   5.448   0.230
17718TIP3   OH253030   9.768   7.084   1.250
17718TIP3    H153031   9.756   7.103   1.157
17718TIP3    H253032   9.841   7.140   1.276
17719TIP3   OH253033   9.195   5.586   0.853
17719TIP3    H153034   9.268   5.564   0.795
17719TIP3    H253035   9.161   5.501   0.882
17720TIP3   OH253036   9.199   5.452   1.249
17720TIP3    H153037   9.113   5.493   1.245
17720TIP3    H253038   9.250   5.509   1.307
17721TIP3   OH253039   8.861   5.911   0.318
17721TIP3    H153040   8.789   5.857   0.286
17721TIP3    H253041   8.820   5.969   0.382
17722TIP3   OH253042   9.759   6.186   0.919
17722TIP3    H153043   9.800   6.231   0.845
17722TIP3    H253044   9.686   6.138   0.881
17723TIP3   OH253045   9.364   6.229   1.466
17723TIP3    H153046   9.326   6.161   1.410
17723TIP3    H253047   9.338   6.311   1.424
17724TIP3   OH253048   9.402   5.502   0.290
17724TIP3    H153049   9.497   5.511   0.299
17724TIP3    H253050   9.376   5.573   0.232
17725TIP3   OH253051   8.552   5.929   1.013
17725TIP3    H153052   8.534   5.910   0.921
17725TIP3    H253053   8.627   5.874   1.034
17726TIP3   OH253054   9.019   6.068   0.150
17726TIP3    H153055   8.973   6.152   0.150
17726TIP3    H253056   8.964   6.011   0.204
17727TIP3   OH253057   9.457   6.531   1.192
17727TIP3    H153058   9.372   6.498   1.219
17727TIP3    H253059   9.496   6.566   1.272
17728TIP3   OH253060   9.815   5.568   0.099
17728TIP3    H153061   9.776   5.516   0.028
17728TIP3    H253062   9.806   5.659   0.069
17729TIP3   OH253063   0.258   6.474   1.173
17729TIP3    H153064   0.164   6.459   1.168
17729TIP3    H253065   0.294   6.434   1.095
17730TIP3   OH253066   9.544   6.383   0.022
17730TIP3    H153067   9.557   6.313   0.086
17730TIP3    H253068   9.575   6.346  -0.061
17731TIP3   OH253069   9.568   6.032   0.799
17731TIP3    H153070   9.480   6.002   0.825
17731TIP3    H253071   9.609   5.955   0.760
17732TIP3   OH253072   8.227   5.540   0.320
17732TIP3    H153073   8.289   5.610   0.339
17732TIP3    H253074   8.142   5.574   0.349
17733TIP3   OH253075   8.943   6.636   0.974
17733TIP3    H153076   8.988   6.720   0.965
17733TIP3    H253077   9.007   6.578   1.014
17734TIP3   OH253078   8.549   6.547   0.415
17734TIP3    H153079   8.467   6.543   0.463
17734TIP3    H253080   8.588   6.630   0.442
17735TIP3   OH253081   9.381   6.243   1.057
17735TIP3    H153082   9.314   6.216   1.121
17735TIP3    H253083   9.464   6.220   1.098
17736TIP3   OH253084   6.041   1.509   7.947
17736TIP3    H153085   6.111   1.485   8.008
17736TIP3    H253086   5.960   1.493   7.996
17737TIP3   OH253087   9.576   6.771   1.081
17737TIP3    H153088   9.506   6.706   1.075
17737TIP3    H253089   9.559   6.830   1.007
17738TIP3   OH253090   6.364   1.989   7.742
17738TIP3    H153091   6.413   2.067   7.714
17738TIP3    H253092   6.281   2.024   7.775
17739TIP3   OH253093   9.511   6.041   0.103
17739TIP3    H153094   9.498   5.998   0.188
17739TIP3    H253095   9.605   6.060   0.100
17740TIP3   OH253096   8.293   6.378   1.267
17740TIP3    H153097   8.382   6.350   1.287
17740TIP3    H253098   8.301   6.472   1.247
17741TIP3   OH253099   5.382   1.486   7.958
17741TIP3    H153100   5.398   1.396   7.932
17741TIP3    H253101   5.372   1.482   8.053
17742TIP3   OH253102   8.589   6.123   0.224
17742TIP3    H153103   8.615   6.101   0.314
17742TIP3    H253104   8.596   6.219   0.221
17743TIP3   OH253105   8.339   5.779   0.418
17743TIP3    H153106   8.269   5.826   0.464
17743TIP3    H253107   8.372   5.842   0.354
17744TIP3   OH253108   8.876   6.298   0.150
17744TIP3    H153109   8.789   6.316   0.186
17744TIP3    H253110   8.895   6.375   0.097
17745TIP3   OH253111   9.053   5.380   0.537
17745TIP3    H153112   9.126   5.440   0.522
17745TIP3    H253113   9.016   5.406   0.621
17746TIP3   OH253114   9.372   5.643   1.370
17746TIP3    H153115   9.323   5.683   1.442
17746TIP3    H253116   9.462   5.638   1.403
17747TIP3   OH253117   8.620   6.393   0.207
17747TIP3    H153118   8.602   6.457   0.138
17747TIP3    H253119   8.600   6.438   0.289
17748TIP3   OH253120   9.643   5.778   0.708
17748TIP3    H153121   9.570   5.719   0.721
17748TIP3    H253122   9.712   5.744   0.765
17749TIP3   OH253123   8.360   5.977   0.212
17749TIP3    H153124   8.430   6.041   0.225
17749TIP3    H253125   8.394   5.917   0.146
17750TIP3   OH253126   8.260   5.264   0.255
17750TIP3    H153127   8.259   5.348   0.300
17750TIP3    H253128   8.183   5.218   0.289
17751TIP3   OH253129   9.594   6.745   0.663
17751TIP3    H153130   9.554   6.801   0.596
17751TIP3    H253131   9.688   6.756   0.649
17752TIP3   OH253132   8.198   6.227   0.564
17752TIP3    H153133   8.151   6.268   0.637
17752TIP3    H253134   8.160   6.267   0.486
17753TIP3   OH253135   5.544   1.671   7.835
17753TIP3    H153136   5.492   1.609   7.886
17753TIP3    H253137   5.620   1.620   7.806
17754TIP3   OH253138   9.560   6.580   1.448
17754TIP3    H153139   9.610   6.499   1.459
17754TIP3    H253140   9.620   6.649   1.477
17755TIP3   OH253141   5.992   1.713   7.763
17755TIP3    H153142   6.025   1.651   7.829
17755TIP3    H253143   6.057   1.709   7.693
17756TIP3   OH253144   8.475   5.791   0.051
17756TIP3    H153145   8.527   5.764   0.126
17756TIP3    H253146   8.540   5.813  -0.017
17757TIP3   OH253147   5.726   1.407   7.877
17757TIP3    H153148   5.731   1.417   7.972
17757TIP3    H253149   5.726   1.313   7.862
17758TIP3   OH253150   9.598   6.295   1.235
17758TIP3    H153151   9.683   6.317   1.195
17758TIP3    H253152   9.543   6.371   1.216
17759TIP3   OH253153   8.653   5.731   0.255
17759TIP3    H153154   8.631   5.695   0.341
17759TIP3    H253155   8.704   5.661   0.213
17760TIP3   OH253156   8.792   5.546   0.107
17760TIP3    H153157   8.762   5.561   0.017
17760TIP3    H253158   8.887   5.560   0.102
17761TIP3   OH253159   6.314   1.215   7.790
17761TIP3    H153160   6.295   1.184   7.701
17761TIP3    H253161   6.295   1.309   7.787
17762TIP3   OH253162   9.221   5.930   1.308
17762TIP3    H153163   9.311   5.916   1.280
17762TIP3    H253164   9.168   5.874   1.252
17763TIP3   OH253165   9.713   6.128   1.424
17763TIP3    H153166   9.651   6.185   1.378
17763TIP3    H253167   9.799   6.154   1.390
17764TIP3   OH253168   5.347   1.980   8.027
17764TIP3    H153169   5.439   1.959   8.007
17764TIP3    H253170   5.316   2.025   7.949
17765TIP3   OH253171   8.093   5.983   0.185
17765TIP3    H153172   8.188   5.989   0.190
17765TIP3    H253173   8.075   5.893   0.158
17766TIP3   OH253174   7.949   6.563   0.634
17766TIP3    H153175   7.884   6.510   0.589
17766TIP3    H253176   8.007   6.500   0.675
17767TIP3   OH253177   8.066   6.348   0.775
17767TIP3    H153178   8.017   6.277   0.815
17767TIP3    H253179   8.115   6.388   0.847
17768TIP3   OH253180   0.065   6.796   0.662
17768TIP3    H153181   0.087   6.834   0.747
17768TIP3    H253182   0.119   6.844   0.600
17769TIP3   OH253183   0.082   6.839   0.941
17769TIP3    H153184   0.039   6.753   0.931
17769TIP3    H253185   0.154   6.822   1.002
17770TIP3   OH253186   0.164   6.537   1.518
17770TIP3    H153187   0.085   6.547   1.570
17770TIP3    H253188   0.194   6.627   1.503
17771TIP3   OH253189   0.118   5.900   0.325
17771TIP3    H153190   0.034   5.879   0.366
17771TIP3    H253191   0.096   5.965   0.258
17772TIP3   OH253192   0.140   6.305   0.749
17772TIP3    H153193   0.187   6.237   0.701
17772TIP3    H253194   0.142   6.381   0.691
17773TIP3   OH253195   9.743   6.597   0.938
17773TIP3    H153196   9.675   6.647   0.984
17773TIP3    H253197   9.697   6.556   0.865
17774TIP3   OH253198   6.509   1.185   7.979
17774TIP3    H153199   6.441   1.202   7.914
17774TIP3    H253200   6.522   1.270   8.022
17775TIP3   OH253201   6.405   0.892   7.866
17775TIP3    H153202   6.356   0.973   7.882
17775TIP3    H253203   6.342   0.834   7.823
17776TIP3   OH253204   9.682   5.788   0.435
17776TIP3    H153205   9.684   5.694   0.416
17776TIP3    H253206   9.678   5.792   0.531
17777TIP3   OH253207   8.343   5.877   1.222
17777TIP3    H153208   8.353   5.827   1.141
17777TIP3    H253209   8.422   5.930   1.227
17778TIP3   OH253210   0.147   6.208   1.312
17778TIP3    H153211   0.221   6.148   1.298
17778TIP3    H253212   0.158   6.276   1.246
17779TIP3   OH253213   0.352   6.024   1.333
17779TIP3    H153214   0.276   5.967   1.334
17779TIP3    H253215   0.397   6.006   1.416
17780TIP3   OH253216   9.679   5.523   0.335
17780TIP3    H153217   9.722   5.445   0.371
17780TIP3    H253218   9.727   5.543   0.255
17781TIP3   OH253219   0.037   5.671   0.868
17781TIP3    H153220   0.116   5.689   0.818
17781TIP3    H253221   0.059   5.696   0.958
17782TIP3   OH253222   0.118   5.799   1.102
17782TIP3    H153223   0.050   5.830   1.161
17782TIP3    H253224   0.141   5.875   1.049
17783TIP3   OH253225   9.418   6.726   0.300
17783TIP3    H153226   9.464   6.702   0.220
17783TIP3    H253227   9.473   6.794   0.340
17784TIP3   OH253228   8.724   6.569   1.269
17784TIP3    H153229   8.698   6.635   1.204
17784TIP3    H253230   8.819   6.566   1.261
17785TIP3   OH253231   9.264   6.708   1.427
17785TIP3    H153232   9.299   6.707   1.516
17785TIP3    H253233   9.325   6.764   1.378
17786TIP3   OH253234   9.376   6.881   1.243
17786TIP3    H153235   9.449   6.851   1.188
17786TIP3    H253236   9.411   6.956   1.291
17787TIP3   OH253237   8.310   6.631   1.168
17787TIP3    H153238   8.233   6.688   1.171
17787TIP3    H253239   8.384   6.691   1.172
17788TIP3   OH253240   8.678   6.743   1.060
17788TIP3    H153241   8.597   6.753   1.011
17788TIP3    H253242   8.740   6.707   0.996
17789TIP3   OH253243   9.088   6.848   0.853
17789TIP3    H153244   9.031   6.841   0.776
17789TIP3    H253245   9.038   6.902   0.914
17790TIP3   OH253246   9.335   6.729   0.941
17790TIP3    H153247   9.245   6.752   0.966
17790TIP3    H253248   9.365   6.805   0.890
17791TIP3   OH253249   9.528   6.928   0.859
17791TIP3    H153250   9.515   7.013   0.816
17791TIP3    H253251   9.550   6.868   0.788
17792TIP3   OH253252   8.394   6.612   0.855
17792TIP3    H153253   8.432   6.573   0.934
17792TIP3    H253254   8.424   6.555   0.784
17793TIP3   OH253255   8.536   6.426   0.715
17793TIP3    H153256   8.567   6.337   0.731
17793TIP3    H253257   8.615   6.479   0.713
17794TIP3   OH253258   8.780   6.572   0.763
17794TIP3    H153259   8.801   6.486   0.727
17794TIP3    H253260   8.840   6.583   0.837
17795TIP3   OH253261   8.089   6.369   0.363
17795TIP3    H153262   8.004   6.335   0.334
17795TIP3    H253263   8.090   6.459   0.333
17796TIP3   OH253264   5.604   1.899   7.975
17796TIP3    H153265   5.688   1.925   7.937
17796TIP3    H253266   5.575   1.826   7.920
17797TIP3   OH253267   9.551   6.653   0.070
17797TIP3    H153268   9.552   6.557   0.058
17797TIP3    H253269   9.514   6.686  -0.012
17798TIP3   OH253270   8.180   6.364   0.035
17798TIP3    H153271   8.190   6.376   0.130
17798TIP3    H253272   8.259   6.317   0.009
17799TIP3   OH253273   9.786   6.812   1.261
17799TIP3    H153274   9.717   6.786   1.200
17799TIP3    H253275   9.782   6.908   1.261
17800TIP3   OH253276   1.255   6.199   0.024
17800TIP3    H153277   1.227   6.283  -0.012
17800TIP3    H253278   1.188   6.137  -0.004
17801TIP3   OH253279   1.253   6.172   0.419
17801TIP3    H153280   1.278   6.123   0.498
17801TIP3    H253281   1.211   6.107   0.363
17802TIP3   OH253282   0.562   6.067   0.769
17802TIP3    H153283   0.598   6.002   0.830
17802TIP3    H253284   0.629   6.078   0.703
17803TIP3   OH253285   1.534   6.489   0.095
17803TIP3    H153286   1.504   6.433   0.166
17803TIP3    H253287   1.558   6.571   0.138
17804TIP3   OH253288   0.562   6.480   0.485
17804TIP3    H153289   0.540   6.387   0.480
17804TIP3    H253290   0.654   6.484   0.460
17805TIP3   OH253291   0.234   5.661   0.248
17805TIP3    H153292   0.199   5.745   0.278
17805TIP3    H253293   0.162   5.621   0.200
17806TIP3   OH253294   0.350   5.987   0.457
17806TIP3    H153295   0.388   5.903   0.482
17806TIP3    H253296   0.273   5.963   0.405
17807TIP3   OH253297   1.183   6.930   0.095
17807TIP3    H153298   1.220   6.859   0.042
17807TIP3    H253299   1.138   6.886   0.166
17808TIP3   OH253300   1.083   6.396   0.454
17808TIP3    H153301   1.123   6.315   0.423
17808TIP3    H253302   1.157   6.451   0.479
17809TIP3   OH253303   0.454   5.742   0.546
17809TIP3    H153304   0.535   5.717   0.590
17809TIP3    H253305   0.457   5.696   0.462
17810TIP3   OH253306   0.861   5.967   0.365
17810TIP3    H153307   0.955   5.950   0.369
17810TIP3    H253308   0.823   5.883   0.338
17811TIP3   OH253309   7.701   1.791   7.871
17811TIP3    H153310   7.661   1.762   7.789
17811TIP3    H253311   7.649   1.867   7.897
17812TIP3   OH253312   0.922   6.313   0.666
17812TIP3    H153313   0.861   6.381   0.694
17812TIP3    H253314   0.969   6.352   0.592
17813TIP3   OH253315   0.702   5.644   0.611
17813TIP3    H153316   0.757   5.705   0.659
17813TIP3    H253317   0.755   5.616   0.536
17814TIP3   OH253318   0.753   6.520   0.749
17814TIP3    H153319   0.726   6.593   0.693
17814TIP3    H253320   0.678   6.507   0.808
17815TIP3   OH253321   1.578   6.729   0.232
17815TIP3    H153322   1.489   6.723   0.266
17815TIP3    H253323   1.582   6.815   0.189
17816TIP3   OH253324   7.817   2.142   7.898
17816TIP3    H153325   7.869   2.063   7.884
17816TIP3    H253326   7.875   2.213   7.870
17817TIP3   OH253327   7.954   1.910   7.847
17817TIP3    H153328   7.878   1.853   7.850
17817TIP3    H253329   8.004   1.888   7.926
17818TIP3   OH253330   7.632   1.410   7.861
17818TIP3    H153331   7.546   1.451   7.847
17818TIP3    H253332   7.678   1.424   7.778
17819TIP3   OH253333   7.573   1.219   7.584
17819TIP3    H153334   7.651   1.261   7.620
17819TIP3    H253335   7.600   1.128   7.569
17820TIP3   OH253336   7.953   1.493   7.823
17820TIP3    H153337   7.906   1.528   7.898
17820TIP3    H253338   8.037   1.464   7.859
17821TIP3   OH253339   0.676   6.109   0.218
17821TIP3    H153340   0.640   6.046   0.156
17821TIP3    H253341   0.743   6.061   0.266
17822TIP3   OH253342   0.818   6.504   0.370
17822TIP3    H153343   0.793   6.496   0.278
17822TIP3    H253344   0.905   6.465   0.375
17823TIP3   OH253345   0.792   6.074   0.612
17823TIP3    H153346   0.807   6.050   0.520
17823TIP3    H253347   0.829   6.162   0.619
17824TIP3   OH253348   1.330   6.727   0.341
17824TIP3    H153349   1.313   6.819   0.361
17824TIP3    H253350   1.278   6.678   0.404
17825TIP3   OH253351   0.954   6.625   0.900
17825TIP3    H153352   0.903   6.686   0.953
17825TIP3    H253353   0.890   6.588   0.839
17826TIP3   OH253354   7.812   1.344   7.640
17826TIP3    H153355   7.867   1.393   7.702
17826TIP3    H253356   7.836   1.378   7.554
17827TIP3   OH253357   0.652   6.223   1.024
17827TIP3    H153358   0.638   6.294   0.961
17827TIP3    H253359   0.570   6.173   1.024
17828TIP3   OH253360   7.566   2.030   7.907
17828TIP3    H153361   7.649   2.079   7.909
17828TIP3    H253362   7.506   2.087   7.860
17829TIP3   OH253363   0.752   6.786   0.995
17829TIP3    H153364   0.732   6.800   0.902
17829TIP3    H253365   0.668   6.765   1.035
17830TIP3   OH253366   0.535   5.946   0.017
17830TIP3    H153367   0.458   5.998  -0.006
17830TIP3    H253368   0.502   5.881   0.079
17831TIP3   OH253369   8.148   1.960   7.261
17831TIP3    H153370   8.142   2.054   7.243
17831TIP3    H253371   8.239   1.938   7.242
17832TIP3   OH253372   0.332   6.342   0.948
17832TIP3    H153373   0.266   6.331   0.881
17832TIP3    H253374   0.357   6.253   0.973
17833TIP3   OH253375   0.183   6.541   0.608
17833TIP3    H153376   0.275   6.565   0.610
17833TIP3    H253377   0.137   6.620   0.636
17834TIP3   OH253378   1.139   6.767   0.753
17834TIP3    H153379   1.126   6.859   0.778
17834TIP3    H253380   1.072   6.720   0.803
17835TIP3   OH253381   7.458   2.250   7.735
17835TIP3    H153382   7.410   2.232   7.655
17835TIP3    H253383   7.427   2.336   7.763
17836TIP3   OH253384   0.350   6.742   0.111
17836TIP3    H153385   0.390   6.729   0.197
17836TIP3    H253386   0.302   6.661   0.094
17837TIP3   OH253387   7.655   2.191   7.361
17837TIP3    H153388   7.707   2.118   7.325
17837TIP3    H253389   7.690   2.203   7.449
17838TIP3   OH253390   7.712   2.230   7.631
17838TIP3    H153391   7.626   2.230   7.673
17838TIP3    H253392   7.772   2.197   7.698
17839TIP3   OH253393   0.545   6.517   0.928
17839TIP3    H153394   0.536   6.574   1.005
17839TIP3    H253395   0.466   6.462   0.929
17840TIP3   OH253396   7.878   1.430   7.395
17840TIP3    H153397   7.828   1.422   7.314
17840TIP3    H253398   7.927   1.511   7.386
17841TIP3   OH253399   0.851   5.837   0.731
17841TIP3    H153400   0.798   5.843   0.810
17841TIP3    H253401   0.836   5.920   0.686
17842TIP3   OH253402   0.734   5.744   0.271
17842TIP3    H153403   0.649   5.705   0.293
17842TIP3    H253404   0.752   5.711   0.182
17843TIP3   OH253405   7.765   1.193   7.979
17843TIP3    H153406   7.716   1.267   7.944
17843TIP3    H253407   7.824   1.167   7.908
17844TIP3   OH253408   1.347   5.900   0.224
17844TIP3    H153409   1.313   5.872   0.139
17844TIP3    H253410   1.405   5.829   0.252
17845TIP3   OH253411   0.685   5.889   0.944
17845TIP3    H153412   0.758   5.938   0.982
17845TIP3    H253413   0.664   5.822   1.010
17846TIP3   OH253414   0.492   5.611   0.305
17846TIP3    H153415   0.402   5.629   0.279
17846TIP3    H253416   0.502   5.516   0.293
17847TIP3   OH253417   7.314   1.014   8.023
17847TIP3    H153418   7.409   1.005   8.029
17847TIP3    H253419   7.291   0.977   7.938
17848TIP3   OH253420   7.176   0.990   7.770
17848TIP3    H153421   7.132   1.045   7.835
17848TIP3    H253422   7.226   1.051   7.716
17849TIP3   OH253423   1.718   7.371   0.736
17849TIP3    H153424   1.703   7.349   0.644
17849TIP3    H253425   1.756   7.459   0.734
17850TIP3   OH253426   0.740   6.464   1.258
17850TIP3    H153427   0.746   6.559   1.255
17850TIP3    H253428   0.648   6.446   1.279
17851TIP3   OH253429   1.128   5.909   0.393
17851TIP3    H153430   1.207   5.892   0.341
17851TIP3    H253431   1.144   5.863   0.476
17852TIP3   OH253432   1.116   5.829   0.665
17852TIP3    H153433   1.024   5.811   0.682
17852TIP3    H253434   1.128   5.921   0.690
17853TIP3   OH253435   7.392   1.542   7.807
17853TIP3    H153436   7.313   1.494   7.780
17853TIP3    H253437   7.367   1.589   7.886
17854TIP3   OH253438   1.756   6.340   0.317
17854TIP3    H153439   1.765   6.422   0.366
17854TIP3    H253440   1.661   6.324   0.315
17855TIP3   OH253441   1.287   6.560   0.896
17855TIP3    H153442   1.294   6.479   0.844
17855TIP3    H253443   1.233   6.618   0.842
17856TIP3   OH253444   7.953   1.135   7.777
17856TIP3    H153445   8.039   1.137   7.819
17856TIP3    H253446   7.950   1.215   7.725
17857TIP3   OH253447   0.531   6.208   0.439
17857TIP3    H153448   0.581   6.183   0.361
17857TIP3    H253449   0.466   6.139   0.449
17858TIP3   OH253450   7.540   1.717   7.656
17858TIP3    H153451   7.489   1.799   7.657
17858TIP3    H253452   7.485   1.655   7.704
17859TIP3   OH253453   0.408   6.101   1.073
17859TIP3    H153454   0.403   6.068   1.163
17859TIP3    H253455   0.338   6.055   1.027
17860TIP3   OH253456   1.395   6.754   0.647
17860TIP3    H153457   1.304   6.766   0.674
17860TIP3    H253458   1.424   6.842   0.623
17861TIP3   OH253459   8.396   1.215   7.667
17861TIP3    H153460   8.425   1.134   7.626
17861TIP3    H253461   8.405   1.282   7.599
17862TIP3   OH253462   8.073   2.031   7.530
17862TIP3    H153463   8.047   1.965   7.594
17862TIP3    H253464   8.091   1.981   7.450
17863TIP3   OH253465   1.474   6.299   0.300
17863TIP3    H153466   1.392   6.269   0.339
17863TIP3    H253467   1.498   6.231   0.238
17864TIP3   OH253468   0.668   6.526   0.123
17864TIP3    H153469   0.667   6.606   0.071
17864TIP3    H253470   0.577   6.516   0.151
17865TIP3   OH253471   6.756   1.194   7.859
17865TIP3    H153472   6.795   1.280   7.877
17865TIP3    H253473   6.672   1.196   7.905
17866TIP3   OH253474   0.759   6.287   0.022
17866TIP3    H153475   0.739   6.376   0.052
17866TIP3    H253476   0.732   6.231   0.095
17867TIP3   OH253477   0.946   6.847   0.557
17867TIP3    H153478   0.973   6.925   0.510
17867TIP3    H253479   1.025   6.818   0.604
17868TIP3   OH253480   7.124   2.140   7.977
17868TIP3    H153481   7.036   2.142   8.013
17868TIP3    H253482   7.158   2.228   7.991
17869TIP3   OH253483   1.341   6.499   0.532
17869TIP3    H153484   1.378   6.578   0.570
17869TIP3    H253485   1.402   6.474   0.463
17870TIP3   OH253486   7.823   1.767   7.405
17870TIP3    H153487   7.869   1.737   7.484
17870TIP3    H253488   7.733   1.737   7.415
17871TIP3   OH253489   1.492   7.011   0.590
17871TIP3    H153490   1.426   7.013   0.521
17871TIP3    H253491   1.566   7.060   0.555
17872TIP3   OH253492   8.141   2.233   7.218
17872TIP3    H153493   8.154   2.290   7.143
17872TIP3    H253494   8.071   2.275   7.268
17873TIP3   OH253495   7.980   1.661   7.599
17873TIP3    H153496   7.972   1.609   7.679
17873TIP3    H253497   8.073   1.682   7.593
17874TIP3   OH253498   0.384   6.758   0.735
17874TIP3    H153499   0.457   6.708   0.771
17874TIP3    H253500   0.398   6.847   0.768
17875TIP3   OH253501   7.175   1.752   7.443
17875TIP3    H153502   7.187   1.661   7.416
17875TIP3    H253503   7.161   1.747   7.537
17876TIP3   OH253504   7.120   1.755   7.715
17876TIP3    H153505   7.178   1.730   7.788
17876TIP3    H253506   7.118   1.851   7.719
17877TIP3   OH253507   6.833   1.447   7.936
17877TIP3    H153508   6.755   1.465   7.988
17877TIP3    H253509   6.838   1.519   7.874
17878TIP3   OH253510   7.391   1.941   7.643
17878TIP3    H153511   7.306   1.965   7.681
17878TIP3    H253512   7.413   2.016   7.587
17879TIP3   OH253513   1.052   5.610   0.048
17879TIP3    H153514   1.112   5.677   0.017
17879TIP3    H253515   1.072   5.601   0.141
17880TIP3   OH253516   7.143   2.027   7.725
17880TIP3    H153517   7.122   2.096   7.661
17880TIP3    H253518   7.133   2.070   7.810
17881TIP3   OH253519   1.598   6.040   0.232
17881TIP3    H153520   1.511   6.004   0.250
17881TIP3    H253521   1.638   6.051   0.319
17882TIP3   OH253522   6.869   1.625   7.720
17882TIP3    H153523   6.939   1.689   7.730
17882TIP3    H253524   6.903   1.562   7.657
17883TIP3   OH253525   6.799   0.924   7.849
17883TIP3    H153526   6.789   1.017   7.865
17883TIP3    H253527   6.737   0.882   7.909
17884TIP3   OH253528   1.584   6.992   0.142
17884TIP3    H153529   1.537   7.044   0.077
17884TIP3    H253530   1.676   7.015   0.130
17885TIP3   OH253531   0.221   6.506   0.057
17885TIP3    H153532   0.174   6.427   0.083
17885TIP3    H253533   0.180   6.532  -0.025
17886TIP3   OH253534   0.353   7.035   1.147
17886TIP3    H153535   0.432   7.038   1.201
17886TIP3    H253536   0.322   6.945   1.154
17887TIP3   OH253537   0.813   6.967   1.196
17887TIP3    H153538   0.901   6.976   1.233
17887TIP3    H253539   0.826   6.914   1.117
17888TIP3   OH253540   7.347   1.928   7.321
17888TIP3    H153541   7.288   1.871   7.371
17888TIP3    H253542   7.423   1.873   7.302
17889TIP3   OH253543   7.786   1.983   7.240
17889TIP3    H153544   7.816   1.917   7.302
17889TIP3    H253545   7.846   1.975   7.166
17890TIP3   OH253546   0.477   6.449   1.338
17890TIP3    H153547   0.451   6.385   1.404
17890TIP3    H253548   0.399   6.460   1.284
17891TIP3   OH253549   6.998   1.444   7.556
17891TIP3    H153550   7.050   1.421   7.633
17891TIP3    H253551   7.062   1.464   7.488
17892TIP3   OH253552   0.949   6.386   1.044
17892TIP3    H153553   0.947   6.467   0.992
17892TIP3    H253554   1.026   6.339   1.012
17893TIP3   OH253555   7.555   1.689   7.385
17893TIP3    H153556   7.542   1.705   7.478
17893TIP3    H253557   7.544   1.595   7.374
17894TIP3   OH253558   0.561   6.187   1.451
17894TIP3    H153559   0.530   6.139   1.374
17894TIP3    H253560   0.482   6.209   1.499
17895TIP3   OH253561   7.172   1.377   7.763
17895TIP3    H153562   7.147   1.355   7.852
17895TIP3    H253563   7.219   1.300   7.731
17896TIP3   OH253564   0.910   6.052   0.964
17896TIP3    H153565   0.866   6.124   0.919
17896TIP3    H253566   0.985   6.032   0.908
17897TIP3   OH253567   7.304   1.177   7.618
17897TIP3    H153568   7.280   1.198   7.527
17897TIP3    H253569   7.398   1.198   7.622
17898TIP3   OH253570   8.138   1.488   7.243
17898TIP3    H153571   8.097   1.446   7.168
17898TIP3    H253572   8.109   1.579   7.239
17899TIP3   OH253573   1.092   6.100   0.743
17899TIP3    H153574   1.179   6.140   0.737
17899TIP3    H253575   1.032   6.169   0.716
17900TIP3   OH253576   7.141   2.223   7.528
17900TIP3    H153577   7.232   2.207   7.503
17900TIP3    H253578   7.104   2.273   7.455
17901TIP3   OH253579   6.601   1.634   7.650
17901TIP3    H153580   6.688   1.646   7.689
17901TIP3    H253581   6.591   1.540   7.641
17902TIP3   OH253582   9.757   6.813   0.161
17902TIP3    H153583   9.697   6.751   0.119
17902TIP3    H253584   9.805   6.760   0.225
17903TIP3   OH253585   0.093   6.682   0.358
17903TIP3    H153586   0.101   6.599   0.404
17903TIP3    H253587   0.158   6.739   0.399
17904TIP3   OH253588   1.845   7.074   0.136
17904TIP3    H153589   1.848   7.093   0.229
17904TIP3    H253590   1.880   7.152   0.093
17905TIP3   OH253591   1.836   7.110   0.410
17905TIP3    H153592   1.800   7.022   0.425
17905TIP3    H253593   1.927   7.103   0.441
17906TIP3   OH253594   8.253   1.707   7.578
17906TIP3    H153595   8.319   1.774   7.559
17906TIP3    H253596   8.277   1.674   7.665
17907TIP3   OH253597   8.319   1.576   7.804
17907TIP3    H153598   8.266   1.517   7.858
17907TIP3    H253599   8.408   1.567   7.838
17908TIP3   OH253600   1.939   6.567   0.184
17908TIP3    H153601   1.875   6.503   0.152
17908TIP3    H253602   1.919   6.647   0.135
17909TIP3   OH253603   1.710   6.869   0.443
17909TIP3    H153604   1.641   6.857   0.508
17909TIP3    H253605   1.691   6.806   0.374
17910TIP3   OH253606   8.308   1.467   7.457
17910TIP3    H153607   8.253   1.469   7.379
17910TIP3    H253608   8.291   1.551   7.500
17911TIP3   OH253609   8.279   1.146   7.352
17911TIP3    H153610   8.196   1.186   7.330
17911TIP3    H253611   8.263   1.101   7.436
17912TIP3   OH253612   8.175   1.399   7.960
17912TIP3    H153613   8.191   1.305   7.948
17912TIP3    H253614   8.161   1.409   8.054
17913TIP3   OH253615   0.299   6.073   0.710
17913TIP3    H153616   0.300   6.051   0.617
17913TIP3    H253617   0.391   6.083   0.734
17914TIP3   OH253618   8.212   1.132   7.863
17914TIP3    H153619   8.226   1.037   7.857
17914TIP3    H253620   8.271   1.170   7.798
17915TIP3   OH253621   0.267   5.766   0.750
17915TIP3    H153622   0.327   5.742   0.679
17915TIP3    H253623   0.284   5.859   0.765
17916TIP3   OH253624   7.962   2.339   7.790
17916TIP3    H153625   8.018   2.334   7.712
17916TIP3    H253626   7.996   2.414   7.838
17917TIP3   OH253627   0.516   6.712   1.132
17917TIP3    H153628   0.423   6.734   1.126
17917TIP3    H253629   0.537   6.723   1.225
17918TIP3   OH253630   0.724   6.810   0.720
17918TIP3    H153631   0.675   6.886   0.690
17918TIP3    H253632   0.804   6.811   0.667
17919TIP3   OH253633   1.113   7.033   0.821
17919TIP3    H153634   1.141   7.009   0.909
17919TIP3    H253635   1.183   7.089   0.788
17920TIP3   OH253636   1.321   7.187   0.736
17920TIP3    H153637   1.384   7.134   0.687
17920TIP3    H253638   1.375   7.242   0.793
17921TIP3   OH253639   0.387   7.043   0.774
17921TIP3    H153640   0.297   7.062   0.749
17921TIP3    H253641   0.409   7.111   0.838
17922TIP3   OH253642   0.618   7.042   0.622
17922TIP3    H153643   0.533   7.048   0.666
17922TIP3    H253644   0.600   7.064   0.530
17923TIP3   OH253645   1.025   7.063   0.404
17923TIP3    H153646   0.952   7.073   0.342
17923TIP3    H253647   1.039   7.151   0.439
17924TIP3   OH253648   1.287   6.989   0.410
17924TIP3    H153649   1.195   7.014   0.404
17924TIP3    H253650   1.335   7.057   0.362
17925TIP3   OH253651   1.491   7.166   0.339
17925TIP3    H153652   1.492   7.252   0.297
17925TIP3    H253653   1.528   7.107   0.273
17926TIP3   OH253654   0.291   6.835   0.489
17926TIP3    H153655   0.322   6.814   0.577
17926TIP3    H253656   0.357   6.798   0.431
17927TIP3   OH253657   0.482   6.705   0.349
17927TIP3    H153658   0.496   6.623   0.397
17927TIP3    H253659   0.568   6.746   0.349
17928TIP3   OH253660   0.743   6.771   0.381
17928TIP3    H153661   0.776   6.681   0.374
17928TIP3    H253662   0.809   6.817   0.434
17929TIP3   OH253663   6.631   1.986   7.828
17929TIP3    H153664   6.542   1.951   7.818
17929TIP3    H253665   6.620   2.080   7.818
17930TIP3   OH253666   7.401   2.157   7.462
17930TIP3    H153667   7.484   2.187   7.426
17930TIP3    H253668   7.374   2.085   7.405
17931TIP3   OH253669   8.105   2.301   7.555
17931TIP3    H153670   8.098   2.205   7.550
17931TIP3    H253671   8.057   2.332   7.479
17932TIP3   OH253672   6.704   2.000   7.536
17932TIP3    H153673   6.700   1.990   7.631
17932TIP3    H253674   6.785   1.955   7.511
17933TIP3   OH253675   8.495   1.266   7.921
17933TIP3    H153676   8.530   1.355   7.920
17933TIP3    H253677   8.461   1.252   7.832
17934TIP3   OH253678   8.586   1.538   7.862
17934TIP3    H153679   8.656   1.585   7.906
17934TIP3    H253680   8.618   1.526   7.772
17935TIP3   OH253681   9.418   2.070   7.396
17935TIP3    H153682   9.400   2.039   7.307
17935TIP3    H253683   9.395   2.163   7.394
17936TIP3   OH253684   8.454   1.880   7.488
17936TIP3    H153685   8.423   1.897   7.399
17936TIP3    H253686   8.475   1.967   7.523
17937TIP3   OH253687   9.395   1.489   7.070
17937TIP3    H153688   9.472   1.542   7.089
17937TIP3    H253689   9.429   1.408   7.032
17938TIP3   OH253690   9.351   2.343   7.392
17938TIP3    H153691   9.347   2.396   7.471
17938TIP3    H253692   9.299   2.391   7.328
17939TIP3   OH253693   8.884   1.630   7.524
17939TIP3    H153694   8.805   1.662   7.481
17939TIP3    H253695   8.857   1.548   7.565
17940TIP3   OH253696   1.937   6.820   0.072
17940TIP3    H153697   2.027   6.839   0.097
17940TIP3    H253698   1.889   6.899   0.096
17941TIP3   OH253699   9.243   2.529   7.215
17941TIP3    H153700   9.195   2.507   7.135
17941TIP3    H253701   9.209   2.615   7.240
17942TIP3   OH253702   8.672   2.368   7.572
17942TIP3    H153703   8.717   2.360   7.656
17942TIP3    H253704   8.621   2.287   7.564
17943TIP3   OH253705   9.456   2.435   6.859
17943TIP3    H153706   9.506   2.359   6.829
17943TIP3    H253707   9.486   2.450   6.948
17944TIP3   OH253708   9.505   2.494   7.124
17944TIP3    H153709   9.423   2.485   7.173
17944TIP3    H253710   9.572   2.502   7.192
17945TIP3   OH253711   9.651   1.610   6.872
17945TIP3    H153712   9.636   1.588   6.780
17945TIP3    H253713   9.665   1.705   6.871
17946TIP3   OH253714   8.937   1.335   7.299
17946TIP3    H153715   8.860   1.327   7.243
17946TIP3    H253716   9.011   1.338   7.238
17947TIP3   OH253717   9.134   1.858   7.274
17947TIP3    H153718   9.088   1.775   7.261
17947TIP3    H253719   9.140   1.868   7.369
17948TIP3   OH253720   9.335   1.974   7.130
17948TIP3    H153721   9.295   2.061   7.126
17948TIP3    H253722   9.273   1.922   7.181
17949TIP3   OH253723   0.129   2.283   6.941
17949TIP3    H153724   0.129   2.220   7.012
17949TIP3    H253725   0.052   2.261   6.888
17950TIP3   OH253726   8.956   2.130   7.597
17950TIP3    H153727   8.978   2.209   7.547
17950TIP3    H253728   8.862   2.137   7.612
17951TIP3   OH253729   8.559   1.464   7.342
17951TIP3    H153730   8.606   1.546   7.358
17951TIP3    H253731   8.476   1.475   7.388
17952TIP3   OH253732   9.078   1.882   7.542
17952TIP3    H153733   9.030   1.963   7.557
17952TIP3    H253734   9.013   1.813   7.558
17953TIP3   OH253735   8.922   2.379   7.458
17953TIP3    H153736   8.831   2.387   7.486
17953TIP3    H253737   8.954   2.469   7.454
17954TIP3   OH253738   9.623   1.989   6.918
17954TIP3    H153739   9.618   1.991   7.013
17954TIP3    H253740   9.537   1.957   6.890
17955TIP3   OH253741   2.162   6.975   0.184
17955TIP3    H153742   2.163   6.895   0.237
17955TIP3    H253743   2.194   7.043   0.243
17956TIP3   OH253744   8.979   2.004   6.916
17956TIP3    H153745   8.991   1.913   6.890
17956TIP3    H253746   8.961   2.000   7.010
17957TIP3   OH253747   8.919   2.009   7.184
17957TIP3    H153748   8.997   1.970   7.222
17957TIP3    H253749   8.930   2.103   7.199
17958TIP3   OH253750   8.657   1.718   7.398
17958TIP3    H153751   8.589   1.766   7.446
17958TIP3    H253752   8.675   1.771   7.321
17959TIP3   OH253753   9.205   2.210   7.126
17959TIP3    H153754   9.120   2.226   7.166
17959TIP3    H253755   9.218   2.283   7.066
17960TIP3   OH253756   8.953   2.280   7.206
17960TIP3    H153757   8.930   2.353   7.148
17960TIP3    H253758   8.941   2.314   7.294
17961TIP3   OH253759   8.675   1.883   7.175
17961TIP3    H153760   8.747   1.946   7.183
17961TIP3    H253761   8.709   1.816   7.116
17962TIP3   OH253762   8.553   1.189   7.343
17962TIP3    H153763   8.568   1.284   7.342
17962TIP3    H253764   8.458   1.180   7.344
17963TIP3   OH253765   8.503   2.143   7.569
17963TIP3    H153766   8.466   2.183   7.647
17963TIP3    H253767   8.456   2.185   7.496
17964TIP3   OH253768   9.133   2.201   6.805
17964TIP3    H153769   9.085   2.131   6.850
17964TIP3    H253770   9.207   2.158   6.764
17965TIP3   OH253771   9.592   2.218   6.766
17965TIP3    H153772   9.619   2.135   6.805
17965TIP3    H253773   9.623   2.214   6.676
17966TIP3   OH253774   8.803   1.686   7.039
17966TIP3    H153775   8.853   1.657   7.115
17966TIP3    H253776   8.869   1.705   6.972
17967TIP3   OH253777   9.366   1.911   6.864
17967TIP3    H153778   9.343   1.926   6.955
17967TIP3    H253779   9.345   1.818   6.849
17968TIP3   OH253780   8.981   1.626   7.253
17968TIP3    H153781   8.956   1.612   7.344
17968TIP3    H253782   9.019   1.542   7.226
17969TIP3   OH253783   9.128   1.414   7.106
17969TIP3    H153784   9.097   1.437   7.019
17969TIP3    H253785   9.213   1.457   7.114
17970TIP3   OH253786   8.944   2.498   7.035
17970TIP3    H153787   9.031   2.476   7.002
17970TIP3    H253788   8.899   2.534   6.958
17971TIP3   OH253789   8.405   1.877   7.206
17971TIP3    H153790   8.499   1.891   7.196
17971TIP3    H253791   8.389   1.792   7.165
17972TIP3   OH253792   8.305   2.458   7.649
17972TIP3    H153793   8.240   2.405   7.603
17972TIP3    H253794   8.351   2.396   7.706
17973TIP3   OH253795   8.452   2.288   7.807
17973TIP3    H153796   8.435   2.229   7.881
17973TIP3    H253797   8.504   2.359   7.844
17974TIP3   OH253798   9.708   2.582   7.293
17974TIP3    H153799   9.773   2.562   7.226
17974TIP3    H253800   9.756   2.629   7.360
17975TIP3   OH253801   2.161   7.298   0.201
17975TIP3    H153802   2.067   7.311   0.189
17975TIP3    H253803   2.186   7.363   0.267
17976TIP3   OH253804   2.381   7.252   0.046
17976TIP3    H153805   2.298   7.256   0.094
17976TIP3    H253806   2.367   7.305  -0.032
17977TIP3   OH253807   8.623   2.469   7.938
17977TIP3    H153808   8.637   2.445   8.030
17977TIP3    H253809   8.698   2.434   7.892
17978TIP3   OH253810   8.830   2.354   7.796
17978TIP3    H153811   8.850   2.291   7.865
17978TIP3    H253812   8.909   2.406   7.787
17979TIP3   OH253813   9.062   2.499   7.849
17979TIP3    H153814   9.145   2.456   7.873
17979TIP3    H253815   9.025   2.528   7.932
17980TIP3   OH253816   8.385   2.263   7.353
17980TIP3    H153817   8.301   2.233   7.319
17980TIP3    H253818   8.393   2.353   7.322
17981TIP3   OH253819   9.195   2.425   6.946
17981TIP3    H153820   9.282   2.442   6.912
17981TIP3    H253821   9.160   2.355   6.890
17982TIP3   OH253822   0.077   2.527   7.077
17982TIP3    H153823   0.104   2.444   7.038
17982TIP3    H253824   0.038   2.576   7.004
17983TIP3   OH253825   8.501   2.254   7.006
17983TIP3    H153826   8.503   2.266   7.100
17983TIP3    H253827   8.583   2.209   6.985
17984TIP3   OH253828   5.510   7.630   1.201
17984TIP3    H153829   5.506   7.672   1.115
17984TIP3    H253830   5.454   7.684   1.257
17985TIP3   OH253831   5.170   6.903   0.700
17985TIP3    H153832   5.228   6.931   0.771
17985TIP3    H253833   5.172   6.807   0.704
17986TIP3   OH253834   5.320   7.041   0.925
17986TIP3    H153835   5.396   7.075   0.974
17986TIP3    H253836   5.311   7.102   0.851
17987TIP3   OH253837   5.681   7.630   0.301
17987TIP3    H153838   5.683   7.725   0.310
17987TIP3    H253839   5.766   7.601   0.336
17988TIP3   OH253840   4.968   7.809   0.949
17988TIP3    H153841   4.931   7.896   0.935
17988TIP3    H253842   4.957   7.793   1.043
17989TIP3   OH253843   5.230   7.896   0.508
17989TIP3    H153844   5.295   7.846   0.459
17989TIP3    H253845   5.188   7.832   0.565
17990TIP3   OH253846   5.206   7.922   0.858
17990TIP3    H153847   5.121   7.888   0.884
17990TIP3    H253848   5.256   7.928   0.940
17991TIP3   OH253849   5.349   7.063   0.429
17991TIP3    H153850   5.340   7.049   0.335
17991TIP3    H253851   5.439   7.094   0.440
17992TIP3   OH253852   7.265   8.501   7.331
17992TIP3    H153853   7.177   8.472   7.355
17992TIP3    H253854   7.304   8.529   7.414
17993TIP3   OH253855   5.384   6.778   0.923
17993TIP3    H153856   5.445   6.773   0.997
17993TIP3    H253857   5.349   6.867   0.927
17994TIP3   OH253858   5.086   7.433   0.769
17994TIP3    H153859   5.102   7.488   0.846
17994TIP3    H253860   4.995   7.405   0.779
17995TIP3   OH253861   5.944   6.885   0.657
17995TIP3    H153862   5.856   6.863   0.627
17995TIP3    H253863   5.953   6.979   0.639
17996TIP3   OH253864   5.557   7.631   0.603
17996TIP3    H153865   5.520   7.707   0.649
17996TIP3    H253866   5.647   7.657   0.585
17997TIP3   OH253867   5.305   7.474   0.626
17997TIP3    H153868   5.373   7.513   0.681
17997TIP3    H253869   5.225   7.482   0.678
17998TIP3   OH253870   5.690   7.898   0.332
17998TIP3    H153871   5.744   7.973   0.308
17998TIP3    H253872   5.607   7.936   0.360
17999TIP3   OH253873   5.415   7.412   0.890
17999TIP3    H153874   5.363   7.387   0.967
17999TIP3    H253875   5.478   7.341   0.880
18000TIP3   OH253876   4.680   7.407   0.516
18000TIP3    H153877   4.726   7.332   0.480
18000TIP3    H253878   4.635   7.373   0.594
18001TIP3   OH253879   4.879   7.616   0.791
18001TIP3    H153880   4.826   7.558   0.846
18001TIP3    H253881   4.904   7.688   0.848
18002TIP3   OH253882   4.523   7.701   0.878
18002TIP3    H153883   4.578   7.671   0.806
18002TIP3    H253884   4.557   7.788   0.900
18003TIP3   OH253885   4.885   7.629   0.444
18003TIP3    H153886   4.869   7.541   0.478
18003TIP3    H253887   4.979   7.632   0.428
18004TIP3   OH253888   5.407   7.723   0.388
18004TIP3    H153889   5.475   7.685   0.444
18004TIP3    H253890   5.434   7.701   0.299
18005TIP3   OH253891   4.609   7.189   0.736
18005TIP3    H153892   4.614   7.112   0.680
18005TIP3    H253893   4.527   7.232   0.712
18006TIP3   OH253894   4.988   7.371   0.509
18006TIP3    H153895   5.043   7.391   0.584
18006TIP3    H253896   4.997   7.276   0.498
18007TIP3   OH253897   4.817   6.740   0.796
18007TIP3    H153898   4.723   6.732   0.805
18007TIP3    H253899   4.832   6.834   0.783
18008TIP3   OH253900   5.610   7.116   0.426
18008TIP3    H153901   5.625   7.119   0.331
18008TIP3    H253902   5.641   7.201   0.458
18009TIP3   OH253903   4.692   7.911   0.757
18009TIP3    H153904   4.785   7.933   0.746
18009TIP3    H253905   4.673   7.853   0.683
18010TIP3   OH253906   5.738   7.413   0.792
18010TIP3    H153907   5.824   7.448   0.768
18010TIP3    H253908   5.722   7.446   0.880
18011TIP3   OH253909   5.982   7.277   0.907
18011TIP3    H153910   5.906   7.259   0.962
18011TIP3    H253911   6.039   7.332   0.961
18012TIP3   OH253912   5.880   7.150   0.694
18012TIP3    H153913   5.857   7.209   0.622
18012TIP3    H253914   5.915   7.208   0.762
18013TIP3   OH253915   5.709   6.877   0.532
18013TIP3    H153916   5.646   6.948   0.520
18013TIP3    H253917   5.667   6.801   0.490
18014TIP3   OH253918   5.646   6.556   0.667
18014TIP3    H153919   5.735   6.524   0.661
18014TIP3    H253920   5.596   6.500   0.607
18015TIP3   OH253921   5.882   6.432   0.687
18015TIP3    H153922   5.927   6.374   0.749
18015TIP3    H253923   5.952   6.461   0.628
18016TIP3   OH253924   5.440   7.964   1.017
18016TIP3    H153925   5.516   7.912   0.990
18016TIP3    H253926   5.473   8.023   1.084
18017TIP3   OH253927   4.918   7.872   0.591
18017TIP3    H153928   4.996   7.836   0.635
18017TIP3    H253929   4.884   7.798   0.540
18018TIP3   OH253930   5.666   7.943   0.641
18018TIP3    H153931   5.579   7.925   0.676
18018TIP3    H253932   5.650   7.983   0.556
18019TIP3   OH253933   4.198   7.578   0.731
18019TIP3    H153934   4.160   7.640   0.793
18019TIP3    H253935   4.261   7.629   0.680
18020TIP3   OH253936   7.102   7.498   0.651
18020TIP3    H153937   7.061   7.568   0.598
18020TIP3    H253938   7.037   7.428   0.650
18021TIP3   OH253939   7.195   7.520   1.084
18021TIP3    H153940   7.208   7.484   1.172
18021TIP3    H253941   7.106   7.556   1.086
18022TIP3   OH253942   7.395   7.820   0.687
18022TIP3    H153943   7.368   7.763   0.759
18022TIP3    H253944   7.434   7.896   0.730
18023TIP3   OH253945   6.430   7.747   1.151
18023TIP3    H153946   6.441   7.688   1.076
18023TIP3    H253947   6.510   7.733   1.203
18024TIP3   OH253948   6.060   6.994   0.887
18024TIP3    H153949   6.053   7.088   0.876
18024TIP3    H253950   6.027   6.957   0.805
18025TIP3   OH253951   6.130   7.385   1.112
18025TIP3    H153952   6.129   7.292   1.134
18025TIP3    H253953   6.217   7.415   1.136
18026TIP3   OH253954   7.016   8.191   0.723
18026TIP3    H153955   7.054   8.127   0.662
18026TIP3    H253956   6.951   8.141   0.773
18027TIP3   OH253957   6.941   7.624   1.120
18027TIP3    H153958   6.923   7.619   1.026
18027TIP3    H253959   6.993   7.703   1.131
18028TIP3   OH253960   7.970   7.050   1.126
18028TIP3    H153961   7.963   7.111   1.199
18028TIP3    H253962   8.017   7.098   1.058
18029TIP3   OH253963   7.321   7.222   1.172
18029TIP3    H153964   7.326   7.126   1.171
18029TIP3    H253965   7.330   7.247   1.080
18030TIP3   OH253966   6.695   6.891   1.115
18030TIP3    H153967   6.626   6.956   1.101
18030TIP3    H253968   6.671   6.847   1.197
18031TIP3   OH253969   7.358   6.944   0.632
18031TIP3    H153970   7.433   6.943   0.692
18031TIP3    H253971   7.392   6.983   0.552
18032TIP3   OH253972   6.775   7.189   0.993
18032TIP3    H153973   6.862   7.208   1.028
18032TIP3    H253974   6.721   7.173   1.070
18033TIP3   OH253975   8.030   7.212   1.344
18033TIP3    H153976   7.949   7.261   1.326
18033TIP3    H253977   8.043   7.222   1.439
18034TIP3   OH253978   6.974   7.694   0.516
18034TIP3    H153979   6.947   7.690   0.424
18034TIP3    H253980   6.935   7.775   0.549
18035TIP3   OH253981   7.638   6.805   0.974
18035TIP3    H153982   7.561   6.806   0.917
18035TIP3    H253983   7.626   6.881   1.031
18036TIP3   OH253984   5.976   7.495   0.652
18036TIP3    H153985   5.919   7.524   0.581
18036TIP3    H253986   6.005   7.576   0.695
18037TIP3   OH253987   7.436   8.037   0.859
18037TIP3    H153988   7.342   8.028   0.876
18037TIP3    H253989   7.444   8.117   0.808
18038TIP3   OH253990   7.585   6.985   1.172
18038TIP3    H153991   7.530   6.919   1.215
18038TIP3    H253992   7.656   7.000   1.234
18039TIP3   OH253993   7.127   8.046   0.517
18039TIP3    H153994   7.180   7.970   0.495
18039TIP3    H253995   7.185   8.121   0.504
18040TIP3   OH253996   7.290   7.844   0.436
18040TIP3    H153997   7.285   7.755   0.400
18040TIP3    H253998   7.332   7.832   0.521
18041TIP3   OH253999   7.645   7.966   1.253
18041TIP3    H154000   7.640   7.895   1.189
18041TIP3    H254001   7.639   8.046   1.200
18042TIP3   OH254002   6.921   7.343   0.468
18042TIP3    H154003   6.845   7.399   0.452
18042TIP3    H254004   6.975   7.354   0.389
18043TIP3   OH254005   6.909   7.141   0.186
18043TIP3    H154006   6.973   7.194   0.234
18043TIP3    H254007   6.960   7.072   0.145
18044TIP3   OH254008   7.801   7.550   1.016
18044TIP3    H154009   7.768   7.625   1.066
18044TIP3    H254010   7.853   7.589   0.946
18045TIP3   OH254011   7.289   7.410   0.461
18045TIP3    H154012   7.242   7.437   0.540
18045TIP3    H254013   7.373   7.377   0.495
18046TIP3   OH254014   7.523   7.490   1.410
18046TIP3    H154015   7.522   7.526   1.499
18046TIP3    H254016   7.459   7.543   1.363
18047TIP3   OH254017   6.573   7.316   0.853
18047TIP3    H154018   6.509   7.254   0.887
18047TIP3    H254019   6.655   7.294   0.899
18048TIP3   OH254020   6.665   7.811   0.943
18048TIP3    H154021   6.643   7.841   0.855
18048TIP3    H254022   6.623   7.725   0.950
18049TIP3   OH254023   7.182   8.013   0.953
18049TIP3    H154024   7.171   8.092   1.006
18049TIP3    H254025   7.095   7.975   0.947
18050TIP3   OH254026   7.113   7.307   0.277
18050TIP3    H154027   7.181   7.347   0.331
18050TIP3    H254028   7.150   7.308   0.188
18051TIP3   OH254029   6.874   7.948   0.573
18051TIP3    H154030   6.960   7.984   0.551
18051TIP3    H254031   6.813   7.999   0.519
18052TIP3   OH254032   7.638   6.507   0.341
18052TIP3    H154033   7.560   6.530   0.391
18052TIP3    H254034   7.656   6.583   0.287
18053TIP3   OH254035   6.428   7.449   0.638
18053TIP3    H154036   6.379   7.426   0.559
18053TIP3    H254037   6.440   7.366   0.684
18054TIP3   OH254038   4.180   3.256   7.909
18054TIP3    H154039   4.185   3.351   7.902
18054TIP3    H254040   4.270   3.226   7.897
18055TIP3   OH254041   7.766   8.293   1.289
18055TIP3    H154042   7.855   8.283   1.323
18055TIP3    H254043   7.713   8.309   1.367
18056TIP3   OH254044   7.008   7.983   1.427
18056TIP3    H154045   7.017   8.075   1.403
18056TIP3    H254046   6.941   7.982   1.496
18057TIP3   OH254047   6.757   8.172   0.397
18057TIP3    H154048   6.692   8.151   0.330
18057TIP3    H254049   6.730   8.258   0.431
18058TIP3   OH254050   6.175   7.989   0.702
18058TIP3    H154051   6.219   7.959   0.782
18058TIP3    H254052   6.084   8.004   0.728
18059TIP3   OH254053   6.971   8.108   0.019
18059TIP3    H154054   7.034   8.041  -0.008
18059TIP3    H254055   6.996   8.130   0.109
18060TIP3   OH254056   7.007   8.156   0.287
18060TIP3    H154057   6.920   8.161   0.325
18060TIP3    H254058   7.060   8.113   0.355
18061TIP3   OH254059   3.947   2.642   8.029
18061TIP3    H154060   3.903   2.644   7.943
18061TIP3    H254061   4.027   2.692   8.015
18062TIP3   OH254062   6.896   6.737   0.292
18062TIP3    H154063   6.879   6.746   0.386
18062TIP3    H254064   6.872   6.646   0.272
18063TIP3   OH254065   6.521   7.057   0.946
18063TIP3    H154066   6.469   6.978   0.948
18063TIP3    H254067   6.598   7.034   0.893
18064TIP3   OH254068   7.091   7.143   0.545
18064TIP3    H154069   7.036   7.209   0.505
18064TIP3    H254070   7.151   7.116   0.475
18065TIP3   OH254071   7.200   7.070   0.820
18065TIP3    H154072   7.224   7.163   0.821
18065TIP3    H254073   7.239   7.036   0.740
18066TIP3   OH254074   6.519   6.595   0.287
18066TIP3    H154075   6.553   6.640   0.364
18066TIP3    H254076   6.467   6.661   0.240
18067TIP3   OH254077   6.131   6.684   0.749
18067TIP3    H154078   6.170   6.759   0.704
18067TIP3    H254079   6.048   6.717   0.784
18068TIP3   OH254080   7.215   7.410   1.336
18068TIP3    H154081   7.258   7.337   1.292
18068TIP3    H254082   7.248   7.408   1.426
18069TIP3   OH254083   6.900   6.779   0.986
18069TIP3    H154084   6.822   6.818   1.026
18069TIP3    H254085   6.973   6.830   1.020
18070TIP3   OH254086   6.404   6.819   0.973
18070TIP3    H154087   6.320   6.844   1.012
18070TIP3    H254088   6.380   6.752   0.908
18071TIP3   OH254089   6.726   6.975   0.504
18071TIP3    H154090   6.727   7.065   0.536
18071TIP3    H254091   6.643   6.968   0.457
18072TIP3   OH254092   7.307   6.956   1.238
18072TIP3    H154093   7.236   6.995   1.289
18072TIP3    H254094   7.278   6.866   1.220
18073TIP3   OH254095   6.467   6.996   0.408
18073TIP3    H154096   6.426   6.925   0.358
18073TIP3    H254097   6.512   7.049   0.343
18074TIP3   OH254098   7.617   8.649   1.513
18074TIP3    H154099   7.550   8.634   1.446
18074TIP3    H254100   7.655   8.733   1.490
18075TIP3   OH254101   7.034   7.227   1.048
18075TIP3    H154102   7.061   7.140   1.078
18075TIP3    H254103   7.015   7.275   1.128
18076TIP3   OH254104   6.452   6.606   0.802
18076TIP3    H154105   6.437   6.562   0.886
18076TIP3    H254106   6.544   6.632   0.804
18077TIP3   OH254107   6.701   7.503   0.431
18077TIP3    H154108   6.627   7.443   0.419
18077TIP3    H254109   6.697   7.528   0.523
18078TIP3   OH254110   7.601   7.782   1.042
18078TIP3    H154111   7.659   7.819   0.976
18078TIP3    H254112   7.546   7.720   0.994
18079TIP3   OH254113   7.161   6.798   0.308
18079TIP3    H154114   7.066   6.797   0.294
18079TIP3    H254115   7.183   6.891   0.311
18080TIP3   OH254116   7.259   7.054   0.340
18080TIP3    H154117   7.354   7.047   0.355
18080TIP3    H254118   7.251   7.124   0.275
18081TIP3   OH254119   6.391   7.446   1.182
18081TIP3    H154120   6.407   7.486   1.096
18081TIP3    H254121   6.473   7.403   1.204
18082TIP3   OH254122   6.859   7.644   0.259
18082TIP3    H154123   6.818   7.729   0.268
18082TIP3    H254124   6.805   7.585   0.312
18083TIP3   OH254125   7.301   8.074   1.377
18083TIP3    H154126   7.257   8.107   1.299
18083TIP3    H254127   7.248   8.107   1.450
18084TIP3   OH254128   7.659   7.147   0.218
18084TIP3    H154129   7.597   7.107   0.158
18084TIP3    H254130   7.664   7.239   0.190
18085TIP3   OH254131   7.870   7.968   1.391
18085TIP3    H154132   7.805   7.975   1.321
18085TIP3    H254133   7.952   7.996   1.350
18086TIP3   OH254134   7.355   7.955   0.187
18086TIP3    H154135   7.336   7.915   0.272
18086TIP3    H254136   7.400   7.886   0.138
18087TIP3   OH254137   7.346   7.665   0.911
18087TIP3    H154138   7.301   7.612   0.977
18087TIP3    H254139   7.414   7.608   0.876
18088TIP3   OH254140   6.533   7.813   0.699
18088TIP3    H154141   6.515   7.885   0.638
18088TIP3    H254142   6.459   7.815   0.761
18089TIP3   OH254143   6.146   7.108   0.505
18089TIP3    H154144   6.159   7.202   0.489
18089TIP3    H254145   6.059   7.089   0.471
18090TIP3   OH254146   6.666   7.575   0.692
18090TIP3    H154147   6.639   7.667   0.693
18090TIP3    H254148   6.584   7.526   0.688
18091TIP3   OH254149   6.740   8.249   1.255
18091TIP3    H154150   6.721   8.240   1.162
18091TIP3    H254151   6.829   8.215   1.266
18092TIP3   OH254152   6.413   8.018   0.564
18092TIP3    H154153   6.329   8.018   0.609
18092TIP3    H254154   6.440   8.110   0.563
18093TIP3   OH254155   7.122   7.814   1.204
18093TIP3    H154156   7.109   7.853   1.291
18093TIP3    H254157   7.202   7.854   1.172
18094TIP3   OH254158   7.136   7.678   0.094
18094TIP3    H154159   7.200   7.656   0.162
18094TIP3    H254160   7.052   7.653   0.132
18095TIP3   OH254161   7.469   8.248   1.240
18095TIP3    H154162   7.430   8.184   1.299
18095TIP3    H254163   7.396   8.304   1.212
18096TIP3   OH254164   4.187   3.529   7.886
18096TIP3    H154165   4.208   3.583   7.810
18096TIP3    H254166   4.120   3.579   7.933
18097TIP3   OH254167   7.322   7.613   0.283
18097TIP3    H154168   7.310   7.540   0.345
18097TIP3    H254169   7.417   7.617   0.270
18098TIP3   OH254170   6.491   7.650   0.090
18098TIP3    H154171   6.506   7.561   0.058
18098TIP3    H254172   6.478   7.639   0.185
18099TIP3   OH254173   6.444   7.661   0.362
18099TIP3    H154174   6.510   7.645   0.430
18099TIP3    H254175   6.444   7.756   0.350
18100TIP3   OH254176   6.177   7.378   0.506
18100TIP3    H154177   6.101   7.408   0.555
18100TIP3    H254178   6.185   7.440   0.434
18101TIP3   OH254179   7.204   6.730   0.566
18101TIP3    H154180   7.174   6.741   0.476
18101TIP3    H254181   7.248   6.812   0.587
18102TIP3   OH254182   6.727   7.874   0.300
18102TIP3    H154183   6.633   7.882   0.318
18102TIP3    H254184   6.747   7.948   0.243
18103TIP3   OH254185   6.976   6.941   0.680
18103TIP3    H154186   7.012   7.009   0.623
18103TIP3    H254187   7.049   6.917   0.737
18104TIP3   OH254188   7.141   6.783   0.830
18104TIP3    H154189   7.061   6.752   0.873
18104TIP3    H254190   7.142   6.737   0.746
18105TIP3   OH254191   6.459   7.926   0.318
18105TIP3    H154192   6.439   7.996   0.256
18105TIP3    H254193   6.436   7.962   0.404
18106TIP3   OH254194   6.600   6.700   0.520
18106TIP3    H154195   6.561   6.773   0.567
18106TIP3    H254196   6.694   6.716   0.525
18107TIP3   OH254197   7.478   7.232   0.803
18107TIP3    H154198   7.401   7.279   0.834
18107TIP3    H254199   7.539   7.234   0.876
18108TIP3   OH254200   6.192   7.566   0.309
18108TIP3    H154201   6.266   7.623   0.331
18108TIP3    H254202   6.228   7.503   0.246
18109TIP3   OH254203   6.142   6.873   0.327
18109TIP3    H154204   6.166   6.927   0.403
18109TIP3    H254205   6.076   6.812   0.362
18110TIP3   OH254206   7.458   8.278   0.744
18110TIP3    H154207   7.411   8.345   0.695
18110TIP3    H254208   7.549   8.305   0.741
18111TIP3   OH254209   6.049   7.736   0.741
18111TIP3    H154210   6.033   7.775   0.827
18111TIP3    H254211   6.098   7.804   0.693
18112TIP3   OH254212   3.405   3.204   7.982
18112TIP3    H154213   3.333   3.157   8.026
18112TIP3    H254214   3.474   3.138   7.972
18113TIP3   OH254215   3.875   3.287   7.945
18113TIP3    H154216   3.876   3.218   8.012
18113TIP3    H254217   3.966   3.314   7.936
18114TIP3   OH254218   6.327   7.359   0.192
18114TIP3    H154219   6.373   7.333   0.272
18114TIP3    H254220   6.396   7.366   0.126
18115TIP3   OH254221   6.843   7.601  -0.012
18115TIP3    H154222   6.844   7.612   0.083
18115TIP3    H254223   6.845   7.506  -0.025
18116TIP3   OH254224   7.450   7.863   1.431
18116TIP3    H154225   7.422   7.781   1.390
18116TIP3    H254226   7.393   7.930   1.392
18117TIP3   OH254227   6.516   7.300   0.396
18117TIP3    H154228   6.545   7.264   0.479
18117TIP3    H254229   6.559   7.245   0.330
18118TIP3   OH254230   6.636   7.121   0.232
18118TIP3    H154231   6.611   7.115   0.139
18118TIP3    H254232   6.732   7.118   0.230
18119TIP3   OH254233   4.158   2.792   7.937
18119TIP3    H154234   4.155   2.746   7.853
18119TIP3    H254235   4.123   2.880   7.918
18120TIP3   OH254236   6.458   8.148   0.160
18120TIP3    H154237   6.549   8.130   0.136
18120TIP3    H254238   6.423   8.198   0.086
18121TIP3   OH254239   5.930   7.514   0.344
18121TIP3    H154240   6.019   7.550   0.338
18121TIP3    H254241   5.927   7.447   0.276
18122TIP3   OH254242   5.909   8.013   0.730
18122TIP3    H154243   5.822   8.000   0.692
18122TIP3    H254244   5.903   7.973   0.818
18123TIP3   OH254245   6.009   7.897   0.965
18123TIP3    H154246   5.997   7.854   1.050
18123TIP3    H254247   6.022   7.989   0.986
18124TIP3   OH254248   7.717   8.360   0.763
18124TIP3    H154249   7.740   8.399   0.848
18124TIP3    H254250   7.762   8.415   0.699
18125TIP3   OH254251   7.747   8.400   1.038
18125TIP3    H154252   7.684   8.332   1.014
18125TIP3    H254253   7.773   8.377   1.128
18126TIP3   OH254254   7.596   7.614   0.264
18126TIP3    H154255   7.655   7.682   0.232
18126TIP3    H254256   7.645   7.570   0.334
18127TIP3   OH254257   7.735   7.462   0.447
18127TIP3    H154258   7.674   7.417   0.505
18127TIP3    H254259   7.800   7.502   0.505
18128TIP3   OH254260   7.738   7.846   0.820
18128TIP3    H154261   7.821   7.799   0.815
18128TIP3    H254262   7.757   7.932   0.782
18129TIP3   OH254263   7.615   8.150   1.036
18129TIP3    H154264   7.555   8.188   1.100
18129TIP3    H254265   7.558   8.107   0.972
18130TIP3   OH254266   7.639   7.393   0.104
18130TIP3    H154267   7.565   7.395   0.043
18130TIP3    H254268   7.625   7.470   0.161
18131TIP3   OH254269   7.472   7.042   0.054
18131TIP3    H154270   7.426   7.070  -0.026
18131TIP3    H254271   7.471   6.946   0.049
18132TIP3   OH254272   7.526   7.296   0.544
18132TIP3    H154273   7.534   7.207   0.509
18132TIP3    H254274   7.521   7.284   0.639
18133TIP3   OH254275   7.891   7.722   1.500
18133TIP3    H154276   7.842   7.676   1.431
18133TIP3    H254277   7.899   7.812   1.469
18134TIP3   OH254278   7.885   7.425   1.467
18134TIP3    H154279   7.832   7.391   1.539
18134TIP3    H254280   7.960   7.467   1.510
18135TIP3   OH254281   7.452   6.772   0.025
18135TIP3    H154282   7.519   6.736   0.083
18135TIP3    H254283   7.374   6.718   0.042
18136TIP3   OH254284   7.524   7.035   0.426
18136TIP3    H154285   7.576   6.960   0.455
18136TIP3    H254286   7.575   7.074   0.355
18137TIP3   OH254287   7.656   7.176   0.995
18137TIP3    H154288   7.740   7.144   0.963
18137TIP3    H254289   7.630   7.113   1.062
18138TIP3   OH254290   7.842   7.331   1.165
18138TIP3    H154291   7.756   7.293   1.182
18138TIP3    H254292   7.827   7.396   1.095
18139TIP3   OH254293   7.653   6.807   0.523
18139TIP3    H154294   7.650   6.846   0.610
18139TIP3    H254295   7.590   6.735   0.526
18140TIP3   OH254296   7.683   6.713   0.170
18140TIP3    H154297   7.726   6.653   0.110
18140TIP3    H254298   7.739   6.791   0.170
18141TIP3   OH254299   6.224   6.575   0.975
18141TIP3    H154300   6.153   6.522   1.010
18141TIP3    H254301   6.187   6.619   0.899
18142TIP3   OH254302   7.265   8.269   0.450
18142TIP3    H154303   7.319   8.258   0.371
18142TIP3    H254304   7.306   8.340   0.498
18143TIP3   OH254305   6.569   8.122   1.424
18143TIP3    H154306   6.490   8.159   1.384
18143TIP3    H254307   6.641   8.153   1.368
18144TIP3   OH254308   7.226   8.385   1.430
18144TIP3    H154309   7.249   8.396   1.337
18144TIP3    H254310   7.251   8.468   1.471
18145TIP3   OH254311   6.424   8.309   1.269
18145TIP3    H154312   6.417   8.379   1.335
18145TIP3    H254313   6.479   8.348   1.200
18146TIP3   OH254314   6.927   8.385   0.942
18146TIP3    H154315   6.845   8.372   0.893
18146TIP3    H254316   6.923   8.475   0.972
18147TIP3   OH254317   7.198   8.201   1.167
18147TIP3    H154318   7.103   8.187   1.165
18147TIP3    H254319   7.214   8.267   1.100
18148TIP3   OH254320   7.435   8.506   0.916
18148TIP3    H154321   7.414   8.570   0.847
18148TIP3    H254322   7.414   8.421   0.876
18149TIP3   OH254323   6.127   8.111   1.275
18149TIP3    H154324   6.168   8.120   1.362
18149TIP3    H254325   6.199   8.086   1.217
18150TIP3   OH254326   6.349   7.887   0.894
18150TIP3    H154327   6.340   7.883   0.989
18150TIP3    H254328   6.384   7.974   0.876
18151TIP3   OH254329   6.701   8.133   0.988
18151TIP3    H154330   6.628   8.149   0.930
18151TIP3    H254331   6.667   8.073   1.055
18152TIP3   OH254332   7.205   6.724   1.149
18152TIP3    H154333   7.131   6.669   1.175
18152TIP3    H254334   7.269   6.663   1.113
18153TIP3   OH254335   6.248   6.360   0.808
18153TIP3    H154336   6.257   6.437   0.864
18153TIP3    H254337   6.240   6.286   0.868
18154TIP3   OH254338   6.746   6.546   1.067
18154TIP3    H154339   6.740   6.598   0.987
18154TIP3    H254340   6.793   6.603   1.129
18155TIP3   OH254341   7.427   6.582   1.061
18155TIP3    H154342   7.436   6.620   0.973
18155TIP3    H254343   7.446   6.489   1.049
18156TIP3   OH254344   7.450   6.617   0.523
18156TIP3    H154345   7.361   6.650   0.511
18156TIP3    H254346   7.439   6.527   0.554
18157TIP3   OH254347   5.970   7.915   0.456
18157TIP3    H154348   5.914   7.981   0.416
18157TIP3    H254349   6.006   7.957   0.534
18158TIP3   OH254350   6.867   6.719   0.564
18158TIP3    H154351   6.931   6.666   0.611
18158TIP3    H254352   6.889   6.809   0.588
18159TIP3   OH254353   6.713   8.068   0.104
18159TIP3    H154354   6.797   8.099   0.069
18159TIP3    H254355   6.693   7.990   0.052
18160TIP3   OH254356   7.409   8.221   0.219
18160TIP3    H154357   7.398   8.127   0.208
18160TIP3    H254358   7.370   8.260   0.141
18161TIP3   OH254359   6.014   7.901   0.175
18161TIP3    H154360   6.012   7.901   0.271
18161TIP3    H254361   6.099   7.862   0.153
18162TIP3   OH254362   7.600   8.372   1.515
18162TIP3    H154363   7.527   8.355   1.574
18162TIP3    H254364   7.617   8.465   1.525
18163TIP3   OH254365   8.907   7.748   0.151
18163TIP3    H154366   8.877   7.836   0.126
18163TIP3    H254367   8.836   7.690   0.124
18164TIP3   OH254368   8.900   7.743   0.557
18164TIP3    H154369   8.964   7.725   0.626
18164TIP3    H254370   8.859   7.659   0.539
18165TIP3   OH254371   8.208   7.633   0.890
18165TIP3    H154372   8.239   7.583   0.965
18165TIP3    H254373   8.286   7.644   0.835
18166TIP3   OH254374   9.176   8.049   0.247
18166TIP3    H154375   9.167   7.982   0.315
18166TIP3    H254376   9.196   8.129   0.295
18167TIP3   OH254377   8.199   8.034   0.617
18167TIP3    H154378   8.178   7.940   0.614
18167TIP3    H254379   8.294   8.038   0.603
18168TIP3   OH254380   7.876   7.224   0.386
18168TIP3    H154381   7.844   7.311   0.408
18168TIP3    H254382   7.808   7.185   0.332
18169TIP3   OH254383   7.967   7.572   0.563
18169TIP3    H154384   8.024   7.496   0.569
18169TIP3    H254385   8.025   7.645   0.542
18170TIP3   OH254386   8.831   8.472   0.259
18170TIP3    H154387   8.860   8.408   0.194
18170TIP3    H254388   8.833   8.425   0.342
18171TIP3   OH254389   8.723   7.966   0.562
18171TIP3    H154390   8.770   7.887   0.534
18171TIP3    H254391   8.791   8.024   0.596
18172TIP3   OH254392   9.756   7.283   0.590
18172TIP3    H154393   9.769   7.368   0.632
18172TIP3    H254394   9.787   7.296   0.501
18173TIP3   OH254395   9.123   7.445   0.602
18173TIP3    H154396   9.162   7.364   0.635
18173TIP3    H254397   9.077   7.419   0.523
18174TIP3   OH254398   8.474   7.073   0.565
18174TIP3    H154399   8.465   7.151   0.510
18174TIP3    H254400   8.422   7.006   0.520
18175TIP3   OH254401   9.170   7.211   0.206
18175TIP3    H154402   9.236   7.206   0.275
18175TIP3    H254403   9.217   7.245   0.130
18176TIP3   OH254404   8.135   7.361   0.612
18176TIP3    H154405   8.209   7.325   0.660
18176TIP3    H254406   8.120   7.299   0.540
18177TIP3   OH254407   8.522   7.521   0.501
18177TIP3    H154408   8.617   7.511   0.503
18177TIP3    H254409   8.490   7.435   0.475
18178TIP3   OH254410   9.802   7.505   0.758
18178TIP3    H154411   9.712   7.538   0.753
18178TIP3    H254412   9.835   7.539   0.841
18179TIP3   OH254413   8.472   7.139   0.978
18179TIP3    H154414   8.402   7.172   0.922
18179TIP3    H254415   8.427   7.098   1.051
18180TIP3   OH254416   5.539   3.348   8.016
18180TIP3    H154417   5.500   3.318   7.934
18180TIP3    H254418   5.486   3.424   8.042
18181TIP3   OH254419   8.572   7.882   0.773
18181TIP3    H154420   8.529   7.957   0.814
18181TIP3    H254421   8.620   7.919   0.699
18182TIP3   OH254422   9.342   7.239   0.414
18182TIP3    H154423   9.302   7.211   0.496
18182TIP3    H254424   9.398   7.313   0.438
18183TIP3   OH254425   8.330   7.225   0.751
18183TIP3    H154426   8.396   7.294   0.764
18183TIP3    H254427   8.371   7.164   0.690
18184TIP3   OH254428   8.436   8.090   0.889
18184TIP3    H154429   8.394   8.172   0.863
18184TIP3    H254430   8.368   8.041   0.935
18185TIP3   OH254431   7.771   7.795   0.150
18185TIP3    H154432   7.743   7.812   0.060
18185TIP3    H254433   7.796   7.881   0.185
18186TIP3   OH254434   9.211   8.292   0.391
18186TIP3    H154435   9.124   8.285   0.429
18186TIP3    H254436   9.210   8.376   0.344
18187TIP3   OH254437   9.548   7.187   0.755
18187TIP3    H154438   9.463   7.209   0.715
18187TIP3    H254439   9.612   7.211   0.688
18188TIP3   OH254440   8.832   6.834   0.704
18188TIP3    H154441   8.824   6.740   0.718
18188TIP3    H254442   8.753   6.871   0.743
18189TIP3   OH254443   8.922   8.321   0.044
18189TIP3    H154444   8.974   8.242   0.031
18189TIP3    H254445   8.979   8.392   0.018
18190TIP3   OH254446   9.059   8.089  -0.000
18190TIP3    H154447   8.983   8.031   0.003
18190TIP3    H254448   9.108   8.068   0.079
18191TIP3   OH254449   9.451   8.178   0.736
18191TIP3    H154450   9.430   8.106   0.677
18191TIP3    H254451   9.434   8.257   0.685
18192TIP3   OH254452   5.466   2.970   8.002
18192TIP3    H154453   5.383   3.013   7.983
18192TIP3    H254454   5.513   2.970   7.919
18193TIP3   OH254455   5.435   2.774   7.695
18193TIP3    H154456   5.500   2.823   7.745
18193TIP3    H254457   5.485   2.706   7.650
18194TIP3   OH254458   9.626   7.848   0.601
18194TIP3    H154459   9.540   7.891   0.598
18194TIP3    H254460   9.661   7.861   0.513
18195TIP3   OH254461   9.094   7.672  -0.034
18195TIP3    H154462   9.039   7.703   0.038
18195TIP3    H254463   9.177   7.648   0.006
18196TIP3   OH254464   9.329   7.720   0.895
18196TIP3    H154465   9.320   7.799   0.949
18196TIP3    H254466   9.253   7.723   0.836
18197TIP3   OH254467   8.317   7.653   0.364
18197TIP3    H154468   8.282   7.593   0.298
18197TIP3    H254469   8.392   7.607   0.401
18198TIP3   OH254470   8.459   8.070   0.508
18198TIP3    H154471   8.436   8.061   0.416
18198TIP3    H254472   8.549   8.038   0.514
18199TIP3   OH254473   8.423   7.659   0.721
18199TIP3    H154474   8.459   7.625   0.639
18199TIP3    H254475   8.476   7.737   0.739
18200TIP3   OH254476   8.973   8.287   0.521
18200TIP3    H154477   8.957   8.369   0.569
18200TIP3    H254478   8.957   8.218   0.585
18201TIP3   OH254479   8.617   8.190   1.068
18201TIP3    H154480   8.562   8.262   1.097
18201TIP3    H254481   8.563   8.141   1.005
18202TIP3   OH254482   5.656   2.918   7.797
18202TIP3    H154483   5.716   2.975   7.845
18202TIP3    H254484   5.687   2.922   7.706
18203TIP3   OH254485   8.456   7.743   1.099
18203TIP3    H154486   8.413   7.826   1.077
18203TIP3    H254487   8.394   7.676   1.070
18204TIP3   OH254488   8.670   8.208   0.051
18204TIP3    H154489   8.753   8.255   0.057
18204TIP3    H254490   8.612   8.269   0.005
18205TIP3   OH254491   8.442   8.397   1.100
18205TIP3    H154492   8.407   8.394   1.011
18205TIP3    H254493   8.365   8.387   1.156
18206TIP3   OH254494   6.156   2.139   7.848
18206TIP3    H154495   6.083   2.163   7.905
18206TIP3    H254496   6.170   2.217   7.794
18207TIP3   OH254497   8.195   7.492   0.167
18207TIP3    H154498   8.118   7.539   0.137
18207TIP3    H254499   8.165   7.403   0.182
18208TIP3   OH254500   5.990   3.519   7.412
18208TIP3    H154501   5.982   3.613   7.392
18208TIP3    H254502   6.079   3.497   7.382
18209TIP3   OH254503   8.013   7.917   0.948
18209TIP3    H154504   7.961   7.998   0.952
18209TIP3    H254505   7.965   7.856   1.004
18210TIP3   OH254506   7.825   8.097   0.730
18210TIP3    H154507   7.920   8.106   0.736
18210TIP3    H254508   7.791   8.182   0.757
18211TIP3   OH254509   9.676   8.555   0.801
18211TIP3    H154510   9.682   8.460   0.811
18211TIP3    H254511   9.596   8.579   0.848
18212TIP3   OH254512   8.788   8.341   0.917
18212TIP3    H154513   8.778   8.431   0.948
18212TIP3    H254514   8.724   8.291   0.969
18213TIP3   OH254515   5.295   3.810   7.886
18213TIP3    H154516   5.252   3.792   7.802
18213TIP3    H254517   5.261   3.896   7.913
18214TIP3   OH254518   7.993   8.286   0.252
18214TIP3    H154519   8.044   8.276   0.333
18214TIP3    H254520   7.948   8.202   0.242
18215TIP3   OH254521   5.495   3.746   7.511
18215TIP3    H154522   5.547   3.673   7.476
18215TIP3    H254523   5.531   3.761   7.598
18216TIP3   OH254524   5.549   3.796   7.780
18216TIP3    H154525   5.464   3.794   7.823
18216TIP3    H254526   5.611   3.766   7.847
18217TIP3   OH254527   9.562   7.664   1.073
18217TIP3    H154528   9.482   7.673   1.021
18217TIP3    H254529   9.583   7.571   1.068
18218TIP3   OH254530   8.185   8.207   1.012
18218TIP3    H154531   8.240   8.210   1.090
18218TIP3    H254532   8.168   8.114   0.999
18219TIP3   OH254533   8.589   6.941   0.785
18219TIP3    H154534   8.545   6.975   0.707
18219TIP3    H254535   8.607   7.019   0.837
18220TIP3   OH254536   9.182   7.047   1.111
18220TIP3    H154537   9.250   6.992   1.149
18220TIP3    H254538   9.111   6.987   1.090
18221TIP3   OH254539   9.322   7.450   0.961
18221TIP3    H154540   9.288   7.444   1.051
18221TIP3    H254541   9.306   7.541   0.936
18222TIP3   OH254542   5.739   2.891   7.536
18222TIP3    H154543   5.691   2.897   7.453
18222TIP3    H254544   5.820   2.938   7.520
18223TIP3   OH254545   5.441   2.324   7.849
18223TIP3    H154546   5.405   2.327   7.938
18223TIP3    H254547   5.408   2.241   7.813
18224TIP3   OH254548   8.520   7.411   0.809
18224TIP3    H154549   8.535   7.412   0.904
18224TIP3    H254550   8.494   7.501   0.788
18225TIP3   OH254551   8.396   7.287   0.412
18225TIP3    H154552   8.303   7.266   0.425
18225TIP3    H254553   8.413   7.264   0.321
18226TIP3   OH254554   8.857   7.383   0.131
18226TIP3    H154555   8.811   7.457   0.092
18226TIP3    H254556   8.916   7.352   0.063
18227TIP3   OH254557   9.097   7.694   1.199
18227TIP3    H154558   9.066   7.632   1.265
18227TIP3    H254559   9.191   7.701   1.213
18228TIP3   OH254560   9.010   7.384   0.360
18228TIP3    H154561   8.951   7.406   0.288
18228TIP3    H254562   9.067   7.315   0.325
18229TIP3   OH254563   8.315   7.495   1.103
18229TIP3    H154564   8.312   7.523   1.195
18229TIP3    H254565   8.264   7.414   1.101
18230TIP3   OH254566   5.108   2.295   7.834
18230TIP3    H154567   5.100   2.303   7.929
18230TIP3    H254568   5.031   2.341   7.799
18231TIP3   OH254569   7.979   6.927   0.636
18231TIP3    H154570   8.036   6.861   0.676
18231TIP3    H254571   7.956   6.890   0.550
18232TIP3   OH254572   7.840   6.942   0.178
18232TIP3    H154573   7.888   6.973   0.102
18232TIP3    H254574   7.779   7.013   0.200
18233TIP3   OH254575   9.087   7.670   0.750
18233TIP3    H154576   9.110   7.595   0.695
18233TIP3    H254577   9.056   7.631   0.832
18234TIP3   OH254578   8.750   7.104   0.450
18234TIP3    H154579   8.680   7.089   0.513
18234TIP3    H254580   8.831   7.100   0.502
18235TIP3   OH254581   8.146   7.168   0.423
18235TIP3    H154582   8.052   7.165   0.403
18235TIP3    H254583   8.175   7.078   0.413
18236TIP3   OH254584   8.397   7.183   0.157
18236TIP3    H154585   8.491   7.196   0.145
18236TIP3    H254586   8.359   7.203   0.071
18237TIP3   OH254587   9.205   7.180   0.644
18237TIP3    H154588   9.194   7.189   0.739
18237TIP3    H254589   9.133   7.124   0.616
18238TIP3   OH254590   5.011   2.588   7.914
18238TIP3    H154591   4.948   2.539   7.862
18238TIP3    H254592   5.064   2.635   7.850
18239TIP3   OH254593   9.389   8.890   0.891
18239TIP3    H154594   9.382   8.910   0.797
18239TIP3    H254595   9.466   8.938   0.920
18240TIP3   OH254596   8.365   8.070   1.335
18240TIP3    H154597   8.453   8.077   1.373
18240TIP3    H254598   8.311   8.035   1.406
18241TIP3   OH254599   8.800   7.473   0.533
18241TIP3    H154600   8.865   7.437   0.473
18241TIP3    H254601   8.809   7.421   0.612
18242TIP3   OH254602   8.291   6.923   0.404
18242TIP3    H154603   8.242   6.846   0.433
18242TIP3    H254604   8.316   6.902   0.314
18243TIP3   OH254605   8.789   7.346   0.783
18243TIP3    H154606   8.700   7.381   0.786
18243TIP3    H254607   8.839   7.403   0.840
18244TIP3   OH254608   5.227   3.101   7.948
18244TIP3    H154609   5.151   3.047   7.924
18244TIP3    H254610   5.201   3.143   8.030
18245TIP3   OH254611   9.389   7.981   0.554
18245TIP3    H154612   9.425   8.032   0.482
18245TIP3    H254613   9.310   7.940   0.519
18246TIP3   OH254614   5.696   2.423   7.853
18246TIP3    H154615   5.602   2.404   7.850
18246TIP3    H254616   5.700   2.518   7.866
18247TIP3   OH254617   8.907   8.063   0.966
18247TIP3    H154618   8.967   8.058   1.040
18247TIP3    H254619   8.867   8.149   0.973
18248TIP3   OH254620   5.757   2.687   7.921
18248TIP3    H154621   5.852   2.690   7.933
18248TIP3    H254622   5.736   2.765   7.871
18249TIP3   OH254623   8.184   7.752   0.582
18249TIP3    H154624   8.224   7.730   0.498
18249TIP3    H254625   8.247   7.723   0.647
18250TIP3   OH254626   5.383   3.264   7.796
18250TIP3    H154627   5.336   3.347   7.792
18250TIP3    H254628   5.326   3.207   7.847
18251TIP3   OH254629   8.140   7.748   1.260
18251TIP3    H154630   8.219   7.729   1.312
18251TIP3    H254631   8.111   7.662   1.229
18252TIP3   OH254632   8.859   7.827   1.253
18252TIP3    H154633   8.805   7.762   1.208
18252TIP3    H254634   8.948   7.810   1.223
18253TIP3   OH254635   9.058   8.349   0.852
18253TIP3    H154636   8.962   8.341   0.853
18253TIP3    H254637   9.079   8.390   0.936
18254TIP3   OH254638   6.170   2.775   7.741
18254TIP3    H154639   6.115   2.729   7.678
18254TIP3    H254640   6.177   2.864   7.706
18255TIP3   OH254641   9.694   8.279   0.822
18255TIP3    H154642   9.601   8.256   0.822
18255TIP3    H254643   9.727   8.244   0.739
18256TIP3   OH254644   5.917   3.589   7.681
18256TIP3    H154645   5.883   3.522   7.740
18256TIP3    H254646   5.929   3.543   7.598
18257TIP3   OH254647   9.163   7.848   0.446
18257TIP3    H154648   9.071   7.829   0.464
18257TIP3    H254649   9.198   7.765   0.411
18258TIP3   OH254650   8.320   8.083   0.265
18258TIP3    H154651   8.323   8.158   0.204
18258TIP3    H254652   8.232   8.086   0.301
18259TIP3   OH254653   4.612   2.750   7.973
18259TIP3    H154654   4.657   2.831   7.996
18259TIP3    H254655   4.529   2.754   8.021
18260TIP3   OH254656   8.396   7.836   0.169
18260TIP3    H154657   8.381   7.926   0.199
18260TIP3    H254658   8.370   7.782   0.244
18261TIP3   OH254659   8.614   8.403   0.700
18261TIP3    H154660   8.645   8.481   0.654
18261TIP3    H254661   8.687   8.377   0.756
18262TIP3   OH254662   8.234   8.306   0.115
18262TIP3    H154663   8.146   8.316   0.151
18262TIP3    H254664   8.271   8.395   0.118
18263TIP3   OH254665   8.950   8.065   0.693
18263TIP3    H154666   8.933   8.061   0.787
18263TIP3    H254667   9.033   8.019   0.681
18264TIP3   OH254668   5.680   3.325   7.560
18264TIP3    H154669   5.729   3.294   7.636
18264TIP3    H254670   5.595   3.281   7.566
18265TIP3   OH254671   9.205   8.564   0.734
18265TIP3    H154672   9.133   8.503   0.749
18265TIP3    H254673   9.174   8.619   0.661
18266TIP3   OH254674   5.980   3.792   7.367
18266TIP3    H154675   5.983   3.847   7.288
18266TIP3    H254676   5.914   3.834   7.422
18267TIP3   OH254677   8.296   7.268   1.318
18267TIP3    H154678   8.204   7.244   1.307
18267TIP3    H254679   8.340   7.185   1.336
18268TIP3   OH254680   5.851   3.229   7.752
18268TIP3    H154681   5.836   3.180   7.833
18268TIP3    H254682   5.946   3.241   7.749
18269TIP3   OH254683   8.016   8.349   0.854
18269TIP3    H154684   8.088   8.304   0.898
18269TIP3    H254685   8.026   8.440   0.878
18270TIP3   OH254686   5.030   3.290   7.580
18270TIP3    H154687   5.039   3.199   7.553
18270TIP3    H254688   5.012   3.286   7.674
18271TIP3   OH254689   4.964   3.303   7.852
18271TIP3    H154690   5.032   3.278   7.914
18271TIP3    H254691   4.963   3.399   7.856
18272TIP3   OH254692   7.971   7.618   0.060
18272TIP3    H154693   7.907   7.666   0.112
18272TIP3    H254694   7.990   7.676  -0.014
18273TIP3   OH254695   9.165   7.229   0.904
18273TIP3    H154696   9.215   7.307   0.927
18273TIP3    H254697   9.174   7.172   0.980
18274TIP3   OH254698   9.025   6.991   0.117
18274TIP3    H154699   9.006   7.011   0.026
18274TIP3    H254700   9.069   7.069   0.150
18275TIP3   OH254701   5.235   3.491   7.789
18275TIP3    H154702   5.150   3.515   7.826
18275TIP3    H254703   5.260   3.565   7.735
18276TIP3   OH254704   8.672   7.194   0.203
18276TIP3    H154705   8.734   7.262   0.175
18276TIP3    H254706   8.698   7.173   0.292
18277TIP3   OH254707   9.008   7.557   0.979
18277TIP3    H154708   9.039   7.605   1.055
18277TIP3    H254709   8.975   7.475   1.014
18278TIP3   OH254710   8.836   6.889   0.287
18278TIP3    H154711   8.819   6.966   0.340
18278TIP3    H254712   8.909   6.915   0.230
18279TIP3   OH254713   4.984   3.574   7.868
18279TIP3    H154714   4.966   3.644   7.805
18279TIP3    H254715   4.977   3.617   7.953
18280TIP3   OH254716   8.349   6.911   0.118
18280TIP3    H154717   8.341   7.005   0.135
18280TIP3    H254718   8.443   6.894   0.117
18281TIP3   OH254719   9.587   7.392   0.973
18281TIP3    H154720   9.492   7.403   0.974
18281TIP3    H254721   9.603   7.329   0.903
18282TIP3   OH254722   9.255   7.587   0.367
18282TIP3    H154723   9.179   7.534   0.392
18282TIP3    H254724   9.327   7.551   0.418
18283TIP3   OH254725   4.717   3.175   7.843
18283TIP3    H154726   4.787   3.239   7.852
18283TIP3    H254727   4.750   3.112   7.778
18284TIP3   OH254728   4.640   2.472   7.962
18284TIP3    H154729   4.650   2.567   7.975
18284TIP3    H254730   4.597   2.464   7.877
18285TIP3   OH254731   9.230   8.556   0.303
18285TIP3    H154732   9.186   8.608   0.236
18285TIP3    H254733   9.323   8.572   0.288
18286TIP3   OH254734   8.303   6.845   0.717
18286TIP3    H154735   8.263   6.816   0.635
18286TIP3    H254736   8.376   6.785   0.730
18287TIP3   OH254737   7.819   8.058   0.235
18287TIP3    H154738   7.786   8.098   0.316
18287TIP3    H254739   7.774   8.104   0.165
18288TIP3   OH254740   8.055   8.593   1.277
18288TIP3    H154741   8.138   8.587   1.324
18288TIP3    H254742   7.996   8.534   1.324
18289TIP3   OH254743   8.507   8.567   1.311
18289TIP3    H154744   8.581   8.526   1.357
18289TIP3    H254745   8.501   8.520   1.228
18290TIP3   OH254746   5.181   3.495   7.470
18290TIP3    H154747   5.135   3.423   7.514
18290TIP3    H254748   5.255   3.453   7.426
18291TIP3   OH254749   9.108   8.455   1.100
18291TIP3    H154750   9.124   8.384   1.161
18291TIP3    H254751   9.182   8.515   1.113
18292TIP3   OH254752   5.626   3.536   7.392
18292TIP3    H154753   5.662   3.470   7.452
18292TIP3    H254754   5.683   3.531   7.315
18293TIP3   OH254755   8.147   7.983   1.482
18293TIP3    H154756   8.149   7.893   1.514
18293TIP3    H254757   8.133   7.976   1.388
18294TIP3   OH254758   4.843   2.985   7.692
18294TIP3    H154759   4.895   2.961   7.769
18294TIP3    H254760   4.908   2.999   7.623
18295TIP3   OH254761   8.769   8.090   1.272
18295TIP3    H154762   8.720   8.111   1.192
18295TIP3    H254763   8.815   8.009   1.251
18296TIP3   OH254764   5.429   3.205   7.532
18296TIP3    H154765   5.403   3.217   7.623
18296TIP3    H254766   5.406   3.114   7.513
18297TIP3   OH254767   9.221   8.123   0.885
18297TIP3    H154768   9.300   8.150   0.837
18297TIP3    H254769   9.159   8.194   0.869
18298TIP3   OH254770   8.177   7.732   1.569
18298TIP3    H154771   8.153   7.647   1.533
18298TIP3    H254772   8.145   7.729   1.659
18299TIP3   OH254773   5.018   2.924   7.901
18299TIP3    H154774   5.002   2.892   7.990
18299TIP3    H254775   5.068   2.853   7.859
18300TIP3   OH254776   8.705   7.641   1.126
18300TIP3    H154777   8.622   7.690   1.128
18300TIP3    H254778   8.737   7.652   1.036
18301TIP3   OH254779   5.161   2.742   7.744
18301TIP3    H154780   5.133   2.746   7.652
18301TIP3    H254781   5.257   2.751   7.740
18302TIP3   OH254782   9.123   7.999   1.247
18302TIP3    H154783   9.189   7.966   1.186
18302TIP3    H254784   9.130   7.942   1.323
18303TIP3   OH254785   5.957   3.026   7.427
18303TIP3    H154786   5.943   2.987   7.340
18303TIP3    H254787   5.934   3.118   7.415
18304TIP3   OH254788   8.772   7.428   1.319
18304TIP3    H154789   8.725   7.346   1.307
18304TIP3    H254790   8.788   7.460   1.231
18305TIP3   OH254791   8.738   7.133   0.952
18305TIP3    H154792   8.773   7.185   0.879
18305TIP3    H254793   8.649   7.164   0.963
18306TIP3   OH254794   8.752   7.696   0.867
18306TIP3    H154795   8.839   7.728   0.844
18306TIP3    H254796   8.692   7.764   0.837
18307TIP3   OH254797   9.350   7.697   1.304
18307TIP3    H154798   9.376   7.623   1.359
18307TIP3    H254799   9.432   7.728   1.265
18308TIP3   OH254800   9.342   7.953   1.060
18308TIP3    H154801   9.290   8.014   1.006
18308TIP3    H254802   9.432   7.965   1.029
18309TIP3   OH254803   8.613   7.566   1.483
18309TIP3    H154804   8.552   7.498   1.512
18309TIP3    H254805   8.680   7.519   1.432
18310TIP3   OH254806   8.925   6.945   1.047
18310TIP3    H154807   8.857   7.008   1.022
18310TIP3    H254808   8.885   6.893   1.117
18311TIP3   OH254809   9.030   7.501   1.375
18311TIP3    H154810   9.062   7.490   1.464
18311TIP3    H254811   8.941   7.466   1.377
18312TIP3   OH254812   9.230   7.411   1.208
18312TIP3    H154813   9.154   7.442   1.257
18312TIP3    H254814   9.271   7.348   1.267
18313TIP3   OH254815   9.543   7.352   1.363
18313TIP3    H154816   9.492   7.272   1.364
18313TIP3    H254817   9.496   7.412   1.422
18314TIP3   OH254818   8.420   7.381   1.526
18314TIP3    H154819   8.391   7.335   1.448
18314TIP3    H254820   8.395   7.324   1.599
18315TIP3   OH254821   9.094   6.921   1.419
18315TIP3    H154822   9.139   6.836   1.423
18315TIP3    H254823   9.029   6.910   1.350
18316TIP3   OH254824   9.049   7.214   1.552
18316TIP3    H154825   9.025   7.129   1.590
18316TIP3    H254826   8.974   7.271   1.571
18317TIP3   OH254827   4.978   3.773   7.679
18317TIP3    H154828   5.070   3.765   7.655
18317TIP3    H254829   4.937   3.815   7.604
18318TIP3   OH254830   4.442   3.163   7.871
18318TIP3    H154831   4.536   3.180   7.860
18318TIP3    H254832   4.427   3.081   7.825
18319TIP3   OH254833   7.619   8.371   0.315
18319TIP3    H154834   7.556   8.317   0.267
18319TIP3    H254835   7.666   8.308   0.370
18320TIP3   OH254836   7.766   8.199   0.473
18320TIP3    H154837   7.761   8.138   0.547
18320TIP3    H254838   7.822   8.271   0.505
18321TIP3   OH254839   9.500   8.614   0.298
18321TIP3    H154840   9.516   8.638   0.389
18321TIP3    H254841   9.544   8.682   0.247
18322TIP3   OH254842   9.514   8.642   0.577
18322TIP3    H154843   9.468   8.558   0.575
18322TIP3    H254844   9.585   8.630   0.640
18323TIP3   OH254845   9.576   8.346   1.148
18323TIP3    H154846   9.507   8.355   1.213
18323TIP3    H254847   9.622   8.430   1.150
18324TIP3   OH254848   6.132   3.238   7.759
18324TIP3    H154849   6.188   3.311   7.732
18324TIP3    H254850   6.174   3.202   7.837
18325TIP3   OH254851   9.524   7.722  -0.035
18325TIP3    H154852   9.458   7.682   0.021
18325TIP3    H254853   9.590   7.756   0.026
18326TIP3   OH254854   9.571   8.123   0.397
18326TIP3    H154855   9.623   8.056   0.352
18326TIP3    H254856   9.573   8.198   0.337
18327TIP3   OH254857   9.377   8.399   0.589
18327TIP3    H154858   9.309   8.446   0.638
18327TIP3    H254859   9.330   8.360   0.516
18328TIP3   OH254860   6.169   3.015   7.603
18328TIP3    H154861   6.096   3.011   7.541
18328TIP3    H254862   6.151   3.091   7.657
18329TIP3   OH254863   6.021   2.663   7.541
18329TIP3    H154864   5.970   2.698   7.468
18329TIP3    H254865   6.014   2.568   7.532
18330TIP3   OH254866   9.322   7.576   0.097
18330TIP3    H154867   9.326   7.482   0.082
18330TIP3    H254868   9.302   7.585   0.191
18331TIP3   OH254869   7.945   7.667   0.817
18331TIP3    H154870   7.948   7.641   0.725
18331TIP3    H254871   8.034   7.695   0.837
18332TIP3   OH254872   9.595   7.991   0.954
18332TIP3    H154873   9.663   7.925   0.938
18332TIP3    H254874   9.594   8.045   0.875
18333TIP3   OH254875   9.777   7.783   0.949
18333TIP3    H154876   9.705   7.740   0.994
18333TIP3    H254877   9.854   7.731   0.970
18334TIP3   OH254878   5.980   2.393   7.513
18334TIP3    H154879   6.046   2.366   7.577
18334TIP3    H254880   5.898   2.353   7.544
18335TIP3   OH254881   6.045   2.680   7.979
18335TIP3    H154882   6.090   2.597   7.994
18335TIP3    H254883   6.088   2.718   7.903
18336TIP3   OH254884   9.472   7.469   0.503
18336TIP3    H154885   9.554   7.487   0.456
18336TIP3    H254886   9.486   7.507   0.590
18337TIP3   OH254887   9.545   7.618   0.730
18337TIP3    H154888   9.472   7.648   0.786
18337TIP3    H254889   9.576   7.698   0.687
18338TIP3   OH254890   8.157   7.470   1.490
18338TIP3    H154891   8.247   7.486   1.462
18338TIP3    H254892   8.155   7.377   1.512
18339TIP3   OH254893   0.202   7.237   1.256
18339TIP3    H154894   0.261   7.168   1.228
18339TIP3    H254895   0.172   7.279   1.175
18340TIP3   OH254896   9.426   7.051   0.035
18340TIP3    H154897   9.470   7.038   0.119
18340TIP3    H254898   9.366   6.977   0.028
18341TIP3   OH254899   8.180   7.023   0.888
18341TIP3    H154900   8.217   6.956   0.831
18341TIP3    H254901   8.195   7.105   0.841
18342TIP3   OH254902   8.029   7.397   0.858
18342TIP3    H154903   8.060   7.381   0.769
18342TIP3    H254904   8.040   7.491   0.870
18343TIP3   OH254905   0.065   7.335   1.042
18343TIP3    H154906  -0.007   7.377   1.087
18343TIP3    H254907   0.026   7.259   0.999
18344TIP3   OH254908   6.202   2.347   7.673
18344TIP3    H154909   6.247   2.284   7.616
18344TIP3    H254910   6.261   2.422   7.678
18345TIP3   OH254911   7.902   6.796   0.400
18345TIP3    H154912   7.816   6.786   0.440
18345TIP3    H254913   7.887   6.854   0.325
18346TIP3   OH254914   5.796   3.904   7.943
18346TIP3    H154915   5.853   3.896   7.866
18346TIP3    H254916   5.832   3.977   7.993
18347TIP3   OH254917   8.114   6.808   1.187
18347TIP3    H154918   8.073   6.792   1.272
18347TIP3    H254919   8.130   6.902   1.185
18348TIP3   OH254920   8.275   8.322   1.299
18348TIP3    H154921   8.306   8.232   1.305
18348TIP3    H254922   8.320   8.368   1.370
18349TIP3   OH254923   8.381   8.363   0.835
18349TIP3    H154924   8.332   8.439   0.804
18349TIP3    H254925   8.466   8.369   0.790
18350TIP3   OH254926   8.767   8.601   1.008
18350TIP3    H154927   8.804   8.597   1.096
18350TIP3    H254928   8.829   8.656   0.959
18351TIP3   OH254929   8.959   8.753   0.882
18351TIP3    H154930   9.022   8.704   0.829
18351TIP3    H254931   9.013   8.811   0.936
18352TIP3   OH254932   9.761   7.087   0.963
18352TIP3    H154933   9.673   7.075   0.926
18352TIP3    H254934   9.800   6.999   0.959
18353TIP3   OH254935   8.042   8.623   0.887
18353TIP3    H154936   7.962   8.642   0.839
18353TIP3    H254937   8.048   8.691   0.954
18354TIP3   OH254938   8.275   8.599   0.748
18354TIP3    H154939   8.195   8.610   0.799
18354TIP3    H254940   8.250   8.628   0.660
18355TIP3   OH254941   8.678   8.623   0.549
18355TIP3    H154942   8.610   8.635   0.482
18355TIP3    H254943   8.690   8.710   0.587
18356TIP3   OH254944   8.936   8.548   0.607
18356TIP3    H154945   8.846   8.572   0.585
18356TIP3    H254946   8.991   8.612   0.562
18357TIP3   OH254947   9.138   8.715   0.508
18357TIP3    H154948   9.137   8.803   0.472
18357TIP3    H254949   9.167   8.659   0.436
18358TIP3   OH254950   7.941   8.389   0.591
18358TIP3    H154951   7.964   8.380   0.683
18358TIP3    H254952   8.018   8.354   0.544
18359TIP3   OH254953   8.153   8.262   0.476
18359TIP3    H154954   8.162   8.184   0.531
18359TIP3    H254955   8.237   8.306   0.482
18360TIP3   OH254956   8.416   8.350   0.510
18360TIP3    H154957   8.434   8.257   0.500
18360TIP3    H254958   8.478   8.379   0.577
18361TIP3   OH254959   8.988   7.018   0.565
18361TIP3    H154960   8.944   6.948   0.613
18361TIP3    H254961   9.054   6.973   0.513
18362TIP3   OH254962   9.473   6.932   0.503
18362TIP3    H154963   9.510   6.977   0.428
18362TIP3    H254964   9.379   6.946   0.496
18363TIP3   OH254965   9.581   6.998   0.259
18363TIP3    H154966   9.645   6.935   0.227
18363TIP3    H254967   9.623   7.084   0.246
18364TIP3   OH254968   8.169   6.706   0.523
18364TIP3    H154969   8.078   6.678   0.536
18364TIP3    H254970   8.221   6.626   0.531
18365TIP3   OH254971   8.018   6.601   0.232
18365TIP3    H154972   8.056   6.649   0.158
18365TIP3    H254973   7.987   6.669   0.292
18366TIP3   OH254974   8.665   6.784   0.482
18366TIP3    H154975   8.716   6.810   0.405
18366TIP3    H254976   8.727   6.794   0.555
18367TIP3   OH254977   9.195   6.882   0.443
18367TIP3    H154978   9.236   6.840   0.367
18367TIP3    H254979   9.183   6.811   0.505
18368TIP3   OH254980   9.243   6.837   0.040
18368TIP3    H154981   9.164   6.884   0.067
18368TIP3    H254982   9.234   6.751   0.080
18369TIP3   OH254983   7.692   8.185   0.030
18369TIP3    H154984   7.610   8.154  -0.009
18369TIP3    H254985   7.704   8.273  -0.007
18370TIP3   OH254986   8.144   6.738   0.017
18370TIP3    H154987   8.191   6.680  -0.043
18370TIP3    H254988   8.212   6.795   0.053
18371TIP3   OH254989   8.622   6.941   0.111
18371TIP3    H154990   8.686   6.890   0.161
18371TIP3    H254991   8.638   7.031   0.138
18372TIP3   OH254992   5.241   3.716   7.618
18372TIP3    H154993   5.323   3.747   7.579
18372TIP3    H254994   5.211   3.647   7.559
18373TIP3   OH254995   5.949   3.858   7.715
18373TIP3    H154996   5.942   3.763   7.707
18373TIP3    H254997   5.901   3.892   7.639
18374TIP3   OH254998   8.385   7.072   1.501
18374TIP3    H154999   8.387   6.982   1.533
18374TIP3    H255000   8.471   7.108   1.524
18375TIP3   OH255001   4.547   3.565   7.670
18375TIP3    H155002   4.557   3.594   7.760
18375TIP3    H255003   4.629   3.519   7.650
18376TIP3   OH255004   9.522   7.062   1.375
18376TIP3    H155005   9.532   7.039   1.468
18376TIP3    H255006   9.611   7.082   1.345
18377TIP3   OH255007   9.425   8.617   0.899
18377TIP3    H155008   9.351   8.587   0.846
18377TIP3    H255009   9.413   8.712   0.905
18378TIP3   OH255010   7.420   3.380   7.621
18378TIP3    H155011   7.378   3.464   7.603
18378TIP3    H255012   7.354   3.314   7.597
18379TIP3   OH255013   0.891   7.984   0.068
18379TIP3    H155014   0.950   7.972   0.142
18379TIP3    H255015   0.859   7.896   0.048
18380TIP3   OH255016   0.199   7.857   0.408
18380TIP3    H155017   0.234   7.805   0.480
18380TIP3    H255018   0.276   7.881   0.356
18381TIP3   OH255019   7.695   3.685   7.735
18381TIP3    H155020   7.690   3.618   7.803
18381TIP3    H255021   7.721   3.764   7.782
18382TIP3   OH255022   0.201   8.280   0.089
18382TIP3    H155023   0.181   8.187   0.101
18382TIP3    H255024   0.297   8.283   0.084
18383TIP3   OH255025   6.405   2.883   7.874
18383TIP3    H155026   6.363   2.964   7.902
18383TIP3    H255027   6.334   2.829   7.838
18384TIP3   OH255028   9.760   7.801   0.103
18384TIP3    H155029   9.809   7.723   0.129
18384TIP3    H255030   9.827   7.866   0.084
18385TIP3   OH255031   7.364   4.112   7.751
18385TIP3    H155032   7.388   4.046   7.686
18385TIP3    H255033   7.370   4.066   7.835
18386TIP3   OH255034   0.715   8.212   0.070
18386TIP3    H155035   0.759   8.129   0.050
18386TIP3    H255036   0.786   8.270   0.099
18387TIP3   OH255037   1.725   7.543   0.075
18387TIP3    H155038   1.743   7.625   0.120
18387TIP3    H255039   1.749   7.560  -0.016
18388TIP3   OH255040   1.126   7.707   0.105
18388TIP3    H155041   1.163   7.622   0.131
18388TIP3    H255042   1.082   7.689   0.021
18389TIP3   OH255043   7.708   2.840   7.698
18389TIP3    H155044   7.768   2.835   7.772
18389TIP3    H255045   7.760   2.878   7.627
18390TIP3   OH255046   0.101   7.578   0.191
18390TIP3    H155047   0.186   7.560   0.230
18390TIP3    H255048   0.098   7.525   0.112
18391TIP3   OH255049   0.536   7.766   0.032
18391TIP3    H155050   0.630   7.752   0.041
18391TIP3    H255051   0.503   7.686  -0.008
18392TIP3   OH255052   1.781   7.758   0.243
18392TIP3    H155053   1.694   7.796   0.238
18392TIP3    H255054   1.813   7.783   0.331
18393TIP3   OH255055   0.446   7.374   0.511
18393TIP3    H155056   0.396   7.405   0.435
18393TIP3    H255057   0.389   7.391   0.586
18394TIP3   OH255058   7.300   3.606   7.512
18394TIP3    H155059   7.388   3.645   7.505
18394TIP3    H255060   7.243   3.680   7.530
18395TIP3   OH255061   0.547   8.143   0.280
18395TIP3    H155062   0.495   8.216   0.313
18395TIP3    H255063   0.599   8.182   0.209
18396TIP3   OH255064   7.862   2.872   7.922
18396TIP3    H155065   7.828   2.846   8.007
18396TIP3    H255066   7.916   2.949   7.940
18397TIP3   OH255067   0.351   7.468   0.264
18397TIP3    H155068   0.408   7.540   0.291
18397TIP3    H255069   0.400   7.424   0.194
18398TIP3   OH255070   0.391   8.348   0.382
18398TIP3    H155071   0.377   8.438   0.354
18398TIP3    H255072   0.314   8.327   0.435
18399TIP3   OH255073   6.300   3.435   7.638
18399TIP3    H155074   6.249   3.453   7.559
18399TIP3    H255075   6.315   3.520   7.677
18400TIP3   OH255076   7.737   3.932   7.876
18400TIP3    H155077   7.650   3.926   7.914
18400TIP3    H255078   7.738   4.017   7.832
18401TIP3   OH255079   1.525   7.432   0.246
18401TIP3    H155080   1.435   7.448   0.218
18401TIP3    H255081   1.579   7.462   0.174
18402TIP3   OH255082   0.800   7.094   0.249
18402TIP3    H155083   0.768   7.052   0.169
18402TIP3    H255084   0.720   7.121   0.295
18403TIP3   OH255085   7.442   3.950   7.539
18403TIP3    H155086   7.487   3.866   7.529
18403TIP3    H255087   7.505   4.016   7.511
18404TIP3   OH255088   7.558   3.705   7.499
18404TIP3    H155089   7.604   3.657   7.430
18404TIP3    H255090   7.611   3.692   7.577
18405TIP3   OH255091   1.443   8.436   0.219
18405TIP3    H155092   1.422   8.363   0.161
18405TIP3    H255093   1.430   8.514   0.166
18406TIP3   OH255094   7.260   3.200   7.479
18406TIP3    H155095   7.174   3.210   7.440
18406TIP3    H255096   7.321   3.203   7.405
18407TIP3   OH255097   7.236   3.035   7.180
18407TIP3    H155098   7.305   3.081   7.227
18407TIP3    H255099   7.280   2.962   7.137
18408TIP3   OH255100   1.616   8.099   0.081
18408TIP3    H155101   1.532   8.144   0.080
18408TIP3    H255102   1.651   8.110  -0.007
18409TIP3   OH255103   7.625   3.321   7.449
18409TIP3    H155104   7.566   3.343   7.521
18409TIP3    H255105   7.706   3.292   7.493
18410TIP3   OH255106   1.313   7.967   0.394
18410TIP3    H155107   1.304   8.048   0.443
18410TIP3    H255108   1.231   7.960   0.345
18411TIP3   OH255109   6.876   3.268   7.884
18411TIP3    H155110   6.850   3.177   7.873
18411TIP3    H255111   6.960   3.264   7.929
18412TIP3   OH255112   6.999   3.710   7.992
18412TIP3    H155113   6.984   3.694   7.899
18412TIP3    H255114   7.086   3.674   8.008
18413TIP3   OH255115   0.415   7.907   0.237
18413TIP3    H155116   0.462   7.865   0.165
18413TIP3    H255117   0.464   7.988   0.254
18414TIP3   OH255118   0.965   8.547   0.006
18414TIP3    H155119   0.954   8.627   0.057
18414TIP3    H255120   0.952   8.476   0.068
18415TIP3   OH255121   0.587   8.443   0.554
18415TIP3    H155122   0.526   8.500   0.601
18415TIP3    H255123   0.532   8.392   0.495
18416TIP3   OH255124   7.460   3.173   7.286
18416TIP3    H155125   7.520   3.231   7.332
18416TIP3    H255126   7.488   3.177   7.195
18417TIP3   OH255127   0.341   7.990   0.701
18417TIP3    H155128   0.345   8.085   0.718
18417TIP3    H255129   0.248   7.971   0.693
18418TIP3   OH255130   7.183   3.854   7.542
18418TIP3    H155131   7.268   3.895   7.551
18418TIP3    H255132   7.129   3.919   7.496
18419TIP3   OH255133   0.377   8.601   0.641
18419TIP3    H155134   0.352   8.613   0.549
18419TIP3    H255135   0.295   8.586   0.687
18420TIP3   OH255136   7.958   2.398   7.341
18420TIP3    H155137   7.883   2.420   7.396
18420TIP3    H255138   7.971   2.475   7.286
18421TIP3   OH255139   6.723   3.113   7.648
18421TIP3    H155140   6.674   3.042   7.605
18421TIP3    H255141   6.780   3.068   7.710
18422TIP3   OH255142   7.788   3.779   6.894
18422TIP3    H155143   7.784   3.872   6.871
18422TIP3    H255144   7.878   3.752   6.871
18423TIP3   OH255145   9.774   8.161   0.590
18423TIP3    H155146   9.704   8.143   0.527
18423TIP3    H255147   9.807   8.074   0.614
18424TIP3   OH255148   9.613   8.362   0.249
18424TIP3    H155149   9.701   8.391   0.274
18424TIP3    H255150   9.557   8.437   0.269
18425TIP3   OH255151   1.671   8.808   0.288
18425TIP3    H155152   1.677   8.713   0.298
18425TIP3    H255153   1.591   8.832   0.335
18426TIP3   OH255154   0.776   8.589   0.417
18426TIP3    H155155   0.767   8.679   0.446
18426TIP3    H255156   0.709   8.541   0.465
18427TIP3   OH255157   7.091   4.066   7.374
18427TIP3    H155158   7.047   4.041   7.293
18427TIP3    H255159   7.051   4.149   7.399
18428TIP3   OH255160   6.524   3.920   7.743
18428TIP3    H155161   6.569   3.912   7.827
18428TIP3    H255162   6.474   3.839   7.735
18429TIP3   OH255163   7.291   3.998   6.999
18429TIP3    H155164   7.341   3.924   6.964
18429TIP3    H255165   7.327   4.013   7.086
18430TIP3   OH255166   7.346   4.046   7.268
18430TIP3    H155167   7.260   4.046   7.311
18430TIP3    H255168   7.406   4.016   7.336
18431TIP3   OH255169   1.559   7.921   0.541
18431TIP3    H155170   1.473   7.935   0.501
18431TIP3    H255171   1.578   7.829   0.524
18432TIP3   OH255172   0.175   8.346   0.554
18432TIP3    H155173   0.225   8.334   0.635
18432TIP3    H255174   0.102   8.285   0.562
18433TIP3   OH255175   0.554   7.154   0.380
18433TIP3    H155176   0.472   7.119   0.345
18433TIP3    H255177   0.529   7.235   0.423
18434TIP3   OH255178   1.099   7.280   0.571
18434TIP3    H155179   1.167   7.252   0.633
18434TIP3    H255180   1.016   7.259   0.615
18435TIP3   OH255181   1.329   7.705   0.490
18435TIP3    H155182   1.283   7.700   0.574
18435TIP3    H255183   1.306   7.791   0.456
18436TIP3   OH255184   7.533   3.163   7.024
18436TIP3    H155185   7.487   3.161   6.940
18436TIP3    H255186   7.616   3.207   7.004
18437TIP3   OH255187   7.242   2.572   7.344
18437TIP3    H155188   7.210   2.578   7.434
18437TIP3    H255189   7.204   2.491   7.310
18438TIP3   OH255190   0.489   7.680   0.380
18438TIP3    H155191   0.442   7.685   0.464
18438TIP3    H255192   0.468   7.763   0.337
18439TIP3   OH255193   6.857   2.992   7.864
18439TIP3    H155194   6.793   2.939   7.912
18439TIP3    H255195   6.899   2.929   7.804
18440TIP3   OH255196   7.394   3.014   7.634
18440TIP3    H155197   7.344   3.082   7.589
18440TIP3    H255198   7.453   2.979   7.567
18441TIP3   OH255199   1.048   7.912   0.708
18441TIP3    H155200   1.021   7.842   0.768
18441TIP3    H255201   1.141   7.923   0.725
18442TIP3   OH255202   7.573   3.036   7.848
18442TIP3    H155203   7.497   3.050   7.792
18442TIP3    H255204   7.615   2.958   7.812
18443TIP3   OH255205   0.328   7.700   0.602
18443TIP3    H155206   0.346   7.762   0.673
18443TIP3    H255207   0.310   7.617   0.647
18444TIP3   OH255208   6.907   2.558   7.313
18444TIP3    H155209   6.900   2.557   7.409
18444TIP3    H255210   6.827   2.603   7.284
18445TIP3   OH255211   9.730   7.210   0.178
18445TIP3    H155212   9.798   7.247   0.232
18445TIP3    H255213   9.776   7.171   0.103
18446TIP3   OH255214   6.360   2.577   7.687
18446TIP3    H155215   6.404   2.612   7.609
18446TIP3    H255216   6.297   2.645   7.711
18447TIP3   OH255217   1.066   7.907   0.275
18447TIP3    H155218   1.092   7.840   0.212
18447TIP3    H255219   1.023   7.859   0.345
18448TIP3   OH255220   6.658   2.820   7.957
18448TIP3    H155221   6.570   2.838   7.923
18448TIP3    H255222   6.677   2.730   7.930
18449TIP3   OH255223   6.902   2.831   7.643
18449TIP3    H155224   6.997   2.836   7.634
18449TIP3    H255225   6.868   2.847   7.555
18450TIP3   OH255226   1.227   7.454   0.182
18450TIP3    H155227   1.197   7.481   0.270
18450TIP3    H255228   1.162   7.390   0.154
18451TIP3   OH255229   6.785   2.876   7.396
18451TIP3    H155230   6.739   2.813   7.340
18451TIP3    H255231   6.846   2.920   7.338
18452TIP3   OH255232   1.387   9.147   0.378
18452TIP3    H155233   1.383   9.160   0.283
18452TIP3    H255234   1.466   9.193   0.406
18453TIP3   OH255235   0.326   8.258   0.790
18453TIP3    H155236   0.407   8.278   0.837
18453TIP3    H255237   0.257   8.268   0.855
18454TIP3   OH255238   0.800   7.704   0.069
18454TIP3    H155239   0.829   7.629   0.017
18454TIP3    H255240   0.796   7.671   0.159
18455TIP3   OH255241   0.759   7.634   0.335
18455TIP3    H155242   0.671   7.664   0.357
18455TIP3    H255243   0.817   7.689   0.388
18456TIP3   OH255244   1.381   8.237   0.041
18456TIP3    H155245   1.419   8.284  -0.033
18456TIP3    H255246   1.303   8.195   0.005
18457TIP3   OH255247   7.493   2.681   7.337
18457TIP3    H155248   7.400   2.658   7.340
18457TIP3    H255249   7.495   2.774   7.356
18458TIP3   OH255250   0.904   8.322   0.453
18458TIP3    H155251   0.953   8.308   0.534
18458TIP3    H255252   0.864   8.409   0.464
18459TIP3   OH255253   7.555   2.941   7.416
18459TIP3    H155254   7.650   2.943   7.428
18459TIP3    H255255   7.536   3.019   7.364
18460TIP3   OH255256   0.184   7.986   0.089
18460TIP3    H155257   0.230   7.965   0.008
18460TIP3    H255258   0.245   7.961   0.158
18461TIP3   OH255259   7.182   3.510   7.279
18461TIP3    H155260   7.119   3.581   7.273
18461TIP3    H255261   7.229   3.527   7.360
18462TIP3   OH255262   0.067   7.927   0.720
18462TIP3    H155263   0.070   7.902   0.812
18462TIP3    H255264  -0.008   7.880   0.684
18463TIP3   OH255265   0.811   8.061   0.739
18463TIP3    H155266   0.743   8.000   0.711
18463TIP3    H255267   0.893   8.021   0.712
18464TIP3   OH255268   1.047   8.612   0.339
18464TIP3    H155269   0.952   8.597   0.343
18464TIP3    H255270   1.069   8.646   0.425
18465TIP3   OH255271   7.966   3.029   7.227
18465TIP3    H155272   7.910   2.984   7.165
18465TIP3    H255273   7.972   3.119   7.193
18466TIP3   OH255274   1.687   8.533   0.306
18466TIP3    H155275   1.593   8.511   0.305
18466TIP3    H255276   1.720   8.497   0.224
18467TIP3   OH255277   7.703   3.839   7.153
18467TIP3    H155278   7.680   3.758   7.199
18467TIP3    H255279   7.730   3.810   7.066
18468TIP3   OH255280   7.689   3.481   7.937
18468TIP3    H155281   7.599   3.459   7.963
18468TIP3    H255282   7.725   3.400   7.903
18469TIP3   OH255283   6.835   3.709   7.745
18469TIP3    H155284   6.835   3.779   7.679
18469TIP3    H255285   6.769   3.735   7.809
18470TIP3   OH255286   6.410   3.014   7.468
18470TIP3    H155287   6.436   3.105   7.478
18470TIP3    H255288   6.329   3.007   7.519
18471TIP3   OH255289   6.828   3.440   7.672
18471TIP3    H155290   6.837   3.535   7.676
18471TIP3    H255291   6.877   3.408   7.748
18472TIP3   OH255292   0.594   8.660   0.208
18472TIP3    H155293   0.630   8.734   0.159
18472TIP3    H255294   0.668   8.629   0.260
18473TIP3   OH255295   6.756   3.935   7.593
18473TIP3    H155296   6.670   3.942   7.633
18473TIP3    H255297   6.794   4.022   7.600
18474TIP3   OH255298   0.947   8.325   0.180
18474TIP3    H155299   0.931   8.321   0.275
18474TIP3    H255300   1.029   8.277   0.168
18475TIP3   OH255301   7.478   3.583   7.067
18475TIP3    H155302   7.522   3.567   7.150
18475TIP3    H255303   7.393   3.541   7.077
18476TIP3   OH255304   1.202   8.818   0.219
18476TIP3    H155305   1.132   8.756   0.239
18476TIP3    H255306   1.167   8.872   0.148
18477TIP3   OH255307   7.785   4.051   6.857
18477TIP3    H155308   7.809   4.115   6.789
18477TIP3    H255309   7.713   4.093   6.905
18478TIP3   OH255310   0.275   7.447   0.718
18478TIP3    H155311   0.180   7.457   0.724
18478TIP3    H255312   0.298   7.394   0.794
18479TIP3   OH255313   7.656   3.542   7.286
18479TIP3    H155314   7.637   3.465   7.339
18479TIP3    H255315   7.749   3.534   7.264
18480TIP3   OH255316   0.022   8.549   0.364
18480TIP3    H155317   0.077   8.492   0.419
18480TIP3    H255318   0.033   8.636   0.401
18481TIP3   OH255319   6.844   3.545   7.062
18481TIP3    H155320   6.849   3.453   7.037
18481TIP3    H255321   6.887   3.550   7.147
18482TIP3   OH255322   6.540   3.343   7.541
18482TIP3    H155323   6.458   3.364   7.587
18482TIP3    H255324   6.532   3.388   7.457
18483TIP3   OH255325   1.127   7.518   0.433
18483TIP3    H155326   1.206   7.555   0.472
18483TIP3    H255327   1.113   7.436   0.479
18484TIP3   OH255328   7.553   2.628   7.610
18484TIP3    H155329   7.531   2.649   7.519
18484TIP3    H255330   7.597   2.707   7.643
18485TIP3   OH255331   7.005   3.716   7.257
18485TIP3    H155332   6.922   3.741   7.299
18485TIP3    H255333   7.040   3.797   7.222
18486TIP3   OH255334   7.177   2.843   7.669
18486TIP3    H155335   7.253   2.900   7.661
18486TIP3    H255336   7.179   2.813   7.760
18487TIP3   OH255337   0.970   7.750   0.478
18487TIP3    H155338   1.000   7.787   0.561
18487TIP3    H255339   1.017   7.667   0.471
18488TIP3   OH255340   7.374   2.512   7.791
18488TIP3    H155341   7.334   2.583   7.842
18488TIP3    H255342   7.437   2.557   7.735
18489TIP3   OH255343   6.769   3.821   7.340
18489TIP3    H155344   6.750   3.895   7.282
18489TIP3    H255345   6.759   3.857   7.429
18490TIP3   OH255346   6.879   2.550   7.586
18490TIP3    H155347   6.864   2.635   7.627
18490TIP3    H255348   6.971   2.531   7.603
18491TIP3   OH255349   1.589   7.646   0.460
18491TIP3    H155350   1.495   7.655   0.475
18491TIP3    H255351   1.596   7.588   0.385
18492TIP3   OH255352   7.781   3.227   7.852
18492TIP3    H155353   7.706   3.168   7.860
18492TIP3    H255354   7.848   3.187   7.907
18493TIP3   OH255355   6.511   3.458   7.295
18493TIP3    H155356   6.528   3.539   7.248
18493TIP3    H255357   6.558   3.391   7.246
18494TIP3   OH255358   6.418   2.729   7.464
18494TIP3    H155359   6.440   2.822   7.472
18494TIP3    H255360   6.349   2.727   7.398
18495TIP3   OH255361   7.761   4.200   7.795
18495TIP3    H155362   7.719   4.248   7.724
18495TIP3    H255363   7.855   4.213   7.780
18496TIP3   OH255364   0.290   7.073   0.343
18496TIP3    H155365   0.257   7.042   0.258
18496TIP3    H255366   0.282   6.997   0.400
18497TIP3   OH255367   6.343   3.698   7.724
18497TIP3    H155368   6.306   3.738   7.803
18497TIP3    H255369   6.298   3.742   7.651
18498TIP3   OH255370   0.019   8.855   0.791
18498TIP3    H155371   0.102   8.857   0.839
18498TIP3    H255372   0.001   8.762   0.780
18499TIP3   OH255373   0.486   8.763   0.835
18499TIP3    H155374   0.577   8.735   0.843
18499TIP3    H255375   0.451   8.710   0.764
18500TIP3   OH255376   6.980   3.756   6.947
18500TIP3    H155377   6.934   3.684   6.991
18500TIP3    H255378   7.055   3.715   6.905
18501TIP3   OH255379   1.100   8.704   0.591
18501TIP3    H155380   1.116   8.634   0.655
18501TIP3    H255381   1.175   8.764   0.602
18502TIP3   OH255382   7.421   3.785   6.884
18502TIP3    H155383   7.458   3.722   6.947
18502TIP3    H255384   7.479   3.779   6.808
18503TIP3   OH255385   0.121   8.258   0.980
18503TIP3    H155386   0.138   8.165   0.990
18503TIP3    H255387   0.035   8.263   0.938
18504TIP3   OH255388   6.644   3.248   7.176
18504TIP3    H155389   6.678   3.173   7.225
18504TIP3    H255390   6.712   3.266   7.111
18505TIP3   OH255391   0.742   8.337   0.757
18505TIP3    H155392   0.697   8.358   0.675
18505TIP3    H255393   0.778   8.249   0.743
18506TIP3   OH255394   7.213   3.459   7.012
18506TIP3    H155395   7.192   3.466   7.105
18506TIP3    H255396   7.198   3.367   6.990
18507TIP3   OH255397   1.215   8.386   0.370
18507TIP3    H155398   1.293   8.413   0.323
18507TIP3    H255399   1.152   8.456   0.354
18508TIP3   OH255400   0.234   8.002   0.986
18508TIP3    H155401   0.308   7.986   0.927
18508TIP3    H255402   0.274   8.022   1.070
18509TIP3   OH255403   0.598   7.882   0.652
18509TIP3    H155404   0.513   7.925   0.662
18509TIP3    H255405   0.628   7.910   0.565
18510TIP3   OH255406   6.958   3.008   7.227
18510TIP3    H155407   6.932   3.009   7.135
18510TIP3    H255408   7.053   3.013   7.226
18511TIP3   OH255409   1.095   8.258   0.724
18511TIP3    H155410   1.163   8.219   0.669
18511TIP3    H255411   1.093   8.202   0.802
18512TIP3   OH255412   7.755   3.289   6.916
18512TIP3    H155413   7.742   3.248   6.830
18512TIP3    H255414   7.730   3.381   6.902
18513TIP3   OH255415   0.706   7.650   0.752
18513TIP3    H155416   0.707   7.580   0.687
18513TIP3    H255417   0.669   7.726   0.706
18514TIP3   OH255418   0.707   7.455   0.549
18514TIP3    H155419   0.737   7.491   0.466
18514TIP3    H255420   0.616   7.429   0.533
18515TIP3   OH255421   0.711   7.975   0.424
18515TIP3    H155422   0.802   7.997   0.406
18515TIP3    H255423   0.660   8.039   0.375
18516TIP3   OH255424   1.322   7.945   0.814
18516TIP3    H155425   1.358   7.860   0.838
18516TIP3    H255426   1.398   8.002   0.803
18517TIP3   OH255427   1.326   8.208   0.542
18517TIP3    H155428   1.276   8.270   0.490
18517TIP3    H255429   1.416   8.217   0.510
18518TIP3   OH255430   0.599   7.726   1.000
18518TIP3    H155431   0.527   7.666   1.020
18518TIP3    H255432   0.625   7.704   0.910
18519TIP3   OH255433   0.832   7.228   0.650
18519TIP3    H155434   0.791   7.307   0.613
18519TIP3    H255435   0.768   7.159   0.634
18520TIP3   OH255436   0.959   7.697   0.857
18520TIP3    H155437   0.944   7.682   0.951
18520TIP3    H255438   0.875   7.675   0.816
18521TIP3   OH255439   1.197   7.652   0.718
18521TIP3    H155440   1.121   7.651   0.777
18521TIP3    H255441   1.270   7.621   0.771
18522TIP3   OH255442   1.425   7.586   0.853
18522TIP3    H155443   1.444   7.495   0.876
18522TIP3    H255444   1.433   7.633   0.936
18523TIP3   OH255445   0.424   7.513   1.061
18523TIP3    H155446   0.426   7.425   1.026
18523TIP3    H255447   0.462   7.505   1.149
18524TIP3   OH255448   0.902   7.200   0.911
18524TIP3    H155449   0.966   7.131   0.893
18524TIP3    H255450   0.865   7.221   0.826
18525TIP3   OH255451   1.008   7.405   1.061
18525TIP3    H155452   0.973   7.339   1.002
18525TIP3    H255453   0.940   7.473   1.064
18526TIP3   OH255454   6.773   4.030   7.158
18526TIP3    H155455   6.865   4.015   7.140
18526TIP3    H255456   6.742   4.080   7.083
18527TIP3   OH255457   6.241   3.431   7.335
18527TIP3    H155458   6.335   3.446   7.329
18527TIP3    H255459   6.229   3.342   7.300
18528TIP3   OH255460   6.158   4.008   7.808
18528TIP3    H155461   6.091   3.956   7.762
18528TIP3    H255462   6.201   3.945   7.867
18529TIP3   OH255463   9.567   8.456  -0.027
18529TIP3    H155464   9.557   8.391   0.042
18529TIP3    H255465   9.618   8.526   0.013
18530TIP3   OH255466   8.032   4.253   7.783
18530TIP3    H155467   8.059   4.281   7.871
18530TIP3    H255468   8.097   4.290   7.725
18531TIP3   OH255469   1.519   8.899   0.065
18531TIP3    H155470   1.473   8.815   0.056
18531TIP3    H255471   1.589   8.881   0.128
18532TIP3   OH255472   1.556   8.610   0.619
18532TIP3    H155473   1.490   8.616   0.688
18532TIP3    H255474   1.605   8.692   0.626
18533TIP3   OH255475   7.927   3.498   7.248
18533TIP3    H155476   7.985   3.566   7.215
18533TIP3    H255477   7.975   3.458   7.320
18534TIP3   OH255478   8.057   3.352   7.445
18534TIP3    H155479   7.991   3.317   7.505
18534TIP3    H255480   8.124   3.389   7.502
18535TIP3   OH255481   8.096   3.750   7.880
18535TIP3    H155482   8.149   3.682   7.840
18535TIP3    H255483   8.100   3.823   7.818
18536TIP3   OH255484   1.376   8.658   0.070
18536TIP3    H155485   1.309   8.705   0.120
18536TIP3    H255486   1.328   8.619  -0.003
18537TIP3   OH255487   7.963   3.271   7.094
18537TIP3    H155488   7.892   3.271   7.030
18537TIP3    H255489   7.948   3.349   7.147
18538TIP3   OH255490   7.814   2.915   7.031
18538TIP3    H155491   7.766   2.950   6.956
18538TIP3    H255492   7.807   2.820   7.020
18539TIP3   OH255493   7.849   3.217   7.584
18539TIP3    H155494   7.856   3.123   7.570
18539TIP3    H255495   7.831   3.227   7.677
18540TIP3   OH255496   9.736   7.901   0.357
18540TIP3    H155497   9.726   7.866   0.269
18540TIP3    H255498   9.830   7.895   0.374
18541TIP3   OH255499   1.576   8.248   0.428
18541TIP3    H155500   1.653   8.193   0.414
18541TIP3    H255501   1.571   8.303   0.350
18542TIP3   OH255502   1.776   8.053   0.437
18542TIP3    H155503   1.696   8.018   0.476
18542TIP3    H255504   1.842   7.986   0.456
18543TIP3   OH255505   7.778   2.642   7.000
18543TIP3    H155506   7.841   2.619   7.068
18543TIP3    H255507   7.695   2.607   7.031
18544TIP3   OH255508   7.845   2.937   7.468
18544TIP3    H155509   7.890   2.854   7.480
18544TIP3    H255510   7.887   2.976   7.391
18545TIP3   OH255511   1.461   7.726  -0.011
18545TIP3    H155512   1.544   7.743  -0.056
18545TIP3    H255513   1.472   7.764   0.076
18546TIP3   OH255514   1.528   7.875   0.218
18546TIP3    H155515   1.454   7.905   0.272
18546TIP3    H255516   1.559   7.954   0.174
18547TIP3   OH255517   0.165   7.588   0.996
18547TIP3    H155518   0.259   7.581   1.014
18547TIP3    H255519   0.129   7.504   1.025
18548TIP3   OH255520   7.960   2.687   7.518
18548TIP3    H155521   8.004   2.674   7.602
18548TIP3    H255522   7.896   2.616   7.513
18549TIP3   OH255523   0.132   7.297   0.352
18549TIP3    H155524   0.182   7.216   0.361
18549TIP3    H255525   0.195   7.362   0.321
18550TIP3   OH255526   9.715   7.559   0.406
18550TIP3    H155527   9.768   7.546   0.328
18550TIP3    H255528   9.748   7.639   0.445
18551TIP3   OH255529   1.815   7.593   0.603
18551TIP3    H155530   1.733   7.611   0.557
18551TIP3    H255531   1.851   7.516   0.560
18552TIP3   OH255532   8.004   2.600   7.159
18552TIP3    H155533   8.055   2.539   7.105
18552TIP3    H255534   8.058   2.679   7.164
18553TIP3   OH255535   6.426   2.433   7.910
18553TIP3    H155536   6.341   2.428   7.953
18553TIP3    H255537   6.412   2.491   7.835
18554TIP3   OH255538   7.594   4.144   7.433
18554TIP3    H155539   7.650   4.140   7.356
18554TIP3    H255540   7.629   4.218   7.484
18555TIP3   OH255541   0.126   7.116   0.733
18555TIP3    H155542   0.074   7.115   0.813
18555TIP3    H255543   0.073   7.166   0.670
18556TIP3   OH255544   0.153   8.573   0.806
18556TIP3    H155545   0.060   8.556   0.797
18556TIP3    H255546   0.170   8.563   0.900
18557TIP3   OH255547   0.366   8.624   0.358
18557TIP3    H155548   0.314   8.698   0.326
18557TIP3    H255549   0.451   8.634   0.314
18558TIP3   OH255550   0.759   8.855   0.495
18558TIP3    H155551   0.797   8.848   0.583
18558TIP3    H255552   0.822   8.908   0.446
18559TIP3   OH255553   0.951   9.006   0.366
18559TIP3    H155554   1.010   8.952   0.314
18559TIP3    H255555   1.009   9.062   0.418
18560TIP3   OH255556   1.728   7.357   0.447
18560TIP3    H155557   1.650   7.359   0.392
18560TIP3    H255558   1.762   7.268   0.436
18561TIP3   OH255559   0.025   8.855   0.405
18561TIP3    H155560  -0.066   8.872   0.380
18561TIP3    H255561   0.045   8.924   0.469
18562TIP3   OH255562   0.255   8.854   0.255
18562TIP3    H155563   0.172   8.857   0.302
18562TIP3    H255564   0.233   8.880   0.165
18563TIP3   OH255565   0.670   8.872   0.045
18563TIP3    H155566   0.598   8.882  -0.017
18563TIP3    H255567   0.679   8.958   0.086
18564TIP3   OH255568   0.934   8.809   0.094
18564TIP3    H155569   0.843   8.829   0.074
18564TIP3    H255570   0.984   8.876   0.046
18565TIP3   OH255571   7.670   4.362   7.998
18565TIP3    H155572   7.667   4.449   7.958
18565TIP3    H255573   7.701   4.304   7.928
18566TIP3   OH255574   9.740   8.637   0.109
18566TIP3    H155575   9.760   8.612   0.200
18566TIP3    H255576   9.813   8.602   0.058
18567TIP3   OH255577   6.678   3.898   7.973
18567TIP3    H155578   6.688   3.816   8.022
18567TIP3    H255579   6.763   3.942   7.982
18568TIP3   OH255580   0.409   8.607   0.006
18568TIP3    H155581   0.432   8.515  -0.009
18568TIP3    H255582   0.463   8.633   0.081
18569TIP3   OH255583   1.022   7.287   0.121
18569TIP3    H155584   0.932   7.256   0.131
18569TIP3    H255585   1.057   7.235   0.049
18570TIP3   OH255586   8.002   2.552   7.973
18570TIP3    H155587   8.038   2.605   7.902
18570TIP3    H255588   7.908   2.570   7.970
18571TIP3   OH255589   8.116   2.638   7.740
18571TIP3    H155590   8.185   2.578   7.712
18571TIP3    H255591   8.155   2.725   7.728
18572TIP3   OH255592   0.185   6.967   0.116
18572TIP3    H155593   0.099   6.925   0.114
18572TIP3    H255594   0.246   6.897   0.095
18573TIP3   OH255595   6.526   2.231   7.737
18573TIP3    H155596   6.567   2.283   7.667
18573TIP3    H255597   6.502   2.296   7.803
18574TIP3   OH255598   7.216   2.404   8.002
18574TIP3    H155599   7.280   2.412   7.931
18574TIP3    H255600   7.174   2.490   8.006
18575TIP3   OH255601   7.723   2.532   7.942
18575TIP3    H155602   7.710   2.495   7.854
18575TIP3    H255603   7.721   2.457   8.000
18576TIP3   OH255604   7.773   2.478   7.528
18576TIP3    H155605   7.693   2.526   7.552
18576TIP3    H255606   7.762   2.392   7.567
18577TIP3   OH255607   6.225   3.817   7.505
18577TIP3    H155608   6.140   3.792   7.469
18577TIP3    H255609   6.238   3.907   7.476
18578TIP3   OH255610   6.665   2.377   7.510
18578TIP3    H155611   6.712   2.313   7.456
18578TIP3    H255612   6.733   2.434   7.545
18579TIP3   OH255613   7.157   2.573   7.606
18579TIP3    H155614   7.208   2.527   7.673
18579TIP3    H255615   7.162   2.665   7.631
18580TIP3   OH255616   7.038   3.966   7.110
18580TIP3    H155617   7.121   3.997   7.074
18580TIP3    H255618   7.008   3.899   7.049
18581TIP3   OH255619   7.739   4.109   7.199
18581TIP3    H155620   7.732   4.014   7.189
18581TIP3    H255621   7.696   4.145   7.121
18582TIP3   OH255622   0.433   7.241   0.976
18582TIP3    H155623   0.394   7.175   1.033
18582TIP3    H255624   0.525   7.246   1.005
18583TIP3   OH255625   0.685   7.246   1.095
18583TIP3    H155626   0.761   7.228   1.040
18583TIP3    H255627   0.682   7.172   1.156
18584TIP3   OH255628   6.337   3.820   7.153
18584TIP3    H155629   6.328   3.851   7.243
18584TIP3    H255630   6.414   3.763   7.154
18585TIP3   OH255631   1.504   7.320   0.898
18585TIP3    H155632   1.525   7.336   0.990
18585TIP3    H255633   1.587   7.329   0.852
18586TIP3   OH255634   1.421   8.873   0.385
18586TIP3    H155635   1.348   8.843   0.330
18586TIP3    H255636   1.409   8.968   0.391
18587TIP3   OH255637   9.216   3.617   7.154
18587TIP3    H155638   9.201   3.708   7.130
18587TIP3    H255639   9.138   3.571   7.122
18588TIP3   OH255640   9.270   3.620   7.521
18588TIP3    H155641   9.280   3.602   7.615
18588TIP3    H255642   9.178   3.602   7.503
18589TIP3   OH255643   8.522   3.498   7.895
18589TIP3    H155644   8.568   3.449   7.963
18589TIP3    H255645   8.590   3.523   7.833
18590TIP3   OH255646   9.502   3.935   7.206
18590TIP3    H155647   9.490   3.868   7.274
18590TIP3    H255648   9.518   4.016   7.255
18591TIP3   OH255649   8.203   3.125   7.362
18591TIP3    H155650   8.167   3.210   7.388
18591TIP3    H255651   8.129   3.078   7.324
18592TIP3   OH255652   8.283   3.436   7.584
18592TIP3    H155653   8.332   3.358   7.612
18592TIP3    H255654   8.350   3.499   7.559
18593TIP3   OH255655   9.153   4.376   7.239
18593TIP3    H155656   9.185   4.311   7.176
18593TIP3    H255657   9.145   4.329   7.321
18594TIP3   OH255658   9.038   3.832   7.591
18594TIP3    H155659   8.992   3.867   7.515
18594TIP3    H255660   9.123   3.874   7.590
18595TIP3   OH255661   9.429   3.356   7.614
18595TIP3    H155662   9.465   3.269   7.633
18595TIP3    H255663   9.378   3.343   7.534
18596TIP3   OH255664   8.787   3.000   7.554
18596TIP3    H155665   8.774   3.072   7.492
18596TIP3    H255666   8.731   2.930   7.523
18597TIP3   OH255667   9.463   3.167   7.209
18597TIP3    H155668   9.526   3.132   7.273
18597TIP3    H255669   9.509   3.162   7.125
18598TIP3   OH255670   8.417   3.212   7.678
18598TIP3    H155671   8.502   3.200   7.721
18598TIP3    H255672   8.424   3.165   7.595
18599TIP3   OH255673   8.827   3.401   7.500
18599TIP3    H155674   8.920   3.386   7.511
18599TIP3    H255675   8.794   3.322   7.457
18600TIP3   OH255676   2.237   7.635   0.000
18600TIP3    H155677   2.190   7.673  -0.074
18600TIP3    H255678   2.178   7.648   0.075
18601TIP3   OH255679   9.143   3.837   6.987
18601TIP3    H155680   9.098   3.809   6.908
18601TIP3    H255681   9.094   3.913   7.018
18602TIP3   OH255682   8.864   3.768   7.790
18602TIP3    H155683   8.808   3.841   7.814
18602TIP3    H255684   8.916   3.801   7.716
18603TIP3   OH255685   9.642   3.097   7.414
18603TIP3    H155686   9.595   3.093   7.498
18603TIP3    H255687   9.705   3.168   7.426
18604TIP3   OH255688   8.666   3.121   7.771
18604TIP3    H155689   8.720   3.197   7.790
18604TIP3    H255690   8.710   3.077   7.698
18605TIP3   OH255691   8.715   3.983   7.883
18605TIP3    H155692   8.701   4.065   7.836
18605TIP3    H255693   8.633   3.968   7.930
18606TIP3   OH255694   8.092   3.686   7.127
18606TIP3    H155695   8.062   3.707   7.038
18606TIP3    H255696   8.116   3.770   7.165
18607TIP3   OH255697   9.528   4.186   7.343
18607TIP3    H155698   9.446   4.171   7.391
18607TIP3    H255699   9.516   4.270   7.300
18608TIP3   OH255700   9.096   2.729   7.695
18608TIP3    H155701   9.098   2.643   7.738
18608TIP3    H255702   9.026   2.776   7.740
18609TIP3   OH255703   9.247   4.228   7.023
18609TIP3    H155704   9.296   4.147   7.010
18609TIP3    H255705   9.307   4.297   6.995
18610TIP3   OH255706   9.376   3.994   6.966
18610TIP3    H155707   9.307   3.929   6.963
18610TIP3    H255708   9.431   3.968   7.040
18611TIP3   OH255709   9.725   4.077   7.720
18611TIP3    H155710   9.720   4.001   7.661
18611TIP3    H255711   9.720   4.153   7.661
18612TIP3   OH255712   9.027   3.487   6.998
18612TIP3    H155713   8.946   3.537   6.992
18612TIP3    H255714   9.069   3.500   6.913
18613TIP3   OH255715   9.048   3.226   6.704
18613TIP3    H155716   9.023   3.308   6.660
18613TIP3    H255717   9.095   3.176   6.637
18614TIP3   OH255718   0.084   3.675   7.511
18614TIP3    H155719   0.013   3.738   7.526
18614TIP3    H255720   0.164   3.723   7.529
18615TIP3   OH255721   9.396   3.562   6.957
18615TIP3    H155722   9.343   3.588   7.032
18615TIP3    H255723   9.477   3.527   6.995
18616TIP3   OH255724   9.598   3.624   7.857
18616TIP3    H155725   9.600   3.709   7.900
18616TIP3    H255726   9.506   3.611   7.834
18617TIP3   OH255727   8.697   3.524   7.277
18617TIP3    H155728   8.633   3.460   7.248
18617TIP3    H255729   8.732   3.489   7.359
18618TIP3   OH255730   8.728   3.543   7.714
18618TIP3    H155731   8.766   3.508   7.633
18618TIP3    H255732   8.775   3.624   7.731
18619TIP3   OH255733   9.308   4.175   7.498
18619TIP3    H155734   9.288   4.251   7.552
18619TIP3    H255735   9.295   4.100   7.556
18620TIP3   OH255736   2.384   8.697   0.043
18620TIP3    H155737   2.324   8.757   0.088
18620TIP3    H255738   2.328   8.646  -0.016
18621TIP3   OH255739   9.225   3.430   6.796
18621TIP3    H155740   9.290   3.481   6.845
18621TIP3    H255741   9.249   3.444   6.704
18622TIP3   OH255742   2.129   8.241   0.178
18622TIP3    H155743   2.134   8.333   0.203
18622TIP3    H255744   2.035   8.222   0.175
18623TIP3   OH255745   9.015   4.074   7.034
18623TIP3    H155746   9.082   4.143   7.038
18623TIP3    H255747   8.936   4.119   7.005
18624TIP3   OH255748   2.173   8.860   0.119
18624TIP3    H155749   2.152   8.868   0.026
18624TIP3    H255750   2.088   8.847   0.161
18625TIP3   OH255751   9.760   2.645   6.856
18625TIP3    H155752   9.672   2.671   6.884
18625TIP3    H255753   9.778   2.700   6.779
18626TIP3   OH255754   8.505   3.365   7.135
18626TIP3    H155755   8.435   3.425   7.112
18626TIP3    H255756   8.460   3.285   7.162
18627TIP3   OH255757   9.488   4.064   6.384
18627TIP3    H155758   9.509   4.153   6.354
18627TIP3    H255759   9.573   4.028   6.411
18628TIP3   OH255760   1.764   8.412   0.074
18628TIP3    H155761   1.696   8.392   0.010
18628TIP3    H255762   1.802   8.327   0.097
18629TIP3   OH255763   8.151   3.977   7.723
18629TIP3    H155764   8.246   3.986   7.717
18629TIP3    H255765   8.122   4.057   7.767
18630TIP3   OH255766   0.155   4.454   7.759
18630TIP3    H155767   0.186   4.365   7.778
18630TIP3    H255768   0.078   4.465   7.816
18631TIP3   OH255769   9.099   4.227   7.902
18631TIP3    H155770   9.092   4.318   7.930
18631TIP3    H255771   9.033   4.181   7.954
18632TIP3   OH255772   8.885   4.340   6.852
18632TIP3    H155773   8.828   4.310   6.781
18632TIP3    H255774   8.843   4.419   6.885
18633TIP3   OH255775   8.322   4.176   7.233
18633TIP3    H155776   8.376   4.168   7.312
18633TIP3    H255777   8.288   4.087   7.219
18634TIP3   OH255778   9.081   4.272   6.490
18634TIP3    H155779   9.121   4.192   6.455
18634TIP3    H255780   9.115   4.279   6.579
18635TIP3   OH255781   9.137   4.291   6.762
18635TIP3    H155782   9.048   4.299   6.797
18635TIP3    H255783   9.187   4.250   6.833
18636TIP3   OH255784   1.952   8.610   0.039
18636TIP3    H155785   2.007   8.595   0.115
18636TIP3    H255786   1.884   8.543   0.044
18637TIP3   OH255787   8.874   2.812   7.845
18637TIP3    H155788   8.791   2.779   7.810
18637TIP3    H255789   8.849   2.888   7.898
18638TIP3   OH255790   9.300   3.437   6.539
18638TIP3    H155791   9.257   3.413   6.458
18638TIP3    H255792   9.377   3.487   6.512
18639TIP3   OH255793   8.825   3.327   7.860
18639TIP3    H155794   8.779   3.336   7.944
18639TIP3    H255795   8.801   3.406   7.811
18640TIP3   OH255796   8.707   3.186   7.371
18640TIP3    H155797   8.616   3.169   7.395
18640TIP3    H255798   8.716   3.150   7.283
18641TIP3   OH255799   9.157   3.246   7.026
18641TIP3    H155800   9.106   3.325   7.043
18641TIP3    H255801   9.191   3.220   7.111
18642TIP3   OH255802   9.312   3.333   7.367
18642TIP3    H155803   9.291   3.409   7.313
18642TIP3    H255804   9.360   3.274   7.309
18643TIP3   OH255805   2.132   7.965   0.078
18643TIP3    H155806   2.138   8.030   0.148
18643TIP3    H255807   2.104   7.885   0.121
18644TIP3   OH255808   8.721   2.834   6.794
18644TIP3    H155809   8.710   2.822   6.889
18644TIP3    H255810   8.637   2.869   6.764
18645TIP3   OH255811   8.249   2.860   7.666
18645TIP3    H155812   8.319   2.897   7.719
18645TIP3    H255813   8.290   2.845   7.580
18646TIP3   OH255814   8.156   2.833   7.170
18646TIP3    H155815   8.202   2.869   7.094
18646TIP3    H255816   8.093   2.901   7.194
18647TIP3   OH255817   9.336   3.546   7.785
18647TIP3    H155818   9.377   3.483   7.726
18647TIP3    H255819   9.314   3.495   7.863
18648TIP3   OH255820   9.051   2.969   7.452
18648TIP3    H155821   8.968   2.982   7.499
18648TIP3    H255822   9.118   2.978   7.519
18649TIP3   OH255823   8.463   3.079   7.442
18649TIP3    H155824   8.374   3.083   7.406
18649TIP3    H255825   8.489   2.988   7.430
18650TIP3   OH255826   8.730   3.062   7.121
18650TIP3    H155827   8.809   3.105   7.089
18650TIP3    H255828   8.665   3.079   7.053
18651TIP3   OH255829   9.485   3.087   7.651
18651TIP3    H155830   9.471   3.100   7.745
18651TIP3    H255831   9.420   3.021   7.626
18652TIP3   OH255832   8.577   3.098   6.899
18652TIP3    H155833   8.518   3.043   6.848
18652TIP3    H255834   8.628   3.146   6.833
18653TIP3   OH255835   9.719   4.790   7.881
18653TIP3    H155836   9.734   4.848   7.807
18653TIP3    H255837   9.783   4.818   7.947
18654TIP3   OH255838   2.106   8.516   0.263
18654TIP3    H155839   2.188   8.537   0.307
18654TIP3    H255840   2.040   8.521   0.331
18655TIP3   OH255841   9.090   3.341   7.546
18655TIP3    H155842   9.169   3.323   7.495
18655TIP3    H255843   9.108   3.305   7.633
18656TIP3   OH255844   8.599   2.830   7.432
18656TIP3    H155845   8.569   2.755   7.483
18656TIP3    H255846   8.623   2.794   7.347
18657TIP3   OH255847   9.091   3.264   7.818
18657TIP3    H155848   9.002   3.299   7.828
18657TIP3    H255849   9.146   3.323   7.871
18658TIP3   OH255850   8.800   3.638   6.952
18658TIP3    H155851   8.725   3.580   6.934
18658TIP3    H255852   8.774   3.687   7.030
18659TIP3   OH255853   9.698   3.879   7.528
18659TIP3    H155854   9.745   3.919   7.455
18659TIP3    H255855   9.621   3.840   7.489
18660TIP3   OH255856   9.242   3.982   7.916
18660TIP3    H155857   9.244   3.951   8.007
18660TIP3    H255858   9.185   4.058   7.918
18661TIP3   OH255859   9.373   3.166   6.813
18661TIP3    H155860   9.450   3.165   6.869
18661TIP3    H255861   9.408   3.157   6.724
18662TIP3   OH255862   8.497   3.612   7.557
18662TIP3    H155863   8.522   3.691   7.509
18662TIP3    H255864   8.573   3.593   7.613
18663TIP3   OH255865   8.960   3.771   6.775
18663TIP3    H155866   8.923   3.859   6.770
18663TIP3    H255867   8.902   3.724   6.835
18664TIP3   OH255868   1.855   8.175   0.202
18664TIP3    H155869   1.848   8.147   0.293
18664TIP3    H255870   1.783   8.131   0.157
18665TIP3   OH255871   2.590   8.314   0.257
18665TIP3    H155872   2.517   8.270   0.213
18665TIP3    H255873   2.647   8.242   0.284
18666TIP3   OH255874   9.370   4.253   7.815
18666TIP3    H155875   9.277   4.239   7.832
18666TIP3    H255876   9.406   4.279   7.900
18667TIP3   OH255877   9.737   3.272   6.738
18667TIP3    H155878   9.670   3.224   6.689
18667TIP3    H255879   9.736   3.360   6.701
18668TIP3   OH255880   0.168   4.159   7.833
18668TIP3    H155881   0.078   4.140   7.809
18668TIP3    H255882   0.219   4.089   7.793
18669TIP3   OH255883   9.498   4.102   6.685
18669TIP3    H155884   9.462   4.048   6.755
18669TIP3    H255885   9.473   4.057   6.604
18670TIP3   OH255886   9.492   3.738   7.409
18670TIP3    H155887   9.405   3.713   7.442
18670TIP3    H255888   9.532   3.655   7.382
18671TIP3   OH255889   8.202   3.259   6.955
18671TIP3    H155890   8.244   3.342   6.975
18671TIP3    H255891   8.121   3.260   7.006
18672TIP3   OH255892   8.709   3.775   7.172
18672TIP3    H155893   8.702   3.842   7.240
18672TIP3    H255894   8.704   3.692   7.219
18673TIP3   OH255895   8.919   4.285   7.688
18673TIP3    H155896   8.953   4.361   7.640
18673TIP3    H255897   8.993   4.254   7.740
18674TIP3   OH255898   8.506   4.247   7.037
18674TIP3    H155899   8.443   4.223   7.105
18674TIP3    H255900   8.548   4.326   7.069
18675TIP3   OH255901   9.292   3.942   7.650
18675TIP3    H155902   9.272   3.949   7.743
18675TIP3    H255903   9.361   3.876   7.645
18676TIP3   OH255904   9.238   3.830   6.542
18676TIP3    H155905   9.284   3.804   6.622
18676TIP3    H255906   9.157   3.780   6.544
18677TIP3   OH255907   9.522   4.454   7.703
18677TIP3    H155908   9.455   4.390   7.725
18677TIP3    H255909   9.484   4.506   7.632
18678TIP3   OH255910   9.550   4.329   6.338
18678TIP3    H155911   9.602   4.405   6.312
18678TIP3    H255912   9.469   4.367   6.375
18679TIP3   OH255913   2.055   7.724   0.190
18679TIP3    H155914   1.959   7.722   0.196
18679TIP3    H255915   2.084   7.721   0.281
18680TIP3   OH255916   9.385   3.749   6.755
18680TIP3    H155917   9.372   3.682   6.822
18680TIP3    H255918   9.466   3.793   6.780
18681TIP3   OH255919   8.344   4.189   7.869
18681TIP3    H155920   8.393   4.127   7.922
18681TIP3    H255921   8.366   4.275   7.905
18682TIP3   OH255922   8.617   3.810   6.563
18682TIP3    H155923   8.628   3.719   6.536
18682TIP3    H255924   8.605   3.806   6.658
18683TIP3   OH255925   8.558   3.827   6.836
18683TIP3    H155926   8.612   3.807   6.912
18683TIP3    H255927   8.555   3.923   6.833
18684TIP3   OH255928   8.291   3.511   7.034
18684TIP3    H155929   8.228   3.559   7.089
18684TIP3    H255930   8.313   3.571   6.963
18685TIP3   OH255931   9.438   3.131   7.931
18685TIP3    H155932   9.519   3.127   7.981
18685TIP3    H255933   9.386   3.058   7.964
18686TIP3   OH255934   8.833   4.013   6.765
18686TIP3    H155935   8.745   4.032   6.798
18686TIP3    H255936   8.853   4.086   6.707
18687TIP3   OH255937   2.758   7.986  -0.015
18687TIP3    H155938   2.759   7.991   0.081
18687TIP3    H255939   2.811   7.908  -0.035
18688TIP3   OH255940   9.178   2.793   7.287
18688TIP3    H155941   9.125   2.862   7.327
18688TIP3    H255942   9.268   2.818   7.307
18689TIP3   OH255943   8.576   4.100   6.822
18689TIP3    H155944   8.556   4.165   6.754
18689TIP3    H255945   8.552   4.143   6.904
18690TIP3   OH255946   8.690   2.788   7.070
18690TIP3    H155947   8.701   2.878   7.101
18690TIP3    H255948   8.770   2.742   7.098
18691TIP3   OH255949   9.572   3.470   7.366
18691TIP3    H155950   9.491   3.443   7.409
18691TIP3    H255951   9.642   3.433   7.421
18692TIP3   OH255952   8.315   3.692   6.821
18692TIP3    H155953   8.386   3.755   6.833
18692TIP3    H255954   8.350   3.629   6.757
18693TIP3   OH255955   8.228   2.981   6.950
18693TIP3    H155956   8.241   3.075   6.961
18693TIP3    H255957   8.171   2.973   6.874
18694TIP3   OH255958   9.527   4.451   7.267
18694TIP3    H155959   9.472   4.505   7.210
18694TIP3    H255960   9.614   4.489   7.259
18695TIP3   OH255961   8.621   2.711   7.803
18695TIP3    H155962   8.589   2.680   7.719
18695TIP3    H255963   8.613   2.635   7.861
18696TIP3   OH255964   8.135   3.952   7.209
18696TIP3    H155965   8.103   3.998   7.287
18696TIP3    H255966   8.099   4.001   7.135
18697TIP3   OH255967   1.815   9.116   0.280
18697TIP3    H155968   1.897   9.122   0.329
18697TIP3    H255969   1.802   9.022   0.265
18698TIP3   OH255970   2.275   9.023   0.315
18698TIP3    H155971   2.365   8.992   0.326
18698TIP3    H255972   2.240   8.971   0.242
18699TIP3   OH255973   8.773   4.001   6.442
18699TIP3    H155974   8.724   3.936   6.491
18699TIP3    H255975   8.844   3.952   6.401
18700TIP3   OH255976   2.927   8.951   0.058
18700TIP3    H155977   2.905   8.885   0.124
18700TIP3    H255978   3.002   8.998   0.095
18701TIP3   OH255979   9.182   4.046   6.383
18701TIP3    H155980   9.220   3.983   6.443
18701TIP3    H255981   9.242   4.048   6.309
18702TIP3   OH255982   1.911   8.530   0.465
18702TIP3    H155983   1.934   8.438   0.478
18702TIP3    H255984   1.826   8.527   0.422
18703TIP3   OH255985   8.439   3.501   6.670
18703TIP3    H155986   8.489   3.476   6.747
18703TIP3    H255987   8.505   3.518   6.603
18704TIP3   OH255988   2.538   8.596   0.249
18704TIP3    H155989   2.494   8.616   0.166
18704TIP3    H255990   2.571   8.506   0.237
18705TIP3   OH255991   8.999   3.690   6.512
18705TIP3    H155992   8.974   3.709   6.603
18705TIP3    H255993   8.986   3.595   6.504
18706TIP3   OH255994   9.532   3.982   7.898
18706TIP3    H155995   9.589   4.028   7.837
18706TIP3    H255996   9.445   4.020   7.883
18707TIP3   OH255997   2.016   8.280   0.493
18707TIP3    H155998   2.025   8.186   0.478
18707TIP3    H255999   2.064   8.297   0.574
18708TIP3   OH256000   8.612   3.437   6.883
18708TIP3    H156001   8.585   3.402   6.968
18708TIP3    H256002   8.660   3.366   6.841
18709TIP3   OH256003   2.395   8.152   0.130
18709TIP3    H156004   2.306   8.187   0.131
18709TIP3    H256005   2.428   8.170   0.042
18710TIP3   OH256006   8.737   3.239   6.723
18710TIP3    H156007   8.707   3.253   6.633
18710TIP3    H256008   8.828   3.213   6.715
18711TIP3   OH256009   2.844   8.525   0.150
18711TIP3    H156010   2.890   8.528   0.066
18711TIP3    H256011   2.914   8.522   0.215
18712TIP3   OH256012   9.502   3.564   6.409
18712TIP3    H156013   9.489   3.514   6.328
18712TIP3    H256014   9.473   3.653   6.388
18713TIP3   OH256015   2.465   7.907   0.234
18713TIP3    H156016   2.478   7.847   0.161
18713TIP3    H256017   2.445   7.991   0.193
18714TIP3   OH256018   9.030   3.095   8.031
18714TIP3    H156019   9.064   3.134   7.951
18714TIP3    H256020   8.938   3.079   8.013
18715TIP3   OH256021   9.046   3.590   7.891
18715TIP3    H156022   9.131   3.610   7.851
18715TIP3    H256023   8.986   3.654   7.854
18716TIP3   OH256024   9.732   3.855   8.032
18716TIP3    H156025   9.664   3.906   7.987
18716TIP3    H256026   9.810   3.864   7.977
18717TIP3   OH256027   2.392   8.007   0.491
18717TIP3    H156028   2.303   8.040   0.496
18717TIP3    H256029   2.405   7.987   0.399
18718TIP3   OH256030   2.496   7.479   0.172
18718TIP3    H156031   2.496   7.545   0.103
18718TIP3    H256032   2.479   7.397   0.126
18719TIP3   OH256033   2.167   7.730   0.446
18719TIP3    H156034   2.206   7.648   0.414
18719TIP3    H256035   2.222   7.756   0.520
18720TIP3   OH256036   8.573   4.307   6.639
18720TIP3    H156037   8.663   4.284   6.617
18720TIP3    H256038   8.540   4.353   6.561
18721TIP3   OH256039   8.041   3.687   6.831
18721TIP3    H156040   8.136   3.698   6.830
18721TIP3    H256041   8.027   3.600   6.794
18722TIP3   OH256042   7.942   4.267   7.297
18722TIP3    H156043   7.879   4.212   7.250
18722TIP3    H256044   7.988   4.207   7.355
18723TIP3   OH256045   8.085   4.099   7.462
18723TIP3    H156046   8.075   4.030   7.528
18723TIP3    H256047   8.144   4.162   7.503
18724TIP3   OH256048  -0.032   4.574   7.266
18724TIP3    H156049  -0.006   4.575   7.358
18724TIP3    H256050   0.049   4.560   7.217
18725TIP3   OH256051   0.010   4.536   7.536
18725TIP3    H156052  -0.035   4.452   7.535
18725TIP3    H256053   0.079   4.526   7.601
18726TIP3   OH256054   9.630   3.821   6.847
18726TIP3    H156055   9.692   3.791   6.782
18726TIP3    H256056   9.666   3.790   6.931
18727TIP3   OH256057   9.802   3.627   6.997
18727TIP3    H156058   9.722   3.582   7.025
18727TIP3    H256059   9.850   3.644   7.078
18728TIP3   OH256060   0.073   3.986   7.345
18728TIP3    H156061   0.126   3.933   7.286
18728TIP3    H256062   0.048   4.063   7.292
18729TIP3   OH256063   9.682   4.291   7.546
18729TIP3    H156064   9.622   4.337   7.604
18729TIP3    H256065   9.625   4.248   7.482
18730TIP3   OH256066   9.686   3.504   6.606
18730TIP3    H156067   9.608   3.524   6.554
18730TIP3    H256068   9.716   3.589   6.639
18731TIP3   OH256069   9.553   3.164   6.574
18731TIP3    H156070   9.568   3.204   6.489
18731TIP3    H256071   9.551   3.070   6.557
18732TIP3   OH256072   9.609   3.450   7.086
18732TIP3    H156073   9.615   3.355   7.073
18732TIP3    H256074   9.605   3.461   7.181
18733TIP3   OH256075   8.260   3.532   7.839
18733TIP3    H156076   8.253   3.502   7.749
18733TIP3    H256077   8.354   3.530   7.858
18734TIP3   OH256078   9.548   2.898   6.533
18734TIP3    H156079   9.613   2.829   6.542
18734TIP3    H256080   9.464   2.854   6.544
18735TIP3   OH256081   9.612   3.174   6.970
18735TIP3    H156082   9.653   3.089   6.987
18735TIP3    H256083   9.664   3.212   6.899
18736TIP3   OH256084   0.008   3.321   7.467
18736TIP3    H156085   0.096   3.286   7.486
18736TIP3    H256086  -0.017   3.367   7.547
18737TIP3   OH256087   9.751   3.482   7.675
18737TIP3    H156088   9.700   3.518   7.746
18737TIP3    H256089   9.812   3.552   7.650
18738TIP3   OH256090   1.913   7.822   0.485
18738TIP3    H156091   2.007   7.806   0.477
18738TIP3    H256092   1.883   7.756   0.547
18739TIP3   OH256093   9.714   2.922   7.012
18739TIP3    H156094   9.764   2.890   7.087
18739TIP3    H256095   9.645   2.857   7.000
18740TIP3   OH256096   8.457   2.933   7.833
18740TIP3    H156097   8.513   2.855   7.836
18740TIP3    H256098   8.519   3.005   7.819
18741TIP3   OH256099   8.241   3.189   7.897
18741TIP3    H156100   8.290   3.180   7.815
18741TIP3    H256101   8.271   3.273   7.934
18742TIP3   OH256102   0.042   2.807   6.642
18742TIP3    H156103   0.131   2.782   6.667
18742TIP3    H256104   0.048   2.901   6.623
18743TIP3   OH256105   8.229   2.699   7.397
18743TIP3    H156106   8.144   2.688   7.439
18743TIP3    H256107   8.210   2.754   7.320
18744TIP3   OH256108   9.403   4.421   6.918
18744TIP3    H156109   9.441   4.404   6.832
18744TIP3    H256110   9.449   4.499   6.949
18745TIP3   OH256111   1.893   7.361   0.198
18745TIP3    H156112   1.858   7.370   0.287
18745TIP3    H256113   1.839   7.420   0.146
18746TIP3   OH256114   1.945   8.840   0.279
18746TIP3    H156115   1.852   8.817   0.275
18746TIP3    H256116   1.971   8.819   0.369
18747TIP3   OH256117   8.692   4.263   7.842
18747TIP3    H156118   8.645   4.341   7.811
18747TIP3    H256119   8.774   4.263   7.792
18748TIP3   OH256120   9.091   4.492   7.984
18748TIP3    H156121   9.133   4.477   8.069
18748TIP3    H256122   9.153   4.546   7.935
18749TIP3   OH256123   9.278   4.642   7.848
18749TIP3    H156124   9.337   4.581   7.803
18749TIP3    H256125   9.336   4.695   7.902
18750TIP3   OH256126   8.355   4.499   7.892
18750TIP3    H156127   8.264   4.520   7.871
18750TIP3    H256128   8.380   4.563   7.959
18751TIP3   OH256129   8.586   4.498   7.743
18751TIP3    H156130   8.503   4.499   7.789
18751TIP3    H256131   8.564   4.517   7.652
18752TIP3   OH256132   8.994   4.506   7.534
18752TIP3    H156133   8.921   4.514   7.473
18752TIP3    H256134   9.004   4.592   7.573
18753TIP3   OH256135   9.256   4.439   7.580
18753TIP3    H156136   9.164   4.458   7.562
18753TIP3    H256137   9.304   4.507   7.533
18754TIP3   OH256138   9.452   4.615   7.482
18754TIP3    H156139   9.444   4.703   7.445
18754TIP3    H256140   9.479   4.560   7.408
18755TIP3   OH256141   8.266   4.267   7.614
18755TIP3    H156142   8.294   4.245   7.703
18755TIP3    H256143   8.337   4.237   7.558
18756TIP3   OH256144   8.473   4.176   7.465
18756TIP3    H156145   8.508   4.087   7.465
18756TIP3    H256146   8.550   4.232   7.466
18757TIP3   OH256147   8.744   4.251   7.467
18757TIP3    H156148   8.734   4.159   7.443
18757TIP3    H256149   8.800   4.249   7.545
18758TIP3   OH256150   9.304   2.887   7.584
18758TIP3    H156151   9.242   2.827   7.626
18758TIP3    H256152   9.361   2.830   7.533
18759TIP3   OH256153   9.805   2.787   7.462
18759TIP3    H156154   9.831   2.818   7.376
18759TIP3    H256155   9.751   2.857   7.499
18760TIP3   OH256156   0.091   2.864   7.216
18760TIP3    H156157   0.174   2.824   7.190
18760TIP3    H256158   0.105   2.958   7.207
18761TIP3   OH256159   8.527   2.603   7.568
18761TIP3    H156160   8.438   2.571   7.580
18761TIP3    H256161   8.580   2.525   7.555
18762TIP3   OH256162   8.363   2.510   7.233
18762TIP3    H156163   8.384   2.559   7.154
18762TIP3    H256164   8.323   2.574   7.291
18763TIP3   OH256165   9.003   2.639   7.449
18763TIP3    H156166   9.049   2.689   7.382
18763TIP3    H256167   9.030   2.678   7.532
18764TIP3   OH256168   9.482   2.744   7.421
18764TIP3    H156169   9.534   2.783   7.351
18764TIP3    H256170   9.528   2.664   7.444
18765TIP3   OH256171   9.522   2.728   6.986
18765TIP3    H156172   9.429   2.748   6.978
18765TIP3    H256173   9.526   2.647   7.037
18766TIP3   OH256174   8.031   4.081   6.989
18766TIP3    H156175   7.947   4.047   6.956
18766TIP3    H256176   8.033   4.171   6.958
18767TIP3   OH256177   8.463   2.637   6.989
18767TIP3    H156178   8.505   2.573   6.932
18767TIP3    H256179   8.534   2.692   7.020
18768TIP3   OH256180   8.827   4.228   6.583
18768TIP3    H156181   8.910   4.259   6.547
18768TIP3    H256182   8.803   4.154   6.527
18769TIP3   OH256183   9.521   4.375   6.672
18769TIP3    H156184   9.520   4.280   6.672
18769TIP3    H256185   9.469   4.400   6.596
18770TIP3   OH256186   8.143   4.070   6.650
18770TIP3    H156187   8.146   4.079   6.745
18770TIP3    H256188   8.224   4.024   6.627
18771TIP3   OH256189   9.719   4.514   7.885
18771TIP3    H156190   9.648   4.487   7.827
18771TIP3    H256191   9.717   4.610   7.883
18772TIP3   OH256192   0.093   3.363   6.951
18772TIP3    H156193   0.046   3.446   6.963
18772TIP3    H256194   0.045   3.319   6.880
18773TIP3   OH256195   0.302   3.629   7.109
18773TIP3    H156196   0.295   3.535   7.127
18773TIP3    H256197   0.289   3.636   7.015
18774TIP3   OH256198   0.172   3.976   6.625
18774TIP3    H156199   0.127   3.917   6.685
18774TIP3    H256200   0.232   4.026   6.680
18775TIP3   OH256201   0.256   4.085   7.535
18775TIP3    H156202   0.186   4.047   7.482
18775TIP3    H256203   0.329   4.024   7.525
18776TIP3   OH256204   0.033   4.249   7.247
18776TIP3    H156205   0.100   4.284   7.306
18776TIP3    H256206  -0.049   4.260   7.295
18777TIP3   OH256207   0.292   4.452   6.795
18777TIP3    H156208   0.368   4.408   6.834
18777TIP3    H256209   0.238   4.380   6.763
18778TIP3   OH256210   0.396   4.293   7.644
18778TIP3    H156211   0.480   4.259   7.614
18778TIP3    H256212   0.334   4.223   7.625
18779TIP3   OH256213   0.165   3.119   7.172
18779TIP3    H156214   0.206   3.205   7.182
18779TIP3    H256215   0.155   3.108   7.077
18780TIP3   OH256216   0.156   3.628   6.460
18780TIP3    H156217   0.203   3.560   6.507
18780TIP3    H256218   0.097   3.580   6.402
18781TIP3   OH256219   0.255   4.366   7.373
18781TIP3    H156220   0.294   4.291   7.418
18781TIP3    H256221   0.258   4.437   7.437
18782TIP3   OH256222   0.105   4.257   6.735
18782TIP3    H156223   0.051   4.297   6.802
18782TIP3    H256224   0.055   4.268   6.654
18783TIP3   OH256225   0.279   4.735   7.807
18783TIP3    H156226   0.357   4.679   7.810
18783TIP3    H256227   0.206   4.676   7.825
18784TIP3   OH256228   9.710   3.914   6.441
18784TIP3    H156229   9.784   3.969   6.412
18784TIP3    H256230   9.700   3.849   6.371
18785TIP3   OH256231   9.712   4.538   6.777
18785TIP3    H156232   9.651   4.486   6.724
18785TIP3    H256233   9.739   4.479   6.847
18786TIP3   OH256234  -0.003   4.364   6.969
18786TIP3    H156235  -0.035   4.288   7.018
18786TIP3    H256236   0.059   4.407   7.028
18787TIP3   OH256237   0.335   3.835   7.288
18787TIP3    H156238   0.313   3.763   7.229
18787TIP3    H256239   0.382   3.898   7.233
18788TIP3   OH256240   0.289   3.501   7.407
18788TIP3    H156241   0.253   3.482   7.320
18788TIP3    H256242   0.216   3.542   7.454
18789TIP3   OH256243   0.139   3.051   6.908
18789TIP3    H156244   0.062   2.995   6.920
18789TIP3    H256245   0.196   3.000   6.850
18790TIP3   OH256246   0.289   4.730   7.320
18790TIP3    H156247   0.210   4.783   7.322
18790TIP3    H256248   0.287   4.680   7.402
18791TIP3   OH256249   0.551   4.749   7.245
18791TIP3    H156250   0.459   4.739   7.270
18791TIP3    H256251   0.549   4.766   7.151
18792TIP3   OH256252   0.199   4.486   7.128
18792TIP3    H156253   0.213   4.448   7.214
18792TIP3    H256254   0.286   4.492   7.089
18793TIP3   OH256255   0.476   4.304   6.943
18793TIP3    H156256   0.533   4.227   6.945
18793TIP3    H256257   0.534   4.377   6.963
18794TIP3   OH256258   9.778   4.292   6.492
18794TIP3    H156259   9.696   4.310   6.447
18794TIP3    H256260   9.829   4.372   6.483
18795TIP3   OH256261   0.116   4.349   6.144
18795TIP3    H156262   0.148   4.409   6.211
18795TIP3    H256263   0.161   4.266   6.163
18796TIP3   OH256264   4.866   9.119   0.857
18796TIP3    H156265   4.848   9.193   0.798
18796TIP3    H256266   4.844   9.041   0.805
18797TIP3   OH256267   5.029   8.989   1.129
18797TIP3    H156268   4.989   9.011   1.213
18797TIP3    H256269   4.958   8.947   1.080
18798TIP3   OH256270   8.505   0.176   0.877
18798TIP3    H156271   8.594   0.143   0.864
18798TIP3    H256272   8.515   0.246   0.942
18799TIP3   OH256273   8.115   0.560   0.911
18799TIP3    H156274   8.155   0.492   0.857
18799TIP3    H256275   8.113   0.523   0.999
18800TIP3   OH256276   7.989   0.092   1.262
18800TIP3    H156277   8.058   0.072   1.198
18800TIP3    H256278   8.026   0.063   1.345
18801TIP3   OH256279   5.744   8.630   1.330
18801TIP3    H156280   5.746   8.713   1.283
18801TIP3    H256281   5.774   8.565   1.266
18802TIP3   OH256282   5.196   8.448   0.832
18802TIP3    H156283   5.249   8.508   0.885
18802TIP3    H256284   5.260   8.388   0.793
18803TIP3   OH256285   8.109   0.056   0.655
18803TIP3    H156286   8.072   0.024   0.573
18803TIP3    H256287   8.056   0.133   0.677
18804TIP3   OH256288   5.523   8.496   1.149
18804TIP3    H156289   5.435   8.460   1.157
18804TIP3    H256290   5.511   8.591   1.148
18805TIP3   OH256291   3.823   9.042   0.810
18805TIP3    H156292   3.791   9.048   0.720
18805TIP3    H256293   3.828   9.133   0.839
18806TIP3   OH256294   8.524   0.370   1.074
18806TIP3    H156295   8.444   0.359   1.125
18806TIP3    H256296   8.515   0.456   1.032
18807TIP3   OH256297   8.230   0.408   0.710
18807TIP3    H156298   8.283   0.330   0.691
18807TIP3    H256299   8.285   0.481   0.682
18808TIP3   OH256300   8.360   0.178   0.641
18808TIP3    H156301   8.285   0.119   0.651
18808TIP3    H256302   8.411   0.165   0.721
18809TIP3   OH256303   8.751   0.272   1.421
18809TIP3    H156304   8.730   0.202   1.360
18809TIP3    H256305   8.725   0.352   1.376
18810TIP3   OH256306   4.774   8.957   0.633
18810TIP3    H156307   4.700   9.006   0.596
18810TIP3    H256308   4.837   8.951   0.561
18811TIP3   OH256309   4.768   8.705   0.365
18811TIP3    H156310   4.837   8.762   0.399
18811TIP3    H256311   4.814   8.638   0.315
18812TIP3   OH256312   5.713   9.198   1.276
18812TIP3    H156313   5.620   9.184   1.291
18812TIP3    H256314   5.723   9.191   1.181
18813TIP3   OH256315   5.150   9.051   0.596
18813TIP3    H156316   5.152   9.117   0.665
18813TIP3    H256317   5.228   8.998   0.612
18814TIP3   OH256318   4.396   8.996   1.072
18814TIP3    H156319   4.334   8.947   1.017
18814TIP3    H256320   4.426   8.932   1.136
18815TIP3   OH256321   7.762   0.190   1.141
18815TIP3    H156322   7.751   0.146   1.057
18815TIP3    H256323   7.836   0.146   1.182
18816TIP3   OH256324   8.296   0.346   1.222
18816TIP3    H156325   8.269   0.436   1.242
18816TIP3    H256326   8.215   0.295   1.229
18817TIP3   OH256327   4.964   8.906   0.445
18817TIP3    H156328   5.032   8.961   0.483
18817TIP3    H256329   4.992   8.892   0.355
18818TIP3   OH256330   7.979   0.289   0.713
18818TIP3    H156331   8.060   0.339   0.723
18818TIP3    H256332   7.921   0.346   0.663
18819TIP3   OH256333   5.498   8.054   0.441
18819TIP3    H156334   5.427   8.074   0.502
18819TIP3    H256335   5.512   8.136   0.393
18820TIP3   OH256336   4.300   8.913   0.821
18820TIP3    H156337   4.240   8.984   0.798
18820TIP3    H256338   4.243   8.839   0.839
18821TIP3   OH256339   8.572   0.199   0.076
18821TIP3    H156340   8.565   0.292   0.054
18821TIP3    H256341   8.661   0.175   0.052
18822TIP3   OH256342   9.012   0.674   1.447
18822TIP3    H156343   9.001   0.579   1.439
18822TIP3    H256344   8.926   0.707   1.474
18823TIP3   OH256345   7.872   0.495   0.545
18823TIP3    H156346   7.828   0.479   0.461
18823TIP3    H256347   7.841   0.582   0.572
18824TIP3   OH256348   7.316   0.317   0.892
18824TIP3    H156349   7.363   0.321   0.975
18824TIP3    H256350   7.239   0.372   0.905
18825TIP3   OH256351   8.074   0.435   0.168
18825TIP3    H156352   8.123   0.365   0.126
18825TIP3    H256353   8.111   0.441   0.256
18826TIP3   OH256354   8.125   0.461   0.441
18826TIP3    H156355   8.040   0.466   0.484
18826TIP3    H256356   8.183   0.421   0.506
18827TIP3   OH256357   5.060   8.823   0.202
18827TIP3    H156358   5.006   8.819   0.123
18827TIP3    H256359   5.139   8.869   0.174
18828TIP3   OH256360   4.706   8.338   0.454
18828TIP3    H156361   4.762   8.322   0.531
18828TIP3    H256362   4.721   8.262   0.397
18829TIP3   OH256363   4.272   8.536   1.191
18829TIP3    H156364   4.314   8.455   1.221
18829TIP3    H256365   4.281   8.533   1.096
18830TIP3   OH256366   4.861   8.697   0.694
18830TIP3    H156367   4.833   8.786   0.675
18830TIP3    H256368   4.957   8.700   0.689
18831TIP3   OH256369   5.057   8.686   1.013
18831TIP3    H156370   5.075   8.761   0.956
18831TIP3    H256371   5.083   8.610   0.960
18832TIP3   OH256372   4.465   8.176   0.382
18832TIP3    H156373   4.483   8.173   0.476
18832TIP3    H256374   4.373   8.202   0.377
18833TIP3   OH256375   3.978   8.189   1.017
18833TIP3    H156376   4.010   8.170   0.929
18833TIP3    H256377   3.978   8.284   1.022
18834TIP3   OH256378   4.522   8.429   0.744
18834TIP3    H156379   4.539   8.523   0.743
18834TIP3    H256380   4.491   8.409   0.656
18835TIP3   OH256381   4.246   8.568   0.642
18835TIP3    H156382   4.224   8.475   0.652
18835TIP3    H256383   4.333   8.567   0.601
18836TIP3   OH256384   8.632   1.010   1.534
18836TIP3    H156385   8.644   0.992   1.441
18836TIP3    H256386   8.720   1.021   1.568
18837TIP3   OH256387   4.511   9.076   0.602
18837TIP3    H156388   4.445   9.010   0.582
18837TIP3    H256389   4.495   9.100   0.693
18838TIP3   OH256390   8.675   0.109   1.215
18838TIP3    H156391   8.719   0.159   1.146
18838TIP3    H256392   8.588   0.090   1.178
18839TIP3   OH256393   5.000   8.369   0.370
18839TIP3    H156394   4.939   8.351   0.442
18839TIP3    H256395   5.020   8.462   0.380
18840TIP3   OH256396   5.079   8.623   0.404
18840TIP3    H156397   5.101   8.658   0.491
18840TIP3    H256398   5.093   8.696   0.345
18841TIP3   OH256399   4.691   9.196   0.442
18841TIP3    H156400   4.658   9.285   0.429
18841TIP3    H256401   4.621   9.152   0.491
18842TIP3   OH256402   5.513   8.704   0.365
18842TIP3    H156403   5.451   8.665   0.303
18842TIP3    H256404   5.518   8.796   0.340
18843TIP3   OH256405   8.989   0.404   1.425
18843TIP3    H156406   8.902   0.365   1.439
18843TIP3    H256407   9.023   0.359   1.348
18844TIP3   OH256408   8.476   0.274   0.331
18844TIP3    H156409   8.448   0.200   0.386
18844TIP3    H256410   8.503   0.234   0.249
18845TIP3   OH256411   5.191   9.219   1.113
18845TIP3    H156412   5.140   9.141   1.134
18845TIP3    H256413   5.199   9.218   1.017
18846TIP3   OH256414   7.626   0.147   0.886
18846TIP3    H156415   7.630   0.228   0.835
18846TIP3    H256416   7.535   0.141   0.914
18847TIP3   OH256417   3.870   8.596   0.702
18847TIP3    H156418   3.909   8.676   0.665
18847TIP3    H256419   3.783   8.623   0.730
18848TIP3   OH256420   4.488   9.149   0.867
18848TIP3    H156421   4.454   9.239   0.863
18848TIP3    H256422   4.444   9.110   0.942
18849TIP3   OH256423   7.551   0.380   0.754
18849TIP3    H156424   7.464   0.371   0.793
18849TIP3    H256425   7.571   0.474   0.763
18850TIP3   OH256426   4.971   9.254   0.192
18850TIP3    H156427   5.027   9.241   0.268
18850TIP3    H256428   4.892   9.203   0.210
18851TIP3   OH256429   8.504   0.622   1.370
18851TIP3    H156430   8.414   0.589   1.373
18851TIP3    H256431   8.499   0.703   1.321
18852TIP3   OH256432   8.559   0.469   0.032
18852TIP3    H156433   8.556   0.513  -0.054
18852TIP3    H256434   8.497   0.518   0.086
18853TIP3   OH256435   5.165   9.218   0.378
18853TIP3    H156436   5.149   9.170   0.459
18853TIP3    H256437   5.260   9.214   0.366
18854TIP3   OH256438   4.354   9.213   0.228
18854TIP3    H156439   4.363   9.121   0.202
18854TIP3    H256440   4.325   9.209   0.319
18855TIP3   OH256441   7.545  -0.001   0.492
18855TIP3    H156442   7.615  -0.034   0.549
18855TIP3    H256443   7.549   0.094   0.502
18856TIP3   OH256444   4.098   9.079   0.749
18856TIP3    H156445   4.013   9.061   0.790
18856TIP3    H256446   4.078   9.093   0.657
18857TIP3   OH256447   5.065   8.225   0.755
18857TIP3    H156448   5.026   8.231   0.668
18857TIP3    H256449   5.089   8.315   0.778
18858TIP3   OH256450   7.829   0.192   0.443
18858TIP3    H156451   7.742   0.209   0.477
18858TIP3    H256452   7.848   0.265   0.386
18859TIP3   OH256453   4.844   8.516   0.913
18859TIP3    H156454   4.842   8.584   0.844
18859TIP3    H256455   4.761   8.528   0.960
18860TIP3   OH256456   4.831   8.272   1.030
18860TIP3    H156457   4.841   8.363   1.003
18860TIP3    H256458   4.905   8.256   1.090
18861TIP3   OH256459   7.572   0.267   0.508
18861TIP3    H156460   7.551   0.339   0.448
18861TIP3    H256461   7.565   0.306   0.596
18862TIP3   OH256462   4.331   8.199   0.815
18862TIP3    H156463   4.324   8.291   0.840
18862TIP3    H256464   4.408   8.195   0.758
18863TIP3   OH256465   5.287   8.905   0.999
18863TIP3    H156466   5.227   8.923   1.071
18863TIP3    H256467   5.374   8.914   1.039
18864TIP3   OH256468   4.027   9.128   0.471
18864TIP3    H156469   4.094   9.196   0.477
18864TIP3    H256470   4.066   9.061   0.415
18865TIP3   OH256471   3.956   8.379   0.547
18865TIP3    H156472   4.017   8.360   0.618
18865TIP3    H256473   3.905   8.454   0.579
18866TIP3   OH256474   8.529   0.628   0.971
18866TIP3    H156475   8.481   0.683   0.909
18866TIP3    H256476   8.621   0.645   0.953
18867TIP3   OH256477   7.143   0.072   0.851
18867TIP3    H156478   7.091   0.137   0.803
18867TIP3    H256479   7.228   0.115   0.865
18868TIP3   OH256480   7.765   0.182   0.132
18868TIP3    H156481   7.719   0.109   0.172
18868TIP3    H256482   7.840   0.142   0.087
18869TIP3   OH256483   8.197   0.232   0.037
18869TIP3    H156484   8.229   0.162   0.095
18869TIP3    H256485   8.254   0.227  -0.040
18870TIP3   OH256486   4.168   8.932   0.344
18870TIP3    H156487   4.219   8.909   0.421
18870TIP3    H256488   4.232   8.937   0.273
18871TIP3   OH256489   4.724   9.126   0.178
18871TIP3    H156490   4.699   9.136   0.270
18871TIP3    H256491   4.713   9.033   0.160
18872TIP3   OH256492   4.339   8.871   0.546
18872TIP3    H156493   4.335   8.844   0.638
18872TIP3    H256494   4.396   8.806   0.505
18873TIP3   OH256495   4.493   8.716   0.381
18873TIP3    H156496   4.463   8.713   0.291
18873TIP3    H256497   4.589   8.719   0.374
18874TIP3   OH256498   5.268   8.954   0.083
18874TIP3    H156499   5.255   8.913  -0.002
18874TIP3    H256500   5.245   9.046   0.069
18875TIP3   OH256501   7.566   0.481   0.337
18875TIP3    H156502   7.656   0.463   0.311
18875TIP3    H256503   7.527   0.524   0.261
18876TIP3   OH256504   3.783   9.028   0.536
18876TIP3    H156505   3.854   9.084   0.505
18876TIP3    H256506   3.736   9.004   0.456
18877TIP3   OH256507   8.783   0.717   0.931
18877TIP3    H156508   8.818   0.732   1.019
18877TIP3    H256509   8.857   0.732   0.873
18878TIP3   OH256510   8.836   0.722   1.210
18878TIP3    H156511   8.796   0.636   1.220
18878TIP3    H256512   8.929   0.707   1.225
18879TIP3   OH256513   5.438   9.181   0.389
18879TIP3    H156514   5.497   9.252   0.364
18879TIP3    H256515   5.482   9.137   0.461
18880TIP3   OH256516   5.561   9.022   0.575
18880TIP3    H156517   5.492   9.001   0.638
18880TIP3    H256518   5.626   9.072   0.627
18881TIP3   OH256519   8.706   0.483   1.254
18881TIP3    H156520   8.632   0.528   1.297
18881TIP3    H256521   8.666   0.438   1.180
18882TIP3   OH256522   5.486   8.949   0.248
18882TIP3    H156523   5.412   8.942   0.187
18882TIP3    H256524   5.469   9.030   0.297
18883TIP3   OH256525   5.334   8.604   0.187
18883TIP3    H156526   5.280   8.635   0.115
18883TIP3    H256527   5.324   8.509   0.185
18884TIP3   OH256528   5.346   8.908   0.722
18884TIP3    H156529   5.402   8.831   0.730
18884TIP3    H256530   5.329   8.936   0.812
18885TIP3   OH256531   5.293   8.336   0.160
18885TIP3    H156532   5.364   8.301   0.214
18885TIP3    H256533   5.223   8.271   0.167
18886TIP3   OH256534   5.391   8.583   0.576
18886TIP3    H156535   5.463   8.543   0.627
18886TIP3    H256536   5.435   8.631   0.506
18887TIP3   OH256537   5.505   8.767   1.155
18887TIP3    H156538   5.595   8.771   1.122
18887TIP3    H256539   5.512   8.796   1.246
18888TIP3   OH256540   5.514   8.315   0.592
18888TIP3    H156541   5.484   8.237   0.638
18888TIP3    H256542   5.439   8.342   0.539
18889TIP3   OH256543   5.531   8.284   0.293
18889TIP3    H156544   5.576   8.224   0.233
18889TIP3    H256545   5.591   8.359   0.300
18890TIP3   OH256546   8.373   0.611   0.603
18890TIP3    H156547   8.418   0.583   0.523
18890TIP3    H256548   8.429   0.681   0.639
18891TIP3   OH256549   7.997   0.699   1.182
18891TIP3    H156550   7.929   0.690   1.115
18891TIP3    H256551   7.977   0.782   1.225
18892TIP3   OH256552   8.245   0.614   1.253
18892TIP3    H156553   8.155   0.641   1.231
18892TIP3    H256554   8.300   0.684   1.217
18893TIP3   OH256555   8.444   0.802   1.167
18893TIP3    H156556   8.442   0.887   1.123
18893TIP3    H256557   8.475   0.741   1.099
18894TIP3   OH256558   7.466   0.332   1.117
18894TIP3    H156559   7.491   0.259   1.174
18894TIP3    H256560   7.541   0.391   1.119
18895TIP3   OH256561   7.718   0.453   1.152
18895TIP3    H156562   7.741   0.361   1.140
18895TIP3    H256563   7.745   0.473   1.242
18896TIP3   OH256564   5.495   8.202   1.173
18896TIP3    H156565   5.534   8.247   1.248
18896TIP3    H256566   5.415   8.162   1.209
18897TIP3   OH256567   5.650   8.195   0.815
18897TIP3    H156568   5.681   8.212   0.904
18897TIP3    H256569   5.599   8.273   0.793
18898TIP3   OH256570   5.264   8.084   1.231
18898TIP3    H156571   5.205   8.142   1.183
18898TIP3    H256572   5.249   7.997   1.193
18899TIP3   OH256573   5.310   8.126   0.626
18899TIP3    H156574   5.268   8.206   0.596
18899TIP3    H256575   5.248   8.056   0.602
18900TIP3   OH256576   4.080   8.109   0.767
18900TIP3    H156577   4.106   8.020   0.743
18900TIP3    H256578   4.163   8.156   0.779
18901TIP3   OH256579   4.739   8.275   0.768
18901TIP3    H156580   4.768   8.268   0.859
18901TIP3    H256581   4.664   8.335   0.771
18902TIP3   OH256582   7.821   0.410   0.270
18902TIP3    H156583   7.904   0.438   0.232
18902TIP3    H256584   7.792   0.338   0.215
18903TIP3   OH256585   8.513   0.541   0.377
18903TIP3    H156586   8.506   0.446   0.365
18903TIP3    H256587   8.477   0.578   0.296
18904TIP3   OH256588   7.129   0.237   0.367
18904TIP3    H156589   7.129   0.332   0.383
18904TIP3    H256590   7.217   0.218   0.336
18905TIP3   OH256591   0.216   0.064   0.303
18905TIP3    H156592   0.188   0.152   0.279
18905TIP3    H256593   0.144   0.007   0.274
18906TIP3   OH256594   0.196   0.075   0.668
18906TIP3    H156595   0.238   0.047   0.750
18906TIP3    H256596   0.157  -0.006   0.633
18907TIP3   OH256597   6.041   9.188   1.024
18907TIP3    H156598   6.074   9.235   1.101
18907TIP3    H256599   6.111   9.193   0.960
18908TIP3   OH256600   0.482   0.369   0.398
18908TIP3    H156601   0.472   0.304   0.467
18908TIP3    H256602   0.504   0.450   0.444
18909TIP3   OH256603   9.321   0.351   0.774
18909TIP3    H156604   9.296   0.263   0.747
18909TIP3    H256605   9.411   0.362   0.743
18910TIP3   OH256606   5.748   8.825   0.520
18910TIP3    H156607   5.688   8.899   0.521
18910TIP3    H256608   5.691   8.748   0.514
18911TIP3   OH256609   5.763   9.144   0.717
18911TIP3    H156610   5.810   9.066   0.745
18911TIP3    H256611   5.829   9.213   0.713
18912TIP3   OH256612   0.143   0.792   0.415
18912TIP3    H156613   0.167   0.732   0.345
18912TIP3    H256614   0.154   0.741   0.496
18913TIP3   OH256615   0.028   0.294   0.715
18913TIP3    H156616   0.070   0.217   0.676
18913TIP3    H256617   0.100   0.346   0.749
18914TIP3   OH256618   7.618   8.863   0.723
18914TIP3    H156619   7.638   8.943   0.771
18914TIP3    H256620   7.656   8.877   0.637
18915TIP3   OH256621   6.964   9.003   0.758
18915TIP3    H156622   6.992   8.912   0.769
18915TIP3    H256623   6.924   9.005   0.671
18916TIP3   OH256624   6.307   8.665   0.623
18916TIP3    H156625   6.295   8.736   0.559
18916TIP3    H256626   6.249   8.595   0.593
18917TIP3   OH256627   7.013   8.768   0.349
18917TIP3    H156628   7.084   8.761   0.413
18917TIP3    H256629   7.055   8.804   0.270
18918TIP3   OH256630   5.902   8.911   0.768
18918TIP3    H156631   5.996   8.892   0.763
18918TIP3    H256632   5.864   8.868   0.692
18919TIP3   OH256633   6.363   9.093   0.634
18919TIP3    H156634   6.458   9.079   0.632
18919TIP3    H256635   6.326   9.015   0.593
18920TIP3   OH256636   7.674   9.106   0.860
18920TIP3    H156637   7.629   9.145   0.785
18920TIP3    H256638   7.663   9.170   0.930
18921TIP3   OH256639   6.302   8.592   1.187
18921TIP3    H156640   6.243   8.629   1.121
18921TIP3    H256641   6.244   8.551   1.251
18922TIP3   OH256642   0.113   0.284   0.167
18922TIP3    H156643   0.074   0.255   0.084
18922TIP3    H256644   0.061   0.359   0.193
18923TIP3   OH256645   9.659   0.211   0.915
18923TIP3    H156646   9.609   0.279   0.959
18923TIP3    H256647   9.704   0.257   0.844
18924TIP3   OH256648   7.196   8.786   0.546
18924TIP3    H156649   7.154   8.762   0.629
18924TIP3    H256650   7.255   8.858   0.569
18925TIP3   OH256651   6.158   8.828   0.802
18925TIP3    H156652   6.226   8.884   0.842
18925TIP3    H256653   6.204   8.780   0.734
18926TIP3   OH256654   9.502   0.403   1.044
18926TIP3    H156655   9.472   0.491   1.021
18926TIP3    H256656   9.422   0.352   1.056
18927TIP3   OH256657   8.884   0.127   0.293
18927TIP3    H156658   8.852   0.145   0.205
18927TIP3    H256659   8.905   0.214   0.329
18928TIP3   OH256660   0.514   0.615   0.538
18928TIP3    H156661   0.425   0.610   0.572
18928TIP3    H256662   0.517   0.698   0.490
18929TIP3   OH256663   7.373   8.760   0.802
18929TIP3    H156664   7.324   8.838   0.775
18929TIP3    H256665   7.463   8.779   0.776
18930TIP3   OH256666   6.678   8.394   0.823
18930TIP3    H156667   6.628   8.314   0.806
18930TIP3    H256668   6.639   8.429   0.903
18931TIP3   OH256669   0.224   0.645   0.195
18931TIP3    H156670   0.276   0.565   0.183
18931TIP3    H256671   0.280   0.716   0.164
18932TIP3   OH256672   0.362   0.414   0.153
18932TIP3    H156673   0.289   0.352   0.154
18932TIP3    H256674   0.413   0.391   0.231
18933TIP3   OH256675   0.752   0.511   0.871
18933TIP3    H156676   0.740   0.438   0.810
18933TIP3    H256677   0.739   0.589   0.817
18934TIP3   OH256678   6.574   9.149   0.150
18934TIP3    H156679   6.490   9.193   0.132
18934TIP3    H256680   6.619   9.151   0.065
18935TIP3   OH256681   3.275   4.332   7.847
18935TIP3    H156682   3.341   4.382   7.896
18935TIP3    H256683   3.325   4.265   7.800
18936TIP3   OH256684   0.940   0.154   0.747
18936TIP3    H156685   0.858   0.203   0.744
18936TIP3    H256686   0.986   0.179   0.667
18937TIP3   OH256687   6.935   9.229   0.115
18937TIP3    H156688   6.881   9.259   0.188
18937TIP3    H256689   7.020   9.209   0.154
18938TIP3   OH256690   0.612   0.104   0.916
18938TIP3    H156691   0.630   0.174   0.854
18938TIP3    H256692   0.528   0.128   0.955
18939TIP3   OH256693   6.141   9.214   0.506
18939TIP3    H156694   6.105   9.152   0.443
18939TIP3    H256695   6.218   9.170   0.542
18940TIP3   OH256696   9.569   0.397   0.649
18940TIP3    H156697   9.543   0.388   0.557
18940TIP3    H256698   9.660   0.367   0.651
18941TIP3   OH256699   6.248   9.229   0.842
18941TIP3    H156700   6.289   9.179   0.772
18941TIP3    H256701   6.301   9.309   0.848
18942TIP3   OH256702   0.270   0.611   0.660
18942TIP3    H156703   0.262   0.690   0.713
18942TIP3    H256704   0.261   0.539   0.723
18943TIP3   OH256705   9.695   0.514   1.205
18943TIP3    H156706   9.634   0.577   1.244
18943TIP3    H256707   9.640   0.457   1.152
18944TIP3   OH256708   3.498   4.475   7.945
18944TIP3    H156709   3.558   4.532   7.993
18944TIP3    H256710   3.527   4.480   7.854
18945TIP3   OH256711   9.776   0.523   0.205
18945TIP3    H156712   9.857   0.573   0.209
18945TIP3    H256713   9.717   0.577   0.152
18946TIP3   OH256714   9.502   0.684   1.291
18946TIP3    H156715   9.471   0.697   1.201
18946TIP3    H256716   9.423   0.662   1.341
18947TIP3   OH256717   7.273   8.320   0.001
18947TIP3    H156718   7.200   8.345   0.057
18947TIP3    H256719   7.286   8.395  -0.057
18948TIP3   OH256720   6.018   9.052   0.312
18948TIP3    H156721   5.946   9.106   0.278
18948TIP3    H256722   5.976   8.969   0.337
18949TIP3   OH256723   3.837   5.083   7.557
18949TIP3    H156724   3.833   5.176   7.537
18949TIP3    H256725   3.926   5.057   7.534
18950TIP3   OH256726   9.041   0.230   1.220
18950TIP3    H156727   8.978   0.243   1.149
18950TIP3    H256728   9.023   0.141   1.252
18951TIP3   OH256729   0.986   0.856   0.960
18951TIP3    H156730   0.990   0.762   0.977
18951TIP3    H256731   0.906   0.885   1.003
18952TIP3   OH256732   0.092   0.649   1.068
18952TIP3    H156733   0.086   0.741   1.095
18952TIP3    H256734   0.020   0.605   1.113
18953TIP3   OH256735   9.669   0.741   0.029
18953TIP3    H156736   9.630   0.728  -0.057
18953TIP3    H256737   9.635   0.826   0.059
18954TIP3   OH256738   9.107   0.607   0.410
18954TIP3    H156739   9.146   0.598   0.497
18954TIP3    H256740   9.055   0.528   0.399
18955TIP3   OH256741   3.351   5.310   7.644
18955TIP3    H156742   3.399   5.230   7.622
18955TIP3    H256743   3.362   5.319   7.738
18956TIP3   OH256744   3.388   5.345   7.921
18956TIP3    H156745   3.302   5.345   7.963
18956TIP3    H256746   3.447   5.310   7.987
18957TIP3   OH256747   7.447   9.250   1.248
18957TIP3    H156748   7.356   9.272   1.229
18957TIP3    H256749   7.469   9.182   1.184
18958TIP3   OH256750   6.514   8.431   1.039
18958TIP3    H156751   6.477   8.362   0.983
18958TIP3    H256752   6.452   8.503   1.031
18959TIP3   OH256753   6.931   8.482   1.223
18959TIP3    H156754   6.932   8.391   1.253
18959TIP3    H256755   6.839   8.508   1.232
18960TIP3   OH256756   7.131   9.025   0.987
18960TIP3    H156757   7.147   9.107   1.034
18960TIP3    H256758   7.090   9.052   0.904
18961TIP3   OH256759   3.576   4.444   7.682
18961TIP3    H156760   3.532   4.452   7.598
18961TIP3    H256761   3.658   4.493   7.671
18962TIP3   OH256762   6.554   8.492   0.005
18962TIP3    H156763   6.521   8.493   0.094
18962TIP3    H256764   6.514   8.415  -0.036
18963TIP3   OH256765   6.370   8.927   0.936
18963TIP3    H156766   6.352   8.934   1.030
18963TIP3    H256767   6.459   8.961   0.926
18964TIP3   OH256768   6.214   8.902   0.510
18964TIP3    H156769   6.131   8.864   0.539
18964TIP3    H256770   6.225   8.869   0.421
18965TIP3   OH256771   6.706   8.947   0.279
18965TIP3    H156772   6.657   9.020   0.240
18965TIP3    H256773   6.763   8.916   0.208
18966TIP3   OH256774   0.446   0.027   1.350
18966TIP3    H156775   0.372  -0.006   1.401
18966TIP3    H256776   0.520   0.023   1.410
18967TIP3   OH256777   6.882   8.964   0.496
18967TIP3    H156778   6.812   8.988   0.436
18967TIP3    H256779   6.923   8.888   0.455
18968TIP3   OH256780   6.124   9.212   1.317
18968TIP3    H156781   6.208   9.200   1.273
18968TIP3    H256782   6.085   9.124   1.317
18969TIP3   OH256783   2.950   3.852   7.968
18969TIP3    H156784   2.943   3.857   8.064
18969TIP3    H256785   2.872   3.897   7.936
18970TIP3   OH256786   5.762   8.468   0.902
18970TIP3    H156787   5.836   8.527   0.886
18970TIP3    H256788   5.796   8.381   0.880
18971TIP3   OH256789   5.701   8.506   0.327
18971TIP3    H156790   5.740   8.541   0.247
18971TIP3    H256791   5.637   8.572   0.353
18972TIP3   OH256792   6.843   9.210   0.891
18972TIP3    H156793   6.888   9.140   0.843
18972TIP3    H256794   6.864   9.192   0.983
18973TIP3   OH256795   6.580   8.731   0.605
18973TIP3    H156796   6.499   8.693   0.639
18973TIP3    H256797   6.649   8.678   0.644
18974TIP3   OH256798   6.004   8.736   0.560
18974TIP3    H156799   5.914   8.746   0.529
18974TIP3    H256800   6.027   8.646   0.536
18975TIP3   OH256801   6.246   8.741   0.294
18975TIP3    H156802   6.341   8.751   0.280
18975TIP3    H256803   6.208   8.759   0.208
18976TIP3   OH256804   7.016   8.733   0.749
18976TIP3    H156805   6.977   8.698   0.829
18976TIP3    H256806   6.962   8.699   0.678
18977TIP3   OH256807   6.119   8.760   0.056
18977TIP3    H156808   6.055   8.713   0.003
18977TIP3    H256809   6.170   8.811  -0.007
18978TIP3   OH256810   0.698   1.209   1.043
18978TIP3    H156811   0.695   1.225   0.948
18978TIP3    H256812   0.777   1.253   1.072
18979TIP3   OH256813   6.636   9.046   0.659
18979TIP3    H156814   6.677   8.972   0.613
18979TIP3    H256815   6.642   9.023   0.752
18980TIP3   OH256816   6.121   8.492   0.506
18980TIP3    H156817   6.127   8.408   0.550
18980TIP3    H256818   6.137   8.473   0.413
18981TIP3   OH256819   6.647   8.972   0.925
18981TIP3    H156820   6.649   8.877   0.934
18981TIP3    H256821   6.717   9.004   0.982
18982TIP3   OH256822   9.601   0.042   0.097
18982TIP3    H156823   9.526  -0.013   0.074
18982TIP3    H256824   9.576   0.084   0.180
18983TIP3   OH256825   0.696   0.291   0.702
18983TIP3    H156826   0.741   0.340   0.633
18983TIP3    H256827   0.618   0.256   0.660
18984TIP3   OH256828   6.805   8.600  -0.003
18984TIP3    H156829   6.711   8.579  -0.003
18984TIP3    H256830   6.808   8.695   0.009
18985TIP3   OH256831   0.230   0.395   1.106
18985TIP3    H156832   0.227   0.370   1.199
18985TIP3    H256833   0.194   0.484   1.104
18986TIP3   OH256834   6.867   8.864   0.065
18986TIP3    H156835   6.962   8.869   0.074
18986TIP3    H256836   6.844   8.942   0.014
18987TIP3   OH256837   9.277   0.077   0.724
18987TIP3    H156838   9.303   0.053   0.636
18987TIP3    H256839   9.348   0.045   0.780
18988TIP3   OH256840   3.223   4.826   7.946
18988TIP3    H156841   3.177   4.910   7.941
18988TIP3    H256842   3.165   4.770   7.997
18989TIP3   OH256843   0.186   0.171   1.297
18989TIP3    H156844   0.174   0.125   1.214
18989TIP3    H256845   0.223   0.106   1.356
18990TIP3   OH256846   0.365   0.667   1.002
18990TIP3    H156847   0.270   0.662   1.004
18990TIP3    H256848   0.389   0.707   1.085
18991TIP3   OH256849   4.007   4.332   7.892
18991TIP3    H156850   3.951   4.286   7.830
18991TIP3    H256851   4.014   4.421   7.858
18992TIP3   OH256852   0.995   0.571   0.978
18992TIP3    H156853   0.900   0.566   0.966
18992TIP3    H256854   1.031   0.553   0.891
18993TIP3   OH256855   3.756   5.152   7.824
18993TIP3    H156856   3.727   5.082   7.883
18993TIP3    H256857   3.774   5.107   7.741
18994TIP3   OH256858   0.467   0.166   0.597
18994TIP3    H156859   0.373   0.150   0.607
18994TIP3    H256860   0.502   0.084   0.563
18995TIP3   OH256861   9.420   0.402   0.412
18995TIP3    H156862   9.424   0.477   0.353
18995TIP3    H256863   9.326   0.389   0.428
18996TIP3   OH256864   5.728   8.930   0.121
18996TIP3    H156865   5.767   9.015   0.140
18996TIP3    H256866   5.644   8.932   0.168
18997TIP3   OH256867   9.510   0.156   0.323
18997TIP3    H156868   9.491   0.246   0.351
18997TIP3    H256869   9.475   0.101   0.393
18998TIP3   OH256870   9.694   0.718   0.873
18998TIP3    H156871   9.725   0.794   0.824
18998TIP3    H256872   9.772   0.684   0.917
18999TIP3   OH256873   9.339   0.622   0.260
18999TIP3    H156874   9.252   0.630   0.300
18999TIP3    H256875   9.376   0.710   0.266
19000TIP3   OH256876   0.264   0.387   0.832
19000TIP3    H156877   0.253   0.388   0.927
19000TIP3    H256878   0.350   0.349   0.818
19001TIP3   OH256879   3.523   4.879   7.712
19001TIP3    H156880   3.571   4.850   7.789
19001TIP3    H256881   3.438   4.836   7.719
19002TIP3   OH256882   0.510   0.890   0.881
19002TIP3    H156883   0.438   0.828   0.893
19002TIP3    H256884   0.481   0.945   0.808
19003TIP3   OH256885   3.840   5.359   7.523
19003TIP3    H156886   3.887   5.435   7.487
19003TIP3    H256887   3.761   5.397   7.561
19004TIP3   OH256888   3.694   4.790   7.906
19004TIP3    H156889   3.679   4.739   7.986
19004TIP3    H256890   3.788   4.803   7.903
19005TIP3   OH256891   9.098   0.608   1.025
19005TIP3    H156892   9.088   0.513   1.030
19005TIP3    H256893   9.186   0.625   1.058
19006TIP3   OH256894   2.890   4.846   7.723
19006TIP3    H156895   2.894   4.753   7.699
19006TIP3    H256896   2.861   4.847   7.814
19007TIP3   OH256897   9.344   0.247  -0.011
19007TIP3    H156898   9.412   0.223   0.052
19007TIP3    H256899   9.341   0.343  -0.007
19008TIP3   OH256900   5.806   9.186   0.201
19008TIP3    H156901   5.743   9.235   0.252
19008TIP3    H256902   5.827   9.242   0.126
19009TIP3   OH256903   6.984   8.841   1.123
19009TIP3    H156904   7.023   8.917   1.078
19009TIP3    H256905   6.962   8.874   1.210
19010TIP3   OH256906   6.869   8.548   0.260
19010TIP3    H156907   6.847   8.568   0.169
19010TIP3    H256908   6.909   8.629   0.293
19011TIP3   OH256909   3.082   5.059   7.933
19011TIP3    H156910   2.996   5.084   7.967
19011TIP3    H256911   3.107   5.132   7.876
19012TIP3   OH256912   6.523   8.751   0.338
19012TIP3    H156913   6.583   8.819   0.307
19012TIP3    H256914   6.540   8.745   0.432
19013TIP3   OH256915   6.859   9.106   1.144
19013TIP3    H156916   6.914   9.155   1.206
19013TIP3    H256917   6.838   9.025   1.189
19014TIP3   OH256918   6.692   8.443   0.442
19014TIP3    H156919   6.721   8.497   0.516
19014TIP3    H256920   6.747   8.472   0.369
19015TIP3   OH256921   9.361   0.519   0.006
19015TIP3    H156922   9.336   0.587  -0.056
19015TIP3    H256923   9.351   0.559   0.092
19016TIP3   OH256924   6.197   8.471   0.241
19016TIP3    H156925   6.192   8.565   0.257
19016TIP3    H256926   6.290   8.449   0.253
19017TIP3   OH256927   7.494   9.036   1.089
19017TIP3    H156928   7.427   8.975   1.120
19017TIP3    H256929   7.461   9.067   1.005
19018TIP3   OH256930   7.099   9.147   0.514
19018TIP3    H156931   7.023   9.089   0.513
19018TIP3    H256932   7.162   9.102   0.571
19019TIP3   OH256933   2.564   4.737   7.985
19019TIP3    H156934   2.633   4.803   7.990
19019TIP3    H256935   2.597   4.673   7.921
19020TIP3   OH256936   5.747   8.653   0.102
19020TIP3    H156937   5.763   8.746   0.117
19020TIP3    H256938   5.681   8.650   0.033
19021TIP3   OH256939   0.539   0.880   0.453
19021TIP3    H156940   0.496   0.931   0.384
19021TIP3    H256941   0.632   0.900   0.443
19022TIP3   OH256942   6.186   8.456   0.825
19022TIP3    H156943   6.190   8.389   0.756
19022TIP3    H256944   6.202   8.408   0.906
19023TIP3   OH256945   8.927   0.392   0.381
19023TIP3    H156946   8.884   0.425   0.461
19023TIP3    H256947   8.880   0.436   0.310
19024TIP3   OH256948   9.122   0.938   1.443
19024TIP3    H156949   9.204   0.936   1.493
19024TIP3    H256950   9.096   0.847   1.436
19025TIP3   OH256951   9.595   0.856   1.488
19025TIP3    H156952   9.690   0.852   1.500
19025TIP3    H256953   9.578   0.796   1.415
19026TIP3   OH256954   3.032   5.062   7.622
19026TIP3    H156955   2.988   4.990   7.667
19026TIP3    H256956   3.107   5.021   7.579
19027TIP3   OH256957   0.419   0.775   1.250
19027TIP3    H156958   0.430   0.708   1.319
19027TIP3    H256959   0.494   0.833   1.261
19028TIP3   OH256960   3.470   5.085   7.542
19028TIP3    H156961   3.502   5.021   7.605
19028TIP3    H256962   3.528   5.075   7.466
19029TIP3   OH256963   2.689   4.541   7.841
19029TIP3    H156964   2.740   4.519   7.919
19029TIP3    H256965   2.754   4.555   7.773
19030TIP3   OH256966   0.101   0.476   1.373
19030TIP3    H156967   0.036   0.490   1.304
19030TIP3    H256968   0.081   0.389   1.408
19031TIP3   OH256969   3.269   4.765   7.681
19031TIP3    H156970   3.242   4.779   7.772
19031TIP3    H256971   3.245   4.674   7.663
19032TIP3   OH256972   0.527   0.436   1.006
19032TIP3    H156973   0.606   0.471   0.964
19032TIP3    H256974   0.466   0.509   1.006
19033TIP3   OH256975   6.127   9.103   0.053
19033TIP3    H156976   6.102   9.069   0.139
19033TIP3    H256977   6.176   9.031   0.012
19034TIP3   OH256978   6.405   9.197   1.382
19034TIP3    H156979   6.391   9.289   1.356
19034TIP3    H256980   6.463   9.162   1.315
19035TIP3   OH256981   3.004   4.302   7.898
19035TIP3    H156982   2.975   4.306   7.807
19035TIP3    H256983   3.099   4.311   7.894
19036TIP3   OH256984   0.461   0.341   1.368
19036TIP3    H156985   0.525   0.338   1.298
19036TIP3    H256986   0.494   0.279   1.434
19037TIP3   OH256987   3.792   4.587   7.584
19037TIP3    H156988   3.780   4.547   7.497
19037TIP3    H256989   3.773   4.680   7.571
19038TIP3   OH256990   6.494   8.961   1.491
19038TIP3    H156991   6.432   8.892   1.468
19038TIP3    H256992   6.462   9.039   1.444
19039TIP3   OH256993   6.501   8.768   1.200
19039TIP3    H156994   6.441   8.843   1.207
19039TIP3    H256995   6.443   8.692   1.194
19040TIP3   OH256996   0.090   0.084   1.026
19040TIP3    H156997   0.167   0.063   0.973
19040TIP3    H256998   0.028   0.123   0.964
19041TIP3   OH256999   7.210   9.189   1.487
19041TIP3    H157000   7.223   9.126   1.558
19041TIP3    H257001   7.265   9.158   1.416
19042TIP3   OH257002   0.679   0.305   1.197
19042TIP3    H157003   0.625   0.341   1.127
19042TIP3    H257004   0.768   0.307   1.162
19043TIP3   OH257005   6.669   8.522   1.314
19043TIP3    H157006   6.685   8.555   1.403
19043TIP3    H257007   6.681   8.428   1.321
19044TIP3   OH257008   6.753   8.914   1.549
19044TIP3    H157009   6.777   8.940   1.638
19044TIP3    H257010   6.662   8.940   1.539
19045TIP3   OH257011   6.976   8.973   1.373
19045TIP3    H157012   6.917   8.964   1.448
19045TIP3    H257013   7.064   8.963   1.410
19046TIP3   OH257014   7.273   9.010   1.682
19046TIP3    H157015   7.301   8.922   1.655
19046TIP3    H257016   7.268   9.005   1.777
19047TIP3   OH257017   6.845   8.425   1.527
19047TIP3    H157018   6.909   8.417   1.598
19047TIP3    H257019   6.857   8.514   1.495
19048TIP3   OH257020   2.798   5.337   7.818
19048TIP3    H157021   2.890   5.334   7.792
19048TIP3    H257022   2.759   5.403   7.761
19049TIP3   OH257023   2.292   4.730   8.010
19049TIP3    H157024   2.386   4.742   8.001
19049TIP3    H257025   2.275   4.644   7.971
19050TIP3   OH257026   8.728   0.691   0.465
19050TIP3    H157027   8.663   0.639   0.418
19050TIP3    H257028   8.772   0.629   0.523
19051TIP3   OH257029   8.860   0.516   0.634
19051TIP3    H157030   8.831   0.452   0.699
19051TIP3    H257031   8.910   0.580   0.684
19052TIP3   OH257032   0.800   0.958   0.445
19052TIP3    H157033   0.835   0.974   0.533
19052TIP3    H257034   0.872   0.982   0.387
19053TIP3   OH257035   0.836   0.966   0.732
19053TIP3    H157036   0.789   0.883   0.722
19053TIP3    H257037   0.906   0.947   0.794
19054TIP3   OH257038   0.882   0.671   1.276
19054TIP3    H157039   0.811   0.674   1.340
19054TIP3    H257040   0.928   0.754   1.286
19055TIP3   OH257041   3.974   4.799   7.911
19055TIP3    H157042   4.029   4.870   7.879
19055TIP3    H257043   4.022   4.761   7.984
19056TIP3   OH257044   0.843   0.037   0.107
19056TIP3    H157045   0.776   0.004   0.167
19056TIP3    H257046   0.909   0.076   0.164
19057TIP3   OH257047   0.877   0.425   0.539
19057TIP3    H157048   0.934   0.358   0.500
19057TIP3    H257049   0.887   0.501   0.481
19058TIP3   OH257050   0.684   0.732   0.727
19058TIP3    H157051   0.618   0.779   0.779
19058TIP3    H257052   0.635   0.694   0.655
19059TIP3   OH257053   4.003   4.572   7.759
19059TIP3    H157054   3.930   4.572   7.697
19059TIP3    H257055   3.990   4.651   7.811
19060TIP3   OH257056   3.850   4.217   7.701
19060TIP3    H157057   3.804   4.255   7.626
19060TIP3    H257058   3.846   4.123   7.686
19061TIP3   OH257059   7.168   9.142   0.245
19061TIP3    H157060   7.173   9.048   0.230
19061TIP3    H257061   7.150   9.151   0.338
19062TIP3   OH257062   5.765   9.189   1.015
19062TIP3    H157063   5.721   9.268   0.983
19062TIP3    H257064   5.858   9.205   0.995
19063TIP3   OH257065   0.939   0.317   1.092
19063TIP3    H157066   0.998   0.252   1.053
19063TIP3    H257067   0.959   0.398   1.046
19064TIP3   OH257068   1.104   0.082   1.058
19064TIP3    H157069   1.044   0.078   1.132
19064TIP3    H257070   1.190   0.063   1.096
19065TIP3   OH257071   3.823   3.944   7.668
19065TIP3    H157072   3.886   3.921   7.736
19065TIP3    H257073   3.740   3.909   7.699
19066TIP3   OH257074   7.155   8.860   0.127
19066TIP3    H157075   7.203   8.779   0.141
19066TIP3    H257076   7.196   8.900   0.050
19067TIP3   OH257077   7.319   9.015   0.659
19067TIP3    H157078   7.397   9.038   0.610
19067TIP3    H257079   7.325   9.065   0.740
19068TIP3   OH257080   7.369   9.180   0.878
19068TIP3    H157081   7.288   9.223   0.903
19068TIP3    H257082   7.421   9.248   0.836
19069TIP3   OH257083   7.947   8.825   1.392
19069TIP3    H157084   7.987   8.743   1.363
19069TIP3    H257085   7.960   8.885   1.318
19070TIP3   OH257086   7.273   8.612   0.182
19070TIP3    H157087   7.320   8.599   0.265
19070TIP3    H257088   7.212   8.539   0.178
19071TIP3   OH257089   5.979   8.624   0.867
19071TIP3    H157090   6.037   8.552   0.841
19071TIP3    H257091   6.014   8.700   0.822
19072TIP3   OH257092   5.753   8.906   1.245
19072TIP3    H157093   5.800   8.915   1.163
19072TIP3    H257094   5.733   8.996   1.271
19073TIP3   OH257095   7.748   8.933   1.135
19073TIP3    H157096   7.662   8.960   1.102
19073TIP3    H257097   7.762   8.846   1.097
19074TIP3   OH257098   4.052   3.897   7.819
19074TIP3    H157099   4.105   3.838   7.766
19074TIP3    H257100   4.104   3.977   7.825
19075TIP3   OH257101   5.775   8.330   0.518
19075TIP3    H157102   5.687   8.315   0.552
19075TIP3    H257103   5.763   8.391   0.446
19076TIP3   OH257104   0.368   0.844   0.088
19076TIP3    H157105   0.423   0.835   0.010
19076TIP3    H257106   0.409   0.913   0.139
19077TIP3   OH257107   9.286   0.628   1.448
19077TIP3    H157108   9.191   0.640   1.445
19077TIP3    H257109   9.310   0.651   1.538
19078TIP3   OH257110   9.458   0.679   1.014
19078TIP3    H157111   9.413   0.757   0.981
19078TIP3    H257112   9.544   0.683   0.973
19079TIP3   OH257113   0.078   0.915   1.145
19079TIP3    H157114   0.116   0.917   1.233
19079TIP3    H257115   0.138   0.968   1.093
19080TIP3   OH257116   0.270   1.073   1.026
19080TIP3    H157117   0.336   1.023   0.978
19080TIP3    H257118   0.320   1.130   1.084
19081TIP3   OH257119   7.743   8.676   1.038
19081TIP3    H157120   7.650   8.691   1.054
19081TIP3    H257121   7.756   8.582   1.051
19082TIP3   OH257122   9.146   0.969   1.046
19082TIP3    H157123   9.052   0.976   1.030
19082TIP3    H257124   9.163   1.027   1.120
19083TIP3   OH257125   9.371   0.915   0.907
19083TIP3    H157126   9.291   0.934   0.955
19083TIP3    H257127   9.350   0.938   0.816
19084TIP3   OH257128   9.777   0.929   0.715
19084TIP3    H157129   9.710   0.942   0.647
19084TIP3    H257130   9.791   1.017   0.751
19085TIP3   OH257131   0.244   0.867   0.759
19085TIP3    H157132   0.152   0.886   0.741
19085TIP3    H257133   0.293   0.934   0.711
19086TIP3   OH257134   0.444   1.041   0.657
19086TIP3    H157135   0.445   1.129   0.619
19086TIP3    H257136   0.476   0.985   0.586
19087TIP3   OH257137   9.025   0.703   0.778
19087TIP3    H157138   9.047   0.683   0.869
19087TIP3    H257139   9.101   0.672   0.727
19088TIP3   OH257140   9.243   0.592   0.654
19088TIP3    H157141   9.261   0.509   0.700
19088TIP3    H257142   9.328   0.636   0.650
19089TIP3   OH257143   9.513   0.675   0.664
19089TIP3    H157144   9.536   0.584   0.643
19089TIP3    H257145   9.566   0.697   0.740
19090TIP3   OH257146   6.805   8.566   0.659
19090TIP3    H157147   6.765   8.510   0.726
19090TIP3    H257148   6.887   8.522   0.637
19091TIP3   OH257149   7.315   8.480   0.633
19091TIP3    H157150   7.351   8.533   0.562
19091TIP3    H257151   7.222   8.502   0.634
19092TIP3   OH257152   7.434   8.556   0.399
19092TIP3    H157153   7.502   8.494   0.372
19092TIP3    H257154   7.475   8.642   0.389
19093TIP3   OH257155   6.144   8.258   0.637
19093TIP3    H157156   6.059   8.260   0.681
19093TIP3    H257157   6.175   8.169   0.651
19094TIP3   OH257158   5.847   8.132   0.342
19094TIP3    H157159   5.891   8.182   0.273
19094TIP3    H257160   5.828   8.197   0.409
19095TIP3   OH257161   6.486   8.281   0.563
19095TIP3    H157162   6.548   8.353   0.551
19095TIP3    H257163   6.462   8.285   0.655
19096TIP3   OH257164   7.034   8.432   0.594
19096TIP3    H157165   7.065   8.400   0.510
19096TIP3    H257166   7.027   8.353   0.649
19097TIP3   OH257167   7.091   8.399   0.191
19097TIP3    H157168   7.011   8.449   0.210
19097TIP3    H257169   7.075   8.313   0.228
19098TIP3   OH257170   8.800   0.515   0.170
19098TIP3    H157171   8.720   0.485   0.128
19098TIP3    H257172   8.809   0.606   0.142
19099TIP3   OH257173   5.987   8.293   0.155
19099TIP3    H157174   6.034   8.234   0.096
19099TIP3    H257175   6.055   8.352   0.189
19100TIP3   OH257176   6.471   8.490   0.269
19100TIP3    H157177   6.525   8.440   0.329
19100TIP3    H257178   6.489   8.582   0.291
19101TIP3   OH257179   3.066   5.304   7.762
19101TIP3    H157180   3.091   5.379   7.707
19101TIP3    H257181   3.061   5.230   7.701
19102TIP3   OH257182   3.786   5.421   7.859
19102TIP3    H157183   3.779   5.326   7.851
19102TIP3    H257184   3.741   5.455   7.781
19103TIP3   OH257185   2.376   5.116   7.824
19103TIP3    H157186   2.379   5.144   7.916
19103TIP3    H257187   2.458   5.071   7.809
19104TIP3   OH257188   7.392   8.751   1.664
19104TIP3    H157189   7.435   8.684   1.610
19104TIP3    H257190   7.464   8.803   1.699
19105TIP3   OH257191   0.733   0.935   1.047
19105TIP3    H157192   0.659   0.908   0.992
19105TIP3    H257193   0.724   1.030   1.053
19106TIP3   OH257194   5.256   4.917   7.784
19106TIP3    H157195   5.225   5.006   7.768
19106TIP3    H257196   5.199   4.862   7.731
19107TIP3   OH257197   2.023   0.352   0.170
19107TIP3    H157198   1.954   0.381   0.230
19107TIP3    H257199   1.978   0.339   0.086
19108TIP3   OH257200   1.320   0.193   0.556
19108TIP3    H157201   1.356   0.136   0.623
19108TIP3    H257202   1.395   0.219   0.502
19109TIP3   OH257203   5.550   5.245   7.895
19109TIP3    H157204   5.542   5.176   7.960
19109TIP3    H257205   5.570   5.324   7.946
19110TIP3   OH257206   1.277   0.594   0.259
19110TIP3    H157207   1.268   0.499   0.253
19110TIP3    H257208   1.372   0.608   0.261
19111TIP3   OH257209   7.509   9.037   0.034
19111TIP3    H157210   7.478   9.125   0.055
19111TIP3    H257211   7.436   8.997  -0.013
19112TIP3   OH257212   1.070   0.124   0.248
19112TIP3    H157213   1.120   0.046   0.272
19112TIP3    H257214   1.137   0.189   0.225
19113TIP3   OH257215   5.199   5.671   7.898
19113TIP3    H157216   5.224   5.606   7.832
19113TIP3    H257217   5.201   5.622   7.980
19114TIP3   OH257218   9.386   9.095   0.238
19114TIP3    H157219   9.401   9.179   0.281
19114TIP3    H257220   9.400   9.112   0.145
19115TIP3   OH257221   8.717   9.259   0.240
19115TIP3    H157222   8.761   9.177   0.265
19115TIP3    H257223   8.699   9.249   0.147
19116TIP3   OH257224   8.107   8.918   0.213
19116TIP3    H157225   8.088   8.992   0.155
19116TIP3    H257226   8.051   8.847   0.180
19117TIP3   OH257227   5.547   4.397   7.849
19117TIP3    H157228   5.606   4.391   7.924
19117TIP3    H257229   5.600   4.439   7.780
19118TIP3   OH257230   7.733   9.137   0.344
19118TIP3    H157231   7.820   9.129   0.383
19118TIP3    H257232   7.737   9.084   0.265
19119TIP3   OH257233   1.614   0.077   0.157
19119TIP3    H157234   1.706   0.054   0.167
19119TIP3    H257235   1.574  -0.001   0.118
19120TIP3   OH257236   2.908   0.076   0.403
19120TIP3    H157237   2.823   0.117   0.390
19120TIP3    H257238   2.942   0.116   0.483
19121TIP3   OH257239   8.094   8.928   0.661
19121TIP3    H157240   8.047   8.970   0.589
19121TIP3    H257241   8.041   8.947   0.738
19122TIP3   OH257242   5.141   5.144   7.676
19122TIP3    H157243   5.122   5.128   7.583
19122TIP3    H257244   5.099   5.228   7.694
19123TIP3   OH257245   8.970   9.034   0.077
19123TIP3    H157246   8.922   9.021   0.159
19123TIP3    H257247   9.025   9.111   0.093
19124TIP3   OH257248   7.986   9.043   0.432
19124TIP3    H157249   8.038   9.120   0.453
19124TIP3    H257250   8.034   9.000   0.361
19125TIP3   OH257251   1.482   0.674   0.555
19125TIP3    H157252   1.474   0.761   0.516
19125TIP3    H257253   1.401   0.662   0.605
19126TIP3   OH257254   4.143   4.988   7.791
19126TIP3    H157255   4.111   5.010   7.704
19126TIP3    H257256   4.168   5.072   7.830
19127TIP3   OH257257   2.321   0.876   0.036
19127TIP3    H157258   2.232   0.869   0.071
19127TIP3    H257259   2.321   0.957  -0.014
19128TIP3   OH257260   9.184   8.974   0.400
19128TIP3    H157261   9.097   9.000   0.369
19128TIP3    H257262   9.245   9.006   0.334
19129TIP3   OH257263   8.435   8.619   0.390
19129TIP3    H157264   8.427   8.527   0.417
19129TIP3    H257265   8.359   8.662   0.428
19130TIP3   OH257266   5.286   5.517   7.681
19130TIP3    H157267   5.338   5.438   7.674
19130TIP3    H257268   5.344   5.587   7.653
19131TIP3   OH257269   5.445   5.301   7.644
19131TIP3    H157270   5.446   5.222   7.591
19131TIP3    H257271   5.483   5.274   7.728
19132TIP3   OH257272   2.552   0.752   0.386
19132TIP3    H157273   2.534   0.680   0.325
19132TIP3    H257274   2.535   0.831   0.335
19133TIP3   OH257275   5.092   4.765   7.616
19133TIP3    H157276   5.019   4.823   7.595
19133TIP3    H257277   5.096   4.704   7.542
19134TIP3   OH257278   2.731   0.416   0.236
19134TIP3    H157279   2.648   0.463   0.237
19134TIP3    H257280   2.766   0.431   0.149
19135TIP3   OH257281   5.481   4.922   7.621
19135TIP3    H157282   5.410   4.916   7.685
19135TIP3    H257283   5.553   4.871   7.659
19136TIP3   OH257284   2.453   0.278   0.551
19136TIP3    H157285   2.437   0.359   0.598
19136TIP3    H257286   2.371   0.261   0.504
19137TIP3   OH257287   4.692   4.847   8.008
19137TIP3    H157288   4.662   4.787   7.941
19137TIP3    H257289   4.767   4.802   8.048
19138TIP3   OH257290   1.551   0.639   0.190
19138TIP3    H157291   1.576   0.603   0.104
19138TIP3    H257292   1.611   0.597   0.252
19139TIP3   OH257293   1.528   0.238   0.365
19139TIP3    H157294   1.556   0.188   0.288
19139TIP3    H257295   1.588   0.312   0.369
19140TIP3   OH257296   2.077   0.871   0.159
19140TIP3    H157297   2.064   0.952   0.208
19140TIP3    H257298   2.039   0.803   0.215
19141TIP3   OH257299   1.707   0.764   0.691
19141TIP3    H157300   1.644   0.820   0.737
19141TIP3    H257301   1.653   0.709   0.635
19142TIP3   OH257302   1.466   0.331   0.854
19142TIP3    H157303   1.468   0.426   0.868
19142TIP3    H257304   1.379   0.314   0.818
19143TIP3   OH257305   5.034   5.405   7.688
19143TIP3    H157306   5.121   5.444   7.694
19143TIP3    H257307   4.982   5.468   7.640
19144TIP3   OH257308   1.492   0.922   0.781
19144TIP3    H157309   1.469   0.931   0.689
19144TIP3    H257310   1.407   0.912   0.826
19145TIP3   OH257311   5.803   3.956   7.501
19145TIP3    H157312   5.726   3.980   7.552
19145TIP3    H257313   5.820   4.032   7.445
19146TIP3   OH257314   4.569   4.690   7.805
19146TIP3    H157315   4.491   4.737   7.777
19146TIP3    H257316   4.540   4.599   7.816
19147TIP3   OH257317   5.629   5.341   7.044
19147TIP3    H157318   5.628   5.435   7.029
19147TIP3    H257319   5.717   5.313   7.018
19148TIP3   OH257320   1.072   0.488   0.732
19148TIP3    H157321   1.007   0.462   0.667
19148TIP3    H257322   1.114   0.406   0.759
19149TIP3   OH257323   0.977   0.646   0.385
19149TIP3    H157324   1.065   0.629   0.350
19149TIP3    H257325   0.988   0.722   0.442
19150TIP3   OH257326   2.794   1.135   0.457
19150TIP3    H157327   2.794   1.039   0.457
19150TIP3    H257328   2.705   1.160   0.481
19151TIP3   OH257329   1.884   0.925   0.546
19151TIP3    H157330   1.865   1.008   0.589
19151TIP3    H257331   1.835   0.860   0.597
19152TIP3   OH257332   4.931   5.624   7.520
19152TIP3    H157333   4.886   5.605   7.438
19152TIP3    H257334   4.894   5.707   7.549
19153TIP3   OH257335   4.365   5.481   7.905
19153TIP3    H157336   4.412   5.472   7.988
19153TIP3    H257337   4.320   5.398   7.894
19154TIP3   OH257338   5.133   5.552   7.147
19154TIP3    H157339   5.183   5.478   7.114
19154TIP3    H257340   5.167   5.567   7.235
19155TIP3   OH257341   5.185   5.597   7.416
19155TIP3    H157342   5.100   5.600   7.460
19155TIP3    H257343   5.243   5.556   7.481
19156TIP3   OH257344   2.670   0.237   0.721
19156TIP3    H157345   2.596   0.248   0.662
19156TIP3    H257346   2.690   0.143   0.716
19157TIP3   OH257347   1.259   0.687   0.716
19157TIP3    H157348   1.314   0.673   0.793
19157TIP3    H257349   1.193   0.617   0.720
19158TIP3   OH257350   8.196   8.713   0.512
19158TIP3    H157351   8.113   8.685   0.474
19158TIP3    H257352   8.176   8.795   0.557
19159TIP3   OH257353   8.746   8.836   0.717
19159TIP3    H157354   8.813   8.810   0.780
19159TIP3    H257355   8.663   8.817   0.762
19160TIP3   OH257356   2.433   0.006   0.640
19160TIP3    H157357   2.394   0.008   0.728
19160TIP3    H257358   2.414   0.092   0.604
19161TIP3   OH257359   5.313   4.798   7.121
19161TIP3    H157360   5.310   4.745   7.041
19161TIP3    H257361   5.406   4.812   7.136
19162TIP3   OH257362   5.084   4.087   7.491
19162TIP3    H157363   5.048   4.104   7.578
19162TIP3    H257364   5.035   4.010   7.460
19163TIP3   OH257365   1.603   0.018   0.514
19163TIP3    H157366   1.583   0.045   0.604
19163TIP3    H257367   1.588   0.097   0.462
19164TIP3   OH257368   8.007   9.109   0.046
19164TIP3    H157369   7.917   9.086   0.070
19164TIP3    H257370   8.017   9.078  -0.044
19165TIP3   OH257371   5.225   4.562   7.744
19165TIP3    H157372   5.179   4.643   7.721
19165TIP3    H257373   5.251   4.525   7.660
19166TIP3   OH257374   2.148   0.226   0.853
19166TIP3    H157375   2.124   0.157   0.915
19166TIP3    H257376   2.237   0.251   0.879
19167TIP3   OH257377   5.407   4.603   7.974
19167TIP3    H157378   5.335   4.630   7.917
19167TIP3    H257379   5.444   4.525   7.932
19168TIP3   OH257380   1.430   0.026   0.750
19168TIP3    H157381   1.497   0.076   0.797
19168TIP3    H257382   1.427  -0.058   0.796
19169TIP3   OH257383   4.738   4.106   7.464
19169TIP3    H157384   4.737   4.116   7.559
19169TIP3    H257385   4.667   4.162   7.433
19170TIP3   OH257386   7.569   8.781   0.337
19170TIP3    H157387   7.639   8.820   0.389
19170TIP3    H257388   7.601   8.783   0.247
19171TIP3   OH257389   4.195   4.134   7.838
19171TIP3    H157390   4.243   4.172   7.765
19171TIP3    H257391   4.132   4.201   7.863
19172TIP3   OH257392   2.218   0.195   0.450
19172TIP3    H157393   2.204   0.158   0.364
19172TIP3    H257394   2.147   0.160   0.504
19173TIP3   OH257395   8.373   8.907   0.096
19173TIP3    H157396   8.292   8.907   0.147
19173TIP3    H257397   8.434   8.961   0.147
19174TIP3   OH257398   7.768   8.989   0.116
19174TIP3    H157399   7.681   8.993   0.075
19174TIP3    H257400   7.801   8.902   0.094
19175TIP3   OH257401   4.760   4.374   7.801
19175TIP3    H157402   4.855   4.388   7.793
19175TIP3    H257403   4.726   4.393   7.714
19176TIP3   OH257404   8.828   9.013   0.318
19176TIP3    H157405   8.806   9.037   0.408
19176TIP3    H257406   8.762   8.948   0.293
19177TIP3   OH257407   4.641   4.397   7.557
19177TIP3    H157408   4.579   4.352   7.499
19177TIP3    H257409   4.696   4.448   7.497
19178TIP3   OH257410   2.494   1.466   0.525
19178TIP3    H157411   2.491   1.476   0.430
19178TIP3    H257412   2.571   1.516   0.552
19179TIP3   OH257413   1.425   0.593   0.947
19179TIP3    H157414   1.507   0.621   0.988
19179TIP3    H257415   1.360   0.597   1.017
19180TIP3   OH257416   8.405   9.208   0.211
19180TIP3    H157417   8.484   9.259   0.194
19180TIP3    H257418   8.410   9.186   0.303
19181TIP3   OH257419   7.914   8.749   0.086
19181TIP3    H157420   7.888   8.670   0.132
19181TIP3    H257421   7.944   8.717   0.000
19182TIP3   OH257422   8.395   9.168   0.487
19182TIP3    H157423   8.310   9.211   0.494
19182TIP3    H257424   8.456   9.228   0.531
19183TIP3   OH257425   4.864   4.925   7.572
19183TIP3    H157426   4.790   4.869   7.551
19183TIP3    H257427   4.843   4.962   7.658
19184TIP3   OH257428   2.505   0.563   0.193
19184TIP3    H157429   2.533   0.615   0.117
19184TIP3    H257430   2.425   0.519   0.162
19185TIP3   OH257431   5.282   4.272   7.483
19185TIP3    H157432   5.208   4.212   7.483
19185TIP3    H257433   5.245   4.356   7.453
19186TIP3   OH257434   1.288   0.307   0.232
19186TIP3    H157435   1.327   0.292   0.146
19186TIP3    H257436   1.359   0.292   0.293
19187TIP3   OH257437   5.024   5.089   7.421
19187TIP3    H157438   4.973   5.170   7.425
19187TIP3    H257439   4.973   5.026   7.472
19188TIP3   OH257440   1.185   0.278   0.865
19188TIP3    H157441   1.224   0.276   0.953
19188TIP3    H257442   1.132   0.198   0.861
19189TIP3   OH257443   1.929   0.395   0.867
19189TIP3    H157444   1.886   0.382   0.783
19189TIP3    H257445   2.010   0.345   0.861
19190TIP3   OH257446   2.161   0.930   0.506
19190TIP3    H157447   2.066   0.918   0.508
19190TIP3    H257448   2.183   0.959   0.594
19191TIP3   OH257449   5.819   4.581   7.379
19191TIP3    H157450   5.769   4.533   7.312
19191TIP3    H257451   5.815   4.672   7.350
19192TIP3   OH257452   2.797   0.856   0.459
19192TIP3    H157453   2.705   0.829   0.457
19192TIP3    H257454   2.833   0.821   0.378
19193TIP3   OH257455   5.538   5.398   7.310
19193TIP3    H157456   5.518   5.323   7.366
19193TIP3    H257457   5.563   5.358   7.226
19194TIP3   OH257458   2.286   0.420   0.093
19194TIP3    H157459   2.200   0.404   0.130
19194TIP3    H257460   2.312   0.335   0.055
19195TIP3   OH257461   4.670   5.273   7.880
19195TIP3    H157462   4.669   5.353   7.827
19195TIP3    H257463   4.589   5.278   7.932
19196TIP3   OH257464   4.237   4.561   7.614
19196TIP3    H157465   4.283   4.642   7.637
19196TIP3    H257466   4.158   4.563   7.668
19197TIP3   OH257467   4.760   5.026   7.801
19197TIP3    H157468   4.742   5.117   7.828
19197TIP3    H257469   4.744   4.974   7.879
19198TIP3   OH257470   1.695   0.987   0.351
19198TIP3    H157471   1.735   1.059   0.302
19198TIP3    H257472   1.765   0.952   0.405
19199TIP3   OH257473   4.589   5.510   7.746
19199TIP3    H157474   4.506   5.514   7.793
19199TIP3    H257475   4.625   5.599   7.754
19200TIP3   OH257476   5.316   5.132   7.209
19200TIP3    H157477   5.369   5.124   7.288
19200TIP3    H257478   5.242   5.072   7.224
19201TIP3   OH257479   2.308   1.136   0.376
19201TIP3    H157480   2.242   1.071   0.399
19201TIP3    H257481   2.269   1.184   0.303
19202TIP3   OH257482   5.645   5.618   7.018
19202TIP3    H157483   5.694   5.694   6.988
19202TIP3    H257484   5.564   5.653   7.055
19203TIP3   OH257485   7.936   9.009   0.876
19203TIP3    H157486   7.844   9.032   0.877
19203TIP3    H257487   7.952   8.967   0.960
19204TIP3   OH257488   5.496   5.105   7.420
19204TIP3    H157489   5.473   5.038   7.484
19204TIP3    H257490   5.589   5.091   7.403
19205TIP3   OH257491   1.115   0.872   0.532
19205TIP3    H157492   1.167   0.813   0.587
19205TIP3    H257493   1.136   0.959   0.565
19206TIP3   OH257494   4.657   5.109   7.221
19206TIP3    H157495   4.673   5.019   7.194
19206TIP3    H257496   4.650   5.104   7.317
19207TIP3   OH257497   4.607   5.121   7.496
19207TIP3    H157498   4.675   5.094   7.557
19207TIP3    H257499   4.606   5.217   7.501
19208TIP3   OH257500   4.338   4.808   7.699
19208TIP3    H157501   4.275   4.858   7.751
19208TIP3    H257502   4.362   4.867   7.628
19209TIP3   OH257503   8.758   9.075   0.580
19209TIP3    H157504   8.841   9.116   0.606
19209TIP3    H257505   8.755   8.993   0.630
19210TIP3   OH257506   5.382   4.200   7.740
19210TIP3    H157507   5.350   4.232   7.655
19210TIP3    H257508   5.430   4.275   7.777
19211TIP3   OH257509   4.868   5.309   7.423
19211TIP3    H157510   4.784   5.334   7.463
19211TIP3    H257511   4.894   5.385   7.372
19212TIP3   OH257512   5.037   4.383   7.841
19212TIP3    H157513   5.099   4.448   7.807
19212TIP3    H257514   5.065   4.369   7.931
19213TIP3   OH257515   2.056   0.061   0.633
19213TIP3    H157516   2.090   0.108   0.710
19213TIP3    H257517   2.112  -0.017   0.627
19214TIP3   OH257518   5.211   4.085   7.932
19214TIP3    H157519   5.187   4.160   7.987
19214TIP3    H257520   5.274   4.121   7.870
19215TIP3   OH257521   4.618   5.397   7.499
19215TIP3    H157522   4.601   5.468   7.438
19215TIP3    H257523   4.607   5.436   7.586
19216TIP3   OH257524   4.721   4.102   7.747
19216TIP3    H157525   4.712   4.195   7.772
19216TIP3    H257526   4.815   4.086   7.751
19217TIP3   OH257527   9.234   9.209   0.625
19217TIP3    H157528   9.138   9.207   0.636
19217TIP3    H257529   9.248   9.181   0.535
19218TIP3   OH257530   2.362   0.158   0.002
19218TIP3    H157531   2.282   0.106   0.003
19218TIP3    H257532   2.422   0.111   0.060
19219TIP3   OH257533   4.364   4.988   7.484
19219TIP3    H157534   4.437   5.049   7.497
19219TIP3    H257535   4.397   4.925   7.419
19220TIP3   OH257536   4.274   4.285   7.627
19220TIP3    H157537   4.278   4.381   7.630
19220TIP3    H257538   4.259   4.264   7.535
19221TIP3   OH257539   5.617   5.767   7.944
19221TIP3    H157540   5.568   5.813   7.876
19221TIP3    H257541   5.709   5.787   7.926
19222TIP3   OH257542   7.934   8.635   0.457
19222TIP3    H157543   7.905   8.602   0.372
19222TIP3    H257544   7.926   8.560   0.516
19223TIP3   OH257545   4.193   5.255   7.882
19223TIP3    H157546   4.150   5.293   7.960
19223TIP3    H257547   4.151   5.300   7.808
19224TIP3   OH257548   1.140   1.181   0.948
19224TIP3    H157549   1.218   1.192   1.002
19224TIP3    H257550   1.139   1.089   0.925
19225TIP3   OH257551   1.596   1.094   0.971
19225TIP3    H157552   1.682   1.061   0.993
19225TIP3    H257553   1.565   1.037   0.901
19226TIP3   OH257554   4.817   5.304   7.107
19226TIP3    H157555   4.771   5.236   7.156
19226TIP3    H257556   4.893   5.259   7.070
19227TIP3   OH257557   2.240   1.019   0.760
19227TIP3    H157558   2.253   0.950   0.826
19227TIP3    H257559   2.318   1.074   0.768
19228TIP3   OH257560   5.262   5.337   7.035
19228TIP3    H157561   5.292   5.273   7.099
19228TIP3    H257562   5.326   5.331   6.964
19229TIP3   OH257563   1.222   0.573   1.137
19229TIP3    H157564   1.243   0.480   1.143
19229TIP3    H257565   1.136   0.576   1.094
19230TIP3   OH257566   4.482   4.797   7.327
19230TIP3    H157567   4.533   4.772   7.404
19230TIP3    H257568   4.547   4.815   7.259
19231TIP3   OH257569   1.843   0.661   0.907
19231TIP3    H157570   1.808   0.684   0.821
19231TIP3    H257571   1.884   0.576   0.894
19232TIP3   OH257572   5.016   5.014   7.158
19232TIP3    H157573   5.016   5.042   7.250
19232TIP3    H257574   5.018   4.919   7.162
19233TIP3   OH257575   2.339   0.705   0.561
19233TIP3    H157576   2.410   0.726   0.500
19233TIP3    H257577   2.268   0.764   0.537
19234TIP3   OH257578   1.328   0.308   1.106
19234TIP3    H157579   1.405   0.309   1.049
19234TIP3    H257580   1.363   0.323   1.194
19235TIP3   OH257581   4.655   4.742   7.538
19235TIP3    H157582   4.644   4.715   7.629
19235TIP3    H257583   4.706   4.672   7.498
19236TIP3   OH257584   1.673   0.176   0.757
19236TIP3    H157585   1.615   0.242   0.794
19236TIP3    H257586   1.734   0.226   0.702
19237TIP3   OH257587   4.789   4.552   7.389
19237TIP3    H157588   4.777   4.566   7.295
19237TIP3    H257589   4.883   4.540   7.400
19238TIP3   OH257590   2.264   0.586   0.931
19238TIP3    H157591   2.312   0.544   0.859
19238TIP3    H257592   2.230   0.514   0.983
19239TIP3   OH257593   5.590   4.844   7.068
19239TIP3    H157594   5.577   4.803   6.983
19239TIP3    H257595   5.568   4.936   7.054
19240TIP3   OH257596   8.343   9.216   0.893
19240TIP3    H157597   8.351   9.141   0.835
19240TIP3    H257598   8.306   9.285   0.839
19241TIP3   OH257599   8.353   9.005   0.707
19241TIP3    H157600   8.381   9.047   0.626
19241TIP3    H257601   8.263   8.978   0.690
19242TIP3   OH257602   1.847   0.329   0.607
19242TIP3    H157603   1.931   0.302   0.572
19242TIP3    H257604   1.806   0.377   0.535
19243TIP3   OH257605   2.419   0.282   0.949
19243TIP3    H157606   2.461   0.196   0.940
19243TIP3    H257607   2.463   0.337   0.883
19244TIP3   OH257608   2.438   0.501   0.716
19244TIP3    H157609   2.387   0.568   0.670
19244TIP3    H257610   2.529   0.526   0.702
19245TIP3   OH257611   1.701   0.057   1.138
19245TIP3    H157612   1.634  -0.010   1.156
19245TIP3    H257613   1.730   0.039   1.049
19246TIP3   OH257614   8.484   8.779   0.796
19246TIP3    H157615   8.442   8.860   0.765
19246TIP3    H257616   8.420   8.710   0.777
19247TIP3   OH257617   2.068   0.008   1.000
19247TIP3    H157618   2.051  -0.003   1.094
19247TIP3    H257619   1.983  -0.006   0.959
19248TIP3   OH257620   8.859   9.225   0.887
19248TIP3    H157621   8.778   9.218   0.936
19248TIP3    H257622   8.927   9.194   0.947
19249TIP3   OH257623   9.091   9.168   1.033
19249TIP3    H157624   9.100   9.073   1.041
19249TIP3    H257625   9.084   9.199   1.124
19250TIP3   OH257626   8.085   9.066   1.207
19250TIP3    H157627   8.099   8.983   1.162
19250TIP3    H257628   8.132   9.058   1.289
19251TIP3   OH257629   8.542   8.763   1.060
19251TIP3    H157630   8.610   8.695   1.058
19251TIP3    H257631   8.515   8.773   0.969
19252TIP3   OH257632   8.638   8.973   1.208
19252TIP3    H157633   8.608   8.903   1.150
19252TIP3    H257634   8.566   9.037   1.208
19253TIP3   OH257635   4.623   5.608   7.317
19253TIP3    H157636   4.712   5.583   7.292
19253TIP3    H257637   4.587   5.652   7.240
19254TIP3   OH257638   4.090   4.987   7.494
19254TIP3    H157639   4.185   4.997   7.493
19254TIP3    H257640   4.074   4.900   7.458
19255TIP3   OH257641   3.992   5.568   7.965
19255TIP3    H157642   3.927   5.515   7.917
19255TIP3    H257643   4.034   5.506   8.024
19256TIP3   OH257644   0.868   0.779   0.132
19256TIP3    H157645   0.859   0.710   0.198
19256TIP3    H257646   0.921   0.846   0.174
19257TIP3   OH257647   5.874   5.863   7.900
19257TIP3    H157648   5.922   5.852   7.982
19257TIP3    H257649   5.939   5.896   7.838
19258TIP3   OH257650   2.635   1.212   0.196
19258TIP3    H157651   2.586   1.130   0.204
19258TIP3    H257652   2.726   1.185   0.196
19259TIP3   OH257653   2.671   0.917   0.807
19259TIP3    H157654   2.580   0.938   0.784
19259TIP3    H257655   2.718   1.000   0.796
19260TIP3   OH257656   5.767   5.049   7.396
19260TIP3    H157657   5.828   5.117   7.365
19260TIP3    H257658   5.810   5.011   7.472
19261TIP3   OH257659   5.899   4.907   7.596
19261TIP3    H157660   5.829   4.871   7.651
19261TIP3    H257661   5.960   4.947   7.658
19262TIP3   OH257662   5.959   5.327   8.028
19262TIP3    H157663   6.002   5.252   7.987
19262TIP3    H257664   5.967   5.397   7.964
19263TIP3   OH257665   2.488   0.975   0.236
19263TIP3    H157666   2.419   1.024   0.281
19263TIP3    H257667   2.443   0.936   0.160
19264TIP3   OH257668   5.800   4.823   7.244
19264TIP3    H157669   5.726   4.821   7.183
19264TIP3    H257670   5.784   4.899   7.299
19265TIP3   OH257671   5.701   4.465   7.159
19265TIP3    H157672   5.638   4.508   7.101
19265TIP3    H257673   5.675   4.372   7.158
19266TIP3   OH257674   5.698   4.774   7.736
19266TIP3    H157675   5.700   4.680   7.719
19266TIP3    H257676   5.677   4.781   7.829
19267TIP3   OH257677   1.054   0.210   0.507
19267TIP3    H157678   1.049   0.187   0.414
19267TIP3    H257679   1.148   0.216   0.525
19268TIP3   OH257680   2.691   0.569   0.618
19268TIP3    H157681   2.761   0.508   0.592
19268TIP3    H257682   2.673   0.619   0.539
19269TIP3   OH257683   2.878   0.361   0.590
19269TIP3    H157684   2.805   0.321   0.638
19269TIP3    H257685   2.954   0.307   0.613
19270TIP3   OH257686   5.624   4.198   7.165
19270TIP3    H157687   5.678   4.178   7.242
19270TIP3    H257688   5.535   4.175   7.192
19271TIP3   OH257689   5.718   4.500   7.649
19271TIP3    H157690   5.761   4.414   7.653
19271TIP3    H257691   5.735   4.531   7.560
19272TIP3   OH257692   2.573   0.029   0.148
19272TIP3    H157693   2.652   0.049   0.097
19272TIP3    H257694   2.586   0.074   0.231
19273TIP3   OH257695   2.653   0.187   0.370
19273TIP3    H157696   2.582   0.215   0.428
19273TIP3    H257697   2.680   0.267   0.324
19274TIP3   OH257698   7.843   9.187   1.182
19274TIP3    H157699   7.936   9.164   1.189
19274TIP3    H257700   7.798   9.104   1.170
19275TIP3   OH257701   9.642   9.025   0.910
19275TIP3    H157702   9.706   8.970   0.865
19275TIP3    H257703   9.601   9.076   0.840
19276TIP3   OH257704   5.816   4.236   7.671
19276TIP3    H157705   5.854   4.219   7.756
19276TIP3    H257706   5.742   4.175   7.665
19277TIP3   OH257707   7.782   8.861   0.498
19277TIP3    H157708   7.834   8.782   0.492
19277TIP3    H257709   7.842   8.932   0.475
19278TIP3   OH257710   7.556   9.139   0.566
19278TIP3    H157711   7.609   9.116   0.490
19278TIP3    H257712   7.553   9.234   0.565
19279TIP3   OH257713   9.490   9.140   0.715
19279TIP3    H157714   9.407   9.183   0.736
19279TIP3    H257715   9.466   9.067   0.658
19280TIP3   OH257716   5.855   4.153   7.318
19280TIP3    H157717   5.902   4.095   7.257
19280TIP3    H257718   5.908   4.233   7.319
19281TIP3   OH257719   7.537   8.608   0.054
19281TIP3    H157720   7.452   8.604   0.099
19281TIP3    H257721   7.522   8.668  -0.019
19282TIP3   OH257722   5.425   5.725   7.578
19282TIP3    H157723   5.483   5.708   7.504
19282TIP3    H257724   5.474   5.785   7.634
19283TIP3   OH257725   7.795   8.653   0.772
19283TIP3    H157726   7.770   8.662   0.865
19283TIP3    H257727   7.740   8.717   0.727
19284TIP3   OH257728   1.261   0.914   0.945
19284TIP3    H157729   1.171   0.881   0.954
19284TIP3    H257730   1.300   0.901   1.032
19285TIP3   OH257731   1.467   0.947   0.503
19285TIP3    H157732   1.422   1.025   0.473
19285TIP3    H257733   1.552   0.949   0.458
19286TIP3   OH257734   1.863   1.183   0.652
19286TIP3    H157735   1.906   1.168   0.736
19286TIP3    H257736   1.928   1.233   0.601
19287TIP3   OH257737   2.059   1.325   0.516
19287TIP3    H157738   2.117   1.267   0.467
19287TIP3    H257739   2.119   1.380   0.568
19288TIP3   OH257740   9.400   8.901   0.598
19288TIP3    H157741   9.316   8.906   0.552
19288TIP3    H257742   9.424   8.808   0.592
19289TIP3   OH257743   1.133   1.181   0.555
19289TIP3    H157744   1.042   1.204   0.534
19289TIP3    H257745   1.159   1.244   0.622
19290TIP3   OH257746   1.363   1.181   0.404
19290TIP3    H157747   1.280   1.182   0.451
19290TIP3    H257748   1.340   1.200   0.313
19291TIP3   OH257749   1.781   1.196   0.189
19291TIP3    H157750   1.706   1.204   0.131
19291TIP3    H257751   1.788   1.281   0.232
19292TIP3   OH257752   2.045   1.133   0.243
19292TIP3    H157753   1.953   1.151   0.221
19292TIP3    H257754   2.095   1.198   0.194
19293TIP3   OH257755   2.249   1.302   0.147
19293TIP3    H157756   2.246   1.388   0.106
19293TIP3    H257757   2.285   1.245   0.079
19294TIP3   OH257758   1.043   0.955   0.276
19294TIP3    H157759   1.069   0.933   0.365
19294TIP3    H257760   1.115   0.922   0.222
19295TIP3   OH257761   1.246   0.837   0.134
19295TIP3    H157762   1.255   0.753   0.178
19295TIP3    H257763   1.334   0.875   0.137
19296TIP3   OH257764   1.513   0.918   0.155
19296TIP3    H157765   1.531   0.824   0.147
19296TIP3    H257766   1.569   0.947   0.227
19297TIP3   OH257767   8.632   8.828   0.256
19297TIP3    H157768   8.569   8.761   0.282
19297TIP3    H257769   8.691   8.784   0.195
19298TIP3   OH257770   9.109   8.731   0.131
19298TIP3    H157771   9.148   8.781   0.059
19298TIP3    H257772   9.017   8.758   0.132
19299TIP3   OH257773   5.964   4.183   7.899
19299TIP3    H157774   6.034   4.125   7.869
19299TIP3    H257775   6.000   4.271   7.886
19300TIP3   OH257776   7.844   8.518   0.225
19300TIP3    H157777   7.755   8.485   0.236
19300TIP3    H257778   7.898   8.439   0.220
19301TIP3   OH257779   4.405   3.802   7.891
19301TIP3    H157780   4.433   3.852   7.815
19301TIP3    H257781   4.367   3.867   7.950
19302TIP3   OH257782   8.332   8.560   0.131
19302TIP3    H157783   8.375   8.611   0.062
19302TIP3    H257784   8.371   8.592   0.212
19303TIP3   OH257785   8.823   8.698   0.105
19303TIP3    H157786   8.837   8.664   0.017
19303TIP3    H257787   8.827   8.621   0.162
19304TIP3   OH257788   5.607   4.046   7.674
19304TIP3    H157789   5.527   4.096   7.690
19304TIP3    H257790   5.591   3.961   7.715
19305TIP3   OH257791   4.079   5.378   7.666
19305TIP3    H157792   3.996   5.341   7.637
19305TIP3    H257793   4.080   5.467   7.629
19306TIP3   OH257794   4.511   3.936   7.658
19306TIP3    H157795   4.554   3.880   7.594
19306TIP3    H257796   4.581   3.992   7.692
19307TIP3   OH257797   4.996   4.127   7.751
19307TIP3    H157798   5.060   4.084   7.807
19307TIP3    H257799   5.007   4.220   7.769
19308TIP3   OH257800   4.877   5.530   7.249
19308TIP3    H157801   4.962   5.555   7.213
19308TIP3    H257802   4.848   5.457   7.194
19309TIP3   OH257803   5.579   5.666   7.353
19309TIP3    H157804   5.570   5.571   7.346
19309TIP3    H257805   5.538   5.700   7.273
19310TIP3   OH257806   8.090   8.803   1.105
19310TIP3    H157807   8.060   8.725   1.152
19310TIP3    H257808   8.183   8.810   1.127
19311TIP3   OH257809   8.333   8.809   1.241
19311TIP3    H157810   8.409   8.794   1.185
19311TIP3    H257811   8.336   8.737   1.304
19312TIP3   OH257812   4.193   5.374   7.311
19312TIP3    H157813   4.198   5.375   7.406
19312TIP3    H257814   4.273   5.327   7.284
19313TIP3   OH257815   9.147   8.895   1.033
19313TIP3    H157816   9.166   8.867   1.122
19313TIP3    H257817   9.232   8.892   0.988
19314TIP3   OH257818   2.528   1.193   0.536
19314TIP3    H157819   2.457   1.161   0.480
19314TIP3    H257820   2.519   1.288   0.533
19315TIP3   OH257821   7.078   5.200   7.277
19315TIP3    H157822   7.048   5.286   7.249
19315TIP3    H257823   7.007   5.140   7.253
19316TIP3   OH257824   7.082   5.190   7.699
19316TIP3    H157825   7.130   5.169   7.779
19316TIP3    H257826   7.032   5.111   7.680
19317TIP3   OH257827   3.106   0.439   0.044
19317TIP3    H157828   3.142   0.384   0.114
19317TIP3    H257829   3.181   0.464  -0.009
19318TIP3   OH257830   7.346   5.493   7.373
19318TIP3    H157831   7.329   5.429   7.442
19318TIP3    H257832   7.364   5.574   7.420
19319TIP3   OH257833   6.317   5.458   7.782
19319TIP3    H157834   6.320   5.364   7.763
19319TIP3    H257835   6.403   5.490   7.755
19320TIP3   OH257836   6.047   4.681   7.519
19320TIP3    H157837   6.009   4.764   7.545
19320TIP3    H257838   5.975   4.632   7.479
19321TIP3   OH257839   6.127   4.996   7.740
19321TIP3    H157840   6.177   4.919   7.766
19321TIP3    H257841   6.194   5.061   7.717
19322TIP3   OH257842   6.991   5.934   7.386
19322TIP3    H157843   7.023   5.867   7.325
19322TIP3    H257844   6.963   5.884   7.463
19323TIP3   OH257845   6.867   5.417   7.705
19323TIP3    H157846   6.908   5.341   7.665
19323TIP3    H257847   6.940   5.470   7.737
19324TIP3   OH257848   7.912   4.732   7.721
19324TIP3    H157849   7.928   4.818   7.759
19324TIP3    H257850   7.936   4.741   7.629
19325TIP3   OH257851   7.290   4.898   7.741
19325TIP3    H157852   7.320   4.812   7.769
19325TIP3    H257853   7.252   4.884   7.654
19326TIP3   OH257854   6.644   4.557   7.697
19326TIP3    H157855   6.621   4.631   7.640
19326TIP3    H257856   6.587   4.486   7.667
19327TIP3   OH257857   7.340   4.660   7.337
19327TIP3    H157858   7.403   4.653   7.409
19327TIP3    H257859   7.390   4.695   7.264
19328TIP3   OH257860   6.266   4.774   7.834
19328TIP3    H157861   6.350   4.755   7.876
19328TIP3    H257862   6.269   4.723   7.752
19329TIP3   OH257863   6.688   4.974   7.644
19329TIP3    H157864   6.782   4.957   7.650
19329TIP3    H257865   6.651   4.892   7.610
19330TIP3   OH257866   7.968   4.955   7.885
19330TIP3    H157867   7.879   4.988   7.879
19330TIP3    H257868   8.001   4.988   7.969
19331TIP3   OH257869   0.088   9.184   0.152
19331TIP3    H157870   0.039   9.219   0.077
19331TIP3    H257871   0.032   9.201   0.227
19332TIP3   OH257872   6.978   5.416   7.136
19332TIP3    H157873   6.935   5.385   7.056
19332TIP3    H257874   6.924   5.489   7.165
19333TIP3   OH257875   6.710   5.342   7.919
19333TIP3    H157876   6.654   5.412   7.951
19333TIP3    H257877   6.756   5.380   7.844
19334TIP3   OH257878   7.496   4.681   7.560
19334TIP3    H157879   7.454   4.659   7.643
19334TIP3    H257880   7.552   4.756   7.581
19335TIP3   OH257881   6.517   4.669   7.919
19335TIP3    H157882   6.571   4.745   7.942
19335TIP3    H257883   6.564   4.628   7.847
19336TIP3   OH257884   3.288   0.927   0.020
19336TIP3    H157885   3.270   1.013  -0.018
19336TIP3    H257886   3.211   0.907   0.073
19337TIP3   OH257887   5.936   5.233   7.273
19337TIP3    H157888   5.896   5.258   7.190
19337TIP3    H257889   5.954   5.316   7.317
19338TIP3   OH257890   7.381   5.741   7.506
19338TIP3    H157891   7.297   5.733   7.551
19338TIP3    H257892   7.377   5.825   7.461
19339TIP3   OH257893   7.712   4.626   7.892
19339TIP3    H157894   7.627   4.647   7.853
19339TIP3    H257895   7.776   4.651   7.825
19340TIP3   OH257896   6.965   4.253   7.886
19340TIP3    H157897   6.956   4.161   7.911
19340TIP3    H257898   6.889   4.296   7.925
19341TIP3   OH257899   7.086   5.781   7.171
19341TIP3    H157900   7.137   5.701   7.162
19341TIP3    H257901   7.144   5.851   7.143
19342TIP3   OH257902   7.224   5.550   7.131
19342TIP3    H157903   7.150   5.488   7.127
19342TIP3    H257904   7.274   5.522   7.207
19343TIP3   OH257905   7.617   5.616   7.858
19343TIP3    H157906   7.590   5.545   7.799
19343TIP3    H257907   7.603   5.696   7.808
19344TIP3   OH257908   6.903   5.038   7.133
19344TIP3    H157909   6.819   5.081   7.117
19344TIP3    H257910   6.946   5.037   7.047
19345TIP3   OH257911   6.868   4.846   6.819
19345TIP3    H157912   6.934   4.894   6.869
19345TIP3    H257913   6.917   4.778   6.773
19346TIP3   OH257914   7.788   5.299   7.726
19346TIP3    H157915   7.702   5.338   7.720
19346TIP3    H257916   7.826   5.308   7.639
19347TIP3   OH257917   7.261   5.127   7.087
19347TIP3    H157918   7.207   5.156   7.160
19347TIP3    H257919   7.344   5.102   7.128
19348TIP3   OH257920   4.221   0.532   0.026
19348TIP3    H157921   4.214   0.615   0.073
19348TIP3    H257922   4.139   0.525  -0.023
19349TIP3   OH257923   6.489   5.107   7.492
19349TIP3    H157924   6.451   5.046   7.429
19349TIP3    H257925   6.562   5.059   7.532
19350TIP3   OH257926   6.587   5.529   7.651
19350TIP3    H157927   6.559   5.520   7.560
19350TIP3    H257928   6.677   5.497   7.652
19351TIP3   OH257929   6.587   5.101   7.869
19351TIP3    H157930   6.626   5.067   7.789
19351TIP3    H257931   6.632   5.185   7.884
19352TIP3   OH257932   7.155   5.731   7.653
19352TIP3    H157933   7.132   5.810   7.702
19352TIP3    H257934   7.133   5.659   7.712
19353TIP3   OH257935   3.485   1.010   0.195
19353TIP3    H157936   3.427   1.072   0.239
19353TIP3    H257937   3.428   0.964   0.133
19354TIP3   OH257938   7.091   4.986   6.922
19354TIP3    H157939   7.150   5.044   6.969
19354TIP3    H257940   7.120   4.990   6.831
19355TIP3   OH257941   3.243   0.555   0.342
19355TIP3    H157942   3.248   0.649   0.356
19355TIP3    H257943   3.150   0.536   0.335
19356TIP3   OH257944   6.842   5.651   7.183
19356TIP3    H157945   6.920   5.707   7.185
19356TIP3    H257946   6.777   5.703   7.136
19357TIP3   OH257947   3.274   1.177   0.264
19357TIP3    H157948   3.242   1.188   0.175
19357TIP3    H257949   3.196   1.157   0.316
19358TIP3   OH257950   7.600   4.214   6.982
19358TIP3    H157951   7.524   4.236   7.036
19358TIP3    H257952   7.612   4.289   6.924
19359TIP3   OH257953   6.360   4.948   7.295
19359TIP3    H157954   6.285   4.998   7.264
19359TIP3    H257955   6.325   4.862   7.317
19360TIP3   OH257956   7.426   5.589   6.539
19360TIP3    H157957   7.419   5.682   6.516
19360TIP3    H257958   7.515   5.565   6.514
19361TIP3   OH257959   2.881   0.730   0.232
19361TIP3    H157960   2.813   0.722   0.165
19361TIP3    H257961   2.910   0.641   0.248
19362TIP3   OH257962   6.060   5.544   7.856
19362TIP3    H157963   6.147   5.516   7.827
19362TIP3    H257964   6.077   5.609   7.924
19363TIP3   OH257965   7.831   5.999   7.894
19363TIP3    H157966   7.841   5.905   7.907
19363TIP3    H257967   7.754   6.022   7.944
19364TIP3   OH257968   3.674   1.148   0.053
19364TIP3    H157969   3.657   1.240   0.072
19364TIP3    H257970   3.607   1.101   0.102
19365TIP3   OH257971   6.731   5.888   7.005
19365TIP3    H157972   6.677   5.864   6.929
19365TIP3    H257973   6.692   5.969   7.037
19366TIP3   OH257974   6.217   5.748   7.449
19366TIP3    H157975   6.210   5.825   7.506
19366TIP3    H257976   6.139   5.696   7.470
19367TIP3   OH257977   6.930   5.815   6.634
19367TIP3    H157978   6.980   5.741   6.599
19367TIP3    H257979   6.964   5.826   6.723
19368TIP3   OH257980   6.983   5.856   6.904
19368TIP3    H157981   6.896   5.862   6.942
19368TIP3    H257982   7.037   5.817   6.974
19369TIP3   OH257983   4.463   0.489   0.179
19369TIP3    H157984   4.380   0.501   0.133
19369TIP3    H257985   4.481   0.396   0.171
19370TIP3   OH257986   3.079   0.917   0.200
19370TIP3    H157987   3.129   0.903   0.279
19370TIP3    H257988   3.008   0.853   0.204
19371TIP3   OH257989   0.196   8.967   0.010
19371TIP3    H157990   0.113   8.933  -0.023
19371TIP3    H257991   0.172   9.048   0.055
19372TIP3   OH257992   0.732   9.088   0.209
19372TIP3    H157993   0.801   9.062   0.271
19372TIP3    H257994   0.651   9.072   0.257
19373TIP3   OH257995   4.225   0.270   0.125
19373TIP3    H157996   4.180   0.265   0.209
19373TIP3    H257997   4.206   0.358   0.093
19374TIP3   OH257998   7.172   4.962   6.659
19374TIP3    H157999   7.124   4.968   6.577
19374TIP3    H258000   7.253   5.010   6.643
19375TIP3   OH258001   6.880   4.383   6.979
19375TIP3    H158002   6.842   4.391   7.066
19375TIP3    H258003   6.841   4.304   6.943
19376TIP3   OH258004   3.400   0.261   0.017
19376TIP3    H158005   3.353   0.268   0.100
19376TIP3    H258006   3.377   0.342  -0.030
19377TIP3   OH258007   6.546   4.758   7.539
19377TIP3    H158008   6.457   4.736   7.565
19377TIP3    H258009   6.554   4.725   7.450
19378TIP3   OH258010   7.026   4.833   7.268
19378TIP3    H158011   6.979   4.906   7.228
19378TIP3    H258012   7.083   4.801   7.198
19379TIP3   OH258013   3.942   0.470   0.327
19379TIP3    H158014   3.914   0.407   0.394
19379TIP3    H258015   4.037   0.478   0.341
19380TIP3   OH258016   7.195   4.847   7.489
19380TIP3    H158017   7.126   4.868   7.427
19380TIP3    H258018   7.242   4.773   7.450
19381TIP3   OH258019   3.236   0.277   0.237
19381TIP3    H158020   3.236   0.344   0.305
19381TIP3    H258021   3.215   0.196   0.283
19382TIP3   OH258022   6.545   4.367   6.955
19382TIP3    H158023   6.536   4.373   7.050
19382TIP3    H258024   6.467   4.410   6.921
19383TIP3   OH258025   6.094   4.408   7.829
19383TIP3    H158026   6.166   4.447   7.878
19383TIP3    H258027   6.125   4.408   7.738
19384TIP3   OH258028   6.008   4.386   7.322
19384TIP3    H158029   6.049   4.421   7.243
19384TIP3    H258030   5.946   4.453   7.349
19385TIP3   OH258031   7.238   5.098   7.915
19385TIP3    H158032   7.262   5.031   7.851
19385TIP3    H258033   7.191   5.050   7.983
19386TIP3   OH258034   6.911   4.545   7.589
19386TIP3    H158035   6.831   4.546   7.642
19386TIP3    H258036   6.982   4.539   7.653
19387TIP3   OH258037   6.307   4.635   7.600
19387TIP3    H158038   6.219   4.641   7.563
19387TIP3    H258039   6.334   4.545   7.583
19388TIP3   OH258040   6.561   4.635   7.294
19388TIP3    H158041   6.655   4.647   7.282
19388TIP3    H258042   6.523   4.652   7.208
19389TIP3   OH258043   7.356   4.636   7.799
19389TIP3    H158044   7.338   4.653   7.892
19389TIP3    H258045   7.286   4.575   7.773
19390TIP3   OH258046   6.448   4.655   7.046
19390TIP3    H158047   6.384   4.608   6.994
19390TIP3    H258048   6.500   4.703   6.981
19391TIP3   OH258049   7.512   6.306   7.963
19391TIP3    H158050   7.522   6.335   7.872
19391TIP3    H258051   7.577   6.357   8.012
19392TIP3   OH258052   3.228   0.820   0.430
19392TIP3    H158053   3.307   0.848   0.477
19392TIP3    H258054   3.157   0.830   0.493
19393TIP3   OH258055   6.961   4.920   7.696
19393TIP3    H158056   7.027   4.869   7.649
19393TIP3    H258057   6.956   4.879   7.782
19394TIP3   OH258058   6.450   4.386   7.582
19394TIP3    H158059   6.421   4.311   7.634
19394TIP3    H258060   6.464   4.350   7.494
19395TIP3   OH258061   6.929   4.820   7.958
19395TIP3    H158062   6.843   4.853   7.982
19395TIP3    H258063   6.990   4.872   8.011
19396TIP3   OH258064   6.664   5.172   7.084
19396TIP3    H158065   6.589   5.119   7.058
19396TIP3    H258066   6.634   5.219   7.162
19397TIP3   OH258067   7.551   5.426   7.675
19397TIP3    H158068   7.583   5.476   7.600
19397TIP3    H258069   7.471   5.384   7.643
19398TIP3   OH258070   7.131   4.490   6.983
19398TIP3    H158071   7.038   4.468   6.979
19398TIP3    H258072   7.132   4.585   6.994
19399TIP3   OH258073   3.809   0.884   0.090
19399TIP3    H158074   3.856   0.870   0.173
19399TIP3    H258075   3.765   0.969   0.101
19400TIP3   OH258076   7.188   4.756   7.051
19400TIP3    H158077   7.283   4.761   7.060
19400TIP3    H258078   7.165   4.833   6.999
19401TIP3   OH258079   6.351   5.176   7.724
19401TIP3    H158080   6.390   5.166   7.637
19401TIP3    H258081   6.420   5.150   7.784
19402TIP3   OH258082   6.812   5.335   6.922
19402TIP3    H158083   6.766   5.419   6.920
19402TIP3    H258084   6.757   5.279   6.976
19403TIP3   OH258085   2.973   0.485   0.357
19403TIP3    H158086   2.966   0.462   0.449
19403TIP3    H258087   2.896   0.446   0.316
19404TIP3   OH258088   3.712   0.630   0.372
19404TIP3    H158089   3.640   0.573   0.344
19404TIP3    H258090   3.791   0.588   0.339
19405TIP3   OH258091   7.204   5.787   7.961
19405TIP3    H158092   7.110   5.771   7.971
19405TIP3    H258093   7.230   5.830   8.042
19406TIP3   OH258094   7.605   4.843   6.866
19406TIP3    H158095   7.549   4.797   6.803
19406TIP3    H258096   7.610   4.933   6.832
19407TIP3   OH258097   7.861   5.728   7.933
19407TIP3    H158098   7.770   5.699   7.947
19407TIP3    H258099   7.886   5.688   7.849
19408TIP3   OH258100   7.352   5.660   6.807
19408TIP3    H158101   7.318   5.594   6.867
19408TIP3    H258102   7.366   5.614   6.725
19409TIP3   OH258103   7.325   5.292   7.576
19409TIP3    H158104   7.236   5.269   7.603
19409TIP3    H258105   7.360   5.211   7.537
19410TIP3   OH258106   6.460   5.540   7.401
19410TIP3    H158107   6.466   5.610   7.337
19410TIP3    H258108   6.372   5.549   7.438
19411TIP3   OH258109   6.041   4.814   7.110
19411TIP3    H158110   6.083   4.898   7.130
19411TIP3    H258111   5.959   4.816   7.160
19412TIP3   OH258112   6.553   5.298   7.298
19412TIP3    H158113   6.529   5.385   7.330
19412TIP3    H258114   6.531   5.239   7.370
19413TIP3   OH258115   6.754   5.852   7.851
19413TIP3    H158116   6.793   5.925   7.803
19413TIP3    H258117   6.826   5.814   7.901
19414TIP3   OH258118   6.391   5.759   7.238
19414TIP3    H158119   6.321   5.759   7.303
19414TIP3    H258120   6.425   5.848   7.239
19415TIP3   OH258121   7.108   5.508   7.817
19415TIP3    H158122   7.098   5.505   7.912
19415TIP3    H258123   7.173   5.440   7.798
19416TIP3   OH258124   7.109   5.396   6.684
19416TIP3    H158125   7.159   5.366   6.760
19416TIP3    H258126   7.025   5.351   6.692
19417TIP3   OH258127   7.369   5.986   7.839
19417TIP3    H158128   7.291   5.933   7.857
19417TIP3    H258129   7.339   6.053   7.778
19418TIP3   OH258130   7.417   5.862   6.488
19418TIP3    H158131   7.418   5.915   6.409
19418TIP3    H258132   7.350   5.903   6.544
19419TIP3   OH258133   3.181   0.023   0.357
19419TIP3    H158134   3.086   0.033   0.360
19419TIP3    H258135   3.203  -0.028   0.435
19420TIP3   OH258136   7.284   5.306   6.875
19420TIP3    H158137   7.269   5.254   6.954
19420TIP3    H258138   7.380   5.315   6.871
19421TIP3   OH258139   2.886   1.105   0.066
19421TIP3    H158140   2.955   1.051   0.105
19421TIP3    H258141   2.931   1.186   0.040
19422TIP3   OH258142   6.462   5.360   6.705
19422TIP3    H158143   6.472   5.269   6.679
19422TIP3    H258144   6.446   5.357   6.799
19423TIP3   OH258145   6.400   5.380   6.976
19423TIP3    H158146   6.451   5.354   7.053
19423TIP3    H258147   6.398   5.476   6.980
19424TIP3   OH258148   6.138   5.068   7.182
19424TIP3    H158149   6.071   5.113   7.233
19424TIP3    H258150   6.155   5.126   7.108
19425TIP3   OH258151   4.034   0.077   0.059
19425TIP3    H158152   4.111   0.122   0.095
19425TIP3    H258153   4.022   0.001   0.116
19426TIP3   OH258154   7.190   4.442   7.251
19426TIP3    H158155   7.168   4.460   7.159
19426TIP3    H258156   7.233   4.522   7.282
19427TIP3   OH258157   6.673   5.569   6.916
19427TIP3    H158158   6.587   5.589   6.951
19427TIP3    H258159   6.693   5.641   6.857
19428TIP3   OH258160   6.841   4.640   7.336
19428TIP3    H158161   6.902   4.709   7.311
19428TIP3    H258162   6.863   4.620   7.427
19429TIP3   OH258163   3.869   0.311   0.106
19429TIP3    H158164   3.892   0.355   0.187
19429TIP3    H258165   3.920   0.229   0.107
19430TIP3   OH258166   7.003   4.336   7.426
19430TIP3    H158167   6.979   4.413   7.477
19430TIP3    H258168   7.072   4.367   7.367
19431TIP3   OH258169   6.421   5.654   6.987
19431TIP3    H158170   6.400   5.725   6.927
19431TIP3    H258171   6.405   5.690   7.074
19432TIP3   OH258172   6.516   4.362   7.235
19432TIP3    H158173   6.504   4.453   7.262
19432TIP3    H258174   6.610   4.347   7.241
19433TIP3   OH258175   4.488   0.214   0.100
19433TIP3    H158176   4.394   0.223   0.115
19433TIP3    H258177   4.495   0.152   0.027
19434TIP3   OH258178   7.419   5.035   7.488
19434TIP3    H158179   7.341   4.980   7.498
19434TIP3    H258180   7.485   4.995   7.544
19435TIP3   OH258181   6.155   5.245   6.965
19435TIP3    H158182   6.226   5.309   6.974
19435TIP3    H258183   6.189   5.182   6.901
19436TIP3   OH258184   6.052   4.536   7.096
19436TIP3    H158185   6.070   4.629   7.106
19436TIP3    H258186   5.963   4.532   7.061
19437TIP3   OH258187   7.398   6.009   7.423
19437TIP3    H158188   7.351   6.062   7.358
19437TIP3    H258189   7.491   6.023   7.402
19438TIP3   OH258190   6.471   4.258   7.966
19438TIP3    H158191   6.439   4.229   7.880
19438TIP3    H258192   6.460   4.182   8.022
19439TIP3   OH258193   5.975   5.489   7.369
19439TIP3    H158194   5.963   5.545   7.445
19439TIP3    H258195   5.956   5.546   7.294
19440TIP3   OH258196   2.911   1.426   0.441
19440TIP3    H158197   2.995   1.422   0.488
19440TIP3    H258198   2.883   1.335   0.434
19441TIP3   OH258199   3.380   1.335   0.462
19441TIP3    H158200   3.467   1.296   0.473
19441TIP3    H258201   3.341   1.287   0.389
19442TIP3   OH258202   6.615   5.559   6.591
19442TIP3    H158203   6.567   5.490   6.637
19442TIP3    H258204   6.689   5.515   6.550
19443TIP3   OH258205   4.004   1.271   0.200
19443TIP3    H158206   4.017   1.196   0.259
19443TIP3    H258207   4.079   1.328   0.216
19444TIP3   OH258208   7.058   5.604   6.514
19444TIP3    H158209   7.090   5.538   6.576
19444TIP3    H258210   7.115   5.596   6.438
19445TIP3   OH258211   3.022   0.819   0.617
19445TIP3    H158212   3.031   0.725   0.633
19445TIP3    H258213   2.937   0.829   0.575
19446TIP3   OH258214   6.284   5.056   6.815
19446TIP3    H158215   6.333   5.033   6.893
19446TIP3    H258216   6.350   5.069   6.747
19447TIP3   OH258217   3.646   0.903   0.393
19447TIP3    H158218   3.596   0.926   0.314
19447TIP3    H258219   3.677   0.814   0.376
19448TIP3   OH258220   6.858   5.277   6.657
19448TIP3    H158221   6.832   5.288   6.748
19448TIP3    H258222   6.836   5.185   6.637
19449TIP3   OH258223   7.387   5.580   8.016
19449TIP3    H158224   7.461   5.607   7.961
19449TIP3    H258225   7.316   5.639   7.990
19450TIP3   OH258226   3.143   0.559   0.631
19450TIP3    H158227   3.213   0.558   0.566
19450TIP3    H258228   3.184   0.588   0.712
19451TIP3   OH258229   6.456   4.997   7.029
19451TIP3    H158230   6.432   4.967   7.116
19451TIP3    H258231   6.503   4.924   6.990
19452TIP3   OH258232   3.506   0.460   0.283
19452TIP3    H158233   3.417   0.495   0.294
19452TIP3    H258234   3.532   0.490   0.195
19453TIP3   OH258235   6.596   4.812   6.875
19453TIP3    H158236   6.565   4.816   6.784
19453TIP3    H258237   6.691   4.821   6.868
19454TIP3   OH258238   3.997   0.802   0.337
19454TIP3    H158239   4.070   0.761   0.291
19454TIP3    H258240   3.982   0.746   0.414
19455TIP3   OH258241   7.389   5.098   6.551
19455TIP3    H158242   7.376   5.059   6.464
19455TIP3    H258243   7.366   5.191   6.539
19456TIP3   OH258244   3.610   0.228   0.387
19456TIP3    H158245   3.610   0.158   0.322
19456TIP3    H258246   3.574   0.304   0.340
19457TIP3   OH258247   3.614   0.028   0.185
19457TIP3    H158248   3.640   0.066   0.101
19457TIP3    H258249   3.523   0.002   0.173
19458TIP3   OH258250   3.617   0.562   0.056
19458TIP3    H158251   3.704   0.602   0.044
19458TIP3    H258252   3.558   0.619   0.008
19459TIP3   OH258253   4.213   0.495   0.418
19459TIP3    H158254   4.253   0.411   0.440
19459TIP3    H258255   4.286   0.555   0.406
19460TIP3   OH258256   4.239   0.772   0.166
19460TIP3    H158257   4.184   0.837   0.122
19460TIP3    H258258   4.326   0.784   0.127
19461TIP3   OH258259   3.492   0.302   0.632
19461TIP3    H158260   3.420   0.241   0.649
19461TIP3    H258261   3.518   0.283   0.542
19462TIP3   OH258262   0.468   9.038   0.290
19462TIP3    H158263   0.428   9.118   0.256
19462TIP3    H258264   0.402   8.970   0.277
19463TIP3   OH258265   3.861   0.267   0.496
19463TIP3    H158266   3.845   0.255   0.590
19463TIP3    H258267   3.777   0.248   0.455
19464TIP3   OH258268   4.096   0.213   0.354
19464TIP3    H158269   4.022   0.214   0.414
19464TIP3    H258270   4.170   0.185   0.409
19465TIP3   OH258271   4.342   0.176   0.482
19465TIP3    H158272   4.358   0.083   0.499
19465TIP3    H258273   4.335   0.215   0.569
19466TIP3   OH258274   3.319   0.088   0.694
19466TIP3    H158275   3.324  -0.000   0.657
19466TIP3    H258276   3.356   0.080   0.782
19467TIP3   OH258277   0.534   9.013   0.556
19467TIP3    H158278   0.602   8.946   0.548
19467TIP3    H258279   0.504   9.026   0.466
19468TIP3   OH258280   0.633   9.228   0.699
19468TIP3    H158281   0.601   9.155   0.645
19468TIP3    H258282   0.560   9.290   0.700
19469TIP3   OH258283   6.422   5.865   6.805
19469TIP3    H158284   6.510   5.840   6.776
19469TIP3    H258285   6.383   5.909   6.729
19470TIP3   OH258286   5.881   5.249   6.971
19470TIP3    H158287   5.976   5.258   6.976
19470TIP3    H258288   5.867   5.160   6.937
19471TIP3   OH258289   5.784   5.825   7.447
19471TIP3    H158290   5.722   5.764   7.408
19471TIP3    H258291   5.842   5.770   7.500
19472TIP3   OH258292   5.978   5.680   7.597
19472TIP3    H158293   5.982   5.626   7.676
19472TIP3    H258294   6.010   5.766   7.625
19473TIP3   OH258295   7.667   6.070   7.407
19473TIP3    H158296   7.675   6.074   7.502
19473TIP3    H258297   7.690   6.158   7.377
19474TIP3   OH258298   7.668   6.079   7.679
19474TIP3    H158299   7.624   5.995   7.686
19474TIP3    H258300   7.739   6.074   7.742
19475TIP3   OH258301   4.466   1.128   0.251
19475TIP3    H158302   4.385   1.151   0.296
19475TIP3    H258303   4.494   1.209   0.209
19476TIP3   OH258304   7.565   5.309   6.881
19476TIP3    H158305   7.621   5.381   6.854
19476TIP3    H258306   7.609   5.271   6.957
19477TIP3   OH258307   7.692   5.167   7.085
19477TIP3    H158308   7.624   5.128   7.140
19477TIP3    H258309   7.756   5.202   7.147
19478TIP3   OH258310   7.732   5.571   7.513
19478TIP3    H158311   7.782   5.504   7.466
19478TIP3    H258312   7.731   5.647   7.455
19479TIP3   OH258313   7.548   5.832   7.706
19479TIP3    H158314   7.479   5.878   7.753
19479TIP3    H258315   7.504   5.793   7.630
19480TIP3   OH258316   7.599   5.083   6.729
19480TIP3    H158317   7.527   5.081   6.666
19480TIP3    H258318   7.583   5.161   6.782
19481TIP3   OH258319   7.456   4.730   6.666
19481TIP3    H158320   7.406   4.768   6.594
19481TIP3    H258321   7.447   4.636   6.654
19482TIP3   OH258322   7.489   5.028   7.219
19482TIP3    H158323   7.491   4.933   7.204
19482TIP3    H258324   7.469   5.037   7.312
19483TIP3   OH258325   6.107   5.087   7.996
19483TIP3    H158326   6.096   5.059   7.905
19483TIP3    H258327   6.201   5.087   8.011
19484TIP3   OH258328   4.483   0.808   0.044
19484TIP3    H158329   4.551   0.745   0.020
19484TIP3    H258330   4.464   0.855  -0.037
19485TIP3   OH258331   4.679   0.612   0.062
19485TIP3    H158332   4.605   0.571   0.107
19485TIP3    H258333   4.755   0.562   0.091
19486TIP3   OH258334   7.415   4.458   6.637
19486TIP3    H158335   7.479   4.434   6.704
19486TIP3    H258336   7.332   4.423   6.668
19487TIP3   OH258337   7.481   4.753   7.107
19487TIP3    H158338   7.526   4.669   7.120
19487TIP3    H258339   7.522   4.791   7.029
19488TIP3   OH258340   7.634   4.913   7.630
19488TIP3    H158341   7.714   4.930   7.582
19488TIP3    H258342   7.648   4.954   7.715
19489TIP3   OH258343   7.708   5.066   7.855
19489TIP3    H158344   7.633   5.092   7.908
19489TIP3    H258345   7.737   5.147   7.813
19490TIP3   OH258346   3.055   0.151   0.638
19490TIP3    H158347   3.149   0.147   0.654
19490TIP3    H258348   3.020   0.070   0.677
19491TIP3   OH258349   4.899   0.050   0.387
19491TIP3    H158350   4.963  -0.011   0.352
19491TIP3    H258351   4.864   0.095   0.310
19492TIP3   OH258352   7.597   4.503   7.158
19492TIP3    H158353   7.641   4.488   7.241
19492TIP3    H258354   7.534   4.431   7.151
19493TIP3   OH258355   6.310   4.485   7.984
19493TIP3    H158356   6.364   4.406   7.989
19493TIP3    H258357   6.372   4.555   7.965
19494TIP3   OH258358   2.816   0.126   0.049
19494TIP3    H158359   2.869   0.117  -0.030
19494TIP3    H258360   2.820   0.219   0.071
19495TIP3   OH258361   4.752   0.158   0.185
19495TIP3    H158362   4.667   0.196   0.209
19495TIP3    H258363   4.729   0.080   0.135
19496TIP3   OH258364   7.641   4.414   6.797
19496TIP3    H158365   7.688   4.354   6.740
19496TIP3    H258366   7.696   4.492   6.801
19497TIP3   OH258367   6.077   4.249   7.548
19497TIP3    H158368   5.992   4.238   7.590
19497TIP3    H258369   6.060   4.305   7.472
19498TIP3   OH258370   7.235   5.977   7.066
19498TIP3    H158371   7.291   5.966   6.989
19498TIP3    H258372   7.274   6.051   7.113
19499TIP3   OH258373   9.561   8.920   0.364
19499TIP3    H158374   9.513   8.921   0.447
19499TIP3    H258375   9.509   8.975   0.305
19500TIP3   OH258376   3.069   1.140   0.448
19500TIP3    H158377   2.974   1.133   0.437
19500TIP3    H258378   3.081   1.136   0.543
19501TIP3   OH258379   6.510   5.824   7.981
19501TIP3    H158380   6.453   5.884   7.933
19501TIP3    H258381   6.596   5.837   7.942
19502TIP3   OH258382   3.632   1.418   0.100
19502TIP3    H158383   3.674   1.407   0.185
19502TIP3    H258384   3.693   1.471   0.049
19503TIP3   OH258385   7.084   6.184   7.967
19503TIP3    H158386   7.132   6.130   7.904
19503TIP3    H258387   7.153   6.227   8.018
19504TIP3   OH258388   1.399   9.147   0.090
19504TIP3    H158389   1.312   9.138   0.052
19504TIP3    H258390   1.437   9.059   0.085
19505TIP3   OH258391   2.934   1.440   0.046
19505TIP3    H158392   2.845   1.464   0.020
19505TIP3    H258393   2.957   1.502   0.115
19506TIP3   OH258394   6.372   6.027   7.837
19506TIP3    H158395   6.314   6.045   7.912
19506TIP3    H258396   6.312   6.005   7.766
19507TIP3   OH258397   6.843   6.052   7.676
19507TIP3    H158398   6.774   6.057   7.610
19507TIP3    H258399   6.843   6.139   7.717
19508TIP3   OH258400   7.103   5.998   7.735
19508TIP3    H158401   7.012   6.011   7.710
19508TIP3    H258402   7.153   6.057   7.678
19509TIP3   OH258403   7.303   6.164   7.629
19509TIP3    H158404   7.299   6.251   7.590
19509TIP3    H258405   7.335   6.108   7.558
19510TIP3   OH258406   6.609   5.822   7.615
19510TIP3    H158407   6.576   5.733   7.609
19510TIP3    H258408   6.652   5.826   7.701
19511TIP3   OH258409   7.137   4.457   7.735
19511TIP3    H158410   7.096   4.386   7.783
19511TIP3    H258411   7.204   4.415   7.682
19512TIP3   OH258412   7.636   4.362   7.612
19512TIP3    H158413   7.674   4.413   7.540
19512TIP3    H258414   7.544   4.389   7.615
19513TIP3   OH258415   7.752   4.450   7.380
19513TIP3    H158416   7.821   4.388   7.354
19513TIP3    H258417   7.792   4.537   7.368
19514TIP3   OH258418   6.380   4.158   7.725
19514TIP3    H158419   6.290   4.127   7.734
19514TIP3    H258420   6.432   4.079   7.715
19515TIP3   OH258421   6.218   4.064   7.384
19515TIP3    H158422   6.235   4.115   7.305
19515TIP3    H258423   6.174   4.126   7.443
19516TIP3   OH258424   6.862   4.187   7.623
19516TIP3    H158425   6.906   4.238   7.555
19516TIP3    H258426   6.899   4.219   7.705
19517TIP3   OH258427   7.347   4.339   7.600
19517TIP3    H158428   7.354   4.304   7.511
19517TIP3    H258429   7.356   4.262   7.656
19518TIP3   OH258430   7.411   4.293   7.166
19518TIP3    H158431   7.331   4.341   7.190
19518TIP3    H258432   7.399   4.206   7.203
19519TIP3   OH258433   5.897   5.631   7.142
19519TIP3    H158434   5.811   5.594   7.121
19519TIP3    H258435   5.892   5.722   7.115
19520TIP3   OH258436   6.307   4.195   7.143
19520TIP3    H158437   6.353   4.137   7.083
19520TIP3    H258438   6.375   4.252   7.178
19521TIP3   OH258439   6.792   4.387   7.242
19521TIP3    H158440   6.852   4.338   7.298
19521TIP3    H258441   6.805   4.479   7.268
19522TIP3   OH258442   6.674   5.784   6.733
19522TIP3    H158443   6.758   5.811   6.696
19522TIP3    H258444   6.645   5.712   6.677
19523TIP3   OH258445   7.387   5.930   6.837
19523TIP3    H158446   7.379   5.834   6.832
19523TIP3    H258447   7.339   5.962   6.760
19524TIP3   OH258448   0.071   9.057   0.608
19524TIP3    H158449   0.037   8.990   0.667
19524TIP3    H258450   0.163   9.066   0.632
19525TIP3   OH258451   0.318   9.064   0.732
19525TIP3    H158452   0.396   9.043   0.679
19525TIP3    H258453   0.313   8.994   0.797
19526TIP3   OH258454   5.983   5.629   6.800
19526TIP3    H158455   5.980   5.629   6.895
19526TIP3    H258456   6.064   5.582   6.778
19527TIP3   OH258457   1.142   9.149   0.511
19527TIP3    H158458   1.157   9.121   0.602
19527TIP3    H258459   1.228   9.145   0.470
19528TIP3   OH258460   7.582   6.042   8.000
19528TIP3    H158461   7.509   6.004   7.952
19528TIP3    H258462   7.564   6.137   8.000
19529TIP3   OH258463   8.865   5.470   6.764
19529TIP3    H158464   8.837   5.556   6.733
19529TIP3    H258465   8.794   5.411   6.740
19530TIP3   OH258466   8.846   5.446   7.189
19530TIP3    H158467   8.901   5.427   7.266
19530TIP3    H258468   8.806   5.363   7.166
19531TIP3   OH258469   8.168   5.308   7.535
19531TIP3    H158470   8.205   5.251   7.602
19531TIP3    H258471   8.242   5.329   7.478
19532TIP3   OH258472   9.141   5.727   6.833
19532TIP3    H158473   9.113   5.687   6.915
19532TIP3    H258474   9.166   5.816   6.857
19533TIP3   OH258475   8.157   5.718   7.252
19533TIP3    H158476   8.138   5.624   7.247
19533TIP3    H258477   8.251   5.724   7.236
19534TIP3   OH258478   7.843   4.941   7.003
19534TIP3    H158479   7.803   5.025   7.027
19534TIP3    H258480   7.771   4.891   6.964
19535TIP3   OH258481   7.921   5.248   7.230
19535TIP3    H158482   7.970   5.169   7.254
19535TIP3    H258483   7.988   5.311   7.203
19536TIP3   OH258484   8.799   6.135   6.836
19536TIP3    H158485   8.848   6.096   6.763
19536TIP3    H258486   8.832   6.090   6.914
19537TIP3   OH258487   8.676   5.673   7.193
19537TIP3    H158488   8.715   5.589   7.170
19537TIP3    H258489   8.750   5.727   7.221
19538TIP3   OH258490   9.614   5.011   7.216
19538TIP3    H158491   9.656   5.084   7.263
19538TIP3    H258492   9.669   4.998   7.139
19539TIP3   OH258493   9.103   5.172   7.204
19539TIP3    H158494   9.134   5.086   7.233
19539TIP3    H258495   9.054   5.153   7.124
19540TIP3   OH258496   8.439   4.815   7.188
19540TIP3    H158497   8.415   4.886   7.128
19540TIP3    H258498   8.387   4.740   7.159
19541TIP3   OH258499   9.128   4.927   6.826
19541TIP3    H158500   9.195   4.924   6.893
19541TIP3    H258501   9.173   4.961   6.748
19542TIP3   OH258502   8.062   5.026   7.317
19542TIP3    H158503   8.145   5.005   7.361
19542TIP3    H258504   8.064   4.974   7.236
19543TIP3   OH258505   8.481   5.227   7.133
19543TIP3    H158506   8.575   5.210   7.138
19543TIP3    H258507   8.444   5.145   7.100
19544TIP3   OH258508   9.732   5.215   7.373
19544TIP3    H158509   9.642   5.245   7.381
19544TIP3    H258510   9.774   5.243   7.455
19545TIP3   OH258511   8.418   4.817   7.640
19545TIP3    H158512   8.367   4.851   7.566
19545TIP3    H258513   8.362   4.832   7.716
19546TIP3   OH258514   8.776   5.689   6.619
19546TIP3    H158515   8.729   5.656   6.542
19546TIP3    H258516   8.727   5.766   6.646
19547TIP3   OH258517   8.519   5.585   7.402
19547TIP3    H158518   8.462   5.654   7.437
19547TIP3    H258519   8.566   5.626   7.330
19548TIP3   OH258520   9.303   4.936   7.040
19548TIP3    H158521   9.259   4.915   7.122
19548TIP3    H258522   9.395   4.912   7.054
19549TIP3   OH258523   8.309   4.923   7.408
19549TIP3    H158524   8.365   4.997   7.431
19549TIP3    H258525   8.355   4.880   7.336
19550TIP3   OH258526   8.357   5.779   7.507
19550TIP3    H158527   8.340   5.868   7.474
19550TIP3    H258528   8.274   5.754   7.549
19551TIP3   OH258529   7.735   5.502   6.764
19551TIP3    H158530   7.697   5.518   6.677
19551TIP3    H258531   7.756   5.590   6.796
19552TIP3   OH258532   9.195   5.990   7.060
19552TIP3    H158533   9.100   5.993   7.072
19552TIP3    H258534   9.208   6.009   6.967
19553TIP3   OH258535   9.450   4.881   7.392
19553TIP3    H158536   9.361   4.891   7.359
19553TIP3    H258537   9.506   4.918   7.324
19554TIP3   OH258538   8.762   4.513   7.370
19554TIP3    H158539   8.758   4.420   7.391
19554TIP3    H258540   8.684   4.551   7.410
19555TIP3   OH258541   8.930   6.057   6.607
19555TIP3    H158542   8.960   5.967   6.597
19555TIP3    H258543   9.011   6.109   6.606
19556TIP3   OH258544   9.027   5.802   6.588
19556TIP3    H158545   8.946   5.751   6.590
19556TIP3    H258546   9.078   5.770   6.662
19557TIP3   OH258547   9.396   5.914   7.350
19557TIP3    H158548   9.378   5.843   7.288
19557TIP3    H258549   9.387   5.994   7.299
19558TIP3   OH258550   8.695   5.305   6.616
19558TIP3    H158551   8.611   5.346   6.596
19558TIP3    H258552   8.739   5.297   6.531
19559TIP3   OH258553   8.664   5.099   6.305
19559TIP3    H158554   8.730   5.148   6.354
19559TIP3    H258555   8.714   5.030   6.261
19560TIP3   OH258556   9.562   5.539   7.200
19560TIP3    H158557   9.491   5.604   7.204
19560TIP3    H258558   9.633   5.577   7.251
19561TIP3   OH258559   9.047   5.385   6.581
19561TIP3    H158560   8.988   5.416   6.650
19561TIP3    H258561   9.128   5.364   6.626
19562TIP3   OH258562   9.265   5.396   7.520
19562TIP3    H158563   9.274   5.482   7.560
19562TIP3    H258564   9.181   5.400   7.473
19563TIP3   OH258565   8.286   5.362   6.980
19563TIP3    H158566   8.247   5.302   6.917
19563TIP3    H258567   8.357   5.313   7.021
19564TIP3   OH258568   8.411   5.770   7.146
19564TIP3    H158569   8.389   5.773   7.053
19564TIP3    H258570   8.502   5.741   7.148
19565TIP3   OH258571   8.380   5.352   7.357
19565TIP3    H158572   8.418   5.314   7.278
19565TIP3    H258573   8.431   5.432   7.372
19566TIP3   OH258574   8.923   5.995   7.124
19566TIP3    H158575   8.897   6.056   7.193
19566TIP3    H258576   8.922   5.909   7.166
19567TIP3   OH258577   8.548   5.883   7.677
19567TIP3    H158578   8.487   5.942   7.722
19567TIP3    H258579   8.492   5.830   7.619
19568TIP3   OH258580   8.881   5.245   6.408
19568TIP3    H158581   8.941   5.302   6.456
19568TIP3    H258582   8.912   5.250   6.317
19569TIP3   OH258583   8.310   5.431   7.807
19569TIP3    H158584   8.315   5.526   7.819
19569TIP3    H258585   8.216   5.412   7.800
19570TIP3   OH258586   8.638   5.922   6.671
19570TIP3    H158587   8.656   6.004   6.717
19570TIP3    H258588   8.577   5.946   6.601
19571TIP3   OH258589   8.332   6.046   7.750
19571TIP3    H158590   8.317   6.052   7.655
19571TIP3    H258591   8.248   6.018   7.786
19572TIP3   OH258592   9.363   4.480   6.466
19572TIP3    H158593   9.289   4.496   6.524
19572TIP3    H258594   9.378   4.564   6.423
19573TIP3   OH258595   8.157   5.204   6.783
19573TIP3    H158596   8.078   5.250   6.753
19573TIP3    H258597   8.127   5.115   6.799
19574TIP3   OH258598   9.193   5.851   6.032
19574TIP3    H158599   9.198   5.944   6.009
19574TIP3    H258600   9.283   5.820   6.029
19575TIP3   OH258601   7.933   5.600   7.705
19575TIP3    H158602   7.863   5.585   7.643
19575TIP3    H258603   7.965   5.513   7.728
19576TIP3   OH258604   7.776   5.814   7.369
19576TIP3    H158605   7.863   5.841   7.399
19576TIP3    H258606   7.721   5.892   7.383
19577TIP3   OH258607   8.762   6.004   7.555
19577TIP3    H158608   8.757   6.098   7.570
19577TIP3    H258609   8.685   5.969   7.600
19578TIP3   OH258610   8.515   6.146   6.492
19578TIP3    H158611   8.467   6.120   6.413
19578TIP3    H258612   8.476   6.229   6.518
19579TIP3   OH258613   7.965   5.988   6.872
19579TIP3    H158614   7.999   5.972   6.960
19579TIP3    H258615   7.908   5.913   6.855
19580TIP3   OH258616   8.722   6.073   6.117
19580TIP3    H158617   8.772   6.000   6.082
19580TIP3    H258618   8.756   6.085   6.206
19581TIP3   OH258619   8.770   6.123   6.390
19581TIP3    H158620   8.682   6.121   6.429
19581TIP3    H258621   8.827   6.087   6.458
19582TIP3   OH258622   9.543   5.363   7.632
19582TIP3    H158623   9.448   5.376   7.621
19582TIP3    H258624   9.553   5.268   7.637
19583TIP3   OH258625   8.134   5.782   7.668
19583TIP3    H158626   8.190   5.758   7.741
19583TIP3    H258627   8.061   5.720   7.673
19584TIP3   OH258628   8.522   4.600   7.495
19584TIP3    H158629   8.439   4.564   7.464
19584TIP3    H258630   8.498   4.681   7.541
19585TIP3   OH258631   9.062   4.728   7.692
19585TIP3    H158632   9.132   4.698   7.750
19585TIP3    H258633   8.981   4.709   7.740
19586TIP3   OH258634   9.279   5.143   7.628
19586TIP3    H158635   9.243   5.146   7.716
19586TIP3    H258636   9.261   5.230   7.592
19587TIP3   OH258637   8.968   5.228   6.149
19587TIP3    H158638   8.922   5.229   6.065
19587TIP3    H258639   9.050   5.275   6.132
19588TIP3   OH258640   8.673   4.646   6.465
19588TIP3    H158641   8.636   4.651   6.553
19588TIP3    H258642   8.636   4.566   6.428
19589TIP3   OH258643   8.463   5.132   7.505
19589TIP3    H158644   8.417   5.137   7.589
19589TIP3    H258645   8.441   5.213   7.460
19590TIP3   OH258646   8.339   5.014   7.026
19590TIP3    H158647   8.250   4.987   7.052
19590TIP3    H258648   8.349   4.981   6.937
19591TIP3   OH258649   8.812   5.093   6.750
19591TIP3    H158650   8.768   5.168   6.710
19591TIP3    H258651   8.870   5.060   6.681
19592TIP3   OH258652   8.997   5.351   7.816
19592TIP3    H158653   8.977   5.285   7.882
19592TIP3    H258654   9.084   5.383   7.840
19593TIP3   OH258655   8.953   5.080   6.989
19593TIP3    H158656   8.894   5.104   6.917
19593TIP3    H258657   9.014   5.017   6.950
19594TIP3   OH258658   8.297   5.143   7.724
19594TIP3    H158659   8.311   5.205   7.795
19594TIP3    H258660   8.278   5.060   7.768
19595TIP3   OH258661   8.340   4.627   6.442
19595TIP3    H158662   8.330   4.628   6.537
19595TIP3    H258663   8.260   4.670   6.410
19596TIP3   OH258664   7.888   4.670   7.305
19596TIP3    H158665   7.963   4.702   7.354
19596TIP3    H258666   7.924   4.646   7.219
19597TIP3   OH258667   7.794   4.647   6.809
19597TIP3    H158668   7.839   4.682   6.732
19597TIP3    H258669   7.731   4.714   6.832
19598TIP3   OH258670   9.020   5.354   7.388
19598TIP3    H158671   9.052   5.291   7.324
19598TIP3    H258672   8.981   5.301   7.457
19599TIP3   OH258673   8.707   4.811   7.080
19599TIP3    H158674   8.628   4.806   7.135
19599TIP3    H258675   8.780   4.803   7.142
19600TIP3   OH258676   8.102   4.885   7.085
19600TIP3    H158677   8.014   4.890   7.047
19600TIP3    H258678   8.130   4.795   7.069
19601TIP3   OH258679   8.354   4.893   6.781
19601TIP3    H158680   8.449   4.900   6.770
19601TIP3    H258681   8.318   4.909   6.694
19602TIP3   OH258682   9.158   4.903   7.284
19602TIP3    H158683   9.133   4.924   7.374
19602TIP3    H258684   9.090   4.843   7.254
19603TIP3   OH258685   8.240   4.918   6.533
19603TIP3    H158686   8.177   4.867   6.482
19603TIP3    H258687   8.294   4.962   6.467
19604TIP3   OH258688   8.297   5.699   7.893
19604TIP3    H158689   8.380   5.707   7.940
19604TIP3    H258690   8.233   5.682   7.961
19605TIP3   OH258691   8.755   5.175   7.176
19605TIP3    H158692   8.819   5.128   7.123
19605TIP3    H258693   8.754   5.129   7.260
19606TIP3   OH258694   8.250   4.636   7.077
19606TIP3    H158695   8.220   4.561   7.129
19606TIP3    H258696   8.280   4.596   6.995
19607TIP3   OH258697   8.727   5.076   7.440
19607TIP3    H158698   8.640   5.106   7.466
19607TIP3    H258699   8.787   5.128   7.494
19608TIP3   OH258700   8.453   5.436   6.564
19608TIP3    H158701   8.381   5.378   6.541
19608TIP3    H258702   8.427   5.475   6.647
19609TIP3   OH258703   9.341   5.704   7.175
19609TIP3    H158704   9.370   5.754   7.099
19609TIP3    H258705   9.253   5.673   7.151
19610TIP3   OH258706   8.925   4.748   6.466
19610TIP3    H158707   8.832   4.724   6.464
19610TIP3    H258708   8.925   4.842   6.479
19611TIP3   OH258709   8.881   5.752   7.562
19611TIP3    H158710   8.938   5.742   7.638
19611TIP3    H258711   8.839   5.837   7.574
19612TIP3   OH258712   8.972   5.012   6.534
19612TIP3    H158713   9.068   5.010   6.543
19612TIP3    H258714   8.954   5.090   6.482
19613TIP3   OH258715   8.150   5.435   7.211
19613TIP3    H158716   8.188   5.420   7.124
19613TIP3    H258717   8.217   5.405   7.272
19614TIP3   OH258718   8.609   5.599   6.411
19614TIP3    H158719   8.563   5.684   6.411
19614TIP3    H258720   8.552   5.541   6.462
19615TIP3   OH258721   8.036   5.372   7.838
19615TIP3    H158722   8.044   5.341   7.928
19615TIP3    H258723   7.961   5.324   7.803
19616TIP3   OH258724   8.770   5.502   7.847
19616TIP3    H158725   8.699   5.442   7.823
19616TIP3    H258726   8.849   5.457   7.818
19617TIP3   OH258727   9.002   6.062   7.432
19617TIP3    H158728   8.917   6.031   7.463
19617TIP3    H258729   9.051   6.081   7.512
19618TIP3   OH258730   9.400   5.107   6.345
19618TIP3    H158731   9.344   5.061   6.282
19618TIP3    H258732   9.401   5.197   6.313
19619TIP3   OH258733   9.645   5.950   7.463
19619TIP3    H158734   9.550   5.955   7.449
19619TIP3    H258735   9.680   5.928   7.376
19620TIP3   OH258736   9.129   5.914   6.304
19620TIP3    H158737   9.103   5.847   6.367
19620TIP3    H258738   9.139   5.867   6.221
19621TIP3   OH258739   9.096   5.569   7.102
19621TIP3    H158740   9.003   5.549   7.107
19621TIP3    H258741   9.139   5.483   7.102
19622TIP3   OH258742   8.276   5.797   6.895
19622TIP3    H158743   8.273   5.869   6.833
19622TIP3    H258744   8.186   5.765   6.900
19623TIP3   OH258745   7.840   5.072   6.595
19623TIP3    H158746   7.881   5.156   6.617
19623TIP3    H258747   7.758   5.072   6.644
19624TIP3   OH258748   8.362   5.551   6.791
19624TIP3    H158749   8.351   5.638   6.829
19624TIP3    H258750   8.337   5.491   6.861
19625TIP3   OH258751   8.205   6.020   6.740
19625TIP3    H158752   8.116   6.022   6.775
19625TIP3    H258753   8.238   6.109   6.754
19626TIP3   OH258754   8.922   5.768   7.289
19626TIP3    H158755   8.907   5.760   7.383
19626TIP3    H258756   9.000   5.715   7.272
19627TIP3   OH258757   8.901   5.651   6.169
19627TIP3    H158758   8.950   5.620   6.245
19627TIP3    H258759   8.817   5.605   6.175
19628TIP3   OH258760   9.130   6.283   7.330
19628TIP3    H158761   9.084   6.202   7.352
19628TIP3    H258762   9.090   6.311   7.247
19629TIP3   OH258763   9.212   6.122   5.981
19629TIP3    H158764   9.222   6.179   5.904
19629TIP3    H258765   9.145   6.165   6.034
19630TIP3   OH258766   8.241   4.893   7.844
19630TIP3    H158767   8.147   4.905   7.848
19630TIP3    H258768   8.260   4.829   7.913
19631TIP3   OH258769   9.067   5.558   6.364
19631TIP3    H158770   9.053   5.507   6.443
19631TIP3    H258771   9.161   5.573   6.360
19632TIP3   OH258772   7.985   5.976   7.485
19632TIP3    H158773   8.040   5.919   7.539
19632TIP3    H258774   7.989   6.061   7.528
19633TIP3   OH258775   8.257   5.614   6.191
19633TIP3    H158776   8.265   5.523   6.163
19633TIP3    H258777   8.239   5.609   6.285
19634TIP3   OH258778   8.198   5.637   6.462
19634TIP3    H158779   8.261   5.609   6.528
19634TIP3    H258780   8.198   5.733   6.469
19635TIP3   OH258781   7.932   5.326   6.674
19635TIP3    H158782   7.866   5.373   6.725
19635TIP3    H258783   7.950   5.382   6.599
19636TIP3   OH258784   9.092   4.959   7.546
19636TIP3    H158785   9.171   5.000   7.582
19636TIP3    H258786   9.082   4.879   7.598
19637TIP3   OH258787   8.977   4.708   6.738
19637TIP3    H158788   8.959   4.723   6.646
19637TIP3    H258789   9.021   4.787   6.768
19638TIP3   OH258790   8.478   5.838   6.419
19638TIP3    H158791   8.388   5.855   6.449
19638TIP3    H258792   8.492   5.901   6.349
19639TIP3   OH258793   8.633   4.898   6.827
19639TIP3    H158794   8.694   4.967   6.799
19639TIP3    H258795   8.658   4.880   6.917
19640TIP3   OH258796   8.933   5.191   7.589
19640TIP3    H158797   8.955   5.233   7.673
19640TIP3    H258798   8.982   5.109   7.590
19641TIP3   OH258799   8.795   4.602   6.917
19641TIP3    H158800   8.771   4.678   6.969
19641TIP3    H258801   8.862   4.634   6.856
19642TIP3   OH258802   8.222   5.912   6.485
19642TIP3    H158803   8.199   5.982   6.424
19642TIP3    H258804   8.212   5.952   6.572
19643TIP3   OH258805   8.310   4.618   6.719
19643TIP3    H158806   8.298   4.708   6.750
19643TIP3    H258807   8.404   4.602   6.726
19644TIP3   OH258808   9.538   5.079   7.589
19644TIP3    H158809   9.446   5.094   7.612
19644TIP3    H258810   9.536   5.013   7.520
19645TIP3   OH258811   7.954   5.501   6.456
19645TIP3    H158812   8.025   5.565   6.462
19645TIP3    H258813   7.985   5.437   6.391
19646TIP3   OH258814   7.860   4.794   6.587
19646TIP3    H158815   7.873   4.888   6.597
19646TIP3    H258816   7.795   4.787   6.516
19647TIP3   OH258817   9.184   6.314   6.919
19647TIP3    H158818   9.151   6.374   6.852
19647TIP3    H258819   9.275   6.297   6.893
19648TIP3   OH258820   8.261   4.509   7.462
19648TIP3    H158821   8.233   4.476   7.376
19648TIP3    H258822   8.254   4.433   7.520
19649TIP3   OH258823   7.782   5.778   6.837
19649TIP3    H158824   7.732   5.808   6.912
19649TIP3    H258825   7.737   5.816   6.761
19650TIP3   OH258826   7.906   6.261   7.834
19650TIP3    H158827   7.990   6.285   7.874
19650TIP3    H258828   7.894   6.169   7.856
19651TIP3   OH258829   8.445   6.131   7.984
19651TIP3    H158830   8.539   6.124   7.971
19651TIP3    H258831   8.407   6.111   7.899
19652TIP3   OH258832   8.410   5.814   6.081
19652TIP3    H158833   8.361   5.743   6.122
19652TIP3    H258834   8.484   5.771   6.038
19653TIP3   OH258835   9.126   6.106   7.669
19653TIP3    H158836   9.089   6.065   7.747
19653TIP3    H258837   9.194   6.164   7.702
19654TIP3   OH258838   8.853   5.863   6.003
19654TIP3    H158839   8.887   5.798   6.064
19654TIP3    H258840   8.911   5.857   5.927
19655TIP3   OH258841   4.825   1.035   0.064
19655TIP3    H158842   4.833   0.940   0.074
19655TIP3    H258843   4.735   1.048   0.034
19656TIP3   OH258844   8.078   5.311   6.304
19656TIP3    H158845   8.130   5.286   6.380
19656TIP3    H258846   8.143   5.323   6.234
19657TIP3   OH258847   8.717   5.773   7.866
19657TIP3    H158848   8.666   5.796   7.788
19657TIP3    H258849   8.747   5.684   7.849
19658TIP3   OH258850   8.651   5.533   6.147
19658TIP3    H158851   8.627   5.544   6.239
19658TIP3    H258852   8.632   5.441   6.128
19659TIP3   OH258853   9.179   5.824   7.489
19659TIP3    H158854   9.258   5.861   7.451
19659TIP3    H258855   9.110   5.888   7.470
19660TIP3   OH258856   4.952   0.783   0.081
19660TIP3    H158857   5.023   0.772   0.017
19660TIP3    H258858   4.995   0.819   0.158
19661TIP3   OH258859   8.252   5.253   6.517
19661TIP3    H158860   8.229   5.220   6.604
19661TIP3    H258861   8.299   5.180   6.476
19662TIP3   OH258862   8.566   5.326   7.765
19662TIP3    H158863   8.479   5.365   7.771
19662TIP3    H258864   8.597   5.351   7.678
19663TIP3   OH258865   8.392   5.070   6.361
19663TIP3    H158866   8.362   5.073   6.270
19663TIP3    H258867   8.488   5.076   6.355
19664TIP3   OH258868   9.074   5.734   7.892
19664TIP3    H158869   9.170   5.733   7.890
19664TIP3    H258870   9.051   5.661   7.949
19665TIP3   OH258871   9.189   5.360   6.044
19665TIP3    H158872   9.177   5.318   5.959
19665TIP3    H258873   9.163   5.451   6.029
19666TIP3   OH258874   8.673   5.099   7.876
19666TIP3    H158875   8.676   5.028   7.811
19666TIP3    H258876   8.637   5.173   7.828
19667TIP3   OH258877   8.677   4.905   7.672
19667TIP3    H158878   8.704   4.938   7.586
19667TIP3    H258879   8.587   4.876   7.660
19668TIP3   OH258880   8.686   5.419   7.541
19668TIP3    H158881   8.776   5.450   7.528
19668TIP3    H258882   8.632   5.481   7.491
19669TIP3   OH258883   9.309   5.374   7.977
19669TIP3    H158884   9.307   5.290   7.931
19669TIP3    H258885   9.393   5.413   7.953
19670TIP3   OH258886   9.318   5.637   7.632
19670TIP3    H158887   9.261   5.702   7.591
19670TIP3    H258888   9.407   5.670   7.616
19671TIP3   OH258889   5.277   0.550   0.109
19671TIP3    H158890   5.213   0.481   0.129
19671TIP3    H258891   5.315   0.524   0.025
19672TIP3   OH258892   8.800   4.676   7.776
19672TIP3    H158893   8.759   4.755   7.743
19672TIP3    H258894   8.734   4.607   7.764
19673TIP3   OH258895   5.657   0.528  -0.016
19673TIP3    H158896   5.647   0.512   0.078
19673TIP3    H258897   5.573   0.504  -0.054
19674TIP3   OH258898   9.185   5.130   7.879
19674TIP3    H158899   9.102   5.116   7.926
19674TIP3    H258900   9.250   5.083   7.931
19675TIP3   OH258901   6.143   0.428   0.012
19675TIP3    H158902   6.157   0.333   0.009
19675TIP3    H258903   6.137   0.448   0.106
19676TIP3   OH258904   5.116   0.337   0.183
19676TIP3    H158905   5.118   0.251   0.142
19676TIP3    H258906   5.157   0.325   0.268
19677TIP3   OH258907   5.600   0.031   0.038
19677TIP3    H158908   5.669  -0.036   0.034
19677TIP3    H258909   5.571   0.041  -0.052
19678TIP3   OH258910   5.696   0.248   0.178
19678TIP3    H158911   5.665   0.175   0.124
19678TIP3    H258912   5.622   0.308   0.182
19679TIP3   OH258913   8.221   6.125   6.304
19679TIP3    H158914   8.306   6.096   6.268
19679TIP3    H258915   8.176   6.166   6.230
19680TIP3   OH258916   7.680   5.500   6.472
19680TIP3    H158917   7.775   5.509   6.469
19680TIP3    H258918   7.663   5.414   6.434
19681TIP3   OH258919   7.588   6.088   6.933
19681TIP3    H158920   7.523   6.033   6.888
19681TIP3    H258921   7.632   6.028   6.993
19682TIP3   OH258922   7.733   5.922   7.099
19682TIP3    H158923   7.724   5.853   7.165
19682TIP3    H258924   7.786   5.989   7.142
19683TIP3   OH258925   9.461   6.295   6.877
19683TIP3    H158926   9.477   6.328   6.966
19683TIP3    H258927   9.535   6.330   6.826
19684TIP3   OH258928   9.493   6.372   7.142
19684TIP3    H158929   9.451   6.290   7.168
19684TIP3    H258930   9.496   6.424   7.223
19685TIP3   OH258931   9.345   5.580   6.374
19685TIP3    H158932   9.408   5.647   6.352
19685TIP3    H258933   9.382   5.535   6.450
19686TIP3   OH258934   9.461   5.420   6.569
19686TIP3    H158935   9.437   5.360   6.640
19686TIP3    H258936   9.540   5.463   6.600
19687TIP3   OH258937   9.534   5.813   7.003
19687TIP3    H158938   9.569   5.741   6.950
19687TIP3    H258939   9.540   5.890   6.947
19688TIP3   OH258940   9.349   6.152   7.218
19688TIP3    H158941   9.282   6.199   7.268
19688TIP3    H258942   9.299   6.101   7.154
19689TIP3   OH258943   9.394   5.354   6.223
19689TIP3    H158944   9.324   5.349   6.158
19689TIP3    H258945   9.375   5.433   6.273
19690TIP3   OH258946   9.255   4.993   6.145
19690TIP3    H158947   9.205   5.028   6.071
19690TIP3    H258948   9.244   4.898   6.139
19691TIP3   OH258949   7.904   5.346   7.484
19691TIP3    H158950   7.893   5.313   7.395
19691TIP3    H258951   7.998   5.343   7.500
19692TIP3   OH258952   9.575   5.721   7.602
19692TIP3    H158953   9.652   5.666   7.606
19692TIP3    H258954   9.607   5.805   7.569
19693TIP3   OH258955   9.760   5.515   7.587
19693TIP3    H158956   9.678   5.468   7.602
19693TIP3    H258957   9.828   5.450   7.601
19694TIP3   OH258958   9.200   4.724   6.128
19694TIP3    H158959   9.261   4.703   6.198
19694TIP3    H258960   9.117   4.683   6.155
19695TIP3   OH258961   9.251   4.994   6.572
19695TIP3    H158962   9.294   4.911   6.591
19695TIP3    H258963   9.305   5.034   6.504
19696TIP3   OH258964   9.440   5.294   7.068
19696TIP3    H158965   9.421   5.209   7.027
19696TIP3    H258966   9.429   5.279   7.161
19697TIP3   OH258967   9.468   5.316   7.342
19697TIP3    H158968   9.398   5.330   7.405
19697TIP3    H258969   9.496   5.404   7.316
19698TIP3   OH258970   4.855   0.408   0.126
19698TIP3    H158971   4.949   0.399   0.140
19698TIP3    H258972   4.818   0.326   0.160
19699TIP3   OH258973   0.178   4.975   7.890
19699TIP3    H158974   0.227   4.898   7.861
19699TIP3    H258975   0.123   4.998   7.815
19700TIP3   OH258976   9.366   4.756   6.655
19700TIP3    H158977   9.410   4.740   6.739
19700TIP3    H258978   9.304   4.683   6.647
19701TIP3   OH258979   8.101   4.736   7.473
19701TIP3    H158980   8.153   4.656   7.480
19701TIP3    H258981   8.165   4.805   7.454
19702TIP3   OH258982   7.879   5.001   7.533
19702TIP3    H158983   7.928   4.988   7.452
19702TIP3    H258984   7.909   5.086   7.566
19703TIP3   OH258985   9.790   5.022   7.695
19703TIP3    H158986   9.704   5.064   7.695
19703TIP3    H258987   9.782   4.951   7.631
19704TIP3   OH258988   9.414   4.702   6.311
19704TIP3    H158989   9.446   4.639   6.246
19704TIP3    H258990   9.480   4.772   6.309
19705TIP3   OH258991   7.867   4.521   7.041
19705TIP3    H158992   7.780   4.507   7.079
19705TIP3    H258993   7.849   4.573   6.962
19706TIP3   OH258994   9.158   6.208   6.594
19706TIP3    H158995   9.170   6.189   6.501
19706TIP3    H258996   9.165   6.303   6.600
19707TIP3   OH258997   8.097   4.588   7.869
19707TIP3    H158998   8.043   4.571   7.945
19707TIP3    H258999   8.039   4.629   7.806
19708TIP3   OH259000   8.107   5.970   7.905
19708TIP3    H159001   8.014   5.984   7.890
19708TIP3    H259002   8.114   5.876   7.922
19709TIP3   OH259003   8.334   6.053   7.468
19709TIP3    H159004   8.276   6.120   7.432
19709TIP3    H259005   8.410   6.054   7.410
19710TIP3   OH259006   8.789   6.277   7.578
19710TIP3    H159007   8.830   6.266   7.664
19710TIP3    H259008   8.843   6.344   7.535
19711TIP3   OH259009   8.947   6.464   7.445
19711TIP3    H159010   9.020   6.414   7.410
19711TIP3    H259011   8.987   6.533   7.497
19712TIP3   OH259012   9.713   4.794   7.557
19712TIP3    H159013   9.619   4.781   7.547
19712TIP3    H259014   9.749   4.705   7.559
19713TIP3   OH259015   7.972   6.280   7.504
19713TIP3    H159016   7.885   6.294   7.467
19713TIP3    H259017   7.981   6.350   7.569
19714TIP3   OH259018   8.201   6.266   7.360
19714TIP3    H159019   8.120   6.269   7.410
19714TIP3    H259020   8.177   6.299   7.273
19715TIP3   OH259021   8.756   6.314   7.198
19715TIP3    H159022   8.801   6.282   7.276
19715TIP3    H259023   8.827   6.339   7.139
19716TIP3   OH259024   9.013   6.403   7.108
19716TIP3    H159025   9.036   6.495   7.098
19716TIP3    H259026   9.066   6.358   7.042
19717TIP3   OH259027   7.923   6.092   7.230
19717TIP3    H159028   7.927   6.064   7.321
19717TIP3    H259029   7.995   6.045   7.187
19718TIP3   OH259030   8.113   5.941   7.105
19718TIP3    H159031   8.109   5.866   7.164
19718TIP3    H259032   8.202   5.940   7.071
19719TIP3   OH259033   8.935   4.719   7.223
19719TIP3    H159034   8.892   4.649   7.273
19719TIP3    H259035   8.999   4.674   7.168
19720TIP3   OH259036   9.408   4.649   7.120
19720TIP3    H159037   9.445   4.681   7.037
19720TIP3    H259038   9.314   4.644   7.103
19721TIP3   OH259039   9.525   4.713   6.880
19721TIP3    H159040   9.597   4.661   6.844
19721TIP3    H259041   9.553   4.804   6.872
19722TIP3   OH259042   8.173   4.408   7.220
19722TIP3    H159043   8.083   4.375   7.228
19722TIP3    H259044   8.227   4.330   7.210
19723TIP3   OH259045   7.981   4.323   6.865
19723TIP3    H159046   8.013   4.372   6.789
19723TIP3    H259047   7.952   4.391   6.927
19724TIP3   OH259048   8.636   4.477   7.116
19724TIP3    H159049   8.693   4.512   7.048
19724TIP3    H259050   8.684   4.490   7.198
19725TIP3   OH259051   9.138   4.595   7.079
19725TIP3    H159052   9.131   4.555   6.993
19725TIP3    H259053   9.143   4.521   7.139
19726TIP3   OH259054   9.188   4.544   6.667
19726TIP3    H159055   9.107   4.588   6.691
19726TIP3    H259056   9.179   4.456   6.704
19727TIP3   OH259057   7.666   5.893   6.615
19727TIP3    H159058   7.581   5.864   6.582
19727TIP3    H259059   7.671   5.985   6.590
19728TIP3   OH259060   8.100   4.450   6.632
19728TIP3    H159061   8.146   4.387   6.576
19728TIP3    H259062   8.169   4.506   6.668
19729TIP3   OH259063   8.585   4.647   6.728
19729TIP3    H159064   8.640   4.592   6.784
19729TIP3    H259065   8.602   4.736   6.758
19730TIP3   OH259066   8.468   6.038   6.222
19730TIP3    H159067   8.550   6.068   6.182
19730TIP3    H259068   8.438   5.966   6.166
19731TIP3   OH259069   9.181   6.179   6.321
19731TIP3    H159070   9.167   6.084   6.314
19731TIP3    H259071   9.131   6.216   6.248
19732TIP3   OH259072   5.136   0.073   0.093
19732TIP3    H159073   5.101   0.008   0.154
19732TIP3    H259074   5.228   0.080   0.116
19733TIP3   OH259075   5.385   0.076   0.211
19733TIP3    H159076   5.463   0.057   0.158
19733TIP3    H259077   5.382   0.006   0.276
19734TIP3   OH259078   7.780   5.882   6.280
19734TIP3    H159079   7.776   5.884   6.375
19734TIP3    H259080   7.861   5.834   6.260
19735TIP3   OH259081   6.201   0.159  -0.004
19735TIP3    H159082   6.216   0.125   0.085
19735TIP3    H259083   6.288   0.160  -0.044
19736TIP3   OH259084   0.098   5.579   7.066
19736TIP3    H159085   0.130   5.519   7.134
19736TIP3    H259086   0.140   5.663   7.086
19737TIP3   OH259087   0.060   5.989   6.754
19737TIP3    H159088   0.020   5.903   6.763
19737TIP3    H259089   0.154   5.973   6.750
19738TIP3   OH259090   9.636   5.217   6.462
19738TIP3    H159091   9.593   5.301   6.478
19738TIP3    H259092   9.566   5.160   6.432
19739TIP3   OH259093   9.703   5.506   6.650
19739TIP3    H159094   9.764   5.436   6.672
19739TIP3    H259095   9.753   5.564   6.592
19740TIP3   OH259096   0.635   5.976   6.723
19740TIP3    H159097   0.611   5.892   6.684
19740TIP3    H259098   0.678   5.953   6.805
19741TIP3   OH259099   0.504   5.071   6.868
19741TIP3    H159100   0.488   5.151   6.818
19741TIP3    H259101   0.565   5.021   6.814
19742TIP3   OH259102   0.046   5.287   6.741
19742TIP3    H159103   0.120   5.270   6.800
19742TIP3    H259104   0.051   5.217   6.676
19743TIP3   OH259105   0.557   5.481   6.589
19743TIP3    H159106   0.636   5.534   6.577
19743TIP3    H259107   0.538   5.446   6.502
19744TIP3   OH259108   0.341   4.994   7.158
19744TIP3    H159109   0.285   4.916   7.162
19744TIP3    H259110   0.299   5.057   7.217
19745TIP3   OH259111   0.430   5.930   6.978
19745TIP3    H159112   0.382   5.953   7.057
19745TIP3    H259113   0.522   5.931   7.004
19746TIP3   OH259114   0.168   5.198   6.997
19746TIP3    H159115   0.225   5.274   6.986
19746TIP3    H259116   0.214   5.127   6.950
19747TIP3   OH259117   9.548   5.748   6.264
19747TIP3    H159118   9.499   5.748   6.182
19747TIP3    H259119   9.630   5.705   6.243
19748TIP3   OH259120   0.060   5.667   6.480
19748TIP3    H159121   0.020   5.667   6.393
19748TIP3    H259122   0.150   5.638   6.465
19749TIP3   OH259123   0.432   6.139   6.637
19749TIP3    H159124   0.440   6.131   6.542
19749TIP3    H259125   0.516   6.109   6.671
19750TIP3   OH259126   0.399   5.615   6.790
19750TIP3    H159127   0.455   5.592   6.716
19750TIP3    H259128   0.454   5.670   6.845
19751TIP3   OH259129   0.218   5.800   7.206
19751TIP3    H159130   0.185   5.887   7.180
19751TIP3    H259131   0.159   5.774   7.278
19752TIP3   OH259132   0.718   6.160   6.236
19752TIP3    H159133   0.757   6.233   6.284
19752TIP3    H259134   0.658   6.202   6.174
19753TIP3   OH259135   9.712   5.859   7.211
19753TIP3    H159136   9.646   5.847   7.143
19753TIP3    H259137   9.733   5.771   7.242
19754TIP3   OH259138   9.575   6.034   6.847
19754TIP3    H159139   9.664   6.054   6.821
19754TIP3    H259140   9.534   6.120   6.861
19755TIP3   OH259141   0.461   6.468   5.954
19755TIP3    H159142   0.422   6.385   5.982
19755TIP3    H259143   0.411   6.535   6.001
19756TIP3   OH259144   9.741   6.250   6.347
19756TIP3    H159145   9.776   6.239   6.435
19756TIP3    H259146   9.684   6.174   6.334
19757TIP3   OH259147   0.097   6.057   7.182
19757TIP3    H159148   0.097   6.098   7.269
19757TIP3    H259149   0.021   5.999   7.184
19758TIP3   OH259150   0.457   4.798   6.992
19758TIP3    H159151   0.365   4.774   6.994
19758TIP3    H259152   0.459   4.890   7.017
19759TIP3   OH259153   0.627   5.385   6.925
19759TIP3    H159154   0.571   5.335   6.984
19759TIP3    H259155   0.586   5.375   6.839
19760TIP3   OH259156   0.337   5.217   6.485
19760TIP3    H159157   0.252   5.253   6.459
19760TIP3    H259158   0.390   5.221   6.405
19761TIP3   OH259159   0.216   5.431   7.268
19761TIP3    H159160   0.310   5.445   7.259
19761TIP3    H259161   0.209   5.338   7.293
19762TIP3   OH259162   0.376   4.967   5.886
19762TIP3    H159163   0.411   4.901   5.946
19762TIP3    H259164   0.300   5.003   5.932
19763TIP3   OH259165   9.607   4.968   6.832
19763TIP3    H159166   9.693   4.982   6.873
19763TIP3    H259167   9.627   4.957   6.739
19764TIP3   OH259168   9.593   4.915   6.298
19764TIP3    H159169   9.647   4.940   6.223
19764TIP3    H259170   9.529   4.985   6.305
19765TIP3   OH259171   0.057   5.085   6.556
19765TIP3    H159172  -0.025   5.116   6.519
19765TIP3    H259173   0.063   4.993   6.530
19766TIP3   OH259174   0.344   5.174   6.200
19766TIP3    H159175   0.378   5.263   6.208
19766TIP3    H259176   0.254   5.186   6.170
19767TIP3   OH259177   0.097   5.246   6.116
19767TIP3    H159178   0.022   5.186   6.112
19767TIP3    H259179   0.100   5.285   6.028
19768TIP3   OH259180   0.335   4.708   6.508
19768TIP3    H159181   0.342   4.781   6.570
19768TIP3    H259182   0.319   4.750   6.423
19769TIP3   OH259183   0.472   5.650   6.159
19769TIP3    H159184   0.405   5.657   6.091
19769TIP3    H259185   0.447   5.717   6.223
19770TIP3   OH259186   0.103   5.705   6.759
19770TIP3    H159187   0.092   5.704   6.664
19770TIP3    H259188   0.198   5.700   6.772
19771TIP3   OH259189  -0.005   5.620   7.338
19771TIP3    H159190  -0.021   5.601   7.430
19771TIP3    H259191   0.063   5.558   7.312
19772TIP3   OH259192   0.151   6.012   6.352
19772TIP3    H159193   0.163   6.101   6.318
19772TIP3    H259194   0.058   6.008   6.376
19773TIP3   OH259195   9.621   5.350   6.064
19773TIP3    H159196   9.682   5.419   6.090
19773TIP3    H259197   9.546   5.361   6.123
19774TIP3   OH259198   0.340   5.823   6.328
19774TIP3    H159199   0.278   5.892   6.352
19774TIP3    H259200   0.299   5.742   6.359
19775TIP3   OH259201   0.191   6.287   6.236
19775TIP3    H159202   0.100   6.282   6.266
19775TIP3    H259203   0.211   6.380   6.237
19776TIP3   OH259204   0.207   5.156   7.340
19776TIP3    H159205   0.111   5.155   7.338
19776TIP3    H259206   0.230   5.103   7.416
19777TIP3   OH259207  -0.006   6.254   6.995
19777TIP3    H159208   0.046   6.179   7.026
19777TIP3    H259209  -0.038   6.295   7.075
19778TIP3   OH259210   0.105   5.807   5.677
19778TIP3    H159211   0.045   5.740   5.708
19778TIP3    H259212   0.105   5.873   5.746
19779TIP3   OH259213   0.103   5.935   5.920
19779TIP3    H159214   0.162   5.878   5.969
19779TIP3    H259215   0.127   6.023   5.948
19780TIP3   OH259216   0.402   6.046   5.840
19780TIP3    H159217   0.367   6.023   5.925
19780TIP3    H259218   0.396   6.142   5.836
19781TIP3   OH259219   0.180   6.200   5.966
19781TIP3    H159220   0.158   6.284   5.926
19781TIP3    H259221   0.184   6.218   6.060
19782TIP3   OH259222   0.395   4.777   6.069
19782TIP3    H159223   0.327   4.818   6.123
19782TIP3    H259224   0.472   4.773   6.126
19783TIP3   OH259225   9.658   5.816   5.862
19783TIP3    H159226   9.729   5.872   5.894
19783TIP3    H259227   9.695   5.728   5.862
19784TIP3   OH259228   9.655   5.076   6.067
19784TIP3    H159229   9.633   5.169   6.067
19784TIP3    H259230   9.584   5.035   6.016
19785TIP3   OH259231   0.181   4.748   7.026
19785TIP3    H159232   0.163   4.723   6.936
19785TIP3    H259233   0.178   4.666   7.075
19786TIP3   OH259234   9.582   6.032   6.311
19786TIP3    H159235   9.567   5.938   6.312
19786TIP3    H259236   9.542   6.061   6.229
19787TIP3   OH259237   0.470   6.100   5.568
19787TIP3    H159238   0.420   6.065   5.642
19787TIP3    H259239   0.546   6.042   5.560
19788TIP3   OH259240   0.004   5.582   5.828
19788TIP3    H159241   0.007   5.570   5.923
19788TIP3    H259242   0.089   5.551   5.797
19789TIP3   OH259243   0.494   5.478   7.252
19789TIP3    H159244   0.490   5.569   7.281
19789TIP3    H259245   0.575   5.473   7.201
19790TIP3   OH259246   0.575   5.217   7.366
19790TIP3    H159247   0.660   5.236   7.326
19790TIP3    H259248   0.513   5.273   7.319
19791TIP3   OH259249   0.653   5.025   7.149
19791TIP3    H159250   0.684   5.065   7.068
19791TIP3    H259251   0.567   5.066   7.165
19792TIP3   OH259252   0.372   5.253   7.644
19792TIP3    H159253   0.350   5.166   7.610
19792TIP3    H259254   0.439   5.236   7.711
19793TIP3   OH259255   0.171   6.430   5.819
19793TIP3    H159256   0.260   6.409   5.791
19793TIP3    H259257   0.124   6.453   5.739
19794TIP3   OH259258   9.441   5.742   6.010
19794TIP3    H159259   9.519   5.780   5.969
19794TIP3    H259260   9.424   5.662   5.960
19795TIP3   OH259261   9.391   6.327   6.409
19795TIP3    H159262   9.325   6.278   6.360
19795TIP3    H259263   9.447   6.260   6.448
19796TIP3   OH259264   9.237   6.014   6.791
19796TIP3    H159265   9.326   5.998   6.761
19796TIP3    H259266   9.204   6.082   6.732
19797TIP3   OH259267   9.657   5.569   6.916
19797TIP3    H159268   9.668   5.564   6.821
19797TIP3    H259269   9.745   5.587   6.950
19798TIP3   OH259270   0.093   5.274   7.606
19798TIP3    H159271   0.188   5.279   7.619
19798TIP3    H259272   0.068   5.191   7.648
19799TIP3   OH259273   0.012   4.968   7.034
19799TIP3    H159274   0.068   4.891   7.031
19799TIP3    H259275   0.071   5.043   7.022
19800TIP3   OH259276   9.718   5.301   6.989
19800TIP3    H159277   9.738   5.293   6.896
19800TIP3    H259278   9.793   5.260   7.033
19801TIP3   OH259279   9.611   4.871   6.571
19801TIP3    H159280   9.528   4.827   6.585
19801TIP3    H259281   9.620   4.876   6.476
19802TIP3   OH259282   0.058   4.875   7.335
19802TIP3    H159283   0.010   4.852   7.414
19802TIP3    H259284  -0.009   4.886   7.268
19803TIP3   OH259285   9.703   6.355   6.758
19803TIP3    H159286   9.742   6.329   6.842
19803TIP3    H259287   9.754   6.308   6.693
19804TIP3   OH259288   0.061   6.217   6.587
19804TIP3    H159289   0.076   6.139   6.640
19804TIP3    H259290   0.144   6.264   6.590
19805TIP3   OH259291   0.294   6.367   6.589
19805TIP3    H159292   0.347   6.293   6.621
19805TIP3    H259293   0.358   6.436   6.571
19806TIP3   OH259294   0.146   4.680   6.763
19806TIP3    H159295   0.062   4.635   6.758
19806TIP3    H259296   0.210   4.610   6.769
19807TIP3   OH259297   9.702   4.555   6.331
19807TIP3    H159298   9.714   4.607   6.251
19807TIP3    H259299   9.745   4.606   6.399
19808TIP3   OH259300   9.472   6.143   6.079
19808TIP3    H159301   9.383   6.116   6.059
19808TIP3    H259302   9.472   6.238   6.066
19809TIP3   OH259303   0.030   4.744   6.169
19809TIP3    H159304   0.073   4.679   6.114
19809TIP3    H259305   0.068   4.733   6.256
19810TIP3   OH259306   0.414   6.305   5.747
19810TIP3    H159307   0.474   6.368   5.787
19810TIP3    H259308   0.466   6.259   5.682
19811TIP3   OH259309   0.292   5.000   7.559
19811TIP3    H159310   0.276   4.929   7.622
19811TIP3    H259311   0.373   4.975   7.515
19812TIP3   OH259312   0.538   5.038   7.762
19812TIP3    H159313   0.541   4.949   7.726
19812TIP3    H259314   0.560   5.027   7.854
19813TIP3   OH259315   9.520   6.136   5.798
19813TIP3    H159316   9.526   6.126   5.893
19813TIP3    H259317   9.599   6.095   5.764
19814TIP3   OH259318   7.858   1.607   0.467
19814TIP3    H159319   7.820   1.693   0.451
19814TIP3    H259320   7.795   1.545   0.430
19815TIP3   OH259321   7.872   1.575   0.857
19815TIP3    H159322   7.926   1.556   0.933
19815TIP3    H259323   7.830   1.492   0.836
19816TIP3   OH259324   8.097   1.855   0.507
19816TIP3    H159325   8.086   1.790   0.577
19816TIP3    H259326   8.149   1.924   0.547
19817TIP3   OH259327   7.691   2.321   0.453
19817TIP3    H159328   7.755   2.260   0.417
19817TIP3    H259329   7.634   2.267   0.508
19818TIP3   OH259330   7.673   1.769   0.889
19818TIP3    H159331   7.740   1.701   0.880
19818TIP3    H259332   7.699   1.836   0.825
19819TIP3   OH259333   8.687   1.156   0.886
19819TIP3    H159334   8.711   1.239   0.928
19819TIP3    H259335   8.721   1.164   0.797
19820TIP3   OH259336   8.085   1.282   0.888
19820TIP3    H159337   8.130   1.201   0.911
19820TIP3    H259338   8.039   1.262   0.807
19821TIP3   OH259339   7.470   0.995   0.871
19821TIP3    H159340   7.421   1.069   0.834
19821TIP3    H259341   7.420   0.918   0.844
19822TIP3   OH259342   8.120   1.080   0.505
19822TIP3    H159343   8.185   1.075   0.575
19822TIP3    H259344   8.169   1.110   0.428
19823TIP3   OH259345   7.483   1.393   0.786
19823TIP3    H159346   7.574   1.364   0.793
19823TIP3    H259347   7.435   1.316   0.754
19824TIP3   OH259348   8.763   1.373   1.050
19824TIP3    H159349   8.672   1.402   1.050
19824TIP3    H259350   8.800   1.409   1.131
19825TIP3   OH259351   7.682   1.795   0.365
19825TIP3    H159352   7.689   1.778   0.271
19825TIP3    H259353   7.654   1.887   0.370
19826TIP3   OH259354   8.284   1.104   0.721
19826TIP3    H159355   8.268   1.065   0.807
19826TIP3    H259356   8.343   1.177   0.738
19827TIP3   OH259357   8.208   2.074   0.631
19827TIP3    H159358   8.190   2.080   0.725
19827TIP3    H259359   8.138   2.123   0.589
19828TIP3   OH259360   8.482   1.058   1.056
19828TIP3    H159361   8.397   1.060   1.012
19828TIP3    H259362   8.545   1.081   0.987
19829TIP3   OH259363   7.767   0.684   1.012
19829TIP3    H159364   7.761   0.592   1.040
19829TIP3    H259365   7.700   0.728   1.063
19830TIP3   OH259366   7.867   2.144   0.325
19830TIP3    H159367   7.907   2.061   0.299
19830TIP3    H259368   7.924   2.211   0.285
19831TIP3   OH259369   8.008   1.928   0.261
19831TIP3    H159370   8.026   1.859   0.197
19831TIP3    H259371   8.044   1.894   0.343
19832TIP3   OH259372   8.416   1.985   1.037
19832TIP3    H159373   8.401   1.913   0.976
19832TIP3    H259374   8.394   2.064   0.987
19833TIP3   OH259375   7.683   1.466   0.301
19833TIP3    H159376   7.601   1.510   0.279
19833TIP3    H259377   7.731   1.462   0.218
19834TIP3   OH259378   1.142   5.875   7.990
19834TIP3    H159379   1.203   5.929   8.040
19834TIP3    H259380   1.197   5.809   7.947
19835TIP3   OH259381   8.591   1.705   0.887
19835TIP3    H159382   8.501   1.737   0.883
19835TIP3    H259383   8.627   1.726   0.801
19836TIP3   OH259384   8.043   1.546   0.271
19836TIP3    H159385   7.994   1.572   0.349
19836TIP3    H259386   8.126   1.512   0.304
19837TIP3   OH259387   8.246   1.465   1.260
19837TIP3    H159388   8.228   1.546   1.308
19837TIP3    H259389   8.198   1.476   1.177
19838TIP3   OH259390   7.417   1.536   1.005
19838TIP3    H159391   7.426   1.497   0.918
19838TIP3    H259392   7.507   1.554   1.032
19839TIP3   OH259393   8.032   2.163   0.825
19839TIP3    H159394   8.005   2.242   0.872
19839TIP3    H259395   7.994   2.171   0.738
19840TIP3   OH259396   7.872   1.416   0.101
19840TIP3    H159397   7.935   1.468   0.151
19840TIP3    H259398   7.898   1.429   0.010
19841TIP3   OH259399   7.608   2.055   0.375
19841TIP3    H159400   7.699   2.079   0.361
19841TIP3    H259401   7.561   2.095   0.302
19842TIP3   OH259402   8.391   0.650   0.153
19842TIP3    H159403   8.312   0.672   0.202
19842TIP3    H259404   8.405   0.725   0.095
19843TIP3   OH259405   1.680   6.632   7.704
19843TIP3    H159406   1.682   6.724   7.676
19843TIP3    H259407   1.769   6.600   7.687
19844TIP3   OH259408   8.732   2.446   1.019
19844TIP3    H159409   8.712   2.386   0.947
19844TIP3    H259410   8.672   2.420   1.089
19845TIP3   OH259411   7.679   2.200   1.334
19845TIP3    H159412   7.735   2.275   1.312
19845TIP3    H259413   7.633   2.180   1.252
19846TIP3   OH259414   7.538   2.241   0.183
19846TIP3    H159415   7.497   2.245   0.096
19846TIP3    H259416   7.482   2.294   0.239
19847TIP3   OH259417   1.169   6.842   7.804
19847TIP3    H159418   1.222   6.770   7.769
19847TIP3    H259419   1.208   6.859   7.890
19848TIP3   OH259420   7.784   2.283   0.057
19848TIP3    H159421   7.711   2.265   0.116
19848TIP3    H259422   7.861   2.286   0.114
19849TIP3   OH259423   8.526   1.497   1.332
19849TIP3    H159424   8.434   1.512   1.310
19849TIP3    H259425   8.542   1.406   1.309
19850TIP3   OH259426   7.571   0.780   1.172
19850TIP3    H159427   7.477   0.790   1.159
19850TIP3    H259428   7.596   0.856   1.225
19851TIP3   OH259429   7.936   0.916   1.348
19851TIP3    H159430   7.946   0.870   1.431
19851TIP3    H259431   7.843   0.939   1.344
19852TIP3   OH259432   8.280   1.236   1.396
19852TIP3    H159433   8.297   1.267   1.485
19852TIP3    H259434   8.267   1.316   1.345
19853TIP3   OH259435   1.405   6.050   7.842
19853TIP3    H159436   1.366   6.028   7.758
19853TIP3    H259437   1.491   6.087   7.820
19854TIP3   OH259438   7.648   0.829   0.149
19854TIP3    H159439   7.618   0.828   0.240
19854TIP3    H259440   7.624   0.743   0.115
19855TIP3   OH259441   7.422   1.312   1.175
19855TIP3    H159442   7.329   1.289   1.182
19855TIP3    H259443   7.425   1.381   1.109
19856TIP3   OH259444   7.319   1.176   0.719
19856TIP3    H159445   7.224   1.173   0.728
19856TIP3    H259446   7.337   1.131   0.637
19857TIP3   OH259447   7.806   1.252   0.421
19857TIP3    H159448   7.759   1.326   0.381
19857TIP3    H259449   7.868   1.223   0.354
19858TIP3   OH259450   7.959   1.250   0.651
19858TIP3    H159451   7.897   1.276   0.583
19858TIP3    H259452   8.013   1.183   0.608
19859TIP3   OH259453   7.311   0.780   0.109
19859TIP3    H159454   7.288   0.782   0.202
19859TIP3    H259455   7.228   0.771   0.064
19860TIP3   OH259456   8.033   1.472   1.067
19860TIP3    H159457   8.065   1.412   0.999
19860TIP3    H259458   7.982   1.416   1.126
19861TIP3   OH259459   7.722   0.986   0.758
19861TIP3    H159460   7.642   0.988   0.811
19861TIP3    H259461   7.792   0.971   0.822
19862TIP3   OH259462   7.350   1.050   0.479
19862TIP3    H159463   7.446   1.059   0.474
19862TIP3    H259464   7.319   1.076   0.393
19863TIP3   OH259465   8.186   1.041   0.982
19863TIP3    H159466   8.159   1.069   1.069
19863TIP3    H259467   8.121   0.976   0.957
19864TIP3   OH259468   7.243   1.106   0.233
19864TIP3    H159469   7.185   1.047   0.185
19864TIP3    H259470   7.305   1.138   0.168
19865TIP3   OH259471   8.407   2.792   1.296
19865TIP3    H159472   8.352   2.849   1.241
19865TIP3    H259473   8.435   2.849   1.368
19866TIP3   OH259474   7.748   1.319   0.858
19866TIP3    H159475   7.809   1.269   0.803
19866TIP3    H259476   7.732   1.263   0.934
19867TIP3   OH259477   7.331   0.787   0.755
19867TIP3    H159478   7.257   0.743   0.713
19867TIP3    H259479   7.407   0.735   0.728
19868TIP3   OH259480   7.679   1.219   1.115
19868TIP3    H159481   7.595   1.252   1.146
19868TIP3    H259482   7.744   1.258   1.173
19869TIP3   OH259483   7.441   1.604   0.245
19869TIP3    H159484   7.374   1.535   0.240
19869TIP3    H259485   7.425   1.647   0.329
19870TIP3   OH259486   8.355   1.839   0.810
19870TIP3    H159487   8.374   1.905   0.743
19870TIP3    H259488   8.275   1.796   0.779
19871TIP3   OH259489   7.908   0.918   0.154
19871TIP3    H159490   7.814   0.904   0.149
19871TIP3    H259491   7.918   1.013   0.164
19872TIP3   OH259492   7.826   1.857   1.340
19872TIP3    H159493   7.870   1.825   1.419
19872TIP3    H259494   7.868   1.941   1.322
19873TIP3   OH259495   7.982   1.180   0.216
19873TIP3    H159496   8.077   1.175   0.225
19873TIP3    H259497   7.966   1.257   0.161
19874TIP3   OH259498   7.611   1.747   0.090
19874TIP3    H159499   7.566   1.831   0.085
19874TIP3    H259500   7.551   1.691   0.139
19875TIP3   OH259501   7.900   2.313   1.021
19875TIP3    H159502   7.861   2.225   1.020
19875TIP3    H259503   7.951   2.315   1.102
19876TIP3   OH259504   8.668   2.038   1.138
19876TIP3    H159505   8.576   2.034   1.114
19876TIP3    H259506   8.715   2.024   1.055
19877TIP3   OH259507   1.594   6.701   7.962
19877TIP3    H159508   1.568   6.629   8.020
19877TIP3    H259509   1.616   6.658   7.879
19878TIP3   OH259510   8.101   1.693   0.738
19878TIP3    H159511   8.014   1.658   0.757
19878TIP3    H259512   8.150   1.617   0.706
19879TIP3   OH259513   7.446   1.715   0.498
19879TIP3    H159514   7.531   1.748   0.469
19879TIP3    H259515   7.467   1.660   0.574
19880TIP3   OH259516   7.996   1.868   0.947
19880TIP3    H159517   7.959   1.798   1.000
19880TIP3    H259518   8.043   1.823   0.877
19881TIP3   OH259519   1.372   6.436   7.863
19881TIP3    H159520   1.417   6.405   7.942
19881TIP3    H259521   1.290   6.386   7.862
19882TIP3   OH259522   8.191   2.385   0.977
19882TIP3    H159523   8.174   2.422   1.063
19882TIP3    H259524   8.216   2.460   0.923
19883TIP3   OH259525   1.698   6.902   7.650
19883TIP3    H159526   1.753   6.974   7.617
19883TIP3    H259527   1.615   6.944   7.674
19884TIP3   OH259528   8.064   1.735   0.073
19884TIP3    H159529   8.053   1.663   0.136
19884TIP3    H259530   8.159   1.741   0.060
19885TIP3   OH259531   0.787   6.370   7.911
19885TIP3    H159532   0.772   6.295   7.853
19885TIP3    H259533   0.794   6.331   7.999
19886TIP3   OH259534   8.090   1.119   1.234
19886TIP3    H159535   8.160   1.142   1.294
19886TIP3    H259536   8.047   1.044   1.275
19887TIP3   OH259537   7.975   0.861   0.416
19887TIP3    H159538   7.954   0.880   0.325
19887TIP3    H259539   8.021   0.940   0.447
19888TIP3   OH259540   7.453   1.968   0.088
19888TIP3    H159541   7.366   1.948   0.052
19888TIP3    H259542   7.476   2.052   0.049
19889TIP3   OH259543   7.627   1.065   0.511
19889TIP3    H159544   7.687   1.131   0.476
19889TIP3    H259545   7.660   1.047   0.599
19890TIP3   OH259546   7.894   1.320   1.250
19890TIP3    H159547   7.924   1.389   1.310
19890TIP3    H259548   7.962   1.253   1.255
19891TIP3   OH259549   7.793   0.767   0.596
19891TIP3    H159550   7.777   0.845   0.649
19891TIP3    H259551   7.862   0.793   0.535
19892TIP3   OH259552   7.304   0.780   0.389
19892TIP3    H159553   7.290   0.863   0.433
19892TIP3    H259554   7.399   0.766   0.392
19893TIP3   OH259555   8.532   1.230   1.274
19893TIP3    H159556   8.452   1.209   1.322
19893TIP3    H259557   8.526   1.179   1.193
19894TIP3   OH259558   8.206   1.445   0.656
19894TIP3    H159559   8.132   1.388   0.677
19894TIP3    H259560   8.279   1.410   0.708
19895TIP3   OH259561   8.180   2.452   0.564
19895TIP3    H159562   8.089   2.450   0.533
19895TIP3    H259563   8.230   2.480   0.487
19896TIP3   OH259564   0.866   6.599   7.778
19896TIP3    H159565   0.835   6.521   7.823
19896TIP3    H259566   0.944   6.570   7.731
19897TIP3   OH259567   8.157   2.265   1.440
19897TIP3    H159568   8.128   2.291   1.528
19897TIP3    H259569   8.110   2.323   1.381
19898TIP3   OH259570   1.314   6.642   7.690
19898TIP3    H159571   1.350   6.579   7.752
19898TIP3    H259572   1.371   6.636   7.613
19899TIP3   OH259573   7.640   1.728   1.573
19899TIP3    H159574   7.612   1.809   1.530
19899TIP3    H259575   7.729   1.746   1.602
19900TIP3   OH259576   1.125   6.310   7.825
19900TIP3    H159577   1.100   6.320   7.917
19900TIP3    H259578   1.104   6.219   7.804
19901TIP3   OH259579   8.183   1.883   1.201
19901TIP3    H159580   8.241   1.941   1.152
19901TIP3    H259581   8.096   1.921   1.191
19902TIP3   OH259582   7.271   1.394   0.227
19902TIP3    H159583   7.226   1.323   0.272
19902TIP3    H259584   7.319   1.350   0.157
19903TIP3   OH259585   7.615   1.439   1.383
19903TIP3    H159586   7.535   1.480   1.416
19903TIP3    H259587   7.629   1.478   1.297
19904TIP3   OH259588   7.403   1.230   0.048
19904TIP3    H159589   7.372   1.235  -0.043
19904TIP3    H259590   7.499   1.232   0.040
19905TIP3   OH259591   8.166   1.983   1.537
19905TIP3    H159592   8.241   1.982   1.477
19905TIP3    H259593   8.187   1.917   1.603
19906TIP3   OH259594   1.624   6.160   7.719
19906TIP3    H159595   1.617   6.108   7.639
19906TIP3    H259596   1.601   6.249   7.692
19907TIP3   OH259597   7.659   1.008   1.303
19907TIP3    H159598   7.670   1.062   1.225
19907TIP3    H259599   7.609   1.062   1.364
19908TIP3   OH259600   7.663   1.539   1.124
19908TIP3    H159601   7.705   1.465   1.080
19908TIP3    H259602   7.730   1.607   1.124
19909TIP3   OH259603   8.222   1.699   1.397
19909TIP3    H159604   8.212   1.770   1.334
19909TIP3    H259605   8.307   1.713   1.437
19910TIP3   OH259606   8.434   2.518   0.465
19910TIP3    H159607   8.440   2.432   0.507
19910TIP3    H259608   8.522   2.535   0.432
19911TIP3   OH259609   8.439   2.466   0.837
19911TIP3    H159610   8.416   2.431   0.751
19911TIP3    H259611   8.505   2.406   0.872
19912TIP3   OH259612   8.631   2.167   1.444
19912TIP3    H159613   8.541   2.177   1.474
19912TIP3    H259614   8.668   2.255   1.447
19913TIP3   OH259615   8.336   1.748   0.068
19913TIP3    H159616   8.401   1.809   0.034
19913TIP3    H259617   8.382   1.697   0.135
19914TIP3   OH259618   8.461   1.588   0.253
19914TIP3    H159619   8.399   1.537   0.304
19914TIP3    H259620   8.531   1.610   0.315
19915TIP3   OH259621   8.543   2.018   0.656
19915TIP3    H159622   8.581   1.933   0.636
19915TIP3    H259623   8.577   2.076   0.588
19916TIP3   OH259624   8.346   2.185   0.876
19916TIP3    H159625   8.297   2.262   0.906
19916TIP3    H259626   8.373   2.206   0.787
19917TIP3   OH259627   1.854   6.182   7.869
19917TIP3    H159628   1.773   6.161   7.823
19917TIP3    H259629   1.826   6.236   7.942
19918TIP3   OH259630   8.269   1.431   0.383
19918TIP3    H159631   8.280   1.339   0.361
19918TIP3    H259632   8.255   1.432   0.478
19919TIP3   OH259633   8.556   1.798   1.229
19919TIP3    H159634   8.622   1.739   1.264
19919TIP3    H259635   8.606   1.865   1.182
19920TIP3   OH259636   8.741   1.655   1.366
19920TIP3    H159637   8.667   1.594   1.365
19920TIP3    H259638   8.815   1.603   1.337
19921TIP3   OH259639   1.741   5.532   7.873
19921TIP3    H159640   1.800   5.599   7.906
19921TIP3    H259641   1.656   5.552   7.912
19922TIP3   OH259642   8.265   1.157   0.276
19922TIP3    H159643   8.309   1.077   0.305
19922TIP3    H259644   8.304   1.176   0.190
19923TIP3   OH259645   8.422   1.334   0.793
19923TIP3    H159646   8.503   1.354   0.745
19923TIP3    H259647   8.437   1.368   0.881
19924TIP3   OH259648   8.508   1.477   1.016
19924TIP3    H159649   8.435   1.517   1.062
19924TIP3    H259650   8.546   1.547   0.965
19925TIP3   OH259651   8.903   1.058   1.565
19925TIP3    H159652   8.985   1.020   1.533
19925TIP3    H259653   8.888   1.135   1.510
19926TIP3   OH259654   8.372   0.918   0.363
19926TIP3    H159655   8.424   0.900   0.442
19926TIP3    H259656   8.315   0.842   0.354
19927TIP3   OH259657   8.799   1.210   1.349
19927TIP3    H159658   8.706   1.234   1.343
19927TIP3    H259659   8.803   1.121   1.314
19928TIP3   OH259660   8.025   2.326   0.193
19928TIP3    H159661   8.072   2.312   0.111
19928TIP3    H259662   8.076   2.394   0.238
19929TIP3   OH259663   7.802   2.461   1.286
19929TIP3    H159664   7.747   2.460   1.364
19929TIP3    H259665   7.838   2.549   1.283
19930TIP3   OH259666   7.907   2.714   1.256
19930TIP3    H159667   7.981   2.687   1.201
19930TIP3    H259668   7.948   2.751   1.334
19931TIP3   OH259669   8.709   0.960   1.253
19931TIP3    H159670   8.624   0.953   1.210
19931TIP3    H259671   8.747   0.873   1.245
19932TIP3   OH259672   7.471   2.338   0.898
19932TIP3    H159673   7.409   2.398   0.856
19932TIP3    H259674   7.539   2.395   0.933
19933TIP3   OH259675   7.803   2.429   0.761
19933TIP3    H159676   7.778   2.438   0.853
19933TIP3    H259677   7.861   2.504   0.745
19934TIP3   OH259678   8.174   2.595   0.793
19934TIP3    H159679   8.083   2.625   0.785
19934TIP3    H259680   8.185   2.533   0.721
19935TIP3   OH259681   7.938   0.885   0.902
19935TIP3    H159682   7.891   0.810   0.937
19935TIP3    H259683   8.001   0.848   0.841
19936TIP3   OH259684   8.411   0.821   0.817
19936TIP3    H159685   8.458   0.857   0.742
19936TIP3    H259686   8.319   0.825   0.792
19937TIP3   OH259687   8.543   0.862   0.577
19937TIP3    H159688   8.610   0.804   0.542
19937TIP3    H259689   8.576   0.951   0.560
19938TIP3   OH259690   7.614   0.649   0.775
19938TIP3    H159691   7.673   0.681   0.707
19938TIP3    H259692   7.661   0.663   0.857
19939TIP3   OH259693   8.140   0.776   0.750
19939TIP3    H159694   8.164   0.739   0.664
19939TIP3    H259695   8.134   0.699   0.807
19940TIP3   OH259696   8.194   0.708   0.340
19940TIP3    H159697   8.113   0.753   0.360
19940TIP3    H259698   8.182   0.619   0.375
19941TIP3   OH259699   7.165   0.529   0.362
19941TIP3    H159700   7.182   0.507   0.270
19941TIP3    H259701   7.210   0.612   0.376
19942TIP3   OH259702   7.578   0.813   0.415
19942TIP3    H159703   7.641   0.761   0.466
19942TIP3    H259704   7.593   0.903   0.445
19943TIP3   OH259705   0.920   6.827   7.927
19943TIP3    H159706   1.000   6.852   7.881
19943TIP3    H259707   0.879   6.763   7.870
19944TIP3   OH259708   1.644   6.967   7.962
19944TIP3    H159709   1.635   6.872   7.955
19944TIP3    H259710   1.599   7.001   7.885
19945TIP3   OH259711   8.390   2.518   1.147
19945TIP3    H159712   8.440   2.441   1.121
19945TIP3    H259713   8.404   2.525   1.241
19946TIP3   OH259714   3.120   6.502   7.936
19946TIP3    H159715   3.088   6.589   7.909
19946TIP3    H259716   3.050   6.442   7.910
19947TIP3   OH259717   9.647   1.873   0.367
19947TIP3    H159718   9.702   1.855   0.443
19947TIP3    H259719   9.604   1.790   0.348
19948TIP3   OH259720   8.948   1.735   0.720
19948TIP3    H159721   8.987   1.680   0.787
19948TIP3    H259722   9.020   1.757   0.661
19949TIP3   OH259723   0.118   2.182   0.039
19949TIP3    H159724   0.108   2.114   0.105
19949TIP3    H259725   0.140   2.261   0.089
19950TIP3   OH259726   8.934   2.155   0.403
19950TIP3    H159727   8.926   2.059   0.400
19950TIP3    H259728   9.028   2.171   0.399
19951TIP3   OH259729   8.618   1.339   0.167
19951TIP3    H159730   8.563   1.417   0.168
19951TIP3    H259731   8.569   1.275   0.116
19952TIP3   OH259732   8.690   1.658   0.404
19952TIP3    H159733   8.740   1.580   0.429
19952TIP3    H259734   8.751   1.709   0.351
19953TIP3   OH259735   9.582   2.607   0.057
19953TIP3    H159736   9.605   2.543  -0.010
19953TIP3    H259737   9.592   2.559   0.140
19954TIP3   OH259738   9.456   2.095   0.370
19954TIP3    H159739   9.501   2.015   0.343
19954TIP3    H259740   9.525   2.153   0.401
19955TIP3   OH259741   0.688   1.414   0.385
19955TIP3    H159742   0.707   1.498   0.427
19955TIP3    H259743   0.714   1.427   0.294
19956TIP3   OH259744   0.064   1.584   0.405
19956TIP3    H159745   0.097   1.498   0.433
19956TIP3    H259746   0.026   1.568   0.318
19957TIP3   OH259747   9.221   1.239   0.359
19957TIP3    H159748   9.198   1.312   0.301
19957TIP3    H259749   9.168   1.166   0.327
19958TIP3   OH259750   0.121   1.346   0.006
19958TIP3    H159751   0.184   1.337   0.078
19958TIP3    H259752   0.174   1.377  -0.068
19959TIP3   OH259753   8.843   1.445   0.488
19959TIP3    H159754   8.928   1.427   0.528
19959TIP3    H259755   8.844   1.396   0.406
19960TIP3   OH259756   9.258   1.653   0.313
19960TIP3    H159757   9.353   1.638   0.317
19960TIP3    H259758   9.223   1.571   0.278
19961TIP3   OH259759   0.748   1.635   0.548
19961TIP3    H159760   0.658   1.668   0.547
19961TIP3    H259761   0.785   1.669   0.629
19962TIP3   OH259762   9.207   1.242   0.808
19962TIP3    H159763   9.153   1.275   0.736
19962TIP3    H259764   9.153   1.254   0.886
19963TIP3   OH259765   3.017   6.722   7.800
19963TIP3    H159766   2.978   6.689   7.719
19963TIP3    H259767   2.961   6.795   7.825
19964TIP3   OH259768   9.297   2.012   0.581
19964TIP3    H159769   9.247   2.085   0.617
19964TIP3    H259770   9.347   2.051   0.508
19965TIP3   OH259771   0.279   1.363   0.227
19965TIP3    H159772   0.235   1.342   0.310
19965TIP3    H259773   0.333   1.439   0.248
19966TIP3   OH259774   9.090   1.347   0.579
19966TIP3    H159775   9.146   1.421   0.602
19966TIP3    H259776   9.136   1.303   0.508
19967TIP3   OH259777   9.149   2.219   0.686
19967TIP3    H159778   9.135   2.308   0.656
19967TIP3    H259779   9.073   2.200   0.741
19968TIP3   OH259780   1.984   6.538   7.943
19968TIP3    H159781   1.953   6.552   7.854
19968TIP3    H259782   2.016   6.624   7.971
19969TIP3   OH259783   0.150   2.430   0.179
19969TIP3    H159784   0.062   2.422   0.216
19969TIP3    H259785   0.150   2.514   0.134
19970TIP3   OH259786   0.491   1.305   0.555
19970TIP3    H159787   0.406   1.328   0.516
19970TIP3    H259788   0.555   1.332   0.489
19971TIP3   OH259789   9.545   0.937   0.546
19971TIP3    H159790   9.536   0.845   0.568
19971TIP3    H259791   9.467   0.979   0.581
19972TIP3   OH259792   3.127   7.081   7.835
19972TIP3    H159793   3.180   7.002   7.826
19972TIP3    H259794   3.185   7.152   7.806
19973TIP3   OH259795   3.266   6.852   7.796
19973TIP3    H159796   3.194   6.789   7.793
19973TIP3    H259797   3.317   6.827   7.873
19974TIP3   OH259798   0.388   2.318   0.518
19974TIP3    H159799   0.371   2.242   0.463
19974TIP3    H259800   0.374   2.394   0.461
19975TIP3   OH259801   2.946   6.337   7.793
19975TIP3    H159802   2.863   6.380   7.772
19975TIP3    H259803   2.990   6.327   7.709
19976TIP3   OH259804   2.929   6.107   7.461
19976TIP3    H159805   2.982   6.171   7.510
19976TIP3    H259806   2.974   6.023   7.476
19977TIP3   OH259807   0.572   1.977   0.391
19977TIP3    H159808   0.487   2.021   0.389
19977TIP3    H259809   0.607   1.989   0.303
19978TIP3   OH259810   3.303   6.422   7.748
19978TIP3    H159811   3.249   6.453   7.821
19978TIP3    H259812   3.386   6.398   7.789
19979TIP3   OH259813   0.268   1.837   0.701
19979TIP3    H159814   0.266   1.921   0.747
19979TIP3    H259815   0.186   1.835   0.651
19980TIP3   OH259816   9.063   1.785   0.157
19980TIP3    H159817   9.026   1.724   0.093
19980TIP3    H259818   9.135   1.737   0.198
19981TIP3   OH259819   9.197   2.210   0.305
19981TIP3    H159820   9.173   2.195   0.213
19981TIP3    H259821   9.283   2.172   0.314
19982TIP3   OH259822   9.158   1.781   0.536
19982TIP3    H159823   9.196   1.743   0.457
19982TIP3    H259824   9.209   1.860   0.552
19983TIP3   OH259825   9.708   2.423   0.305
19983TIP3    H159826   9.702   2.503   0.358
19983TIP3    H259827   9.696   2.352   0.368
19984TIP3   OH259828   9.351   2.316   0.851
19984TIP3    H159829   9.296   2.381   0.895
19984TIP3    H259830   9.290   2.266   0.798
19985TIP3   OH259831   3.131   6.276   7.587
19985TIP3    H159832   3.190   6.333   7.638
19985TIP3    H259833   3.158   6.288   7.496
19986TIP3   OH259834   9.111   1.879   0.979
19986TIP3    H159835   9.112   1.971   1.004
19986TIP3    H259836   9.019   1.857   0.969
19987TIP3   OH259837   2.879   6.961   7.840
19987TIP3    H159838   2.961   7.008   7.849
19987TIP3    H259839   2.822   7.020   7.791
19988TIP3   OH259840   9.164   2.501   0.932
19988TIP3    H159841   9.123   2.501   0.846
19988TIP3    H259842   9.096   2.470   0.992
19989TIP3   OH259843   3.647   5.521   7.639
19989TIP3    H159844   3.566   5.537   7.688
19989TIP3    H259845   3.658   5.598   7.584
19990TIP3   OH259846   2.409   6.245   7.961
19990TIP3    H159847   2.330   6.290   7.930
19990TIP3    H259848   2.384   6.152   7.964
19991TIP3   OH259849   3.475   6.891   7.204
19991TIP3    H159850   3.466   6.983   7.181
19991TIP3    H259851   3.563   6.867   7.175
19992TIP3   OH259852   8.738   2.014   0.869
19992TIP3    H159853   8.678   1.989   0.799
19992TIP3    H259854   8.780   1.931   0.895
19993TIP3   OH259855   8.671   2.205   0.494
19993TIP3    H159856   8.752   2.172   0.453
19993TIP3    H259857   8.700   2.280   0.546
19994TIP3   OH259858   0.622   2.674   0.591
19994TIP3    H159859   0.627   2.579   0.606
19994TIP3    H259860   0.544   2.701   0.639
19995TIP3   OH259861   9.533   2.460   0.708
19995TIP3    H159862   9.527   2.550   0.741
19995TIP3    H259863   9.468   2.412   0.759
19996TIP3   OH259864   2.772   7.178   7.672
19996TIP3    H159865   2.726   7.160   7.590
19996TIP3    H259866   2.737   7.263   7.700
19997TIP3   OH259867   8.752   2.412   0.040
19997TIP3    H159868   8.801   2.403   0.122
19997TIP3    H259869   8.706   2.329   0.030
19998TIP3   OH259870   2.972   7.112   7.298
19998TIP3    H159871   3.022   7.039   7.263
19998TIP3    H259872   3.007   7.126   7.386
19999TIP3   OH259873   3.026   7.156   7.567
19999TIP3    H159874   2.940   7.159   7.610
19999TIP3    H259875   3.084   7.118   7.633
20000TIP3   OH259876   0.514   1.790   0.858
20000TIP3    H159877   0.430   1.799   0.813
20000TIP3    H259878   0.532   1.696   0.856
20001TIP3   OH259879   8.936   2.214   0.857
20001TIP3    H159880   8.987   2.201   0.937
20001TIP3    H259881   8.869   2.146   0.860
20002TIP3   OH259882   9.304   1.025   0.664
20002TIP3    H159883   9.219   0.992   0.633
20002TIP3    H259884   9.283   1.105   0.711
20003TIP3   OH259885   0.050   1.150   0.868
20003TIP3    H159886   0.120   1.128   0.929
20003TIP3    H259887  -0.031   1.134   0.917
20004TIP3   OH259888   0.266   1.571   0.786
20004TIP3    H159889   0.227   1.566   0.874
20004TIP3    H259890   0.253   1.662   0.759
20005TIP3   OH259891   3.211   6.306   7.331
20005TIP3    H159892   3.169   6.288   7.247
20005TIP3    H259893   3.294   6.347   7.307
20006TIP3   OH259894   9.241   1.557   0.677
20006TIP3    H159895   9.198   1.563   0.762
20006TIP3    H259896   9.219   1.639   0.632
20007TIP3   OH259897   9.117   1.440   0.203
20007TIP3    H159898   9.028   1.412   0.225
20007TIP3    H259899   9.130   1.410   0.113
20008TIP3   OH259900   3.070   6.132   7.932
20008TIP3    H159901   3.023   6.204   7.890
20008TIP3    H259902   3.128   6.098   7.863
20009TIP3   OH259903  -0.005   1.784   0.998
20009TIP3    H159904  -0.033   1.716   1.060
20009TIP3    H259905   0.088   1.799   1.020
20010TIP3   OH259906   9.771   1.530   0.153
20010TIP3    H159907   9.702   1.548   0.089
20010TIP3    H259908   9.820   1.457   0.115
20011TIP3   OH259909   9.082   1.568   0.903
20011TIP3    H159910   9.136   1.616   0.967
20011TIP3    H259911   9.065   1.484   0.945
20012TIP3   OH259912   2.615   5.702   7.612
20012TIP3    H159913   2.605   5.679   7.705
20012TIP3    H259914   2.528   5.735   7.587
20013TIP3   OH259915   8.660   1.093   0.496
20013TIP3    H159916   8.734   1.130   0.544
20013TIP3    H259917   8.677   1.115   0.404
20014TIP3   OH259918   0.014   1.785   0.579
20014TIP3    H159919   0.039   1.718   0.515
20014TIP3    H259920  -0.029   1.735   0.649
20015TIP3   OH259921   9.490   1.227   0.248
20015TIP3    H159922   9.411   1.226   0.303
20015TIP3    H259923   9.562   1.218   0.311
20016TIP3   OH259924   8.877   1.309   0.255
20016TIP3    H159925   8.791   1.310   0.213
20016TIP3    H259926   8.911   1.221   0.237
20017TIP3   OH259927   2.602   5.945   7.957
20017TIP3    H159928   2.696   5.941   7.944
20017TIP3    H259929   2.566   5.961   7.870
20018TIP3   OH259930   0.131   1.320   0.462
20018TIP3    H159931   0.112   1.337   0.554
20018TIP3    H259932   0.064   1.258   0.434
20019TIP3   OH259933   2.482   5.978   7.713
20019TIP3    H159934   2.420   5.922   7.666
20019TIP3    H259935   2.540   6.011   7.645
20020TIP3   OH259936   0.339   3.022   0.684
20020TIP3    H159937   0.338   3.039   0.590
20020TIP3    H259938   0.417   3.069   0.715
20021TIP3   OH259939   9.088   2.134   1.080
20021TIP3    H159940   9.169   2.158   1.123
20021TIP3    H259941   9.022   2.134   1.150
20022TIP3   OH259942   9.534   1.604   0.359
20022TIP3    H159943   9.598   1.554   0.309
20022TIP3    H259944   9.533   1.562   0.445
20023TIP3   OH259945   9.030   1.067   0.241
20023TIP3    H159946   9.000   0.991   0.292
20023TIP3    H259947   9.052   1.031   0.155
20024TIP3   OH259948   9.510   1.505   0.623
20024TIP3    H159949   9.422   1.535   0.647
20024TIP3    H259950   9.569   1.558   0.677
20025TIP3   OH259951   2.708   6.473   7.736
20025TIP3    H159952   2.634   6.416   7.713
20025TIP3    H259953   2.683   6.512   7.819
20026TIP3   OH259954   0.334   2.112   0.343
20026TIP3    H159955   0.371   2.160   0.269
20026TIP3    H259956   0.255   2.070   0.308
20027TIP3   OH259957   3.094   5.897   7.520
20027TIP3    H159958   3.071   5.807   7.544
20027TIP3    H259959   3.150   5.926   7.592
20028TIP3   OH259960   9.659   2.191   0.757
20028TIP3    H159961   9.712   2.178   0.835
20028TIP3    H259962   9.621   2.279   0.768
20029TIP3   OH259963   3.239   6.046   7.720
20029TIP3    H159964   3.334   6.051   7.733
20029TIP3    H259965   3.218   6.122   7.666
20030TIP3   OH259966   8.940   1.880   0.385
20030TIP3    H159967   8.974   1.855   0.300
20030TIP3    H259968   9.002   1.843   0.448
20031TIP3   OH259969   2.862   6.634   7.581
20031TIP3    H159970   2.814   6.717   7.578
20031TIP3    H259971   2.807   6.576   7.633
20032TIP3   OH259972   8.842   1.811   1.028
20032TIP3    H159973   8.881   1.794   1.114
20032TIP3    H259974   8.786   1.735   1.013
20033TIP3   OH259975   9.564   1.937   1.035
20033TIP3    H159976   9.498   1.879   0.997
20033TIP3    H259977   9.647   1.898   1.009
20034TIP3   OH259978   9.802   2.488   0.638
20034TIP3    H159979   9.707   2.471   0.641
20034TIP3    H259980   9.823   2.522   0.725
20035TIP3   OH259981   3.659   6.150   7.543
20035TIP3    H159982   3.606   6.102   7.479
20035TIP3    H259983   3.661   6.240   7.508
20036TIP3   OH259984   0.633   2.391   0.613
20036TIP3    H159985   0.539   2.379   0.605
20036TIP3    H259986   0.668   2.365   0.528
20037TIP3   OH259987   3.390   6.961   7.470
20037TIP3    H159988   3.362   6.892   7.530
20037TIP3    H259989   3.410   6.915   7.388
20038TIP3   OH259990   0.105   1.978   0.238
20038TIP3    H159991   0.015   1.956   0.263
20038TIP3    H259992   0.140   1.897   0.202
20039TIP3   OH259993   9.064   2.212   0.054
20039TIP3    H159994   9.067   2.289  -0.003
20039TIP3    H259995   8.970   2.193   0.065
20040TIP3   OH259996   2.091   6.122   7.758
20040TIP3    H159997   2.141   6.200   7.785
20040TIP3    H259998   2.007   6.131   7.803
20041TIP3   OH259999   2.614   6.585   7.962
20041TIP3    H160000   2.601   6.674   7.995
20041TIP3    H260001   2.587   6.528   8.035
20042TIP3   OH260002   9.347   2.533   0.509
20042TIP3    H160003   9.382   2.607   0.459
20042TIP3    H260004   9.422   2.500   0.558
20043TIP3   OH260005   2.452   7.057   7.900
20043TIP3    H160006   2.365   7.060   7.940
20043TIP3    H260007   2.484   7.147   7.905
20044TIP3   OH260008   9.691   2.202   0.481
20044TIP3    H160009   9.679   2.197   0.576
20044TIP3    H260010   9.767   2.148   0.463
20045TIP3   OH260011   3.151   6.696   7.353
20045TIP3    H160012   3.204   6.668   7.428
20045TIP3    H260013   3.069   6.648   7.362
20046TIP3   OH260014   0.152   2.696   0.524
20046TIP3    H160015   0.085   2.630   0.544
20046TIP3    H260016   0.114   2.747   0.452
20047TIP3   OH260017   3.462   7.163   7.153
20047TIP3    H160018   3.466   7.218   7.075
20047TIP3    H260019   3.395   7.204   7.208
20048TIP3   OH260020   9.040   1.313   1.019
20048TIP3    H160021   8.945   1.314   1.022
20048TIP3    H260022   9.066   1.257   1.092
20049TIP3   OH260023   3.331   6.612   7.543
20049TIP3    H160024   3.313   6.553   7.616
20049TIP3    H260025   3.426   6.618   7.540
20050TIP3   OH260026   8.789   2.413   0.639
20050TIP3    H160027   8.855   2.364   0.688
20050TIP3    H260028   8.761   2.482   0.699
20051TIP3   OH260029   2.502   6.661   7.367
20051TIP3    H160030   2.514   6.570   7.340
20051TIP3    H260031   2.489   6.656   7.462
20052TIP3   OH260032   2.447   6.680   7.640
20052TIP3    H160033   2.513   6.652   7.703
20052TIP3    H260034   2.449   6.775   7.644
20053TIP3   OH260035   2.189   6.369   7.851
20053TIP3    H160036   2.118   6.410   7.901
20053TIP3    H260037   2.204   6.430   7.778
20054TIP3   OH260038   0.072   1.383   0.722
20054TIP3    H160039   0.151   1.428   0.753
20054TIP3    H260040   0.066   1.305   0.778
20055TIP3   OH260041   3.234   5.753   7.917
20055TIP3    H160042   3.187   5.783   7.839
20055TIP3    H260043   3.280   5.830   7.949
20056TIP3   OH260044   2.718   6.863   7.574
20056TIP3    H160045   2.633   6.888   7.610
20056TIP3    H260046   2.743   6.937   7.519
20057TIP3   OH260047   9.419   1.315  -0.006
20057TIP3    H160048   9.480   1.384  -0.030
20057TIP3    H260049   9.442   1.293   0.085
20058TIP3   OH260050   9.715   1.618   0.776
20058TIP3    H160051   9.744   1.660   0.857
20058TIP3    H260052   9.765   1.536   0.773
20059TIP3   OH260053   9.590   1.012   0.092
20059TIP3    H160054   9.559   1.090   0.137
20059TIP3    H260055   9.657   1.045   0.031
20060TIP3   OH260056   2.469   6.954   7.648
20060TIP3    H160057   2.447   7.026   7.589
20060TIP3    H260058   2.462   6.991   7.736
20061TIP3   OH260059   2.543   5.665   7.888
20061TIP3    H160060   2.527   5.756   7.914
20061TIP3    H260061   2.635   5.650   7.910
20062TIP3   OH260062   0.529   1.513   0.765
20062TIP3    H160063   0.435   1.524   0.776
20062TIP3    H260064   0.537   1.450   0.693
20063TIP3   OH260065   0.195   1.720   0.151
20063TIP3    H160066   0.119   1.664   0.163
20063TIP3    H260067   0.263   1.681   0.206
20064TIP3   OH260068   2.204   6.548   7.633
20064TIP3    H160069   2.277   6.609   7.642
20064TIP3    H260070   2.234   6.482   7.570
20065TIP3   OH260071   2.063   5.837   7.740
20065TIP3    H160072   2.088   5.927   7.763
20065TIP3    H260073   2.016   5.805   7.817
20066TIP3   OH260074   0.178   2.696   0.096
20066TIP3    H160075   0.138   2.749   0.026
20066TIP3    H260076   0.272   2.706   0.082
20067TIP3   OH260077   9.038   0.944   0.629
20067TIP3    H160078   9.011   0.914   0.543
20067TIP3    H260079   9.024   0.869   0.687
20068TIP3   OH260080   8.590   2.182   0.016
20068TIP3    H160081   8.547   2.217   0.094
20068TIP3    H260082   8.545   2.223  -0.058
20069TIP3   OH260083   8.838   2.700   1.074
20069TIP3    H160084   8.891   2.702   1.153
20069TIP3    H260085   8.823   2.607   1.057
20070TIP3   OH260086   9.233   2.677   1.139
20070TIP3    H160087   9.317   2.645   1.171
20070TIP3    H260088   9.210   2.616   1.068
20071TIP3   OH260089   2.659   6.861   7.258
20071TIP3    H160090   2.611   6.792   7.303
20071TIP3    H260091   2.733   6.817   7.218
20072TIP3   OH260092   0.052   2.582   0.890
20072TIP3    H160093   0.064   2.512   0.954
20072TIP3    H260094   0.127   2.640   0.903
20073TIP3   OH260095   3.101   6.902   7.180
20073TIP3    H160096   3.132   6.837   7.243
20073TIP3    H260097   3.160   6.894   7.105
20074TIP3   OH260098   8.902   2.104   1.280
20074TIP3    H160099   8.932   2.027   1.329
20074TIP3    H260100   8.817   2.079   1.245
20075TIP3   OH260101   2.326   6.359   7.480
20075TIP3    H160102   2.375   6.329   7.556
20075TIP3    H260103   2.393   6.370   7.412
20076TIP3   OH260104   9.505   2.216   1.056
20076TIP3    H160105   9.461   2.237   0.974
20076TIP3    H260106   9.540   2.128   1.042
20077TIP3   OH260107   2.894   6.574   7.315
20077TIP3    H160108   2.873   6.586   7.407
20077TIP3    H260109   2.881   6.480   7.299
20078TIP3   OH260110   0.167   2.261   0.674
20078TIP3    H160111   0.245   2.288   0.625
20078TIP3    H260112   0.104   2.331   0.657
20079TIP3   OH260113   9.009   1.818   1.265
20079TIP3    H160114   9.088   1.816   1.210
20079TIP3    H260115   9.037   1.859   1.346
20080TIP3   OH260116   2.501   6.295   7.691
20080TIP3    H160117   2.478   6.263   7.778
20080TIP3    H260118   2.547   6.223   7.650
20081TIP3   OH260119   9.340   1.738   0.932
20081TIP3    H160120   9.264   1.795   0.945
20081TIP3    H260121   9.382   1.772   0.853
20082TIP3   OH260122   2.644   6.113   7.533
20082TIP3    H160123   2.610   6.117   7.444
20082TIP3    H260124   2.739   6.105   7.522
20083TIP3   OH260125   0.045   2.134   1.022
20083TIP3    H160126   0.119   2.100   0.971
20083TIP3    H260127   0.044   2.080   1.102
20084TIP3   OH260128   3.441   6.408   7.209
20084TIP3    H160129   3.421   6.366   7.125
20084TIP3    H260130   3.416   6.499   7.197
20085TIP3   OH260131   9.454   1.522   1.051
20085TIP3    H160132   9.460   1.449   0.989
20085TIP3    H260133   9.418   1.594   1.000
20086TIP3   OH260134   9.465   1.327   0.846
20086TIP3    H160135   9.493   1.366   0.763
20086TIP3    H260136   9.374   1.300   0.831
20087TIP3   OH260137   9.471   1.856   0.727
20087TIP3    H160138   9.560   1.887   0.710
20087TIP3    H260139   9.414   1.914   0.676
20088TIP3   OH260140   0.260   1.816   1.103
20088TIP3    H160141   0.305   1.732   1.115
20088TIP3    H260142   0.331   1.880   1.094
20089TIP3   OH260143   0.291   2.083   0.837
20089TIP3    H160144   0.237   2.145   0.787
20089TIP3    H260145   0.380   2.097   0.806
20090TIP3   OH260146   9.335   1.626   1.285
20090TIP3    H160147   9.266   1.562   1.306
20090TIP3    H260148   9.372   1.596   1.202
20091TIP3   OH260149   9.584   1.096   0.945
20091TIP3    H160150   9.544   1.177   0.912
20091TIP3    H260151   9.517   1.029   0.930
20092TIP3   OH260152   9.707   1.576   1.152
20092TIP3    H160153   9.696   1.566   1.246
20092TIP3    H260154   9.623   1.551   1.115
20093TIP3   OH260155   0.151   1.522   1.024
20093TIP3    H160156   0.074   1.524   1.081
20093TIP3    H260157   0.223   1.499   1.083
20094TIP3   OH260158   0.390   1.487   1.166
20094TIP3    H160159   0.404   1.393   1.178
20094TIP3    H260160   0.384   1.521   1.256
20095TIP3   OH260161   9.169   1.409   1.336
20095TIP3    H160162   9.173   1.320   1.300
20095TIP3    H260163   9.213   1.402   1.421
20096TIP3   OH260164   9.654   1.075   1.207
20096TIP3    H160165   9.725   1.010   1.201
20096TIP3    H260166   9.623   1.085   1.117
20097TIP3   OH260167   9.743   1.301   1.340
20097TIP3    H160168   9.712   1.229   1.286
20097TIP3    H260169   9.670   1.363   1.342
20098TIP3   OH260170   2.463   7.169   7.469
20098TIP3    H160171   2.552   7.144   7.443
20098TIP3    H260172   2.427   7.213   7.392
20099TIP3   OH260173   1.932   6.534   7.656
20099TIP3    H160174   2.027   6.548   7.649
20099TIP3    H260175   1.917   6.448   7.618
20100TIP3   OH260176   8.389   2.485   0.077
20100TIP3    H160177   8.316   2.443   0.030
20100TIP3    H260178   8.420   2.418   0.138
20101TIP3   OH260179   8.527   2.313   0.256
20101TIP3    H160180   8.534   2.245   0.323
20101TIP3    H260181   8.578   2.386   0.290
20102TIP3   OH260182   0.451   2.742   0.088
20102TIP3    H160183   0.470   2.765   0.179
20102TIP3    H260184   0.503   2.804   0.037
20103TIP3   OH260185   0.473   2.771   0.368
20103TIP3    H160186   0.423   2.690   0.363
20103TIP3    H260187   0.540   2.754   0.433
20104TIP3   OH260188   0.517   2.478   0.935
20104TIP3    H160189   0.446   2.486   0.998
20104TIP3    H260190   0.564   2.561   0.941
20105TIP3   OH260191   3.611   6.612   7.547
20105TIP3    H160192   3.669   6.682   7.519
20105TIP3    H260193   3.654   6.574   7.623
20106TIP3   OH260194   3.737   6.471   7.751
20106TIP3    H160195   3.669   6.432   7.807
20106TIP3    H260196   3.801   6.506   7.813
20107TIP3   OH260197   0.513   2.251   0.180
20107TIP3    H160198   0.567   2.181   0.142
20107TIP3    H260199   0.517   2.322   0.116
20108TIP3   OH260200   0.323   2.539   0.368
20108TIP3    H160201   0.257   2.583   0.422
20108TIP3    H260202   0.273   2.497   0.298
20109TIP3   OH260203   3.643   6.385   7.395
20109TIP3    H160204   3.572   6.386   7.331
20109TIP3    H260205   3.628   6.463   7.449
20110TIP3   OH260206   3.520   6.039   7.338
20110TIP3    H160207   3.480   6.090   7.268
20110TIP3    H260208   3.504   5.948   7.313
20111TIP3   OH260209   3.531   6.330   7.884
20111TIP3    H160210   3.537   6.235   7.871
20111TIP3    H260211   3.512   6.341   7.977
20112TIP3   OH260212   8.691   1.788   0.646
20112TIP3    H160213   8.678   1.744   0.562
20112TIP3    H260214   8.784   1.776   0.665
20113TIP3   OH260215   0.550   2.128   0.745
20113TIP3    H160216   0.615   2.059   0.731
20113TIP3    H260217   0.574   2.197   0.683
20114TIP3   OH260218   0.725   1.915   0.737
20114TIP3    H160219   0.651   1.872   0.781
20114TIP3    H260220   0.800   1.859   0.756
20115TIP3   OH260221   3.487   5.764   7.289
20115TIP3    H160222   3.559   5.753   7.352
20115TIP3    H260223   3.412   5.721   7.331
20116TIP3   OH260224   3.528   6.051   7.776
20116TIP3    H160225   3.573   5.967   7.787
20116TIP3    H260226   3.572   6.092   7.701
20117TIP3   OH260227   0.410   1.600   0.293
20117TIP3    H160228   0.491   1.617   0.245
20117TIP3    H260229   0.426   1.639   0.379
20118TIP3   OH260230   0.486   1.747   0.521
20118TIP3    H160231   0.415   1.776   0.578
20118TIP3    H260232   0.518   1.827   0.480
20119TIP3   OH260233   8.905   1.454   1.283
20119TIP3    H160234   8.999   1.454   1.297
20119TIP3    H260235   8.875   1.369   1.317
20120TIP3   OH260236   0.946   1.346   1.054
20120TIP3    H160237   1.013   1.288   1.019
20120TIP3    H260238   0.913   1.394   0.979
20121TIP3   OH260239   3.642   5.801   7.821
20121TIP3    H160240   3.687   5.785   7.905
20121TIP3    H260241   3.578   5.730   7.815
20122TIP3   OH260242   8.876   1.169   0.657
20122TIP3    H160243   8.928   1.088   0.658
20122TIP3    H260244   8.939   1.237   0.633
20123TIP3   OH260245   8.664   1.430   0.704
20123TIP3    H160246   8.715   1.421   0.623
20123TIP3    H260247   8.709   1.498   0.753
20124TIP3   OH260248   0.799   1.465   0.858
20124TIP3    H160249   0.719   1.504   0.896
20124TIP3    H260250   0.767   1.392   0.806
20125TIP3   OH260251   3.700   5.722   7.453
20125TIP3    H160252   3.749   5.659   7.400
20125TIP3    H260253   3.760   5.796   7.463
20126TIP3   OH260254   8.599   0.937   0.178
20126TIP3    H160255   8.532   0.929   0.246
20126TIP3    H260256   8.564   1.001   0.116
20127TIP3   OH260257   3.269   7.284   7.728
20127TIP3    H160258   3.326   7.270   7.653
20127TIP3    H260259   3.314   7.349   7.782
20128TIP3   OH260260   8.879   1.024   1.038
20128TIP3    H160261   8.824   1.004   1.113
20128TIP3    H260262   8.818   1.057   0.972
20129TIP3   OH260263   8.982   2.434   1.121
20129TIP3    H160264   8.893   2.423   1.089
20129TIP3    H260265   8.975   2.426   1.217
20130TIP3   OH260266   9.116   2.489   0.650
20130TIP3    H160267   9.063   2.558   0.609
20130TIP3    H260268   9.203   2.500   0.613
20131TIP3   OH260269   9.528   2.723   0.791
20131TIP3    H160270   9.561   2.715   0.880
20131TIP3    H260271   9.593   2.775   0.745
20132TIP3   OH260272   9.716   2.878   0.665
20132TIP3    H160273   9.780   2.823   0.619
20132TIP3    H260274   9.769   2.935   0.721
20133TIP3   OH260275   0.710   1.215   0.755
20133TIP3    H160276   0.626   1.205   0.712
20133TIP3    H260277   0.750   1.127   0.750
20134TIP3   OH260278   8.853   2.746   0.688
20134TIP3    H160279   8.762   2.719   0.697
20134TIP3    H260280   8.873   2.794   0.769
20135TIP3   OH260281   9.044   2.715   0.503
20135TIP3    H160282   8.971   2.731   0.562
20135TIP3    H260283   9.013   2.744   0.418
20136TIP3   OH260284   9.424   2.743   0.345
20136TIP3    H160285   9.359   2.753   0.276
20136TIP3    H260286   9.435   2.830   0.382
20137TIP3   OH260287   9.688   2.684   0.394
20137TIP3    H160288   9.596   2.702   0.376
20137TIP3    H260289   9.736   2.755   0.350
20138TIP3   OH260290   0.088   2.860   0.299
20138TIP3    H160291   0.085   2.947   0.258
20138TIP3    H260292   0.118   2.802   0.229
20139TIP3   OH260293   8.697   2.510   0.396
20139TIP3    H160294   8.724   2.496   0.487
20139TIP3    H260295   8.771   2.476   0.344
20140TIP3   OH260296   8.903   2.394   0.268
20140TIP3    H160297   8.915   2.311   0.314
20140TIP3    H260298   8.989   2.436   0.272
20141TIP3   OH260299   9.165   2.488   0.298
20141TIP3    H160300   9.187   2.396   0.289
20141TIP3    H260301   9.212   2.517   0.376
20142TIP3   OH260302   9.715   1.139   0.395
20142TIP3    H160303   9.675   1.067   0.443
20142TIP3    H260304   9.782   1.097   0.341
20143TIP3   OH260305   0.415   1.051   0.277
20143TIP3    H160306   0.453   1.102   0.205
20143TIP3    H260307   0.323   1.076   0.277
20144TIP3   OH260308   0.533   1.132   0.042
20144TIP3    H160309   0.602   1.070   0.018
20144TIP3    H260310   0.572   1.218   0.028
20145TIP3   OH260311   8.956   0.841   0.388
20145TIP3    H160312   8.867   0.806   0.394
20145TIP3    H260313   9.011   0.763   0.377
20146TIP3   OH260314   8.788   0.766   0.057
20146TIP3    H160315   8.806   0.804  -0.029
20146TIP3    H260316   8.727   0.827   0.098
20147TIP3   OH260317   9.442   0.872   0.286
20147TIP3    H160318   9.487   0.918   0.215
20147TIP3    H260319   9.483   0.906   0.366
20148TIP3   OH260320   0.127   1.020   0.262
20148TIP3    H160321   0.137   0.985   0.174
20148TIP3    H260322   0.135   0.943   0.319
20149TIP3   OH260323   3.450   5.597   7.823
20149TIP3    H160324   3.369   5.643   7.846
20149TIP3    H260325   3.438   5.508   7.855
20150TIP3   OH260326   1.932   6.916   7.806
20150TIP3    H160327   1.848   6.880   7.779
20150TIP3    H260328   1.935   7.003   7.765
20151TIP3   OH260329   2.344   5.489   7.803
20151TIP3    H160330   2.390   5.430   7.743
20151TIP3    H260331   2.411   5.549   7.834
20152TIP3   OH260332   2.805   5.673   7.948
20152TIP3    H160333   2.884   5.619   7.962
20152TIP3    H260334   2.837   5.763   7.950
20153TIP3   OH260335   2.717   7.087   7.400
20153TIP3    H160336   2.801   7.113   7.363
20153TIP3    H260337   2.688   7.014   7.345
20154TIP3   OH260338   3.425   7.229   7.503
20154TIP3    H160339   3.417   7.134   7.497
20154TIP3    H260340   3.381   7.262   7.425
20155TIP3   OH260341   9.182   1.141   1.262
20155TIP3    H160342   9.144   1.077   1.322
20155TIP3    H260343   9.275   1.143   1.285
20156TIP3   OH260344   9.436   1.125   1.370
20156TIP3    H160345   9.514   1.108   1.318
20156TIP3    H260346   9.433   1.053   1.433
20157TIP3   OH260347   2.033   6.924   7.454
20157TIP3    H160348   2.031   6.928   7.550
20157TIP3    H260349   2.113   6.876   7.434
20158TIP3   OH260350   0.455   1.217   1.181
20158TIP3    H160351   0.473   1.189   1.271
20158TIP3    H260352   0.540   1.212   1.137
20159TIP3   OH260353   0.374   2.748   0.686
20159TIP3    H160354   0.299   2.720   0.635
20159TIP3    H260355   0.363   2.843   0.697
20160TIP3   OH260356   4.916   6.762   7.422
20160TIP3    H160357   4.881   6.848   7.398
20160TIP3    H260358   4.845   6.701   7.401
20161TIP3   OH260359   4.907   6.748   7.856
20161TIP3    H160360   4.964   6.730   7.932
20161TIP3    H260361   4.866   6.663   7.838
20162TIP3   OH260362   0.943   1.987   0.198
20162TIP3    H160363   0.981   1.937   0.269
20162TIP3    H260364   1.018   2.013   0.144
20163TIP3   OH260365   5.181   7.056   7.524
20163TIP3    H160366   5.169   6.988   7.590
20163TIP3    H260367   5.201   7.135   7.574
20164TIP3   OH260368   4.203   7.033   7.877
20164TIP3    H160369   4.183   6.940   7.887
20164TIP3    H260370   4.298   7.038   7.888
20165TIP3   OH260371   3.893   6.248   7.672
20165TIP3    H160372   3.854   6.332   7.697
20165TIP3    H260373   3.820   6.197   7.636
20166TIP3   OH260374   3.968   6.553   7.892
20166TIP3    H160375   4.016   6.475   7.918
20166TIP3    H260376   4.035   6.616   7.868
20167TIP3   OH260377   4.830   7.479   7.552
20167TIP3    H160378   4.884   7.418   7.502
20167TIP3    H260379   4.836   7.449   7.643
20168TIP3   OH260380   4.725   6.970   7.860
20168TIP3    H160381   4.768   6.888   7.837
20168TIP3    H260382   4.795   7.028   7.890
20169TIP3   OH260383   5.750   6.282   7.872
20169TIP3    H160384   5.765   6.372   7.903
20169TIP3    H260385   5.788   6.279   7.785
20170TIP3   OH260386   5.128   6.457   7.892
20170TIP3    H160387   5.166   6.373   7.920
20170TIP3    H260388   5.092   6.439   7.805
20171TIP3   OH260389   4.479   6.119   7.854
20171TIP3    H160390   4.459   6.190   7.794
20171TIP3    H260391   4.426   6.046   7.824
20172TIP3   OH260392   5.178   6.217   7.485
20172TIP3    H160393   5.241   6.212   7.557
20172TIP3    H260394   5.230   6.248   7.410
20173TIP3   OH260395   4.106   6.331   7.982
20173TIP3    H160396   4.188   6.312   8.027
20173TIP3    H260397   4.110   6.279   7.901
20174TIP3   OH260398   4.526   6.531   7.800
20174TIP3    H160399   4.620   6.516   7.806
20174TIP3    H260400   4.491   6.449   7.766
20175TIP3   OH260401   2.531   1.897   0.031
20175TIP3    H160402   2.440   1.926   0.028
20175TIP3    H260403   2.564   1.929   0.115
20176TIP3   OH260404   1.197   1.498   0.301
20176TIP3    H160405   1.146   1.534   0.229
20176TIP3    H260406   1.143   1.512   0.379
20177TIP3   OH260407   4.789   6.972   7.294
20177TIP3    H160408   4.761   6.938   7.209
20177TIP3    H260409   4.771   7.066   7.290
20178TIP3   OH260410   1.291   2.276   0.067
20178TIP3    H160411   1.238   2.348   0.101
20178TIP3    H260412   1.343   2.315  -0.003
20179TIP3   OH260413   5.335   6.249   7.705
20179TIP3    H160414   5.300   6.224   7.791
20179TIP3    H260415   5.395   6.322   7.724
20180TIP3   OH260416   1.085   1.608   0.073
20180TIP3    H160417   1.140   1.682   0.097
20180TIP3    H260418   1.131   1.565   0.002
20181TIP3   OH260419   1.133   2.480   0.168
20181TIP3    H160420   1.120   2.571   0.142
20181TIP3    H260421   1.056   2.459   0.221
20182TIP3   OH260422   3.781   6.802   7.426
20182TIP3    H160423   3.743   6.822   7.340
20182TIP3    H260424   3.804   6.888   7.462
20183TIP3   OH260425   5.210   7.304   7.665
20183TIP3    H160426   5.122   7.296   7.701
20183TIP3    H260427   5.210   7.388   7.619
20184TIP3   OH260428   2.283   1.566   0.043
20184TIP3    H160429   2.199   1.584  -0.000
20184TIP3    H260430   2.349   1.587  -0.023
20185TIP3   OH260431   1.538   1.183   0.033
20185TIP3    H160432   1.532   1.091   0.058
20185TIP3    H260433   1.460   1.224   0.073
20186TIP3   OH260434   4.968   7.322   7.376
20186TIP3    H160435   5.014   7.242   7.352
20186TIP3    H260436   5.010   7.390   7.323
20187TIP3   OH260437   5.092   7.106   7.268
20187TIP3    H160438   5.092   7.028   7.213
20187TIP3    H260439   5.128   7.076   7.352
20188TIP3   OH260440   5.455   7.186   8.009
20188TIP3    H160441   5.434   7.112   7.952
20188TIP3    H260442   5.444   7.263   7.954
20189TIP3   OH260443   4.739   6.595   7.280
20189TIP3    H160444   4.657   6.639   7.258
20189TIP3    H260445   4.788   6.591   7.198
20190TIP3   OH260446   4.712   6.403   6.967
20190TIP3    H160447   4.777   6.451   7.018
20190TIP3    H260448   4.761   6.334   6.924
20191TIP3   OH260449   5.624   6.851   7.880
20191TIP3    H160450   5.540   6.896   7.871
20191TIP3    H260451   5.666   6.861   7.795
20192TIP3   OH260452   5.102   6.687   7.237
20192TIP3    H160453   5.048   6.714   7.311
20192TIP3    H260454   5.184   6.657   7.277
20193TIP3   OH260455   2.060   2.092   0.187
20193TIP3    H160456   2.057   2.175   0.234
20193TIP3    H260457   1.978   2.089   0.137
20194TIP3   OH260458   4.331   6.661   7.645
20194TIP3    H160459   4.294   6.599   7.582
20194TIP3    H260460   4.402   6.614   7.687
20195TIP3   OH260461   4.476   7.087   7.788
20195TIP3    H160462   4.451   7.057   7.701
20195TIP3    H260463   4.562   7.048   7.804
20196TIP3   OH260464   1.157   2.041   0.021
20196TIP3    H160465   1.197   2.003  -0.057
20196TIP3    H260466   1.207   2.120   0.038
20197TIP3   OH260467   4.967   7.298   7.791
20197TIP3    H160468   4.963   7.378   7.845
20197TIP3    H260469   4.959   7.227   7.854
20198TIP3   OH260470   1.332   2.574   0.340
20198TIP3    H160471   1.272   2.630   0.388
20198TIP3    H260472   1.276   2.522   0.282
20199TIP3   OH260473   4.928   6.548   7.076
20199TIP3    H160474   4.990   6.603   7.124
20199TIP3    H260475   4.957   6.554   6.984
20200TIP3   OH260476   1.088   2.131   0.478
20200TIP3    H160477   1.090   2.224   0.500
20200TIP3    H260478   0.995   2.109   0.473
20201TIP3   OH260479   4.719   7.252   7.296
20201TIP3    H160480   4.802   7.274   7.339
20201TIP3    H260481   4.656   7.247   7.368
20202TIP3   OH260482   1.122   2.732   0.427
20202TIP3    H160483   1.095   2.744   0.336
20202TIP3    H260484   1.040   2.719   0.475
20203TIP3   OH260485   5.443   5.771   7.131
20203TIP3    H160486   5.367   5.790   7.186
20203TIP3    H260487   5.451   5.847   7.074
20204TIP3   OH260488   4.203   6.504   7.445
20204TIP3    H160489   4.123   6.547   7.416
20204TIP3    H260490   4.177   6.414   7.464
20205TIP3   OH260491   5.270   7.148   6.687
20205TIP3    H160492   5.264   7.241   6.666
20205TIP3    H260493   5.358   7.123   6.660
20206TIP3   OH260494   0.717   2.293   0.373
20206TIP3    H160495   0.647   2.272   0.312
20206TIP3    H260496   0.752   2.208   0.400
20207TIP3   OH260497   0.565   2.485   0.025
20207TIP3    H160498   0.657   2.503   0.044
20207TIP3    H260499   0.518   2.561   0.059
20208TIP3   OH260500   2.410   2.944   0.069
20208TIP3    H160501   2.416   2.849   0.081
20208TIP3    H260502   2.331   2.970   0.118
20209TIP3   OH260503   1.517   2.720   0.198
20209TIP3    H160504   1.508   2.810   0.229
20209TIP3    H260505   1.452   2.671   0.249
20210TIP3   OH260506   4.549   7.450   7.117
20210TIP3    H160507   4.546   7.383   7.048
20210TIP3    H260508   4.633   7.435   7.161
20211TIP3   OH260509   4.005   7.288   7.534
20211TIP3    H160510   4.043   7.281   7.622
20211TIP3    H260511   3.950   7.210   7.526
20212TIP3   OH260512   4.766   7.362   6.799
20212TIP3    H160513   4.817   7.291   6.760
20212TIP3    H260514   4.802   7.371   6.888
20213TIP3   OH260515   4.833   7.397   7.077
20213TIP3    H160516   4.804   7.322   7.129
20213TIP3    H260517   4.912   7.428   7.122
20214TIP3   OH260518   2.299   2.043   0.352
20214TIP3    H160519   2.220   2.048   0.298
20214TIP3    H260520   2.321   1.950   0.354
20215TIP3   OH260521   0.915   2.481   0.340
20215TIP3    H160522   0.967   2.471   0.420
20215TIP3    H260523   0.844   2.418   0.348
20216TIP3   OH260524   1.300   1.281   0.155
20216TIP3    H160525   1.215   1.248   0.125
20216TIP3    H260526   1.279   1.362   0.201
20217TIP3   OH260527   1.842   1.410   0.358
20217TIP3    H160528   1.912   1.381   0.417
20217TIP3    H260529   1.761   1.390   0.406
20218TIP3   OH260530   2.063   1.827   0.277
20218TIP3    H160531   2.023   1.824   0.364
20218TIP3    H260532   2.047   1.917   0.246
20219TIP3   OH260533   5.008   6.548   6.816
20219TIP3    H160534   4.963   6.538   6.732
20219TIP3    H260535   5.093   6.587   6.793
20220TIP3   OH260536   4.715   5.951   7.130
20220TIP3    H160537   4.681   5.955   7.219
20220TIP3    H260538   4.682   5.868   7.096
20221TIP3   OH260539   1.238   1.818   0.168
20221TIP3    H160540   1.193   1.824   0.253
20221TIP3    H260541   1.217   1.900   0.124
20222TIP3   OH260542   4.386   6.318   7.688
20222TIP3    H160543   4.298   6.291   7.715
20222TIP3    H260544   4.396   6.284   7.600
20223TIP3   OH260545   4.865   6.391   7.418
20223TIP3    H160546   4.817   6.463   7.377
20223TIP3    H260547   4.923   6.358   7.350
20224TIP3   OH260548   1.782   2.037   0.487
20224TIP3    H160549   1.755   1.969   0.549
20224TIP3    H260550   1.874   2.052   0.505
20225TIP3   OH260551   5.036   6.404   7.639
20225TIP3    H160552   4.966   6.422   7.576
20225TIP3    H260553   5.084   6.330   7.601
20226TIP3   OH260554   1.076   1.830   0.391
20226TIP3    H160555   1.100   1.889   0.462
20226TIP3    H260556   1.058   1.746   0.434
20227TIP3   OH260557   4.384   5.926   7.104
20227TIP3    H160558   4.376   5.928   7.199
20227TIP3    H260559   4.305   5.970   7.072
20228TIP3   OH260560   3.938   5.971   7.965
20228TIP3    H160561   4.006   6.006   8.022
20228TIP3    H260562   3.983   5.946   7.885
20229TIP3   OH260563   3.850   5.955   7.480
20229TIP3    H160564   3.893   5.991   7.403
20229TIP3    H260565   3.787   6.022   7.506
20230TIP3   OH260566   1.810   2.039   0.063
20230TIP3    H160567   1.836   1.973  -0.001
20230TIP3    H260568   1.768   1.990   0.133
20231TIP3   OH260569   4.748   6.111   7.741
20231TIP3    H160570   4.671   6.108   7.798
20231TIP3    H260571   4.821   6.092   7.799
20232TIP3   OH260572   4.151   6.190   7.750
20232TIP3    H160573   4.063   6.195   7.713
20232TIP3    H260574   4.178   6.099   7.735
20233TIP3   OH260575   4.397   6.193   7.443
20233TIP3    H160576   4.492   6.202   7.434
20233TIP3    H260577   4.363   6.210   7.355
20234TIP3   OH260578   5.211   6.195   7.950
20234TIP3    H160579   5.185   6.212   8.041
20234TIP3    H260580   5.153   6.124   7.922
20235TIP3   OH260581   4.286   6.220   7.193
20235TIP3    H160582   4.223   6.169   7.142
20235TIP3    H260583   4.341   6.263   7.127
20236TIP3   OH260584   2.088   3.265   0.139
20236TIP3    H160585   2.089   3.282   0.045
20236TIP3    H260586   2.169   3.303   0.172
20237TIP3   OH260587   1.070   2.396   0.574
20237TIP3    H160588   1.151   2.413   0.622
20237TIP3    H260589   1.001   2.402   0.640
20238TIP3   OH260590   4.798   6.479   7.847
20238TIP3    H160591   4.863   6.427   7.799
20238TIP3    H260592   4.795   6.439   7.934
20239TIP3   OH260593   4.291   5.940   7.739
20239TIP3    H160594   4.262   5.865   7.791
20239TIP3    H260595   4.323   5.902   7.658
20240TIP3   OH260596   1.504   1.764   0.108
20240TIP3    H160597   1.417   1.794   0.135
20240TIP3    H260598   1.565   1.813   0.163
20241TIP3   OH260599   4.500   6.733   7.218
20241TIP3    H160600   4.429   6.673   7.198
20241TIP3    H260601   4.478   6.770   7.304
20242TIP3   OH260602   5.390   6.990   7.828
20242TIP3    H160603   5.428   7.037   7.754
20242TIP3    H260604   5.313   6.947   7.793
20243TIP3   OH260605   4.969   6.052   7.127
20243TIP3    H160606   4.876   6.030   7.127
20243TIP3    H260607   4.972   6.146   7.144
20244TIP3   OH260608   1.651   2.452   0.240
20244TIP3    H160609   1.701   2.436   0.320
20244TIP3    H260610   1.610   2.537   0.255
20245TIP3   OH260611   5.028   6.315   7.202
20245TIP3    H160612   5.124   6.315   7.213
20245TIP3    H260613   5.010   6.393   7.149
20246TIP3   OH260614   4.195   6.745   7.872
20246TIP3    H160615   4.235   6.725   7.787
20246TIP3    H260616   4.260   6.715   7.936
20247TIP3   OH260617   4.659   6.888   7.061
20247TIP3    H160618   4.612   6.972   7.058
20247TIP3    H260619   4.603   6.831   7.114
20248TIP3   OH260620   0.813   2.067   0.510
20248TIP3    H160621   0.824   2.044   0.602
20248TIP3    H260622   0.740   2.014   0.479
20249TIP3   OH260623   1.551   2.193   0.525
20249TIP3    H160624   1.483   2.132   0.498
20249TIP3    H260625   1.633   2.151   0.498
20250TIP3   OH260626   1.787   2.740   0.119
20250TIP3    H160627   1.693   2.723   0.123
20250TIP3    H260628   1.809   2.775   0.205
20251TIP3   OH260629   5.443   6.401   7.015
20251TIP3    H160630   5.388   6.356   6.952
20251TIP3    H260631   5.449   6.491   6.982
20252TIP3   OH260632   2.432   2.671   0.091
20252TIP3    H160633   2.341   2.643   0.098
20252TIP3    H260634   2.463   2.633   0.009
20253TIP3   OH260635   5.179   7.219   6.946
20253TIP3    H160636   5.158   7.147   7.006
20253TIP3    H260637   5.204   7.176   6.865
20254TIP3   OH260638   5.165   6.853   7.724
20254TIP3    H160639   5.075   6.830   7.750
20254TIP3    H260640   5.201   6.771   7.688
20255TIP3   OH260641   4.312   7.078   7.547
20255TIP3    H160642   4.294   7.153   7.490
20255TIP3    H260643   4.233   7.070   7.601
20256TIP3   OH260644   3.874   6.373   7.245
20256TIP3    H160645   3.920   6.454   7.269
20256TIP3    H260646   3.796   6.373   7.300
20257TIP3   OH260647   4.405   6.841   7.446
20257TIP3    H160648   4.380   6.927   7.480
20257TIP3    H260649   4.384   6.781   7.517
20258TIP3   OH260650   4.604   7.415   7.993
20258TIP3    H160651   4.642   7.489   7.946
20258TIP3    H260652   4.676   7.380   8.046
20259TIP3   OH260653   4.241   7.314   7.400
20259TIP3    H160654   4.151   7.311   7.433
20259TIP3    H260655   4.282   7.384   7.450
20260TIP3   OH260656   4.958   7.079   7.968
20260TIP3    H160657   4.944   7.075   8.063
20260TIP3    H260658   5.036   7.026   7.953
20261TIP3   OH260659   4.954   6.956   6.848
20261TIP3    H160660   5.000   6.937   6.930
20261TIP3    H260661   4.872   6.907   6.854
20262TIP3   OH260662   5.214   7.558   8.003
20262TIP3    H160663   5.143   7.498   8.024
20262TIP3    H260664   5.177   7.615   7.935
20263TIP3   OH260665   5.262   7.422   6.646
20263TIP3    H160666   5.286   7.485   6.579
20263TIP3    H260667   5.190   7.462   6.693
20264TIP3   OH260668   1.026   1.576   0.508
20264TIP3    H160669   0.931   1.583   0.513
20264TIP3    H260670   1.050   1.521   0.582
20265TIP3   OH260671   5.126   6.902   7.065
20265TIP3    H160672   5.109   6.827   7.122
20265TIP3    H260673   5.220   6.898   7.047
20266TIP3   OH260674   0.769   2.680   0.158
20266TIP3    H160675   0.818   2.619   0.212
20266TIP3    H260676   0.780   2.765   0.201
20267TIP3   OH260677   4.298   6.910   6.859
20267TIP3    H160678   4.307   6.819   6.829
20267TIP3    H260679   4.286   6.903   6.954
20268TIP3   OH260680   4.252   6.931   7.133
20268TIP3    H160681   4.315   6.894   7.194
20268TIP3    H260682   4.262   7.026   7.143
20269TIP3   OH260683   3.974   6.621   7.335
20269TIP3    H160684   3.910   6.668   7.387
20269TIP3    H260685   3.996   6.680   7.263
20270TIP3   OH260686   1.871   1.638   0.208
20270TIP3    H160687   1.950   1.682   0.240
20270TIP3    H260688   1.862   1.561   0.264
20271TIP3   OH260689   5.030   5.998   7.396
20271TIP3    H160690   5.012   6.016   7.304
20271TIP3    H260691   5.075   6.077   7.427
20272TIP3   OH260692   4.514   7.118   7.043
20272TIP3    H160693   4.437   7.154   7.086
20272TIP3    H260694   4.501   7.137   6.950
20273TIP3   OH260695   4.676   6.202   7.490
20273TIP3    H160696   4.740   6.269   7.464
20273TIP3    H260697   4.699   6.181   7.580
20274TIP3   OH260698   1.712   1.873   0.259
20274TIP3    H160699   1.737   1.913   0.343
20274TIP3    H260700   1.761   1.791   0.257
20275TIP3   OH260701   4.846   5.896   7.575
20275TIP3    H160702   4.828   5.973   7.629
20275TIP3    H260703   4.915   5.924   7.516
20276TIP3   OH260704   4.275   7.210   7.146
20276TIP3    H160705   4.206   7.252   7.096
20276TIP3    H260706   4.267   7.247   7.234
20277TIP3   OH260707   4.356   5.918   7.382
20277TIP3    H160708   4.344   6.008   7.413
20277TIP3    H260709   4.450   5.902   7.389
20278TIP3   OH260710   2.325   1.763   0.254
20278TIP3    H160711   2.231   1.778   0.266
20278TIP3    H260712   2.331   1.702   0.181
20279TIP3   OH260713   5.257   6.596   7.638
20279TIP3    H160714   5.183   6.537   7.650
20279TIP3    H260715   5.327   6.559   7.691
20280TIP3   OH260716   4.003   6.803   7.123
20280TIP3    H160717   4.077   6.863   7.133
20280TIP3    H260718   4.033   6.740   7.058
20281TIP3   OH260719   3.915   6.097   7.256
20281TIP3    H160720   3.920   6.193   7.259
20281TIP3    H260721   3.868   6.078   7.175
20282TIP3   OH260722   5.233   7.572   7.576
20282TIP3    H160723   5.193   7.616   7.501
20282TIP3    H260724   5.327   7.581   7.562
20283TIP3   OH260725   1.037   1.195   0.123
20283TIP3    H160726   1.007   1.161   0.038
20283TIP3    H260727   1.029   1.120   0.182
20284TIP3   OH260728   3.824   7.075   7.504
20284TIP3    H160729   3.774   7.106   7.580
20284TIP3    H260730   3.780   7.115   7.429
20285TIP3   OH260731   0.765   2.992   0.581
20285TIP3    H160732   0.846   2.999   0.631
20285TIP3    H260733   0.749   2.898   0.573
20286TIP3   OH260734   1.229   2.900   0.618
20286TIP3    H160735   1.319   2.871   0.632
20286TIP3    H260736   1.196   2.844   0.548
20287TIP3   OH260737   4.456   7.106   6.754
20287TIP3    H160738   4.405   7.032   6.786
20287TIP3    H260739   4.529   7.066   6.706
20288TIP3   OH260740   1.841   2.836   0.368
20288TIP3    H160741   1.854   2.766   0.431
20288TIP3    H260742   1.914   2.896   0.383
20289TIP3   OH260743   4.896   7.159   6.669
20289TIP3    H160744   4.931   7.095   6.732
20289TIP3    H260745   4.955   7.153   6.594
20290TIP3   OH260746   0.866   2.389   0.764
20290TIP3    H160747   0.888   2.297   0.776
20290TIP3    H260748   0.778   2.389   0.727
20291TIP3   OH260749   4.122   6.613   6.967
20291TIP3    H160750   4.172   6.585   7.043
20291TIP3    H260751   4.186   6.623   6.897
20292TIP3   OH260752   1.488   2.470   0.544
20292TIP3    H160753   1.442   2.490   0.462
20292TIP3    H260754   1.522   2.381   0.531
20293TIP3   OH260755   4.697   6.831   6.797
20293TIP3    H160756   4.676   6.839   6.890
20293TIP3    H260757   4.682   6.738   6.777
20294TIP3   OH260758   1.961   2.519   0.160
20294TIP3    H160759   2.039   2.545   0.111
20294TIP3    H260760   1.896   2.587   0.140
20295TIP3   OH260761   0.982   2.134   0.772
20295TIP3    H160762   1.060   2.114   0.721
20295TIP3    H260763   1.014   2.153   0.860
20296TIP3   OH260764   4.295   6.552   7.178
20296TIP3    H160765   4.274   6.521   7.266
20296TIP3    H260766   4.343   6.479   7.138
20297TIP3   OH260767   1.340   2.014   0.434
20297TIP3    H160768   1.256   2.060   0.443
20297TIP3    H260769   1.372   2.042   0.348
20298TIP3   OH260770   4.438   6.371   7.020
20298TIP3    H160771   4.409   6.374   6.929
20298TIP3    H260772   4.533   6.378   7.015
20299TIP3   OH260773   1.841   2.384   0.505
20299TIP3    H160774   1.914   2.348   0.454
20299TIP3    H260775   1.837   2.329   0.584
20300TIP3   OH260776   5.231   6.665   6.698
20300TIP3    H160777   5.219   6.621   6.614
20300TIP3    H260778   5.206   6.756   6.683
20301TIP3   OH260779   1.445   1.784   0.541
20301TIP3    H160780   1.449   1.713   0.476
20301TIP3    H260781   1.410   1.859   0.493
20302TIP3   OH260782   1.455   1.589   0.337
20302TIP3    H160783   1.482   1.623   0.252
20302TIP3    H260784   1.365   1.558   0.322
20303TIP3   OH260785   1.457   2.107   0.208
20303TIP3    H160786   1.548   2.135   0.195
20303TIP3    H260787   1.405   2.171   0.160
20304TIP3   OH260788   2.051   2.068   0.583
20304TIP3    H160789   2.080   1.977   0.587
20304TIP3    H260790   2.131   2.118   0.567
20305TIP3   OH260791   2.080   2.338   0.323
20305TIP3    H160792   2.027   2.401   0.274
20305TIP3    H260793   2.169   2.350   0.290
20306TIP3   OH260794   1.330   1.868   0.783
20306TIP3    H160795   1.262   1.804   0.805
20306TIP3    H260796   1.360   1.842   0.696
20307TIP3   OH260797   1.579   1.358   0.438
20307TIP3    H160798   1.537   1.438   0.405
20307TIP3    H260799   1.513   1.289   0.426
20308TIP3   OH260800   1.701   1.826   0.643
20308TIP3    H160801   1.693   1.813   0.737
20308TIP3    H260802   1.615   1.803   0.607
20309TIP3   OH260803   1.951   1.789   0.519
20309TIP3    H160804   1.871   1.783   0.572
20309TIP3    H260805   2.020   1.753   0.575
20310TIP3   OH260806   2.183   1.735   0.661
20310TIP3    H160807   2.198   1.641   0.669
20310TIP3    H260808   2.178   1.766   0.752
20311TIP3   OH260809   1.166   1.648   0.847
20311TIP3    H160810   1.173   1.560   0.810
20311TIP3    H260811   1.203   1.640   0.935
20312TIP3   OH260812   1.638   1.336   0.705
20312TIP3    H160813   1.707   1.270   0.703
20312TIP3    H260814   1.611   1.346   0.614
20313TIP3   OH260815   1.738   1.547   0.849
20313TIP3    H160816   1.707   1.474   0.795
20313TIP3    H260817   1.665   1.609   0.851
20314TIP3   OH260818   4.305   7.511   6.963
20314TIP3    H160819   4.362   7.445   6.926
20314TIP3    H260820   4.246   7.535   6.892
20315TIP3   OH260821   3.728   6.804   7.125
20315TIP3    H160822   3.823   6.811   7.129
20315TIP3    H260823   3.711   6.716   7.093
20316TIP3   OH260824   3.630   7.384   7.598
20316TIP3    H160825   3.565   7.329   7.554
20316TIP3    H260826   3.674   7.324   7.659
20317TIP3   OH260827   3.775   7.220   7.766
20317TIP3    H160828   3.767   7.149   7.830
20317TIP3    H260829   3.827   7.286   7.811
20318TIP3   OH260830   5.505   7.618   7.567
20318TIP3    H160831   5.525   7.640   7.658
20318TIP3    H260832   5.558   7.678   7.515
20319TIP3   OH260833   5.526   7.643   7.846
20319TIP3    H160834   5.480   7.559   7.841
20319TIP3    H260835   5.593   7.631   7.913
20320TIP3   OH260836   2.298   2.730   0.415
20320TIP3    H160837   2.224   2.736   0.475
20320TIP3    H260838   2.340   2.816   0.419
20321TIP3   OH260839   5.402   6.872   7.037
20321TIP3    H160840   5.462   6.939   7.006
20321TIP3    H260841   5.447   6.832   7.111
20322TIP3   OH260842   5.530   6.729   7.238
20322TIP3    H160843   5.464   6.686   7.293
20322TIP3    H260844   5.598   6.757   7.299
20323TIP3   OH260845   5.569   7.122   7.662
20323TIP3    H160846   5.625   7.053   7.628
20323TIP3    H260847   5.578   7.193   7.599
20324TIP3   OH260848   5.388   7.404   7.855
20324TIP3    H160849   5.321   7.449   7.907
20324TIP3    H260850   5.339   7.362   7.784
20325TIP3   OH260851   5.435   6.644   6.883
20325TIP3    H160852   5.364   6.644   6.819
20325TIP3    H260853   5.419   6.722   6.937
20326TIP3   OH260854   5.292   6.292   6.813
20326TIP3    H160855   5.245   6.322   6.736
20326TIP3    H260856   5.286   6.197   6.810
20327TIP3   OH260857   5.326   6.584   7.368
20327TIP3    H160858   5.332   6.489   7.355
20327TIP3    H260859   5.308   6.594   7.462
20328TIP3   OH260860   0.681   2.034   0.145
20328TIP3    H160861   0.671   1.998   0.057
20328TIP3    H260862   0.774   2.026   0.164
20329TIP3   OH260863   2.332   2.380   0.214
20329TIP3    H160864   2.397   2.310   0.203
20329TIP3    H260865   2.328   2.422   0.128
20330TIP3   OH260866   2.503   2.169   0.218
20330TIP3    H160867   2.436   2.121   0.267
20330TIP3    H260868   2.584   2.122   0.236
20331TIP3   OH260869   5.251   6.022   6.786
20331TIP3    H160870   5.319   5.994   6.848
20331TIP3    H260871   5.171   5.979   6.818
20332TIP3   OH260872   5.319   6.307   7.254
20332TIP3    H160873   5.363   6.224   7.269
20332TIP3    H260874   5.362   6.344   7.177
20333TIP3   OH260875   5.474   6.480   7.775
20333TIP3    H160876   5.557   6.496   7.730
20333TIP3    H260877   5.487   6.516   7.863
20334TIP3   OH260878   2.272   2.003   0.007
20334TIP3    H160879   2.201   2.032   0.064
20334TIP3    H260880   2.305   2.083  -0.034
20335TIP3   OH260881   0.903   1.709   0.783
20335TIP3    H160882   0.997   1.705   0.802
20335TIP3    H260883   0.868   1.628   0.819
20336TIP3   OH260884   2.735   1.615   0.539
20336TIP3    H160885   2.800   1.551   0.509
20336TIP3    H260886   2.701   1.654   0.458
20337TIP3   OH260887   5.432   6.061   7.314
20337TIP3    H160888   5.481   6.047   7.394
20337TIP3    H260889   5.373   5.985   7.308
20338TIP3   OH260890   0.876   1.422   0.138
20338TIP3    H160891   0.929   1.342   0.145
20338TIP3    H260892   0.940   1.491   0.121
20339TIP3   OH260893   0.656   1.684   0.195
20339TIP3    H160894   0.707   1.677   0.114
20339TIP3    H260895   0.695   1.757   0.242
20340TIP3   OH260896   2.585   1.709   0.332
20340TIP3    H160897   2.496   1.744   0.337
20340TIP3    H260898   2.576   1.628   0.281
20341TIP3   OH260899   5.474   5.974   6.945
20341TIP3    H160900   5.520   5.911   6.889
20341TIP3    H260901   5.535   6.047   6.953
20342TIP3   OH260902   3.911   5.802   7.698
20342TIP3    H160903   3.826   5.796   7.741
20342TIP3    H260904   3.898   5.865   7.627
20343TIP3   OH260905   5.047   7.521   7.204
20343TIP3    H160906   5.113   7.514   7.135
20343TIP3    H260907   5.078   7.590   7.261
20344TIP3   OH260908   0.876   1.269   0.530
20344TIP3    H160909   0.823   1.256   0.609
20344TIP3    H260910   0.816   1.308   0.467
20345TIP3   OH260911   0.897   2.709   0.593
20345TIP3    H160912   0.804   2.687   0.586
20345TIP3    H260913   0.917   2.698   0.686
20346TIP3   OH260914   1.110   2.755   0.142
20346TIP3    H160915   1.058   2.830   0.112
20346TIP3    H260916   1.194   2.765   0.099
20347TIP3   OH260917   1.499   2.984   0.278
20347TIP3    H160918   1.537   2.975   0.366
20347TIP3    H260919   1.565   3.035   0.229
20348TIP3   OH260920   1.697   3.127   0.153
20348TIP3    H160921   1.758   3.076   0.100
20348TIP3    H260922   1.753   3.175   0.214
20349TIP3   OH260923   2.511   1.454   0.239
20349TIP3    H160924   2.424   1.442   0.202
20349TIP3    H260925   2.553   1.369   0.230
20350TIP3   OH260926   0.769   2.998   0.186
20350TIP3    H160927   0.677   3.014   0.166
20350TIP3    H260928   0.790   3.062   0.254
20351TIP3   OH260929   0.999   2.985   0.038
20351TIP3    H160930   0.917   2.991   0.086
20351TIP3    H260931   0.976   3.011  -0.052
20352TIP3   OH260932   4.688   7.627   7.836
20352TIP3    H160933   4.613   7.640   7.776
20352TIP3    H260934   4.697   7.711   7.880
20353TIP3   OH260935   4.949   7.560   7.881
20353TIP3    H160936   4.857   7.583   7.865
20353TIP3    H260937   4.998   7.629   7.837
20354TIP3   OH260938   5.147   7.731   7.783
20354TIP3    H160939   5.141   7.818   7.743
20354TIP3    H260940   5.176   7.674   7.712
20355TIP3   OH260941   3.953   7.394   7.909
20355TIP3    H160942   3.974   7.369   7.999
20355TIP3    H260943   4.025   7.360   7.856
20356TIP3   OH260944   4.154   7.276   7.767
20356TIP3    H160945   4.162   7.192   7.811
20356TIP3    H260946   4.241   7.317   7.776
20357TIP3   OH260947   4.421   7.360   7.789
20357TIP3    H160948   4.442   7.267   7.779
20357TIP3    H260949   4.474   7.389   7.864
20358TIP3   OH260950   4.967   5.999   7.871
20358TIP3    H160951   4.933   5.927   7.924
20358TIP3    H260952   5.040   5.961   7.823
20359TIP3   OH260953   5.485   5.929   7.765
20359TIP3    H160954   5.524   5.979   7.693
20359TIP3    H260955   5.393   5.954   7.763
20360TIP3   OH260956   5.600   6.016   7.528
20360TIP3    H160957   5.664   5.949   7.507
20360TIP3    H260958   5.645   6.099   7.511
20361TIP3   OH260959   4.216   5.713   7.881
20361TIP3    H160960   4.128   5.678   7.893
20361TIP3    H260961   4.272   5.635   7.876
20362TIP3   OH260962   4.009   5.607   7.518
20362TIP3    H160963   4.050   5.657   7.447
20362TIP3    H260964   3.984   5.672   7.583
20363TIP3   OH260965   4.690   5.764   7.774
20363TIP3    H160966   4.744   5.805   7.706
20363TIP3    H260967   4.735   5.783   7.856
20364TIP3   OH260968   5.196   5.898   7.749
20364TIP3    H160969   5.218   5.863   7.662
20364TIP3    H260970   5.201   5.822   7.807
20365TIP3   OH260971   5.252   5.846   7.317
20365TIP3    H160972   5.171   5.891   7.342
20365TIP3    H260973   5.244   5.759   7.356
20366TIP3   OH260974   3.711   7.191   7.280
20366TIP3    H160975   3.626   7.162   7.248
20366TIP3    H260976   3.716   7.283   7.254
20367TIP3   OH260977   4.143   5.749   7.295
20367TIP3    H160978   4.189   5.688   7.237
20367TIP3    H260979   4.212   5.804   7.331
20368TIP3   OH260980   4.631   5.949   7.395
20368TIP3    H160981   4.691   5.896   7.447
20368TIP3    H260982   4.647   6.039   7.424
20369TIP3   OH260983   4.498   7.354   6.857
20369TIP3    H160984   4.588   7.370   6.830
20369TIP3    H260985   4.472   7.276   6.808
20370TIP3   OH260986   5.216   7.486   6.988
20370TIP3    H160987   5.209   7.391   6.978
20370TIP3    H260988   5.175   7.520   6.908
20371TIP3   OH260989   1.184   1.378   0.759
20371TIP3    H160990   1.149   1.313   0.820
20371TIP3    H260991   1.277   1.386   0.783
20372TIP3   OH260992   1.429   1.380   0.888
20372TIP3    H160993   1.504   1.361   0.832
20372TIP3    H260994   1.430   1.310   0.953
20373TIP3   OH260995   3.829   7.183   6.941
20373TIP3    H160996   3.819   7.179   7.036
20373TIP3    H260997   3.909   7.134   6.924
20374TIP3   OH260998   2.253   1.467   0.665
20374TIP3    H160999   2.270   1.430   0.752
20374TIP3    H261000   2.337   1.465   0.620
20375TIP3   OH261001   2.160   3.001   0.167
20375TIP3    H161002   2.091   2.962   0.114
20375TIP3    H261003   2.138   3.095   0.169
20376TIP3   OH261004   6.714   7.020   6.914
20376TIP3    H161005   6.685   7.106   6.884
20376TIP3    H261006   6.642   6.961   6.890
20377TIP3   OH261007   6.697   7.002   7.321
20377TIP3    H161008   6.739   6.983   7.405
20377TIP3    H261009   6.656   6.919   7.296
20378TIP3   OH261010   6.001   6.861   7.682
20378TIP3    H161011   6.034   6.804   7.751
20378TIP3    H261012   6.079   6.886   7.632
20379TIP3   OH261013   6.979   7.311   7.010
20379TIP3    H161014   6.961   7.246   7.078
20379TIP3    H261015   6.995   7.392   7.058
20380TIP3   OH261016   5.994   7.292   7.366
20380TIP3    H161017   5.977   7.198   7.374
20380TIP3    H261018   6.090   7.299   7.367
20381TIP3   OH261019   5.683   6.506   7.146
20381TIP3    H161020   5.642   6.588   7.173
20381TIP3    H261021   5.611   6.452   7.116
20382TIP3   OH261022   5.764   6.794   7.384
20382TIP3    H161023   5.814   6.717   7.411
20382TIP3    H261024   5.831   6.858   7.357
20383TIP3   OH261025   6.644   7.750   7.021
20383TIP3    H161026   6.675   7.691   6.953
20383TIP3    H261027   6.648   7.699   7.102
20384TIP3   OH261028   6.508   7.221   7.334
20384TIP3    H161029   6.548   7.139   7.305
20384TIP3    H261030   6.582   7.277   7.355
20385TIP3   OH261031   7.540   6.541   7.340
20385TIP3    H161032   7.561   6.618   7.393
20385TIP3    H261033   7.547   6.572   7.250
20386TIP3   OH261034   6.915   6.712   7.379
20386TIP3    H161035   6.950   6.628   7.407
20386TIP3    H261036   6.883   6.697   7.290
20387TIP3   OH261037   6.290   6.371   7.331
20387TIP3    H161038   6.262   6.448   7.280
20387TIP3    H261039   6.233   6.300   7.300
20388TIP3   OH261040   6.978   6.474   6.971
20388TIP3    H161041   7.040   6.464   7.043
20388TIP3    H261042   7.030   6.508   6.899
20389TIP3   OH261043   5.908   6.571   7.473
20389TIP3    H161044   5.985   6.538   7.520
20389TIP3    H261045   5.909   6.525   7.390
20390TIP3   OH261046   6.320   6.789   7.282
20390TIP3    H161047   6.414   6.772   7.287
20390TIP3    H261048   6.282   6.707   7.251
20391TIP3   OH261049   7.604   6.750   7.507
20391TIP3    H161050   7.515   6.785   7.505
20391TIP3    H261051   7.638   6.775   7.594
20392TIP3   OH261052   6.263   6.399   7.818
20392TIP3    H161053   6.211   6.386   7.739
20392TIP3    H261054   6.198   6.407   7.888
20393TIP3   OH261055   6.621   7.238   6.767
20393TIP3    H161056   6.577   7.205   6.689
20393TIP3    H261057   6.569   7.314   6.793
20394TIP3   OH261058   6.359   7.144   7.556
20394TIP3    H161059   6.296   7.211   7.583
20394TIP3    H261060   6.405   7.183   7.482
20395TIP3   OH261061   7.135   6.486   7.193
20395TIP3    H161062   7.091   6.468   7.276
20395TIP3    H261063   7.188   6.564   7.211
20396TIP3   OH261064   6.150   6.447   7.563
20396TIP3    H161065   6.199   6.524   7.590
20396TIP3    H261066   6.200   6.410   7.490
20397TIP3   OH261067   6.177   7.341   7.631
20397TIP3    H161068   6.160   7.430   7.601
20397TIP3    H261069   6.101   7.320   7.686
20398TIP3   OH261070   5.575   7.059   6.915
20398TIP3    H161071   5.540   7.081   6.828
20398TIP3    H261072   5.599   7.143   6.953
20399TIP3   OH261073   7.001   7.562   7.140
20399TIP3    H161074   6.913   7.556   7.177
20399TIP3    H261075   7.004   7.648   7.098
20400TIP3   OH261076   7.348   6.421   7.511
20400TIP3    H161077   7.259   6.443   7.483
20400TIP3    H261078   7.404   6.451   7.440
20401TIP3   OH261079   6.614   6.072   7.504
20401TIP3    H161080   6.611   5.979   7.528
20401TIP3    H261081   6.541   6.111   7.551
20402TIP3   OH261082   6.737   7.614   6.795
20402TIP3    H161083   6.792   7.536   6.787
20402TIP3    H261084   6.792   7.685   6.763
20403TIP3   OH261085   6.869   7.377   6.765
20403TIP3    H161086   6.796   7.316   6.756
20403TIP3    H261087   6.916   7.348   6.843
20404TIP3   OH261088   7.259   7.464   7.485
20404TIP3    H161089   7.246   7.390   7.427
20404TIP3    H261090   7.243   7.541   7.431
20405TIP3   OH261091   6.539   6.855   6.769
20405TIP3    H161092   6.455   6.896   6.749
20405TIP3    H261093   6.585   6.851   6.686
20406TIP3   OH261094   6.509   6.658   6.457
20406TIP3    H161095   6.575   6.706   6.509
20406TIP3    H261096   6.560   6.592   6.411
20407TIP3   OH261097   7.429   7.097   7.340
20407TIP3    H161098   7.344   7.142   7.344
20407TIP3    H261099   7.462   7.116   7.253
20408TIP3   OH261100   6.898   6.941   6.729
20408TIP3    H161101   6.844   6.972   6.802
20408TIP3    H261102   6.981   6.915   6.769
20409TIP3   OH261103   7.094   6.907   7.613
20409TIP3    H161104   7.127   6.996   7.601
20409TIP3    H261105   7.001   6.913   7.593
20410TIP3   OH261106   6.126   6.923   7.129
20410TIP3    H161107   6.089   6.861   7.067
20410TIP3    H261108   6.197   6.875   7.172
20411TIP3   OH261109   6.261   7.346   7.272
20411TIP3    H161110   6.236   7.327   7.182
20411TIP3    H261111   6.346   7.304   7.283
20412TIP3   OH261112   6.219   6.911   7.509
20412TIP3    H161113   6.258   6.876   7.429
20412TIP3    H261114   6.270   6.990   7.528
20413TIP3   OH261115   6.757   7.557   7.262
20413TIP3    H161116   6.760   7.625   7.328
20413TIP3    H261117   6.751   7.475   7.312
20414TIP3   OH261118   6.381   7.450   7.778
20414TIP3    H161119   6.324   7.503   7.834
20414TIP3    H261120   6.321   7.398   7.724
20415TIP3   OH261121   6.727   6.803   6.564
20415TIP3    H161122   6.786   6.859   6.614
20415TIP3    H261123   6.758   6.811   6.473
20416TIP3   OH261124   6.150   7.020   7.922
20416TIP3    H161125   6.143   7.110   7.954
20416TIP3    H261126   6.061   6.987   7.922
20417TIP3   OH261127   6.493   7.481   6.809
20417TIP3    H161128   6.573   7.533   6.814
20417TIP3    H261129   6.429   7.539   6.768
20418TIP3   OH261130   6.173   7.594   7.884
20418TIP3    H161131   6.153   7.607   7.791
20418TIP3    H261132   6.089   7.571   7.924
20419TIP3   OH261133   7.241   6.027   6.622
20419TIP3    H161134   7.164   6.046   6.675
20419TIP3    H261135   7.250   6.103   6.565
20420TIP3   OH261136   6.001   6.762   6.930
20420TIP3    H161137   5.919   6.804   6.903
20420TIP3    H261138   5.976   6.673   6.954
20421TIP3   OH261139   7.078   7.422   6.175
20421TIP3    H161140   7.100   7.514   6.163
20421TIP3    H261141   7.158   7.374   6.151
20422TIP3   OH261142   5.769   7.163   7.862
20422TIP3    H161143   5.700   7.138   7.800
20422TIP3    H261144   5.807   7.080   7.890
20423TIP3   OH261145   5.634   7.350   7.505
20423TIP3    H161146   5.729   7.359   7.513
20423TIP3    H261147   5.599   7.428   7.548
20424TIP3   OH261148   7.452   7.798   7.554
20424TIP3    H161149   7.470   7.710   7.588
20424TIP3    H261150   7.373   7.825   7.599
20425TIP3   OH261151   6.576   7.565   7.632
20425TIP3    H161152   6.579   7.659   7.653
20425TIP3    H261153   6.509   7.530   7.690
20426TIP3   OH261154   6.357   7.686   6.651
20426TIP3    H161155   6.298   7.662   6.580
20426TIP3    H261156   6.326   7.772   6.680
20427TIP3   OH261157   5.797   7.549   7.023
20427TIP3    H161158   5.841   7.543   7.108
20427TIP3    H261159   5.748   7.467   7.015
20428TIP3   OH261160   6.571   7.631   6.268
20428TIP3    H161161   6.615   7.555   6.230
20428TIP3    H261162   6.594   7.629   6.361
20429TIP3   OH261163   6.603   7.648   6.536
20429TIP3    H161164   6.519   7.653   6.582
20429TIP3    H261165   6.668   7.635   6.605
20430TIP3   OH261166   7.371   6.923   7.785
20430TIP3    H161167   7.282   6.922   7.751
20430TIP3    H261168   7.378   6.843   7.837
20431TIP3   OH261169   5.960   7.352   7.806
20431TIP3    H161170   6.010   7.347   7.888
20431TIP3    H261171   5.891   7.287   7.817
20432TIP3   OH261172   6.862   6.276   7.833
20432TIP3    H161173   6.933   6.252   7.892
20432TIP3    H261174   6.782   6.253   7.880
20433TIP3   OH261175   7.137   6.664   7.727
20433TIP3    H161176   7.129   6.699   7.816
20433TIP3    H261177   7.117   6.738   7.670
20434TIP3   OH261178   6.816   6.805   6.308
20434TIP3    H161179   6.767   6.797   6.226
20434TIP3    H261180   6.898   6.848   6.283
20435TIP3   OH261181   6.515   6.203   6.615
20435TIP3    H161182   6.479   6.210   6.703
20435TIP3    H261183   6.478   6.122   6.580
20436TIP3   OH261184   6.288   6.675   7.643
20436TIP3    H161185   6.248   6.680   7.730
20436TIP3    H261186   6.264   6.757   7.600
20437TIP3   OH261187   6.183   6.574   7.177
20437TIP3    H161188   6.095   6.547   7.203
20437TIP3    H261189   6.193   6.539   7.088
20438TIP3   OH261190   6.663   6.649   6.904
20438TIP3    H161191   6.616   6.722   6.864
20438TIP3    H261192   6.719   6.616   6.834
20439TIP3   OH261193   6.869   6.889   7.958
20439TIP3    H161194   6.838   6.832   8.028
20439TIP3    H261195   6.958   6.859   7.940
20440TIP3   OH261196   6.836   6.663   7.121
20440TIP3    H161197   6.765   6.682   7.060
20440TIP3    H261198   6.882   6.589   7.082
20441TIP3   OH261199   6.120   6.691   7.869
20441TIP3    H161200   6.176   6.743   7.927
20441TIP3    H261201   6.101   6.611   7.919
20442TIP3   OH261202   6.181   6.185   6.589
20442TIP3    H161203   6.172   6.186   6.685
20442TIP3    H261204   6.102   6.229   6.558
20443TIP3   OH261205   5.761   6.219   7.442
20443TIP3    H161206   5.821   6.241   7.513
20443TIP3    H261207   5.812   6.164   7.383
20444TIP3   OH261208   5.635   6.205   6.961
20444TIP3    H161209   5.682   6.240   6.886
20444TIP3    H261210   5.573   6.274   6.985
20445TIP3   OH261211   6.817   6.898   7.549
20445TIP3    H161212   6.850   6.834   7.485
20445TIP3    H261213   6.788   6.844   7.623
20446TIP3   OH261214   6.554   6.370   7.225
20446TIP3    H161215   6.473   6.367   7.278
20446TIP3    H261216   6.624   6.357   7.289
20447TIP3   OH261217   5.944   6.451   7.229
20447TIP3    H161218   5.854   6.454   7.195
20447TIP3    H261219   5.971   6.360   7.216
20448TIP3   OH261220   6.197   6.453   6.930
20448TIP3    H161221   6.292   6.460   6.918
20448TIP3    H261222   6.161   6.469   6.842
20449TIP3   OH261223   6.993   6.450   7.432
20449TIP3    H161224   6.973   6.467   7.524
20449TIP3    H261225   6.925   6.389   7.403
20450TIP3   OH261226   6.083   6.478   6.680
20450TIP3    H161227   6.019   6.427   6.631
20450TIP3    H261228   6.137   6.520   6.614
20451TIP3   OH261229   7.193   8.152   7.648
20451TIP3    H161230   7.196   8.157   7.552
20451TIP3    H261231   7.273   8.197   7.676
20452TIP3   OH261232   2.840   2.648   0.041
20452TIP3    H161233   2.922   2.655   0.090
20452TIP3    H261234   2.772   2.646   0.108
20453TIP3   OH261235   6.591   6.733   7.323
20453TIP3    H161236   6.653   6.676   7.278
20453TIP3    H261237   6.583   6.695   7.411
20454TIP3   OH261238   6.095   6.205   7.215
20454TIP3    H161239   6.051   6.144   7.275
20454TIP3    H261240   6.122   6.151   7.141
20455TIP3   OH261241   6.556   6.635   7.581
20455TIP3    H161242   6.466   6.654   7.610
20455TIP3    H261243   6.612   6.676   7.647
20456TIP3   OH261244   6.301   6.986   6.708
20456TIP3    H161245   6.226   6.930   6.685
20456TIP3    H261246   6.274   7.028   6.790
20457TIP3   OH261247   7.189   7.247   7.319
20457TIP3    H161248   7.227   7.296   7.245
20457TIP3    H261249   7.109   7.209   7.284
20458TIP3   OH261250   6.767   6.306   6.617
20458TIP3    H161251   6.674   6.283   6.614
20458TIP3    H261252   6.769   6.400   6.630
20459TIP3   OH261253   6.689   7.315   7.678
20459TIP3    H161254   6.738   7.339   7.757
20459TIP3    H261255   6.633   7.391   7.661
20460TIP3   OH261256   6.825   6.571   6.687
20460TIP3    H161257   6.920   6.574   6.698
20460TIP3    H261258   6.804   6.648   6.635
20461TIP3   OH261259   5.992   7.006   7.360
20461TIP3    H161260   6.032   6.986   7.275
20461TIP3    H261261   6.055   6.972   7.424
20462TIP3   OH261262   6.457   7.148   6.553
20462TIP3    H161263   6.408   7.230   6.551
20462TIP3    H261264   6.402   7.089   6.606
20463TIP3   OH261265   2.617   2.324  -0.012
20463TIP3    H161266   2.666   2.304   0.068
20463TIP3    H261267   2.546   2.260  -0.014
20464TIP3   OH261268   6.590   7.050   7.959
20464TIP3    H161269   6.583   7.020   7.868
20464TIP3    H261270   6.679   7.087   7.964
20465TIP3   OH261271   6.839   7.587   7.546
20465TIP3    H161272   6.749   7.560   7.561
20465TIP3    H261273   6.856   7.653   7.613
20466TIP3   OH261274   7.243   6.658   6.501
20466TIP3    H161275   7.187   6.612   6.440
20466TIP3    H261276   7.248   6.748   6.467
20467TIP3   OH261277   7.506   7.518   7.591
20467TIP3    H161278   7.413   7.505   7.573
20467TIP3    H261279   7.549   7.506   7.506
20468TIP3   OH261280   7.098   7.484   6.458
20468TIP3    H161281   7.041   7.452   6.528
20468TIP3    H261282   7.067   7.439   6.379
20469TIP3   OH261283   6.957   7.111   7.220
20469TIP3    H161284   6.866   7.088   7.237
20469TIP3    H261285   6.995   7.031   7.183
20470TIP3   OH261286   6.115   7.345   7.030
20470TIP3    H161287   6.107   7.421   6.972
20470TIP3    H261288   6.028   7.335   7.068
20471TIP3   OH261289   5.671   6.630   6.742
20471TIP3    H161290   5.717   6.710   6.766
20471TIP3    H261291   5.592   6.630   6.795
20472TIP3   OH261292   6.202   7.103   6.930
20472TIP3    H161293   6.183   7.191   6.962
20472TIP3    H261294   6.178   7.045   7.003
20473TIP3   OH261295   6.385   7.673   7.464
20473TIP3    H161296   6.426   7.752   7.428
20473TIP3    H261297   6.458   7.626   7.505
20474TIP3   OH261298   6.029   7.567   6.878
20474TIP3    H161299   5.942   7.570   6.918
20474TIP3    H261300   6.061   7.657   6.883
20475TIP3   OH261301   6.757   7.317   7.413
20475TIP3    H161302   6.742   7.308   7.507
20475TIP3    H261303   6.835   7.263   7.396
20476TIP3   OH261304   6.743   7.214   6.328
20476TIP3    H161305   6.795   7.186   6.403
20476TIP3    H261306   6.660   7.166   6.337
20477TIP3   OH261307   7.008   7.827   7.459
20477TIP3    H161308   6.925   7.779   7.465
20477TIP3    H261309   6.989   7.899   7.399
20478TIP3   OH261310   7.100   7.771   6.183
20478TIP3    H161311   7.118   7.791   6.092
20478TIP3    H261312   7.014   7.729   6.182
20479TIP3   OH261313   2.796   1.822   0.002
20479TIP3    H161314   2.705   1.850   0.005
20479TIP3    H261315   2.796   1.733   0.038
20480TIP3   OH261316   6.918   7.123   6.519
20480TIP3    H161317   6.901   7.069   6.596
20480TIP3    H261318   7.013   7.129   6.514
20481TIP3   OH261319   5.819   7.548   7.642
20481TIP3    H161320   5.870   7.490   7.698
20481TIP3    H261321   5.834   7.635   7.679
20482TIP3   OH261322   6.092   7.173   6.339
20482TIP3    H161323   6.105   7.082   6.313
20482TIP3    H261324   6.081   7.169   6.434
20483TIP3   OH261325   6.039   7.193   6.612
20483TIP3    H161326   6.101   7.165   6.679
20483TIP3    H261327   6.039   7.289   6.617
20484TIP3   OH261328   5.770   6.878   6.824
20484TIP3    H161329   5.706   6.927   6.876
20484TIP3    H261330   5.791   6.937   6.751
20485TIP3   OH261331   6.916   6.503   7.688
20485TIP3    H161332   6.992   6.543   7.730
20485TIP3    H261333   6.894   6.428   7.744
20486TIP3   OH261334   6.830   6.256   6.884
20486TIP3    H161335   6.807   6.274   6.793
20486TIP3    H261336   6.872   6.337   6.915
20487TIP3   OH261337   6.310   7.375   6.546
20487TIP3    H161338   6.226   7.399   6.585
20487TIP3    H261339   6.332   7.448   6.489
20488TIP3   OH261340   6.478   6.457   6.973
20488TIP3    H161341   6.540   6.525   6.948
20488TIP3    H261342   6.500   6.437   7.064
20489TIP3   OH261343   6.754   6.727   7.752
20489TIP3    H161344   6.788   6.773   7.829
20489TIP3    H261345   6.806   6.647   7.746
20490TIP3   OH261346   6.643   6.158   7.062
20490TIP3    H161347   6.621   6.236   7.114
20490TIP3    H261348   6.712   6.187   7.002
20491TIP3   OH261349   6.062   7.467   6.625
20491TIP3    H161350   6.043   7.541   6.567
20491TIP3    H261351   6.049   7.502   6.713
20492TIP3   OH261352   6.152   6.176   6.866
20492TIP3    H161353   6.138   6.264   6.902
20492TIP3    H261354   6.247   6.163   6.875
20493TIP3   OH261355   7.402   6.611   7.713
20493TIP3    H161356   7.310   6.632   7.731
20493TIP3    H261357   7.398   6.549   7.641
20494TIP3   OH261358   7.052   6.855   7.128
20494TIP3    H161359   6.975   6.799   7.136
20494TIP3    H261360   7.120   6.811   7.179
20495TIP3   OH261361   5.796   7.056   6.608
20495TIP3    H161362   5.868   7.119   6.617
20495TIP3    H261363   5.828   6.993   6.543
20496TIP3   OH261364   5.701   6.352   6.737
20496TIP3    H161365   5.711   6.446   6.746
20496TIP3    H261366   5.630   6.341   6.674
20497TIP3   OH261367   7.035   7.830   7.067
20497TIP3    H161368   6.994   7.890   7.005
20497TIP3    H261369   7.129   7.840   7.052
20498TIP3   OH261370   5.622   7.328   7.000
20498TIP3    H161371   5.580   7.364   7.078
20498TIP3    H261372   5.579   7.372   6.927
20499TIP3   OH261373   2.542   3.218  -0.004
20499TIP3    H161374   2.598   3.233   0.072
20499TIP3    H261375   2.531   3.123  -0.008
20500TIP3   OH261376   3.006   3.075   0.113
20500TIP3    H161377   3.093   3.036   0.121
20500TIP3    H261378   2.972   3.040   0.031
20501TIP3   OH261379   6.249   7.368   6.220
20501TIP3    H161380   6.199   7.300   6.266
20501TIP3    H261381   6.322   7.321   6.180
20502TIP3   OH261382   6.866   7.772   7.739
20502TIP3    H161383   6.797   7.752   7.802
20502TIP3    H261384   6.947   7.750   7.784
20503TIP3   OH261385   6.691   7.416   6.152
20503TIP3    H161386   6.721   7.350   6.215
20503TIP3    H261387   6.749   7.404   6.076
20504TIP3   OH261388   2.656   2.635   0.249
20504TIP3    H161389   2.650   2.553   0.298
20504TIP3    H261390   2.571   2.642   0.204
20505TIP3   OH261391   5.919   6.870   6.450
20505TIP3    H161392   5.969   6.844   6.527
20505TIP3    H261393   5.984   6.883   6.382
20506TIP3   OH261394   6.479   7.297   7.982
20506TIP3    H161395   6.458   7.327   7.893
20506TIP3    H261396   6.514   7.209   7.970
20507TIP3   OH261397   6.485   7.090   6.286
20507TIP3    H161398   6.465   7.101   6.379
20507TIP3    H261399   6.470   6.997   6.268
20508TIP3   OH261400   7.017   7.383   7.597
20508TIP3    H161401   7.094   7.423   7.558
20508TIP3    H261402   6.946   7.444   7.577
20509TIP3   OH261403   2.794   2.287   0.201
20509TIP3    H161404   2.888   2.300   0.185
20509TIP3    H261405   2.777   2.334   0.282
20510TIP3   OH261406   6.091   6.810   6.663
20510TIP3    H161407   6.069   6.781   6.752
20510TIP3    H261408   6.138   6.736   6.625
20511TIP3   OH261409   6.363   6.854   7.878
20511TIP3    H161410   6.296   6.920   7.895
20511TIP3    H261411   6.422   6.896   7.815
20512TIP3   OH261412   6.234   6.627   6.505
20512TIP3    H161413   6.207   6.634   6.413
20512TIP3    H261414   6.330   6.633   6.502
20513TIP3   OH261415   3.560   2.553   0.026
20513TIP3    H161416   3.604   2.479  -0.015
20513TIP3    H261417   3.593   2.553   0.116
20514TIP3   OH261418   7.031   6.923   6.175
20514TIP3    H161419   7.012   6.883   6.090
20514TIP3    H261420   7.008   7.015   6.164
20515TIP3   OH261421   6.509   6.663   8.008
20515TIP3    H161422   6.516   6.587   7.950
20515TIP3    H261423   6.462   6.728   7.956
20516TIP3   OH261424   6.525   6.457   7.818
20516TIP3    H161425   6.545   6.486   7.729
20516TIP3    H261426   6.431   6.437   7.816
20517TIP3   OH261427   6.538   6.986   7.698
20517TIP3    H161428   6.617   6.985   7.644
20517TIP3    H261429   6.478   7.046   7.652
20518TIP3   OH261430   7.146   6.828   7.940
20518TIP3    H161431   7.136   6.797   8.030
20518TIP3    H261432   7.148   6.924   7.947
20519TIP3   OH261433   7.168   7.281   7.797
20519TIP3    H161434   7.101   7.321   7.740
20519TIP3    H261435   7.195   7.203   7.750
20520TIP3   OH261436   3.087   2.113   0.234
20520TIP3    H161437   3.031   2.038   0.252
20520TIP3    H261438   3.128   2.093   0.150
20521TIP3   OH261439   6.596   6.200   7.902
20521TIP3    H161440   6.566   6.287   7.874
20521TIP3    H261441   6.526   6.141   7.876
20522TIP3   OH261442   3.486   2.078   0.127
20522TIP3    H161443   3.464   2.043   0.213
20522TIP3    H261444   3.410   2.059   0.073
20523TIP3   OH261445   3.698   1.973  -0.029
20523TIP3    H161446   3.627   1.983   0.035
20523TIP3    H261447   3.775   1.953   0.023
20524TIP3   OH261448   3.961   1.951   0.142
20524TIP3    H161449   3.974   1.857   0.128
20524TIP3    H261450   3.889   1.957   0.204
20525TIP3   OH261451   2.944   1.895   0.321
20525TIP3    H161452   2.942   1.812   0.273
20525TIP3    H261453   2.978   1.873   0.407
20526TIP3   OH261454   3.405   1.566   0.165
20526TIP3    H161455   3.476   1.502   0.157
20526TIP3    H261456   3.367   1.570   0.077
20527TIP3   OH261457   3.498   1.791   0.291
20527TIP3    H161458   3.463   1.716   0.243
20527TIP3    H261459   3.423   1.850   0.303
20528TIP3   OH261460   6.069   7.685   6.450
20528TIP3    H161461   6.153   7.655   6.414
20528TIP3    H261462   6.025   7.726   6.376
20529TIP3   OH261463   5.523   7.059   6.612
20529TIP3    H161464   5.618   7.067   6.616
20529TIP3    H261465   5.507   6.971   6.578
20530TIP3   OH261466   5.425   7.636   7.084
20530TIP3    H161467   5.359   7.582   7.040
20530TIP3    H261468   5.469   7.576   7.144
20531TIP3   OH261469   5.569   7.471   7.252
20531TIP3    H161470   5.563   7.401   7.317
20531TIP3    H261471   5.619   7.540   7.294
20532TIP3   OH261472   7.305   7.878   7.048
20532TIP3    H161473   7.330   7.896   7.139
20532TIP3    H261474   7.371   7.923   6.996
20533TIP3   OH261475   7.335   7.894   7.324
20533TIP3    H161476   7.284   7.813   7.316
20533TIP3    H261477   7.397   7.877   7.394
20534TIP3   OH261478   7.375   7.696   7.817
20534TIP3    H161479   7.357   7.611   7.858
20534TIP3    H261480   7.464   7.717   7.844
20535TIP3   OH261481   7.196   7.117   6.522
20535TIP3    H161482   7.258   7.183   6.492
20535TIP3    H261483   7.239   7.076   6.598
20536TIP3   OH261484   7.327   6.979   6.724
20536TIP3    H161485   7.260   6.940   6.781
20536TIP3    H261486   7.392   7.015   6.784
20537TIP3   OH261487   7.368   7.384   7.156
20537TIP3    H161488   7.423   7.319   7.113
20537TIP3    H261489   7.369   7.460   7.097
20538TIP3   OH261490   7.181   7.666   7.323
20538TIP3    H161491   7.116   7.715   7.372
20538TIP3    H261492   7.132   7.622   7.254
20539TIP3   OH261493   7.235   6.897   6.361
20539TIP3    H161494   7.166   6.897   6.294
20539TIP3    H261495   7.215   6.973   6.416
20540TIP3   OH261496   7.094   6.545   6.303
20540TIP3    H161497   7.047   6.581   6.228
20540TIP3    H261498   7.083   6.451   6.295
20541TIP3   OH261499   7.125   6.841   6.860
20541TIP3    H161500   7.127   6.746   6.845
20541TIP3    H261501   7.104   6.851   6.953
20542TIP3   OH261502   5.739   6.909   7.633
20542TIP3    H161503   5.729   6.867   7.548
20542TIP3    H261504   5.832   6.902   7.653
20543TIP3   OH261505   7.453   7.248   7.651
20543TIP3    H161506   7.516   7.179   7.671
20543TIP3    H261507   7.505   7.320   7.617
20544TIP3   OH261508   7.603   7.028   7.682
20544TIP3    H161509   7.519   6.990   7.707
20544TIP3    H261510   7.668   6.962   7.709
20545TIP3   OH261511   7.050   6.275   6.280
20545TIP3    H161512   7.114   6.247   6.345
20545TIP3    H261513   6.968   6.237   6.309
20546TIP3   OH261514   7.120   6.565   6.743
20546TIP3    H161515   7.165   6.482   6.755
20546TIP3    H261516   7.161   6.604   6.666
20547TIP3   OH261517   7.268   6.722   7.250
20547TIP3    H161518   7.349   6.737   7.201
20547TIP3    H261519   7.285   6.758   7.337
20548TIP3   OH261520   7.350   6.862   7.474
20548TIP3    H161521   7.270   6.878   7.525
20548TIP3    H261522   7.374   6.948   7.439
20549TIP3   OH261523   2.678   1.962   0.272
20549TIP3    H161524   2.774   1.955   0.276
20549TIP3    H261525   2.647   1.878   0.306
20550TIP3   OH261526   7.771   6.419   8.009
20550TIP3    H161527   7.821   6.365   7.947
20550TIP3    H261528   7.742   6.494   7.957
20551TIP3   OH261529   7.235   6.315   6.795
20551TIP3    H161530   7.277   6.300   6.880
20551TIP3    H261531   7.171   6.244   6.788
20552TIP3   OH261532   5.949   6.251   7.645
20552TIP3    H161533   5.991   6.166   7.657
20552TIP3    H261534   6.020   6.309   7.617
20553TIP3   OH261535   5.723   6.559   7.686
20553TIP3    H161536   5.774   6.549   7.605
20553TIP3    H261537   5.771   6.626   7.736
20554TIP3   OH261538   7.649   6.569   7.817
20554TIP3    H161539   7.563   6.609   7.807
20554TIP3    H261540   7.646   6.492   7.760
20555TIP3   OH261541   7.280   6.226   6.435
20555TIP3    H161542   7.327   6.166   6.377
20555TIP3    H261543   7.334   6.305   6.438
20556TIP3   OH261544   5.693   6.044   7.175
20556TIP3    H161545   5.613   6.049   7.227
20556TIP3    H261546   5.683   6.113   7.109
20557TIP3   OH261547   2.682   1.555   0.035
20557TIP3    H161548   2.628   1.513   0.101
20557TIP3    H261549   2.622   1.575  -0.037
20558TIP3   OH261550   2.682   2.943   0.034
20558TIP3    H161551   2.589   2.926   0.046
20558TIP3    H261552   2.712   2.974   0.120
20559TIP3   OH261553   6.159   7.619   7.608
20559TIP3    H161554   6.107   7.695   7.580
20559TIP3    H261555   6.244   7.632   7.567
20560TIP3   OH261556   6.572   7.832   7.686
20560TIP3    H161557   6.601   7.815   7.775
20560TIP3    H261558   6.628   7.904   7.656
20561TIP3   OH261559   6.760   8.021   7.610
20561TIP3    H161560   6.804   7.942   7.579
20561TIP3    H261561   6.819   8.057   7.676
20562TIP3   OH261562   7.574   6.339   7.681
20562TIP3    H161563   7.488   6.341   7.639
20562TIP3    H261564   7.597   6.246   7.684
20563TIP3   OH261565   5.815   7.840   7.657
20563TIP3    H161566   5.726   7.860   7.627
20563TIP3    H261567   5.832   7.904   7.725
20564TIP3   OH261568   6.050   7.853   7.516
20564TIP3    H161569   5.966   7.851   7.561
20564TIP3    H261570   6.029   7.882   7.427
20565TIP3   OH261571   6.477   7.888   7.313
20565TIP3    H161572   6.401   7.894   7.256
20565TIP3    H261573   6.483   7.973   7.356
20566TIP3   OH261574   6.743   7.828   7.363
20566TIP3    H161575   6.649   7.837   7.348
20566TIP3    H261576   6.783   7.897   7.310
20567TIP3   OH261577   6.962   8.015   7.261
20567TIP3    H161578   6.946   8.097   7.214
20567TIP3    H261579   6.982   7.952   7.192
20568TIP3   OH261580   5.741   7.649   7.394
20568TIP3    H161581   5.761   7.622   7.483
20568TIP3    H261582   5.814   7.616   7.342
20569TIP3   OH261583   5.944   7.535   7.255
20569TIP3    H161584   5.955   7.450   7.298
20569TIP3    H261585   6.031   7.575   7.257
20570TIP3   OH261586   6.209   7.621   7.263
20570TIP3    H161587   6.229   7.528   7.250
20570TIP3    H261588   6.262   7.647   7.338
20571TIP3   OH261589   6.777   6.272   7.365
20571TIP3    H161590   6.735   6.201   7.414
20571TIP3    H261591   6.845   6.228   7.314
20572TIP3   OH261592   7.275   6.188   7.257
20572TIP3    H161593   7.310   6.239   7.183
20572TIP3    H261594   7.181   6.205   7.256
20573TIP3   OH261595   7.391   6.264   7.019
20573TIP3    H161596   7.461   6.205   6.992
20573TIP3    H261597   7.426   6.352   7.006
20574TIP3   OH261598   5.967   6.029   7.381
20574TIP3    H161599   5.901   5.960   7.379
20574TIP3    H261600   6.016   6.014   7.461
20575TIP3   OH261601   5.805   5.858   7.004
20575TIP3    H161602   5.842   5.913   6.934
20575TIP3    H261603   5.773   5.920   7.069
20576TIP3   OH261604   6.494   6.013   7.250
20576TIP3    H161605   6.543   6.062   7.184
20576TIP3    H261606   6.535   6.037   7.333
20577TIP3   OH261607   6.992   6.157   7.233
20577TIP3    H161608   6.996   6.120   7.145
20577TIP3    H261609   6.995   6.081   7.291
20578TIP3   OH261610   7.049   6.104   6.805
20578TIP3    H161611   6.969   6.151   6.828
20578TIP3    H261612   7.038   6.017   6.842
20579TIP3   OH261613   5.506   7.450   6.782
20579TIP3    H161614   5.422   7.417   6.750
20579TIP3    H261615   5.511   7.540   6.749
20580TIP3   OH261616   5.940   6.006   6.782
20580TIP3    H161617   5.987   5.943   6.727
20580TIP3    H261618   6.008   6.062   6.819
20581TIP3   OH261619   6.428   6.205   6.878
20581TIP3    H161620   6.484   6.150   6.933
20581TIP3    H261621   6.444   6.294   6.908
20582TIP3   OH261622   6.311   7.590   6.365
20582TIP3    H161623   6.395   7.618   6.327
20582TIP3    H261624   6.282   7.519   6.308
20583TIP3   OH261625   2.970   1.624   0.255
20583TIP3    H161626   2.933   1.557   0.313
20583TIP3    H261627   3.062   1.629   0.280
20584TIP3   OH261628   3.219   1.616   0.370
20584TIP3    H161629   3.287   1.591   0.307
20584TIP3    H261630   3.222   1.547   0.436
20585TIP3   OH261631   5.621   7.439   6.429
20585TIP3    H161632   5.623   7.446   6.524
20585TIP3    H261633   5.701   7.392   6.406
20586TIP3   OH261634   4.009   1.681   0.124
20586TIP3    H161635   4.021   1.644   0.211
20586TIP3    H261636   4.096   1.683   0.086
20587TIP3   OH261637   7.202   7.879   7.646
20587TIP3    H161638   7.132   7.849   7.588
20587TIP3    H261639   7.192   7.974   7.650
20588TIP3   OH261640   8.504   7.270   6.408
20588TIP3    H161641   8.477   7.357   6.379
20588TIP3    H261642   8.435   7.211   6.378
20589TIP3   OH261643   8.454   7.249   6.809
20589TIP3    H161644   8.494   7.230   6.893
20589TIP3    H261645   8.416   7.166   6.781
20590TIP3   OH261646   7.802   7.121   7.168
20590TIP3    H161647   7.835   7.066   7.239
20590TIP3    H261648   7.881   7.151   7.122
20591TIP3   OH261649   8.741   7.547   6.497
20591TIP3    H161650   8.719   7.474   6.555
20591TIP3    H261651   8.759   7.620   6.556
20592TIP3   OH261652   7.792   7.549   6.844
20592TIP3    H161653   7.774   7.456   6.861
20592TIP3    H261654   7.887   7.556   6.850
20593TIP3   OH261655   7.479   6.759   6.638
20593TIP3    H161656   7.438   6.841   6.665
20593TIP3    H261657   7.408   6.708   6.598
20594TIP3   OH261658   7.560   7.063   6.858
20594TIP3    H161659   7.610   6.987   6.887
20594TIP3    H261660   7.627   7.128   6.835
20595TIP3   OH261661   8.445   7.981   6.530
20595TIP3    H161662   8.466   7.921   6.458
20595TIP3    H261663   8.455   7.929   6.609
20596TIP3   OH261664   8.305   7.486   6.817
20596TIP3    H161665   8.342   7.399   6.798
20596TIP3    H261666   8.381   7.544   6.820
20597TIP3   OH261667   9.268   6.801   6.817
20597TIP3    H161668   9.289   6.888   6.786
20597TIP3    H261669   9.321   6.742   6.763
20598TIP3   OH261670   8.704   6.972   6.879
20598TIP3    H161671   8.758   6.898   6.907
20598TIP3    H261672   8.682   6.953   6.788
20599TIP3   OH261673   8.075   6.622   6.813
20599TIP3    H161674   8.050   6.699   6.761
20599TIP3    H261675   8.015   6.553   6.783
20600TIP3   OH261676   8.761   6.737   6.457
20600TIP3    H161677   8.828   6.727   6.524
20600TIP3    H261678   8.808   6.770   6.381
20601TIP3   OH261679   7.701   6.844   6.953
20601TIP3    H161680   7.783   6.823   6.997
20601TIP3    H261681   7.701   6.790   6.873
20602TIP3   OH261682   8.119   7.039   6.765
20602TIP3    H161683   8.212   7.016   6.770
20602TIP3    H261684   8.077   6.960   6.732
20603TIP3   OH261685   8.056   6.626   7.272
20603TIP3    H161686   8.004   6.662   7.200
20603TIP3    H261687   8.000   6.637   7.349
20604TIP3   OH261688   8.405   7.484   6.262
20604TIP3    H161689   8.362   7.454   6.182
20604TIP3    H261690   8.356   7.562   6.288
20605TIP3   OH261691   8.164   7.400   7.041
20605TIP3    H161692   8.102   7.463   7.077
20605TIP3    H261693   8.203   7.444   6.966
20606TIP3   OH261694   8.945   6.738   6.653
20606TIP3    H161695   8.985   6.672   6.710
20606TIP3    H261696   8.982   6.821   6.683
20607TIP3   OH261697   7.949   6.733   7.039
20607TIP3    H161698   8.003   6.809   7.063
20607TIP3    H261699   7.996   6.692   6.967
20608TIP3   OH261700   7.979   7.583   7.130
20608TIP3    H161701   7.980   7.674   7.101
20608TIP3    H261702   7.896   7.573   7.175
20609TIP3   OH261703   7.374   7.294   6.402
20609TIP3    H161704   7.338   7.308   6.314
20609TIP3    H261705   7.387   7.383   6.436
20610TIP3   OH261706   9.102   6.671   7.015
20610TIP3    H161707   9.013   6.692   6.985
20610TIP3    H261708   9.159   6.710   6.949
20611TIP3   OH261709   8.461   6.367   7.074
20611TIP3    H161710   8.455   6.298   7.007
20611TIP3    H261711   8.370   6.391   7.091
20612TIP3   OH261712   8.522   7.852   6.293
20612TIP3    H161713   8.577   7.775   6.278
20612TIP3    H261714   8.578   7.926   6.272
20613TIP3   OH261715   8.663   7.626   6.245
20613TIP3    H161716   8.600   7.558   6.219
20613TIP3    H261717   8.701   7.593   6.327
20614TIP3   OH261718   8.335   7.109   6.256
20614TIP3    H161719   8.251   7.152   6.237
20614TIP3    H261720   8.379   7.106   6.171
20615TIP3   OH261721   8.302   6.914   5.943
20615TIP3    H161722   8.369   6.963   5.992
20615TIP3    H261723   8.351   6.847   5.896
20616TIP3   OH261724   8.686   7.201   6.214
20616TIP3    H161725   8.633   7.228   6.289
20616TIP3    H261726   8.770   7.174   6.253
20617TIP3   OH261727   7.919   7.176   6.621
20617TIP3    H161728   7.882   7.115   6.557
20617TIP3    H261729   7.993   7.128   6.658
20618TIP3   OH261730   8.058   7.606   6.760
20618TIP3    H161731   8.032   7.592   6.669
20618TIP3    H261732   8.143   7.564   6.768
20619TIP3   OH261733   8.024   7.169   6.992
20619TIP3    H161734   8.059   7.134   6.910
20619TIP3    H261735   8.074   7.249   7.008
20620TIP3   OH261736   8.515   7.833   6.759
20620TIP3    H161737   8.595   7.877   6.788
20620TIP3    H261738   8.527   7.742   6.786
20621TIP3   OH261739   8.054   7.724   7.363
20621TIP3    H161740   8.022   7.808   7.330
20621TIP3    H261741   8.054   7.666   7.287
20622TIP3   OH261742   8.522   7.057   6.046
20622TIP3    H161743   8.580   7.116   6.093
20622TIP3    H261744   8.552   7.062   5.955
20623TIP3   OH261745   7.949   7.249   7.446
20623TIP3    H161746   7.964   7.339   7.474
20623TIP3    H261747   7.854   7.242   7.437
20624TIP3   OH261748   8.275   7.727   6.298
20624TIP3    H161749   8.355   7.779   6.306
20624TIP3    H261750   8.214   7.784   6.250
20625TIP3   OH261751   9.034   6.287   6.112
20625TIP3    H161752   8.955   6.308   6.162
20625TIP3    H261753   9.046   6.362   6.054
20626TIP3   OH261754   7.797   7.014   6.423
20626TIP3    H161755   7.721   7.062   6.390
20626TIP3    H261756   7.764   6.925   6.438
20627TIP3   OH261757   8.861   7.658   5.654
20627TIP3    H161758   8.856   7.753   5.638
20627TIP3    H261759   8.949   7.634   5.627
20628TIP3   OH261760   7.575   7.420   7.347
20628TIP3    H161761   7.503   7.404   7.285
20628TIP3    H261762   7.612   7.333   7.363
20629TIP3   OH261763   7.411   7.617   7.003
20629TIP3    H161764   7.502   7.644   7.016
20629TIP3    H261765   7.360   7.695   7.026
20630TIP3   OH261766   8.156   7.932   6.130
20630TIP3    H161767   8.113   7.918   6.045
20630TIP3    H261768   8.125   8.018   6.159
20631TIP3   OH261769   7.573   7.789   6.513
20631TIP3    H161770   7.627   7.786   6.592
20631TIP3    H261771   7.516   7.712   6.520
20632TIP3   OH261772   8.361   7.882   5.762
20632TIP3    H161773   8.413   7.811   5.725
20632TIP3    H261774   8.396   7.893   5.851
20633TIP3   OH261775   8.414   7.919   6.035
20633TIP3    H161776   8.324   7.924   6.069
20633TIP3    H261777   8.465   7.881   6.106
20634TIP3   OH261778   7.745   7.622   7.272
20634TIP3    H161779   7.752   7.672   7.354
20634TIP3    H261780   7.687   7.549   7.294
20635TIP3   OH261781   8.175   6.418   7.128
20635TIP3    H161782   8.095   6.382   7.091
20635TIP3    H261783   8.146   6.495   7.178
20636TIP3   OH261784   8.687   6.528   7.362
20636TIP3    H161785   8.778   6.510   7.384
20636TIP3    H261786   8.641   6.529   7.446
20637TIP3   OH261787   8.604   7.041   5.785
20637TIP3    H161788   8.556   7.043   5.702
20637TIP3    H261789   8.686   7.087   5.766
20638TIP3   OH261790   8.312   6.455   6.101
20638TIP3    H161791   8.272   6.464   6.188
20638TIP3    H261792   8.275   6.374   6.066
20639TIP3   OH261793   8.099   6.944   7.135
20639TIP3    H161794   8.054   6.949   7.219
20639TIP3    H261795   8.075   7.025   7.089
20640TIP3   OH261796   7.975   6.827   6.663
20640TIP3    H161797   7.885   6.803   6.687
20640TIP3    H261798   7.984   6.796   6.573
20641TIP3   OH261799   8.459   6.905   6.393
20641TIP3    H161800   8.411   6.977   6.352
20641TIP3    H261801   8.517   6.872   6.324
20642TIP3   OH261802   8.621   6.919   6.620
20642TIP3    H161803   8.554   6.940   6.555
20642TIP3    H261804   8.670   6.846   6.582
20643TIP3   OH261805   7.932   6.949   7.356
20643TIP3    H161806   7.949   7.013   7.425
20643TIP3    H261807   7.912   6.868   7.403
20644TIP3   OH261808   7.979   6.441   6.082
20644TIP3    H161809   7.967   6.445   6.177
20644TIP3    H261810   7.901   6.481   6.045
20645TIP3   OH261811   7.518   6.488   6.938
20645TIP3    H161812   7.596   6.516   6.984
20645TIP3    H261813   7.549   6.460   6.852
20646TIP3   OH261814   7.432   6.460   6.447
20646TIP3    H161815   7.477   6.494   6.369
20646TIP3    H261816   7.368   6.528   6.469
20647TIP3   OH261817   8.570   7.155   7.039
20647TIP3    H161818   8.626   7.104   6.981
20647TIP3    H261819   8.570   7.106   7.122
20648TIP3   OH261820   8.340   6.617   6.720
20648TIP3    H161821   8.255   6.622   6.764
20648TIP3    H261822   8.403   6.650   6.783
20649TIP3   OH261823   7.736   6.702   6.719
20649TIP3    H161824   7.647   6.713   6.684
20649TIP3    H261825   7.757   6.610   6.701
20650TIP3   OH261826   7.994   6.709   6.416
20650TIP3    H161827   8.088   6.718   6.403
20650TIP3    H261828   7.956   6.725   6.330
20651TIP3   OH261829   8.824   6.731   6.961
20651TIP3    H161830   8.792   6.740   7.051
20651TIP3    H261831   8.761   6.671   6.920
20652TIP3   OH261832   7.878   6.729   6.170
20652TIP3    H161833   7.815   6.679   6.118
20652TIP3    H261834   7.932   6.775   6.104
20653TIP3   OH261835   7.980   7.519   7.532
20653TIP3    H161836   8.000   7.595   7.478
20653TIP3    H261837   7.902   7.543   7.582
20654TIP3   OH261838   8.387   6.970   6.808
20654TIP3    H161839   8.469   6.942   6.768
20654TIP3    H261840   8.391   6.934   6.897
20655TIP3   OH261841   7.893   6.444   6.698
20655TIP3    H161842   7.861   6.371   6.750
20655TIP3    H261843   7.893   6.412   6.608
20656TIP3   OH261844   8.361   6.873   7.078
20656TIP3    H161845   8.275   6.908   7.100
20656TIP3    H261846   8.422   6.922   7.133
20657TIP3   OH261847   8.095   7.241   6.201
20657TIP3    H161848   8.021   7.186   6.177
20657TIP3    H261849   8.069   7.283   6.283
20658TIP3   OH261850   8.563   6.560   6.110
20658TIP3    H161851   8.471   6.537   6.102
20658TIP3    H261852   8.564   6.655   6.117
20659TIP3   OH261853   8.619   6.828   6.174
20659TIP3    H161854   8.715   6.832   6.181
20659TIP3    H261855   8.596   6.904   6.122
20660TIP3   OH261856   7.786   7.256   6.850
20660TIP3    H161857   7.826   7.239   6.765
20660TIP3    H261858   7.852   7.226   6.913
20661TIP3   OH261859   8.248   7.402   6.043
20661TIP3    H161860   8.199   7.485   6.039
20661TIP3    H261861   8.192   7.344   6.096
20662TIP3   OH261862   7.670   7.176   7.458
20662TIP3    H161863   7.673   7.132   7.543
20662TIP3    H261864   7.595   7.138   7.413
20663TIP3   OH261865   8.407   7.320   7.490
20663TIP3    H161866   8.358   7.238   7.499
20663TIP3    H261867   8.414   7.333   7.395
20664TIP3   OH261868   9.036   6.912   5.990
20664TIP3    H161869   8.980   6.866   5.927
20664TIP3    H261870   9.041   7.002   5.958
20665TIP3   OH261871   8.769   7.712   5.919
20665TIP3    H161872   8.744   7.638   5.974
20665TIP3    H261873   8.794   7.673   5.835
20666TIP3   OH261874   8.689   7.364   6.703
20666TIP3    H161875   8.605   7.320   6.717
20666TIP3    H261876   8.748   7.294   6.674
20667TIP3   OH261877   7.913   7.603   6.519
20667TIP3    H161878   7.906   7.677   6.459
20667TIP3    H261879   7.831   7.602   6.567
20668TIP3   OH261880   7.480   6.881   6.234
20668TIP3    H161881   7.522   6.964   6.255
20668TIP3    H261882   7.396   6.883   6.281
20669TIP3   OH261883   7.997   7.358   6.424
20669TIP3    H161884   7.979   7.447   6.453
20669TIP3    H261885   7.971   7.302   6.498
20670TIP3   OH261886   8.190   7.961   6.955
20670TIP3    H161887   8.206   8.055   6.948
20670TIP3    H261888   8.276   7.921   6.945
20671TIP3   OH261889   7.814   7.821   6.368
20671TIP3    H161890   7.727   7.824   6.409
20671TIP3    H261891   7.843   7.912   6.367
20672TIP3   OH261892   8.575   7.576   6.852
20672TIP3    H161893   8.593   7.551   6.943
20672TIP3    H261894   8.620   7.511   6.799
20673TIP3   OH261895   8.541   7.467   5.809
20673TIP3    H161896   8.586   7.445   5.891
20673TIP3    H261897   8.457   7.421   5.814
20674TIP3   OH261898   8.866   7.933   5.628
20674TIP3    H161899   8.913   8.006   5.590
20674TIP3    H261900   8.783   7.970   5.658
20675TIP3   OH261901   7.880   6.687   7.475
20675TIP3    H161902   7.786   6.701   7.483
20675TIP3    H261903   7.902   6.629   7.548
20676TIP3   OH261904   8.702   7.400   6.020
20676TIP3    H161905   8.686   7.338   6.092
20676TIP3    H261906   8.797   7.399   6.009
20677TIP3   OH261907   7.609   7.807   7.112
20677TIP3    H161908   7.664   7.747   7.162
20677TIP3    H261909   7.623   7.892   7.154
20678TIP3   OH261910   7.895   7.429   5.828
20678TIP3    H161911   7.905   7.338   5.802
20678TIP3    H261912   7.881   7.426   5.923
20679TIP3   OH261913   7.836   7.448   6.101
20679TIP3    H161914   7.902   7.422   6.166
20679TIP3    H261915   7.835   7.543   6.105
20680TIP3   OH261916   7.576   7.133   6.307
20680TIP3    H161917   7.509   7.177   6.359
20680TIP3    H261918   7.594   7.193   6.235
20681TIP3   OH261919   8.747   6.763   7.226
20681TIP3    H161920   8.822   6.793   7.277
20681TIP3    H261921   8.714   6.687   7.275
20682TIP3   OH261922   8.614   6.516   6.379
20682TIP3    H161923   8.592   6.532   6.287
20682TIP3    H261924   8.657   6.596   6.408
20683TIP3   OH261925   8.100   7.629   6.034
20683TIP3    H161926   8.017   7.656   6.074
20683TIP3    H261927   8.127   7.703   5.981
20684TIP3   OH261928   8.276   6.710   6.461
20684TIP3    H161929   8.337   6.780   6.435
20684TIP3    H261930   8.298   6.692   6.552
20685TIP3   OH261931   8.563   6.973   7.241
20685TIP3    H161932   8.560   6.985   7.336
20685TIP3    H261933   8.627   6.902   7.228
20686TIP3   OH261934   8.430   6.410   6.556
20686TIP3    H161935   8.407   6.486   6.608
20686TIP3    H261936   8.497   6.441   6.495
20687TIP3   OH261937   7.852   7.720   6.116
20687TIP3    H161938   7.835   7.792   6.055
20687TIP3    H261939   7.840   7.759   6.202
20688TIP3   OH261940   7.946   6.434   6.364
20688TIP3    H161941   7.935   6.526   6.389
20688TIP3    H261942   8.041   6.420   6.366
20689TIP3   OH261943   8.827   7.120   6.614
20689TIP3    H161944   8.753   7.059   6.620
20689TIP3    H261945   8.895   7.079   6.667
20690TIP3   OH261946   7.592   7.317   6.093
20690TIP3    H161947   7.666   7.378   6.102
20690TIP3    H261948   7.622   7.253   6.029
20691TIP3   OH261949   7.499   6.604   6.224
20691TIP3    H161950   7.509   6.698   6.232
20691TIP3    H261951   7.434   6.593   6.154
20692TIP3   OH261952   7.918   6.326   7.082
20692TIP3    H161953   7.880   6.295   6.999
20692TIP3    H261954   7.908   6.252   7.141
20693TIP3   OH261955   7.369   7.573   6.462
20693TIP3    H161956   7.281   7.552   6.494
20693TIP3    H261957   7.355   7.617   6.378
20694TIP3   OH261958   8.047   7.631   5.715
20694TIP3    H161959   8.001   7.561   5.761
20694TIP3    H261960   8.122   7.588   5.674
20695TIP3   OH261961   8.490   7.674   5.639
20695TIP3    H161962   8.523   7.610   5.702
20695TIP3    H261963   8.548   7.666   5.563
20696TIP3   OH261964   7.768   7.517   7.709
20696TIP3    H161965   7.780   7.422   7.718
20696TIP3    H261966   7.680   7.527   7.674
20697TIP3   OH261967   7.714   7.126   5.942
20697TIP3    H161968   7.765   7.100   6.019
20697TIP3    H261969   7.779   7.139   5.873
20698TIP3   OH261970   8.291   7.347   5.778
20698TIP3    H161971   8.266   7.357   5.870
20698TIP3    H261972   8.271   7.255   5.759
20699TIP3   OH261973   7.834   7.254   7.741
20699TIP3    H161974   7.883   7.194   7.685
20699TIP3    H261975   7.819   7.203   7.821
20700TIP3   OH261976   7.887   7.065   6.153
20700TIP3    H161977   7.867   7.032   6.241
20700TIP3    H261978   7.936   6.993   6.112
20701TIP3   OH261979   8.191   7.126   7.381
20701TIP3    H161980   8.112   7.178   7.399
20701TIP3    H261981   8.237   7.176   7.314
20702TIP3   OH261982   8.030   6.883   6.000
20702TIP3    H161983   8.000   6.886   5.909
20702TIP3    H261984   8.126   6.890   5.993
20703TIP3   OH261985   8.823   7.170   5.675
20703TIP3    H161986   8.809   7.130   5.589
20703TIP3    H261987   8.800   7.262   5.663
20704TIP3   OH261988   8.282   6.897   7.495
20704TIP3    H161989   8.293   6.821   7.437
20704TIP3    H261990   8.249   6.966   7.437
20705TIP3   OH261991   8.320   6.689   7.298
20705TIP3    H161992   8.341   6.737   7.218
20705TIP3    H261993   8.226   6.671   7.290
20706TIP3   OH261994   8.347   7.261   7.197
20706TIP3    H161995   8.418   7.238   7.138
20706TIP3    H261996   8.288   7.314   7.143
20707TIP3   OH261997   8.125   7.059   7.674
20707TIP3    H161998   8.091   6.975   7.706
20707TIP3    H261999   8.175   7.036   7.596
20708TIP3   OH262000   8.422   6.431   7.346
20708TIP3    H162001   8.386   6.520   7.348
20708TIP3    H262002   8.346   6.375   7.361
20709TIP3   OH262003   8.551   6.960   7.511
20709TIP3    H162004   8.592   6.890   7.563
20709TIP3    H262005   8.457   6.946   7.522
20710TIP3   OH262006   8.033   6.809   7.729
20710TIP3    H162007   8.074   6.733   7.687
20710TIP3    H262008   8.006   6.778   7.815
20711TIP3   OH262009   8.566   6.478   7.609
20711TIP3    H162010   8.610   6.414   7.665
20711TIP3    H262011   8.485   6.435   7.583
20712TIP3   OH262012   8.632   6.742   7.651
20712TIP3    H162013   8.604   6.651   7.638
20712TIP3    H262014   8.643   6.751   7.746
20713TIP3   OH262015   7.848   7.925   5.930
20713TIP3    H162016   7.938   7.906   5.904
20713TIP3    H262017   7.811   7.973   5.856
20714TIP3   OH262018   7.321   7.309   6.121
20714TIP3    H162019   7.415   7.322   6.112
20714TIP3    H262020   7.304   7.225   6.079
20715TIP3   OH262021   7.133   7.845   6.520
20715TIP3    H162022   7.051   7.830   6.568
20715TIP3    H262023   7.202   7.818   6.580
20716TIP3   OH262024   7.321   7.790   6.719
20716TIP3    H162025   7.309   7.708   6.767
20716TIP3    H262026   7.389   7.836   6.767
20717TIP3   OH262027   8.976   7.374   6.007
20717TIP3    H162028   9.036   7.440   5.970
20717TIP3    H262029   9.024   7.337   6.080
20718TIP3   OH262030   9.108   7.229   6.201
20718TIP3    H162031   9.040   7.192   6.257
20718TIP3    H262032   9.175   7.260   6.262
20719TIP3   OH262033   9.029   7.151   5.854
20719TIP3    H162034   8.960   7.150   5.789
20719TIP3    H262035   9.009   7.228   5.909
20720TIP3   OH262036   8.887   6.800   5.790
20720TIP3    H162037   8.838   6.838   5.716
20720TIP3    H262038   8.879   6.706   5.778
20721TIP3   OH262039   8.910   7.099   6.347
20721TIP3    H162040   8.916   7.004   6.337
20721TIP3    H262041   8.888   7.112   6.439
20722TIP3   OH262042   7.542   7.174   7.107
20722TIP3    H162043   7.532   7.139   7.018
20722TIP3    H262044   7.635   7.165   7.126
20723TIP3   OH262045   8.850   6.528   5.762
20723TIP3    H162046   8.912   6.504   5.830
20723TIP3    H262047   8.766   6.494   5.792
20724TIP3   OH262048   8.910   6.821   6.231
20724TIP3    H162049   8.956   6.739   6.246
20724TIP3    H262050   8.952   6.860   6.155
20725TIP3   OH262051   9.036   6.987   6.743
20725TIP3    H162052   9.121   7.005   6.704
20725TIP3    H262053   9.053   6.975   6.836
20726TIP3   OH262054   7.754   6.813   7.733
20726TIP3    H162055   7.850   6.820   7.733
20726TIP3    H262056   7.736   6.735   7.787
20727TIP3   OH262057   9.025   6.571   6.286
20727TIP3    H162058   9.070   6.548   6.368
20727TIP3    H262059   8.960   6.502   6.274
20728TIP3   OH262060   7.744   6.545   7.085
20728TIP3    H162061   7.798   6.468   7.100
20728TIP3    H262062   7.806   6.617   7.076
20729TIP3   OH262063   7.519   6.801   7.166
20729TIP3    H162064   7.571   6.806   7.085
20729TIP3    H262065   7.548   6.875   7.218
20730TIP3   OH262066   9.075   6.484   5.925
20730TIP3    H162067   9.122   6.424   5.868
20730TIP3    H262068   9.130   6.563   5.927
20731TIP3   OH262069   7.506   6.343   6.681
20731TIP3    H162070   7.421   6.322   6.718
20731TIP3    H262071   7.486   6.390   6.601
20732TIP3   OH262072   8.667   8.061   6.198
20732TIP3    H162073   8.692   8.025   6.113
20732TIP3    H262074   8.730   8.131   6.214
20733TIP3   OH262075   7.713   6.348   7.436
20733TIP3    H162076   7.677   6.356   7.525
20733TIP3    H262077   7.663   6.411   7.384
20734TIP3   OH262078   7.722   7.760   7.505
20734TIP3    H162079   7.632   7.790   7.515
20734TIP3    H262080   7.768   7.800   7.580
20735TIP3   OH262081   7.980   7.855   7.100
20735TIP3    H162082   7.909   7.910   7.068
20735TIP3    H262083   8.059   7.891   7.060
20736TIP3   OH262084   9.308   6.596   7.192
20736TIP3    H162085   9.237   6.633   7.139
20736TIP3    H262086   9.349   6.531   7.135
20737TIP3   OH262087   7.601   8.094   7.161
20737TIP3    H162088   7.517   8.138   7.150
20737TIP3    H262089   7.640   8.137   7.237
20738TIP3   OH262090   7.811   8.038   6.988
20738TIP3    H162091   7.735   8.066   7.039
20738TIP3    H262092   7.817   8.103   6.918
20739TIP3   OH262093   7.535   7.905   6.868
20739TIP3    H162094   7.559   7.879   6.957
20739TIP3    H262095   7.607   7.873   6.813
20740TIP3   OH262096   7.741   7.791   6.730
20740TIP3    H162097   7.752   7.709   6.779
20740TIP3    H262098   7.825   7.836   6.740
20741TIP3   OH262099   8.007   7.881   6.756
20741TIP3    H162100   8.030   7.788   6.751
20741TIP3    H262101   8.056   7.914   6.831
20742TIP3   OH262102   8.632   6.553   6.858
20742TIP3    H162103   8.573   6.486   6.894
20742TIP3    H262104   8.687   6.505   6.796
20743TIP3   OH262105   9.047   6.486   6.744
20743TIP3    H162106   9.084   6.493   6.656
20743TIP3    H262107   8.958   6.453   6.730
20744TIP3   OH262108   9.187   6.491   6.507
20744TIP3    H162109   9.260   6.439   6.473
20744TIP3    H262110   9.215   6.582   6.497
20745TIP3   OH262111   7.816   6.223   6.846
20745TIP3    H162112   7.726   6.194   6.858
20745TIP3    H262113   7.867   6.142   6.840
20746TIP3   OH262114   7.647   6.150   6.519
20746TIP3    H162115   7.662   6.194   6.436
20746TIP3    H262116   7.603   6.215   6.574
20747TIP3   OH262117   8.293   6.285   6.773
20747TIP3    H162118   8.343   6.314   6.697
20747TIP3    H262119   8.225   6.352   6.785
20748TIP3   OH262120   8.789   6.379   6.706
20748TIP3    H162121   8.769   6.350   6.617
20748TIP3    H262122   8.791   6.298   6.757
20749TIP3   OH262123   8.834   6.367   6.286
20749TIP3    H162124   8.754   6.416   6.308
20749TIP3    H262125   8.818   6.279   6.319
20750TIP3   OH262126   7.737   6.267   6.268
20750TIP3    H162127   7.782   6.204   6.212
20750TIP3    H262128   7.807   6.322   6.303
20751TIP3   OH262129   8.221   6.461   6.364
20751TIP3    H162130   8.281   6.407   6.416
20751TIP3    H262131   8.239   6.550   6.392
20752TIP3   OH262132   8.105   7.854   5.861
20752TIP3    H162133   8.189   7.882   5.823
20752TIP3    H262134   8.076   7.783   5.804
20753TIP3   OH262135   8.780   7.982   5.956
20753TIP3    H162136   8.782   7.886   5.950
20753TIP3    H262137   8.743   8.010   5.872
20754TIP3   OH262138   7.986   6.504   7.673
20754TIP3    H162139   7.950   6.454   7.747
20754TIP3    H262140   8.078   6.517   7.697
20755TIP3   OH262141   8.250   6.574   7.727
20755TIP3    H162142   8.297   6.657   7.726
20755TIP3    H262143   8.303   6.517   7.782
20756TIP3   OH262144   7.426   7.692   5.906
20756TIP3    H162145   7.450   7.717   5.995
20756TIP3    H262146   7.501   7.642   5.874
20757TIP3   OH262147   9.274   7.009   6.128
20757TIP3    H162148   9.233   7.092   6.152
20757TIP3    H262149   9.204   6.958   6.087
20758TIP3   OH262150   9.331   7.289   6.346
20758TIP3    H162151   9.381   7.217   6.386
20758TIP3    H262152   9.398   7.345   6.306
20759TIP3   OH262153   0.090   6.810   6.267
20759TIP3    H162154   0.088   6.900   6.236
20759TIP3    H262155   0.003   6.775   6.246
20760TIP3   OH262156   9.488   7.085   6.446
20760TIP3    H162157   9.573   7.075   6.488
20760TIP3    H262158   9.496   7.035   6.365
20761TIP3   OH262159   9.148   7.544   5.874
20761TIP3    H162160   9.117   7.565   5.786
20761TIP3    H262161   9.174   7.628   5.911
20762TIP3   OH262162   0.291   7.361   5.651
20762TIP3    H162163   0.230   7.434   5.653
20762TIP3    H262164   0.375   7.399   5.676
20763TIP3   OH262165   0.263   7.162   5.460
20763TIP3    H162166   0.282   7.234   5.521
20763TIP3    H262167   0.292   7.083   5.506
20764TIP3   OH262168   9.579   7.255   5.874
20764TIP3    H162169   9.500   7.307   5.853
20764TIP3    H262170   9.545   7.177   5.918
20765TIP3   OH262171   0.296   6.655   5.628
20765TIP3    H162172   0.282   6.680   5.719
20765TIP3    H262173   0.213   6.616   5.601
20766TIP3   OH262174   9.801   7.034   6.117
20766TIP3    H162175   9.716   7.034   6.162
20766TIP3    H262176   9.780   7.007   6.027
20767TIP3   OH262177   9.753   6.738   5.576
20767TIP3    H162178   9.742   6.736   5.671
20767TIP3    H262179   9.672   6.776   5.543
20768TIP3   OH262180   9.293   6.727   6.433
20768TIP3    H162181   9.369   6.765   6.478
20768TIP3    H262182   9.323   6.710   6.344
20769TIP3   OH262183   9.227   6.717   5.935
20769TIP3    H162184   9.275   6.749   5.859
20769TIP3    H262185   9.163   6.786   5.954
20770TIP3   OH262186   9.538   6.959   6.205
20770TIP3    H162187   9.450   6.967   6.169
20770TIP3    H262188   9.564   6.869   6.187
20771TIP3   OH262189   9.771   6.956   5.857
20771TIP3    H162190   9.853   6.967   5.808
20771TIP3    H262191   9.703   6.980   5.795
20772TIP3   OH262192   9.612   7.002   5.645
20772TIP3    H162193   9.552   6.949   5.592
20772TIP3    H262194   9.672   7.042   5.582
20773TIP3   OH262195   9.652   6.706   6.164
20773TIP3    H162196   9.630   6.633   6.222
20773TIP3    H262197   9.673   6.665   6.080
20774TIP3   OH262198   0.054   7.532   5.692
20774TIP3    H162199  -0.001   7.460   5.661
20774TIP3    H262200   0.049   7.528   5.787
20775TIP3   OH262201   0.629   6.889   5.552
20775TIP3    H162202   0.658   6.822   5.614
20775TIP3    H262203   0.609   6.965   5.607
20776TIP3   OH262204   9.266   7.139   5.713
20776TIP3    H162205   9.309   7.222   5.731
20776TIP3    H262206   9.186   7.141   5.766
20777TIP3   OH262207   9.750   7.668   5.325
20777TIP3    H162208   9.720   7.585   5.290
20777TIP3    H262209   9.698   7.681   5.405
20778TIP3   OH262210   9.650   7.697   5.584
20778TIP3    H162211   9.724   7.648   5.619
20778TIP3    H262212   9.666   7.787   5.612
20779TIP3   OH262213   9.358   7.392   5.783
20779TIP3    H162214   9.287   7.434   5.833
20779TIP3    H262215   9.380   7.456   5.715
20780TIP3   OH262216   0.505   6.897   5.822
20780TIP3    H162217   0.560   6.822   5.801
20780TIP3    H262218   0.507   6.903   5.918
20781TIP3   OH262219   0.247   7.037   5.963
20781TIP3    H162220   0.248   7.116   5.908
20781TIP3    H262221   0.173   7.050   6.021
20782TIP3   OH262222   0.414   6.702   6.087
20782TIP3    H162223   0.415   6.793   6.116
20782TIP3    H262224   0.505   6.684   6.061
20783TIP3   OH262225   9.748   6.682   5.857
20783TIP3    H162226   9.746   6.776   5.877
20783TIP3    H262227   9.839   6.657   5.870
20784TIP3   OH262228   9.389   7.581   5.578
20784TIP3    H162229   9.462   7.642   5.585
20784TIP3    H262230   9.419   7.517   5.513
20785TIP3   OH262231   9.294   6.862   5.711
20785TIP3    H162232   9.307   6.957   5.720
20785TIP3    H262233   9.229   6.854   5.641
20786TIP3   OH262234   9.658   6.568   6.584
20786TIP3    H162235   9.655   6.539   6.493
20786TIP3    H262236   9.673   6.488   6.634
20787TIP3   OH262237   9.214   7.795   5.955
20787TIP3    H162238   9.203   7.849   6.033
20787TIP3    H262239   9.191   7.852   5.882
20788TIP3   OH262240   0.071   7.885   5.198
20788TIP3    H162241   0.029   7.815   5.248
20788TIP3    H262242   0.150   7.844   5.163
20789TIP3   OH262243   9.503   7.384   5.428
20789TIP3    H162244   9.556   7.359   5.503
20789TIP3    H262245   9.566   7.398   5.357
20790TIP3   OH262246   0.211   7.593   5.277
20790TIP3    H162247   0.126   7.621   5.310
20790TIP3    H262248   0.201   7.500   5.260
20791TIP3   OH262249   9.686   7.326   5.632
20791TIP3    H162250   9.652   7.292   5.715
20791TIP3    H262251   9.725   7.250   5.589
20792TIP3   OH262252  -0.008   7.124   5.481
20792TIP3    H162253  -0.038   7.134   5.390
20792TIP3    H262254   0.087   7.130   5.476
20793TIP3   OH262255   7.226   7.133   7.569
20793TIP3    H162256   7.309   7.174   7.593
20793TIP3    H262257   7.195   7.184   7.494
20794TIP3   OH262258   9.114   7.570   5.586
20794TIP3    H162259   9.209   7.583   5.585
20794TIP3    H262260   9.101   7.483   5.547
20795TIP3   OH262261   8.885   8.204   6.079
20795TIP3    H162262   8.864   8.124   6.031
20795TIP3    H262263   8.981   8.202   6.087
20796TIP3   OH262264   9.505   6.795   6.600
20796TIP3    H162265   9.551   6.713   6.583
20796TIP3    H262266   9.553   6.834   6.673
20797TIP3   OH262267   9.298   7.046   6.667
20797TIP3    H162268   9.350   7.019   6.591
20797TIP3    H262269   9.309   7.141   6.670
20798TIP3   OH262270   9.287   6.597   6.173
20798TIP3    H162271   9.198   6.582   6.204
20798TIP3    H262272   9.276   6.646   6.091
20799TIP3   OH262273   9.691   6.728   6.810
20799TIP3    H162274   9.706   6.675   6.732
20799TIP3    H262275   9.682   6.664   6.881
20800TIP3   OH262276   9.604   6.486   6.322
20800TIP3    H162277   9.516   6.451   6.336
20800TIP3    H262278   9.659   6.409   6.314
20801TIP3   OH262279   9.423   6.407   6.015
20801TIP3    H162280   9.441   6.460   5.937
20801TIP3    H262281   9.383   6.467   6.076
20802TIP3   OH262282   0.219   6.562   6.229
20802TIP3    H162283   0.295   6.605   6.188
20802TIP3    H262284   0.167   6.634   6.264
20803TIP3   OH262285   9.116   7.954   5.756
20803TIP3    H162286   9.031   7.914   5.736
20803TIP3    H262287   9.112   8.040   5.715
20804TIP3   OH262288   9.508   6.555   5.785
20804TIP3    H162289   9.539   6.481   5.733
20804TIP3    H262290   9.587   6.600   5.814
20805TIP3   OH262291   0.230   6.755   5.879
20805TIP3    H162292   0.279   6.716   5.952
20805TIP3    H262293   0.241   6.850   5.891
20806TIP3   OH262294   9.200   7.955   5.402
20806TIP3    H162295   9.203   7.966   5.497
20806TIP3    H262296   9.284   7.914   5.380
20807TIP3   OH262297   8.185   2.967   0.443
20807TIP3    H162298   8.238   3.037   0.483
20807TIP3    H262299   8.221   2.957   0.355
20808TIP3   OH262300   7.630   3.181   0.597
20808TIP3    H162301   7.671   3.098   0.619
20808TIP3    H262302   7.580   3.163   0.517
20809TIP3   OH262303   7.750   2.896   0.084
20809TIP3    H162304   7.797   2.919   0.165
20809TIP3    H262305   7.806   2.928   0.014
20810TIP3   OH262306   8.355   3.295   0.793
20810TIP3    H162307   8.371   3.358   0.723
20810TIP3    H262308   8.410   3.219   0.771
20811TIP3   OH262309   7.882   2.917   0.324
20811TIP3    H162310   7.932   2.842   0.356
20811TIP3    H262311   7.946   2.969   0.275
20812TIP3   OH262312   8.078   2.902   0.700
20812TIP3    H162313   8.015   2.967   0.732
20812TIP3    H262314   8.124   2.945   0.629
20813TIP3   OH262315   0.681   6.665   6.013
20813TIP3    H162316   0.701   6.572   6.014
20813TIP3    H262317   0.742   6.703   6.076
20814TIP3   OH262318   8.201   3.520   0.422
20814TIP3    H162319   8.280   3.495   0.470
20814TIP3    H262320   8.234   3.572   0.349
20815TIP3   OH262321   1.136   8.055   7.910
20815TIP3    H162322   1.123   8.099   7.995
20815TIP3    H262323   1.209   7.995   7.926
20816TIP3   OH262324   1.053   7.837   7.733
20816TIP3    H162325   1.060   7.920   7.781
20816TIP3    H262326   1.036   7.863   7.643
20817TIP3   OH262327   1.491   7.059   7.743
20817TIP3    H162328   1.411   7.069   7.793
20817TIP3    H262329   1.501   7.143   7.697
20818TIP3   OH262330   1.317   8.459   7.346
20818TIP3    H162331   1.310   8.552   7.326
20818TIP3    H262332   1.406   8.435   7.320
20819TIP3   OH262333   7.664   2.764   1.125
20819TIP3    H162334   7.731   2.722   1.179
20819TIP3    H262335   7.589   2.705   1.129
20820TIP3   OH262336   1.044   7.872   7.457
20820TIP3    H162337   1.008   7.844   7.373
20820TIP3    H262338   1.130   7.909   7.435
20821TIP3   OH262339   7.531   3.079   0.359
20821TIP3    H162340   7.436   3.095   0.356
20821TIP3    H262341   7.564   3.120   0.279
20822TIP3   OH262342   7.739   2.928   0.610
20822TIP3    H162343   7.719   2.879   0.689
20822TIP3    H262344   7.708   2.872   0.539
20823TIP3   OH262345   0.992   7.392   7.749
20823TIP3    H162346   0.933   7.444   7.804
20823TIP3    H262347   1.063   7.452   7.728
20824TIP3   OH262348   1.169   7.592   7.702
20824TIP3    H162349   1.238   7.594   7.767
20824TIP3    H262350   1.121   7.674   7.714
20825TIP3   OH262351   1.520   7.702   7.663
20825TIP3    H162352   1.471   7.652   7.597
20825TIP3    H262353   1.506   7.793   7.638
20826TIP3   OH262354   1.211   8.483   7.605
20826TIP3    H162355   1.189   8.397   7.639
20826TIP3    H262356   1.248   8.466   7.518
20827TIP3   OH262357   1.312   8.725   7.276
20827TIP3    H162358   1.391   8.776   7.293
20827TIP3    H262359   1.262   8.779   7.215
20828TIP3   OH262360   1.175   8.212   7.669
20828TIP3    H162361   1.138   8.168   7.746
20828TIP3    H262362   1.269   8.197   7.676
20829TIP3   OH262363   7.709   2.805   0.848
20829TIP3    H162364   7.790   2.843   0.882
20829TIP3    H262365   7.661   2.776   0.926
20830TIP3   OH262366   7.598   2.640   0.003
20830TIP3    H162367   7.555   2.681  -0.073
20830TIP3    H262368   7.531   2.640   0.071
20831TIP3   OH262369   8.173   3.058   0.928
20831TIP3    H162370   8.084   3.047   0.961
20831TIP3    H262371   8.175   3.007   0.847
20832TIP3   OH262372   7.823   3.305   0.294
20832TIP3    H162373   7.754   3.263   0.243
20832TIP3    H262374   7.858   3.235   0.349
20833TIP3   OH262375   1.283   7.984   7.349
20833TIP3    H162376   1.262   7.945   7.264
20833TIP3    H262377   1.243   8.071   7.346
20834TIP3   OH262378   1.445   8.170   7.693
20834TIP3    H162379   1.503   8.236   7.656
20834TIP3    H262380   1.495   8.132   7.765
20835TIP3   OH262381   1.609   8.036   7.872
20835TIP3    H162382   1.570   8.016   7.957
20835TIP3    H262383   1.689   8.084   7.893
20836TIP3   OH262384   1.470   7.943   7.544
20836TIP3    H162385   1.398   7.948   7.481
20836TIP3    H262386   1.456   8.018   7.602
20837TIP3   OH262387   1.393   7.586   7.454
20837TIP3    H162388   1.314   7.632   7.426
20837TIP3    H262389   1.372   7.493   7.443
20838TIP3   OH262390   7.861   3.250  -0.002
20838TIP3    H162391   7.898   3.164  -0.020
20838TIP3    H262392   7.916   3.287   0.067
20839TIP3   OH262393   1.297   7.323   7.423
20839TIP3    H162394   1.363   7.301   7.489
20839TIP3    H262395   1.216   7.286   7.457
20840TIP3   OH262396   1.391   7.591   7.881
20840TIP3    H162397   1.424   7.501   7.879
20840TIP3    H262398   1.439   7.636   7.812
20841TIP3   OH262399   8.138   3.254   0.375
20841TIP3    H162400   8.221   3.226   0.412
20841TIP3    H262401   8.125   3.342   0.409
20842TIP3   OH262402   8.689   2.924   1.149
20842TIP3    H162403   8.732   2.839   1.134
20842TIP3    H262404   8.611   2.922   1.094
20843TIP3   OH262405   1.483   7.329   7.896
20843TIP3    H162406   1.504   7.341   7.988
20843TIP3    H262407   1.418   7.259   7.896
20844TIP3   OH262408   8.463   2.999   1.010
20844TIP3    H162409   8.414   3.081   1.004
20844TIP3    H262410   8.407   2.934   0.967
20845TIP3   OH262411   1.524   7.283   7.576
20845TIP3    H162412   1.571   7.218   7.523
20845TIP3    H262413   1.588   7.352   7.591
20846TIP3   OH262414   8.329   2.793   0.895
20846TIP3    H162415   8.270   2.723   0.867
20846TIP3    H262416   8.410   2.749   0.920
20847TIP3   OH262417   7.478   2.749   0.612
20847TIP3    H162418   7.492   2.656   0.633
20847TIP3    H262419   7.504   2.757   0.520
20848TIP3   OH262420   8.167   2.536   0.296
20848TIP3    H162421   8.245   2.582   0.265
20848TIP3    H262422   8.117   2.603   0.343
20849TIP3   OH262423   8.337   2.727   0.193
20849TIP3    H162424   8.371   2.651   0.146
20849TIP3    H262425   8.348   2.800   0.132
20850TIP3   OH262426   7.613   2.521   0.295
20850TIP3    H162427   7.690   2.556   0.249
20850TIP3    H262428   7.647   2.448   0.347
20851TIP3   OH262429   1.288   7.132   7.913
20851TIP3    H162430   1.208   7.180   7.934
20851TIP3    H262431   1.281   7.052   7.965
20852TIP3   OH262432   1.325   8.734   7.598
20852TIP3    H162433   1.290   8.647   7.619
20852TIP3    H262434   1.251   8.782   7.562
20853TIP3   OH262435   2.750   8.324   7.567
20853TIP3    H162436   2.706   8.409   7.562
20853TIP3    H262437   2.683   8.260   7.542
20854TIP3   OH262438   9.277   3.670  -0.003
20854TIP3    H162439   9.331   3.659   0.075
20854TIP3    H262440   9.242   3.582  -0.020
20855TIP3   OH262441   8.616   3.587   0.264
20855TIP3    H162442   8.623   3.523   0.335
20855TIP3    H262443   8.704   3.595   0.230
20856TIP3   OH262444   3.027   8.603   7.679
20856TIP3    H162445   3.010   8.537   7.746
20856TIP3    H262446   3.025   8.686   7.727
20857TIP3   OH262447   8.613   4.032   0.028
20857TIP3    H162448   8.563   3.952   0.042
20857TIP3    H262449   8.702   4.002   0.009
20858TIP3   OH262450   1.737   7.794   7.814
20858TIP3    H162451   1.702   7.880   7.835
20858TIP3    H262452   1.665   7.749   7.769
20859TIP3   OH262453   1.849   8.142   7.952
20859TIP3    H162454   1.912   8.076   7.984
20859TIP3    H262455   1.904   8.214   7.922
20860TIP3   OH262456   9.123   3.900   0.001
20860TIP3    H162457   9.163   3.816  -0.020
20860TIP3    H262458   9.195   3.955   0.030
20861TIP3   OH262459   0.326   3.228   0.023
20861TIP3    H162460   0.344   3.312   0.067
20861TIP3    H262461   0.351   3.243  -0.068
20862TIP3   OH262462   9.503   3.396   0.040
20862TIP3    H162463   9.537   3.312   0.071
20862TIP3    H262464   9.463   3.375  -0.045
20863TIP3   OH262465   2.336   7.672   7.991
20863TIP3    H162466   2.312   7.744   7.932
20863TIP3    H262467   2.275   7.602   7.968
20864TIP3   OH262468   3.020   7.775   7.637
20864TIP3    H162469   3.084   7.770   7.708
20864TIP3    H262470   3.071   7.809   7.562
20865TIP3   OH262471   8.561   3.330   0.053
20865TIP3    H162472   8.633   3.297   0.107
20865TIP3    H262473   8.542   3.259  -0.008
20866TIP3   OH262474   2.389   8.092   7.917
20866TIP3    H162475   2.481   8.069   7.929
20866TIP3    H262476   2.347   8.010   7.892
20867TIP3   OH262477   0.384   3.450   0.185
20867TIP3    H162478   0.293   3.479   0.186
20867TIP3    H262479   0.421   3.483   0.267
20868TIP3   OH262480   8.882   3.048   0.433
20868TIP3    H162481   8.804   3.090   0.396
20868TIP3    H262482   8.871   3.057   0.527
20869TIP3   OH262483   2.571   8.529   7.491
20869TIP3    H162484   2.577   8.518   7.396
20869TIP3    H262485   2.549   8.622   7.503
20870TIP3   OH262486   8.961   3.851   0.216
20870TIP3    H162487   8.907   3.928   0.231
20870TIP3    H262488   9.020   3.878   0.145
20871TIP3   OH262489   3.178   7.802   7.857
20871TIP3    H162490   3.139   7.779   7.941
20871TIP3    H262491   3.235   7.876   7.877
20872TIP3   OH262492   8.756   3.187   0.201
20872TIP3    H162493   8.813   3.252   0.242
20872TIP3    H262494   8.812   3.141   0.139
20873TIP3   OH262495   1.616   8.340   7.559
20873TIP3    H162496   1.583   8.368   7.474
20873TIP3    H262497   1.645   8.420   7.601
20874TIP3   OH262498   3.043   8.854   7.797
20874TIP3    H162499   2.962   8.898   7.824
20874TIP3    H262500   3.072   8.904   7.721
20875TIP3   OH262501   0.123   3.121   0.189
20875TIP3    H162502   0.039   3.145   0.151
20875TIP3    H262503   0.188   3.148   0.124
20876TIP3   OH262504   9.199   2.741   0.166
20876TIP3    H162505   9.193   2.650   0.195
20876TIP3    H262506   9.121   2.783   0.202
20877TIP3   OH262507   2.749   8.865   7.444
20877TIP3    H162508   2.806   8.788   7.442
20877TIP3    H262509   2.809   8.939   7.450
20878TIP3   OH262510   2.920   8.655   7.427
20878TIP3    H162511   2.940   8.584   7.367
20878TIP3    H262512   2.961   8.630   7.509
20879TIP3   OH262513   0.035   4.116   0.156
20879TIP3    H162514   0.015   4.040   0.100
20879TIP3    H262515   0.004   4.191   0.106
20880TIP3   OH262516   2.580   8.152   7.427
20880TIP3    H162517   2.499   8.196   7.403
20880TIP3    H262518   2.630   8.148   7.345
20881TIP3   OH262519   2.547   7.957   7.118
20881TIP3    H162520   2.611   8.006   7.170
20881TIP3    H262521   2.599   7.890   7.072
20882TIP3   OH262522   0.212   3.788   0.033
20882TIP3    H162523   0.125   3.826   0.026
20882TIP3    H262524   0.249   3.795  -0.055
20883TIP3   OH262525   2.939   8.240   7.388
20883TIP3    H162526   2.885   8.272   7.460
20883TIP3    H262527   3.020   8.212   7.429
20884TIP3   OH262528   9.698   3.651   0.329
20884TIP3    H162529   9.697   3.730   0.384
20884TIP3    H262530   9.614   3.653   0.283
20885TIP3   OH262531   2.186   8.233   7.793
20885TIP3    H162532   2.142   8.176   7.730
20885TIP3    H262533   2.257   8.181   7.829
20886TIP3   OH262534   2.332   8.588   7.923
20886TIP3    H162535   2.304   8.498   7.903
20886TIP3    H262536   2.425   8.580   7.942
20887TIP3   OH262537   8.860   3.601   0.152
20887TIP3    H162538   8.891   3.571   0.067
20887TIP3    H262539   8.906   3.684   0.167
20888TIP3   OH262540   2.767   8.103   7.222
20888TIP3    H162541   2.829   8.158   7.270
20888TIP3    H262542   2.796   8.108   7.131
20889TIP3   OH262543   2.480   8.820   7.520
20889TIP3    H162544   2.575   8.835   7.516
20889TIP3    H262545   2.447   8.854   7.437
20890TIP3   OH262546   3.285   7.329   7.285
20890TIP3    H162547   3.208   7.349   7.338
20890TIP3    H262548   3.295   7.404   7.227
20891TIP3   OH262549   2.047   8.072   7.601
20891TIP3    H162550   1.967   8.112   7.565
20891TIP3    H262551   2.020   7.984   7.627
20892TIP3   OH262552   3.087   8.700   6.839
20892TIP3    H162553   3.087   8.792   6.813
20892TIP3    H262554   3.176   8.670   6.818
20893TIP3   OH262555   0.258   4.489   0.229
20893TIP3    H162556   0.266   4.394   0.231
20893TIP3    H262557   0.219   4.512   0.314
20894TIP3   OH262558   2.393   8.974   7.305
20894TIP3    H162559   2.360   8.964   7.216
20894TIP3    H262560   2.370   9.063   7.330
20895TIP3   OH262561   2.616   8.920   6.936
20895TIP3    H162562   2.667   8.847   6.903
20895TIP3    H262563   2.648   8.934   7.025
20896TIP3   OH262564   2.652   8.960   7.206
20896TIP3    H162565   2.564   8.966   7.243
20896TIP3    H262566   2.705   8.921   7.275
20897TIP3   OH262567   0.147   3.599   0.490
20897TIP3    H162568   0.059   3.599   0.452
20897TIP3    H262569   0.169   3.507   0.500
20898TIP3   OH262570   8.965   2.839   0.272
20898TIP3    H162571   8.881   2.802   0.245
20898TIP3    H262572   8.942   2.919   0.320
20899TIP3   OH262573   9.504   2.961   0.502
20899TIP3    H162574   9.573   2.935   0.563
20899TIP3    H262575   9.422   2.942   0.548
20900TIP3   OH262576   9.709   3.389   0.414
20900TIP3    H162577   9.671   3.381   0.502
20900TIP3    H262578   9.688   3.478   0.387
20901TIP3   OH262579   2.847   8.094   6.962
20901TIP3    H162580   2.805   8.092   6.876
20901TIP3    H262581   2.932   8.135   6.946
20902TIP3   OH262582   2.544   7.515   7.273
20902TIP3    H162583   2.521   7.517   7.366
20902TIP3    H262584   2.515   7.429   7.243
20903TIP3   OH262585   8.926   3.376   0.297
20903TIP3    H162586   8.940   3.409   0.386
20903TIP3    H262587   8.899   3.454   0.247
20904TIP3   OH262588   2.243   7.875   7.830
20904TIP3    H162589   2.153   7.852   7.852
20904TIP3    H262590   2.257   7.837   7.743
20905TIP3   OH262591   2.711   7.952   7.564
20905TIP3    H162592   2.662   8.023   7.523
20905TIP3    H262593   2.769   7.919   7.495
20906TIP3   OH262594   9.444   3.591   0.619
20906TIP3    H162595   9.413   3.528   0.685
20906TIP3    H262596   9.532   3.615   0.649
20907TIP3   OH262597   2.871   7.956   7.792
20907TIP3    H162598   2.807   7.978   7.723
20907TIP3    H262599   2.922   7.884   7.755
20908TIP3   OH262600   8.673   3.418   0.470
20908TIP3    H162601   8.714   3.459   0.546
20908TIP3    H262602   8.672   3.324   0.492
20909TIP3   OH262603   2.184   7.463   7.239
20909TIP3    H162604   2.194   7.481   7.333
20909TIP3    H262605   2.097   7.424   7.231
20910TIP3   OH262606   1.744   7.544   8.003
20910TIP3    H162607   1.775   7.613   8.060
20910TIP3    H262608   1.807   7.542   7.931
20911TIP3   OH262609   1.707   7.503   7.610
20911TIP3    H162610   1.754   7.540   7.535
20911TIP3    H262611   1.647   7.572   7.637
20912TIP3   OH262612   9.443   3.598   0.211
20912TIP3    H162613   9.472   3.531   0.150
20912TIP3    H262614   9.405   3.549   0.284
20913TIP3   OH262615   2.600   7.664   7.887
20913TIP3    H162616   2.521   7.663   7.941
20913TIP3    H262617   2.671   7.652   7.950
20914TIP3   OH262618   2.002   7.752   7.872
20914TIP3    H162619   1.911   7.750   7.843
20914TIP3    H262620   2.030   7.660   7.868
20915TIP3   OH262621   2.255   7.741   7.594
20915TIP3    H162622   2.350   7.753   7.585
20915TIP3    H262623   2.219   7.769   7.510
20916TIP3   OH262624   9.576   3.132   0.094
20916TIP3    H162625   9.558   3.148   0.187
20916TIP3    H262626   9.510   3.067   0.069
20917TIP3   OH262627   2.131   7.793   7.359
20917TIP3    H162628   2.054   7.749   7.322
20917TIP3    H262629   2.180   7.823   7.282
20918TIP3   OH262630   2.650   8.021   7.979
20918TIP3    H162631   2.717   7.977   7.926
20918TIP3    H262632   2.656   7.979   8.064
20919TIP3   OH262633   2.134   7.500   7.877
20919TIP3    H162634   2.107   7.425   7.930
20919TIP3    H262635   2.175   7.461   7.800
20920TIP3   OH262636   9.183   3.305   0.237
20920TIP3    H162637   9.094   3.333   0.260
20920TIP3    H262638   9.240   3.355   0.295
20921TIP3   OH262639   2.344   8.286   7.360
20921TIP3    H162640   2.269   8.231   7.339
20921TIP3    H262641   2.320   8.330   7.442
20922TIP3   OH262642   3.236   8.531   7.988
20922TIP3    H162643   3.269   8.577   7.911
20922TIP3    H262644   3.155   8.489   7.957
20923TIP3   OH262645   2.805   7.607   7.283
20923TIP3    H162646   2.711   7.592   7.275
20923TIP3    H262647   2.813   7.702   7.293
20924TIP3   OH262648   9.317   3.961   0.393
20924TIP3    H162649   9.367   3.929   0.468
20924TIP3    H262650   9.315   4.056   0.403
20925TIP3   OH262651   2.872   7.871   7.348
20925TIP3    H162652   2.967   7.873   7.359
20925TIP3    H262653   2.853   7.948   7.294
20926TIP3   OH262654   8.595   3.736   0.009
20926TIP3    H162655   8.642   3.693  -0.062
20926TIP3    H262656   8.614   3.682   0.086
20927TIP3   OH262657   2.504   8.453   7.213
20927TIP3    H162658   2.453   8.534   7.212
20927TIP3    H262659   2.450   8.392   7.263
20928TIP3   OH262660   9.182   3.759   0.639
20928TIP3    H162661   9.172   3.742   0.546
20928TIP3    H262662   9.273   3.737   0.658
20929TIP3   OH262663   9.448   4.256   0.269
20929TIP3    H162664   9.388   4.245   0.195
20929TIP3    H262665   9.477   4.347   0.263
20930TIP3   OH262666   3.284   7.959   7.169
20930TIP3    H162667   3.224   7.915   7.109
20930TIP3    H262668   3.293   8.048   7.133
20931TIP3   OH262669   0.275   4.216   0.233
20931TIP3    H162670   0.184   4.187   0.230
20931TIP3    H262671   0.314   4.184   0.152
20932TIP3   OH262672   3.026   8.778   7.101
20932TIP3    H162673   3.002   8.703   7.155
20932TIP3    H262674   3.043   8.740   7.014
20933TIP3   OH262675   3.005   8.406   7.883
20933TIP3    H162676   2.916   8.386   7.911
20933TIP3    H262677   3.038   8.324   7.846
20934TIP3   OH262678   1.693   7.938   7.387
20934TIP3    H162679   1.745   8.014   7.414
20934TIP3    H262680   1.617   7.940   7.445
20935TIP3   OH262681   2.270   8.411   7.589
20935TIP3    H162682   2.348   8.455   7.624
20935TIP3    H262683   2.236   8.361   7.663
20936TIP3   OH262684   9.356   3.983   0.121
20936TIP3    H162685   9.345   3.968   0.214
20936TIP3    H262686   9.449   3.967   0.104
20937TIP3   OH262687   2.795   8.513   7.012
20937TIP3    H162688   2.845   8.498   7.091
20937TIP3    H262689   2.708   8.476   7.030
20938TIP3   OH262690   9.530   4.492   0.100
20938TIP3    H162691   9.463   4.477   0.032
20938TIP3    H262692   9.562   4.580   0.081
20939TIP3   OH262693   3.092   8.970   6.795
20939TIP3    H162694   3.114   9.028   6.722
20939TIP3    H262695   3.021   9.015   6.840
20940TIP3   OH262696   8.856   3.115   0.711
20940TIP3    H162697   8.811   3.166   0.778
20940TIP3    H262698   8.905   3.049   0.760
20941TIP3   OH262699   2.970   8.461   7.224
20941TIP3    H162700   2.951   8.383   7.277
20941TIP3    H262701   3.062   8.454   7.202
20942TIP3   OH262702   2.144   8.479   7.009
20942TIP3    H162703   2.155   8.388   6.982
20942TIP3    H262704   2.131   8.474   7.104
20943TIP3   OH262705   2.087   8.494   7.282
20943TIP3    H162706   2.150   8.470   7.350
20943TIP3    H262707   2.084   8.590   7.285
20944TIP3   OH262708   1.818   8.172   7.476
20944TIP3    H162709   1.751   8.219   7.526
20944TIP3    H262710   1.842   8.232   7.406
20945TIP3   OH262711   9.522   3.192   0.356
20945TIP3    H162712   9.598   3.240   0.388
20945TIP3    H262713   9.516   3.115   0.412
20946TIP3   OH262714   2.873   7.557   7.548
20946TIP3    H162715   2.851   7.576   7.457
20946TIP3    H262716   2.917   7.636   7.579
20947TIP3   OH262717   2.353   8.679   7.222
20947TIP3    H162718   2.269   8.708   7.259
20947TIP3    H262719   2.377   8.749   7.162
20948TIP3   OH262720   2.529   7.758   7.637
20948TIP3    H162721   2.591   7.827   7.611
20948TIP3    H262722   2.554   7.737   7.727
20949TIP3   OH262723   9.360   3.426   0.409
20949TIP3    H162724   9.385   3.477   0.487
20949TIP3    H262725   9.414   3.347   0.415
20950TIP3   OH262726   2.691   7.451   7.726
20950TIP3    H162727   2.671   7.528   7.780
20950TIP3    H262728   2.761   7.481   7.668
20951TIP3   OH262729   2.095   8.770   7.294
20951TIP3    H162730   2.088   8.828   7.218
20951TIP3    H262731   2.041   8.811   7.361
20952TIP3   OH262732   2.209   7.475   7.519
20952TIP3    H162733   2.200   7.563   7.555
20952TIP3    H262734   2.303   7.456   7.526
20953TIP3   OH262735   0.169   3.316   0.400
20953TIP3    H162736   0.076   3.337   0.409
20953TIP3    H262737   0.172   3.250   0.330
20954TIP3   OH262738   3.097   8.152   7.792
20954TIP3    H162739   3.022   8.094   7.808
20954TIP3    H262740   3.168   8.115   7.845
20955TIP3   OH262741   1.845   8.358   7.267
20955TIP3    H162742   1.916   8.421   7.278
20955TIP3    H262743   1.877   8.297   7.201
20956TIP3   OH262744   1.743   7.663   7.379
20956TIP3    H162745   1.719   7.754   7.400
20956TIP3    H262746   1.660   7.621   7.355
20957TIP3   OH262747   3.094   9.075   7.628
20957TIP3    H162748   3.024   9.101   7.688
20957TIP3    H262749   3.170   9.126   7.656
20958TIP3   OH262750   8.714   2.738   0.237
20958TIP3    H162751   8.672   2.706   0.157
20958TIP3    H262752   8.697   2.669   0.302
20959TIP3   OH262753   1.685   8.586   7.649
20959TIP3    H162754   1.670   8.636   7.730
20959TIP3    H262755   1.655   8.643   7.579
20960TIP3   OH262756   2.301   8.677   6.899
20960TIP3    H162757   2.253   8.606   6.942
20960TIP3    H262758   2.375   8.633   6.856
20961TIP3   OH262759   2.742   8.708   6.821
20961TIP3    H162760   2.779   8.647   6.884
20961TIP3    H262761   2.800   8.703   6.745
20962TIP3   OH262762   1.963   8.164   7.114
20962TIP3    H162763   2.015   8.141   7.191
20962TIP3    H262764   2.028   8.182   7.046
20963TIP3   OH262765   2.521   8.391   6.946
20963TIP3    H162766   2.506   8.400   7.040
20963TIP3    H262767   2.511   8.297   6.929
20964TIP3   OH262768   9.613   4.039   0.301
20964TIP3    H162769   9.688   4.075   0.254
20964TIP3    H262770   9.549   4.110   0.302
20965TIP3   OH262771   2.136   8.106   7.325
20965TIP3    H162772   2.118   8.078   7.415
20965TIP3    H262773   2.183   8.033   7.286
20966TIP3   OH262774   9.007   3.508   0.519
20966TIP3    H162775   8.942   3.563   0.562
20966TIP3    H262776   9.066   3.570   0.476
20967TIP3   OH262777   2.270   7.920   7.159
20967TIP3    H162778   2.246   7.929   7.067
20967TIP3    H262779   2.366   7.928   7.159
20968TIP3   OH262780   9.478   3.912   0.611
20968TIP3    H162781   9.569   3.898   0.584
20968TIP3    H262782   9.476   3.885   0.703
20969TIP3   OH262783   3.073   8.215   6.856
20969TIP3    H162784   3.062   8.173   6.771
20969TIP3    H262785   3.045   8.306   6.842
20970TIP3   OH262786   9.114   3.310   0.677
20970TIP3    H162787   9.127   3.238   0.616
20970TIP3    H262788   9.080   3.382   0.623
20971TIP3   OH262789   9.140   3.129   0.458
20971TIP3    H162790   9.172   3.170   0.378
20971TIP3    H262791   9.049   3.106   0.437
20972TIP3   OH262792   9.142   3.703   0.370
20972TIP3    H162793   9.227   3.738   0.344
20972TIP3    H262794   9.078   3.755   0.320
20973TIP3   OH262795   9.706   3.626   0.739
20973TIP3    H162796   9.750   3.542   0.749
20973TIP3    H262797   9.777   3.690   0.740
20974TIP3   OH262798   9.737   3.886   0.484
20974TIP3    H162799   9.682   3.940   0.428
20974TIP3    H262800   9.826   3.902   0.453
20975TIP3   OH262801   8.987   3.388   0.915
20975TIP3    H162802   8.950   3.308   0.953
20975TIP3    H262803   9.027   3.359   0.834
20976TIP3   OH262804   9.241   2.898   0.566
20976TIP3    H162805   9.203   2.977   0.527
20976TIP3    H262806   9.180   2.828   0.543
20977TIP3   OH262807   9.360   3.385   0.779
20977TIP3    H162808   9.359   3.373   0.874
20977TIP3    H262809   9.274   3.356   0.750
20978TIP3   OH262810   9.601   3.327   0.651
20978TIP3    H162811   9.524   3.337   0.707
20978TIP3    H262812   9.672   3.304   0.711
20979TIP3   OH262813   0.038   3.288   0.795
20979TIP3    H162814   0.052   3.194   0.804
20979TIP3    H262815   0.034   3.321   0.884
20980TIP3   OH262816   8.871   3.164   1.043
20980TIP3    H162817   8.883   3.072   1.019
20980TIP3    H262818   8.864   3.163   1.138
20981TIP3   OH262819   9.322   2.901   0.823
20981TIP3    H162820   9.387   2.830   0.821
20981TIP3    H262821   9.286   2.902   0.734
20982TIP3   OH262822   9.403   3.105   0.988
20982TIP3    H162823   9.379   3.040   0.923
20982TIP3    H262824   9.327   3.164   0.993
20983TIP3   OH262825   2.098   8.955   7.095
20983TIP3    H162826   2.190   8.947   7.070
20983TIP3    H262827   2.056   8.997   7.020
20984TIP3   OH262828   1.571   8.368   7.271
20984TIP3    H162829   1.666   8.378   7.273
20984TIP3    H262830   1.556   8.280   7.237
20985TIP3   OH262831   3.354   9.187   7.724
20985TIP3    H162832   3.340   9.174   7.817
20985TIP3    H262833   3.341   9.281   7.710
20986TIP3   OH262834   0.121   4.517  -0.016
20986TIP3    H162835   0.056   4.449   0.000
20986TIP3    H262836   0.172   4.521   0.065
20987TIP3   OH262837   7.152   1.364   1.095
20987TIP3    H162838   7.058   1.354   1.087
20987TIP3    H262839   7.180   1.397   1.009
20988TIP3   OH262840   3.239   8.420   7.189
20988TIP3    H162841   3.299   8.484   7.152
20988TIP3    H262842   3.288   8.380   7.261
20989TIP3   OH262843   3.368   8.279   7.388
20989TIP3    H162844   3.302   8.240   7.445
20989TIP3    H262845   3.434   8.313   7.449
20990TIP3   OH262846   3.404   8.661   7.809
20990TIP3    H162847   3.466   8.593   7.785
20990TIP3    H262848   3.365   8.689   7.726
20991TIP3   OH262849   9.727   4.322   0.013
20991TIP3    H162850   9.660   4.378   0.052
20991TIP3    H262851   9.685   4.285  -0.064
20992TIP3   OH262852   3.283   8.198   7.032
20992TIP3    H162853   3.213   8.197   6.967
20992TIP3    H262854   3.266   8.276   7.085
20993TIP3   OH262855   3.121   7.851   6.979
20993TIP3    H162856   3.084   7.886   6.898
20993TIP3    H262857   3.115   7.756   6.968
20994TIP3   OH262858   3.163   8.141   7.522
20994TIP3    H162859   3.172   8.047   7.509
20994TIP3    H262860   3.146   8.151   7.616
20995TIP3   OH262861   8.346   3.613   0.215
20995TIP3    H162862   8.333   3.608   0.120
20995TIP3    H262863   8.441   3.619   0.226
20996TIP3   OH262864   0.189   3.947   0.384
20996TIP3    H162865   0.252   3.875   0.379
20996TIP3    H262866   0.178   3.976   0.294
20997TIP3   OH262867   0.357   3.731   0.380
20997TIP3    H162868   0.285   3.687   0.424
20997TIP3    H262869   0.434   3.676   0.397
20998TIP3   OH262870   3.093   7.579   6.946
20998TIP3    H162871   3.160   7.551   7.007
20998TIP3    H262872   3.013   7.537   6.976
20999TIP3   OH262873   3.161   7.865   7.407
20999TIP3    H162874   3.207   7.782   7.420
20999TIP3    H262875   3.203   7.904   7.331
21000TIP3   OH262876   3.315   8.035   7.928
21000TIP3    H162877   3.397   8.052   7.882
21000TIP3    H262878   3.329   8.072   8.015
21001TIP3   OH262879   0.120   3.557   0.157
21001TIP3    H162880   0.049   3.585   0.215
21001TIP3    H262881   0.155   3.638   0.121
21002TIP3   OH262882   8.649   3.235   0.905
21002TIP3    H162883   8.723   3.216   0.963
21002TIP3    H262884   8.574   3.243   0.965
21003TIP3   OH262885   0.582   3.166   0.691
21003TIP3    H162886   0.648   3.106   0.658
21003TIP3    H262887   0.549   3.210   0.613
21004TIP3   OH262888   3.278   7.616   7.460
21004TIP3    H162889   3.324   7.602   7.542
21004TIP3    H262890   3.216   7.544   7.454
21005TIP3   OH262891   8.578   2.976   0.203
21005TIP3    H162892   8.624   2.898   0.236
21005TIP3    H262893   8.643   3.046   0.209
21006TIP3   OH262894   8.403   3.340   0.273
21006TIP3    H162895   8.463   3.343   0.199
21006TIP3    H262896   8.349   3.419   0.262
21007TIP3   OH262897   0.436   3.275   0.488
21007TIP3    H162898   0.353   3.313   0.518
21007TIP3    H262899   0.409   3.198   0.438
21008TIP3   OH262900   3.322   7.527   7.097
21008TIP3    H162901   3.372   7.468   7.041
21008TIP3    H262902   3.375   7.607   7.101
21009TIP3   OH262903   1.750   7.312   7.799
21009TIP3    H162904   1.664   7.310   7.843
21009TIP3    H262905   1.744   7.386   7.738
21010TIP3   OH262906   2.916   9.084   7.409
21010TIP3    H162907   2.954   9.083   7.321
21010TIP3    H262908   2.991   9.082   7.468
21011TIP3   OH262909   8.574   2.894   0.516
21011TIP3    H162910   8.623   2.849   0.585
21011TIP3    H262911   8.486   2.856   0.519
21012TIP3   OH262912   0.350   3.020   0.393
21012TIP3    H162913   0.260   3.005   0.365
21012TIP3    H262914   0.391   2.934   0.391
21013TIP3   OH262915   6.326   0.063   7.853
21013TIP3    H162916   6.304   0.119   7.779
21013TIP3    H262917   6.254   0.001   7.860
21014TIP3   OH262918   2.212   8.826   7.833
21014TIP3    H162919   2.263   8.750   7.861
21014TIP3    H262920   2.134   8.824   7.889
21015TIP3   OH262921   9.353   2.944   0.026
21015TIP3    H162922   9.313   2.871   0.074
21015TIP3    H262923   9.423   2.903  -0.025
21016TIP3   OH262924   3.326   7.487   7.918
21016TIP3    H162925   3.361   7.537   7.844
21016TIP3    H262926   3.233   7.510   7.921
21017TIP3   OH262927   3.437   7.565   7.680
21017TIP3    H162928   3.507   7.504   7.654
21017TIP3    H262929   3.476   7.652   7.668
21018TIP3   OH262930   8.605   2.640   0.001
21018TIP3    H162931   8.518   2.599   0.005
21018TIP3    H262932   8.666   2.567   0.000
21019TIP3   OH262933   1.876   7.131   7.640
21019TIP3    H162934   1.913   7.187   7.572
21019TIP3    H262935   1.835   7.192   7.701
21020TIP3   OH262936   2.537   7.315   7.918
21020TIP3    H162937   2.587   7.360   7.850
21020TIP3    H262938   2.583   7.336   7.999
21021TIP3   OH262939   3.038   7.449   7.901
21021TIP3    H162940   3.059   7.411   7.816
21021TIP3    H262941   3.044   7.376   7.962
21022TIP3   OH262942   3.093   7.405   7.467
21022TIP3    H162943   3.014   7.452   7.493
21022TIP3    H262944   3.083   7.318   7.506
21023TIP3   OH262945   1.566   8.747   7.465
21023TIP3    H162946   1.483   8.744   7.512
21023TIP3    H262947   1.560   8.825   7.411
21024TIP3   OH262948   2.004   7.298   7.445
21024TIP3    H162949   2.052   7.232   7.394
21024TIP3    H262950   2.072   7.352   7.485
21025TIP3   OH262951   2.484   7.505   7.541
21025TIP3    H162952   2.542   7.452   7.595
21025TIP3    H262953   2.499   7.595   7.571
21026TIP3   OH262954   2.361   8.902   7.037
21026TIP3    H162955   2.445   8.927   6.999
21026TIP3    H262956   2.331   8.829   6.981
21027TIP3   OH262957   3.030   9.047   7.150
21027TIP3    H162958   3.032   8.952   7.139
21027TIP3    H262959   2.996   9.080   7.067
21028TIP3   OH262960   8.906   2.909   0.915
21028TIP3    H162961   8.874   2.839   0.970
21028TIP3    H262962   8.998   2.920   0.941
21029TIP3   OH262963   9.152   2.917   1.032
21029TIP3    H162964   9.213   2.920   0.958
21029TIP3    H262965   9.177   2.840   1.082
21030TIP3   OH262966   1.652   8.723   7.087
21030TIP3    H162967   1.650   8.749   7.179
21030TIP3    H262968   1.738   8.684   7.075
21031TIP3   OH262969   0.097   3.020   0.820
21031TIP3    H162970   0.112   2.993   0.910
21031TIP3    H262971   0.184   3.017   0.779
21032TIP3   OH262972   4.553   8.569   7.064
21032TIP3    H162973   4.523   8.657   7.039
21032TIP3    H262974   4.482   8.511   7.037
21033TIP3   OH262975   4.540   8.565   7.482
21033TIP3    H162976   4.589   8.545   7.561
21033TIP3    H262977   4.496   8.483   7.459
21034TIP3   OH262978   3.847   8.421   7.841
21034TIP3    H162979   3.886   8.368   7.911
21034TIP3    H262980   3.921   8.446   7.786
21035TIP3   OH262981   4.820   8.868   7.163
21035TIP3    H162982   4.807   8.802   7.231
21035TIP3    H262983   4.844   8.947   7.211
21036TIP3   OH262984   3.846   8.861   7.527
21036TIP3    H162985   3.827   8.767   7.532
21036TIP3    H262986   3.940   8.865   7.509
21037TIP3   OH262987   3.519   8.051   7.311
21037TIP3    H162988   3.483   8.137   7.331
21037TIP3    H262989   3.447   8.004   7.268
21038TIP3   OH262990   3.595   8.360   7.530
21038TIP3    H162991   3.647   8.283   7.556
21038TIP3    H262992   3.658   8.418   7.488
21039TIP3   OH262993   7.751   0.051   7.183
21039TIP3    H162994   7.776  -0.011   7.115
21039TIP3    H262995   7.768   0.004   7.265
21040TIP3   OH262996   4.356   8.785   7.496
21040TIP3    H162997   4.402   8.706   7.467
21040TIP3    H262998   4.426   8.843   7.528
21041TIP3   OH262999   5.379   8.100   7.500
21041TIP3    H163000   5.398   8.181   7.547
21041TIP3    H263001   5.400   8.120   7.409
21042TIP3   OH263002   4.760   8.267   7.527
21042TIP3    H163003   4.792   8.182   7.556
21042TIP3    H263004   4.725   8.251   7.440
21043TIP3   OH263005   4.106   7.924   7.485
21043TIP3    H163006   4.089   8.000   7.429
21043TIP3    H263007   4.047   7.856   7.452
21044TIP3   OH263008   4.824   8.035   7.127
21044TIP3    H163009   4.888   8.024   7.197
21044TIP3    H263010   4.874   8.070   7.053
21045TIP3   OH263011   3.743   8.144   7.620
21045TIP3    H163012   3.826   8.126   7.663
21045TIP3    H263013   3.747   8.095   7.538
21046TIP3   OH263014   4.159   8.344   7.440
21046TIP3    H163015   4.254   8.330   7.443
21046TIP3    H263016   4.125   8.263   7.400
21047TIP3   OH263017   5.438   8.315   7.657
21047TIP3    H163018   5.351   8.356   7.656
21047TIP3    H263019   5.482   8.355   7.732
21048TIP3   OH263020   4.100   7.934   7.941
21048TIP3    H163021   4.049   7.971   7.868
21048TIP3    H263022   4.046   7.948   8.018
21049TIP3   OH263023   4.453   8.790   6.929
21049TIP3    H163024   4.410   8.755   6.850
21049TIP3    H263025   4.399   8.864   6.954
21050TIP3   OH263026   4.196   8.706   7.707
21050TIP3    H163027   4.139   8.777   7.738
21050TIP3    H263028   4.244   8.745   7.634
21051TIP3   OH263029   4.986   8.038   7.348
21051TIP3    H163030   4.933   8.026   7.428
21051TIP3    H263031   5.036   8.118   7.364
21052TIP3   OH263032   3.989   8.039   7.710
21052TIP3    H163033   4.045   8.114   7.731
21052TIP3    H263034   4.033   7.996   7.637
21053TIP3   OH263035   4.028   8.905   7.804
21053TIP3    H163036   4.012   8.993   7.770
21053TIP3    H263037   3.951   8.885   7.857
21054TIP3   OH263038   3.395   8.605   7.062
21054TIP3    H163039   3.369   8.610   6.970
21054TIP3    H263040   3.396   8.696   7.092
21055TIP3   OH263041   4.853   9.114   7.303
21055TIP3    H163042   4.764   9.105   7.335
21055TIP3    H263043   4.853   9.197   7.255
21056TIP3   OH263044   5.183   7.990   7.669
21056TIP3    H163045   5.098   8.022   7.638
21056TIP3    H263046   5.246   8.019   7.604
21057TIP3   OH263047   4.450   7.634   7.687
21057TIP3    H163048   4.440   7.541   7.706
21057TIP3    H263049   4.369   7.674   7.718
21058TIP3   OH263050   4.568   9.158   6.954
21058TIP3    H163051   4.619   9.077   6.946
21058TIP3    H263052   4.629   9.227   6.928
21059TIP3   OH263053   4.699   8.923   6.922
21059TIP3    H163054   4.626   8.861   6.919
21059TIP3    H263055   4.750   8.897   6.998
21060TIP3   OH263056   5.105   9.003   7.641
21060TIP3    H163057   5.081   8.932   7.580
21060TIP3    H263058   5.090   9.083   7.591
21061TIP3   OH263059   4.379   8.407   6.917
21061TIP3    H163060   4.292   8.443   6.898
21061TIP3    H263061   4.424   8.408   6.832
21062TIP3   OH263062   4.355   8.212   6.601
21062TIP3    H163063   4.417   8.262   6.654
21062TIP3    H263064   4.409   8.148   6.555
21063TIP3   OH263065   5.254   8.657   7.508
21063TIP3    H163066   5.172   8.706   7.502
21063TIP3    H263067   5.298   8.675   7.424
21064TIP3   OH263068   4.739   8.502   6.875
21064TIP3    H163069   4.684   8.530   6.948
21064TIP3    H263070   4.823   8.478   6.916
21065TIP3   OH263071   4.945   8.500   7.786
21065TIP3    H163072   4.954   8.589   7.821
21065TIP3    H263073   4.858   8.499   7.747
21066TIP3   OH263074   3.964   8.490   7.298
21066TIP3    H163075   3.916   8.430   7.242
21066TIP3    H263076   4.036   8.437   7.334
21067TIP3   OH263077   4.104   8.903   7.418
21067TIP3    H163078   4.078   8.885   7.328
21067TIP3    H263079   4.190   8.862   7.428
21068TIP3   OH263080   4.059   8.473   7.663
21068TIP3    H163081   4.096   8.436   7.583
21068TIP3    H263082   4.109   8.553   7.678
21069TIP3   OH263083   4.607   9.097   7.418
21069TIP3    H163084   4.591   9.179   7.464
21069TIP3    H263085   4.594   9.029   7.484
21070TIP3   OH263086   4.225   9.006   7.965
21070TIP3    H163087   4.171   9.070   8.012
21070TIP3    H263088   4.163   8.957   7.911
21071TIP3   OH263089   4.573   8.356   6.710
21071TIP3    H163090   4.630   8.416   6.758
21071TIP3    H263091   4.603   8.361   6.619
21072TIP3   OH263092   0.727   3.944   0.108
21072TIP3    H163093   0.726   4.037   0.131
21072TIP3    H263094   0.635   3.919   0.106
21073TIP3   OH263095   4.320   9.030   6.968
21073TIP3    H163096   4.401   9.081   6.973
21073TIP3    H263097   4.261   9.083   6.915
21074TIP3   OH263098   0.758   4.555   0.055
21074TIP3    H163099   0.725   4.556  -0.034
21074TIP3    H263100   0.682   4.532   0.109
21075TIP3   OH263101   5.075   7.585   6.769
21075TIP3    H163102   4.998   7.604   6.822
21075TIP3    H263103   5.086   7.661   6.713
21076TIP3   OH263104   3.819   8.325   7.131
21076TIP3    H163105   3.760   8.366   7.068
21076TIP3    H263106   3.830   8.235   7.100
21077TIP3   OH263107   4.905   8.960   6.322
21077TIP3    H163108   4.901   9.054   6.303
21077TIP3    H263109   4.994   8.934   6.298
21078TIP3   OH263110   3.620   8.717   8.003
21078TIP3    H163111   3.551   8.693   7.940
21078TIP3    H263112   3.655   8.633   8.033
21079TIP3   OH263113   8.597   0.158   7.678
21079TIP3    H163114   8.609   0.064   7.684
21079TIP3    H263115   8.512   0.174   7.720
21080TIP3   OH263116   4.432   9.127   7.837
21080TIP3    H163117   4.443   9.194   7.905
21080TIP3    H263118   4.358   9.074   7.868
21081TIP3   OH263119   7.474  -0.008   6.797
21081TIP3    H163120   7.424  -0.025   6.717
21081TIP3    H263121   7.439   0.075   6.830
21082TIP3   OH263122   3.624   9.120   7.194
21082TIP3    H163123   3.684   9.109   7.268
21082TIP3    H263124   3.585   9.033   7.182
21083TIP3   OH263125   4.409   9.176   6.425
21083TIP3    H163126   4.461   9.104   6.389
21083TIP3    H263127   4.442   9.188   6.514
21084TIP3   OH263128   4.461   9.212   6.695
21084TIP3    H163129   4.372   9.215   6.732
21084TIP3    H263130   4.514   9.174   6.764
21085TIP3   OH263131   5.196   8.475   7.948
21085TIP3    H163132   5.103   8.493   7.935
21085TIP3    H263133   5.205   8.381   7.935
21086TIP3   OH263134   0.548   4.286  -0.020
21086TIP3    H163135   0.602   4.274   0.058
21086TIP3    H263136   0.483   4.217  -0.015
21087TIP3   OH263137   4.201   7.718   7.795
21087TIP3    H163138   4.117   7.686   7.765
21087TIP3    H263139   4.181   7.799   7.842
21088TIP3   OH263140   1.480   3.218   0.001
21088TIP3    H163141   1.550   3.194   0.061
21088TIP3    H263142   1.400   3.203   0.050
21089TIP3   OH263143   4.969   8.255   7.907
21089TIP3    H163144   4.915   8.254   7.987
21089TIP3    H263145   4.948   8.338   7.866
21090TIP3   OH263146   4.652   8.332   6.447
21090TIP3    H163147   4.603   8.339   6.365
21090TIP3    H263148   4.733   8.381   6.431
21091TIP3   OH263149   4.342   7.786   6.778
21091TIP3    H163150   4.266   7.844   6.782
21091TIP3    H263151   4.306   7.702   6.748
21092TIP3   OH263152   4.142   8.248   7.803
21092TIP3    H163153   4.100   8.255   7.888
21092TIP3    H263154   4.120   8.330   7.758
21093TIP3   OH263155   4.024   8.129   7.325
21093TIP3    H163156   3.932   8.113   7.346
21093TIP3    H263157   4.036   8.093   7.237
21094TIP3   OH263158   4.506   8.204   7.051
21094TIP3    H163159   4.458   8.276   7.011
21094TIP3    H263160   4.563   8.172   6.981
21095TIP3   OH263161   1.421   3.843   0.109
21095TIP3    H163162   1.394   3.784   0.179
21095TIP3    H263163   1.512   3.865   0.129
21096TIP3   OH263164   4.672   8.218   7.274
21096TIP3    H163165   4.603   8.238   7.211
21096TIP3    H263166   4.720   8.146   7.234
21097TIP3   OH263167   0.712   3.637   0.025
21097TIP3    H163168   0.759   3.691   0.088
21097TIP3    H263169   0.694   3.555   0.071
21098TIP3   OH263170   4.027   7.770   6.748
21098TIP3    H163171   4.005   7.770   6.841
21098TIP3    H263172   3.951   7.809   6.705
21099TIP3   OH263173   3.569   7.789   7.609
21099TIP3    H163174   3.640   7.824   7.662
21099TIP3    H263175   3.606   7.780   7.521
21100TIP3   OH263176   3.471   7.762   7.109
21100TIP3    H163177   3.516   7.797   7.032
21100TIP3    H263178   3.409   7.831   7.133
21101TIP3   OH263179   4.684   8.463   7.696
21101TIP3    H163180   4.714   8.397   7.634
21101TIP3    H263181   4.650   8.412   7.770
21102TIP3   OH263182   4.375   7.929   7.378
21102TIP3    H163183   4.297   7.927   7.435
21102TIP3    H263184   4.448   7.914   7.438
21103TIP3   OH263185   3.781   8.009   7.386
21103TIP3    H163186   3.693   8.015   7.348
21103TIP3    H263187   3.808   7.919   7.369
21104TIP3   OH263188   4.038   7.991   7.085
21104TIP3    H163189   4.132   8.008   7.079
21104TIP3    H263190   4.003   8.019   7.001
21105TIP3   OH263191   4.829   8.001   7.574
21105TIP3    H163192   4.818   8.015   7.668
21105TIP3    H263193   4.757   7.944   7.549
21106TIP3   OH263194   3.918   8.031   6.844
21106TIP3    H163195   3.846   7.996   6.791
21106TIP3    H263196   3.980   8.066   6.781
21107TIP3   OH263197   8.215   0.514   7.770
21107TIP3    H163198   8.241   0.506   7.678
21107TIP3    H263199   8.290   0.480   7.819
21108TIP3   OH263200   0.695   4.205   0.207
21108TIP3    H163201   0.777   4.218   0.253
21108TIP3    H263202   0.629   4.202   0.276
21109TIP3   OH263203   4.433   8.292   7.481
21109TIP3    H163204   4.499   8.243   7.433
21109TIP3    H263205   4.431   8.251   7.568
21110TIP3   OH263206   3.910   7.754   7.366
21110TIP3    H163207   3.888   7.678   7.420
21110TIP3    H263208   3.903   7.722   7.276
21111TIP3   OH263209   4.408   8.190   7.743
21111TIP3    H163210   4.322   8.222   7.770
21111TIP3    H263211   4.470   8.237   7.800
21112TIP3   OH263212   4.134   8.526   6.854
21112TIP3    H163213   4.052   8.489   6.822
21112TIP3    H263214   4.111   8.567   6.937
21113TIP3   OH263215   5.026   8.808   7.465
21113TIP3    H163216   5.062   8.852   7.388
21113TIP3    H263217   4.947   8.764   7.432
21114TIP3   OH263218   4.605   7.863   6.768
21114TIP3    H163219   4.511   7.846   6.772
21114TIP3    H263220   4.613   7.957   6.778
21115TIP3   OH263221   4.563   8.867   7.888
21115TIP3    H163222   4.612   8.848   7.967
21115TIP3    H263223   4.532   8.957   7.899
21116TIP3   OH263224   4.671   8.125   6.835
21116TIP3    H163225   4.766   8.132   6.848
21116TIP3    H263226   4.648   8.203   6.786
21117TIP3   OH263227   3.833   8.578   7.522
21117TIP3    H163228   3.871   8.559   7.436
21117TIP3    H263229   3.896   8.542   7.585
21118TIP3   OH263230   4.296   8.697   6.714
21118TIP3    H163231   4.248   8.780   6.711
21118TIP3    H263232   4.238   8.637   6.761
21119TIP3   OH263233   0.454   3.883   0.152
21119TIP3    H163234   0.473   3.861   0.243
21119TIP3    H263235   0.382   3.824   0.127
21120TIP3   OH263236   1.190   3.994   0.136
21120TIP3    H163237   1.132   3.943   0.079
21120TIP3    H263238   1.277   3.956   0.122
21121TIP3   OH263239   4.692   9.177   7.749
21121TIP3    H163240   4.599   9.152   7.749
21121TIP3    H263241   4.702   9.231   7.827
21122TIP3   OH263242   5.083   8.216   6.655
21122TIP3    H163243   5.027   8.171   6.592
21122TIP3    H263244   5.089   8.306   6.622
21123TIP3   OH263245   5.363   9.127   7.685
21123TIP3    H163246   5.280   9.103   7.727
21123TIP3    H263247   5.368   9.072   7.607
21124TIP3   OH263248   4.815   9.021   6.586
21124TIP3    H163249   4.791   8.949   6.644
21124TIP3    H263250   4.838   8.978   6.503
21125TIP3   OH263251   4.800   8.668   7.365
21125TIP3    H163252   4.709   8.646   7.387
21125TIP3    H263253   4.836   8.587   7.328
21126TIP3   OH263254   3.970   8.896   7.165
21126TIP3    H163255   3.966   8.982   7.124
21126TIP3    H263256   3.893   8.849   7.132
21127TIP3   OH263257   3.518   8.175   6.885
21127TIP3    H163258   3.570   8.253   6.900
21127TIP3    H263259   3.441   8.186   6.941
21128TIP3   OH263260   4.070   8.644   7.090
21128TIP3    H163261   4.059   8.736   7.112
21128TIP3    H263262   4.035   8.597   7.166
21129TIP3   OH263263   7.514  -0.008   7.642
21129TIP3    H163264   7.545   0.075   7.606
21129TIP3    H263265   7.586  -0.040   7.696
21130TIP3   OH263266   3.859   9.129   7.039
21130TIP3    H163267   3.773   9.134   7.079
21130TIP3    H263268   3.896   9.217   7.048
21131TIP3   OH263269   4.591   8.890   7.611
21131TIP3    H163270   4.578   8.880   7.705
21131TIP3    H263271   4.668   8.836   7.592
21132TIP3   OH263272   4.586   8.767   6.475
21132TIP3    H163273   4.636   8.742   6.552
21132TIP3    H263274   4.501   8.724   6.487
21133TIP3   OH263275   8.102   0.149   7.639
21133TIP3    H163276   8.036   0.082   7.655
21133TIP3    H263277   8.069   0.198   7.564
21134TIP3   OH263278   8.179  -0.006   6.286
21134TIP3    H163279   8.229   0.064   6.244
21134TIP3    H263280   8.099   0.036   6.317
21135TIP3   OH263281   0.662   3.387   0.147
21135TIP3    H163282   0.567   3.397   0.153
21135TIP3    H263283   0.685   3.335   0.224
21136TIP3   OH263284   4.764   8.690   6.669
21136TIP3    H163285   4.746   8.637   6.746
21136TIP3    H263286   4.859   8.694   6.664
21137TIP3   OH263287   3.659   9.083   7.829
21137TIP3    H163288   3.712   9.013   7.869
21137TIP3    H263289   3.685   9.162   7.876
21138TIP3   OH263290   3.907   8.707   6.469
21138TIP3    H163291   3.891   8.661   6.386
21138TIP3    H263292   3.874   8.648   6.536
21139TIP3   OH263293   3.830   8.793   6.869
21139TIP3    H163294   3.874   8.724   6.820
21139TIP3    H263295   3.865   8.874   6.833
21140TIP3   OH263296   3.650   8.416   6.928
21140TIP3    H163297   3.600   8.496   6.947
21140TIP3    H263298   3.690   8.433   6.843
21141TIP3   OH263299   4.789   8.052   7.835
21141TIP3    H163300   4.856   8.106   7.876
21141TIP3    H263301   4.772   7.983   7.899
21142TIP3   OH263302   4.674   7.822   7.034
21142TIP3    H163303   4.654   7.843   6.942
21142TIP3    H263304   4.720   7.900   7.066
21143TIP3   OH263305   4.156   8.928   6.704
21143TIP3    H163306   4.074   8.955   6.745
21143TIP3    H263307   4.177   8.998   6.643
21144TIP3   OH263308   4.306   8.027   7.124
21144TIP3    H163309   4.374   8.089   7.096
21144TIP3    H263310   4.331   8.003   7.213
21145TIP3   OH263311   4.611   8.295   7.902
21145TIP3    H163312   4.636   8.349   7.977
21145TIP3    H263313   4.663   8.215   7.912
21146TIP3   OH263314   4.456   7.750   7.185
21146TIP3    H163315   4.426   7.812   7.251
21146TIP3    H263316   4.535   7.790   7.149
21147TIP3   OH263317   3.918   9.039   6.786
21147TIP3    H163318   3.896   9.110   6.725
21147TIP3    H263319   3.898   9.075   6.873
21148TIP3   OH263320   3.980   7.728   7.026
21148TIP3    H163321   3.978   7.820   7.052
21148TIP3    H263322   4.067   7.698   7.052
21149TIP3   OH263323   5.231   8.198   7.886
21149TIP3    H163324   5.137   8.204   7.905
21149TIP3    H263325   5.237   8.144   7.808
21150TIP3   OH263326   4.893   8.411   7.276
21150TIP3    H163327   4.816   8.356   7.288
21150TIP3    H263328   4.961   8.370   7.330
21151TIP3   OH263329   3.584   8.706   6.787
21151TIP3    H163330   3.657   8.755   6.824
21151TIP3    H263331   3.626   8.642   6.728
21152TIP3   OH263332   3.549   7.900   6.887
21152TIP3    H163333   3.554   7.996   6.895
21152TIP3    H263334   3.519   7.885   6.798
21153TIP3   OH263335   8.142   0.138   7.212
21153TIP3    H163336   8.100   0.200   7.152
21153TIP3    H263337   8.236   0.148   7.196
21154TIP3   OH263338   3.941   7.630   7.755
21154TIP3    H163339   3.911   7.596   7.671
21154TIP3    H263340   3.934   7.555   7.815
21155TIP3   OH263341   3.500   8.884   7.121
21155TIP3    H163342   3.438   8.923   7.059
21155TIP3    H263343   3.559   8.831   7.067
21156TIP3   OH263344   0.386   4.738   0.178
21156TIP3    H163345   0.470   4.704   0.209
21156TIP3    H263346   0.325   4.666   0.192
21157TIP3   OH263347   0.869   4.750   0.218
21157TIP3    H163348   0.933   4.698   0.265
21157TIP3    H263349   0.829   4.690   0.155
21158TIP3   OH263350   4.085   8.912   6.395
21158TIP3    H163351   4.032   8.844   6.437
21158TIP3    H263352   4.160   8.864   6.359
21159TIP3   OH263353   1.443   4.699  -0.021
21159TIP3    H163354   1.449   4.628   0.043
21159TIP3    H263355   1.455   4.779   0.031
21160TIP3   OH263356   4.536   8.971   6.300
21160TIP3    H163357   4.568   8.906   6.362
21160TIP3    H263358   4.596   8.964   6.225
21161TIP3   OH263359   0.495   4.168   0.399
21161TIP3    H163360   0.521   4.076   0.401
21161TIP3    H263361   0.413   4.168   0.348
21162TIP3   OH263362   1.085   4.248   0.164
21162TIP3    H163363   1.059   4.276   0.076
21162TIP3    H263364   1.136   4.168   0.149
21163TIP3   OH263365   4.327   8.653   6.444
21163TIP3    H163366   4.306   8.661   6.537
21163TIP3    H263367   4.311   8.561   6.424
21164TIP3   OH263368   4.870   8.969   7.786
21164TIP3    H163369   4.945   8.987   7.729
21164TIP3    H263370   4.801   9.026   7.754
21165TIP3   OH263371   0.627   3.924   0.400
21165TIP3    H163372   0.708   3.903   0.354
21165TIP3    H263373   0.654   3.945   0.489
21166TIP3   OH263374   0.957   3.805   0.050
21166TIP3    H163375   0.885   3.864   0.068
21166TIP3    H263376   0.999   3.842  -0.028
21167TIP3   OH263377   4.100   8.104   6.654
21167TIP3    H163378   4.057   8.122   6.570
21167TIP3    H263379   4.185   8.149   6.648
21168TIP3   OH263380   1.448   4.203   0.147
21168TIP3    H163381   1.543   4.192   0.149
21168TIP3    H263382   1.415   4.140   0.212
21169TIP3   OH263383   4.867   8.472   6.340
21169TIP3    H163384   4.855   8.432   6.254
21169TIP3    H263385   4.844   8.564   6.328
21170TIP3   OH263386   1.082   3.595   0.173
21170TIP3    H163387   1.090   3.523   0.111
21170TIP3    H263388   1.043   3.666   0.122
21171TIP3   OH263389   4.361   8.017   7.973
21171TIP3    H163390   4.388   8.052   7.889
21171TIP3    H263391   4.269   7.991   7.960
21172TIP3   OH263392   4.366   8.550   7.858
21172TIP3    H163393   4.456   8.577   7.835
21172TIP3    H263394   4.311   8.608   7.805
21173TIP3   OH263395   1.680   3.864   0.214
21173TIP3    H163396   1.706   3.787   0.265
21173TIP3    H263397   1.744   3.931   0.238
21174TIP3   OH263398   4.991   8.745   7.888
21174TIP3    H163399   4.937   8.818   7.858
21174TIP3    H263400   5.081   8.772   7.869
21175TIP3   OH263401   0.956   3.675   0.410
21175TIP3    H163402   0.891   3.608   0.430
21175TIP3    H263403   0.991   3.650   0.325
21176TIP3   OH263404   1.213   3.166   0.073
21176TIP3    H163405   1.174   3.246   0.040
21176TIP3    H263406   1.146   3.099   0.059
21177TIP3   OH263407   1.333   3.643   0.281
21177TIP3    H163408   1.319   3.630   0.374
21177TIP3    H263409   1.249   3.624   0.240
21178TIP3   OH263410   1.541   3.564   0.111
21178TIP3    H163411   1.476   3.580   0.180
21178TIP3    H263412   1.616   3.527   0.157
21179TIP3   OH263413   1.779   3.488   0.227
21179TIP3    H163414   1.806   3.404   0.263
21179TIP3    H263415   1.774   3.547   0.303
21180TIP3   OH263416   0.796   3.456   0.475
21180TIP3    H163417   0.802   3.368   0.439
21180TIP3    H263418   0.829   3.448   0.564
21181TIP3   OH263419   1.272   3.136   0.338
21181TIP3    H163420   1.342   3.072   0.334
21181TIP3    H263421   1.245   3.149   0.247
21182TIP3   OH263422   1.363   3.356   0.475
21182TIP3    H163423   1.330   3.282   0.423
21182TIP3    H263424   1.291   3.418   0.478
21183TIP3   OH263425   7.183   0.009   6.601
21183TIP3    H163426   7.265  -0.028   6.568
21183TIP3    H263427   7.134   0.034   6.522
21184TIP3   OH263428   3.336   8.603   6.787
21184TIP3    H163429   3.423   8.641   6.779
21184TIP3    H263430   3.341   8.522   6.737
21185TIP3   OH263431   3.263   9.160   7.246
21185TIP3    H163432   3.184   9.126   7.204
21185TIP3    H263433   3.327   9.090   7.237
21186TIP3   OH263434   8.412   0.186   7.191
21186TIP3    H163435   8.428   0.214   7.281
21186TIP3    H263436   8.471   0.240   7.139
21187TIP3   OH263437   8.423   0.221   7.465
21187TIP3    H163438   8.378   0.137   7.473
21187TIP3    H263439   8.496   0.215   7.526
21188TIP3   OH263440   5.226   9.195   7.935
21188TIP3    H163441   5.130   9.195   7.935
21188TIP3    H263442   5.249   9.286   7.957
21189TIP3   OH263443   5.043   8.680   6.671
21189TIP3    H163444   5.100   8.751   6.641
21189TIP3    H263445   5.088   8.643   6.746
21190TIP3   OH263446   5.174   8.538   6.872
21190TIP3    H163447   5.106   8.503   6.930
21190TIP3    H263448   5.238   8.577   6.931
21191TIP3   OH263449   5.196   8.931   7.287
21191TIP3    H163450   5.253   8.864   7.248
21191TIP3    H263451   5.208   9.008   7.232
21192TIP3   OH263452   5.018   9.222   7.499
21192TIP3    H163453   4.950   9.270   7.548
21192TIP3    H263454   4.970   9.180   7.427
21193TIP3   OH263455   5.077   8.455   6.518
21193TIP3    H163456   5.005   8.455   6.455
21193TIP3    H263457   5.062   8.533   6.571
21194TIP3   OH263458   4.932   8.105   6.456
21194TIP3    H163459   4.886   8.143   6.381
21194TIP3    H263460   4.922   8.010   6.444
21195TIP3   OH263461   4.966   8.404   7.008
21195TIP3    H163462   4.971   8.309   6.995
21195TIP3    H263463   4.946   8.415   7.101
21196TIP3   OH263464   3.585   8.460   7.785
21196TIP3    H163465   3.577   8.424   7.697
21196TIP3    H263466   3.679   8.456   7.804
21197TIP3   OH263467   5.249   8.825   7.835
21197TIP3    H163468   5.310   8.752   7.821
21197TIP3    H263469   5.246   8.870   7.751
21198TIP3   OH263470   5.398   8.596   7.810
21198TIP3    H163471   5.326   8.552   7.854
21198TIP3    H263472   5.477   8.550   7.840
21199TIP3   OH263473   4.890   7.834   6.427
21199TIP3    H163474   4.956   7.808   6.491
21199TIP3    H263475   4.809   7.793   6.457
21200TIP3   OH263476   4.960   8.123   6.895
21200TIP3    H163477   5.004   8.039   6.905
21200TIP3    H263478   5.003   8.163   6.818
21201TIP3   OH263479   5.107   8.282   7.408
21201TIP3    H163480   5.188   8.300   7.360
21201TIP3    H263481   5.121   8.322   7.494
21202TIP3   OH263482   5.178   8.425   7.635
21202TIP3    H163483   5.102   8.450   7.689
21202TIP3    H263484   5.208   8.508   7.598
21203TIP3   OH263485   0.535   3.523   0.419
21203TIP3    H163486   0.630   3.518   0.435
21203TIP3    H263487   0.500   3.442   0.457
21204TIP3   OH263488   2.351   3.357   0.131
21204TIP3    H163489   2.417   3.304   0.086
21204TIP3    H263490   2.324   3.422   0.066
21205TIP3   OH263491   5.069   7.870   6.945
21205TIP3    H163492   5.118   7.856   7.026
21205TIP3    H263493   5.008   7.796   6.940
21206TIP3   OH263494   3.780   7.857   7.776
21206TIP3    H163495   3.833   7.777   7.781
21206TIP3    H263496   3.843   7.926   7.758
21207TIP3   OH263497   3.563   8.116   7.836
21207TIP3    H163498   3.612   8.112   7.754
21207TIP3    H263499   3.609   8.182   7.888
21208TIP3   OH263500   5.491   8.139   7.951
21208TIP3    H163501   5.407   8.184   7.949
21208TIP3    H263502   5.476   8.057   7.904
21209TIP3   OH263503   5.116   7.785   6.585
21209TIP3    H163504   5.164   7.725   6.528
21209TIP3    H263505   5.171   7.864   6.588
21210TIP3   OH263506   3.549   7.633   7.336
21210TIP3    H163507   3.465   7.620   7.380
21210TIP3    H263508   3.528   7.687   7.260
21211TIP3   OH263509   7.991   0.116   6.851
21211TIP3    H163510   8.025   0.085   6.767
21211TIP3    H263511   8.051   0.187   6.877
21212TIP3   OH263512   0.504   3.062   0.157
21212TIP3    H163513   0.454   3.055   0.239
21212TIP3    H263514   0.447   3.113   0.100
21213TIP3   OH263515   0.544   4.508   0.227
21213TIP3    H163516   0.453   4.485   0.209
21213TIP3    H263517   0.556   4.492   0.320
21214TIP3   OH263518   4.009   9.182   7.773
21214TIP3    H163519   3.967   9.264   7.746
21214TIP3    H263520   4.097   9.187   7.737
21215TIP3   OH263521   7.655   0.212   7.839
21215TIP3    H163522   7.678   0.157   7.914
21215TIP3    H263523   7.739   0.242   7.804
21216TIP3   OH263524   7.893   0.316   7.757
21216TIP3    H163525   7.973   0.267   7.737
21216TIP3    H263526   7.921   0.386   7.815
21217TIP3   OH263527   5.407   7.893   7.857
21217TIP3    H163528   5.319   7.882   7.819
21217TIP3    H263529   5.444   7.804   7.858
21218TIP3   OH263530   6.919   0.165   7.773
21218TIP3    H163531   6.826   0.183   7.769
21218TIP3    H263532   6.950   0.211   7.851
21219TIP3   OH263533   7.185   0.185   7.685
21219TIP3    H163534   7.097   0.192   7.723
21219TIP3    H263535   7.173   0.208   7.593
21220TIP3   OH263536   7.577   0.219   7.484
21220TIP3    H163537   7.517   0.205   7.410
21220TIP3    H263538   7.583   0.314   7.492
21221TIP3   OH263539   7.832   0.112   7.501
21221TIP3    H163540   7.743   0.148   7.503
21221TIP3    H263541   7.886   0.183   7.468
21222TIP3   OH263542   8.028   0.288   7.412
21222TIP3    H163543   8.041   0.377   7.379
21222TIP3    H263544   8.064   0.231   7.343
21223TIP3   OH263545   3.621   9.218   7.564
21223TIP3    H163546   3.662   9.291   7.611
21223TIP3    H263547   3.690   9.186   7.506
21224TIP3   OH263548   3.804   9.102   7.404
21224TIP3    H163549   3.814   9.014   7.441
21224TIP3    H263550   3.894   9.136   7.400
21225TIP3   OH263551   4.074   9.180   7.427
21225TIP3    H163552   4.091   9.087   7.412
21225TIP3    H263553   4.128   9.202   7.503
21226TIP3   OH263554   4.596   7.830   7.519
21226TIP3    H163555   4.556   7.763   7.574
21226TIP3    H263556   4.661   7.782   7.467
21227TIP3   OH263557   5.107   7.727   7.381
21227TIP3    H163558   5.155   7.773   7.312
21227TIP3    H263559   5.037   7.788   7.406
21228TIP3   OH263560   5.234   7.820   7.161
21228TIP3    H163561   5.304   7.759   7.136
21228TIP3    H263562   5.272   7.907   7.149
21229TIP3   OH263563   3.857   7.524   7.513
21229TIP3    H163564   3.767   7.493   7.524
21229TIP3    H263565   3.909   7.444   7.506
21230TIP3   OH263566   3.688   7.445   7.178
21230TIP3    H163567   3.700   7.491   7.095
21230TIP3    H263568   3.643   7.508   7.234
21231TIP3   OH263569   4.798   7.697   7.389
21231TIP3    H163570   4.851   7.674   7.313
21231TIP3    H263571   4.810   7.625   7.450
21232TIP3   OH263572   4.880   7.654   6.954
21232TIP3    H163573   4.806   7.708   6.980
21232TIP3    H263574   4.863   7.568   6.993
21233TIP3   OH263575   3.330   8.991   6.942
21233TIP3    H163576   3.245   8.961   6.909
21233TIP3    H263577   3.345   9.074   6.897
21234TIP3   OH263578   3.770   7.567   6.928
21234TIP3    H163579   3.817   7.506   6.872
21234TIP3    H263580   3.837   7.626   6.962
21235TIP3   OH263581   4.153   9.144   6.520
21235TIP3    H163582   4.237   9.168   6.482
21235TIP3    H263583   4.123   9.070   6.468
21236TIP3   OH263584   8.113   0.050   6.614
21236TIP3    H163585   8.105  -0.045   6.607
21236TIP3    H263586   8.075   0.083   6.533
21237TIP3   OH263587   0.815   3.189   0.392
21237TIP3    H163588   0.779   3.125   0.453
21237TIP3    H263589   0.907   3.197   0.416
21238TIP3   OH263590   1.061   3.191   0.516
21238TIP3    H163591   1.137   3.167   0.463
21238TIP3    H263592   1.056   3.124   0.583
21239TIP3   OH263593   3.463   9.009   6.582
21239TIP3    H163594   3.461   9.027   6.676
21239TIP3    H263595   3.544   8.959   6.570
21240TIP3   OH263596   1.878   3.252   0.320
21240TIP3    H163597   1.904   3.232   0.410
21240TIP3    H263598   1.960   3.254   0.271
21241TIP3   OH263599   8.343   0.197   7.767
21241TIP3    H163600   8.257   0.179   7.730
21241TIP3    H263601   8.325   0.237   7.852
21242TIP3   OH263602   6.345   8.820   6.553
21242TIP3    H163603   6.312   8.904   6.524
21242TIP3    H263604   6.277   8.757   6.530
21243TIP3   OH263605   6.325   8.817   6.955
21243TIP3    H163606   6.363   8.793   7.040
21243TIP3    H263607   6.294   8.734   6.918
21244TIP3   OH263608   5.636   8.662   7.325
21244TIP3    H163609   5.665   8.602   7.394
21244TIP3    H263610   5.704   8.730   7.322
21245TIP3   OH263611   6.624   9.093   6.637
21245TIP3    H163612   6.602   9.038   6.712
21245TIP3    H263613   6.634   9.181   6.674
21246TIP3   OH263614   5.635   9.103   7.004
21246TIP3    H163615   5.617   9.009   7.015
21246TIP3    H263616   5.730   9.108   6.998
21247TIP3   OH263617   5.323   8.313   6.789
21247TIP3    H163618   5.285   8.397   6.816
21247TIP3    H263619   5.250   8.264   6.751
21248TIP3   OH263620   5.402   8.627   7.011
21248TIP3    H163621   5.451   8.549   7.038
21248TIP3    H263622   5.470   8.693   6.993
21249TIP3   OH263623   9.553   0.305   6.671
21249TIP3    H163624   9.578   0.246   6.599
21249TIP3    H263625   9.552   0.249   6.749
21250TIP3   OH263626   6.150   9.044   6.965
21250TIP3    H163627   6.192   8.962   6.940
21250TIP3    H263628   6.223   9.103   6.988
21251TIP3   OH263629   7.178   8.341   6.972
21251TIP3    H163630   7.183   8.433   6.999
21251TIP3    H263631   7.222   8.339   6.887
21252TIP3   OH263632   6.533   8.539   6.993
21252TIP3    H163633   6.580   8.457   7.012
21252TIP3    H263634   6.443   8.511   6.977
21253TIP3   OH263635   5.915   8.191   6.972
21253TIP3    H163636   5.888   8.261   6.912
21253TIP3    H263637   5.861   8.116   6.946
21254TIP3   OH263638   5.536   8.403   7.102
21254TIP3    H163639   5.618   8.386   7.148
21254TIP3    H263640   5.542   8.351   7.021
21255TIP3   OH263641   5.970   8.597   6.909
21255TIP3    H163642   6.063   8.573   6.915
21255TIP3    H263643   5.926   8.518   6.877
21256TIP3   OH263644   7.204   8.593   7.086
21256TIP3    H163645   7.116   8.630   7.095
21256TIP3    H263646   7.228   8.568   7.175
21257TIP3   OH263647   5.890   8.184   7.422
21257TIP3    H163648   5.836   8.223   7.353
21257TIP3    H263649   5.837   8.194   7.501
21258TIP3   OH263650   6.247   9.039   6.413
21258TIP3    H163651   6.207   9.009   6.332
21258TIP3    H263652   6.195   9.114   6.440
21259TIP3   OH263653   6.001   8.969   7.186
21259TIP3    H163654   5.942   9.035   7.224
21259TIP3    H263655   6.040   9.012   7.110
21260TIP3   OH263656   6.741   8.320   6.752
21260TIP3    H163657   6.716   8.269   6.829
21260TIP3    H263658   6.799   8.388   6.787
21261TIP3   OH263659   5.782   8.298   7.193
21261TIP3    H163660   5.833   8.374   7.219
21261TIP3    H263661   5.832   8.258   7.122
21262TIP3   OH263662   5.837   9.161   7.296
21262TIP3    H163663   5.830   9.254   7.275
21262TIP3    H263664   5.751   9.138   7.332
21263TIP3   OH263665   5.212   8.868   6.553
21263TIP3    H163666   5.177   8.893   6.467
21263TIP3    H263667   5.238   8.951   6.593
21264TIP3   OH263668   0.115   0.105   6.745
21264TIP3    H163669   0.034   0.108   6.797
21264TIP3    H263670   0.129   0.195   6.716
21265TIP3   OH263671   6.956   8.267   7.136
21265TIP3    H163672   6.874   8.278   7.087
21265TIP3    H263673   7.025   8.283   7.071
21266TIP3   OH263674   6.234   7.881   7.153
21266TIP3    H163675   6.227   7.788   7.178
21266TIP3    H263676   6.158   7.922   7.194
21267TIP3   OH263677   9.630   0.165   6.444
21267TIP3    H163678   9.682   0.086   6.435
21267TIP3    H263679   9.688   0.236   6.414
21268TIP3   OH263680   6.494   9.170   6.404
21268TIP3    H163681   6.419   9.111   6.401
21268TIP3    H263682   6.547   9.136   6.476
21269TIP3   OH263683   6.170   8.650   6.421
21269TIP3    H163684   6.090   8.697   6.395
21269TIP3    H263685   6.219   8.639   6.340
21270TIP3   OH263686   6.137   8.472   6.094
21270TIP3    H163687   6.202   8.519   6.146
21270TIP3    H263688   6.187   8.405   6.047
21271TIP3   OH263689   7.032   8.903   6.958
21271TIP3    H163690   6.967   8.971   6.977
21271TIP3    H263691   7.084   8.939   6.886
21272TIP3   OH263692   6.532   8.754   6.365
21272TIP3    H163693   6.473   8.783   6.435
21272TIP3    H263694   6.615   8.738   6.409
21273TIP3   OH263695   6.719   8.797   7.243
21273TIP3    H163696   6.734   8.887   7.272
21273TIP3    H263697   6.625   8.794   7.224
21274TIP3   OH263698   5.763   8.735   6.771
21274TIP3    H163699   5.724   8.675   6.707
21274TIP3    H263700   5.837   8.687   6.807
21275TIP3   OH263701   5.897   9.155   6.908
21275TIP3    H163702   5.871   9.142   6.817
21275TIP3    H263703   5.985   9.118   6.914
21276TIP3   OH263704   5.870   8.731   7.134
21276TIP3    H163705   5.910   8.696   7.055
21276TIP3    H263706   5.917   8.812   7.152
21277TIP3   OH263707   9.683   0.123   6.894
21277TIP3    H163708   9.662   0.200   6.946
21277TIP3    H263709   9.669   0.049   6.953
21278TIP3   OH263710   9.304   0.011   7.472
21278TIP3    H163711   9.246   0.071   7.520
21278TIP3    H263712   9.244  -0.044   7.421
21279TIP3   OH263713   6.359   8.604   6.207
21279TIP3    H163714   6.417   8.664   6.254
21279TIP3    H263715   6.388   8.609   6.116
21280TIP3   OH263716   5.788   8.814   7.526
21280TIP3    H163717   5.795   8.907   7.549
21280TIP3    H263718   5.699   8.790   7.550
21281TIP3   OH263719   9.383   0.040   6.453
21281TIP3    H163720   9.464   0.092   6.460
21281TIP3    H263721   9.323   0.096   6.404
21282TIP3   OH263722   9.114   0.189   7.552
21282TIP3    H163723   9.091   0.202   7.461
21282TIP3    H263724   9.032   0.164   7.595
21283TIP3   OH263725   6.889   7.912   6.302
21283TIP3    H163726   6.803   7.901   6.342
21283TIP3    H263727   6.872   7.961   6.221
21284TIP3   OH263728   5.634   8.578   6.571
21284TIP3    H163729   5.558   8.627   6.540
21284TIP3    H263730   5.599   8.491   6.593
21285TIP3   OH263731   0.166  -0.021   5.810
21285TIP3    H163732   0.162   0.073   5.789
21285TIP3    H263733   0.255  -0.047   5.787
21286TIP3   OH263734   5.409   8.963   7.474
21286TIP3    H163735   5.340   8.935   7.415
21286TIP3    H263736   5.448   8.881   7.507
21287TIP3   OH263737   5.269   9.167   7.151
21287TIP3    H163738   5.362   9.185   7.167
21287TIP3    H263739   5.224   9.245   7.182
21288TIP3   OH263740   9.472   0.181   7.338
21288TIP3    H163741   9.474   0.263   7.387
21288TIP3    H263742   9.409   0.126   7.386
21289TIP3   OH263743   9.272   0.248   6.285
21289TIP3    H163744   9.225   0.232   6.203
21289TIP3    H263745   9.242   0.334   6.314
21290TIP3   OH263746   8.703   0.113   6.663
21290TIP3    H163747   8.748   0.110   6.747
21290TIP3    H263748   8.657   0.030   6.657
21291TIP3   OH263749   9.472   0.201   5.909
21291TIP3    H163750   9.522   0.128   5.872
21291TIP3    H263751   9.506   0.211   5.998
21292TIP3   OH263752   9.524   0.234   6.180
21292TIP3    H163753   9.437   0.233   6.220
21292TIP3    H263754   9.582   0.198   6.248
21293TIP3   OH263755   6.997   8.754   7.437
21293TIP3    H163756   7.018   8.769   7.345
21293TIP3    H263757   6.955   8.668   7.438
21294TIP3   OH263758   5.586   9.170   7.423
21294TIP3    H163759   5.643   9.163   7.500
21294TIP3    H263760   5.522   9.100   7.435
21295TIP3   OH263761   5.998   7.975   7.274
21295TIP3    H163762   5.914   7.939   7.244
21295TIP3    H263763   5.974   8.053   7.323
21296TIP3   OH263764   6.540   8.113   7.466
21296TIP3    H163765   6.614   8.088   7.520
21296TIP3    H263766   6.463   8.090   7.518
21297TIP3   OH263767   6.769   8.553   7.369
21297TIP3    H163768   6.711   8.549   7.445
21297TIP3    H263769   6.747   8.636   7.326
21298TIP3   OH263770   6.440   8.588   5.941
21298TIP3    H163771   6.394   8.594   5.858
21298TIP3    H263772   6.521   8.637   5.928
21299TIP3   OH263773   6.155   8.011   6.266
21299TIP3    H163774   6.114   8.021   6.352
21299TIP3    H263775   6.114   7.932   6.230
21300TIP3   OH263776   5.925   8.511   7.292
21300TIP3    H163777   5.878   8.515   7.375
21300TIP3    H263778   5.900   8.591   7.247
21301TIP3   OH263779   5.822   8.387   6.805
21301TIP3    H163780   5.732   8.365   6.830
21301TIP3    H263781   5.830   8.354   6.715
21302TIP3   OH263782   6.502   8.792   7.583
21302TIP3    H163783   6.462   8.709   7.610
21302TIP3    H263784   6.595   8.782   7.606
21303TIP3   OH263785   5.766   8.500   7.518
21303TIP3    H163786   5.775   8.562   7.591
21303TIP3    H263787   5.750   8.416   7.561
21304TIP3   OH263788   5.819   8.003   6.229
21304TIP3    H163789   5.808   8.004   6.324
21304TIP3    H263790   5.740   8.044   6.194
21305TIP3   OH263791   5.365   8.043   7.087
21305TIP3    H163792   5.436   8.078   7.141
21305TIP3    H263793   5.405   8.024   7.003
21306TIP3   OH263794   5.270   8.019   6.595
21306TIP3    H163795   5.316   8.054   6.519
21306TIP3    H263796   5.208   8.087   6.620
21307TIP3   OH263797   6.449   8.722   7.187
21307TIP3    H163798   6.489   8.659   7.127
21307TIP3    H263799   6.426   8.671   7.264
21308TIP3   OH263800   6.180   8.245   6.889
21308TIP3    H163801   6.098   8.218   6.930
21308TIP3    H263802   6.244   8.180   6.917
21309TIP3   OH263803   5.584   8.264   6.868
21309TIP3    H163804   5.495   8.269   6.833
21309TIP3    H263805   5.609   8.172   6.857
21310TIP3   OH263806   5.835   8.267   6.558
21310TIP3    H163807   5.928   8.274   6.536
21310TIP3    H263808   5.790   8.283   6.475
21311TIP3   OH263809   6.655   8.283   7.048
21311TIP3    H163810   6.631   8.303   7.139
21311TIP3    H263811   6.633   8.191   7.037
21312TIP3   OH263812   5.709   8.287   6.317
21312TIP3    H163813   5.647   8.236   6.265
21312TIP3    H263814   5.763   8.332   6.253
21313TIP3   OH263815   5.777   9.076   7.615
21313TIP3    H163816   5.865   9.087   7.652
21313TIP3    H263817   5.719   9.076   7.690
21314TIP3   OH263818   6.248   8.502   6.966
21314TIP3    H163819   6.230   8.416   6.929
21314TIP3    H263820   6.228   8.492   7.060
21315TIP3   OH263821   5.723   8.011   6.864
21315TIP3    H163822   5.694   7.937   6.917
21315TIP3    H263823   5.746   7.973   6.779
21316TIP3   OH263824   6.186   8.452   7.228
21316TIP3    H163825   6.099   8.484   7.254
21316TIP3    H263826   6.247   8.496   7.287
21317TIP3   OH263827   5.941   8.795   6.351
21317TIP3    H163828   5.865   8.743   6.326
21317TIP3    H263829   5.915   8.839   6.431
21318TIP3   OH263830   6.774   9.063   7.020
21318TIP3    H163831   6.825   9.113   6.957
21318TIP3    H263832   6.711   9.014   6.968
21319TIP3   OH263833   6.407   8.108   6.245
21319TIP3    H163834   6.316   8.081   6.254
21319TIP3    H263835   6.406   8.203   6.256
21320TIP3   OH263836   6.340   9.149   7.331
21320TIP3    H163837   6.349   9.100   7.412
21320TIP3    H263838   6.260   9.200   7.341
21321TIP3   OH263839   6.460   8.369   6.321
21321TIP3    H163840   6.551   8.398   6.326
21321TIP3    H263841   6.412   8.445   6.289
21322TIP3   OH263842   5.628   8.809   7.004
21322TIP3    H163843   5.668   8.795   6.918
21322TIP3    H263844   5.693   8.778   7.066
21323TIP3   OH263845   6.092   8.958   6.193
21323TIP3    H163846   6.043   9.041   6.191
21323TIP3    H263847   6.038   8.900   6.246
21324TIP3   OH263848   5.530   8.756   7.619
21324TIP3    H163849   5.576   8.764   7.703
21324TIP3    H263850   5.462   8.691   7.635
21325TIP3   OH263851   6.249   8.896   7.624
21325TIP3    H163852   6.184   8.831   7.596
21325TIP3    H263853   6.332   8.860   7.593
21326TIP3   OH263854   9.792   0.122   7.349
21326TIP3    H163855   9.719   0.062   7.336
21326TIP3    H263856   9.769   0.199   7.297
21327TIP3   OH263857   6.876   8.467   6.148
21327TIP3    H163858   6.824   8.419   6.085
21327TIP3    H263859   6.883   8.555   6.112
21328TIP3   OH263860   0.090   0.040   6.078
21328TIP3    H163861   0.055  -0.031   6.132
21328TIP3    H263862   0.106  -0.001   5.993
21329TIP3   OH263863   6.579   8.925   6.866
21329TIP3    H163864   6.487   8.901   6.876
21329TIP3    H263865   6.621   8.847   6.831
21330TIP3   OH263866   5.753   9.157   6.668
21330TIP3    H163867   5.747   9.233   6.610
21330TIP3    H263868   5.666   9.150   6.706
21331TIP3   OH263869   5.317   8.445   6.381
21331TIP3    H163870   5.359   8.528   6.403
21331TIP3    H263871   5.236   8.446   6.432
21332TIP3   OH263872   5.840   8.915   6.571
21332TIP3    H163873   5.821   9.004   6.600
21332TIP3    H263874   5.814   8.860   6.644
21333TIP3   OH263875   9.310   0.233   7.114
21333TIP3    H163876   9.342   0.312   7.069
21333TIP3    H263877   9.381   0.210   7.175
21334TIP3   OH263878   8.935   0.137   6.517
21334TIP3    H163879   8.848   0.143   6.557
21334TIP3    H263880   8.969   0.227   6.522
21335TIP3   OH263881   6.395   9.143   7.062
21335TIP3    H163882   6.380   9.136   7.156
21335TIP3    H263883   6.463   9.077   7.044
21336TIP3   OH263884   6.383   9.025   5.959
21336TIP3    H163885   6.432   8.996   6.036
21336TIP3    H263886   6.299   8.980   5.967
21337TIP3   OH263887   0.171   0.253   5.774
21337TIP3    H163888   0.217   0.327   5.734
21337TIP3    H263889   0.089   0.290   5.807
21338TIP3   OH263890   5.716   8.240   7.630
21338TIP3    H163891   5.622   8.253   7.638
21338TIP3    H263892   5.739   8.179   7.700
21339TIP3   OH263893   6.556   8.937   6.153
21339TIP3    H163894   6.539   8.884   6.231
21339TIP3    H263895   6.652   8.943   6.149
21340TIP3   OH263896   8.723   0.133   7.272
21340TIP3    H163897   8.774   0.072   7.326
21340TIP3    H263898   8.737   0.218   7.312
21341TIP3   OH263899   5.737   8.987   5.979
21341TIP3    H163900   5.746   8.896   5.952
21341TIP3    H263901   5.722   8.983   6.074
21342TIP3   OH263902   5.677   9.003   6.251
21342TIP3    H163903   5.737   8.976   6.320
21342TIP3    H263904   5.675   9.098   6.255
21343TIP3   OH263905   5.410   8.697   6.459
21343TIP3    H163906   5.344   8.744   6.511
21343TIP3    H263907   5.428   8.755   6.385
21344TIP3   OH263908   6.579   8.334   7.308
21344TIP3    H163909   6.648   8.383   7.354
21344TIP3    H263910   6.561   8.259   7.365
21345TIP3   OH263911   6.547   8.167   6.505
21345TIP3    H163912   6.486   8.202   6.440
21345TIP3    H263913   6.565   8.078   6.475
21346TIP3   OH263914   5.946   9.185   6.186
21346TIP3    H163915   5.862   9.210   6.225
21346TIP3    H263916   5.969   9.259   6.131
21347TIP3   OH263917   6.132   8.277   6.613
21347TIP3    H163918   6.167   8.362   6.587
21347TIP3    H263919   6.149   8.272   6.707
21348TIP3   OH263920   6.390   8.543   7.388
21348TIP3    H163921   6.384   8.561   7.482
21348TIP3    H263922   6.452   8.471   7.381
21349TIP3   OH263923   6.286   7.958   6.700
21349TIP3    H163924   6.316   7.992   6.784
21349TIP3    H263925   6.338   8.005   6.635
21350TIP3   OH263926   8.964   0.036   6.266
21350TIP3    H163927   8.945   0.109   6.207
21350TIP3    H263928   8.953   0.071   6.354
21351TIP3   OH263929   5.789   7.991   6.506
21351TIP3    H163930   5.775   8.082   6.535
21351TIP3    H263931   5.884   7.978   6.516
21352TIP3   OH263932   7.008   8.418   7.365
21352TIP3    H163933   6.923   8.463   7.374
21352TIP3    H263934   6.996   8.359   7.291
21353TIP3   OH263935   6.682   8.671   6.795
21353TIP3    H163936   6.619   8.633   6.856
21353TIP3    H263937   6.766   8.631   6.820
21354TIP3   OH263938   5.431   8.872   6.242
21354TIP3    H163939   5.503   8.936   6.250
21354TIP3    H263940   5.463   8.809   6.177
21355TIP3   OH263941   5.339   8.167   6.374
21355TIP3    H163942   5.353   8.261   6.385
21355TIP3    H263943   5.277   8.160   6.302
21356TIP3   OH263944   0.144   0.375   6.682
21356TIP3    H163945   0.092   0.434   6.626
21356TIP3    H263946   0.182   0.433   6.748
21357TIP3   OH263947   5.738   7.885   7.243
21357TIP3    H163948   5.707   7.852   7.160
21357TIP3    H263949   5.729   7.812   7.304
21358TIP3   OH263950   5.269   9.126   6.650
21358TIP3    H163951   5.232   9.163   6.730
21358TIP3    H263952   5.222   9.171   6.579
21359TIP3   OH263953   8.698   0.421   7.692
21359TIP3    H163954   8.756   0.419   7.768
21359TIP3    H263955   8.665   0.331   7.685
21360TIP3   OH263956   5.891   9.187   5.869
21360TIP3    H163957   5.843   9.117   5.914
21360TIP3    H263958   5.965   9.142   5.828
21361TIP3   OH263959   6.332   9.231   5.788
21361TIP3    H163960   6.365   9.166   5.849
21361TIP3    H263961   6.389   9.225   5.712
21362TIP3   OH263962   5.595   9.079   7.819
21362TIP3    H163963   5.575   9.017   7.888
21362TIP3    H263964   5.513   9.091   7.772
21363TIP3   OH263965   5.556   8.683   6.090
21363TIP3    H163966   5.606   8.660   6.168
21363TIP3    H263967   5.622   8.696   6.022
21364TIP3   OH263968   6.263   9.173   7.610
21364TIP3    H163969   6.176   9.196   7.578
21364TIP3    H263970   6.257   9.079   7.629
21365TIP3   OH263971   6.131   8.904   5.928
21365TIP3    H163972   6.108   8.915   6.020
21365TIP3    H263973   6.111   8.813   5.909
21366TIP3   OH263974   6.702   9.135   7.287
21366TIP3    H163975   6.733   9.121   7.197
21366TIP3    H263976   6.646   9.212   7.281
21367TIP3   OH263977   5.671   8.757   7.853
21367TIP3    H163978   5.753   8.718   7.886
21367TIP3    H263979   5.628   8.791   7.931
21368TIP3   OH263980   5.727   8.625   6.303
21368TIP3    H163981   5.705   8.595   6.392
21368TIP3    H263982   5.774   8.551   6.264
21369TIP3   OH263983   6.044   8.703   7.525
21369TIP3    H163984   5.957   8.744   7.526
21369TIP3    H263985   6.082   8.730   7.442
21370TIP3   OH263986   5.866   8.438   6.150
21370TIP3    H163987   5.836   8.443   6.059
21370TIP3    H263988   5.961   8.447   6.144
21371TIP3   OH263989   6.659   8.724   5.834
21371TIP3    H163990   6.646   8.685   5.748
21371TIP3    H263991   6.638   8.817   5.822
21372TIP3   OH263992   6.106   8.454   7.622
21372TIP3    H163993   6.124   8.382   7.562
21372TIP3    H263994   6.082   8.528   7.566
21373TIP3   OH263995   6.152   8.254   7.431
21373TIP3    H163996   6.171   8.299   7.348
21373TIP3    H263997   6.060   8.232   7.425
21374TIP3   OH263998   6.173   8.791   7.304
21374TIP3    H163999   6.260   8.803   7.266
21374TIP3    H264000   6.118   8.858   7.263
21375TIP3   OH264001   6.009   8.592   7.839
21375TIP3    H164002   5.948   8.526   7.874
21375TIP3    H264003   6.035   8.557   7.754
21376TIP3   OH264004   6.274   8.026   7.531
21376TIP3    H164005   6.231   8.104   7.497
21376TIP3    H264006   6.205   7.959   7.532
21377TIP3   OH264007   6.346   8.584   7.666
21377TIP3    H164008   6.393   8.556   7.745
21377TIP3    H264009   6.263   8.535   7.669
21378TIP3   OH264010   6.613   8.483   7.582
21378TIP3    H164011   6.558   8.435   7.644
21378TIP3    H264012   6.701   8.477   7.620
21379TIP3   OH264013   6.866   8.454   7.666
21379TIP3    H164014   6.926   8.389   7.627
21379TIP3    H264015   6.856   8.426   7.757
21380TIP3   OH264016   5.862   8.365   7.901
21380TIP3    H164017   5.874   8.275   7.870
21380TIP3    H264018   5.833   8.355   7.992
21381TIP3   OH264019   6.403   8.078   7.764
21381TIP3    H164020   6.424   7.996   7.809
21381TIP3    H264021   6.354   8.051   7.686
21382TIP3   OH264022   6.479   8.341   7.782
21382TIP3    H164023   6.479   8.246   7.768
21382TIP3    H264024   6.395   8.359   7.825
21383TIP3   OH264025   8.970   0.253   6.091
21383TIP3    H164026   9.056   0.225   6.059
21383TIP3    H264027   8.927   0.290   6.015
21384TIP3   OH264028   5.158   8.872   6.256
21384TIP3    H164029   5.253   8.882   6.255
21384TIP3    H264030   5.143   8.785   6.218
21385TIP3   OH264031   8.329   0.184   6.724
21385TIP3    H164032   8.267   0.133   6.672
21385TIP3    H264033   8.374   0.120   6.778
21386TIP3   OH264034   8.482   0.027   6.890
21386TIP3    H164035   8.479  -0.036   6.963
21386TIP3    H264036   8.527   0.104   6.927
21387TIP3   OH264037   6.835   8.932   6.159
21387TIP3    H164038   6.893   9.001   6.127
21387TIP3    H264039   6.881   8.895   6.235
21388TIP3   OH264040   6.958   8.786   6.364
21388TIP3    H164041   6.889   8.760   6.425
21388TIP3    H264042   7.026   8.824   6.419
21389TIP3   OH264043   6.937   9.159   6.822
21389TIP3    H164044   7.015   9.123   6.781
21389TIP3    H264045   6.892   9.205   6.751
21390TIP3   OH264046   6.871   8.705   6.008
21390TIP3    H164047   6.799   8.704   5.945
21390TIP3    H264048   6.856   8.784   6.060
21391TIP3   OH264049   6.728   8.359   5.946
21391TIP3    H164050   6.688   8.407   5.874
21391TIP3    H264051   6.713   8.267   5.926
21392TIP3   OH264052   6.752   8.671   6.520
21392TIP3    H164053   6.760   8.576   6.515
21392TIP3    H264054   6.725   8.688   6.610
21393TIP3   OH264055   5.376   8.718   7.268
21393TIP3    H164056   5.367   8.686   7.178
21393TIP3    H264057   5.469   8.707   7.288
21394TIP3   OH264058   6.680   8.091   5.905
21394TIP3    H164059   6.743   8.065   5.972
21394TIP3    H264060   6.597   8.053   5.934
21395TIP3   OH264061   6.759   8.388   6.409
21395TIP3    H164062   6.817   8.313   6.399
21395TIP3    H264063   6.780   8.445   6.334
21396TIP3   OH264064   6.895   8.517   6.878
21396TIP3    H164065   6.977   8.541   6.836
21396TIP3    H264066   6.903   8.551   6.967
21397TIP3   OH264067   6.943   8.690   7.102
21397TIP3    H164068   6.864   8.720   7.147
21397TIP3    H264069   6.971   8.766   7.051
21398TIP3   OH264070   5.592   8.406   7.866
21398TIP3    H164071   5.687   8.410   7.868
21398TIP3    H264072   5.568   8.346   7.936
21399TIP3   OH264073   6.839   8.150   6.516
21399TIP3    H164074   6.907   8.147   6.583
21399TIP3    H264075   6.818   8.058   6.498
21400TIP3   OH264076   5.576   8.111   7.252
21400TIP3    H164077   5.630   8.033   7.263
21400TIP3    H264078   5.638   8.182   7.237
21401TIP3   OH264079   5.353   8.369   7.316
21401TIP3    H164080   5.407   8.369   7.236
21401TIP3    H264081   5.381   8.446   7.365
21402TIP3   OH264082   7.334   8.405   7.593
21402TIP3    H164083   7.249   8.419   7.635
21402TIP3    H264084   7.315   8.356   7.514
21403TIP3   OH264085   6.905   8.042   6.063
21403TIP3    H164086   6.951   7.981   6.006
21403TIP3    H264087   6.962   8.119   6.069
21404TIP3   OH264088   5.344   7.886   6.822
21404TIP3    H164089   5.258   7.874   6.864
21404TIP3    H264090   5.326   7.940   6.745
21405TIP3   OH264091  -0.029   0.366   6.335
21405TIP3    H164092   0.022   0.354   6.255
21405TIP3    H264093   0.018   0.435   6.383
21406TIP3   OH264094   5.557   7.923   7.618
21406TIP3    H164095   5.514   7.923   7.703
21406TIP3    H264096   5.503   7.980   7.564
21407TIP3   OH264097   8.877   0.110   7.674
21407TIP3    H164098   8.787   0.131   7.647
21407TIP3    H264099   8.866   0.057   7.753
21408TIP3   OH264100   9.090   0.196   7.274
21408TIP3    H164101   9.030   0.263   7.242
21408TIP3    H264102   9.170   0.207   7.222
21409TIP3   OH264103   7.203   8.131   7.371
21409TIP3    H164104   7.114   8.111   7.341
21409TIP3    H264105   7.253   8.051   7.356
21410TIP3   OH264106   8.726   0.416   7.315
21410TIP3    H164107   8.637   0.440   7.287
21410TIP3    H264108   8.749   0.481   7.380
21411TIP3   OH264109   8.956   0.406   7.166
21411TIP3    H164110   8.872   0.413   7.213
21411TIP3    H264111   8.937   0.435   7.077
21412TIP3   OH264112   9.367   0.462   6.964
21412TIP3    H164113   9.310   0.464   6.887
21412TIP3    H264114   9.317   0.506   7.033
21413TIP3   OH264115   9.626   0.375   6.984
21413TIP3    H164116   9.536   0.410   6.985
21413TIP3    H264117   9.666   0.415   6.906
21414TIP3   OH264118   8.645   0.227   7.024
21414TIP3    H164119   8.668   0.202   7.114
21414TIP3    H264120   8.718   0.196   6.971
21415TIP3   OH264121   8.851   0.108   6.893
21415TIP3    H164122   8.862   0.025   6.939
21415TIP3    H264123   8.937   0.150   6.899
21416TIP3   OH264124   9.120   0.192   6.914
21416TIP3    H164125   9.137   0.098   6.901
21416TIP3    H264126   9.174   0.216   6.989
21417TIP3   OH264127   6.363   8.040   6.951
21417TIP3    H164128   6.341   7.987   7.027
21417TIP3    H264129   6.453   8.016   6.930
21418TIP3   OH264130   6.918   8.032   6.920
21418TIP3    H164131   6.967   8.093   6.864
21418TIP3    H264132   6.875   7.973   6.859
21419TIP3   OH264133   7.044   8.136   6.695
21419TIP3    H164134   7.058   8.042   6.681
21419TIP3    H264135   7.113   8.178   6.643
21420TIP3   OH264136   5.649   7.783   7.003
21420TIP3    H164137   5.560   7.748   7.013
21420TIP3    H264138   5.704   7.705   6.995
21421TIP3   OH264139   5.466   7.691   6.653
21421TIP3    H164140   5.494   7.741   6.576
21421TIP3    H264141   5.431   7.757   6.713
21422TIP3   OH264142   6.116   7.826   6.894
21422TIP3    H164143   6.164   7.875   6.827
21422TIP3    H264144   6.156   7.853   6.977
21423TIP3   OH264145   6.611   7.964   6.853
21423TIP3    H164146   6.671   7.942   6.782
21423TIP3    H264147   6.623   7.894   6.918
21424TIP3   OH264148   6.647   7.915   6.436
21424TIP3    H164149   6.592   7.841   6.410
21424TIP3    H264150   6.696   7.882   6.512
21425TIP3   OH264151   8.411   0.008   6.442
21425TIP3    H164152   8.326  -0.023   6.410
21425TIP3    H264153   8.426   0.090   6.395
21426TIP3   OH264154   5.578   7.823   6.419
21426TIP3    H164155   5.623   7.760   6.362
21426TIP3    H264156   5.647   7.878   6.454
21427TIP3   OH264157   6.064   8.024   6.529
21427TIP3    H164158   6.117   7.966   6.583
21427TIP3    H264159   6.087   8.112   6.557
21428TIP3   OH264160   9.219   0.170   6.012
21428TIP3    H164161   9.301   0.198   5.974
21428TIP3    H264162   9.189   0.099   5.955
21429TIP3   OH264163   0.110   0.311   6.101
21429TIP3    H164164   0.104   0.216   6.096
21429TIP3    H264165   0.066   0.342   6.022
21430TIP3   OH264166   5.822   8.065   7.830
21430TIP3    H164167   5.802   7.999   7.896
21430TIP3    H264168   5.917   8.077   7.835
21431TIP3   OH264169   6.087   8.106   7.868
21431TIP3    H164170   6.160   8.164   7.846
21431TIP3    H264171   6.127   8.035   7.919
21432TIP3   OH264172   8.518   0.014   6.058
21432TIP3    H164173   8.515   0.044   6.149
21432TIP3    H264174   8.602  -0.031   6.050
21433TIP3   OH264175   6.960   8.104   7.786
21433TIP3    H164176   6.979   8.066   7.872
21433TIP3    H264177   7.046   8.117   7.747
21434TIP3   OH264178   7.100   8.547   6.299
21434TIP3    H164179   7.070   8.636   6.320
21434TIP3    H264180   7.031   8.512   6.242
21435TIP3   OH264181   7.182   8.862   6.506
21435TIP3    H164182   7.225   8.782   6.537
21435TIP3    H264183   7.255   8.920   6.484
21436TIP3   OH264184   7.682   8.447   6.484
21436TIP3    H164185   7.669   8.514   6.418
21436TIP3    H264186   7.636   8.370   6.450
21437TIP3   OH264187   8.365   8.518   6.074
21437TIP3    H164188   8.371   8.570   6.154
21437TIP3    H264189   8.430   8.557   6.016
21438TIP3   OH264190   7.327   8.646   6.596
21438TIP3    H164191   7.411   8.634   6.641
21438TIP3    H264192   7.336   8.597   6.515
21439TIP3   OH264193   7.736   8.847   6.378
21439TIP3    H164194   7.829   8.827   6.373
21439TIP3    H264195   7.693   8.766   6.353
21440TIP3   OH264196   7.684   8.439   6.914
21440TIP3    H164197   7.644   8.490   6.845
21440TIP3    H264198   7.626   8.449   6.989
21441TIP3   OH264199   7.575   8.577   6.699
21441TIP3    H164200   7.633   8.652   6.708
21441TIP3    H264201   7.615   8.524   6.630
21442TIP3   OH264202   7.005   9.114   6.035
21442TIP3    H164203   6.971   9.131   5.947
21442TIP3    H264204   7.030   9.201   6.068
21443TIP3   OH264205   8.001   8.131   6.617
21443TIP3    H164206   8.012   8.043   6.654
21443TIP3    H264207   7.938   8.174   6.675
21444TIP3   OH264208   7.970   8.862   5.823
21444TIP3    H164209   7.899   8.925   5.840
21444TIP3    H264210   8.045   8.917   5.801
21445TIP3   OH264211   7.905   8.723   5.593
21445TIP3    H164212   7.937   8.759   5.676
21445TIP3    H264213   7.970   8.657   5.569
21446TIP3   OH264214   7.542   8.996   6.251
21446TIP3    H164215   7.511   8.937   6.182
21446TIP3    H264216   7.616   8.950   6.291
21447TIP3   OH264217   8.227   8.910   5.710
21447TIP3    H164218   8.297   8.971   5.685
21447TIP3    H264219   8.194   8.877   5.627
21448TIP3   OH264220   8.652   8.081   5.728
21448TIP3    H164221   8.583   8.103   5.790
21448TIP3    H264222   8.654   8.154   5.666
21449TIP3   OH264223   7.431   8.830   6.051
21449TIP3    H164224   7.351   8.874   6.022
21449TIP3    H264225   7.406   8.739   6.062
21450TIP3   OH264226   0.669   0.369   6.160
21450TIP3    H164227   0.632   0.378   6.247
21450TIP3    H264228   0.636   0.285   6.127
21451TIP3   OH264229   1.557   0.484   5.460
21451TIP3    H164230   1.619   0.412   5.465
21451TIP3    H264231   1.537   0.505   5.551
21452TIP3   OH264232   7.800   8.228   6.784
21452TIP3    H164233   7.714   8.203   6.751
21452TIP3    H264234   7.784   8.308   6.834
21453TIP3   OH264235   8.183   8.807   5.457
21453TIP3    H164236   8.144   8.814   5.370
21453TIP3    H264237   8.269   8.848   5.447
21454TIP3   OH264238   7.945   8.274   5.747
21454TIP3    H164239   7.914   8.278   5.837
21454TIP3    H264240   7.908   8.193   5.712
21455TIP3   OH264241   7.596   8.628   6.298
21455TIP3    H164242   7.507   8.601   6.323
21455TIP3    H264243   7.608   8.593   6.210
21456TIP3   OH264244   8.078   8.681   5.998
21456TIP3    H164245   8.035   8.748   5.945
21456TIP3    H264246   8.153   8.653   5.946
21457TIP3   OH264247   7.613   8.256   5.715
21457TIP3    H164248   7.607   8.257   5.810
21457TIP3    H264249   7.533   8.298   5.684
21458TIP3   OH264250   7.212   8.278   6.527
21458TIP3    H164251   7.267   8.301   6.602
21458TIP3    H264252   7.196   8.360   6.482
21459TIP3   OH264253   7.072   8.259   6.110
21459TIP3    H164254   7.121   8.292   6.034
21459TIP3    H264255   7.010   8.328   6.131
21460TIP3   OH264256   7.940   8.483   6.368
21460TIP3    H164257   7.871   8.459   6.430
21460TIP3    H264258   8.015   8.430   6.393
21461TIP3   OH264259   7.363   8.501   6.367
21461TIP3    H164260   7.279   8.504   6.322
21461TIP3    H264261   7.398   8.415   6.345
21462TIP3   OH264262   7.612   8.509   6.054
21462TIP3    H164263   7.707   8.522   6.048
21462TIP3    H264264   7.580   8.529   5.966
21463TIP3   OH264265   7.500   8.542   5.807
21463TIP3    H164266   7.441   8.489   5.754
21463TIP3    H264267   7.551   8.592   5.744
21464TIP3   OH264268   7.518   8.264   6.343
21464TIP3    H164269   7.497   8.187   6.395
21464TIP3    H264270   7.561   8.230   6.265
21465TIP3   OH264271   7.753   9.032   5.854
21465TIP3    H164272   7.672   8.989   5.828
21465TIP3    H264273   7.731   9.081   5.933
21466TIP3   OH264274   8.192   8.383   5.710
21466TIP3    H164275   8.099   8.363   5.721
21466TIP3    H264276   8.199   8.476   5.735
21467TIP3   OH264277   8.266   8.640   5.792
21467TIP3    H164278   8.358   8.623   5.813
21467TIP3    H264279   8.263   8.733   5.771
21468TIP3   OH264280   7.414   9.011   6.496
21468TIP3    H164281   7.443   9.022   6.405
21468TIP3    H264282   7.496   9.004   6.546
21469TIP3   OH264283   7.866   9.203   5.676
21469TIP3    H164284   7.825   9.283   5.708
21469TIP3    H264285   7.840   9.135   5.738
21470TIP3   OH264286   8.698   8.657   5.648
21470TIP3    H164287   8.650   8.604   5.584
21470TIP3    H264288   8.672   8.747   5.628
21471TIP3   OH264289   0.991   0.169   6.104
21471TIP3    H164290   0.985   0.258   6.068
21471TIP3    H264291   0.907   0.155   6.147
21472TIP3   OH264292   7.110   8.692   5.869
21472TIP3    H164293   7.152   8.776   5.888
21472TIP3    H264294   7.028   8.695   5.918
21473TIP3   OH264295   7.656   9.171   6.064
21473TIP3    H164296   7.626   9.261   6.078
21473TIP3    H264297   7.620   9.122   6.138
21474TIP3   OH264298   0.895   0.416   6.008
21474TIP3    H164299   0.814   0.408   6.059
21474TIP3    H264300   0.915   0.510   6.010
21475TIP3   OH264301   8.227   9.188   5.439
21475TIP3    H164302   8.221   9.214   5.531
21475TIP3    H264303   8.136   9.168   5.415
21476TIP3   OH264304   7.472   8.481   7.081
21476TIP3    H164305   7.397   8.541   7.083
21476TIP3    H264306   7.442   8.404   7.129
21477TIP3   OH264307   7.502   9.232   5.473
21477TIP3    H164308   7.529   9.145   5.443
21477TIP3    H264309   7.495   9.224   5.568
21478TIP3   OH264310   0.936   0.013   5.747
21478TIP3    H164311   1.004  -0.012   5.809
21478TIP3    H264312   0.932   0.109   5.752
21479TIP3   OH264313   7.204   8.945   5.943
21479TIP3    H164314   7.138   8.992   5.994
21479TIP3    H264315   7.224   9.003   5.870
21480TIP3   OH264316   8.245   8.297   5.974
21480TIP3    H164317   8.226   8.320   5.884
21480TIP3    H264318   8.281   8.377   6.012
21481TIP3   OH264319   1.205   0.191   5.745
21481TIP3    H164320   1.118   0.219   5.772
21481TIP3    H264321   1.236   0.260   5.686
21482TIP3   OH264322   7.884   8.525   6.104
21482TIP3    H164323   7.953   8.582   6.069
21482TIP3    H264324   7.905   8.517   6.197
21483TIP3   OH264325   8.082   8.198   6.176
21483TIP3    H164326   8.109   8.243   6.256
21483TIP3    H264327   8.141   8.231   6.108
21484TIP3   OH264328   0.947   0.286   5.771
21484TIP3    H164329   0.942   0.354   5.705
21484TIP3    H264330   0.923   0.329   5.853
21485TIP3   OH264331   7.592   8.237   5.994
21485TIP3    H164332   7.579   8.327   6.024
21485TIP3    H264333   7.686   8.223   6.002
21486TIP3   OH264334   7.225   9.126   5.730
21486TIP3    H164335   7.298   9.186   5.743
21486TIP3    H264336   7.255   9.065   5.663
21487TIP3   OH264337   7.131   8.414   5.888
21487TIP3    H164338   7.143   8.509   5.887
21487TIP3    H264339   7.088   8.395   5.804
21488TIP3   OH264340   7.539   8.147   6.731
21488TIP3    H164341   7.517   8.112   6.644
21488TIP3    H264342   7.534   8.071   6.789
21489TIP3   OH264343   0.520   0.137   6.118
21489TIP3    H164344   0.461   0.162   6.189
21489TIP3    H264345   0.484   0.181   6.041
21490TIP3   OH264346   1.157   0.166   5.384
21490TIP3    H164347   1.085   0.114   5.418
21490TIP3    H264348   1.233   0.107   5.389
21491TIP3   OH264349   1.689   0.248   5.377
21491TIP3    H164350   1.630   0.177   5.401
21491TIP3    H264351   1.685   0.251   5.281
21492TIP3   OH264352   7.348   8.938   5.576
21492TIP3    H164353   7.399   8.919   5.654
21492TIP3    H264354   7.413   8.947   5.506
21493TIP3   OH264355   7.801   9.133   5.418
21493TIP3    H164356   7.816   9.143   5.512
21493TIP3    H264357   7.793   9.038   5.405
21494TIP3   OH264358   7.522   8.890   5.790
21494TIP3    H164359   7.501   8.858   5.878
21494TIP3    H264360   7.562   8.816   5.746
21495TIP3   OH264361   7.637   8.698   5.632
21495TIP3    H164362   7.610   8.696   5.541
21495TIP3    H264363   7.733   8.702   5.629
21496TIP3   OH264364   8.416   8.928   5.415
21496TIP3    H164365   8.437   8.889   5.330
21496TIP3    H264366   8.398   9.020   5.395
21497TIP3   OH264367   0.956   0.495   5.589
21497TIP3    H164368   1.013   0.472   5.515
21497TIP3    H264369   0.874   0.522   5.549
21498TIP3   OH264370   6.952   9.124   5.750
21498TIP3    H164371   7.047   9.136   5.744
21498TIP3    H264372   6.936   9.040   5.707
21499TIP3   OH264373   0.312   0.471   6.191
21499TIP3    H164374   0.248   0.416   6.146
21499TIP3    H264375   0.365   0.409   6.241
21500TIP3   OH264376   0.465   0.327   6.373
21500TIP3    H164377   0.437   0.254   6.429
21500TIP3    H264378   0.463   0.404   6.431
21501TIP3   OH264379   8.629   8.906   5.579
21501TIP3    H164380   8.547   8.906   5.530
21501TIP3    H264381   8.666   8.992   5.562
21502TIP3   OH264382   8.528   8.608   5.436
21502TIP3    H164383   8.451   8.653   5.402
21502TIP3    H264384   8.507   8.515   5.428
21503TIP3   OH264385   7.161   9.020   6.730
21503TIP3    H164386   7.147   8.961   6.657
21503TIP3    H264387   7.249   9.055   6.716
21504TIP3   OH264388   8.463   8.348   5.390
21504TIP3    H164389   8.534   8.315   5.445
21504TIP3    H264390   8.386   8.298   5.418
21505TIP3   OH264391   8.539   8.580   5.864
21505TIP3    H164392   8.587   8.503   5.895
21505TIP3    H264393   8.596   8.619   5.798
21506TIP3   OH264394   8.689   8.354   5.940
21506TIP3    H164395   8.752   8.320   6.004
21506TIP3    H264396   8.619   8.289   5.939
21507TIP3   OH264397   7.363   8.356   6.749
21507TIP3    H164398   7.427   8.286   6.756
21507TIP3    H264399   7.414   8.437   6.758
21508TIP3   OH264400   7.128   8.623   6.789
21508TIP3    H164401   7.195   8.629   6.720
21508TIP3    H264402   7.163   8.674   6.861
21509TIP3   OH264403   8.687   8.289   5.545
21509TIP3    H164404   8.735   8.228   5.488
21509TIP3    H264405   8.754   8.325   5.603
21510TIP3   OH264406   7.141   8.083   6.322
21510TIP3    H164407   7.167   8.144   6.390
21510TIP3    H264408   7.128   8.138   6.244
21511TIP3   OH264409   7.358   8.229   7.155
21511TIP3    H164410   7.305   8.212   7.233
21511TIP3    H264411   7.294   8.255   7.088
21512TIP3   OH264412   8.136   8.296   6.430
21512TIP3    H164413   8.108   8.243   6.505
21512TIP3    H264414   8.229   8.274   6.419
21513TIP3   OH264415   7.454   8.035   6.491
21513TIP3    H164416   7.362   8.010   6.496
21513TIP3    H264417   7.503   7.953   6.490
21514TIP3   OH264418   7.894   8.082   6.364
21514TIP3    H164419   7.950   8.124   6.299
21514TIP3    H264420   7.932   8.107   6.448
21515TIP3   OH264421   8.386   8.197   6.371
21515TIP3    H164422   8.454   8.186   6.304
21515TIP3    H264423   8.404   8.128   6.435
21516TIP3   OH264424   8.484   8.164   5.931
21516TIP3    H164425   8.402   8.211   5.944
21516TIP3    H264426   8.470   8.079   5.973
21517TIP3   OH264427   0.410   0.271   5.914
21517TIP3    H164428   0.326   0.237   5.883
21517TIP3    H264429   0.413   0.361   5.879
21518TIP3   OH264430   7.382   8.094   5.871
21518TIP3    H164431   7.431   8.028   5.821
21518TIP3    H264432   7.449   8.139   5.923
21519TIP3   OH264433   7.865   8.269   6.012
21519TIP3    H164434   7.930   8.222   6.065
21519TIP3    H264435   7.873   8.360   6.041
21520TIP3   OH264436   1.270   0.362   5.544
21520TIP3    H164437   1.261   0.454   5.522
21520TIP3    H264438   1.217   0.316   5.479
21521TIP3   OH264439   0.510   0.263   5.556
21521TIP3    H164440   0.515   0.281   5.650
21521TIP3    H264441   0.593   0.221   5.534
21522TIP3   OH264442   9.507   8.549   5.252
21522TIP3    H164443   9.520   8.463   5.293
21522TIP3    H264444   9.419   8.544   5.215
21523TIP3   OH264445   8.978   8.603   5.662
21523TIP3    H164446   9.016   8.611   5.575
21523TIP3    H264447   8.887   8.632   5.652
21524TIP3   OH264448   9.067   8.641   5.400
21524TIP3    H164449   9.131   8.703   5.367
21524TIP3    H264450   8.982   8.682   5.381
21525TIP3   OH264451   8.880   8.355   5.731
21525TIP3    H164452   8.824   8.364   5.808
21525TIP3    H264453   8.924   8.440   5.724
21526TIP3   OH264454   9.032   8.166   5.600
21526TIP3    H164455   9.068   8.216   5.527
21526TIP3    H264456   8.983   8.230   5.652
21527TIP3   OH264457   9.136   8.327   5.400
21527TIP3    H164458   9.192   8.279   5.338
21527TIP3    H264459   9.184   8.409   5.417
21528TIP3   OH264460   1.276   9.074   7.264
21528TIP3    H164461   1.247   9.013   7.196
21528TIP3    H264462   1.219   9.150   7.254
21529TIP3   OH264463   6.549   0.433   7.655
21529TIP3    H164464   6.534   0.527   7.652
21529TIP3    H264465   6.587   0.412   7.570
21530TIP3   OH264466   5.923   0.325   7.295
21530TIP3    H164467   5.983   0.332   7.369
21530TIP3    H264468   5.978   0.338   7.218
21531TIP3   OH264469   6.097   0.377   7.504
21531TIP3    H164470   6.136   0.297   7.542
21531TIP3    H264471   6.170   0.439   7.500
21532TIP3   OH264472   5.392   0.509   6.900
21532TIP3    H164473   5.408   0.576   6.967
21532TIP3    H264474   5.455   0.528   6.831
21533TIP3   OH264475   2.907   9.135   6.911
21533TIP3    H164476   2.831   9.157   6.966
21533TIP3    H264477   2.922   9.214   6.860
21534TIP3   OH264478   5.454   0.050   6.933
21534TIP3    H164479   5.431   0.044   7.026
21534TIP3    H264480   5.417  -0.029   6.894
21535TIP3   OH264481   5.649   0.446   7.071
21535TIP3    H164482   5.650   0.527   7.020
21535TIP3    H264483   5.707   0.386   7.024
21536TIP3   OH264484   5.104   0.005   6.863
21536TIP3    H164485   5.080   0.067   6.932
21536TIP3    H264486   5.070   0.044   6.783
21537TIP3   OH264487   5.171   0.276   7.208
21537TIP3    H164488   5.262   0.301   7.196
21537TIP3    H264489   5.132   0.285   7.121
21538TIP3   OH264490   5.007   0.232   6.992
21538TIP3    H164491   4.914   0.242   7.015
21538TIP3    H264492   5.011   0.257   6.900
21539TIP3   OH264493   5.116  -0.016   7.475
21539TIP3    H164494   5.052   0.049   7.503
21539TIP3    H264495   5.106  -0.020   7.380
21540TIP3   OH264496   5.703   0.159   6.948
21540TIP3    H164497   5.615   0.120   6.943
21540TIP3    H264498   5.703   0.225   6.879
21541TIP3   OH264499   5.867   0.410   6.885
21541TIP3    H164500   5.936   0.371   6.939
21541TIP3    H264501   5.892   0.503   6.879
21542TIP3   OH264502   6.316   0.512   6.858
21542TIP3    H164503   6.247   0.480   6.801
21542TIP3    H264504   6.284   0.596   6.890
21543TIP3   OH264505   5.772   0.110   7.207
21543TIP3    H164506   5.751   0.136   7.117
21543TIP3    H264507   5.817   0.186   7.243
21544TIP3   OH264508   5.450   0.316   7.227
21544TIP3    H164509   5.530   0.341   7.181
21544TIP3    H264510   5.450   0.369   7.306
21545TIP3   OH264511   5.603  -0.009   7.387
21545TIP3    H164512   5.638   0.024   7.470
21545TIP3    H264513   5.657   0.031   7.320
21546TIP3   OH264514   5.116   0.002   7.193
21546TIP3    H164515   5.111   0.097   7.195
21546TIP3    H264516   5.210  -0.017   7.186
21547TIP3   OH264517   5.123   0.516   6.855
21547TIP3    H164518   5.117   0.521   6.760
21547TIP3    H264519   5.217   0.518   6.873
21548TIP3   OH264520   6.134   0.421   6.687
21548TIP3    H164521   6.137   0.442   6.593
21548TIP3    H264522   6.083   0.340   6.692
21549TIP3   OH264523   5.936   0.788   7.186
21549TIP3    H164524   5.894   0.705   7.211
21549TIP3    H264525   5.969   0.823   7.269
21550TIP3   OH264526   5.989   0.188   6.631
21550TIP3    H164527   6.068   0.145   6.663
21550TIP3    H264528   5.919   0.125   6.649
21551TIP3   OH264529   6.069   0.364   7.066
21551TIP3    H164530   6.135   0.294   7.068
21551TIP3    H264531   6.119   0.444   7.083
21552TIP3   OH264532   6.216   0.135   7.111
21552TIP3    H164533   6.254   0.128   7.198
21552TIP3    H264534   6.142   0.075   7.111
21553TIP3   OH264535   6.232   0.100   6.733
21553TIP3    H164536   6.276   0.036   6.677
21553TIP3    H264537   6.299   0.165   6.753
21554TIP3   OH264538   5.731   0.067   7.612
21554TIP3    H164539   5.742   0.136   7.678
21554TIP3    H264540   5.820   0.036   7.597
21555TIP3   OH264541   6.220   0.137   7.585
21555TIP3    H164542   6.270   0.122   7.504
21555TIP3    H264543   6.145   0.078   7.578
21556TIP3   OH264544   6.364   0.123   7.343
21556TIP3    H164545   6.431   0.059   7.318
21556TIP3    H264546   6.401   0.208   7.319
21557TIP3   OH264547   1.514   8.941   7.276
21557TIP3    H164548   1.564   8.988   7.210
21557TIP3    H264549   1.436   8.995   7.291
21558TIP3   OH264550   2.187   9.069   7.581
21558TIP3    H164551   2.236   9.122   7.517
21558TIP3    H264552   2.099   9.105   7.579
21559TIP3   OH264553   2.720   9.207   7.574
21559TIP3    H164554   2.768   9.157   7.509
21559TIP3    H264555   2.744   9.167   7.658
21560TIP3   OH264556   2.727   9.207   7.109
21560TIP3    H164557   2.652   9.257   7.140
21560TIP3    H264558   2.714   9.119   7.146
21561TIP3   OH264559   1.641   9.095   7.074
21561TIP3    H164560   1.686   9.046   7.005
21561TIP3    H264561   1.711   9.147   7.115
21562TIP3   OH264562   5.398   0.046   7.202
21562TIP3    H164563   5.454   0.009   7.270
21562TIP3    H264564   5.404   0.141   7.215
21563TIP3   OH264565   6.500   0.569   7.061
21563TIP3    H164566   6.455   0.653   7.055
21563TIP3    H264567   6.458   0.514   6.995
21564TIP3   OH264568   8.275   0.664   7.157
21564TIP3    H164569   8.305   0.739   7.208
21564TIP3    H264570   8.324   0.670   7.074
21565TIP3   OH264571   7.637   0.763   7.185
21565TIP3    H164572   7.698   0.698   7.219
21565TIP3    H264573   7.615   0.732   7.097
21566TIP3   OH264574   7.044   0.420   7.159
21566TIP3    H164575   7.035   0.495   7.101
21566TIP3    H264576   6.996   0.349   7.115
21567TIP3   OH264577   7.719   0.570   6.760
21567TIP3    H164578   7.787   0.561   6.827
21567TIP3    H264579   7.767   0.591   6.680
21568TIP3   OH264580   6.642   0.683   7.277
21568TIP3    H164581   6.726   0.637   7.278
21568TIP3    H264582   6.593   0.642   7.206
21569TIP3   OH264583   7.095   0.952   7.063
21569TIP3    H164584   7.179   0.950   7.016
21569TIP3    H264585   7.033   0.915   7.001
21570TIP3   OH264586   8.389   0.861   7.312
21570TIP3    H164587   8.386   0.921   7.237
21570TIP3    H264588   8.414   0.917   7.386
21571TIP3   OH264589   7.067   0.494   7.616
21571TIP3    H164590   7.064   0.581   7.577
21571TIP3    H264591   6.981   0.482   7.655
21572TIP3   OH264592   7.892   0.569   6.966
21572TIP3    H164593   7.919   0.500   7.026
21572TIP3    H264594   7.934   0.648   7.000
21573TIP3   OH264595   6.894   0.571   7.344
21573TIP3    H164596   6.943   0.650   7.322
21573TIP3    H264597   6.932   0.502   7.290
21574TIP3   OH264598   8.086   0.542   7.318
21574TIP3    H164599   7.999   0.566   7.284
21574TIP3    H264600   8.147   0.577   7.253
21575TIP3   OH264601   7.355   0.198   7.308
21575TIP3    H164602   7.351   0.105   7.333
21575TIP3    H264603   7.276   0.236   7.348
21576TIP3   OH264604   7.189   0.759   6.381
21576TIP3    H164605   7.214   0.796   6.465
21576TIP3    H264606   7.259   0.784   6.321
21577TIP3   OH264607   8.018   1.205   7.310
21577TIP3    H164608   7.996   1.295   7.335
21577TIP3    H264609   7.963   1.150   7.366
21578TIP3   OH264610   7.976   0.150   6.390
21578TIP3    H164611   7.902   0.168   6.448
21578TIP3    H264612   7.990   0.232   6.343
21579TIP3   OH264613   8.146   1.036   7.569
21579TIP3    H164614   8.068   1.049   7.623
21579TIP3    H264615   8.166   0.943   7.578
21580TIP3   OH264616   7.121   0.283   7.437
21580TIP3    H164617   7.042   0.261   7.388
21580TIP3    H264618   7.101   0.366   7.479
21581TIP3   OH264619   7.891   0.814   7.553
21581TIP3    H164620   7.843   0.786   7.631
21581TIP3    H264621   7.868   0.906   7.543
21582TIP3   OH264622   7.263   0.302   6.419
21582TIP3    H164623   7.221   0.304   6.504
21582TIP3    H264624   7.230   0.223   6.376
21583TIP3   OH264625   7.090   0.752   7.522
21583TIP3    H164626   7.027   0.818   7.550
21583TIP3    H264627   7.084   0.752   7.427
21584TIP3   OH264628   7.027   0.606   6.953
21584TIP3    H164629   6.938   0.611   6.988
21584TIP3    H264630   7.015   0.597   6.858
21585TIP3   OH264631   7.434   0.657   6.593
21585TIP3    H164632   7.426   0.748   6.622
21585TIP3    H264633   7.503   0.659   6.527
21586TIP3   OH264634   7.559   0.711   6.927
21586TIP3    H164635   7.502   0.758   6.866
21586TIP3    H264636   7.602   0.644   6.873
21587TIP3   OH264637   6.892   0.259   6.342
21587TIP3    H164638   6.859   0.324   6.405
21587TIP3    H264639   6.840   0.274   6.263
21588TIP3   OH264640   6.473   0.360   7.260
21588TIP3    H164641   6.547   0.380   7.317
21588TIP3    H264642   6.475   0.428   7.192
21589TIP3   OH264643   6.440   0.284   6.779
21589TIP3    H164644   6.452   0.303   6.686
21589TIP3    H264645   6.403   0.365   6.815
21590TIP3   OH264646   7.600   0.975   7.408
21590TIP3    H164647   7.637   0.920   7.339
21590TIP3    H264648   7.513   0.937   7.424
21591TIP3   OH264649   7.292   0.456   7.021
21591TIP3    H164650   7.211   0.423   7.059
21591TIP3    H264651   7.317   0.530   7.076
21592TIP3   OH264652   6.781   0.539   7.062
21592TIP3    H164653   6.688   0.548   7.037
21592TIP3    H264654   6.804   0.450   7.034
21593TIP3   OH264655   7.033   0.610   6.666
21593TIP3    H164656   7.110   0.556   6.680
21593TIP3    H264657   6.979   0.560   6.605
21594TIP3   OH264658   7.791   0.547   7.268
21594TIP3    H164659   7.803   0.512   7.356
21594TIP3    H264660   7.723   0.492   7.229
21595TIP3   OH264661   6.827   0.476   6.524
21595TIP3    H164662   6.743   0.511   6.554
21595TIP3    H264663   6.840   0.514   6.438
21596TIP3   OH264664   7.345   0.695   7.167
21596TIP3    H164665   7.426   0.655   7.199
21596TIP3    H264666   7.362   0.789   7.170
21597TIP3   OH264667   6.870   0.293   6.982
21597TIP3    H164668   6.824   0.221   7.024
21597TIP3    H264669   6.866   0.272   6.888
21598TIP3   OH264670   7.517   0.399   6.434
21598TIP3    H164671   7.425   0.374   6.428
21598TIP3    H264672   7.519   0.492   6.409
21599TIP3   OH264673   7.630   0.670   6.392
21599TIP3    H164674   7.708   0.630   6.431
21599TIP3    H264675   7.657   0.760   6.373
21600TIP3   OH264676   8.112   0.799   6.325
21600TIP3    H164677   8.042   0.754   6.280
21600TIP3    H264678   8.071   0.878   6.360
21601TIP3   OH264679   7.575   0.351   6.695
21601TIP3    H164680   7.549   0.369   6.605
21601TIP3    H264681   7.620   0.430   6.724
21602TIP3   OH264682   7.270   0.499   6.743
21602TIP3    H164683   7.337   0.550   6.698
21602TIP3    H264684   7.291   0.509   6.836
21603TIP3   OH264685   7.512   0.729   7.657
21603TIP3    H164686   7.484   0.790   7.589
21603TIP3    H264687   7.601   0.757   7.678
21604TIP3   OH264688   7.393   0.248   6.869
21604TIP3    H164689   7.366   0.326   6.918
21604TIP3    H264690   7.458   0.281   6.807
21605TIP3   OH264691   6.869   0.266   6.700
21605TIP3    H164692   6.847   0.345   6.650
21605TIP3    H264693   6.964   0.256   6.689
21606TIP3   OH264694   8.157   0.761   7.535
21606TIP3    H164695   8.062   0.756   7.549
21606TIP3    H264696   8.168   0.746   7.442
21607TIP3   OH264697   7.793   0.864   6.867
21607TIP3    H164698   7.730   0.797   6.891
21607TIP3    H264699   7.872   0.842   6.917
21608TIP3   OH264700   6.405   0.366   6.525
21608TIP3    H164701   6.325   0.413   6.503
21608TIP3    H264702   6.426   0.318   6.445
21609TIP3   OH264703   6.856   0.192   7.368
21609TIP3    H164704   6.822   0.172   7.282
21609TIP3    H264705   6.842   0.113   7.420
21610TIP3   OH264706   6.944   0.833   6.266
21610TIP3    H164707   6.915   0.743   6.250
21610TIP3    H264708   7.033   0.823   6.301
21611TIP3   OH264709   7.245   0.719   7.796
21611TIP3    H164710   7.160   0.676   7.783
21611TIP3    H264711   7.226   0.812   7.785
21612TIP3   OH264712   7.334   0.463   7.680
21612TIP3    H164713   7.241   0.469   7.658
21612TIP3    H264714   7.355   0.370   7.669
21613TIP3   OH264715   7.758   0.755   7.789
21613TIP3    H164716   7.701   0.703   7.846
21613TIP3    H264717   7.832   0.778   7.844
21614TIP3   OH264718   7.968   0.759   7.976
21614TIP3    H164719   7.979   0.665   7.960
21614TIP3    H264720   7.944   0.765   8.068
21615TIP3   OH264721   7.445   0.353   7.928
21615TIP3    H164722   7.524   0.304   7.904
21615TIP3    H264723   7.373   0.302   7.891
21616TIP3   OH264724   7.530   0.613   7.936
21616TIP3    H164725   7.524   0.520   7.959
21616TIP3    H264726   7.540   0.657   8.020
21617TIP3   OH264727   7.930   0.667   6.185
21617TIP3    H164728   7.927   0.689   6.092
21617TIP3    H264729   7.888   0.582   6.192
21618TIP3   OH264730   7.790   1.066   6.663
21618TIP3    H164731   7.840   0.990   6.695
21618TIP3    H264732   7.775   1.118   6.742
21619TIP3   OH264733   8.113   1.313   7.596
21619TIP3    H164734   8.154   1.227   7.586
21619TIP3    H264735   8.176   1.375   7.561
21620TIP3   OH264736   7.777   0.441   6.118
21620TIP3    H164737   7.857   0.398   6.148
21620TIP3    H264738   7.708   0.375   6.131
21621TIP3   OH264739   7.859   0.613   6.529
21621TIP3    H164740   7.923   0.542   6.536
21621TIP3    H264741   7.910   0.692   6.549
21622TIP3   OH264742   7.998   0.805   7.052
21622TIP3    H164743   8.077   0.790   7.001
21622TIP3    H264744   8.028   0.819   7.142
21623TIP3   OH264745   8.062   0.898   7.297
21623TIP3    H164746   8.004   0.905   7.373
21623TIP3    H264747   8.127   0.966   7.310
21624TIP3   OH264748   8.568   0.630   7.828
21624TIP3    H164749   8.633   0.570   7.793
21624TIP3    H264750   8.516   0.657   7.752
21625TIP3   OH264751   8.009   0.392   6.593
21625TIP3    H164752   8.050   0.385   6.680
21625TIP3    H264753   7.939   0.327   6.594
21626TIP3   OH264754   6.692   0.404   7.423
21626TIP3    H164755   6.744   0.325   7.410
21626TIP3    H264756   6.753   0.476   7.410
21627TIP3   OH264757   6.537   0.682   7.530
21627TIP3    H164758   6.581   0.679   7.445
21627TIP3    H264759   6.520   0.775   7.545
21628TIP3   OH264760   8.409   0.704   7.619
21628TIP3    H164761   8.325   0.742   7.592
21628TIP3    H264762   8.411   0.619   7.576
21629TIP3   OH264763   8.023   0.365   6.219
21629TIP3    H164764   8.068   0.301   6.163
21629TIP3    H264765   8.091   0.428   6.243
21630TIP3   OH264766   6.474   0.121   6.993
21630TIP3    H164767   6.389   0.122   7.036
21630TIP3    H264768   6.468   0.190   6.927
21631TIP3   OH264769   6.648   0.215   7.782
21631TIP3    H164770   6.603   0.213   7.867
21631TIP3    H264771   6.610   0.291   7.738
21632TIP3   OH264772   8.307   0.470   7.502
21632TIP3    H164773   8.225   0.475   7.452
21632TIP3    H264774   8.334   0.378   7.495
21633TIP3   OH264775   7.561   0.400   7.195
21633TIP3    H164776   7.488   0.341   7.212
21633TIP3    H264777   7.610   0.358   7.124
21634TIP3   OH264778   8.013   0.334   7.066
21634TIP3    H164779   8.059   0.354   6.984
21634TIP3    H264780   7.926   0.305   7.038
21635TIP3   OH264781   8.155   0.361   6.831
21635TIP3    H164782   8.221   0.299   6.801
21635TIP3    H264783   8.186   0.447   6.801
21636TIP3   OH264784   6.742   0.105   7.133
21636TIP3    H164785   6.649   0.087   7.118
21636TIP3    H264786   6.783   0.019   7.143
21637TIP3   OH264787   6.594  -0.025   6.786
21637TIP3    H164788   6.610   0.033   6.711
21637TIP3    H264789   6.556   0.033   6.853
21638TIP3   OH264790   7.229   0.139   7.063
21638TIP3    H164791   7.284   0.169   6.990
21638TIP3    H264792   7.275   0.168   7.141
21639TIP3   OH264793   7.739   0.270   7.022
21639TIP3    H164794   7.730   0.231   6.935
21639TIP3    H264795   7.742   0.195   7.081
21640TIP3   OH264796   7.797   0.216   6.592
21640TIP3    H164797   7.719   0.264   6.618
21640TIP3    H264798   7.786   0.129   6.629
21641TIP3   OH264799   6.682   0.121   6.554
21641TIP3    H164800   6.735   0.066   6.496
21641TIP3    H264801   6.746   0.167   6.609
21642TIP3   OH264802   7.138   0.276   6.662
21642TIP3    H164803   7.173   0.188   6.679
21642TIP3    H264804   7.196   0.334   6.711
21643TIP3   OH264805   0.467   4.919  -0.009
21643TIP3    H164806   0.423   4.869   0.060
21643TIP3    H264807   0.550   4.947   0.030
21644TIP3   OH264808   0.710   4.954   0.114
21644TIP3    H164809   0.784   4.992   0.067
21644TIP3    H264810   0.748   4.887   0.170
21645TIP3   OH264811   8.005   0.493   7.937
21645TIP3    H164812   8.035   0.434   8.006
21645TIP3    H264813   8.080   0.501   7.878
21646TIP3   OH264814   8.304   0.848   6.538
21646TIP3    H164815   8.312   0.911   6.467
21646TIP3    H264816   8.225   0.799   6.517
21647TIP3   OH264817   9.480   1.144   6.654
21647TIP3    H164818   9.499   1.050   6.658
21647TIP3    H264819   9.520   1.173   6.572
21648TIP3   OH264820   8.814   0.654   6.681
21648TIP3    H164821   8.827   0.729   6.623
21648TIP3    H264822   8.770   0.589   6.628
21649TIP3   OH264823   9.521   0.882   6.235
21649TIP3    H164824   9.583   0.874   6.307
21649TIP3    H264825   9.575   0.893   6.157
21650TIP3   OH264826   8.428   0.945   6.777
21650TIP3    H164827   8.509   0.893   6.773
21650TIP3    H264828   8.378   0.917   6.700
21651TIP3   OH264829   8.936   1.235   6.548
21651TIP3    H164830   9.031   1.235   6.559
21651TIP3    H264831   8.921   1.176   6.473
21652TIP3   OH264832   8.817   0.743   7.075
21652TIP3    H164833   8.761   0.784   7.008
21652TIP3    H264834   8.765   0.746   7.155
21653TIP3   OH264835   9.671   0.868   6.463
21653TIP3    H164836   9.625   0.857   6.546
21653TIP3    H264837   9.762   0.884   6.487
21654TIP3   OH264838   8.683   0.835   6.849
21654TIP3    H164839   8.727   0.910   6.808
21654TIP3    H264840   8.710   0.759   6.798
21655TIP3   OH264841   9.141   0.450   6.788
21655TIP3    H164842   9.135   0.358   6.814
21655TIP3    H264843   9.068   0.493   6.833
21656TIP3   OH264844   8.998   1.025   5.866
21656TIP3    H164845   9.005   1.106   5.916
21656TIP3    H264846   9.067   1.031   5.800
21657TIP3   OH264847   9.769   0.408   5.880
21657TIP3    H164848   9.693   0.428   5.935
21657TIP3    H264849   9.783   0.487   5.828
21658TIP3   OH264850   8.909   0.528   6.926
21658TIP3    H164851   8.842   0.529   6.858
21658TIP3    H264852   8.892   0.606   6.979
21659TIP3   OH264853   9.052   0.585   5.892
21659TIP3    H164854   9.020   0.580   5.982
21659TIP3    H264855   9.027   0.501   5.854
21660TIP3   OH264856   8.900   1.045   6.995
21660TIP3    H164857   8.832   1.024   7.059
21660TIP3    H264858   8.857   1.036   6.910
21661TIP3   OH264859   8.811   0.820   6.456
21661TIP3    H164860   8.725   0.835   6.495
21661TIP3    H264861   8.793   0.810   6.362
21662TIP3   OH264862   9.236   1.010   6.178
21662TIP3    H164863   9.212   1.090   6.224
21662TIP3    H264864   9.254   1.039   6.088
21663TIP3   OH264865   9.328   0.964   6.444
21663TIP3    H164866   9.302   0.969   6.352
21663TIP3    H264867   9.413   0.920   6.443
21664TIP3   OH264868   8.695   1.028   7.176
21664TIP3    H164869   8.645   1.087   7.234
21664TIP3    H264870   8.689   0.942   7.218
21665TIP3   OH264871   8.703   0.520   5.829
21665TIP3    H164872   8.682   0.596   5.882
21665TIP3    H264873   8.659   0.536   5.746
21666TIP3   OH264874   8.255   0.577   6.699
21666TIP3    H164875   8.230   0.652   6.753
21666TIP3    H264876   8.331   0.607   6.650
21667TIP3   OH264877   8.229   0.558   6.270
21667TIP3    H164878   8.242   0.573   6.177
21667TIP3    H264879   8.197   0.642   6.304
21668TIP3   OH264880   9.068   0.708   6.465
21668TIP3    H164881   8.974   0.718   6.475
21668TIP3    H264882   9.105   0.761   6.536
21669TIP3   OH264883   8.566   0.780   6.577
21669TIP3    H164884   8.479   0.799   6.543
21669TIP3    H264885   8.587   0.693   6.542
21670TIP3   OH264886   8.797   0.819   6.179
21670TIP3    H164887   8.890   0.802   6.169
21670TIP3    H264888   8.761   0.806   6.091
21671TIP3   OH264889   9.516   0.861   6.691
21671TIP3    H164890   9.535   0.846   6.784
21671TIP3    H264891   9.444   0.800   6.671
21672TIP3   OH264892   8.643   0.761   5.961
21672TIP3    H164893   8.553   0.785   5.984
21672TIP3    H264894   8.654   0.795   5.872
21673TIP3   OH264895   9.118   0.932   6.622
21673TIP3    H164896   9.204   0.940   6.580
21673TIP3    H264897   9.136   0.945   6.715
21674TIP3   OH264898   8.650   0.538   6.479
21674TIP3    H164899   8.611   0.462   6.523
21674TIP3    H264900   8.656   0.512   6.387
21675TIP3   OH264901   9.141   1.004   6.884
21675TIP3    H164902   9.057   1.024   6.925
21675TIP3    H264903   9.195   1.082   6.900
21676TIP3   OH264904   9.314   0.692   5.908
21676TIP3    H164905   9.219   0.681   5.896
21676TIP3    H264906   9.331   0.781   5.877
21677TIP3   OH264907   9.440   0.938   5.840
21677TIP3    H164908   9.511   0.923   5.902
21677TIP3    H264909   9.483   0.956   5.756
21678TIP3   OH264910   9.798   1.028   5.804
21678TIP3    H164911   9.737   1.037   5.731
21678TIP3    H264912   9.848   1.109   5.804
21679TIP3   OH264913   8.660   0.778   7.300
21679TIP3    H164914   8.565   0.778   7.308
21679TIP3    H264915   8.690   0.724   7.373
21680TIP3   OH264916   9.383   0.646   6.169
21680TIP3    H164917   9.355   0.663   6.079
21680TIP3    H264918   9.422   0.729   6.198
21681TIP3   OH264919   9.075   0.787   6.202
21681TIP3    H164920   9.139   0.857   6.186
21681TIP3    H264921   9.078   0.773   6.297
21682TIP3   OH264922   9.203   0.513   6.334
21682TIP3    H164923   9.166   0.585   6.384
21682TIP3    H264924   9.269   0.554   6.277
21683TIP3   OH264925   8.677   0.530   6.178
21683TIP3    H164926   8.662   0.622   6.155
21683TIP3    H264927   8.771   0.518   6.163
21684TIP3   OH264928   8.207   0.634   6.012
21684TIP3    H164929   8.128   0.688   5.998
21684TIP3    H264930   8.209   0.576   5.937
21685TIP3   OH264931   8.609   0.468   6.878
21685TIP3    H164932   8.589   0.429   6.793
21685TIP3    H264933   8.622   0.393   6.936
21686TIP3   OH264934   8.727   1.024   5.807
21686TIP3    H164935   8.726   1.026   5.712
21686TIP3    H264936   8.820   1.032   5.830
21687TIP3   OH264937   9.090   0.793   7.084
21687TIP3    H164938   9.109   0.859   7.017
21687TIP3    H264939   8.995   0.789   7.088
21688TIP3   OH264940   9.196   0.552   7.152
21688TIP3    H164941   9.165   0.641   7.137
21688TIP3    H264942   9.117   0.501   7.172
21689TIP3   OH264943   9.604   0.979   5.611
21689TIP3    H164944   9.637   1.015   5.528
21689TIP3    H264945   9.600   0.885   5.597
21690TIP3   OH264946   9.758   1.210   6.145
21690TIP3    H164947   9.666   1.192   6.126
21690TIP3    H264948   9.757   1.256   6.229
21691TIP3   OH264949   9.586   0.705   5.590
21691TIP3    H164950   9.664   0.670   5.633
21691TIP3    H264951   9.517   0.642   5.609
21692TIP3   OH264952   9.662   0.903   6.004
21692TIP3    H164953   9.712   0.823   6.018
21692TIP3    H264954   9.716   0.956   5.945
21693TIP3   OH264955   8.488   0.978   7.552
21693TIP3    H164956   8.578   1.011   7.546
21693TIP3    H264957   8.496   0.900   7.607
21694TIP3   OH264958   9.788   0.669   6.066
21694TIP3    H164959   9.829   0.663   6.152
21694TIP3    H264960   9.720   0.601   6.067
21695TIP3   OH264961   8.459   0.689   6.948
21695TIP3    H164962   8.500   0.605   6.927
21695TIP3    H264963   8.529   0.753   6.935
21696TIP3   OH264964   8.359   0.973   7.053
21696TIP3    H164965   8.398   0.958   6.966
21696TIP3    H264966   8.329   1.064   7.050
21697TIP3   OH264967   0.020   0.619   5.707
21697TIP3    H164968   0.063   0.554   5.651
21697TIP3    H264969   0.077   0.696   5.701
21698TIP3   OH264970   8.255   0.360   6.450
21698TIP3    H164971   8.181   0.370   6.510
21698TIP3    H264972   8.255   0.440   6.398
21699TIP3   OH264973   8.471   0.501   7.275
21699TIP3    H164974   8.424   0.495   7.358
21699TIP3    H264975   8.411   0.550   7.218
21700TIP3   OH264976   9.331   0.661   6.647
21700TIP3    H164977   9.270   0.597   6.684
21700TIP3    H264978   9.391   0.610   6.594
21701TIP3   OH264979   9.817   0.571   6.533
21701TIP3    H164980   9.852   0.621   6.459
21701TIP3    H264981   9.722   0.583   6.527
21702TIP3   OH264982   0.140   0.655   6.300
21702TIP3    H164983   0.202   0.589   6.269
21702TIP3    H264984   0.177   0.739   6.272
21703TIP3   OH264985   8.548   0.339   6.638
21703TIP3    H164986   8.458   0.306   6.647
21703TIP3    H264987   8.602   0.260   6.638
21704TIP3   OH264988   8.376   0.213   6.253
21704TIP3    H164989   8.402   0.274   6.185
21704TIP3    H264990   8.338   0.267   6.322
21705TIP3   OH264991   9.033   0.390   6.532
21705TIP3    H164992   9.089   0.432   6.466
21705TIP3    H264993   9.066   0.423   6.615
21706TIP3   OH264994   9.535   0.527   6.510
21706TIP3    H164995   9.538   0.487   6.423
21706TIP3    H264996   9.540   0.453   6.571
21707TIP3   OH264997   9.587   0.480   6.076
21707TIP3    H164998   9.512   0.533   6.104
21707TIP3    H264999   9.572   0.394   6.115
21708TIP3   OH265000   8.481   0.379   6.044
21708TIP3    H165001   8.533   0.329   5.981
21708TIP3    H265002   8.546   0.432   6.091
21709TIP3   OH265003   8.955   0.542   6.147
21709TIP3    H165004   8.990   0.461   6.183
21709TIP3    H265005   9.011   0.611   6.184
21710TIP3   OH265006   8.761   0.614   7.508
21710TIP3    H165007   8.734   0.548   7.572
21710TIP3    H265008   8.842   0.650   7.544
21711TIP3   OH265009   0.183   1.188   5.956
21711TIP3    H165010   0.180   1.280   5.984
21711TIP3    H265011   0.122   1.143   6.015
21712TIP3   OH265012   1.073   0.761   5.405
21712TIP3    H165013   1.039   0.767   5.494
21712TIP3    H265014   1.052   0.672   5.377
21713TIP3   OH265015   0.680   0.827   5.365
21713TIP3    H165016   0.665   0.825   5.460
21713TIP3    H265017   0.606   0.877   5.330
21714TIP3   OH265018   0.275   0.845   6.161
21714TIP3    H165019   0.348   0.906   6.151
21714TIP3    H265020   0.275   0.794   6.080
21715TIP3   OH265021   0.178   0.848   5.705
21715TIP3    H165022   0.221   0.898   5.637
21715TIP3    H265023   0.118   0.910   5.747
21716TIP3   OH265024   0.568   1.041   5.539
21716TIP3    H165025   0.481   1.040   5.500
21716TIP3    H265026   0.625   1.077   5.471
21717TIP3   OH265027   0.649   0.798   5.637
21717TIP3    H165028   0.607   0.884   5.637
21717TIP3    H265029   0.742   0.816   5.646
21718TIP3   OH265030   0.242   1.044   5.511
21718TIP3    H165031   0.293   1.120   5.483
21718TIP3    H265032   0.172   1.036   5.446
21719TIP3   OH265033   0.725   1.157   5.348
21719TIP3    H165034   0.674   1.188   5.274
21719TIP3    H265035   0.816   1.160   5.317
21720TIP3   OH265036   0.231   0.696   5.929
21720TIP3    H165037   0.142   0.681   5.960
21720TIP3    H265038   0.221   0.754   5.854
21721TIP3   OH265039   0.536   0.614   6.088
21721TIP3    H165040   0.446   0.587   6.105
21721TIP3    H265041   0.587   0.533   6.095
21722TIP3   OH265042   0.342   0.494   5.769
21722TIP3    H165043   0.374   0.542   5.693
21722TIP3    H265044   0.314   0.562   5.830
21723TIP3   OH265045   0.450   0.626   5.550
21723TIP3    H165046   0.494   0.569   5.486
21723TIP3    H265047   0.520   0.679   5.588
21724TIP3   OH265048   0.262   6.799   1.496
21724TIP3    H165049   0.267   6.894   1.486
21724TIP3    H265050   0.349   6.768   1.473
21725TIP3   OH265051   9.538   6.941   1.623
21725TIP3    H165052   9.601   6.873   1.598
21725TIP3    H265053   9.553   6.954   1.717
21726TIP3   OH265054  -0.008   6.223   1.684
21726TIP3    H165055  -0.035   6.180   1.603
21726TIP3    H265056   0.078   6.185   1.704
21727TIP3   OH265057   0.190   6.839   1.760
21727TIP3    H165058   0.224   6.763   1.807
21727TIP3    H265059   0.227   6.830   1.672
21728TIP3   OH265060   0.286   7.070   1.509
21728TIP3    H165061   0.339   7.148   1.489
21728TIP3    H265062   0.203   7.106   1.541
21729TIP3   OH265063   9.392   6.641   1.665
21729TIP3    H165064   9.319   6.581   1.680
21729TIP3    H265065   9.443   6.600   1.595
21730TIP3   OH265066   9.746   6.771   1.532
21730TIP3    H165067   9.820   6.803   1.583
21730TIP3    H265068   9.771   6.787   1.441
21731TIP3   OH265069   0.314   6.306   1.515
21731TIP3    H165070   0.247   6.251   1.474
21731TIP3    H265071   0.270   6.389   1.533
21732TIP3   OH265072   0.221   7.110   1.827
21732TIP3    H165073   0.215   7.015   1.815
21732TIP3    H265074   0.171   7.147   1.754
21733TIP3   OH265075   1.046   6.760   1.221
21733TIP3    H165076   1.099   6.681   1.209
21733TIP3    H265077   1.086   6.803   1.297
21734TIP3   OH265078   1.013   7.023   1.378
21734TIP3    H165079   0.992   7.114   1.357
21734TIP3    H265080   1.051   7.026   1.465
21735TIP3   OH265081   0.768   6.733   1.352
21735TIP3    H165082   0.845   6.712   1.405
21735TIP3    H265083   0.797   6.806   1.297
21736TIP3   OH265084   1.176   6.944   1.065
21736TIP3    H165085   1.115   6.879   1.098
21736TIP3    H265086   1.239   6.957   1.136
21737TIP3   OH265087   1.002   7.294   1.316
21737TIP3    H165088   1.095   7.293   1.339
21737TIP3    H265089   0.999   7.338   1.230
21738TIP3   OH265090   0.508   6.705   1.424
21738TIP3    H165091   0.602   6.722   1.419
21738TIP3    H265092   0.499   6.611   1.409
21739TIP3   OH265093   0.408   7.278   1.937
21739TIP3    H165094   0.334   7.236   1.895
21739TIP3    H265095   0.459   7.206   1.975
21740TIP3   OH265096   0.566   7.030   1.569
21740TIP3    H165097   0.472   7.020   1.577
21740TIP3    H265098   0.583   7.120   1.598
21741TIP3   OH265099   1.308   7.235   1.134
21741TIP3    H165100   1.226   7.253   1.088
21741TIP3    H265101   1.282   7.226   1.226
21742TIP3   OH265102   0.578   7.050   1.294
21742TIP3    H165103   0.577   7.050   1.390
21742TIP3    H265104   0.664   7.014   1.271
21743TIP3   OH265105   7.916   8.293   1.637
21743TIP3    H165106   7.911   8.355   1.564
21743TIP3    H265107   8.010   8.277   1.648
21744TIP3   OH265108   7.917   8.693   1.673
21744TIP3    H165109   7.978   8.751   1.628
21744TIP3    H265110   7.890   8.741   1.751
21745TIP3   OH265111   7.823   5.379   0.403
21745TIP3    H165112   7.808   5.454   0.345
21745TIP3    H265113   7.735   5.346   0.422
21746TIP3   OH265114   9.639   8.470   1.989
21746TIP3    H165115   9.609   8.446   2.076
21746TIP3    H265116   9.726   8.507   2.002
21747TIP3   OH265117   9.278   8.939   2.034
21747TIP3    H165118   9.290   8.866   1.973
21747TIP3    H265119   9.342   8.923   2.103
21748TIP3   OH265120   9.171   8.363   1.834
21748TIP3    H165121   9.196   8.363   1.742
21748TIP3    H265122   9.150   8.455   1.854
21749TIP3   OH265123   9.354   8.754   1.843
21749TIP3    H165124   9.397   8.672   1.819
21749TIP3    H265125   9.411   8.823   1.807
21750TIP3   OH265126   9.487   8.531   1.763
21750TIP3    H165127   9.511   8.467   1.697
21750TIP3    H265128   9.540   8.508   1.839
21751TIP3   OH265129   9.160   7.993   1.756
21751TIP3    H165130   9.100   8.067   1.745
21751TIP3    H265131   9.230   8.008   1.693
21752TIP3   OH265132   9.174   7.830   1.471
21752TIP3    H165133   9.237   7.876   1.527
21752TIP3    H265134   9.228   7.772   1.417
21753TIP3   OH265135   9.532   8.132   1.752
21753TIP3    H165136   9.487   8.169   1.828
21753TIP3    H265137   9.613   8.094   1.788
21754TIP3   OH265138   9.386   7.971   1.583
21754TIP3    H165139   9.440   8.033   1.632
21754TIP3    H265140   9.412   7.983   1.492
21755TIP3   OH265141   9.107   8.634   1.838
21755TIP3    H165142   9.191   8.678   1.848
21755TIP3    H265143   9.053   8.693   1.785
21756TIP3   OH265144   0.067   7.210   1.618
21756TIP3    H165145  -0.005   7.237   1.675
21756TIP3    H265146   0.084   7.286   1.563
21757TIP3   OH265147   9.705   8.585   1.183
21757TIP3    H165148   9.699   8.677   1.159
21757TIP3    H265149   9.794   8.560   1.160
21758TIP3   OH265150   9.014   8.863   1.660
21758TIP3    H165151   8.974   8.849   1.574
21758TIP3    H265152   8.983   8.950   1.686
21759TIP3   OH265153   9.211   8.807   1.286
21759TIP3    H165154   9.261   8.733   1.251
21759TIP3    H265155   9.246   8.820   1.374
21760TIP3   OH265156   9.271   8.853   1.553
21760TIP3    H165157   9.189   8.847   1.603
21760TIP3    H265158   9.340   8.852   1.619
21761TIP3   OH265159   9.455   7.993   1.320
21761TIP3    H165160   9.405   7.982   1.239
21761TIP3    H265161   9.538   8.030   1.293
21762TIP3   OH265162   9.155   7.483   1.624
21762TIP3    H165163   9.094   7.524   1.685
21762TIP3    H265164   9.155   7.391   1.649
21763TIP3   OH265165   9.278   7.785   1.896
21763TIP3    H165166   9.232   7.859   1.857
21763TIP3    H265167   9.353   7.770   1.838
21764TIP3   OH265168   8.860   7.393   1.621
21764TIP3    H165169   8.893   7.473   1.663
21764TIP3    H265170   8.768   7.389   1.648
21765TIP3   OH265171   8.695   7.739   1.687
21765TIP3    H165172   8.644   7.669   1.647
21765TIP3    H265173   8.769   7.752   1.628
21766TIP3   OH265174   8.957   8.186   1.730
21766TIP3    H165175   8.871   8.142   1.730
21766TIP3    H265176   8.960   8.231   1.815
21767TIP3   OH265177   9.400   7.531   1.521
21767TIP3    H165178   9.311   7.524   1.556
21767TIP3    H265179   9.445   7.589   1.581
21768TIP3   OH265180   9.485   7.733   1.702
21768TIP3    H165181   9.579   7.740   1.715
21768TIP3    H265182   9.461   7.812   1.654
21769TIP3   OH265183   9.103   8.332   1.553
21769TIP3    H165184   9.058   8.416   1.556
21769TIP3    H265185   9.054   8.276   1.614
21770TIP3   OH265186   0.092   7.843   1.498
21770TIP3    H165187   0.031   7.798   1.439
21770TIP3    H265188   0.096   7.932   1.466
21771TIP3   OH265189   9.629   8.656   1.443
21771TIP3    H165190   9.589   8.585   1.493
21771TIP3    H265191   9.650   8.618   1.358
21772TIP3   OH265192   8.665   8.763   1.854
21772TIP3    H165193   8.648   8.739   1.945
21772TIP3    H265194   8.701   8.851   1.858
21773TIP3   OH265195   9.396   8.393   1.346
21773TIP3    H165196   9.436   8.373   1.431
21773TIP3    H265197   9.312   8.348   1.348
21774TIP3   OH265198   9.696   8.856   1.139
21774TIP3    H165199   9.701   8.912   1.062
21774TIP3    H265200   9.629   8.898   1.194
21775TIP3   OH265201   9.561   8.339   1.569
21775TIP3    H165202   9.545   8.264   1.626
21775TIP3    H265203   9.654   8.335   1.548
21776TIP3   OH265204   8.753   8.360   1.356
21776TIP3    H165205   8.767   8.271   1.323
21776TIP3    H265206   8.733   8.349   1.449
21777TIP3   OH265207   8.721   8.354   1.640
21777TIP3    H165208   8.815   8.361   1.655
21777TIP3    H265209   8.691   8.445   1.635
21778TIP3   OH265210   9.468   7.465   1.817
21778TIP3    H165211   9.390   7.420   1.787
21778TIP3    H265212   9.450   7.558   1.802
21779TIP3   OH265213   8.946   8.554   1.564
21779TIP3    H165214   8.857   8.580   1.589
21779TIP3    H265215   8.981   8.629   1.516
21780TIP3   OH265216   8.685   8.627   1.617
21780TIP3    H165217   8.669   8.696   1.552
21780TIP3    H265218   8.674   8.671   1.702
21781TIP3   OH265219   8.446   8.353   1.510
21781TIP3    H165220   8.438   8.350   1.605
21781TIP3    H265221   8.505   8.281   1.487
21782TIP3   OH265222   9.678   8.998   2.080
21782TIP3    H165223   9.631   9.045   2.010
21782TIP3    H265224   9.768   9.029   2.073
21783TIP3   OH265225   8.897   8.564   1.243
21783TIP3    H165226   8.851   8.493   1.288
21783TIP3    H265227   8.970   8.521   1.199
21784TIP3   OH265228   9.337   8.595   1.167
21784TIP3    H165229   9.374   8.531   1.229
21784TIP3    H265230   9.394   8.589   1.090
21785TIP3   OH265231   8.595   8.121   1.477
21785TIP3    H165232   8.640   8.093   1.557
21785TIP3    H265233   8.659   8.108   1.407
21786TIP3   OH265234   9.145   8.270   1.293
21786TIP3    H165235   9.120   8.284   1.384
21786TIP3    H265236   9.131   8.176   1.279
21787TIP3   OH265237   8.753   8.006   1.677
21787TIP3    H165238   8.705   7.928   1.706
21787TIP3    H265239   8.824   7.970   1.623
21788TIP3   OH265240   8.906   7.819   1.524
21788TIP3    H165241   8.883   7.820   1.431
21788TIP3    H265242   9.002   7.821   1.525
21789TIP3   OH265243   9.676   8.100   1.194
21789TIP3    H165244   9.661   8.057   1.110
21789TIP3    H265245   9.650   8.191   1.180
21790TIP3   OH265246   8.693   8.844   1.446
21790TIP3    H165247   8.786   8.834   1.428
21790TIP3    H265248   8.658   8.890   1.370
21791TIP3   OH265249   8.179   8.219   1.617
21791TIP3    H165250   8.262   8.236   1.661
21791TIP3    H265251   8.186   8.129   1.586
21792TIP3   OH265252   0.135   9.104   2.039
21792TIP3    H165253   0.141   9.191   2.078
21792TIP3    H265254   0.198   9.105   1.968
21793TIP3   OH265255   0.035   8.309   1.536
21793TIP3    H165256   0.093   8.377   1.505
21793TIP3    H265257   0.081   8.269   1.611
21794TIP3   OH265258   0.159   8.164   1.739
21794TIP3    H165259   0.093   8.124   1.796
21794TIP3    H265260   0.222   8.203   1.800
21795TIP3   OH265261   0.148   8.543   2.068
21795TIP3    H165262   0.225   8.495   2.097
21795TIP3    H265263   0.182   8.628   2.040
21796TIP3   OH265264   0.080   8.087   1.377
21796TIP3    H165265   0.010   8.086   1.312
21796TIP3    H265266   0.061   8.164   1.431
21797TIP3   OH265267   9.722   7.742   1.312
21797TIP3    H165268   9.675   7.775   1.235
21797TIP3    H265269   9.735   7.649   1.294
21798TIP3   OH265270   9.754   8.004   1.866
21798TIP3    H165271   9.758   7.920   1.821
21798TIP3    H265272   9.773   7.983   1.957
21799TIP3   OH265273   9.754   7.476   1.259
21799TIP3    H165274   9.817   7.456   1.328
21799TIP3    H265275   9.674   7.430   1.285
21800TIP3   OH265276   9.764   7.759   1.733
21800TIP3    H165277   9.804   7.677   1.760
21800TIP3    H265278   9.812   7.785   1.654
21801TIP3   OH265279   0.082   7.514   1.801
21801TIP3    H165280   0.128   7.513   1.885
21801TIP3    H265281   0.021   7.440   1.806
21802TIP3   OH265282   0.140   7.415   1.451
21802TIP3    H165283   0.182   7.353   1.391
21802TIP3    H265284   0.200   7.490   1.454
21803TIP3   OH265285   9.493   8.948   1.715
21803TIP3    H165286   9.556   8.947   1.644
21803TIP3    H265287   9.523   9.017   1.774
21804TIP3   OH265288   9.690   7.309   1.811
21804TIP3    H165289   9.614   7.367   1.805
21804TIP3    H265290   9.670   7.250   1.884
21805TIP3   OH265291   8.174   8.591   1.726
21805TIP3    H165292   8.081   8.605   1.707
21805TIP3    H265293   8.210   8.680   1.735
21806TIP3   OH265294   8.957   8.784   1.393
21806TIP3    H165295   9.040   8.812   1.353
21806TIP3    H265296   8.926   8.714   1.336
21807TIP3   OH265297   9.655   8.925   1.490
21807TIP3    H165298   9.652   8.830   1.480
21807TIP3    H265299   9.611   8.958   1.412
21808TIP3   OH265300   8.270   8.604   1.445
21808TIP3    H165301   8.264   8.584   1.539
21808TIP3    H265302   8.360   8.581   1.422
21809TIP3   OH265303   1.336   8.422   1.468
21809TIP3    H165304   1.315   8.509   1.435
21809TIP3    H265305   1.278   8.363   1.420
21810TIP3   OH265306   1.221   8.469   1.761
21810TIP3    H165307   1.283   8.418   1.814
21810TIP3    H265308   1.245   8.449   1.671
21811TIP3   OH265309   0.673   8.329   2.217
21811TIP3    H165310   0.730   8.380   2.274
21811TIP3    H265311   0.713   8.336   2.130
21812TIP3   OH265312   1.616   8.637   1.516
21812TIP3    H165313   1.562   8.610   1.590
21812TIP3    H265314   1.635   8.730   1.532
21813TIP3   OH265315   0.632   8.761   1.924
21813TIP3    H165316   0.598   8.672   1.911
21813TIP3    H265317   0.718   8.760   1.882
21814TIP3   OH265318   0.312   7.945   1.645
21814TIP3    H165319   0.272   8.026   1.675
21814TIP3    H265320   0.241   7.898   1.600
21815TIP3   OH265321   0.381   8.257   1.883
21815TIP3    H165322   0.432   8.178   1.905
21815TIP3    H265323   0.444   8.315   1.841
21816TIP3   OH265324   1.169   9.149   1.439
21816TIP3    H165325   1.215   9.080   1.392
21816TIP3    H265326   1.176   9.125   1.531
21817TIP3   OH265327   1.132   8.721   1.808
21817TIP3    H165328   1.165   8.634   1.788
21817TIP3    H265329   1.194   8.781   1.766
21818TIP3   OH265330   0.855   7.792   1.843
21818TIP3    H165331   0.843   7.872   1.792
21818TIP3    H265332   0.812   7.724   1.791
21819TIP3   OH265333   0.534   8.039   1.941
21819TIP3    H165334   0.601   8.009   2.002
21819TIP3    H265335   0.536   7.975   1.870
21820TIP3   OH265336   0.908   8.216   1.780
21820TIP3    H165337   0.999   8.190   1.791
21820TIP3    H265338   0.865   8.138   1.744
21821TIP3   OH265339   1.235   8.622   1.306
21821TIP3    H165340   1.209   8.603   1.216
21821TIP3    H265341   1.186   8.701   1.329
21822TIP3   OH265342   0.989   8.595   2.016
21822TIP3    H165343   0.929   8.660   2.054
21822TIP3    H265344   1.035   8.643   1.947
21823TIP3   OH265345   0.760   7.940   2.068
21823TIP3    H165346   0.820   8.010   2.095
21823TIP3    H265347   0.807   7.893   2.000
21824TIP3   OH265348   0.207   8.494   1.414
21824TIP3    H165349   0.173   8.512   1.327
21824TIP3    H265350   0.230   8.579   1.450
21825TIP3   OH265351   1.609   8.891   1.613
21825TIP3    H165352   1.514   8.892   1.619
21825TIP3    H265353   1.631   8.971   1.565
21826TIP3   OH265354   1.351   8.984   1.311
21826TIP3    H165355   1.403   8.903   1.309
21826TIP3    H265356   1.407   9.049   1.268
21827TIP3   OH265357   1.519   8.773   1.281
21827TIP3    H165358   1.515   8.721   1.201
21827TIP3    H265359   1.549   8.711   1.348
21828TIP3   OH265360   1.183   8.291   1.278
21828TIP3    H165361   1.100   8.334   1.259
21828TIP3    H265362   1.228   8.286   1.194
21829TIP3   OH265363   1.143   8.100   0.959
21829TIP3    H165364   1.207   8.150   1.009
21829TIP3    H265365   1.195   8.033   0.914
21830TIP3   OH265366   1.521   8.400   1.241
21830TIP3    H165367   1.466   8.414   1.318
21830TIP3    H265368   1.609   8.385   1.275
21831TIP3   OH265369   0.739   8.370   1.621
21831TIP3    H165370   0.703   8.308   1.557
21831TIP3    H265371   0.803   8.319   1.670
21832TIP3   OH265372   0.862   8.770   1.772
21832TIP3    H165373   0.836   8.756   1.681
21832TIP3    H265374   0.956   8.750   1.773
21833TIP3   OH265375   0.821   8.374   1.988
21833TIP3    H165376   0.853   8.314   1.921
21833TIP3    H265377   0.885   8.445   1.989
21834TIP3   OH265378   1.340   8.910   1.707
21834TIP3    H165379   1.316   9.001   1.693
21834TIP3    H265380   1.380   8.909   1.794
21835TIP3   OH265381   1.363   8.247   1.067
21835TIP3    H165382   1.422   8.306   1.112
21835TIP3    H265383   1.385   8.256   0.974
21836TIP3   OH265384   1.104   8.866   1.318
21836TIP3    H165385   1.190   8.906   1.310
21836TIP3    H265386   1.045   8.923   1.268
21837TIP3   OH265387   0.627   8.197   1.428
21837TIP3    H165388   0.549   8.243   1.397
21837TIP3    H265389   0.598   8.108   1.445
21838TIP3   OH265390   1.694   8.842   0.668
21838TIP3    H165391   1.692   8.934   0.642
21838TIP3    H265392   1.784   8.814   0.650
21839TIP3   OH265393   0.247   8.805   2.001
21839TIP3    H165394   0.334   8.833   2.030
21839TIP3    H265395   0.187   8.864   2.047
21840TIP3   OH265396   1.008   9.111   1.149
21840TIP3    H165397   0.963   9.103   1.065
21840TIP3    H265398   0.973   9.191   1.188
21841TIP3   OH265399   0.431   8.983   1.518
21841TIP3    H165400   0.474   8.973   1.603
21841TIP3    H265401   0.379   8.903   1.508
21842TIP3   OH265402   1.197   9.059   0.765
21842TIP3    H165403   1.248   8.986   0.729
21842TIP3    H265404   1.231   9.070   0.854
21843TIP3   OH265405   1.257   9.098   1.029
21843TIP3    H165406   1.179   9.092   1.085
21843TIP3    H265407   1.331   9.093   1.090
21844TIP3   OH265408   1.424   8.258   0.803
21844TIP3    H165409   1.379   8.243   0.720
21844TIP3    H265410   1.513   8.283   0.778
21845TIP3   OH265411   1.167   7.630   1.119
21845TIP3    H165412   1.142   7.630   1.211
21845TIP3    H265413   1.124   7.552   1.082
21846TIP3   OH265414   0.790   7.997   1.671
21846TIP3    H165415   0.701   7.968   1.693
21846TIP3    H265416   0.805   7.963   1.583
21847TIP3   OH265417   1.290   8.077   1.409
21847TIP3    H165418   1.247   8.153   1.370
21847TIP3    H265419   1.346   8.043   1.340
21848TIP3   OH265420   0.832   7.613   1.096
21848TIP3    H165421   0.824   7.615   1.191
21848TIP3    H265422   0.752   7.654   1.064
21849TIP3   OH265423   0.345   7.642   1.924
21849TIP3    H165424   0.418   7.705   1.924
21849TIP3    H265425   0.363   7.585   1.849
21850TIP3   OH265426   0.289   7.649   1.456
21850TIP3    H165427   0.332   7.682   1.377
21850TIP3    H265428   0.223   7.716   1.477
21851TIP3   OH265429   1.118   7.848   1.714
21851TIP3    H165430   1.080   7.761   1.719
21851TIP3    H265431   1.078   7.896   1.786
21852TIP3   OH265432   0.559   7.862   1.730
21852TIP3    H165433   0.472   7.878   1.691
21852TIP3    H265434   0.585   7.777   1.695
21853TIP3   OH265435   0.823   7.879   1.425
21853TIP3    H165436   0.917   7.892   1.412
21853TIP3    H265437   0.783   7.898   1.340
21854TIP3   OH265438   0.714   7.912   1.179
21854TIP3    H165439   0.657   7.856   1.126
21854TIP3    H265440   0.769   7.956   1.115
21855TIP3   OH265441   0.710   7.626   1.668
21855TIP3    H165442   0.667   7.549   1.705
21855TIP3    H265443   0.748   7.595   1.586
21856TIP3   OH265444   0.944   8.417   1.212
21856TIP3    H165445   0.868   8.364   1.188
21856TIP3    H265446   0.917   8.462   1.293
21857TIP3   OH265447   1.402   7.758   1.069
21857TIP3    H165448   1.313   7.726   1.084
21857TIP3    H265449   1.402   7.847   1.103
21858TIP3   OH265450   1.438   8.004   1.187
21858TIP3    H165451   1.521   8.013   1.235
21858TIP3    H265452   1.430   8.085   1.137
21859TIP3   OH265453   0.614   8.486   1.842
21859TIP3    H165454   0.646   8.459   1.756
21859TIP3    H265455   0.674   8.445   1.904
21860TIP3   OH265456   1.098   8.581   1.059
21860TIP3    H165457   1.051   8.665   1.057
21860TIP3    H265458   1.041   8.523   1.109
21861TIP3   OH265459   1.928   8.086   0.876
21861TIP3    H165460   1.861   8.018   0.872
21861TIP3    H265461   1.883   8.165   0.845
21862TIP3   OH265462   1.620   8.887   0.931
21862TIP3    H165463   1.581   8.811   0.975
21862TIP3    H265464   1.638   8.857   0.842
21863TIP3   OH265465   0.740   8.777   1.524
21863TIP3    H165466   0.739   8.855   1.468
21863TIP3    H265467   0.648   8.754   1.534
21864TIP3   OH265468   0.318   8.068   1.240
21864TIP3    H165469   0.360   8.151   1.261
21864TIP3    H265470   0.236   8.069   1.290
21865TIP3   OH265471   0.846   8.540   1.431
21865TIP3    H165472   0.827   8.630   1.459
21865TIP3    H265473   0.812   8.485   1.501
21866TIP3   OH265474   0.988   9.102   1.982
21866TIP3    H165475   1.030   9.184   1.955
21866TIP3    H265476   0.990   9.104   2.077
21867TIP3   OH265477   0.662   8.997   1.374
21867TIP3    H165478   0.574   9.001   1.412
21867TIP3    H265479   0.693   9.087   1.377
21868TIP3   OH265480   1.381   8.647   0.823
21868TIP3    H165481   1.417   8.630   0.910
21868TIP3    H265482   1.297   8.600   0.823
21869TIP3   OH265483   1.705   9.113   0.625
21869TIP3    H165484   1.751   9.182   0.577
21869TIP3    H265485   1.630   9.157   0.665
21870TIP3   OH265486   1.537   8.605   1.051
21870TIP3    H165487   1.518   8.532   1.110
21870TIP3    H265488   1.627   8.591   1.022
21871TIP3   OH265489   0.476   8.952   2.086
21871TIP3    H165490   0.547   8.896   2.054
21871TIP3    H265491   0.520   9.017   2.141
21872TIP3   OH265492   0.734   8.608   0.841
21872TIP3    H165493   0.744   8.517   0.814
21872TIP3    H265494   0.720   8.604   0.936
21873TIP3   OH265495   0.677   8.627   1.113
21873TIP3    H165496   0.743   8.602   1.178
21873TIP3    H265497   0.676   8.722   1.116
21874TIP3   OH265498   0.405   8.320   1.321
21874TIP3    H165499   0.339   8.367   1.372
21874TIP3    H265500   0.425   8.379   1.248
21875TIP3   OH265501   1.473   7.632   1.313
21875TIP3    H165502   1.460   7.687   1.235
21875TIP3    H265503   1.489   7.695   1.384
21876TIP3   OH265504   0.948   8.809   1.048
21876TIP3    H165505   0.862   8.833   1.082
21876TIP3    H265506   0.974   8.883   0.993
21877TIP3   OH265507   1.097   7.890   1.444
21877TIP3    H165508   1.163   7.956   1.422
21877TIP3    H265509   1.104   7.879   1.539
21878TIP3   OH265510   0.698   8.899   1.122
21878TIP3    H165511   0.678   8.972   1.063
21878TIP3    H265512   0.684   8.935   1.209
21879TIP3   OH265513   0.810   7.605   1.374
21879TIP3    H165514   0.801   7.697   1.400
21879TIP3    H265515   0.902   7.584   1.391
21880TIP3   OH265516   0.432   8.495   1.105
21880TIP3    H165517   0.504   8.558   1.114
21880TIP3    H265518   0.463   8.432   1.041
21881TIP3   OH265519   0.344   7.790   1.229
21881TIP3    H165520   0.355   7.885   1.238
21881TIP3    H265521   0.283   7.781   1.155
21882TIP3   OH265522   1.678   9.141   1.538
21882TIP3    H165523   1.641   9.207   1.478
21882TIP3    H265524   1.772   9.155   1.534
21883TIP3   OH265525   0.258   8.762   1.492
21883TIP3    H165526   0.216   8.798   1.570
21883TIP3    H265527   0.213   8.804   1.419
21884TIP3   OH265528   0.886   8.811   0.731
21884TIP3    H165529   0.839   8.740   0.776
21884TIP3    H265530   0.960   8.767   0.689
21885TIP3   OH265531   1.328   8.851   0.648
21885TIP3    H165532   1.363   8.787   0.709
21885TIP3    H265533   1.384   8.844   0.571
21886TIP3   OH265534   0.555   8.305   0.954
21886TIP3    H165535   0.607   8.281   1.031
21886TIP3    H265536   0.620   8.317   0.885
21887TIP3   OH265537   1.133   8.524   0.792
21887TIP3    H165538   1.110   8.534   0.885
21887TIP3    H265539   1.113   8.432   0.772
21888TIP3   OH265540   0.730   8.247   1.165
21888TIP3    H165541   0.706   8.215   1.252
21888TIP3    H265542   0.777   8.174   1.125
21889TIP3   OH265543   0.871   8.063   1.011
21889TIP3    H165544   0.842   8.066   0.920
21889TIP3    H265545   0.966   8.071   1.006
21890TIP3   OH265546   1.647   8.361   0.668
21890TIP3    H165547   1.631   8.315   0.586
21890TIP3    H265548   1.621   8.451   0.651
21891TIP3   OH265549   0.696   9.116   0.949
21891TIP3    H165550   0.784   9.092   0.920
21891TIP3    H265551   0.656   9.159   0.873
21892TIP3   OH265552   0.158   8.493   1.121
21892TIP3    H165553   0.253   8.504   1.118
21892TIP3    H265554   0.143   8.407   1.083
21893TIP3   OH265555   0.065   9.077   1.576
21893TIP3    H165556  -0.003   9.026   1.533
21893TIP3    H265557   0.109   9.014   1.634
21894TIP3   OH265558   0.207   8.903   1.737
21894TIP3    H165559   0.198   8.839   1.807
21894TIP3    H265560   0.258   8.974   1.776
21895TIP3   OH265561   1.947   9.212   1.552
21895TIP3    H165562   1.976   9.191   1.641
21895TIP3    H265563   1.903   9.296   1.560
21896TIP3   OH265564   1.805   8.565   1.002
21896TIP3    H165565   1.870   8.628   0.972
21896TIP3    H265566   1.838   8.535   1.086
21897TIP3   OH265567   1.917   8.436   1.224
21897TIP3    H165568   1.951   8.369   1.165
21897TIP3    H265569   1.994   8.489   1.247
21898TIP3   OH265570   1.866   8.354   0.828
21898TIP3    H165571   1.793   8.350   0.766
21898TIP3    H265572   1.843   8.424   0.888
21899TIP3   OH265573   1.634   8.013   0.795
21899TIP3    H165574   1.615   7.999   0.702
21899TIP3    H265575   1.646   7.924   0.830
21900TIP3   OH265576   0.395   8.402   2.124
21900TIP3    H165577   0.382   8.351   2.044
21900TIP3    H265578   0.481   8.377   2.156
21901TIP3   OH265579   1.672   7.755   0.862
21901TIP3    H165580   1.765   7.738   0.854
21901TIP3    H265581   1.630   7.677   0.825
21902TIP3   OH265582   0.336   7.502   1.680
21902TIP3    H165583   0.245   7.494   1.709
21902TIP3    H265584   0.332   7.561   1.604
21903TIP3   OH265585   1.499   9.157   1.166
21903TIP3    H165586   1.560   9.155   1.092
21903TIP3    H265587   1.541   9.215   1.229
21904TIP3   OH265588   3.920  -0.002   2.019
21904TIP3    H165589   3.980   0.056   2.066
21904TIP3    H265590   3.923   0.028   1.928
21905TIP3   OH265591   4.343   0.074   1.812
21905TIP3    H165592   4.270   0.056   1.753
21905TIP3    H265593   4.331   0.166   1.837
21906TIP3   OH265594   4.594   0.014   1.963
21906TIP3    H165595   4.531   0.086   1.967
21906TIP3    H265596   4.590  -0.017   1.872
21907TIP3   OH265597   4.842   0.177   1.739
21907TIP3    H165598   4.789   0.232   1.681
21907TIP3    H265599   4.927   0.172   1.697
21908TIP3   OH265600   0.366   9.094   1.876
21908TIP3    H165601   0.389   9.066   1.964
21908TIP3    H265602   0.438   9.064   1.821
21909TIP3   OH265603   0.573   8.971   1.752
21909TIP3    H165604   0.583   8.896   1.811
21909TIP3    H265605   0.659   9.011   1.750
21910TIP3   OH265606   0.841   9.045   1.760
21910TIP3    H165607   0.854   8.951   1.750
21910TIP3    H265608   0.884   9.067   1.843
21911TIP3   OH265609   0.608   7.407   1.791
21911TIP3    H165610   0.522   7.379   1.822
21911TIP3    H265611   0.669   7.376   1.857
21912TIP3   OH265612   0.441   7.300   1.500
21912TIP3    H165613   0.485   7.350   1.431
21912TIP3    H265614   0.425   7.364   1.570
21913TIP3   OH265615   0.140   8.885   1.276
21913TIP3    H165616   0.057   8.857   1.239
21913TIP3    H265617   0.148   8.977   1.250
21914TIP3   OH265618   0.586   7.440   1.286
21914TIP3    H165619   0.630   7.377   1.228
21914TIP3    H265620   0.657   7.493   1.322
21915TIP3   OH265621   1.098   7.623   1.389
21915TIP3    H165622   1.166   7.594   1.449
21915TIP3    H265623   1.096   7.719   1.399
21916TIP3   OH265624   0.946   9.035   0.874
21916TIP3    H165625   1.029   9.062   0.834
21916TIP3    H265626   0.915   8.963   0.819
21917TIP3   OH265627   1.674   9.152   0.953
21917TIP3    H165628   1.659   9.058   0.944
21917TIP3    H265629   1.626   9.191   0.879
21918TIP3   OH265630   0.257   8.876   0.932
21918TIP3    H165631   0.256   8.886   1.027
21918TIP3    H265632   0.338   8.830   0.913
21919TIP3   OH265633   2.002   8.733   0.899
21919TIP3    H165634   1.972   8.752   0.810
21919TIP3    H265635   2.034   8.817   0.931
21920TIP3   OH265636   6.058   0.157   0.619
21920TIP3    H165637   5.981   0.151   0.563
21920TIP3    H265638   6.044   0.237   0.671
21921TIP3   OH265639   2.222   9.235   1.021
21921TIP3    H165640   2.303   9.194   1.051
21921TIP3    H265641   2.165   9.162   1.000
21922TIP3   OH265642   6.260   0.055   0.243
21922TIP3    H165643   6.315  -0.018   0.217
21922TIP3    H265644   6.289   0.076   0.332
21923TIP3   OH265645   6.299   0.094   0.516
21923TIP3    H165646   6.213   0.116   0.552
21923TIP3    H265647   6.338   0.036   0.581
21924TIP3   OH265648   2.795   8.823   0.517
21924TIP3    H165649   2.779   8.917   0.529
21924TIP3    H265650   2.849   8.799   0.592
21925TIP3   OH265651   2.466   9.112   1.044
21925TIP3    H165652   2.490   9.172   0.973
21925TIP3    H265653   2.494   9.026   1.012
21926TIP3   OH265654   2.130   8.320   0.746
21926TIP3    H165655   2.168   8.407   0.759
21926TIP3    H265656   2.041   8.327   0.781
21927TIP3   OH265657   5.697   0.072   0.843
21927TIP3    H165658   5.616   0.070   0.893
21927TIP3    H265659   5.706   0.163   0.814
21928TIP3   OH265660   6.689   0.095   0.082
21928TIP3    H165661   6.757   0.155   0.051
21928TIP3    H265662   6.630   0.151   0.133
21929TIP3   OH265663   2.511   8.867   0.328
21929TIP3    H165664   2.534   8.778   0.303
21929TIP3    H265665   2.500   8.864   0.423
21930TIP3   OH265666   2.459   8.892   0.598
21930TIP3    H165667   2.538   8.862   0.643
21930TIP3    H265668   2.461   8.988   0.606
21931TIP3   OH265669   2.209   8.583   0.787
21931TIP3    H165670   2.141   8.624   0.840
21931TIP3    H265671   2.220   8.641   0.712
21932TIP3   OH265672   2.741   9.086   0.560
21932TIP3    H165673   2.654   9.113   0.590
21932TIP3    H265674   2.771   9.160   0.506
21933TIP3   OH265675   2.483   9.165   0.617
21933TIP3    H165676   2.466   9.227   0.546
21933TIP3    H265677   2.464   9.215   0.697
21934TIP3   OH265678   2.216   8.763   0.574
21934TIP3    H165679   2.289   8.824   0.586
21934TIP3    H265680   2.247   8.702   0.508
21935TIP3   OH265681   2.132   8.058   0.646
21935TIP3    H165682   2.146   8.141   0.690
21935TIP3    H265683   2.073   8.009   0.704
21936TIP3   OH265684   2.058   9.000   0.975
21936TIP3    H165685   1.990   9.019   1.040
21936TIP3    H265686   2.025   9.040   0.894
21937TIP3   OH265687   2.683   9.046   0.213
21937TIP3    H165688   2.623   8.987   0.259
21937TIP3    H265689   2.758   8.990   0.192
21938TIP3   OH265690   3.152   9.088   0.152
21938TIP3    H165691   3.234   9.062   0.194
21938TIP3    H265692   3.175   9.103   0.060
21939TIP3   OH265693   2.332   8.565   0.425
21939TIP3    H165694   2.369   8.508   0.491
21939TIP3    H265695   2.404   8.582   0.364
21940TIP3   OH265696   2.822   8.789   0.246
21940TIP3    H165697   2.812   8.795   0.341
21940TIP3    H265698   2.809   8.697   0.226
21941TIP3   OH265699   5.752   0.112   0.415
21941TIP3    H165700   5.841   0.090   0.387
21941TIP3    H265701   5.716   0.164   0.343
21942TIP3   OH265702   1.949   8.750   0.623
21942TIP3    H165703   2.041   8.768   0.606
21942TIP3    H265704   1.931   8.668   0.576
21943TIP3   OH265705   5.168   0.043   1.027
21943TIP3    H165706   5.104  -0.018   0.993
21943TIP3    H265707   5.198   0.004   1.110
21944TIP3   OH265708   1.996   9.210   1.278
21944TIP3    H165709   1.973   9.185   1.367
21944TIP3    H265710   2.090   9.229   1.281
21945TIP3   OH265711   5.516   0.052   1.366
21945TIP3    H165712   5.522   0.066   1.460
21945TIP3    H265713   5.595   0.003   1.344
21946TIP3   OH265714   1.951   9.115   0.754
21946TIP3    H165715   1.866   9.084   0.723
21946TIP3    H265716   1.957   9.205   0.723
21947TIP3   OH265717   6.003   0.039   0.342
21947TIP3    H165718   6.088   0.065   0.306
21947TIP3    H265719   5.979  -0.040   0.294
21948TIP3   OH265720   2.051   9.137   0.418
21948TIP3    H165721   2.055   9.148   0.513
21948TIP3    H265722   2.131   9.089   0.397
21949TIP3   OH265723   0.829   0.832   1.855
21949TIP3    H165724   0.832   0.899   1.787
21949TIP3    H265725   0.859   0.876   1.934
21950TIP3   OH265726   0.505   0.174   1.606
21950TIP3    H165727   0.582   0.214   1.645
21950TIP3    H265728   0.505   0.084   1.640
21951TIP3   OH265729   0.693   0.328   1.752
21951TIP3    H165730   0.750   0.252   1.760
21951TIP3    H265731   0.730   0.379   1.680
21952TIP3   OH265732   1.004   0.909   1.338
21952TIP3    H165733   1.007   1.000   1.311
21952TIP3    H265734   1.093   0.876   1.322
21953TIP3   OH265735   0.327   1.196   1.793
21953TIP3    H165736   0.287   1.183   1.707
21953TIP3    H265737   0.294   1.281   1.822
21954TIP3   OH265738   0.523   1.129   1.435
21954TIP3    H165739   0.571   1.056   1.397
21954TIP3    H265740   0.558   1.138   1.523
21955TIP3   OH265741   0.583   1.169   1.701
21955TIP3    H165742   0.501   1.168   1.749
21955TIP3    H265743   0.651   1.179   1.768
21956TIP3   OH265744   0.752   0.337   1.470
21956TIP3    H165745   0.720   0.321   1.381
21956TIP3    H265746   0.842   0.368   1.457
21957TIP3   OH265747   0.370   0.620   1.737
21957TIP3    H165748   0.324   0.702   1.718
21957TIP3    H265749   0.451   0.647   1.779
21958TIP3   OH265750   1.236   0.193   1.658
21958TIP3    H165751   1.157   0.153   1.622
21958TIP3    H265752   1.238   0.281   1.621
21959TIP3   OH265753   0.946   0.943   1.608
21959TIP3    H165754   0.992   0.867   1.644
21959TIP3    H265755   0.952   0.931   1.513
21960TIP3   OH265756   0.698   0.700   1.473
21960TIP3    H165757   0.745   0.667   1.549
21960TIP3    H265758   0.611   0.660   1.478
21961TIP3   OH265759   1.018   1.179   1.295
21961TIP3    H165760   1.055   1.246   1.239
21961TIP3    H265761   0.944   1.221   1.339
21962TIP3   OH265762   0.845   0.613   1.686
21962TIP3    H165763   0.831   0.676   1.758
21962TIP3    H265764   0.940   0.608   1.678
21963TIP3   OH265765   0.055   0.720   1.491
21963TIP3    H165766   0.087   0.639   1.452
21963TIP3    H265767   0.005   0.692   1.567
21964TIP3   OH265768   0.262   0.863   1.695
21964TIP3    H165769   0.169   0.880   1.709
21964TIP3    H265770   0.299   0.948   1.673
21965TIP3   OH265771   9.802   0.944   1.737
21965TIP3    H165772   9.787   1.015   1.674
21965TIP3    H265773   9.778   0.981   1.821
21966TIP3   OH265774   0.214   0.909   1.379
21966TIP3    H165775   0.167   0.844   1.431
21966TIP3    H265776   0.287   0.862   1.341
21967TIP3   OH265777   0.647   0.918   1.313
21967TIP3    H165778   0.683   0.852   1.372
21967TIP3    H265779   0.702   0.914   1.235
21968TIP3   OH265780   9.695   0.503   1.602
21968TIP3    H165781   9.778   0.497   1.650
21968TIP3    H265782   9.719   0.482   1.511
21969TIP3   OH265783   0.440   0.599   1.460
21969TIP3    H165784   0.400   0.593   1.547
21969TIP3    H265785   0.441   0.509   1.428
21970TIP3   OH265786   0.166   0.140   1.771
21970TIP3    H165787   0.091   0.091   1.738
21970TIP3    H265788   0.196   0.192   1.696
21971TIP3   OH265789   0.982   0.427   1.342
21971TIP3    H165790   0.973   0.378   1.260
21971TIP3    H265791   0.955   0.516   1.320
21972TIP3   OH265792  -0.006   1.161   1.572
21972TIP3    H165793   0.090   1.163   1.564
21972TIP3    H265794  -0.038   1.213   1.499
21973TIP3   OH265795   1.123   0.641   1.681
21973TIP3    H165796   1.187   0.703   1.645
21973TIP3    H265797   1.167   0.602   1.756
21974TIP3   OH265798   1.264   0.517   1.881
21974TIP3    H165799   1.237   0.478   1.964
21974TIP3    H265800   1.358   0.532   1.891
21975TIP3   OH265801   1.188   0.423   1.520
21975TIP3    H165802   1.115   0.414   1.459
21975TIP3    H265803   1.167   0.500   1.573
21976TIP3   OH265804   1.018   0.122   1.491
21976TIP3    H165805   0.987   0.108   1.401
21976TIP3    H265806   1.032   0.033   1.525
21977TIP3   OH265807   7.584   9.123   1.612
21977TIP3    H165808   7.665   9.075   1.595
21977TIP3    H265809   7.517   9.074   1.564
21978TIP3   OH265810   7.827   8.986   1.595
21978TIP3    H165811   7.896   8.931   1.559
21978TIP3    H265812   7.869   9.071   1.609
21979TIP3   OH265813   0.787   1.250   1.863
21979TIP3    H165814   0.853   1.246   1.794
21979TIP3    H265815   0.827   1.305   1.930
21980TIP3   OH265816   0.265   1.125   1.533
21980TIP3    H165817   0.351   1.149   1.500
21980TIP3    H265818   0.236   1.054   1.477
21981TIP3   OH265819   0.956   1.221   1.641
21981TIP3    H165820   0.954   1.126   1.629
21981TIP3    H265821   0.918   1.257   1.561
21982TIP3   OH265822   9.359   0.941   1.584
21982TIP3    H165823   9.376   0.996   1.660
21982TIP3    H265824   9.444   0.903   1.562
21983TIP3   OH265825   2.433   0.753   1.542
21983TIP3    H165826   2.404   0.841   1.519
21983TIP3    H265827   2.362   0.717   1.596
21984TIP3   OH265828   2.418   0.748   1.949
21984TIP3    H165829   2.459   0.736   2.035
21984TIP3    H265830   2.380   0.663   1.928
21985TIP3   OH265831   2.690   1.039   1.650
21985TIP3    H165832   2.686   0.975   1.721
21985TIP3    H265833   2.737   1.114   1.688
21986TIP3   OH265834   1.746   1.046   2.036
21986TIP3    H165835   1.729   0.952   2.041
21986TIP3    H265836   1.836   1.052   2.002
21987TIP3   OH265837   1.433   0.238   1.852
21987TIP3    H165838   1.441   0.333   1.854
21987TIP3    H265839   1.360   0.221   1.792
21988TIP3   OH265840   1.536   0.522   1.927
21988TIP3    H165841   1.611   0.466   1.947
21988TIP3    H265842   1.569   0.611   1.933
21989TIP3   OH265843   2.386   1.488   1.688
21989TIP3    H165844   2.418   1.420   1.629
21989TIP3    H265845   2.371   1.442   1.771
21990TIP3   OH265846   2.228   0.952   1.978
21990TIP3    H165847   2.284   0.881   1.947
21990TIP3    H265848   2.289   1.016   2.015
21991TIP3   OH265849   3.280   0.318   1.988
21991TIP3    H165850   3.259   0.411   1.993
21991TIP3    H265851   3.329   0.309   1.906
21992TIP3   OH265852   2.646   0.462   2.037
21992TIP3    H165853   2.688   0.382   2.069
21992TIP3    H265854   2.633   0.446   1.943
21993TIP3   OH265855   2.066   0.108   1.968
21993TIP3    H165856   2.035   0.193   1.935
21993TIP3    H265857   1.989   0.052   1.967
21994TIP3   OH265858   2.717   0.231   1.614
21994TIP3    H165859   2.780   0.224   1.686
21994TIP3    H265860   2.768   0.261   1.540
21995TIP3   OH265861   2.089   0.534   1.893
21995TIP3    H165862   2.181   0.510   1.897
21995TIP3    H265863   2.044   0.452   1.872
21996TIP3   OH265864   2.338   0.989   1.437
21996TIP3    H165865   2.290   0.958   1.360
21996TIP3    H265866   2.285   1.061   1.471
21997TIP3   OH265867   2.891   0.256   1.817
21997TIP3    H165868   2.930   0.199   1.883
21997TIP3    H265869   2.932   0.341   1.832
21998TIP3   OH265870   1.310   0.806   1.568
21998TIP3    H165871   1.293   0.821   1.475
21998TIP3    H265872   1.371   0.875   1.593
21999TIP3   OH265873   2.768   1.267   1.792
21999TIP3    H165874   2.683   1.266   1.835
21999TIP3    H265875   2.770   1.351   1.746
22000TIP3   OH265876   3.047   0.159   2.028
22000TIP3    H165877   2.997   0.201   2.098
22000TIP3    H265878   3.127   0.210   2.022
22001TIP3   OH265879   2.474   1.308   1.500
22001TIP3    H165880   2.531   1.230   1.498
22001TIP3    H265881   2.514   1.369   1.438
22002TIP3   OH265882   2.607   1.011   1.393
22002TIP3    H165883   2.512   1.014   1.410
22002TIP3    H265884   2.646   1.022   1.480
22003TIP3   OH265885   2.280   0.571   1.339
22003TIP3    H165886   2.194   0.607   1.359
22003TIP3    H265887   2.332   0.648   1.313
22004TIP3   OH265888   2.230   0.386   1.130
22004TIP3    H165889   2.263   0.439   1.203
22004TIP3    H265890   2.308   0.347   1.091
22005TIP3   OH265891   3.144   0.825   1.976
22005TIP3    H165892   3.059   0.856   2.006
22005TIP3    H265893   3.147   0.847   1.883
22006TIP3   OH265894   2.634   0.720   1.361
22006TIP3    H165895   2.567   0.723   1.428
22006TIP3    H265896   2.707   0.674   1.402
22007TIP3   OH265897   1.869   0.674   1.799
22007TIP3    H165898   1.832   0.625   1.726
22007TIP3    H265899   1.948   0.624   1.824
22008TIP3   OH265900   1.987   1.086   1.900
22008TIP3    H165901   1.958   1.065   1.811
22008TIP3    H265902   2.067   1.036   1.912
22009TIP3   OH265903   2.020   0.714   2.095
22009TIP3    H165904   2.043   0.649   2.029
22009TIP3    H265905   2.078   0.788   2.077
22010TIP3   OH265906   2.546   1.278   1.944
22010TIP3    H165907   2.491   1.352   1.971
22010TIP3    H265908   2.509   1.203   1.990
22011TIP3   OH265909   2.209   1.225   1.492
22011TIP3    H165910   2.294   1.269   1.496
22011TIP3    H265911   2.158   1.277   1.429
22012TIP3   OH265912   9.518   9.020   1.270
22012TIP3    H165913   9.440   9.041   1.321
22012TIP3    H265914   9.530   9.096   1.213
22013TIP3   OH265915   1.754   0.566   1.574
22013TIP3    H165916   1.747   0.660   1.556
22013TIP3    H265917   1.664   0.533   1.563
22014TIP3   OH265918   2.801   1.164   0.804
22014TIP3    H165919   2.805   1.257   0.784
22014TIP3    H265920   2.887   1.130   0.778
22015TIP3   OH265921   2.116   1.448   1.301
22015TIP3    H165922   2.061   1.418   1.228
22015TIP3    H265923   2.075   1.529   1.331
22016TIP3   OH265924   1.547   1.306   1.688
22016TIP3    H165925   1.595   1.292   1.769
22016TIP3    H265926   1.501   1.223   1.673
22017TIP3   OH265927   2.316   1.356   0.910
22017TIP3    H165928   2.370   1.282   0.882
22017TIP3    H265929   2.340   1.370   1.001
22018TIP3   OH265930   2.357   1.417   1.172
22018TIP3    H165931   2.277   1.416   1.224
22018TIP3    H265932   2.427   1.426   1.237
22019TIP3   OH265933   8.800   9.191   1.265
22019TIP3    H165934   8.762   9.198   1.353
22019TIP3    H265935   8.760   9.112   1.228
22020TIP3   OH265936   1.941   0.312   1.831
22020TIP3    H165937   1.853   0.295   1.863
22020TIP3    H265938   1.939   0.282   1.740
22021TIP3   OH265939   2.420   0.413   1.522
22021TIP3    H165940   2.367   0.475   1.473
22021TIP3    H265941   2.484   0.379   1.459
22022TIP3   OH265942   2.575   0.421   1.760
22022TIP3    H165943   2.516   0.444   1.688
22022TIP3    H265944   2.622   0.343   1.729
22023TIP3   OH265945   8.461   9.177   1.238
22023TIP3    H165946   8.455   9.188   1.333
22023TIP3    H265947   8.386   9.227   1.203
22024TIP3   OH265948   1.416  -0.011   1.620
22024TIP3    H165949   1.455   0.015   1.536
22024TIP3    H265950   1.359   0.062   1.643
22025TIP3   OH265951   2.561   0.685   2.174
22025TIP3    H165952   2.601   0.610   2.131
22025TIP3    H265953   2.585   0.675   2.266
22026TIP3   OH265954   2.315   0.118   1.851
22026TIP3    H165955   2.234   0.121   1.902
22026TIP3    H265956   2.384   0.109   1.917
22027TIP3   OH265957   1.702   0.206   1.909
22027TIP3    H165958   1.608   0.205   1.889
22027TIP3    H265959   1.730   0.116   1.894
22028TIP3   OH265960   1.949   0.194   1.581
22028TIP3    H165961   2.041   0.217   1.567
22028TIP3    H265962   1.905   0.220   1.499
22029TIP3   OH265963   2.728   0.209   2.112
22029TIP3    H165964   2.720   0.168   2.198
22029TIP3    H265965   2.674   0.155   2.054
22030TIP3   OH265966   1.828   0.216   1.336
22030TIP3    H165967   1.759   0.173   1.285
22030TIP3    H265968   1.876   0.269   1.272
22031TIP3   OH265969   2.357   0.476   1.931
22031TIP3    H165970   2.426   0.447   1.872
22031TIP3    H265971   2.385   0.446   2.017
22032TIP3   OH265972   8.377   9.206   1.846
22032TIP3    H165973   8.371   9.111   1.841
22032TIP3    H265974   8.407   9.233   1.759
22033TIP3   OH265975   2.051   0.718   1.389
22033TIP3    H165976   1.964   0.695   1.358
22033TIP3    H265977   2.036   0.764   1.472
22034TIP3   OH265978   2.897   0.932   2.015
22034TIP3    H165979   2.921   0.980   1.936
22034TIP3    H265980   2.808   0.900   1.997
22035TIP3   OH265981   2.514   0.066   1.271
22035TIP3    H165982   2.421   0.042   1.264
22035TIP3    H265983   2.513   0.162   1.270
22036TIP3   OH265984   2.593   0.338   1.313
22036TIP3    H165985   2.684   0.324   1.338
22036TIP3    H265986   2.597   0.397   1.237
22037TIP3   OH265987   1.750   0.763   2.028
22037TIP3    H165988   1.779   0.745   1.939
22037TIP3    H265989   1.827   0.745   2.083
22038TIP3   OH265990   2.186   0.895   1.225
22038TIP3    H165991   2.140   0.978   1.217
22038TIP3    H265992   2.125   0.838   1.273
22039TIP3   OH265993   2.987   0.419   1.154
22039TIP3    H165994   2.926   0.376   1.094
22039TIP3    H265995   2.993   0.509   1.123
22040TIP3   OH265996   2.697   1.175   1.059
22040TIP3    H165997   2.764   1.170   1.127
22040TIP3    H265998   2.745   1.159   0.978
22041TIP3   OH265999   2.664   0.853   1.877
22041TIP3    H166000   2.575   0.819   1.884
22041TIP3    H266001   2.714   0.783   1.835
22042TIP3   OH266002   1.853   1.069   1.651
22042TIP3    H166003   1.838   1.151   1.605
22042TIP3    H266004   1.787   1.009   1.615
22043TIP3   OH266005   1.406   0.371   1.362
22043TIP3    H166006   1.459   0.448   1.381
22043TIP3    H266007   1.328   0.381   1.416
22044TIP3   OH266008   2.015   0.844   1.631
22044TIP3    H166009   1.973   0.929   1.622
22044TIP3    H266010   1.960   0.796   1.693
22045TIP3   OH266011   2.130   1.433   2.116
22045TIP3    H166012   2.145   1.521   2.083
22045TIP3    H266013   2.074   1.444   2.193
22046TIP3   OH266014   1.770   1.314   1.525
22046TIP3    H166015   1.686   1.314   1.572
22046TIP3    H266016   1.800   1.405   1.530
22047TIP3   OH266017   2.503   1.034   2.070
22047TIP3    H166018   2.511   0.986   2.152
22047TIP3    H266019   2.558   0.985   2.008
22048TIP3   OH266020   2.530   0.927   1.113
22048TIP3    H166021   2.545   1.015   1.078
22048TIP3    H266022   2.453   0.895   1.066
22049TIP3   OH266023   2.815   1.438   0.785
22049TIP3    H166024   2.870   1.512   0.758
22049TIP3    H266025   2.730   1.478   0.803
22050TIP3   OH266026   1.852   0.931   0.981
22050TIP3    H166027   1.855   0.839   0.956
22050TIP3    H266028   1.848   0.930   1.076
22051TIP3   OH266029   1.826   0.947   1.249
22051TIP3    H166030   1.788   0.908   1.327
22051TIP3    H266031   1.812   1.041   1.260
22052TIP3   OH266032   1.491   0.608   1.471
22052TIP3    H166033   1.418   0.650   1.517
22052TIP3    H266034   1.554   0.679   1.457
22053TIP3   OH266035   2.576   0.009   1.531
22053TIP3    H166036   2.553   0.030   1.441
22053TIP3    H266037   2.617   0.088   1.565
22054TIP3   OH266038   2.075   1.142   1.208
22054TIP3    H166039   1.986   1.152   1.243
22054TIP3    H266040   2.082   1.211   1.142
22055TIP3   OH266041   2.233   0.219   1.604
22055TIP3    H166042   2.293   0.288   1.574
22055TIP3    H266043   2.263   0.199   1.693
22056TIP3   OH266044   8.927   9.137   1.702
22056TIP3    H166045   8.907   9.217   1.752
22056TIP3    H266046   9.000   9.162   1.645
22057TIP3   OH266047   1.817   1.222   1.271
22057TIP3    H166048   1.792   1.296   1.216
22057TIP3    H266049   1.796   1.250   1.360
22058TIP3   OH266050   8.439   9.168   1.520
22058TIP3    H166051   8.431   9.262   1.537
22058TIP3    H266052   8.533   9.151   1.525
22059TIP3   OH266053   2.783   0.616   1.769
22059TIP3    H166054   2.713   0.552   1.778
22059TIP3    H266055   2.857   0.578   1.816
22060TIP3   OH266056   1.505   0.860   1.229
22060TIP3    H166057   1.557   0.881   1.307
22060TIP3    H266058   1.561   0.801   1.179
22061TIP3   OH266059   1.456   0.098   1.375
22061TIP3    H166060   1.456   0.194   1.372
22061TIP3    H266061   1.393   0.073   1.307
22062TIP3   OH266062   2.750   1.531   1.708
22062TIP3    H166063   2.711   1.571   1.630
22062TIP3    H266064   2.843   1.550   1.701
22063TIP3   OH266065   1.365   1.098   1.644
22063TIP3    H166066   1.296   1.136   1.698
22063TIP3    H266067   1.344   1.125   1.555
22064TIP3   OH266068   2.009   1.127   0.874
22064TIP3    H166069   1.958   1.057   0.915
22064TIP3    H266070   2.086   1.083   0.838
22065TIP3   OH266071   2.485   1.160   0.805
22065TIP3    H166072   2.568   1.171   0.850
22065TIP3    H266073   2.506   1.169   0.712
22066TIP3   OH266074   1.652   0.658   1.104
22066TIP3    H166075   1.701   0.631   1.182
22066TIP3    H266076   1.719   0.664   1.035
22067TIP3   OH266077   2.290   0.854   0.974
22067TIP3    H166078   2.243   0.867   1.056
22067TIP3    H266079   2.276   0.762   0.952
22068TIP3   OH266080   1.827   0.568   1.300
22068TIP3    H166081   1.812   0.539   1.390
22068TIP3    H266082   1.873   0.495   1.259
22069TIP3   OH266083   1.956   0.370   1.149
22069TIP3    H166084   1.929   0.381   1.058
22069TIP3    H266085   2.052   0.372   1.147
22070TIP3   OH266086   2.786   0.675   0.857
22070TIP3    H166087   2.755   0.630   0.779
22070TIP3    H266088   2.747   0.762   0.852
22071TIP3   OH266089   1.811   1.442   1.098
22071TIP3    H166090   1.896   1.413   1.067
22071TIP3    H266091   1.770   1.481   1.021
22072TIP3   OH266092   1.251   0.802   1.291
22072TIP3    H166093   1.340   0.829   1.271
22072TIP3    H266094   1.242   0.716   1.249
22073TIP3   OH266095   1.161   1.395   1.712
22073TIP3    H166096   1.094   1.335   1.678
22073TIP3    H266097   1.205   1.345   1.781
22074TIP3   OH266098   1.297   1.251   1.899
22074TIP3    H166099   1.330   1.168   1.933
22074TIP3    H266100   1.348   1.318   1.945
22075TIP3   OH266101   3.007   1.617   1.748
22075TIP3    H166102   3.050   1.552   1.804
22075TIP3    H266103   3.047   1.604   1.662
22076TIP3   OH266104   2.847   0.880   1.226
22076TIP3    H166105   2.884   0.968   1.226
22076TIP3    H266106   2.915   0.825   1.263
22077TIP3   OH266107   3.038   0.726   1.359
22077TIP3    H166108   2.970   0.684   1.412
22077TIP3    H266109   3.091   0.774   1.422
22078TIP3   OH266110   2.978   1.029   1.778
22078TIP3    H166111   3.057   0.995   1.735
22078TIP3    H266112   2.990   1.124   1.777
22079TIP3   OH266113   2.865   1.293   2.050
22079TIP3    H166114   2.780   1.277   2.090
22079TIP3    H266115   2.852   1.270   1.958
22080TIP3   OH266116   2.996   0.667   1.030
22080TIP3    H166117   2.922   0.662   0.969
22080TIP3    H266118   2.991   0.755   1.067
22081TIP3   OH266119   2.822   0.307   0.971
22081TIP3    H166120   2.779   0.347   0.895
22081TIP3    H266121   2.814   0.213   0.956
22082TIP3   OH266122   2.842   0.593   1.498
22082TIP3    H166123   2.850   0.498   1.490
22082TIP3    H266124   2.824   0.608   1.591
22083TIP3   OH266125   2.797   0.035   0.936
22083TIP3    H166126   2.862   0.006   1.000
22083TIP3    H266127   2.715  -0.005   0.964
22084TIP3   OH266128   2.867   0.317   1.392
22084TIP3    H166129   2.913   0.234   1.405
22084TIP3    H266130   2.910   0.358   1.317
22085TIP3   OH266131   3.008   0.496   1.883
22085TIP3    H166132   3.096   0.509   1.847
22085TIP3    H266133   3.016   0.522   1.975
22086TIP3   OH266134   3.081   0.598   2.126
22086TIP3    H166135   3.056   0.626   2.214
22086TIP3    H266136   3.119   0.676   2.085
22087TIP3   OH266137   2.981   0.068   1.441
22087TIP3    H166138   3.024   0.053   1.525
22087TIP3    H266139   2.916  -0.002   1.434
22088TIP3   OH266140   9.561   9.221   1.088
22088TIP3    H166141   9.607   9.162   1.029
22088TIP3    H266142   9.613   9.302   1.088
22089TIP3   OH266143   8.003   9.086   1.845
22089TIP3    H166144   8.000   9.143   1.922
22089TIP3    H266145   7.992   9.145   1.771
22090TIP3   OH266146   2.569   1.494   1.330
22090TIP3    H166147   2.626   1.489   1.253
22090TIP3    H266148   2.611   1.560   1.386
22091TIP3   OH266149   1.871   1.604   2.154
22091TIP3    H166150   1.795   1.592   2.211
22091TIP3    H266151   1.835   1.636   2.072
22092TIP3   OH266152   2.182   1.669   1.983
22092TIP3    H166153   2.123   1.650   1.910
22092TIP3    H266154   2.160   1.758   2.010
22093TIP3   OH266155   2.426   1.525   1.992
22093TIP3    H166156   2.334   1.549   2.005
22093TIP3    H266157   2.462   1.594   1.937
22094TIP3   OH266158   2.750   1.689   1.931
22094TIP3    H166159   2.674   1.747   1.928
22094TIP3    H266160   2.743   1.636   1.852
22095TIP3   OH266161   1.477   1.415   2.038
22095TIP3    H166162   1.484   1.397   2.132
22095TIP3    H266163   1.554   1.374   2.000
22096TIP3   OH266164   1.689   1.290   1.928
22096TIP3    H166165   1.701   1.202   1.964
22096TIP3    H266166   1.778   1.322   1.915
22097TIP3   OH266167   1.961   1.362   1.908
22097TIP3    H166168   1.973   1.269   1.890
22097TIP3    H266169   2.018   1.379   1.983
22098TIP3   OH266170   9.060   9.271   2.009
22098TIP3    H166171   9.038   9.196   2.065
22098TIP3    H266172   9.122   9.237   1.945
22099TIP3   OH266173   9.557   9.164   1.883
22099TIP3    H166174   9.599   9.201   1.806
22099TIP3    H266175   9.559   9.234   1.948
22100TIP3   OH266176   3.141   0.018   1.660
22100TIP3    H166177   3.212  -0.040   1.632
22100TIP3    H266178   3.175   0.106   1.645
22101TIP3   OH266179   8.109   8.888   1.652
22101TIP3    H166180   8.152   8.926   1.576
22101TIP3    H266181   8.098   8.961   1.713
22102TIP3   OH266182   8.755   9.022   1.891
22102TIP3    H166183   8.820   9.047   1.826
22102TIP3    H266184   8.726   9.104   1.930
22103TIP3   OH266185   9.255   9.154   1.866
22103TIP3    H166186   9.342   9.162   1.829
22103TIP3    H266187   9.259   9.075   1.921
22104TIP3   OH266188   9.327   9.101   1.449
22104TIP3    H166189   9.249   9.150   1.477
22104TIP3    H266190   9.314   9.013   1.487
22105TIP3   OH266191   1.272   1.199   1.405
22105TIP3    H166192   1.187   1.162   1.379
22105TIP3    H266193   1.267   1.291   1.380
22106TIP3   OH266194   8.238   8.998   1.430
22106TIP3    H166195   8.284   8.937   1.372
22106TIP3    H266196   8.307   9.057   1.462
22107TIP3   OH266197   8.713   9.199   1.528
22107TIP3    H166198   8.778   9.152   1.580
22107TIP3    H266199   8.727   9.291   1.549
22108TIP3   OH266200   2.058   1.350   1.020
22108TIP3    H166201   2.141   1.376   0.981
22108TIP3    H266202   2.027   1.277   0.965
22109TIP3   OH266203   2.696   1.453   1.090
22109TIP3    H166204   2.692   1.358   1.080
22109TIP3    H266205   2.661   1.487   1.008
22110TIP3   OH266206   1.372   1.192   1.097
22110TIP3    H166207   1.374   1.184   1.192
22110TIP3    H266208   1.451   1.147   1.067
22111TIP3   OH266209   4.197   0.940   1.050
22111TIP3    H166210   4.159   1.024   1.072
22111TIP3    H266211   4.135   0.900   0.989
22112TIP3   OH266212   4.256   1.071   1.416
22112TIP3    H166213   4.279   1.053   1.508
22112TIP3    H266214   4.221   0.988   1.384
22113TIP3   OH266215   3.453   0.848   1.804
22113TIP3    H166216   3.471   0.818   1.893
22113TIP3    H266217   3.489   0.936   1.800
22114TIP3   OH266218   4.510   1.359   1.125
22114TIP3    H166219   4.480   1.295   1.189
22114TIP3    H266220   4.560   1.423   1.177
22115TIP3   OH266221   3.483   1.275   1.556
22115TIP3    H166222   3.510   1.184   1.540
22115TIP3    H266223   3.560   1.327   1.534
22116TIP3   OH266224   3.215   0.519   1.291
22116TIP3    H166225   3.163   0.597   1.312
22116TIP3    H266226   3.154   0.462   1.244
22117TIP3   OH266227   3.297   0.789   1.471
22117TIP3    H166228   3.341   0.715   1.512
22117TIP3    H266229   3.317   0.781   1.378
22118TIP3   OH266230   4.194   1.814   1.122
22118TIP3    H166231   4.264   1.748   1.120
22118TIP3    H266232   4.205   1.858   1.207
22119TIP3   OH266233   4.065   1.228   1.538
22119TIP3    H166234   4.145   1.199   1.495
22119TIP3    H266235   4.093   1.294   1.600
22120TIP3   OH266236   4.443   0.725   1.412
22120TIP3    H166237   4.484   0.643   1.440
22120TIP3    H266238   4.371   0.738   1.474
22121TIP3   OH266239   3.795   0.356   1.472
22121TIP3    H166240   3.779   0.434   1.418
22121TIP3    H266241   3.740   0.288   1.432
22122TIP3   OH266242   4.478   0.366   1.008
22122TIP3    H166243   4.483   0.350   1.102
22122TIP3    H266244   4.491   0.460   0.999
22123TIP3   OH266245   3.431   0.587   1.605
22123TIP3    H166246   3.518   0.578   1.644
22123TIP3    H266247   3.431   0.526   1.531
22124TIP3   OH266248   3.855   0.764   1.353
22124TIP3    H166249   3.942   0.731   1.375
22124TIP3    H266250   3.804   0.686   1.330
22125TIP3   OH266251   3.721   0.355   1.962
22125TIP3    H166252   3.693   0.373   1.873
22125TIP3    H266253   3.672   0.277   1.988
22126TIP3   OH266254   4.123   1.201   1.062
22126TIP3    H166255   4.042   1.197   1.012
22126TIP3    H266256   4.165   1.282   1.033
22127TIP3   OH266257   3.904   1.161   1.764
22127TIP3    H166258   3.853   1.237   1.791
22127TIP3    H266259   3.972   1.197   1.706
22128TIP3   OH266260   4.717   0.564   1.303
22128TIP3    H166261   4.686   0.551   1.393
22128TIP3    H266262   4.779   0.493   1.289
22129TIP3   OH266263   3.676   0.459   1.701
22129TIP3    H166264   3.744   0.521   1.728
22129TIP3    H266265   3.713   0.414   1.624
22130TIP3   OH266266   3.097   0.977   1.017
22130TIP3    H166267   3.061   1.016   0.937
22130TIP3    H266268   3.061   1.031   1.087
22131TIP3   OH266269   4.928   0.564   1.686
22131TIP3    H166270   4.908   0.538   1.776
22131TIP3    H266271   4.886   0.497   1.632
22132TIP3   OH266272   4.131   0.052   1.640
22132TIP3    H166273   4.125  -0.042   1.660
22132TIP3    H266274   4.054   0.091   1.681
22133TIP3   OH266275   4.393   1.634   1.093
22133TIP3    H166276   4.344   1.555   1.070
22133TIP3    H266277   4.409   1.678   1.009
22134TIP3   OH266278   4.277   1.411   0.980
22134TIP3    H166279   4.287   1.409   0.885
22134TIP3    H266280   4.360   1.376   1.013
22135TIP3   OH266281   4.048   0.829   0.853
22135TIP3    H166282   3.964   0.873   0.850
22135TIP3    H266283   4.081   0.832   0.763
22136TIP3   OH266284   4.026   0.629   0.578
22136TIP3    H166285   4.096   0.683   0.615
22136TIP3    H266286   4.072   0.561   0.529
22137TIP3   OH266287   4.381   0.896   0.842
22137TIP3    H166288   4.328   0.908   0.920
22137TIP3    H266289   4.466   0.865   0.874
22138TIP3   OH266290   3.634   0.911   1.276
22138TIP3    H166291   3.598   0.852   1.210
22138TIP3    H266292   3.720   0.873   1.298
22139TIP3   OH266293   3.675   1.329   1.356
22139TIP3    H166294   3.653   1.297   1.269
22139TIP3    H266295   3.716   1.254   1.399
22140TIP3   OH266296   3.799   0.842   1.610
22140TIP3    H166297   3.787   0.814   1.519
22140TIP3    H266298   3.882   0.889   1.610
22141TIP3   OH266299   4.244   0.772   0.649
22141TIP3    H166300   4.293   0.828   0.710
22141TIP3    H266301   4.283   0.790   0.564
22142TIP3   OH266302   4.036   1.525   0.886
22142TIP3    H166303   4.087   1.510   0.966
22142TIP3    H266304   3.948   1.546   0.917
22143TIP3   OH266305   4.789   0.036   0.754
22143TIP3    H166306   4.708   0.051   0.803
22143TIP3    H266307   4.798   0.113   0.698
22144TIP3   OH266308   3.524   0.750   1.080
22144TIP3    H166309   3.460   0.805   1.035
22144TIP3    H266310   3.488   0.661   1.075
22145TIP3   OH266311   4.598   1.358   0.188
22145TIP3    H166312   4.551   1.441   0.194
22145TIP3    H266313   4.690   1.383   0.182
22146TIP3   OH266314   3.033   1.346   1.628
22146TIP3    H166315   3.057   1.267   1.579
22146TIP3    H266316   3.069   1.331   1.716
22147TIP3   OH266317   3.834   1.662   0.711
22147TIP3    H166318   3.819   1.613   0.630
22147TIP3    H266319   3.819   1.753   0.687
22148TIP3   OH266320   3.281   1.564   1.158
22148TIP3    H166321   3.333   1.543   1.235
22148TIP3    H266322   3.252   1.479   1.125
22149TIP3   OH266323   4.061   1.585   0.381
22149TIP3    H166324   4.118   1.520   0.340
22149TIP3    H266325   4.091   1.590   0.471
22150TIP3   OH266326   4.151   1.648   0.626
22150TIP3    H166327   4.135   1.697   0.707
22150TIP3    H266328   4.199   1.570   0.655
22151TIP3   OH266329   3.916   0.140   1.775
22151TIP3    H166330   3.822   0.144   1.757
22151TIP3    H266331   3.934   0.223   1.820
22152TIP3   OH266332   4.361   0.808   0.412
22152TIP3    H166333   4.313   0.805   0.329
22152TIP3    H266334   4.451   0.833   0.387
22153TIP3   OH266335   4.063   0.201   0.768
22153TIP3    H166336   4.015   0.208   0.850
22153TIP3    H266337   4.025   0.126   0.723
22154TIP3   OH266338   3.872   0.633   1.774
22154TIP3    H166339   3.860   0.677   1.858
22154TIP3    H266340   3.851   0.700   1.709
22155TIP3   OH266341   3.696   0.552   1.308
22155TIP3    H166342   3.608   0.526   1.335
22155TIP3    H266343   3.704   0.520   1.218
22156TIP3   OH266344   4.164   0.619   0.986
22156TIP3    H166345   4.116   0.690   0.942
22156TIP3    H266346   4.237   0.599   0.927
22157TIP3   OH266347   4.271   0.555   1.225
22157TIP3    H166348   4.218   0.580   1.149
22157TIP3    H266349   4.359   0.586   1.204
22158TIP3   OH266350   3.723   0.195   0.733
22158TIP3    H166351   3.708   0.193   0.828
22158TIP3    H266352   3.644   0.234   0.697
22159TIP3   OH266353   3.256   0.249   1.584
22159TIP3    H166354   3.328   0.280   1.638
22159TIP3    H266355   3.297   0.227   1.500
22160TIP3   OH266356   3.174   0.220   1.095
22160TIP3    H166357   3.217   0.254   1.017
22160TIP3    H266358   3.107   0.286   1.115
22161TIP3   OH266359   4.317   1.054   1.687
22161TIP3    H166360   4.404   1.076   1.655
22161TIP3    H266361   4.331   1.028   1.778
22162TIP3   OH266362   4.061   0.349   1.364
22162TIP3    H166363   3.980   0.323   1.407
22162TIP3    H266364   4.079   0.437   1.397
22163TIP3   OH266365   3.461   0.433   1.382
22163TIP3    H166366   3.376   0.446   1.340
22163TIP3    H266367   3.488   0.346   1.352
22164TIP3   OH266368   3.722   0.443   1.062
22164TIP3    H166369   3.817   0.449   1.052
22164TIP3    H266370   3.687   0.465   0.975
22165TIP3   OH266371   4.529   0.484   1.514
22165TIP3    H166372   4.563   0.509   1.600
22165TIP3    H266373   4.458   0.423   1.534
22166TIP3   OH266374   3.608   0.481   0.819
22166TIP3    H166375   3.546   0.427   0.768
22166TIP3    H266376   3.662   0.523   0.752
22167TIP3   OH266377   4.078   0.612   1.440
22167TIP3    H166378   4.139   0.651   1.377
22167TIP3    H266379   4.121   0.624   1.525
22168TIP3   OH266380   3.612   0.194   1.337
22168TIP3    H166381   3.590   0.120   1.394
22168TIP3    H266382   3.629   0.155   1.252
22169TIP3   OH266383   4.130   0.544   1.749
22169TIP3    H166384   4.037   0.568   1.742
22169TIP3    H266385   4.166   0.605   1.813
22170TIP3   OH266386   3.817   0.969   0.843
22170TIP3    H166387   3.736   0.921   0.824
22170TIP3    H266388   3.795   1.023   0.919
22171TIP3   OH266389   4.297   0.324   0.702
22171TIP3    H166390   4.205   0.304   0.722
22171TIP3    H266391   4.314   0.407   0.746
22172TIP3   OH266392   4.367   0.572   0.805
22172TIP3    H166393   4.462   0.570   0.800
22172TIP3    H266394   4.341   0.637   0.739
22173TIP3   OH266395   3.522   1.001   1.512
22173TIP3    H166396   3.549   0.974   1.424
22173TIP3    H266397   3.484   0.922   1.550
22174TIP3   OH266398   3.971   1.087   0.645
22174TIP3    H166399   3.969   1.180   0.666
22174TIP3    H266400   3.917   1.046   0.713
22175TIP3   OH266401   4.777   0.655   0.588
22175TIP3    H166402   4.708   0.613   0.536
22175TIP3    H266403   4.807   0.728   0.534
22176TIP3   OH266404   4.549   1.401   0.577
22176TIP3    H166405   4.539   1.354   0.660
22176TIP3    H266406   4.577   1.334   0.515
22177TIP3   OH266407   4.529   1.125   1.512
22177TIP3    H166408   4.470   1.201   1.514
22177TIP3    H266409   4.594   1.147   1.445
22178TIP3   OH266410   3.541   1.313   1.103
22178TIP3    H166411   3.534   1.396   1.056
22178TIP3    H266412   3.451   1.282   1.111
22179TIP3   OH266413   3.229   0.637   0.882
22179TIP3    H166414   3.272   0.722   0.893
22179TIP3    H266415   3.148   0.645   0.933
22180TIP3   OH266416   3.710   1.085   1.070
22180TIP3    H166417   3.636   1.145   1.058
22180TIP3    H266418   3.685   1.032   1.146
22181TIP3   OH266419   3.498   1.568   0.999
22181TIP3    H166420   3.412   1.581   1.039
22181TIP3    H266421   3.548   1.646   1.024
22182TIP3   OH266422   4.355   1.334   1.555
22182TIP3    H166423   4.338   1.347   1.648
22182TIP3    H266424   4.307   1.405   1.511
22183TIP3   OH266425   4.264   1.191   0.425
22183TIP3    H166426   4.300   1.161   0.509
22183TIP3    H266427   4.181   1.146   0.417
22184TIP3   OH266428   4.560   1.852   0.301
22184TIP3    H166429   4.637   1.900   0.271
22184TIP3    H266430   4.576   1.761   0.273
22185TIP3   OH266431   4.393   1.119   0.657
22185TIP3    H166432   4.366   1.066   0.732
22185TIP3    H266433   4.474   1.077   0.627
22186TIP3   OH266434   3.270   1.491   1.754
22186TIP3    H166435   3.357   1.452   1.766
22186TIP3    H266436   3.276   1.577   1.795
22187TIP3   OH266437   3.616   1.174   0.456
22187TIP3    H166438   3.633   1.080   0.451
22187TIP3    H266439   3.664   1.203   0.534
22188TIP3   OH266440   3.550   1.216   0.798
22188TIP3    H166441   3.640   1.199   0.771
22188TIP3    H266442   3.537   1.309   0.781
22189TIP3   OH266443   3.337   0.886   0.940
22189TIP3    H166444   3.256   0.917   0.980
22189TIP3    H266445   3.353   0.947   0.868
22190TIP3   OH266446   4.390   0.607   1.955
22190TIP3    H166447   4.377   0.698   1.982
22190TIP3    H266448   4.347   0.556   2.024
22191TIP3   OH266449   4.279   0.190   0.971
22191TIP3    H166450   4.240   0.189   0.884
22191TIP3    H266451   4.341   0.263   0.968
22192TIP3   OH266452   3.756   1.318   0.638
22192TIP3    H166453   3.702   1.391   0.667
22192TIP3    H266454   3.843   1.357   0.625
22193TIP3   OH266455   3.998   0.436   1.101
22193TIP3    H166456   4.055   0.501   1.060
22193TIP3    H266457   4.029   0.431   1.192
22194TIP3   OH266458   4.174   0.141   1.215
22194TIP3    H166459   4.146   0.224   1.253
22194TIP3    H266460   4.218   0.165   1.134
22195TIP3   OH266461   3.566   1.490   0.743
22195TIP3    H166462   3.547   1.559   0.680
22195TIP3    H266463   3.540   1.526   0.828
22196TIP3   OH266464   3.677   0.174   1.013
22196TIP3    H166465   3.669   0.266   1.038
22196TIP3    H266466   3.770   0.155   1.018
22197TIP3   OH266467   4.619   0.874   1.259
22197TIP3    H166468   4.610   0.858   1.166
22197TIP3    H266469   4.557   0.814   1.301
22198TIP3   OH266470   3.325   1.075   0.734
22198TIP3    H166471   3.396   1.135   0.758
22198TIP3    H266472   3.362   1.021   0.664
22199TIP3   OH266473   3.245   0.361   0.872
22199TIP3    H166474   3.256   0.455   0.883
22199TIP3    H266475   3.193   0.352   0.792
22200TIP3   OH266476   3.639   0.101   1.746
22200TIP3    H166477   3.618   0.068   1.659
22200TIP3    H266478   3.632   0.024   1.803
22201TIP3   OH266479   3.205   1.313   1.101
22201TIP3    H166480   3.142   1.251   1.138
22201TIP3    H266481   3.168   1.337   1.016
22202TIP3   OH266482   3.769   1.353   0.319
22202TIP3    H166483   3.723   1.283   0.363
22202TIP3    H266484   3.849   1.312   0.285
22203TIP3   OH266485   4.231   1.412   0.268
22203TIP3    H166486   4.266   1.343   0.325
22203TIP3    H266487   4.292   1.416   0.194
22204TIP3   OH266488   3.453   0.883   0.586
22204TIP3    H166489   3.499   0.852   0.663
22204TIP3    H266490   3.521   0.892   0.519
22205TIP3   OH266491   4.021   1.070   0.382
22205TIP3    H166492   3.992   1.075   0.473
22205TIP3    H266493   4.009   0.979   0.357
22206TIP3   OH266494   3.610   0.798   0.796
22206TIP3    H166495   3.591   0.759   0.882
22206TIP3    H266496   3.662   0.732   0.751
22207TIP3   OH266497   3.760   0.624   0.643
22207TIP3    H166498   3.730   0.631   0.552
22207TIP3    H266499   3.855   0.623   0.637
22208TIP3   OH266500   4.595   0.894   0.281
22208TIP3    H166501   4.571   0.848   0.200
22208TIP3    H266502   4.555   0.980   0.273
22209TIP3   OH266503   3.999   0.350   1.938
22209TIP3    H166504   4.023   0.439   1.914
22209TIP3    H266505   3.912   0.357   1.976
22210TIP3   OH266506   3.561   1.681   0.540
22210TIP3    H166507   3.646   1.652   0.508
22210TIP3    H266508   3.517   1.717   0.463
22211TIP3   OH266509   3.052   1.062   0.744
22211TIP3    H166510   3.147   1.076   0.746
22211TIP3    H266511   3.041   0.975   0.706
22212TIP3   OH266512   2.899   1.616   1.161
22212TIP3    H166513   2.834   1.559   1.121
22212TIP3    H266514   2.949   1.559   1.219
22213TIP3   OH266515   3.043   1.440   1.315
22213TIP3    H166516   2.988   1.363   1.322
22213TIP3    H266517   3.113   1.415   1.256
22214TIP3   OH266518   4.655   1.024   0.630
22214TIP3    H166519   4.674   1.102   0.578
22214TIP3    H266520   4.672   1.051   0.720
22215TIP3   OH266521   4.820   0.960   1.056
22215TIP3    H166522   4.768   1.022   1.005
22215TIP3    H266523   4.911   0.987   1.041
22216TIP3   OH266524   4.811   0.890   0.450
22216TIP3    H166525   4.744   0.882   0.382
22216TIP3    H266526   4.767   0.934   0.522
22217TIP3   OH266527   4.589   0.549   0.424
22217TIP3    H166528   4.546   0.566   0.340
22217TIP3    H266529   4.598   0.454   0.428
22218TIP3   OH266530   4.612   0.800   0.954
22218TIP3    H166531   4.634   0.724   0.900
22218TIP3    H266532   4.687   0.859   0.944
22219TIP3   OH266533   3.203   0.874   1.711
22219TIP3    H166534   3.212   0.843   1.621
22219TIP3    H266535   3.292   0.871   1.746
22220TIP3   OH266536   4.597   0.278   0.415
22220TIP3    H166537   4.660   0.250   0.481
22220TIP3    H266538   4.516   0.233   0.438
22221TIP3   OH266539   4.648   0.567   0.818
22221TIP3    H166540   4.683   0.483   0.848
22221TIP3    H266541   4.699   0.588   0.740
22222TIP3   OH266542   4.749   0.320   0.888
22222TIP3    H166543   4.808   0.279   0.950
22222TIP3    H266544   4.670   0.266   0.890
22223TIP3   OH266545   3.457   0.303   1.769
22223TIP3    H166546   3.511   0.223   1.767
22223TIP3    H266547   3.516   0.372   1.741
22224TIP3   OH266548   3.276   0.578   1.846
22224TIP3    H166549   3.320   0.583   1.761
22224TIP3    H266550   3.255   0.668   1.869
22225TIP3   OH266551   4.828   0.238   0.571
22225TIP3    H166552   4.867   0.177   0.508
22225TIP3    H266553   4.887   0.313   0.570
22226TIP3   OH266554   3.250   0.096   1.326
22226TIP3    H166555   3.165   0.076   1.364
22226TIP3    H266556   3.231   0.145   1.246
22227TIP3   OH266557   4.446   1.839   0.910
22227TIP3    H166558   4.473   1.779   0.840
22227TIP3    H266559   4.528   1.870   0.948
22228TIP3   OH266560   3.437   0.130   2.120
22228TIP3    H166561   3.437   0.158   2.212
22228TIP3    H266562   3.380   0.192   2.076
22229TIP3   OH266563   3.715   1.781   1.663
22229TIP3    H166564   3.622   1.758   1.661
22229TIP3    H266565   3.720   1.863   1.614
22230TIP3   OH266566   3.447   1.736   1.622
22230TIP3    H166567   3.389   1.736   1.698
22230TIP3    H266568   3.389   1.744   1.547
22231TIP3   OH266569   3.430   1.469   1.360
22231TIP3    H166570   3.403   1.417   1.436
22231TIP3    H266571   3.520   1.443   1.344
22232TIP3   OH266572   3.830   1.624   1.312
22232TIP3    H166573   3.863   1.535   1.320
22232TIP3    H266574   3.735   1.615   1.309
22233TIP3   OH266575   4.317   0.251   1.539
22233TIP3    H166576   4.250   0.196   1.579
22233TIP3    H266577   4.294   0.253   1.446
22234TIP3   OH266578   4.835   0.090   1.371
22234TIP3    H166579   4.865   0.171   1.330
22234TIP3    H266580   4.739   0.094   1.364
22235TIP3   OH266581   4.936   0.211   1.050
22235TIP3    H166582   4.983   0.130   1.031
22235TIP3    H266583   5.003   0.280   1.041
22236TIP3   OH266584   0.292   9.223   1.508
22236TIP3    H166585   0.203   9.189   1.516
22236TIP3    H266586   0.347   9.145   1.497
22237TIP3   OH266587   0.121   9.137   1.169
22237TIP3    H166588   0.137   9.180   1.085
22237TIP3    H266589   0.079   9.204   1.223
22238TIP3   OH266590   4.010   0.014   1.393
22238TIP3    H166591   4.066   0.054   1.326
22238TIP3    H266592   4.054   0.034   1.475
22239TIP3   OH266593   4.569   0.122   1.343
22239TIP3    H166594   4.514   0.187   1.300
22239TIP3    H266595   4.511   0.047   1.358
22240TIP3   OH266596   4.571   0.099   0.908
22240TIP3    H166597   4.489   0.147   0.923
22240TIP3    H266598   4.559   0.016   0.952
22241TIP3   OH266599   3.084   1.430   0.881
22241TIP3    H166600   2.996   1.392   0.871
22241TIP3    H266601   3.072   1.522   0.860
22242TIP3   OH266602   3.473   0.012   0.917
22242TIP3    H166603   3.520  -0.049   0.860
22242TIP3    H266604   3.541   0.068   0.954
22243TIP3   OH266605   3.949   0.183   1.017
22243TIP3    H166606   4.004   0.123   1.067
22243TIP3    H266607   3.970   0.270   1.052
22244TIP3   OH266608   3.800   1.582   0.454
22244TIP3    H166609   3.890   1.593   0.424
22244TIP3    H266610   3.770   1.502   0.410
22245TIP3   OH266611   4.473   1.637   0.722
22245TIP3    H166612   4.538   1.581   0.680
22245TIP3    H266613   4.436   1.689   0.650
22246TIP3   OH266614   3.154   1.434   0.582
22246TIP3    H166615   3.156   1.430   0.677
22246TIP3    H266616   3.235   1.391   0.555
22247TIP3   OH266617   4.865   0.849   0.777
22247TIP3    H166618   4.948   0.804   0.796
22247TIP3    H266619   4.816   0.786   0.724
22248TIP3   OH266620   5.082   1.035   1.011
22248TIP3    H166621   5.120   0.947   1.009
22248TIP3    H266622   5.074   1.059   0.918
22249TIP3   OH266623   5.584   0.574   0.960
22249TIP3    H166624   5.579   0.640   0.890
22249TIP3    H266625   5.621   0.497   0.917
22250TIP3   OH266626   5.182   0.789   1.042
22250TIP3    H166627   5.254   0.808   1.103
22250TIP3    H266628   5.215   0.715   0.990
22251TIP3   OH266629   4.936   1.219   0.544
22251TIP3    H166630   4.903   1.215   0.454
22251TIP3    H266631   4.891   1.295   0.582
22252TIP3   OH266632   5.841   0.905   0.082
22252TIP3    H166633   5.882   0.946   0.158
22252TIP3    H266634   5.910   0.852   0.043
22253TIP3   OH266635   6.526   0.289   0.184
22253TIP3    H166636   6.471   0.298   0.262
22253TIP3    H266637   6.540   0.379   0.154
22254TIP3   OH266638   5.402   0.940   0.530
22254TIP3    H166639   5.449   1.016   0.565
22254TIP3    H266640   5.315   0.945   0.570
22255TIP3   OH266641   9.348   5.694   7.902
22255TIP3    H166642   9.343   5.671   7.809
22255TIP3    H266643   9.430   5.654   7.932
22256TIP3   OH266644   5.866   0.458   0.234
22256TIP3    H166645   5.844   0.470   0.326
22256TIP3    H266646   5.820   0.378   0.209
22257TIP3   OH266647   5.531   0.748   0.757
22257TIP3    H166648   5.461   0.813   0.763
22257TIP3    H266649   5.530   0.719   0.666
22258TIP3   OH266650   5.515   0.446   0.223
22258TIP3    H166651   5.506   0.432   0.317
22258TIP3    H266652   5.434   0.490   0.197
22259TIP3   OH266653   5.111   0.417   1.049
22259TIP3    H166654   5.162   0.474   1.107
22259TIP3    H266655   5.177   0.377   0.991
22260TIP3   OH266656   4.990   0.474   0.580
22260TIP3    H166657   5.023   0.510   0.498
22260TIP3    H266658   4.917   0.531   0.604
22261TIP3   OH266659   5.314   0.584   0.916
22261TIP3    H166660   5.297   0.584   0.822
22261TIP3    H266661   5.409   0.568   0.924
22262TIP3   OH266662   5.554   0.675   0.490
22262TIP3    H166663   5.620   0.745   0.491
22262TIP3    H266664   5.489   0.704   0.426
22263TIP3   OH266665   5.394   0.732   0.277
22263TIP3    H166666   5.334   0.678   0.225
22263TIP3    H266667   5.456   0.767   0.214
22264TIP3   OH266668   5.565   1.258   0.360
22264TIP3    H166669   5.525   1.180   0.322
22264TIP3    H266670   5.574   1.237   0.453
22265TIP3   OH266671   6.078   0.624   0.223
22265TIP3    H166672   5.998   0.571   0.223
22265TIP3    H266673   6.070   0.679   0.145
22266TIP3   OH266674   5.046   0.895   0.311
22266TIP3    H166675   5.092   0.978   0.324
22266TIP3    H266676   4.965   0.903   0.360
22267TIP3   OH266677   8.701   6.044   7.932
22267TIP3    H166678   8.722   5.954   7.908
22267TIP3    H266679   8.710   6.046   8.028
22268TIP3   OH266680   5.430   1.427   0.200
22268TIP3    H166681   5.485   1.369   0.252
22268TIP3    H266682   5.397   1.492   0.262
22269TIP3   OH266683   5.155   1.138   0.385
22269TIP3    H166684   5.102   1.201   0.434
22269TIP3    H266685   5.197   1.190   0.317
22270TIP3   OH266686   6.171   0.527   0.462
22270TIP3    H166687   6.140   0.560   0.378
22270TIP3    H266688   6.194   0.605   0.512
22271TIP3   OH266689   5.798   0.796   0.557
22271TIP3    H166690   5.832   0.711   0.529
22271TIP3    H266691   5.794   0.790   0.652
22272TIP3   OH266692   5.989   0.406   0.716
22272TIP3    H166693   5.897   0.397   0.739
22272TIP3    H266694   5.988   0.451   0.631
22273TIP3   OH266695   5.483   0.407   0.499
22273TIP3    H166696   5.495   0.501   0.512
22273TIP3    H266697   5.535   0.367   0.569
22274TIP3   OH266698   5.136   1.303   0.158
22274TIP3    H166699   5.159   1.377   0.103
22274TIP3    H266700   5.181   1.228   0.117
22275TIP3   OH266701   5.042   0.621   0.359
22275TIP3    H166702   5.066   0.713   0.344
22275TIP3    H266703   5.002   0.593   0.277
22276TIP3   OH266704   5.456   0.289   1.230
22276TIP3    H166705   5.434   0.262   1.141
22276TIP3    H266706   5.479   0.208   1.274
22277TIP3   OH266707   4.967   1.656   0.673
22277TIP3    H166708   4.903   1.703   0.726
22277TIP3    H266709   4.955   1.691   0.585
22278TIP3   OH266710   8.903   6.251   7.823
22278TIP3    H166711   8.923   6.163   7.855
22278TIP3    H266712   8.954   6.310   7.879
22279TIP3   OH266713   5.266   1.090   0.056
22279TIP3    H166714   5.313   1.059   0.134
22279TIP3    H266715   5.335   1.111  -0.007
22280TIP3   OH266716   9.017   6.002   7.904
22280TIP3    H166717   9.005   6.008   7.999
22280TIP3    H266718   9.028   5.908   7.887
22281TIP3   OH266719   5.435   1.033   0.271
22281TIP3    H166720   5.409   0.985   0.350
22281TIP3    H266721   5.488   0.970   0.221
22282TIP3   OH266722   5.571   0.859   0.111
22282TIP3    H166723   5.543   0.868   0.020
22282TIP3    H266724   5.667   0.864   0.107
22283TIP3   OH266725   4.885   1.215   0.260
22283TIP3    H166726   4.963   1.256   0.222
22283TIP3    H266727   4.861   1.146   0.197
22284TIP3   OH266728   9.560   5.472   7.914
22284TIP3    H166729   9.605   5.503   7.835
22284TIP3    H266730   9.589   5.381   7.924
22285TIP3   OH266731   9.621   5.204   7.919
22285TIP3    H166732   9.699   5.180   7.969
22285TIP3    H266733   9.554   5.142   7.947
22286TIP3   OH266734   5.304   0.537   1.202
22286TIP3    H166735   5.356   0.467   1.242
22286TIP3    H266736   5.342   0.549   1.115
22287TIP3   OH266737   6.590   0.528   0.057
22287TIP3    H166738   6.641   0.470   0.001
22287TIP3    H266739   6.655   0.588   0.095
22288TIP3   OH266740   5.053   0.298   0.777
22288TIP3    H166741   4.964   0.285   0.808
22288TIP3    H266742   5.047   0.370   0.713
22289TIP3   OH266743   5.333   0.260   0.983
22289TIP3    H166744   5.286   0.177   0.981
22289TIP3    H266745   5.401   0.251   0.916
22290TIP3   OH266746   5.167   0.107   0.613
22290TIP3    H166747   5.199   0.157   0.538
22290TIP3    H266748   5.135   0.173   0.674
22291TIP3   OH266749   6.364   0.338   0.399
22291TIP3    H166750   6.296   0.399   0.426
22291TIP3    H266751   6.345   0.258   0.449
22292TIP3   OH266752   4.926   1.777   0.434
22292TIP3    H166753   4.839   1.738   0.423
22292TIP3    H266754   4.952   1.802   0.346
22293TIP3   OH266755   5.275   0.256   0.397
22293TIP3    H166756   5.322   0.197   0.338
22293TIP3    H266757   5.344   0.308   0.439
22294TIP3   OH266758   5.788   0.516   0.496
22294TIP3    H166759   5.769   0.454   0.567
22294TIP3    H266760   5.703   0.557   0.477
22295TIP3   OH266761   8.118   6.386   7.940
22295TIP3    H166762   8.110   6.472   7.982
22295TIP3    H266763   8.212   6.375   7.926
22296TIP3   OH266764   8.703   2.435   1.506
22296TIP3    H166765   8.700   2.530   1.517
22296TIP3    H266766   8.786   2.419   1.461
22297TIP3   OH266767   8.436   1.905   1.687
22297TIP3    H166768   8.441   1.913   1.591
22297TIP3    H266769   8.517   1.943   1.719
22298TIP3   OH266770   8.633   2.611   1.782
22298TIP3    H166771   8.576   2.534   1.773
22298TIP3    H266772   8.719   2.575   1.800
22299TIP3   OH266773   8.389   2.218   1.567
22299TIP3    H166774   8.365   2.168   1.645
22299TIP3    H266775   8.307   2.226   1.518
22300TIP3   OH266776   8.689   2.710   1.536
22300TIP3    H166777   8.672   2.801   1.510
22300TIP3    H266778   8.657   2.704   1.626
22301TIP3   OH266779   8.266   2.614   1.559
22301TIP3    H166780   8.294   2.604   1.650
22301TIP3    H266781   8.331   2.566   1.509
22302TIP3   OH266782   8.014   2.066   1.810
22302TIP3    H166783   7.971   2.151   1.804
22302TIP3    H266784   8.104   2.083   1.781
22303TIP3   OH266785   8.739   1.911   1.482
22303TIP3    H166786   8.742   1.838   1.420
22303TIP3    H266787   8.699   1.982   1.433
22304TIP3   OH266788   8.887   1.929   1.709
22304TIP3    H166789   8.830   1.914   1.634
22304TIP3    H266790   8.864   2.016   1.741
22305TIP3   OH266791   8.691   1.621   1.651
22305TIP3    H166792   8.700   1.659   1.564
22305TIP3    H266793   8.779   1.588   1.671
22306TIP3   OH266794   0.296   2.333   1.720
22306TIP3    H166795   0.264   2.418   1.690
22306TIP3    H266796   0.228   2.271   1.696
22307TIP3   OH266797   0.559   2.623   1.809
22307TIP3    H166798   0.571   2.549   1.870
22307TIP3    H266799   0.584   2.700   1.860
22308TIP3   OH266800   0.170   3.073   1.780
22308TIP3    H166801   0.222   3.007   1.735
22308TIP3    H266802   0.146   3.033   1.864
22309TIP3   OH266803   1.100   1.899   2.133
22309TIP3    H166804   1.120   1.991   2.116
22309TIP3    H266805   1.145   1.851   2.064
22310TIP3   OH266806   0.570   1.777   1.763
22310TIP3    H166807   0.633   1.774   1.835
22310TIP3    H266808   0.618   1.818   1.691
22311TIP3   OH266809   0.191   2.545   1.575
22311TIP3    H166810   0.151   2.512   1.495
22311TIP3    H266811   0.138   2.620   1.601
22312TIP3   OH266812   0.743   1.791   1.970
22312TIP3    H166813   0.743   1.758   2.059
22312TIP3    H266814   0.791   1.874   1.975
22313TIP3   OH266815   9.004   2.273   1.751
22313TIP3    H166816   9.050   2.225   1.682
22313TIP3    H266817   9.073   2.326   1.793
22314TIP3   OH266818   0.591   2.846   1.975
22314TIP3    H166819   0.505   2.845   2.017
22314TIP3    H266820   0.593   2.928   1.925
22315TIP3   OH266821   0.311   2.900   1.616
22315TIP3    H166822   0.363   2.820   1.605
22315TIP3    H266823   0.369   2.971   1.588
22316TIP3   OH266824   0.445   2.669   1.563
22316TIP3    H166825   0.370   2.608   1.564
22316TIP3    H266826   0.495   2.646   1.642
22317TIP3   OH266827   0.130   2.164   1.571
22317TIP3    H166828   0.045   2.204   1.553
22317TIP3    H266829   0.176   2.165   1.486
22318TIP3   OH266830   0.092   1.976   1.255
22318TIP3    H166831   0.156   2.024   1.307
22318TIP3    H266832   0.142   1.906   1.212
22319TIP3   OH266833   1.041   2.384   2.104
22319TIP3    H166834   0.958   2.419   2.137
22319TIP3    H266835   1.068   2.445   2.036
22320TIP3   OH266836   0.480   2.254   1.532
22320TIP3    H166837   0.427   2.285   1.605
22320TIP3    H266838   0.563   2.229   1.571
22321TIP3   OH266839   9.622   2.674   2.014
22321TIP3    H166840   9.583   2.656   1.929
22321TIP3    H266841   9.617   2.591   2.061
22322TIP3   OH266842   0.347   2.813   2.098
22322TIP3    H166843   0.252   2.821   2.090
22322TIP3    H266844   0.360   2.724   2.130
22323TIP3   OH266845   0.313   2.116   1.360
22323TIP3    H166846   0.373   2.174   1.408
22323TIP3    H266847   0.343   2.121   1.269
22324TIP3   OH266848   0.060   2.787   1.615
22324TIP3    H166849   0.145   2.830   1.624
22324TIP3    H266850   0.007   2.848   1.562
22325TIP3   OH266851   0.831   1.337   1.419
22325TIP3    H166852   0.755   1.360   1.472
22325TIP3    H266853   0.843   1.412   1.360
22326TIP3   OH266854   0.648   2.716   0.973
22326TIP3    H166855   0.644   2.810   0.955
22326TIP3    H266856   0.737   2.691   0.948
22327TIP3   OH266857   9.755   2.991   1.445
22327TIP3    H166858   9.719   2.977   1.358
22327TIP3    H266859   9.737   3.083   1.464
22328TIP3   OH266860   0.152   2.933   1.076
22328TIP3    H166861   0.203   2.861   1.040
22328TIP3    H266862   0.189   2.948   1.163
22329TIP3   OH266863   0.212   2.972   1.343
22329TIP3    H166864   0.129   2.970   1.391
22329TIP3    H266865   0.278   2.946   1.407
22330TIP3   OH266866   0.392   2.091   1.097
22330TIP3    H166867   0.348   2.094   1.012
22330TIP3    H266868   0.473   2.140   1.084
22331TIP3   OH266869   0.102   1.518   1.416
22331TIP3    H166870   0.075   1.518   1.508
22331TIP3    H266871   0.061   1.439   1.379
22332TIP3   OH266872   0.248   1.950   1.696
22332TIP3    H166873   0.205   2.028   1.660
22332TIP3    H266874   0.309   1.923   1.628
22333TIP3   OH266875   0.443   1.986   1.899
22333TIP3    H166876   0.362   1.998   1.849
22333TIP3    H266877   0.480   1.904   1.867
22334TIP3   OH266878   9.567   1.506   1.383
22334TIP3    H166879   9.565   1.497   1.479
22334TIP3    H266880   9.485   1.550   1.361
22335TIP3   OH266881   8.993   1.552   1.760
22335TIP3    H166882   9.035   1.576   1.677
22335TIP3    H266883   9.060   1.565   1.826
22336TIP3   OH266884   9.566   1.727   1.716
22336TIP3    H166885   9.654   1.764   1.720
22336TIP3    H266886   9.526   1.767   1.640
22337TIP3   OH266887   9.448   1.803   1.474
22337TIP3    H166888   9.396   1.746   1.417
22337TIP3    H266889   9.514   1.841   1.416
22338TIP3   OH266890   9.687   2.289   1.520
22338TIP3    H166891   9.610   2.238   1.493
22338TIP3    H266892   9.669   2.313   1.611
22339TIP3   OH266893   0.803   2.525   2.132
22339TIP3    H166894   0.830   2.601   2.080
22339TIP3    H266895   0.720   2.498   2.093
22340TIP3   OH266896   0.351   1.627   1.399
22340TIP3    H166897   0.258   1.605   1.404
22340TIP3    H266898   0.355   1.721   1.419
22341TIP3   OH266899   0.417   1.885   1.483
22341TIP3    H166900   0.512   1.889   1.495
22341TIP3    H266901   0.396   1.964   1.434
22342TIP3   OH266902   9.833   2.454   1.359
22342TIP3    H166903   9.785   2.536   1.357
22342TIP3    H266904   9.779   2.396   1.414
22343TIP3   OH266905   0.827   1.970   1.303
22343TIP3    H166906   0.770   1.924   1.241
22343TIP3    H266907   0.832   2.060   1.269
22344TIP3   OH266908   0.557   2.782   1.241
22344TIP3    H166909   0.537   2.715   1.306
22344TIP3    H266910   0.581   2.733   1.162
22345TIP3   OH266911   0.574   2.421   2.003
22345TIP3    H166912   0.481   2.400   2.017
22345TIP3    H266913   0.613   2.338   1.976
22346TIP3   OH266914   9.493   2.613   1.773
22346TIP3    H166915   9.451   2.688   1.730
22346TIP3    H266916   9.423   2.548   1.782
22347TIP3   OH266917   9.072   1.945   1.499
22347TIP3    H166918   9.129   2.019   1.521
22347TIP3    H266919   9.021   1.930   1.579
22348TIP3   OH266920   9.610   2.360   1.769
22348TIP3    H166921   9.608   2.456   1.775
22348TIP3    H266922   9.522   2.333   1.794
22349TIP3   OH266923   9.435   2.876   1.682
22349TIP3    H166924   9.378   2.923   1.744
22349TIP3    H266925   9.523   2.891   1.715
22350TIP3   OH266926   0.329   2.519   1.128
22350TIP3    H166927   0.382   2.491   1.203
22350TIP3    H266928   0.245   2.475   1.140
22351TIP3   OH266929   0.654   2.991   0.935
22351TIP3    H166930   0.701   3.065   0.897
22351TIP3    H266931   0.574   3.029   0.970
22352TIP3   OH266932   0.506   2.429   1.316
22352TIP3    H166933   0.490   2.380   1.397
22352TIP3    H266934   0.601   2.439   1.312
22353TIP3   OH266935   9.485   2.486   1.150
22353TIP3    H166936   9.499   2.395   1.124
22353TIP3    H266937   9.477   2.483   1.245
22354TIP3   OH266938   9.434   2.511   1.423
22354TIP3    H166939   9.478   2.483   1.503
22354TIP3    H266940   9.434   2.607   1.428
22355TIP3   OH266941   9.202   2.174   1.581
22355TIP3    H166942   9.244   2.213   1.657
22355TIP3    H266943   9.203   2.244   1.515
22356TIP3   OH266944   0.423   1.572   1.661
22356TIP3    H166945   0.398   1.593   1.571
22356TIP3    H266946   0.463   1.652   1.695
22357TIP3   OH266947   9.693   2.685   1.350
22357TIP3    H166948   9.610   2.714   1.387
22357TIP3    H266949   9.722   2.759   1.297
22358TIP3   OH266950   0.044   1.779   1.764
22358TIP3    H166951   0.114   1.835   1.731
22358TIP3    H266952   0.044   1.794   1.858
22359TIP3   OH266953   0.260   1.461   1.849
22359TIP3    H166954   0.305   1.480   1.931
22359TIP3    H266955   0.316   1.500   1.782
22360TIP3   OH266956   9.443   2.788   1.421
22360TIP3    H166957   9.426   2.864   1.364
22360TIP3    H266958   9.432   2.822   1.510
22361TIP3   OH266959   9.562   1.461   1.655
22361TIP3    H166960   9.545   1.548   1.691
22361TIP3    H266961   9.655   1.446   1.670
22362TIP3   OH266962   0.650   2.164   1.934
22362TIP3    H166963   0.575   2.105   1.936
22362TIP3    H266964   0.717   2.119   1.985
22363TIP3   OH266965   9.196   2.379   1.392
22363TIP3    H166966   9.267   2.438   1.414
22363TIP3    H266967   9.232   2.322   1.324
22364TIP3   OH266968   9.099   1.660   1.533
22364TIP3    H166969   9.151   1.741   1.535
22364TIP3    H266970   9.039   1.672   1.459
22365TIP3   OH266971   0.612   3.090   1.859
22365TIP3    H166972   0.572   3.159   1.806
22365TIP3    H266973   0.705   3.109   1.859
22366TIP3   OH266974   8.930   2.586   1.830
22366TIP3    H166975   9.018   2.577   1.867
22366TIP3    H266976   8.943   2.629   1.746
22367TIP3   OH266977   9.637   2.686   1.036
22367TIP3    H166978   9.590   2.617   1.082
22367TIP3    H266979   9.713   2.642   0.998
22368TIP3   OH266980   0.280   2.725   0.954
22368TIP3    H166981   0.312   2.661   1.018
22368TIP3    H266982   0.342   2.718   0.881
22369TIP3   OH266983   9.311   2.183   1.243
22369TIP3    H166984   9.357   2.157   1.323
22369TIP3    H266985   9.381   2.195   1.178
22370TIP3   OH266986   0.068   2.403   1.092
22370TIP3    H166987   0.047   2.412   1.185
22370TIP3    H266988   0.051   2.311   1.073
22371TIP3   OH266989   9.477   2.119   1.456
22371TIP3    H166990   9.431   2.075   1.527
22371TIP3    H266991   9.529   2.050   1.415
22372TIP3   OH266992   9.621   1.937   1.307
22372TIP3    H166993   9.593   1.940   1.216
22372TIP3    H266994   9.716   1.946   1.304
22373TIP3   OH266995   0.609   2.229   0.994
22373TIP3    H166996   0.598   2.188   0.908
22373TIP3    H266997   0.585   2.321   0.980
22374TIP3   OH266998   9.451   3.013   1.245
22374TIP3    H166999   9.539   2.979   1.225
22374TIP3    H267000   9.418   3.044   1.161
22375TIP3   OH267001   8.928   2.356   1.385
22375TIP3    H167002   9.020   2.373   1.406
22375TIP3    H267003   8.926   2.265   1.357
22376TIP3   OH267004   0.876   3.162   1.857
22376TIP3    H167005   0.954   3.154   1.913
22376TIP3    H267006   0.848   3.253   1.867
22377TIP3   OH267007   0.784   2.434   1.322
22377TIP3    H167008   0.842   2.504   1.292
22377TIP3    H267009   0.828   2.396   1.398
22378TIP3   OH267010   0.911   2.290   1.521
22378TIP3    H167011   0.844   2.256   1.581
22378TIP3    H267012   0.977   2.328   1.579
22379TIP3   OH267013   0.923   2.720   1.971
22379TIP3    H167014   0.992   2.658   1.946
22379TIP3    H267015   0.909   2.774   1.894
22380TIP3   OH267016   0.810   2.977   2.130
22380TIP3    H167017   0.717   2.982   2.108
22380TIP3    H267018   0.840   2.895   2.091
22381TIP3   OH267019   0.820   2.210   1.169
22381TIP3    H167020   0.747   2.210   1.107
22381TIP3    H267021   0.806   2.287   1.223
22382TIP3   OH267022   0.674   1.857   1.106
22382TIP3    H167023   0.626   1.892   1.031
22382TIP3    H267024   0.668   1.762   1.096
22383TIP3   OH267025   0.707   2.158   1.663
22383TIP3    H167026   0.715   2.063   1.650
22383TIP3    H267027   0.691   2.169   1.756
22384TIP3   OH267028   0.639   1.584   1.073
22384TIP3    H167029   0.703   1.559   1.139
22384TIP3    H267030   0.556   1.546   1.103
22385TIP3   OH267031   0.705   1.879   1.541
22385TIP3    H167032   0.753   1.797   1.553
22385TIP3    H267033   0.747   1.920   1.465
22386TIP3   OH267034   0.868   2.026   2.040
22386TIP3    H167035   0.935   2.083   2.002
22386TIP3    H267036   0.915   1.974   2.106
22387TIP3   OH267037   0.823   1.631   1.591
22387TIP3    H167038   0.867   1.617   1.675
22387TIP3    H267039   0.762   1.557   1.584
22388TIP3   OH267040   0.863   1.538   1.233
22388TIP3    H167041   0.911   1.478   1.176
22388TIP3    H267042   0.919   1.616   1.238
22389TIP3   OH267043   0.444   3.103   1.498
22389TIP3    H167044   0.500   3.091   1.421
22389TIP3    H267045   0.495   3.157   1.557
22390TIP3   OH267046   0.868   1.451   2.027
22390TIP3    H167047   0.914   1.504   1.962
22390TIP3    H267048   0.796   1.507   2.057
22391TIP3   OH267049   0.979   1.577   1.812
22391TIP3    H167050   1.047   1.518   1.778
22391TIP3    H267051   1.017   1.664   1.801
22392TIP3   OH267052   0.575   1.464   1.954
22392TIP3    H167053   0.595   1.515   1.875
22392TIP3    H267054   0.629   1.385   1.946
22393TIP3   OH267055   0.639   1.418   1.596
22393TIP3    H167056   0.558   1.466   1.613
22393TIP3    H267057   0.623   1.331   1.631
22394TIP3   OH267058   8.960   2.708   1.579
22394TIP3    H167059   8.867   2.717   1.562
22394TIP3    H267060   9.001   2.708   1.493
22395TIP3   OH267061   9.343   1.336   1.535
22395TIP3    H167062   9.388   1.269   1.484
22395TIP3    H267063   9.411   1.375   1.590
22396TIP3   OH267064   0.037   1.513   1.686
22396TIP3    H167065   0.104   1.478   1.745
22396TIP3    H267066   0.032   1.606   1.708
22397TIP3   OH267067   9.698   2.912   1.178
22397TIP3    H167068   9.782   2.936   1.140
22397TIP3    H267069   9.667   2.840   1.123
22398TIP3   OH267070   0.589   3.051   1.268
22398TIP3    H167071   0.583   2.956   1.263
22398TIP3    H267072   0.549   3.082   1.187
22399TIP3   OH267073   9.004   2.739   1.296
22399TIP3    H167074   9.004   2.835   1.292
22399TIP3    H267075   9.088   2.713   1.258
22400TIP3   OH267076   2.054   2.606   1.200
22400TIP3    H167077   2.033   2.681   1.145
22400TIP3    H267078   1.993   2.537   1.170
22401TIP3   OH267079   1.950   2.519   1.611
22401TIP3    H167080   2.016   2.519   1.681
22401TIP3    H267081   1.946   2.428   1.582
22402TIP3   OH267082   1.385   2.489   1.937
22402TIP3    H167083   1.410   2.506   2.028
22402TIP3    H267084   1.465   2.458   1.895
22403TIP3   OH267085   2.313   2.819   1.246
22403TIP3    H167086   2.278   2.864   1.323
22403TIP3    H267087   2.396   2.864   1.229
22404TIP3   OH267088   1.349   2.829   1.662
22404TIP3    H167089   1.326   2.737   1.654
22404TIP3    H267090   1.428   2.830   1.717
22405TIP3   OH267091   1.062   2.065   1.441
22405TIP3    H167092   1.025   2.149   1.468
22405TIP3    H267093   0.989   2.018   1.401
22406TIP3   OH267094   1.133   2.376   1.661
22406TIP3    H167095   1.185   2.304   1.697
22406TIP3    H267096   1.199   2.441   1.635
22407TIP3   OH267097   1.988   3.265   1.244
22407TIP3    H167098   2.023   3.210   1.174
22407TIP3    H267099   2.061   3.277   1.305
22408TIP3   OH267100   1.845   2.757   1.665
22408TIP3    H167101   1.870   2.670   1.635
22408TIP3    H267102   1.928   2.799   1.687
22409TIP3   OH267103   2.916   2.200   1.674
22409TIP3    H167104   2.902   2.274   1.615
22409TIP3    H267105   2.901   2.123   1.620
22410TIP3   OH267106   2.250   2.265   1.686
22410TIP3    H167107   2.269   2.173   1.666
22410TIP3    H267108   2.211   2.299   1.606
22411TIP3   OH267109   1.656   1.942   1.637
22411TIP3    H167110   1.630   2.012   1.577
22411TIP3    H267111   1.604   1.867   1.609
22412TIP3   OH267112   2.320   2.033   1.226
22412TIP3    H167113   2.393   2.038   1.288
22412TIP3    H267114   2.357   2.060   1.142
22413TIP3   OH267115   1.285   2.167   1.764
22413TIP3    H167116   1.366   2.144   1.809
22413TIP3    H267117   1.284   2.111   1.686
22414TIP3   OH267118   1.695   2.329   1.541
22414TIP3    H167119   1.787   2.302   1.544
22414TIP3    H267120   1.649   2.251   1.510
22415TIP3   OH267121   1.644   1.920   2.085
22415TIP3    H167122   1.595   1.970   2.020
22415TIP3    H267123   1.580   1.903   2.155
22416TIP3   OH267124   1.989   2.802   1.020
22416TIP3    H167125   1.940   2.765   0.946
22416TIP3    H267126   1.937   2.877   1.048
22417TIP3   OH267127   1.626   2.692   1.817
22417TIP3    H167128   1.633   2.731   1.904
22417TIP3    H267129   1.702   2.726   1.770
22418TIP3   OH267130   2.521   2.072   1.395
22418TIP3    H167131   2.532   2.018   1.474
22418TIP3    H267132   2.592   2.136   1.400
22419TIP3   OH267133   1.525   2.045   1.864
22419TIP3    H167134   1.579   2.119   1.892
22419TIP3    H267135   1.572   2.009   1.789
22420TIP3   OH267136   0.954   2.617   1.200
22420TIP3    H167137   0.919   2.642   1.115
22420TIP3    H267138   0.976   2.701   1.242
22421TIP3   OH267139   2.462   3.059   1.415
22421TIP3    H167140   2.367   3.043   1.420
22421TIP3    H267141   2.483   3.046   1.323
22422TIP3   OH267142   2.749   2.003   1.837
22422TIP3    H167143   2.715   2.010   1.926
22422TIP3    H267144   2.755   2.094   1.807
22423TIP3   OH267145   1.974   1.619   1.799
22423TIP3    H167146   1.969   1.526   1.822
22423TIP3    H267147   1.897   1.657   1.839
22424TIP3   OH267148   2.143   3.134   1.067
22424TIP3    H167149   2.189   3.052   1.049
22424TIP3    H267150   2.213   3.199   1.074
22425TIP3   OH267151   2.243   2.890   0.995
22425TIP3    H167152   2.155   2.853   0.990
22425TIP3    H267153   2.280   2.855   1.077
22426TIP3   OH267154   1.910   2.424   1.046
22426TIP3    H167155   1.825   2.464   1.029
22426TIP3    H267156   1.953   2.420   0.961
22427TIP3   OH267157   1.882   2.223   0.737
22427TIP3    H167158   1.947   2.275   0.785
22427TIP3    H267159   1.933   2.155   0.693
22428TIP3   OH267160   2.783   2.659   1.535
22428TIP3    H167161   2.737   2.724   1.588
22428TIP3    H267162   2.857   2.706   1.498
22429TIP3   OH267163   2.239   2.515   1.019
22429TIP3    H167164   2.194   2.551   1.095
22429TIP3    H267165   2.311   2.463   1.057
22430TIP3   OH267166   1.506   2.487   1.421
22430TIP3    H167167   1.466   2.429   1.356
22430TIP3    H267168   1.579   2.437   1.457
22431TIP3   OH267169   1.633   2.904   1.564
22431TIP3    H167170   1.602   2.875   1.478
22431TIP3    H267171   1.707   2.846   1.584
22432TIP3   OH267172   1.605   2.427   1.780
22432TIP3    H167173   1.638   2.401   1.694
22432TIP3    H267174   1.624   2.520   1.786
22433TIP3   OH267175   2.202   2.992   1.451
22433TIP3    H167176   2.144   3.055   1.408
22433TIP3    H267177   2.144   2.922   1.480
22434TIP3   OH267178   2.094   2.371   0.836
22434TIP3    H167179   2.147   2.432   0.888
22434TIP3    H267180   2.127   2.381   0.747
22435TIP3   OH267181   1.827   3.014   1.079
22435TIP3    H167182   1.795   3.038   1.165
22435TIP3    H267183   1.777   3.068   1.018
22436TIP3   OH267184   2.594   1.585   0.869
22436TIP3    H167185   2.515   1.606   0.920
22436TIP3    H267186   2.616   1.666   0.823
22437TIP3   OH267187   1.379   2.331   1.222
22437TIP3    H167188   1.301   2.378   1.192
22437TIP3    H267189   1.347   2.244   1.246
22438TIP3   OH267190   2.414   2.974   0.449
22438TIP3    H167191   2.422   3.065   0.420
22438TIP3    H267192   2.501   2.937   0.435
22439TIP3   OH267193   0.948   2.909   1.769
22439TIP3    H167194   1.035   2.921   1.806
22439TIP3    H267195   0.900   2.989   1.794
22440TIP3   OH267196   1.721   3.223   0.919
22440TIP3    H167197   1.691   3.213   0.829
22440TIP3    H267198   1.678   3.303   0.950
22441TIP3   OH267199   1.163   3.099   1.299
22441TIP3    H167200   1.206   3.092   1.384
22441TIP3    H267201   1.116   3.016   1.290
22442TIP3   OH267202   1.951   3.181   0.580
22442TIP3    H167203   1.997   3.109   0.538
22442TIP3    H267204   1.978   3.176   0.672
22443TIP3   OH267205   1.985   3.192   0.853
22443TIP3    H167206   1.896   3.200   0.887
22443TIP3    H267207   2.035   3.156   0.926
22444TIP3   OH267208   1.752   1.723   1.931
22444TIP3    H167209   1.673   1.687   1.891
22444TIP3    H267210   1.721   1.795   1.985
22445TIP3   OH267211   2.186   2.358   0.580
22445TIP3    H167212   2.140   2.352   0.497
22445TIP3    H267213   2.267   2.405   0.560
22446TIP3   OH267214   1.891   1.771   0.899
22446TIP3    H167215   1.854   1.779   0.988
22446TIP3    H267216   1.856   1.689   0.866
22447TIP3   OH267217   1.689   2.244   1.958
22447TIP3    H167218   1.730   2.294   2.028
22447TIP3    H267219   1.658   2.310   1.896
22448TIP3   OH267220   1.548   2.118   1.458
22448TIP3    H167221   1.460   2.095   1.487
22448TIP3    H267222   1.555   2.083   1.369
22449TIP3   OH267223   2.032   2.213   1.173
22449TIP3    H167224   1.986   2.288   1.135
22449TIP3    H267225   2.088   2.181   1.102
22450TIP3   OH267226   2.175   2.199   1.407
22450TIP3    H167227   2.117   2.224   1.335
22450TIP3    H267228   2.221   2.121   1.375
22451TIP3   OH267229   1.561   1.752   0.880
22451TIP3    H167230   1.551   1.751   0.976
22451TIP3    H267231   1.482   1.797   0.848
22452TIP3   OH267232   1.106   1.803   1.739
22452TIP3    H167233   1.177   1.837   1.793
22452TIP3    H267234   1.147   1.786   1.654
22453TIP3   OH267235   1.015   1.773   1.245
22453TIP3    H167236   1.061   1.808   1.169
22453TIP3    H267237   0.953   1.841   1.270
22454TIP3   OH267238   2.130   2.502   1.814
22454TIP3    H167239   2.186   2.432   1.783
22454TIP3    H267240   2.175   2.537   1.891
22455TIP3   OH267241   1.914   1.928   1.508
22455TIP3    H167242   1.835   1.932   1.562
22455TIP3    H267243   1.983   1.902   1.569
22456TIP3   OH267244   1.313   2.006   1.539
22456TIP3    H167245   1.226   2.013   1.499
22456TIP3    H267246   1.341   1.917   1.520
22457TIP3   OH267247   1.571   2.007   1.212
22457TIP3    H167248   1.665   2.021   1.202
22457TIP3    H267249   1.535   2.029   1.126
22458TIP3   OH267250   2.316   2.005   1.637
22458TIP3    H167251   2.393   1.952   1.617
22458TIP3    H267252   2.243   1.942   1.635
22459TIP3   OH267253   1.458   2.044   0.966
22459TIP3    H167254   1.396   1.993   0.914
22459TIP3    H267255   1.513   2.088   0.902
22460TIP3   OH267256   1.954   2.245   1.579
22460TIP3    H167257   2.026   2.204   1.532
22460TIP3    H267258   1.964   2.216   1.670
22461TIP3   OH267259   1.472   1.765   1.513
22461TIP3    H167260   1.442   1.687   1.561
22461TIP3    H267261   1.499   1.732   1.428
22462TIP3   OH267262   1.938   2.186   1.851
22462TIP3    H167263   1.846   2.189   1.876
22462TIP3    H267264   1.978   2.126   1.913
22463TIP3   OH267265   1.671   2.554   0.997
22463TIP3    H167266   1.595   2.498   0.977
22463TIP3    H267267   1.649   2.594   1.081
22464TIP3   OH267268   2.615   2.792   1.699
22464TIP3    H167269   2.655   2.873   1.668
22464TIP3    H267270   2.528   2.792   1.658
22465TIP3   OH267271   2.142   1.870   0.900
22465TIP3    H167272   2.049   1.849   0.894
22465TIP3    H267273   2.144   1.966   0.909
22466TIP3   OH267274   2.192   2.139   0.952
22466TIP3    H167275   2.288   2.137   0.950
22466TIP3    H267276   2.168   2.217   0.902
22467TIP3   OH267277   1.346   2.552   1.639
22467TIP3    H167278   1.404   2.538   1.563
22467TIP3    H267279   1.400   2.531   1.715
22468TIP3   OH267280   1.817   2.706   0.828
22468TIP3    H167281   1.770   2.789   0.824
22468TIP3    H267282   1.764   2.650   0.885
22469TIP3   OH267283   2.610   2.226   0.789
22469TIP3    H167284   2.557   2.181   0.723
22469TIP3    H267285   2.621   2.314   0.754
22470TIP3   OH267286   2.399   2.968   0.792
22470TIP3    H167287   2.348   2.944   0.870
22470TIP3    H267288   2.426   2.884   0.755
22471TIP3   OH267289   2.406   2.766   1.524
22471TIP3    H167290   2.327   2.712   1.517
22471TIP3    H267291   2.453   2.750   1.442
22472TIP3   OH267292   1.485   2.898   1.324
22472TIP3    H167293   1.475   2.970   1.261
22472TIP3    H267294   1.405   2.901   1.376
22473TIP3   OH267295   1.056   2.199   1.029
22473TIP3    H167296   1.101   2.280   1.052
22473TIP3    H267297   0.976   2.200   1.081
22474TIP3   OH267298   1.590   2.665   1.227
22474TIP3    H167299   1.562   2.753   1.255
22474TIP3    H267300   1.565   2.608   1.300
22475TIP3   OH267301   1.766   3.274   1.888
22475TIP3    H167302   1.737   3.310   1.804
22475TIP3    H267303   1.858   3.300   1.894
22476TIP3   OH267304   1.394   3.099   1.154
22476TIP3    H167305   1.308   3.103   1.197
22476TIP3    H267306   1.419   3.191   1.144
22477TIP3   OH267307   2.103   2.858   1.716
22477TIP3    H167308   2.116   2.895   1.803
22477TIP3    H267309   2.180   2.803   1.701
22478TIP3   OH267310   2.103   2.777   0.598
22478TIP3    H167311   2.149   2.740   0.673
22478TIP3    H267312   2.019   2.732   0.597
22479TIP3   OH267313   2.409   3.240   0.397
22479TIP3    H167314   2.435   3.277   0.312
22479TIP3    H267315   2.321   3.274   0.412
22480TIP3   OH267316   2.251   2.654   0.786
22480TIP3    H167317   2.236   2.619   0.874
22480TIP3    H267318   2.345   2.671   0.782
22481TIP3   OH267319   1.154   3.010   1.923
22481TIP3    H167320   1.168   2.960   2.003
22481TIP3    H267321   1.180   3.099   1.945
22482TIP3   OH267322   1.476   2.741   0.628
22482TIP3    H167323   1.488   2.649   0.602
22482TIP3    H267324   1.463   2.737   0.723
22483TIP3   OH267325   1.419   2.758   0.900
22483TIP3    H167326   1.482   2.735   0.968
22483TIP3    H267327   1.416   2.853   0.901
22484TIP3   OH267328   1.154   2.448   1.111
22484TIP3    H167329   1.088   2.494   1.162
22484TIP3    H267330   1.173   2.507   1.038
22485TIP3   OH267331   2.208   2.087   2.052
22485TIP3    H167332   2.203   2.151   2.123
22485TIP3    H267333   2.121   2.046   2.051
22486TIP3   OH267334   2.188   1.804   1.163
22486TIP3    H167335   2.164   1.821   1.072
22486TIP3    H267336   2.228   1.886   1.193
22487TIP3   OH267337   1.678   2.936   0.815
22487TIP3    H167338   1.594   2.964   0.852
22487TIP3    H267339   1.706   3.010   0.762
22488TIP3   OH267340   1.851   2.022   1.255
22488TIP3    H167341   1.911   2.091   1.228
22488TIP3    H267342   1.873   2.005   1.346
22489TIP3   OH267343   2.010   1.711   1.351
22489TIP3    H167344   1.988   1.791   1.398
22489TIP3    H267345   2.078   1.738   1.288
22490TIP3   OH267346   1.434   3.032   0.894
22490TIP3    H167347   1.414   3.110   0.843
22490TIP3    H267348   1.419   3.058   0.985
22491TIP3   OH267349   1.530   1.736   1.158
22491TIP3    H167350   1.520   1.827   1.186
22491TIP3    H267351   1.624   1.720   1.163
22492TIP3   OH267352   2.400   2.358   1.382
22492TIP3    H167353   2.328   2.297   1.396
22492TIP3    H267354   2.468   2.329   1.443
22493TIP3   OH267355   1.176   2.625   0.894
22493TIP3    H167356   1.248   2.687   0.904
22493TIP3    H267357   1.207   2.562   0.829
22494TIP3   OH267358   1.083   1.921   1.025
22494TIP3    H167359   1.096   2.016   1.034
22494TIP3    H267360   1.020   1.912   0.953
22495TIP3   OH267361   2.520   3.354   1.385
22495TIP3    H167362   2.470   3.434   1.371
22495TIP3    H267363   2.550   3.329   1.297
22496TIP3   OH267364   1.490   1.644   1.881
22496TIP3    H167365   1.460   1.612   1.796
22496TIP3    H267366   1.477   1.569   1.940
22497TIP3   OH267367   0.996   2.876   1.289
22497TIP3    H167368   0.963   2.917   1.368
22497TIP3    H267369   0.954   2.925   1.217
22498TIP3   OH267370   1.628   2.940   0.511
22498TIP3    H167371   1.582   2.872   0.561
22498TIP3    H267372   1.701   2.895   0.470
22499TIP3   OH267373   2.065   2.985   0.428
22499TIP3    H167374   2.097   2.919   0.489
22499TIP3    H267375   2.122   2.977   0.351
22500TIP3   OH267376   1.299   2.436   0.739
22500TIP3    H167377   1.347   2.410   0.817
22500TIP3    H267378   1.366   2.449   0.672
22501TIP3   OH267379   1.859   2.652   0.565
22501TIP3    H167380   1.836   2.662   0.657
22501TIP3    H267381   1.846   2.559   0.547
22502TIP3   OH267382   1.466   2.374   0.953
22502TIP3    H167383   1.446   2.345   1.042
22502TIP3    H267384   1.515   2.302   0.915
22503TIP3   OH267385   1.612   2.195   0.796
22503TIP3    H167386   1.582   2.199   0.706
22503TIP3    H267387   1.707   2.201   0.791
22504TIP3   OH267388   2.401   2.485   0.456
22504TIP3    H167389   2.385   2.443   0.372
22504TIP3    H267390   2.371   2.575   0.444
22505TIP3   OH267391   1.951   1.987   2.064
22505TIP3    H167392   1.883   1.938   2.018
22505TIP3    H267393   1.923   1.988   2.155
22506TIP3   OH267394   1.436   3.258   0.726
22506TIP3    H167395   1.523   3.230   0.696
22506TIP3    H267396   1.394   3.292   0.647
22507TIP3   OH267397   0.902   2.628   0.902
22507TIP3    H167398   0.997   2.637   0.905
22507TIP3    H267399   0.887   2.540   0.867
22508TIP3   OH267400   0.792   3.200   1.370
22508TIP3    H167401   0.724   3.149   1.326
22508TIP3    H267402   0.837   3.138   1.427
22509TIP3   OH267403   0.941   3.024   1.519
22509TIP3    H167404   0.927   2.959   1.587
22509TIP3    H267405   0.998   3.089   1.559
22510TIP3   OH267406   2.519   2.700   0.803
22510TIP3    H167407   2.608   2.713   0.771
22510TIP3    H267408   2.529   2.681   0.896
22511TIP3   OH267409   2.567   2.592   1.053
22511TIP3    H167410   2.524   2.509   1.072
22511TIP3    H267411   2.561   2.642   1.134
22512TIP3   OH267412   2.695   2.969   1.512
22512TIP3    H167413   2.744   2.934   1.437
22512TIP3    H267414   2.614   3.002   1.474
22513TIP3   OH267415   2.582   2.464   0.656
22513TIP3    H167416   2.514   2.462   0.588
22513TIP3    H267417   2.560   2.541   0.708
22514TIP3   OH267418   2.462   2.116   0.590
22514TIP3    H167419   2.416   2.147   0.512
22514TIP3    H267420   2.454   2.021   0.586
22515TIP3   OH267421   2.442   2.357   1.113
22515TIP3    H167422   2.455   2.265   1.089
22515TIP3    H267423   2.433   2.355   1.209
22516TIP3   OH267424   1.117   2.537   1.890
22516TIP3    H167425   1.101   2.491   1.807
22516TIP3    H267426   1.212   2.531   1.902
22517TIP3   OH267427   2.424   1.848   0.572
22517TIP3    H167428   2.492   1.814   0.630
22517TIP3    H267429   2.345   1.800   0.598
22518TIP3   OH267430   2.475   2.106   0.999
22518TIP3    H167431   2.518   2.022   1.013
22518TIP3    H267432   2.522   2.145   0.925
22519TIP3   OH267433   2.613   2.309   1.549
22519TIP3    H167434   2.704   2.326   1.528
22519TIP3    H267435   2.615   2.272   1.638
22520TIP3   OH267436   2.756   2.515   1.773
22520TIP3    H167437   2.684   2.559   1.819
22520TIP3    H267438   2.760   2.559   1.688
22521TIP3   OH267439   2.594   1.862   1.043
22521TIP3    H167440   2.634   1.847   1.128
22521TIP3    H267441   2.528   1.794   1.035
22522TIP3   OH267442   1.317   1.859   1.910
22522TIP3    H167443   1.374   1.782   1.907
22522TIP3    H267444   1.376   1.933   1.898
22523TIP3   OH267445   1.116   2.145   1.996
22523TIP3    H167446   1.166   2.164   1.917
22523TIP3    H267447   1.099   2.230   2.036
22524TIP3   OH267448   2.664   1.806   0.717
22524TIP3    H167449   2.703   1.744   0.656
22524TIP3    H267450   2.717   1.885   0.708
22525TIP3   OH267451   1.092   1.645   1.473
22525TIP3    H167452   1.007   1.633   1.515
22525TIP3    H267453   1.074   1.697   1.395
22526TIP3   OH267454   2.313   3.349   1.058
22526TIP3    H167455   2.333   3.335   0.966
22526TIP3    H267456   2.398   3.344   1.102
22527TIP3   OH267457   1.408   3.278   1.774
22527TIP3    H167458   1.356   3.302   1.851
22527TIP3    H267459   1.419   3.360   1.726
22528TIP3   OH267460   1.914   3.529   1.649
22528TIP3    H167461   1.863   3.600   1.610
22528TIP3    H267462   1.887   3.529   1.741
22529TIP3   OH267463   1.981   3.262   1.667
22529TIP3    H167464   1.959   3.355   1.654
22529TIP3    H267465   2.075   3.258   1.651
22530TIP3   OH267466   1.109   3.201   1.656
22530TIP3    H167467   1.112   3.187   1.750
22530TIP3    H267468   1.188   3.159   1.622
22531TIP3   OH267469   1.303   3.058   1.528
22531TIP3    H167470   1.315   2.979   1.580
22531TIP3    H267471   1.390   3.099   1.526
22532TIP3   OH267472   1.549   3.168   1.511
22532TIP3    H167473   1.607   3.099   1.477
22532TIP3    H267474   1.605   3.219   1.570
22533TIP3   OH267475   2.117   1.805   1.646
22533TIP3    H167476   2.076   1.737   1.699
22533TIP3    H267477   2.189   1.760   1.601
22534TIP3   OH267478   2.659   1.688   1.502
22534TIP3    H167479   2.695   1.735   1.427
22534TIP3    H267480   2.609   1.754   1.550
22535TIP3   OH267481   2.734   1.806   1.269
22535TIP3    H167482   2.791   1.735   1.239
22535TIP3    H267483   2.784   1.886   1.254
22536TIP3   OH267484   1.397   1.535   1.647
22536TIP3    H167485   1.307   1.501   1.650
22536TIP3    H267486   1.451   1.456   1.647
22537TIP3   OH267487   1.192   1.442   1.298
22537TIP3    H167488   1.229   1.490   1.224
22537TIP3    H267489   1.168   1.509   1.361
22538TIP3   OH267490   1.856   1.574   1.542
22538TIP3    H167491   1.907   1.617   1.473
22538TIP3    H267492   1.904   1.594   1.623
22539TIP3   OH267493   2.345   1.706   1.531
22539TIP3    H167494   2.381   1.679   1.447
22539TIP3    H267495   2.362   1.632   1.590
22540TIP3   OH267496   2.403   1.662   1.056
22540TIP3    H167497   2.327   1.710   1.090
22540TIP3    H267498   2.393   1.574   1.092
22541TIP3   OH267499   0.892   3.011   1.077
22541TIP3    H167500   0.808   2.975   1.048
22541TIP3    H267501   0.894   3.099   1.041
22542TIP3   OH267502   1.320   1.571   1.071
22542TIP3    H167503   1.365   1.507   1.017
22542TIP3    H267504   1.389   1.626   1.108
22543TIP3   OH267505   1.804   1.769   1.161
22543TIP3    H167506   1.860   1.713   1.215
22543TIP3    H267507   1.821   1.858   1.193
22544TIP3   OH267508   1.684   3.169   0.647
22544TIP3    H167509   1.773   3.189   0.617
22544TIP3    H267510   1.656   3.097   0.590
22545TIP3   OH267511   2.404   3.253   0.819
22545TIP3    H167512   2.425   3.161   0.833
22545TIP3    H267513   2.333   3.251   0.754
22546TIP3   OH267514   1.002   3.011   0.722
22546TIP3    H167515   1.002   3.017   0.818
22546TIP3    H267516   1.082   2.964   0.701
22547TIP3   OH267517   2.772   2.347   1.009
22547TIP3    H167518   2.733   2.372   1.093
22547TIP3    H267519   2.698   2.311   0.959
22548TIP3   OH267520   2.860   2.650   1.162
22548TIP3    H167521   2.790   2.586   1.164
22548TIP3    H267522   2.853   2.692   1.076
22549TIP3   OH267523   3.427   2.167   1.115
22549TIP3    H167524   3.362   2.208   1.059
22549TIP3    H267525   3.415   2.073   1.102
22550TIP3   OH267526   4.126   2.291   0.787
22550TIP3    H167527   4.123   2.292   0.882
22550TIP3    H267528   4.111   2.382   0.761
22551TIP3   OH267529   3.070   2.352   1.211
22551TIP3    H167530   3.106   2.425   1.162
22551TIP3    H267531   3.056   2.284   1.146
22552TIP3   OH267532   3.581   2.700   1.051
22552TIP3    H167533   3.627   2.631   1.099
22552TIP3    H267534   3.497   2.662   1.028
22553TIP3   OH267535   3.447   2.175   1.574
22553TIP3    H167536   3.446   2.241   1.504
22553TIP3    H267537   3.431   2.225   1.654
22554TIP3   OH267538   3.327   2.567   1.304
22554TIP3    H167539   3.368   2.642   1.347
22554TIP3    H267540   3.376   2.491   1.335
22555TIP3   OH267541   2.726   2.777   0.632
22555TIP3    H167542   2.689   2.805   0.548
22555TIP3    H267543   2.713   2.851   0.690
22556TIP3   OH267544   3.848   1.888   1.341
22556TIP3    H167545   3.850   1.794   1.326
22556TIP3    H267546   3.781   1.901   1.408
22557TIP3   OH267547   3.761   2.659   0.552
22557TIP3    H167548   3.711   2.704   0.620
22557TIP3    H267549   3.845   2.705   0.550
22558TIP3   OH267550   3.705   2.457   0.274
22558TIP3    H167551   3.779   2.513   0.298
22558TIP3    H267552   3.725   2.372   0.313
22559TIP3   OH267553   3.268   2.807   0.892
22559TIP3    H167554   3.207   2.768   0.830
22559TIP3    H267555   3.288   2.737   0.953
22560TIP3   OH267556   3.903   2.647   0.284
22560TIP3    H167557   3.975   2.708   0.300
22560TIP3    H267558   3.856   2.684   0.209
22561TIP3   OH267559   4.399   1.782   0.508
22561TIP3    H167560   4.334   1.845   0.538
22561TIP3    H267561   4.440   1.824   0.432
22562TIP3   OH267562   3.108   2.657   0.735
22562TIP3    H167563   3.060   2.637   0.655
22562TIP3    H267564   3.073   2.596   0.800
22563TIP3   OH267565   3.042   3.302   0.978
22563TIP3    H167566   2.986   3.363   0.930
22563TIP3    H267567   2.993   3.219   0.977
22564TIP3   OH267568   3.754   3.396   0.042
22564TIP3    H167569   3.844   3.384   0.013
22564TIP3    H267570   3.751   3.356   0.129
22565TIP3   OH267571   3.647   1.985   1.495
22565TIP3    H167572   3.584   1.944   1.436
22565TIP3    H267573   3.633   2.079   1.483
22566TIP3   OH267574   4.086   2.630   0.035
22566TIP3    H167575   4.001   2.613  -0.005
22566TIP3    H267576   4.118   2.709  -0.009
22567TIP3   OH267577   3.731   1.935   0.309
22567TIP3    H167578   3.725   1.956   0.402
22567TIP3    H267579   3.656   1.877   0.293
22568TIP3   OH267580   3.274   2.328   0.963
22568TIP3    H167581   3.202   2.344   0.902
22568TIP3    H267582   3.353   2.343   0.912
22569TIP3   OH267583   3.879   2.414   0.673
22569TIP3    H167584   3.825   2.487   0.706
22569TIP3    H267585   3.891   2.434   0.580
22570TIP3   OH267586   3.322   2.001   0.333
22570TIP3    H167587   3.312   1.993   0.428
22570TIP3    H267588   3.241   2.042   0.304
22571TIP3   OH267589   2.903   1.997   1.182
22571TIP3    H167590   2.989   2.017   1.217
22571TIP3    H267591   2.920   1.964   1.093
22572TIP3   OH267592   2.828   2.058   0.739
22572TIP3    H167593   2.868   2.091   0.659
22572TIP3    H267594   2.757   2.120   0.758
22573TIP3   OH267595   3.684   2.205   0.992
22573TIP3    H167596   3.589   2.210   0.981
22573TIP3    H267597   3.696   2.164   1.078
22574TIP3   OH267598   2.992   2.199   0.973
22574TIP3    H167599   2.922   2.262   0.988
22574TIP3    H267600   2.954   2.134   0.914
22575TIP3   OH267601   3.396   2.264   0.618
22575TIP3    H167602   3.469   2.321   0.595
22575TIP3    H267603   3.342   2.260   0.539
22576TIP3   OH267604   3.195   2.302   0.424
22576TIP3    H167605   3.120   2.245   0.409
22576TIP3    H267606   3.243   2.302   0.340
22577TIP3   OH267607   3.327   1.905   1.033
22577TIP3    H167608   3.258   1.867   1.087
22577TIP3    H267609   3.280   1.945   0.959
22578TIP3   OH267610   3.394   2.808   0.514
22578TIP3    H167611   3.330   2.790   0.445
22578TIP3    H267612   3.372   2.896   0.545
22579TIP3   OH267613   3.785   2.185   0.192
22579TIP3    H167614   3.722   2.113   0.204
22579TIP3    H267615   3.820   2.200   0.280
22580TIP3   OH267616   4.022   2.455   0.440
22580TIP3    H167617   4.117   2.467   0.440
22580TIP3    H267618   3.990   2.520   0.377
22581TIP3   OH267619   3.143   2.763   1.177
22581TIP3    H167620   3.151   2.852   1.144
22581TIP3    H267621   3.224   2.748   1.227
22582TIP3   OH267622   3.799   2.979   0.349
22582TIP3    H167623   3.767   3.042   0.414
22582TIP3    H267624   3.731   2.911   0.347
22583TIP3   OH267625   4.517   2.477   0.244
22583TIP3    H167626   4.431   2.514   0.264
22583TIP3    H267627   4.578   2.549   0.254
22584TIP3   OH267628   3.329   3.215   0.934
22584TIP3    H167629   3.401   3.256   0.886
22584TIP3    H267630   3.252   3.227   0.879
22585TIP3   OH267631   2.757   2.421   0.440
22585TIP3    H167632   2.818   2.493   0.453
22585TIP3    H267633   2.698   2.425   0.515
22586TIP3   OH267634   3.473   2.980   0.860
22586TIP3    H167635   3.446   3.068   0.888
22586TIP3    H267636   3.396   2.926   0.876
22587TIP3   OH267637   3.110   3.442   0.708
22587TIP3    H167638   3.039   3.467   0.768
22587TIP3    H267639   3.166   3.519   0.705
22588TIP3   OH267640   3.933   2.959   0.121
22588TIP3    H167641   3.880   2.984   0.196
22588TIP3    H267642   3.888   2.884   0.082
22589TIP3   OH267643   3.243   2.937   0.064
22589TIP3    H167644   3.238   2.850   0.026
22589TIP3    H267645   3.255   2.921   0.158
22590TIP3   OH267646   3.211   2.991   0.346
22590TIP3    H167647   3.306   2.996   0.336
22590TIP3    H267648   3.190   3.055   0.413
22591TIP3   OH267649   2.918   2.623   0.526
22591TIP3    H167650   2.851   2.679   0.566
22591TIP3    H267651   2.965   2.681   0.466
22592TIP3   OH267652   3.978   2.119   0.631
22592TIP3    H167653   3.987   2.134   0.537
22592TIP3    H267654   4.025   2.191   0.672
22593TIP3   OH267655   3.451   3.253   0.419
22593TIP3    H167656   3.364   3.287   0.397
22593TIP3    H267657   3.458   3.173   0.368
22594TIP3   OH267658   3.706   2.211   0.722
22594TIP3    H167659   3.776   2.275   0.711
22594TIP3    H267660   3.705   2.192   0.815
22595TIP3   OH267661   3.737   1.960   0.873
22595TIP3    H167662   3.685   2.026   0.919
22595TIP3    H267663   3.824   1.967   0.914
22596TIP3   OH267664   3.217   3.390   0.465
22596TIP3    H167665   3.196   3.472   0.421
22596TIP3    H267666   3.166   3.393   0.546
22597TIP3   OH267667   3.269   1.972   0.601
22597TIP3    H167668   3.240   1.999   0.688
22597TIP3    H267669   3.364   1.973   0.606
22598TIP3   OH267670   2.977   2.860   0.377
22598TIP3    H167671   3.060   2.905   0.365
22598TIP3    H267672   2.970   2.801   0.302
22599TIP3   OH267673   2.902   2.182   0.500
22599TIP3    H167674   2.852   2.263   0.490
22599TIP3    H267675   2.881   2.131   0.422
22600TIP3   OH267676   3.294   1.762   1.385
22600TIP3    H167677   3.242   1.781   1.307
22600TIP3    H267678   3.248   1.691   1.428
22601TIP3   OH267679   2.872   3.215   0.713
22601TIP3    H167680   2.854   3.177   0.799
22601TIP3    H267681   2.790   3.204   0.665
22602TIP3   OH267682   6.668   7.727   7.921
22602TIP3    H167683   6.623   7.652   7.960
22602TIP3    H267684   6.704   7.775   7.995
22603TIP3   OH267685   7.254   7.926   7.920
22603TIP3    H167686   7.310   7.870   7.974
22603TIP3    H267687   7.258   7.887   7.833
22604TIP3   OH267688   3.063   2.661   0.209
22604TIP3    H167689   3.119   2.640   0.283
22604TIP3    H267690   3.123   2.670   0.135
22605TIP3   OH267691   6.796   7.421   7.909
22605TIP3    H167692   6.830   7.488   7.967
22605TIP3    H267693   6.807   7.339   7.957
22606TIP3   OH267694   3.197   2.581   0.455
22606TIP3    H167695   3.270   2.591   0.516
22606TIP3    H267696   3.183   2.487   0.449
22607TIP3   OH267697   3.349   2.312   0.200
22607TIP3    H167698   3.323   2.348   0.115
22607TIP3    H267699   3.396   2.231   0.178
22608TIP3   OH267700   7.419   7.433   7.850
22608TIP3    H167701   7.369   7.366   7.804
22608TIP3    H267702   7.462   7.482   7.780
22609TIP3   OH267703   3.262   3.533   0.223
22609TIP3    H167704   3.348   3.543   0.183
22609TIP3    H267705   3.200   3.540   0.151
22610TIP3   OH267706   2.657   2.869   0.391
22610TIP3    H167707   2.710   2.936   0.349
22610TIP3    H267708   2.665   2.792   0.334
22611TIP3   OH267709   2.669   3.370   0.883
22611TIP3    H167710   2.608   3.348   0.813
22611TIP3    H267711   2.630   3.332   0.961
22612TIP3   OH267712   2.574   3.273   1.122
22612TIP3    H167713   2.554   3.180   1.116
22612TIP3    H267714   2.666   3.277   1.148
22613TIP3   OH267715   4.524   2.769   0.218
22613TIP3    H167716   4.491   2.785   0.130
22613TIP3    H267717   4.609   2.813   0.220
22614TIP3   OH267718   7.569   6.969   7.978
22614TIP3    H167719   7.504   7.005   7.919
22614TIP3    H267720   7.542   6.878   7.991
22615TIP3   OH267721   2.864   2.868   1.329
22615TIP3    H167722   2.875   2.800   1.262
22615TIP3    H267723   2.935   2.930   1.312
22616TIP3   OH267724   4.185   2.102   0.009
22616TIP3    H167725   4.263   2.058   0.044
22616TIP3    H267726   4.111   2.050   0.039
22617TIP3   OH267727   4.325   2.429   0.476
22617TIP3    H167728   4.298   2.348   0.518
22617TIP3    H267729   4.419   2.436   0.496
22618TIP3   OH267730   4.485   2.042   0.677
22618TIP3    H167731   4.499   2.083   0.763
22618TIP3    H267732   4.397   2.004   0.683
22619TIP3   OH267733   3.124   2.070   1.320
22619TIP3    H167734   3.218   2.049   1.313
22619TIP3    H267735   3.121   2.145   1.380
22620TIP3   OH267736   2.870   2.397   1.500
22620TIP3    H167737   2.902   2.375   1.412
22620TIP3    H267738   2.862   2.493   1.499
22621TIP3   OH267739   4.458   2.057   0.126
22621TIP3    H167740   4.469   1.964   0.146
22621TIP3    H267741   4.474   2.102   0.208
22622TIP3   OH267742   2.872   1.875   0.934
22622TIP3    H167743   2.782   1.854   0.958
22622TIP3    H267744   2.864   1.937   0.862
22623TIP3   OH267745   3.046   2.056   1.976
22623TIP3    H167746   3.039   1.972   2.022
22623TIP3    H267747   3.053   2.031   1.884
22624TIP3   OH267748   3.993   2.090   1.209
22624TIP3    H167749   3.950   2.007   1.227
22624TIP3    H267750   3.978   2.106   1.116
22625TIP3   OH267751   3.122   1.777   1.160
22625TIP3    H167752   3.035   1.754   1.128
22625TIP3    H267753   3.175   1.699   1.145
22626TIP3   OH267754   2.985   1.667   0.780
22626TIP3    H167755   3.013   1.709   0.698
22626TIP3    H267756   2.956   1.739   0.835
22627TIP3   OH267757   3.640   1.785   1.094
22627TIP3    H167758   3.721   1.836   1.089
22627TIP3    H267759   3.613   1.792   1.186
22628TIP3   OH267760   4.271   2.040   0.981
22628TIP3    H167761   4.327   1.973   0.941
22628TIP3    H267762   4.234   1.997   1.058
22629TIP3   OH267763   4.225   1.944   0.667
22629TIP3    H167764   4.154   1.930   0.605
22629TIP3    H267765   4.197   1.900   0.747
22630TIP3   OH267766   2.631   3.219   0.574
22630TIP3    H167767   2.547   3.222   0.528
22630TIP3    H267768   2.662   3.309   0.573
22631TIP3   OH267769   3.077   1.789   0.542
22631TIP3    H167770   3.125   1.725   0.489
22631TIP3    H267771   3.143   1.853   0.567
22632TIP3   OH267772   3.540   2.001   0.570
22632TIP3    H167773   3.581   1.916   0.588
22632TIP3    H267774   3.600   2.065   0.608
22633TIP3   OH267775   3.482   3.499   0.060
22633TIP3    H167776   3.575   3.508   0.081
22633TIP3    H267777   3.469   3.406   0.045
22634TIP3   OH267778   2.777   3.072   0.259
22634TIP3    H167779   2.740   3.160   0.256
22634TIP3    H267780   2.863   3.081   0.217
22635TIP3   OH267781   8.340   6.826   7.776
22635TIP3    H167782   8.401   6.883   7.822
22635TIP3    H267783   8.308   6.879   7.703
22636TIP3   OH267784   4.710   2.282   0.210
22636TIP3    H167785   4.754   2.326   0.136
22636TIP3    H267786   4.638   2.340   0.233
22637TIP3   OH267787   8.075   7.037   7.988
22637TIP3    H167788   8.110   7.118   7.952
22637TIP3    H267789   7.982   7.040   7.966
22638TIP3   OH267790   4.742   2.107   0.410
22638TIP3    H167791   4.646   2.101   0.414
22638TIP3    H267792   4.759   2.178   0.349
22639TIP3   OH267793   4.806   1.938   0.208
22639TIP3    H167794   4.872   1.972   0.148
22639TIP3    H267795   4.807   1.998   0.283
22640TIP3   OH267796   8.203   6.663   7.999
22640TIP3    H167797   8.219   6.668   7.904
22640TIP3    H267798   8.235   6.746   8.033
22641TIP3   OH267799   9.530   3.802   0.861
22641TIP3    H167800   9.537   3.799   0.956
22641TIP3    H267801   9.589   3.734   0.830
22642TIP3   OH267802   0.456   3.149   1.042
22642TIP3    H167803   0.383   3.168   1.101
22642TIP3    H267804   0.466   3.228   0.990
22643TIP3   OH267805   0.081   3.846   0.722
22643TIP3    H167806   0.019   3.860   0.650
22643TIP3    H267807   0.137   3.924   0.720
22644TIP3   OH267808   9.543   3.342   1.011
22644TIP3    H167809   9.505   3.358   1.097
22644TIP3    H267810   9.518   3.252   0.989
22645TIP3   OH267811   9.232   3.315   1.034
22645TIP3    H167812   9.262   3.353   1.116
22645TIP3    H267813   9.150   3.361   1.015
22646TIP3   OH267814   9.801   3.426   1.027
22646TIP3    H167815   9.706   3.414   1.018
22646TIP3    H267816   9.814   3.520   1.023
22647TIP3   OH267817   0.076   3.687   1.026
22647TIP3    H167818   0.158   3.674   1.074
22647TIP3    H267819   0.097   3.757   0.964
22648TIP3   OH267820   0.484   3.780   0.939
22648TIP3    H167821   0.425   3.733   0.880
22648TIP3    H267822   0.488   3.869   0.903
22649TIP3   OH267823   0.053   3.367   1.290
22649TIP3    H167824   0.035   3.385   1.198
22649TIP3    H267825   0.076   3.452   1.327
22650TIP3   OH267826   0.249   4.061   0.629
22650TIP3    H167827   0.232   4.017   0.546
22650TIP3    H267828   0.255   4.154   0.606
22651TIP3   OH267829   0.452   4.026   0.813
22651TIP3    H167830   0.383   4.025   0.748
22651TIP3    H267831   0.422   4.088   0.880
22652TIP3   OH267832   0.316   3.679   0.750
22652TIP3    H167833   0.237   3.721   0.715
22652TIP3    H267834   0.307   3.587   0.725
22653TIP3   OH267835   0.276   3.407   0.704
22653TIP3    H167836   0.342   3.384   0.768
22653TIP3    H267837   0.197   3.362   0.732
22654TIP3   OH267838   0.326   3.650   1.137
22654TIP3    H167839   0.372   3.575   1.176
22654TIP3    H267840   0.393   3.695   1.085
22655TIP3   OH267841   0.464   3.422   1.230
22655TIP3    H167842   0.504   3.420   1.317
22655TIP3    H267843   0.400   3.351   1.231
22656TIP3   OH267844   0.497   3.358   0.866
22656TIP3    H167845   0.543   3.294   0.811
22656TIP3    H267846   0.558   3.431   0.874
22657TIP3   OH267847   0.527   3.288   1.688
22657TIP3    H167848   0.567   3.345   1.623
22657TIP3    H267849   0.434   3.314   1.690
22658TIP3   OH267850   0.623   3.403   1.458
22658TIP3    H167851   0.692   3.341   1.433
22658TIP3    H267852   0.656   3.488   1.427
22659TIP3   OH267853   0.255   3.289   1.632
22659TIP3    H167854   0.284   3.232   1.561
22659TIP3    H267855   0.214   3.230   1.694
22660TIP3   OH267856   0.277   3.218   1.237
22660TIP3    H167857   0.197   3.267   1.258
22660TIP3    H267858   0.265   3.134   1.281
22661TIP3   OH267859   9.011   3.012   1.259
22661TIP3    H167860   9.077   3.018   1.190
22661TIP3    H267861   9.023   3.091   1.311
22662TIP3   OH267862   9.432   3.351   1.262
22662TIP3    H167863   9.442   3.263   1.299
22662TIP3    H267864   9.463   3.409   1.331
22663TIP3   OH267865   1.731   4.404   0.901
22663TIP3    H167866   1.678   4.483   0.894
22663TIP3    H267867   1.669   4.334   0.922
22664TIP3   OH267868   0.684   3.872   1.117
22664TIP3    H167869   0.657   3.864   1.208
22664TIP3    H267870   0.613   3.833   1.067
22665TIP3   OH267871   1.225   3.712   1.163
22665TIP3    H167872   1.186   3.793   1.131
22665TIP3    H267873   1.160   3.644   1.143
22666TIP3   OH267874   1.912   3.851   0.872
22666TIP3    H167875   1.965   3.820   0.945
22666TIP3    H267876   1.968   3.839   0.795
22667TIP3   OH267877   1.309   4.225   1.195
22667TIP3    H167878   1.343   4.137   1.214
22667TIP3    H267879   1.233   4.209   1.140
22668TIP3   OH267880   1.584   4.639   0.868
22668TIP3    H167881   1.539   4.579   0.809
22668TIP3    H267882   1.516   4.698   0.899
22669TIP3   OH267883   2.248   3.983   1.189
22669TIP3    H167884   2.260   3.893   1.158
22669TIP3    H267885   2.318   4.033   1.148
22670TIP3   OH267886   1.131   3.901   1.663
22670TIP3    H167887   1.101   3.992   1.652
22670TIP3    H267888   1.159   3.875   1.575
22671TIP3   OH267889   1.543   3.406   1.373
22671TIP3    H167890   1.564   3.313   1.381
22671TIP3    H267891   1.494   3.427   1.453
22672TIP3   OH267892   1.737   4.878   0.709
22672TIP3    H167893   1.730   4.787   0.739
22672TIP3    H267894   1.715   4.931   0.786
22673TIP3   OH267895   1.460   4.006   0.365
22673TIP3    H167896   1.478   4.066   0.437
22673TIP3    H267897   1.546   3.969   0.343
22674TIP3   OH267898   1.950   4.408   0.748
22674TIP3    H167899   1.872   4.391   0.800
22674TIP3    H267900   2.022   4.370   0.800
22675TIP3   OH267901   1.041   4.274   1.078
22675TIP3    H167902   1.004   4.206   1.021
22675TIP3    H267903   1.101   4.322   1.022
22676TIP3   OH267904   1.735   4.083   0.409
22676TIP3    H167905   1.738   4.156   0.470
22676TIP3    H267906   1.736   4.123   0.322
22677TIP3   OH267907   2.157   3.334   0.436
22677TIP3    H167908   2.120   3.282   0.507
22677TIP3    H267909   2.161   3.423   0.470
22678TIP3   OH267910   0.950   4.113   0.866
22678TIP3    H167911   0.896   4.157   0.800
22678TIP3    H267912   0.913   4.026   0.874
22679TIP3   OH267913   2.064   4.840  -0.001
22679TIP3    H167914   2.105   4.883   0.074
22679TIP3    H267915   2.134   4.789  -0.042
22680TIP3   OH267916   1.535   4.932   0.126
22680TIP3    H167917   1.620   4.895   0.100
22680TIP3    H267918   1.535   4.925   0.222
22681TIP3   OH267919   1.677   5.108   0.541
22681TIP3    H167920   1.601   5.115   0.599
22681TIP3    H267921   1.728   5.035   0.576
22682TIP3   OH267922   1.455   3.526   1.606
22682TIP3    H167923   1.359   3.528   1.595
22682TIP3    H267924   1.483   3.615   1.586
22683TIP3   OH267925   1.725   4.173   0.154
22683TIP3    H167926   1.721   4.130   0.069
22683TIP3    H267927   1.792   4.241   0.144
22684TIP3   OH267928   1.542   3.551   0.540
22684TIP3    H167929   1.479   3.575   0.608
22684TIP3    H267930   1.503   3.475   0.497
22685TIP3   OH267931   1.120   3.970   1.072
22685TIP3    H167932   1.046   3.924   1.113
22685TIP3    H267933   1.133   3.925   0.989
22686TIP3   OH267934   1.619   4.017   0.739
22686TIP3    H167935   1.561   4.062   0.677
22686TIP3    H267936   1.681   3.970   0.683
22687TIP3   OH267937   1.731   4.015   0.999
22687TIP3    H167938   1.681   4.029   0.918
22687TIP3    H267939   1.807   3.964   0.971
22688TIP3   OH267940   1.191   3.568   0.515
22688TIP3    H167941   1.183   3.570   0.611
22688TIP3    H267942   1.112   3.612   0.483
22689TIP3   OH267943   0.722   3.621   1.315
22689TIP3    H167944   0.791   3.647   1.376
22689TIP3    H267945   0.766   3.564   1.252
22690TIP3   OH267946   0.668   3.579   0.887
22690TIP3    H167947   0.712   3.612   0.809
22690TIP3    H267948   0.610   3.650   0.914
22691TIP3   OH267949   1.474   3.673   1.067
22691TIP3    H167950   1.381   3.681   1.089
22691TIP3    H267951   1.519   3.672   1.151
22692TIP3   OH267952   0.943   3.792   1.160
22692TIP3    H167953   0.850   3.813   1.148
22692TIP3    H267954   0.949   3.699   1.135
22693TIP3   OH267955   1.170   3.818   0.848
22693TIP3    H167956   1.263   3.842   0.842
22693TIP3    H267957   1.134   3.835   0.761
22694TIP3   OH267958   1.940   3.990   1.282
22694TIP3    H167959   1.848   3.965   1.293
22694TIP3    H267960   1.988   3.934   1.344
22695TIP3   OH267961   1.061   3.851   0.602
22695TIP3    H167962   1.004   3.795   0.549
22695TIP3    H267963   1.108   3.905   0.538
22696TIP3   OH267964   1.663   3.988   1.269
22696TIP3    H167965   1.687   4.024   1.183
22696TIP3    H267966   1.673   4.061   1.329
22697TIP3   OH267967   1.027   3.538   1.086
22697TIP3    H167968   1.018   3.461   1.143
22697TIP3    H267969   1.046   3.501   1.000
22698TIP3   OH267970   1.623   3.997   1.577
22698TIP3    H167971   1.650   4.079   1.535
22698TIP3    H267972   1.611   4.021   1.669
22699TIP3   OH267973   1.744   3.680   0.417
22699TIP3    H167974   1.666   3.643   0.456
22699TIP3    H267975   1.767   3.753   0.475
22700TIP3   OH267976   1.807   3.889   0.583
22700TIP3    H167977   1.901   3.874   0.595
22700TIP3    H267978   1.802   3.950   0.510
22701TIP3   OH267979   1.542   4.580   0.423
22701TIP3    H167980   1.547   4.673   0.443
22701TIP3    H267981   1.510   4.540   0.504
22702TIP3   OH267982   2.299   4.079   0.411
22702TIP3    H167983   2.225   4.086   0.471
22702TIP3    H267984   2.318   4.170   0.387
22703TIP3   OH267985   2.117   4.780   0.380
22703TIP3    H167986   2.085   4.802   0.468
22703TIP3    H267987   2.040   4.745   0.336
22704TIP3   OH267988   0.682   4.001   0.660
22704TIP3    H167989   0.721   4.088   0.668
22704TIP3    H267990   0.604   4.004   0.716
22705TIP3   OH267991   1.735   4.455   0.279
22705TIP3    H167992   1.718   4.492   0.366
22705TIP3    H267993   1.649   4.449   0.239
22706TIP3   OH267994   2.095   5.149   0.129
22706TIP3    H167995   2.151   5.145   0.052
22706TIP3    H267996   2.063   5.239   0.132
22707TIP3   OH267997   1.868   4.558   0.532
22707TIP3    H167998   1.886   4.523   0.619
22707TIP3    H267999   1.903   4.647   0.535
22708TIP3   OH268000   1.037   4.515   0.248
22708TIP3    H168001   1.030   4.427   0.210
22708TIP3    H268002   1.111   4.509   0.309
22709TIP3   OH268003   1.033   4.510   0.568
22709TIP3    H168004   1.086   4.432   0.555
22709TIP3    H268005   1.089   4.582   0.541
22710TIP3   OH268006   0.771   4.257   0.713
22710TIP3    H168007   0.746   4.321   0.781
22710TIP3    H268008   0.783   4.310   0.634
22711TIP3   OH268009   1.752   3.600   0.719
22711TIP3    H168010   1.690   3.566   0.654
22711TIP3    H268011   1.711   3.681   0.751
22712TIP3   OH268012   1.198   4.722   0.512
22712TIP3    H168013   1.148   4.801   0.492
22712TIP3    H268014   1.281   4.755   0.548
22713TIP3   OH268015   1.562   3.765   0.827
22713TIP3    H168016   1.562   3.858   0.807
22713TIP3    H268017   1.531   3.759   0.918
22714TIP3   OH268018   1.608   3.477   0.929
22714TIP3    H168019   1.575   3.552   0.977
22714TIP3    H268020   1.672   3.513   0.868
22715TIP3   OH268021   1.121   3.545   0.803
22715TIP3    H168022   1.112   3.636   0.830
22715TIP3    H268023   1.216   3.530   0.802
22716TIP3   OH268024   0.784   4.433   0.502
22716TIP3    H168025   0.863   4.482   0.525
22716TIP3    H268026   0.813   4.371   0.435
22717TIP3   OH268027   0.724   3.725   0.661
22717TIP3    H168028   0.731   3.820   0.667
22717TIP3    H268029   0.656   3.710   0.594
22718TIP3   OH268030   1.002   3.409   1.515
22718TIP3    H168031   1.004   3.373   1.426
22718TIP3    H268032   1.024   3.336   1.571
22719TIP3   OH268033   1.157   4.669   0.057
22719TIP3    H168034   1.099   4.621   0.115
22719TIP3    H268035   1.228   4.700   0.113
22720TIP3   OH268036   1.755   4.799   0.049
22720TIP3    H168037   1.828   4.775   0.105
22720TIP3    H268038   1.724   4.716   0.012
22721TIP3   OH268039   0.916   4.231   0.374
22721TIP3    H168040   0.969   4.217   0.453
22721TIP3    H268041   0.980   4.235   0.303
22722TIP3   OH268042   1.481   4.478   0.157
22722TIP3    H168043   1.447   4.508   0.241
22722TIP3    H268044   1.450   4.387   0.150
22723TIP3   OH268045   1.108   4.202   0.574
22723TIP3    H168046   1.147   4.183   0.660
22723TIP3    H268047   1.143   4.134   0.516
22724TIP3   OH268048   1.193   3.997   0.412
22724TIP3    H168049   1.168   3.996   0.320
22724TIP3    H268050   1.289   3.990   0.410
22725TIP3   OH268051   1.927   4.335   0.065
22725TIP3    H168052   1.943   4.283  -0.014
22725TIP3    H268053   1.943   4.426   0.038
22726TIP3   OH268054   1.578   3.763   1.791
22726TIP3    H168055   1.517   3.834   1.769
22726TIP3    H268056   1.568   3.751   1.885
22727TIP3   OH268057   1.012   5.090   0.221
22727TIP3    H168058   1.107   5.082   0.234
22727TIP3    H268059   0.981   5.000   0.218
22728TIP3   OH268060   0.512   4.426   0.491
22728TIP3    H168061   0.605   4.439   0.512
22728TIP3    H268062   0.505   4.332   0.474
22729TIP3   OH268063   2.313   4.562   0.405
22729TIP3    H168064   2.385   4.533   0.461
22729TIP3    H268065   2.241   4.579   0.464
22730TIP3   OH268066   2.295   4.315   0.292
22730TIP3    H168067   2.280   4.329   0.198
22730TIP3    H268068   2.302   4.403   0.329
22731TIP3   OH268069   2.156   3.857   0.103
22731TIP3    H168070   2.077   3.886   0.055
22731TIP3    H268071   2.129   3.776   0.147
22732TIP3   OH268072   2.256   4.277   0.665
22732TIP3    H168073   2.194   4.214   0.628
22732TIP3    H268074   2.230   4.285   0.757
22733TIP3   OH268075   2.005   3.655   0.211
22733TIP3    H168076   2.084   3.606   0.231
22733TIP3    H268077   1.939   3.588   0.191
22734TIP3   OH268078   2.073   3.862   0.659
22734TIP3    H168079   2.137   3.792   0.647
22734TIP3    H268080   2.105   3.934   0.606
22735TIP3   OH268081   2.210   3.653   0.817
22735TIP3    H168082   2.299   3.631   0.843
22735TIP3    H268083   2.164   3.569   0.815
22736TIP3   OH268084   0.901   3.661   1.519
22736TIP3    H168085   0.931   3.571   1.511
22736TIP3    H268086   0.907   3.680   1.613
22737TIP3   OH268087   2.257   3.570   0.264
22737TIP3    H168088   2.294   3.487   0.234
22737TIP3    H268089   2.287   3.578   0.355
22738TIP3   OH268090   0.719   3.423   1.104
22738TIP3    H168091   0.632   3.417   1.145
22738TIP3    H268092   0.708   3.486   1.033
22739TIP3   OH268093   1.873   3.623   1.352
22739TIP3    H168094   1.799   3.658   1.402
22739TIP3    H268095   1.833   3.563   1.289
22740TIP3   OH268096   2.346   3.547   1.328
22740TIP3    H168097   2.345   3.637   1.361
22740TIP3    H268098   2.267   3.540   1.275
22741TIP3   OH268099   2.464   3.588   0.917
22741TIP3    H168100   2.519   3.533   0.973
22741TIP3    H268101   2.429   3.655   0.975
22742TIP3   OH268102   1.008   3.320   1.251
22742TIP3    H168103   0.924   3.281   1.270
22742TIP3    H268104   1.071   3.248   1.256
22743TIP3   OH268105   0.825   3.234   0.927
22743TIP3    H168106   0.854   3.285   0.852
22743TIP3    H268107   0.796   3.299   0.991
22744TIP3   OH268108   1.449   3.359   1.120
22744TIP3    H168109   1.506   3.397   1.053
22744TIP3    H268110   1.487   3.388   1.203
22745TIP3   OH268111   2.126   3.544   1.168
22745TIP3    H168112   2.065   3.602   1.123
22745TIP3    H268113   2.129   3.466   1.112
22746TIP3   OH268114   2.115   3.408   0.749
22746TIP3    H168115   2.046   3.437   0.689
22746TIP3    H268116   2.079   3.330   0.790
22747TIP3   OH268117   0.935   3.371   0.701
22747TIP3    H168118   0.987   3.312   0.647
22747TIP3    H268119   0.998   3.432   0.739
22748TIP3   OH268120   1.389   3.557   0.769
22748TIP3    H168121   1.431   3.481   0.808
22748TIP3    H268122   1.441   3.631   0.799
22749TIP3   OH268123   1.286   5.045   0.228
22749TIP3    H168124   1.342   5.101   0.281
22749TIP3    H268125   1.340   5.020   0.153
22750TIP3   OH268126   2.514   4.246   0.551
22750TIP3    H168127   2.575   4.199   0.607
22750TIP3    H268128   2.428   4.211   0.575
22751TIP3   OH268129   6.527   8.594   7.888
22751TIP3    H168130   6.567   8.607   7.974
22751TIP3    H268131   6.542   8.502   7.868
22752TIP3   OH268132   6.241   8.411   7.894
22752TIP3    H168133   6.253   8.451   7.980
22752TIP3    H268134   6.153   8.439   7.866
22753TIP3   OH268135   2.553   3.877   0.886
22753TIP3    H168136   2.626   3.829   0.926
22753TIP3    H268137   2.531   3.827   0.808
22754TIP3   OH268138   2.515   3.861   0.379
22754TIP3    H168139   2.522   3.820   0.293
22754TIP3    H268140   2.559   3.945   0.369
22755TIP3   OH268141   2.918   4.037   0.051
22755TIP3    H168142   2.843   4.023  -0.007
22755TIP3    H268143   2.974   4.097   0.003
22756TIP3   OH268144   2.521   4.268   0.105
22756TIP3    H168145   2.567   4.282   0.187
22756TIP3    H268146   2.455   4.202   0.125
22757TIP3   OH268147   2.980   3.940   0.301
22757TIP3    H168148   2.958   4.005   0.234
22757TIP3    H268149   3.039   3.880   0.256
22758TIP3   OH268150   2.601   3.987   0.088
22758TIP3    H168151   2.624   4.043   0.162
22758TIP3    H268152   2.505   3.982   0.091
22759TIP3   OH268153   6.016   9.078   7.753
22759TIP3    H168154   6.011   8.993   7.798
22759TIP3    H268155   6.100   9.114   7.779
22760TIP3   OH268156   6.337   8.805   7.878
22760TIP3    H168157   6.299   8.835   7.795
22760TIP3    H268158   6.396   8.734   7.853
22761TIP3   OH268159   8.827   0.080   7.952
22761TIP3    H168160   8.858   0.095   8.041
22761TIP3    H268161   8.835  -0.014   7.939
22762TIP3   OH268162   2.464   3.768   0.631
22762TIP3    H168163   2.409   3.692   0.611
22762TIP3    H268164   2.497   3.797   0.547
22763TIP3   OH268165   2.790   3.447   0.588
22763TIP3    H168166   2.769   3.527   0.637
22763TIP3    H268167   2.848   3.398   0.646
22764TIP3   OH268168   2.573   3.541   0.397
22764TIP3    H168169   2.660   3.580   0.400
22764TIP3    H268170   2.554   3.518   0.488
22765TIP3   OH268171   2.697   3.543   0.110
22765TIP3    H168172   2.749   3.518   0.033
22765TIP3    H268173   2.731   3.629   0.135
22766TIP3   OH268174   8.241   0.857   7.819
22766TIP3    H168175   8.321   0.819   7.782
22766TIP3    H268176   8.173   0.793   7.798
22767TIP3   OH268177   1.797   5.286   0.373
22767TIP3    H168178   1.784   5.233   0.294
22767TIP3    H268179   1.774   5.227   0.445
   9.80000   9.23953   8.00167   0.00000   0.00000  -3.26667   0.00000  -3.26667  -4.61976
