Title
68182
    1GLY      N    1   7.577   5.314   4.079
    1GLY    HT1    2   7.669   5.353   4.105
    1GLY    HT2    3   7.516   5.392   4.047
    1GLY    HT3    4   7.591   5.258   3.993
    1GLY     CA    5   7.510   5.239   4.186
    1GLY    HA1    6   7.494   5.307   4.269
    1GLY    HA2    7   7.576   5.157   4.209
    1GLY      C    8   7.373   5.186   4.145
    1GLY      O    9   7.319   5.225   4.042
    2PRO      N   10   7.306   5.091   4.218
    2PRO     CD   11   7.380   5.015   4.302
    2PRO    HD1   12   7.405   5.073   4.393
    2PRO    HD2   13   7.473   4.975   4.255
    2PRO     CA   14   7.171   5.042   4.188
    2PRO     HA   15   7.168   5.011   4.085
    2PRO     CB   16   7.154   4.927   4.288
    2PRO    HB1   17   7.105   4.838   4.242
    2PRO    HB2   18   7.090   4.957   4.374
    2PRO     CG   19   7.292   4.899   4.339
    2PRO    HG1   20   7.292   4.880   4.448
    2PRO    HG2   21   7.330   4.807   4.288
    2PRO      C   22   7.064   5.148   4.210
    2PRO      O   23   7.086   5.246   4.282
    3GLY      N   24   6.949   5.130   4.124
    3GLY     HN   25   6.934   5.045   4.074
    3GLY     CA   26   6.836   5.219   4.142
    3GLY    HA1   27   6.759   5.188   4.073
    3GLY    HA2   28   6.869   5.321   4.128
    3GLY      C   29   6.772   5.208   4.279
    3GLY      O   30   6.799   5.113   4.353
    4ASP      N   31   6.696   5.304   4.309
    4ASP     HN   32   6.675   5.380   4.249
    4ASP     CA   33   6.616   5.301   4.432
    4ASP     HA   34   6.686   5.284   4.513
    4ASP     CB   35   6.547   5.436   4.454
    4ASP    HB1   36   6.473   5.431   4.537
    4ASP    HB2   37   6.493   5.466   4.362
    4ASP     CG   38   6.643   5.547   4.490
    4ASP    OD1   39   6.756   5.518   4.535
    4ASP    OD2   40   6.606   5.666   4.475
    4ASP      C   41   6.513   5.189   4.429
    4ASP      O   42   6.461   5.156   4.322
    5PRO      N   43   6.469   5.127   4.542
    5PRO     CD   44   6.532   5.151   4.665
    5PRO    HD1   45   6.504   5.254   4.697
    5PRO    HD2   46   6.642   5.141   4.658
    5PRO     CA   47   6.360   5.029   4.544
    5PRO     HA   48   6.389   4.946   4.482
    5PRO     CB   49   6.347   4.995   4.693
    5PRO    HB1   50   6.333   4.886   4.709
    5PRO    HB2   51   6.261   5.048   4.740
    5PRO     CG   52   6.474   5.046   4.755
    5PRO    HG1   53   6.458   5.082   4.859
    5PRO    HG2   54   6.546   4.961   4.760
    5PRO      C   55   6.229   5.086   4.490
    5PRO      O   56   6.207   5.207   4.494
    6GLY      N   57   6.155   4.998   4.435
    6GLY     HN   58   6.183   4.902   4.430
    6GLY     CA   59   6.023   5.036   4.387
    6GLY    HA1   60   5.977   4.948   4.344
    6GLY    HA2   61   6.036   5.116   4.316
    6GLY      C   62   5.932   5.086   4.498
    6GLY      O   63   5.963   5.071   4.616
    7SER      N   64   5.828   5.128   4.450
    7SER     HN   65   5.810   5.137   4.353
    7SER     CA   66   5.724   5.169   4.544
    7SER     HA   67   5.767   5.229   4.623
    7SER     CB   68   5.617   5.254   4.473
    7SER    HB1   69   5.535   5.282   4.543
    7SER    HB2   70   5.572   5.195   4.390
    7SER     OG   71   5.676   5.371   4.418
    7SER    HG1   72   5.674   5.437   4.489
    7SER      C   73   5.658   5.048   4.610
    7SER      O   74   5.660   4.938   4.554
    8GLY      N   75   5.613   5.070   4.736
    8GLY     HN   76   5.617   5.160   4.780
    8GLY     CA   77   5.540   4.963   4.803
    8GLY    HA1   78   5.526   4.997   4.905
    8GLY    HA2   79   5.602   4.874   4.795
    8GLY      C   80   5.404   4.936   4.743
    8GLY      O   81   5.359   5.009   4.654
    9PRO      N   82   5.346   4.847   4.784
    9PRO     CD   83   5.392   4.765   4.901
    9PRO    HD1   84   5.416   4.827   4.990
    9PRO    HD2   85   5.478   4.703   4.869
    9PRO     CA   86   5.210   4.814   4.741
    9PRO     HA   87   5.206   4.808   4.633
    9PRO     CB   88   5.184   4.678   4.808
    9PRO    HB1   89   5.215   4.598   4.739
    9PRO    HB2   90   5.077   4.663   4.835
    9PRO     CG   91   5.272   4.678   4.929
    9PRO    HG1   92   5.215   4.724   5.013
    9PRO    HG2   93   5.300   4.575   4.960
    9PRO      C   94   5.107   4.917   4.785
    9PRO      O   95   5.131   4.992   4.880
   10GLY      N   96   5.000   4.915   4.717
   10GLY     HN   97   4.986   4.851   4.642
   10GLY     CA   98   4.892   5.005   4.752
   10GLY    HA1   99   4.819   4.996   4.673
   10GLY    HA2  100   4.929   5.106   4.763
   10GLY      C  101   4.821   4.966   4.880
   10GLY      O  102   4.841   4.856   4.932
   11ASP      N  103   4.746   5.057   4.931
   11ASP     HN  104   4.734   5.146   4.889
   11ASP     CA  105   4.662   5.033   5.048
   11ASP     HA  106   4.727   4.996   5.125
   11ASP     CB  107   4.595   5.163   5.094
   11ASP    HB1  108   4.517   5.144   5.171
   11ASP    HB2  109   4.546   5.212   5.008
   11ASP     CG  110   4.693   5.261   5.155
   11ASP    OD1  111   4.801   5.219   5.202
   11ASP    OD2  112   4.661   5.383   5.156
   11ASP      C  113   4.556   4.927   5.018
   11ASP      O  114   4.508   4.916   4.905
   12PRO      N  115   4.505   4.851   5.128
   12PRO     CD  116   4.560   4.850   5.254
   12PRO    HD1  117   4.536   4.945   5.305
   12PRO    HD2  118   4.670   4.836   5.249
   12PRO     CA  119   4.394   4.758   5.105
   12PRO     HA  120   4.424   4.690   5.027
   12PRO     CB  121   4.376   4.691   5.242
   12PRO    HB1  122   4.366   4.581   5.233
   12PRO    HB2  123   4.286   4.729   5.295
   12PRO     CG  124   4.497   4.731   5.320
   12PRO    HG1  125   4.473   4.750   5.427
   12PRO    HG2  126   4.570   4.646   5.317
   12PRO      C  127   4.266   4.828   5.061
   12PRO      O  128   4.247   4.946   5.091
   13GLY      N  129   4.187   4.753   4.984
   13GLY     HN  130   4.209   4.658   4.964
   13GLY     CA  131   4.058   4.806   4.943
   13GLY    HA1  132   4.010   4.730   4.885
   13GLY    HA2  133   4.075   4.897   4.887
   13GLY      C  134   3.967   4.838   5.059
   13GLY      O  135   3.992   4.796   5.173
   14SER      N  136   3.860   4.893   5.024
   14SER     HN  137   3.842   4.925   4.932
   14SER     CA  138   3.757   4.918   5.125
   14SER     HA  139   3.804   4.954   5.215
   14SER     CB  140   3.656   5.021   5.074
   14SER    HB1  141   3.578   5.040   5.151
   14SER    HB2  142   3.606   4.983   4.982
   14SER     OG  143   3.721   5.143   5.042
   14SER    HG1  144   3.758   5.176   5.125
   14SER      C  145   3.685   4.789   5.162
   14SER      O  146   3.680   4.695   5.083
   15GLY      N  147   3.647   4.771   5.294
   15GLY     HN  148   3.666   4.841   5.363
   15GLY     CA  149   3.570   4.656   5.337
   15GLY    HA1  150   3.554   4.667   5.443
   15GLY    HA2  151   3.629   4.569   5.310
   15GLY      C  152   3.434   4.647   5.271
   15GLY      O  153   3.392   4.740   5.202
   16PRO      N  154   3.363   4.555   5.275
   16PRO     CD  155   3.408   4.443   5.362
   16PRO    HD1  156   3.435   4.475   5.465
   16PRO    HD2  157   3.492   4.388   5.315
   16PRO     CA  158   3.226   4.541   5.228
   16PRO     HA  159   3.221   4.566   5.124
   16PRO     CB  160   3.194   4.394   5.257
   16PRO    HB1  161   3.221   4.335   5.166
   16PRO    HB2  162   3.087   4.374   5.279
   16PRO     CG  163   3.286   4.356   5.369
   16PRO    HG1  164   3.233   4.377   5.465
   16PRO    HG2  165   3.312   4.248   5.366
   16PRO      C  166   3.128   4.632   5.302
   16PRO      O  167   3.156   4.676   5.413
   17GLY      N  168   3.009   4.674   5.238
   17GLY     HN  169   2.986   4.634   5.149
   17GLY     CA  170   2.903   4.753   5.298
   17GLY    HA1  171   2.830   4.774   5.222
   17GLY    HA2  172   2.946   4.842   5.342
   17GLY      C  173   2.831   4.681   5.411
   17GLY      O  174   2.845   4.560   5.425
   18ASP      N  175   2.771   4.738   5.488
   18ASP     HN  176   2.772   4.837   5.489
   18ASP     CA  177   2.688   4.684   5.595
   18ASP     HA  178   2.753   4.619   5.651
   18ASP     CB  179   2.641   4.796   5.689
   18ASP    HB1  180   2.564   4.757   5.760
   18ASP    HB2  181   2.595   4.878   5.630
   18ASP     CG  182   2.753   4.853   5.774
   18ASP    OD1  183   2.857   4.786   5.791
   18ASP    OD2  184   2.737   4.966   5.825
   18ASP      C  185   2.568   4.609   5.539
   18ASP      O  186   2.514   4.646   5.435
   19PRO      N  187   2.545   4.471   5.593
   19PRO     CD  188   2.618   4.420   5.699
   19PRO    HD1  189   2.591   4.476   5.791
   19PRO    HD2  190   2.727   4.425   5.680
   19PRO     CA  191   2.432   4.389   5.548
   19PRO     HA  192   2.442   4.371   5.442
   19PRO     CB  193   2.442   4.264   5.635
   19PRO    HB1  194   2.435   4.172   5.573
   19PRO    HB2  195   2.360   4.261   5.710
   19PRO     CG  196   2.574   4.276   5.705
   19PRO    HG1  197   2.572   4.236   5.808
   19PRO    HG2  198   2.649   4.216   5.648
   19PRO      C  199   2.298   4.459   5.569
   19PRO    OT1  200   2.298   4.574   5.620
   19PRO    OT2  201   2.193   4.397   5.534
   20LIT    LIT  202   2.171   9.027   3.089
   21LIT    LIT  203   4.360   7.612   7.175
   22LIT    LIT  204   8.502   6.319   7.233
   23LIT    LIT  205   6.809   3.421   7.522
   24LIT    LIT  206   5.850   2.495   4.053
   25LIT    LIT  207   9.027   0.198   2.612
   26LIT    LIT  208   5.621   1.417   0.785
   27LIT    LIT  209   3.751   3.100   7.609
   28LIT    LIT  210   0.924   6.361   1.197
   29LIT    LIT  211   4.232   3.877   4.287
   30LIT    LIT  212   5.094   2.767   5.634
   31LIT    LIT  213   3.455   9.039   7.560
   32LIT    LIT  214   6.451   6.506   0.430
   33LIT    LIT  215   6.517   7.921   4.040
   34LIT    LIT  216   7.147   1.813   1.038
   35LIT    LIT  217   2.740   0.413   5.159
   36LIT    LIT  218   9.161   3.144   6.908
   37LIT    LIT  219   5.039   0.814   1.360
   38LIT    LIT  220   7.201   7.948   6.339
   39LIT    LIT  221   8.592   8.395   4.162
   40LIT    LIT  222   7.582   7.918   1.328
   41LIT    LIT  223   4.422   6.481   0.074
   42LIT    LIT  224   3.303   2.155   3.682
   43LIT    LIT  225   5.762   5.139   3.295
   44LIT    LIT  226   2.327   6.435   3.537
   45LIT    LIT  227   9.344   4.476   4.720
   46LIT    LIT  228   6.494   8.278   6.644
   47LIT    LIT  229   3.157   3.505   4.007
   48LIT    LIT  230   4.404   0.576   4.537
   49LIT    LIT  231   6.363   4.670   0.840
   50LIT    LIT  232   7.830   6.758   1.078
   51LIT    LIT  233   6.159   3.104   0.336
   52LIT    LIT  234   3.796   7.418   3.844
   53LIT    LIT  235   8.587   5.536   4.690
   54LIT    LIT  236   7.432   0.660   7.570
   55LIT    LIT  237   8.603   4.330   3.583
   56LIT    LIT  238   7.184   2.195   4.102
   57LIT    LIT  239   0.045   5.950   4.430
   58LIT    LIT  240   0.627   2.148   4.928
   59LIT    LIT  241   2.626   1.674   4.978
   60LIT    LIT  242   6.795   8.863   2.583
   61LIT    LIT  243   2.601   0.770   1.166
   62LIT    LIT  244   4.938   4.657   0.545
   63LIT    LIT  245   7.073   9.048   4.569
   64LIT    LIT  246   9.289   0.164   1.571
   65LIT    LIT  247   3.198   5.739   7.221
   66LIT    LIT  248   3.423   1.479   2.460
   67LIT    LIT  249   5.116   0.170   2.156
   68LIT    LIT  250   8.406   1.522   2.038
   69LIT    LIT  251   5.743   8.518   3.053
   70LIT    LIT  252   6.922   5.442   1.349
   71LIT    LIT  253   0.480   2.447   4.206
   72LIT    LIT  254   1.798   7.592   6.974
   73LIT    LIT  255   0.146   0.127   7.720
   74LIT    LIT  256   0.792   5.513   3.572
   75LIT    LIT  257   9.507   5.400   6.989
   76LIT    LIT  258   2.459   9.050   4.770
   77LIT    LIT  259   4.082   4.414   6.592
   78LIT    LIT  260   4.195   1.559   4.327
   79LIT    LIT  261   4.797   5.155   5.877
   80LIT    LIT  262   1.771   3.022   4.050
   81LIT    LIT  263   6.106   6.886   5.804
   82LIT    LIT  264   9.606   6.055   3.512
   83LIT    LIT  265   2.497   2.788   2.778
   84LIT    LIT  266   7.524   0.287   4.088
   85LIT    LIT  267   0.341   5.119   5.545
   86LIT    LIT  268   2.067   8.890   7.715
   87LIT    LIT  269   1.672   6.885   4.485
   88CLA    CLA  270   2.756   4.877   2.307
   89CLA    CLA  271   3.811   1.352   2.780
   90CLA    CLA  272   3.962   5.144   1.997
   91CLA    CLA  273   7.491   8.150   3.379
   92CLA    CLA  274   8.416   1.083   0.037
   93CLA    CLA  275   0.153   5.600   6.087
   94CLA    CLA  276   2.076   3.186   4.110
   95CLA    CLA  277   1.755   7.028   4.341
   96CLA    CLA  278   3.786   8.465   6.624
   97CLA    CLA  279   2.507   2.902   1.214
   98CLA    CLA  280   8.825   6.103   0.541
   99CLA    CLA  281   8.911   3.131   6.113
  100CLA    CLA  282   0.465   0.592   4.082
  101CLA    CLA  283   1.770   0.514   0.363
  102CLA    CLA  284   4.336   0.134   2.299
  103CLA    CLA  285   0.060   6.141   0.083
  104CLA    CLA  286   5.296   5.378   3.663
  105CLA    CLA  287   7.657   1.496   3.308
  106CLA    CLA  288   1.701   0.834   1.544
  107CLA    CLA  289   2.335   1.595   2.998
  108CLA    CLA  290   4.511   3.481   6.892
  109CLA    CLA  291   5.595   2.011   0.471
  110CLA    CLA  292   9.136   3.490   2.132
  111CLA    CLA  293   4.751   2.433   5.423
  112CLA    CLA  294   5.220   4.543   7.453
  113CLA    CLA  295   2.984   5.568   7.518
  114CLA    CLA  296   2.015   7.903   2.552
  115CLA    CLA  297   2.768   9.050   7.920
  116CLA    CLA  298   1.358   4.435   0.704
  117CLA    CLA  299   3.073   8.238   5.221
  118CLA    CLA  300   4.833   6.450   0.694
  119CLA    CLA  301   0.646   2.745   6.747
  120CLA    CLA  302   7.149   2.688   7.924
  121CLA    CLA  303   0.182   8.801   5.070
  122CLA    CLA  304   8.460   0.197   2.607
  123CLA    CLA  305   9.780   7.364   4.142
  124CLA    CLA  306   4.079   5.044   5.986
  125CLA    CLA  307   5.609   2.745   5.624
  126CLA    CLA  308   6.880   7.814   6.626
  127CLA    CLA  309   3.580   3.402   3.666
  128CLA    CLA  310   3.722   1.401   4.596
  129CLA    CLA  311   6.633   6.778   5.609
  130CLA    CLA  312   8.041   5.392   5.113
  131CLA    CLA  313   9.437   2.217   1.950
  132CLA    CLA  314   0.297   4.432   3.127
  133CLA    CLA  315   1.228   2.495   3.810
  134CLA    CLA  316   8.326   4.830   3.877
  135CLA    CLA  317   3.001   5.424   3.164
  136CLA    CLA  318   9.779   5.433   2.863
  137CLA    CLA  319   0.764   2.290   5.024
  138CLA    CLA  320   6.165   5.971   7.608
  139CLA    CLA  321   2.620   2.389   5.312
  140CLA    CLA  322   2.473   0.969   5.590
  141CLA    CLA  323   6.399   8.056   0.817
  142CLA    CLA  324   7.093   5.116   0.777
  143CLA    CLA  325   8.633   3.940   7.467
  144CLA    CLA  326   5.336   4.600   0.473
  145CLA    CLA  327   5.060   0.890   2.518
  146CLA    CLA  328   5.707   0.351   0.766
  147CLA    CLA  329   1.431   2.950   3.520
  148CLA    CLA  330   5.711   3.795   3.608
  149CLA    CLA  331   8.898   0.176   1.034
  150CLA    CLA  332   5.742   8.595   3.258
  151CLA    CLA  333   2.973   1.173   1.244
  152CLA    CLA  334   6.689   6.136   3.292
  153TIP3   OH2  335   4.584   0.076   1.706
  153TIP3    H1  336   4.496   0.042   1.724
  153TIP3    H2  337   4.568   0.151   1.648
  154TIP3   OH2  338   4.816   0.000   2.020
  154TIP3    H1  339   4.777  -0.071   1.969
  154TIP3    H2  340   4.790   0.080   1.974
  155TIP3   OH2  341   1.673   8.932   1.915
  155TIP3    H1  342   1.591   8.981   1.910
  155TIP3    H2  343   1.685   8.896   1.827
  156TIP3   OH2  344   1.397   8.730   2.169
  156TIP3    H1  345   1.388   8.803   2.231
  156TIP3    H2  346   1.310   8.690   2.167
  157TIP3   OH2  347   4.976   0.270   2.061
  157TIP3    H1  348   4.925   0.226   1.994
  157TIP3    H2  349   4.912   0.324   2.108
  158TIP3   OH2  350   1.631   8.680   2.330
  158TIP3    H1  351   1.553   8.709   2.284
  158TIP3    H2  352   1.651   8.595   2.293
  159TIP3   OH2  353   1.137   8.672   2.551
  159TIP3    H1  354   1.126   8.583   2.585
  159TIP3    H2  355   1.232   8.685   2.550
  160TIP3   OH2  356   4.684   0.670   2.140
  160TIP3    H1  357   4.679   0.698   2.049
  160TIP3    H2  358   4.765   0.708   2.173
  161TIP3   OH2  359   1.429   9.049   1.874
  161TIP3    H1  360   1.462   9.024   1.787
  161TIP3    H2  361   1.357   8.988   1.890
  162TIP3   OH2  362   0.987   9.095   2.208
  162TIP3    H1  363   1.009   9.055   2.292
  162TIP3    H2  364   0.999   9.189   2.222
  163TIP3   OH2  365   4.525   0.362   1.978
  163TIP3    H1  366   4.443   0.312   1.977
  163TIP3    H2  367   4.512   0.431   1.913
  164TIP3   OH2  368   4.556   0.324   1.578
  164TIP3    H1  369   4.508   0.379   1.517
  164TIP3    H2  370   4.648   0.347   1.566
  165TIP3   OH2  371   3.362   0.376   2.512
  165TIP3    H1  372   3.438   0.384   2.570
  165TIP3    H2  373   3.305   0.313   2.555
  166TIP3   OH2  374   3.804   0.329   2.599
  166TIP3    H1  375   3.894   0.313   2.626
  166TIP3    H2  376   3.797   0.288   2.512
  167TIP3   OH2  377   0.790   9.089   2.543
  167TIP3    H1  378   0.757   9.079   2.454
  167TIP3    H2  379   0.873   9.041   2.543
  168TIP3   OH2  380   1.280   9.090   2.140
  168TIP3    H1  381   1.333   9.161   2.103
  168TIP3    H2  382   1.196   9.132   2.161
  169TIP3   OH2  383   1.129   8.988   2.510
  169TIP3    H1  384   1.196   9.056   2.499
  169TIP3    H2  385   1.147   8.951   2.597
  170TIP3   OH2  386   1.399   8.702   2.592
  170TIP3    H1  387   1.455   8.628   2.616
  170TIP3    H2  388   1.460   8.771   2.567
  171TIP3   OH2  389   1.424   8.956   2.322
  171TIP3    H1  390   1.359   9.005   2.272
  171TIP3    H2  391   1.508   8.983   2.285
  172TIP3   OH2  392   4.808   0.418   1.542
  172TIP3    H1  393   4.822   0.463   1.625
  172TIP3    H2  394   4.842   0.478   1.475
  173TIP3   OH2  395   4.834   0.464   1.810
  173TIP3    H1  396   4.794   0.378   1.818
  173TIP3    H2  397   4.908   0.462   1.870
  174TIP3   OH2  398   4.881   0.129   2.380
  174TIP3    H1  399   4.803   0.128   2.436
  174TIP3    H2  400   4.918   0.216   2.391
  175TIP3   OH2  401   1.646   9.189   1.681
  175TIP3    H1  402   1.654   9.120   1.614
  175TIP3    H2  403   1.629   9.269   1.631
  176TIP3   OH2  404   4.733   0.220   1.877
  176TIP3    H1  405   4.661   0.265   1.919
  176TIP3    H2  406   4.692   0.162   1.813
  177TIP3   OH2  407   1.660   9.031   2.211
  177TIP3    H1  408   1.730   8.966   2.198
  177TIP3    H2  409   1.650   9.072   2.125
  178TIP3   OH2  410   1.843   8.827   2.239
  178TIP3    H1  411   1.775   8.772   2.277
  178TIP3    H2  412   1.924   8.776   2.248
  179TIP3   OH2  413   1.608   8.676   1.998
  179TIP3    H1  414   1.541   8.719   2.051
  179TIP3    H2  415   1.654   8.747   1.954
  180TIP3   OH2  416   4.102   0.403   2.270
  180TIP3    H1  417   4.146   0.354   2.339
  180TIP3    H2  418   4.171   0.420   2.206
  181TIP3   OH2  419   4.301   0.524   2.105
  181TIP3    H1  420   4.375   0.464   2.100
  181TIP3    H2  421   4.326   0.589   2.171
  182TIP3   OH2  422   4.274   0.349   1.810
  182TIP3    H1  423   4.186   0.322   1.836
  182TIP3    H2  424   4.283   0.438   1.845
  183TIP3   OH2  425   4.499   0.541   1.770
  183TIP3    H1  426   4.471   0.622   1.727
  183TIP3    H2  427   4.506   0.477   1.700
  184TIP3   OH2  428   4.760   0.411   2.139
  184TIP3    H1  429   4.678   0.375   2.104
  184TIP3    H2  430   4.741   0.504   2.151
  185TIP3   OH2  431   5.491   0.125   1.660
  185TIP3    H1  432   5.463   0.214   1.637
  185TIP3    H2  433   5.425   0.095   1.722
  186TIP3   OH2  434   5.706   0.240   1.809
  186TIP3    H1  435   5.650   0.303   1.855
  186TIP3    H2  436   5.645   0.184   1.762
  187TIP3   OH2  437   2.161   9.093   1.879
  187TIP3    H1  438   2.174   9.144   1.958
  187TIP3    H2  439   2.105   9.020   1.906
  188TIP3   OH2  440   5.498   0.407   1.893
  188TIP3    H1  441   5.473   0.412   1.801
  188TIP3    H2  442   5.423   0.365   1.936
  189TIP3   OH2  443   1.837   9.190   1.872
  189TIP3    H1  444   1.762   9.180   1.814
  189TIP3    H2  445   1.857   9.101   1.901
  190TIP3   OH2  446   4.940   0.171   1.510
  190TIP3    H1  447   5.023   0.198   1.547
  190TIP3    H2  448   4.882   0.246   1.523
  191TIP3   OH2  449   5.891   0.386   1.652
  191TIP3    H1  450   5.892   0.469   1.699
  191TIP3    H2  451   5.846   0.326   1.711
  192TIP3   OH2  452   5.290   0.135   1.844
  192TIP3    H1  453   5.343   0.113   1.921
  192TIP3    H2  454   5.223   0.067   1.841
  193TIP3   OH2  455   6.490   0.934   1.638
  193TIP3    H1  456   6.477   0.951   1.545
  193TIP3    H2  457   6.566   0.987   1.662
  194TIP3   OH2  458   5.434   0.044   2.084
  194TIP3    H1  459   5.517   0.087   2.104
  194TIP3    H2  460   5.420  -0.018   2.156
  195TIP3   OH2  461   1.945   8.962   1.993
  195TIP3    H1  462   1.984   8.957   2.080
  195TIP3    H2  463   1.862   8.915   2.001
  196TIP3   OH2  464   6.188   0.398   1.632
  196TIP3    H1  465   6.098   0.422   1.610
  196TIP3    H2  466   6.210   0.454   1.707
  197TIP3   OH2  467   5.669   0.497   1.513
  197TIP3    H1  468   5.701   0.553   1.443
  197TIP3    H2  469   5.747   0.457   1.551
  198TIP3   OH2  470   6.321   0.681   1.514
  198TIP3    H1  471   6.296   0.595   1.479
  198TIP3    H2  472   6.308   0.741   1.440
  199TIP3   OH2  473   5.142   0.304   1.635
  199TIP3    H1  474   5.192   0.246   1.692
  199TIP3    H2  475   5.158   0.392   1.669
  200TIP3   OH2  476   5.131   0.612   2.034
  200TIP3    H1  477   5.204   0.630   2.092
  200TIP3    H2  478   5.076   0.550   2.083
  201TIP3   OH2  479   5.596   0.587   2.087
  201TIP3    H1  480   5.690   0.576   2.101
  201TIP3    H2  481   5.577   0.532   2.010
  202TIP3   OH2  482   6.234   0.521   1.864
  202TIP3    H1  483   6.230   0.443   1.920
  202TIP3    H2  484   6.317   0.563   1.888
  203TIP3   OH2  485   5.849   0.110   2.013
  203TIP3    H1  486   5.820   0.135   1.926
  203TIP3    H2  487   5.917   0.044   1.998
  204TIP3   OH2  488   2.117   8.996   2.217
  204TIP3    H1  489   2.189   8.933   2.211
  204TIP3    H2  490   2.121   9.029   2.307
  205TIP3   OH2  491   6.201   0.045   2.015
  205TIP3    H1  492   6.273   0.073   1.957
  205TIP3    H2  493   6.243   0.032   2.100
  206TIP3   OH2  494   2.350   8.816   2.232
  206TIP3    H1  495   2.298   8.736   2.237
  206TIP3    H2  496   2.390   8.813   2.145
  207TIP3   OH2  497   4.862   0.301   1.257
  207TIP3    H1  498   4.890   0.217   1.292
  207TIP3    H2  499   4.923   0.364   1.295
  208TIP3   OH2  500   6.682   0.370   1.966
  208TIP3    H1  501   6.597   0.378   2.008
  208TIP3    H2  502   6.720   0.458   1.972
  209TIP3   OH2  503   5.251   0.298   2.105
  209TIP3    H1  504   5.203   0.355   2.045
  209TIP3    H2  505   5.304   0.358   2.157
  210TIP3   OH2  506   5.445   0.397   1.621
  210TIP3    H1  507   5.391   0.462   1.577
  210TIP3    H2  508   5.534   0.416   1.592
  211TIP3   OH2  509   5.907   0.640   1.754
  211TIP3    H1  510   5.945   0.640   1.842
  211TIP3    H2  511   5.970   0.689   1.701
  212TIP3   OH2  512   6.083   0.788   1.608
  212TIP3    H1  513   6.158   0.743   1.568
  212TIP3    H2  514   6.123   0.849   1.671
  213TIP3   OH2  515   5.132   0.640   1.642
  213TIP3    H1  516   5.045   0.670   1.614
  213TIP3    H2  517   5.151   0.690   1.721
  214TIP3   OH2  518   5.363   0.624   1.486
  214TIP3    H1  519   5.282   0.638   1.535
  214TIP3    H2  520   5.346   0.661   1.400
  215TIP3   OH2  521   5.764   0.662   1.317
  215TIP3    H1  522   5.702   0.683   1.247
  215TIP3    H2  523   5.789   0.747   1.354
  216TIP3   OH2  524   6.016   0.624   1.218
  216TIP3    H1  525   5.937   0.627   1.271
  216TIP3    H2  526   6.082   0.668   1.270
  217TIP3   OH2  527   6.235   0.800   1.281
  217TIP3    H1  528   6.215   0.889   1.251
  217TIP3    H2  529   6.307   0.772   1.224
  218TIP3   OH2  530   5.055   0.452   1.387
  218TIP3    H1  531   5.083   0.428   1.475
  218TIP3    H2  532   5.119   0.410   1.329
  219TIP3   OH2  533   5.237   0.337   1.229
  219TIP3    H1  534   5.261   0.245   1.225
  219TIP3    H2  535   5.321   0.383   1.235
  220TIP3   OH2  536   5.490   0.443   1.271
  220TIP3    H1  537   5.504   0.353   1.299
  220TIP3    H2  538   5.512   0.496   1.347
  221TIP3   OH2  539   6.565   0.670   1.657
  221TIP3    H1  540   6.499   0.631   1.600
  221TIP3    H2  541   6.548   0.764   1.654
  222TIP3   OH2  542   6.902   0.885   1.566
  222TIP3    H1  543   6.987   0.896   1.608
  222TIP3    H2  544   6.880   0.793   1.578
  223TIP3   OH2  545   2.628   1.577   2.161
  223TIP3    H1  546   2.574   1.503   2.134
  223TIP3    H2  547   2.611   1.644   2.096
  224TIP3   OH2  548   2.846   1.884   2.201
  224TIP3    H1  549   2.846   1.789   2.215
  224TIP3    H2  550   2.763   1.914   2.240
  225TIP3   OH2  551   2.534   2.234   2.291
  225TIP3    H1  552   2.530   2.255   2.198
  225TIP3    H2  553   2.611   2.281   2.323
  226TIP3   OH2  554   2.872   1.597   2.262
  226TIP3    H1  555   2.778   1.598   2.247
  226TIP3    H2  556   2.909   1.564   2.180
  227TIP3   OH2  557   2.363   1.924   2.155
  227TIP3    H1  558   2.275   1.886   2.149
  227TIP3    H2  559   2.362   1.995   2.090
  228TIP3   OH2  560   1.655   1.879   2.714
  228TIP3    H1  561   1.729   1.889   2.773
  228TIP3    H2  562   1.685   1.819   2.646
  229TIP3   OH2  563   2.298   1.783   2.482
  229TIP3    H1  564   2.277   1.731   2.559
  229TIP3    H2  565   2.364   1.845   2.511
  230TIP3   OH2  566   2.332   1.328   2.762
  230TIP3    H1  567   2.329   1.346   2.668
  230TIP3    H2  568   2.247   1.357   2.794
  231TIP3   OH2  569   2.548   1.049   2.792
  231TIP3    H1  570   2.530   0.981   2.727
  231TIP3    H2  571   2.580   1.123   2.740
  232TIP3   OH2  572   2.530   1.308   2.450
  232TIP3    H1  573   2.475   1.361   2.394
  232TIP3    H2  574   2.619   1.334   2.429
  233TIP3   OH2  575   2.693   1.942   1.696
  233TIP3    H1  576   2.646   1.996   1.758
  233TIP3    H2  577   2.705   1.997   1.619
  234TIP3   OH2  578   2.664   2.013   1.983
  234TIP3    H1  579   2.622   1.929   1.966
  234TIP3    H2  580   2.750   1.991   2.018
  235TIP3   OH2  581   2.711   1.686   2.543
  235TIP3    H1  582   2.641   1.693   2.607
  235TIP3    H2  583   2.752   1.772   2.542
  236TIP3   OH2  584   2.532   1.769   1.994
  236TIP3    H1  585   2.474   1.810   2.058
  236TIP3    H2  586   2.473   1.726   1.933
  237TIP3   OH2  587   2.785   1.358   2.368
  237TIP3    H1  588   2.863   1.304   2.383
  237TIP3    H2  589   2.819   1.442   2.337
  238TIP3   OH2  590   2.963   1.158   2.408
  238TIP3    H1  591   2.886   1.104   2.423
  238TIP3    H2  592   3.036   1.097   2.413
  239TIP3   OH2  593   3.183   0.569   2.673
  239TIP3    H1  594   3.231   0.488   2.659
  239TIP3    H2  595   3.204   0.623   2.596
  240TIP3   OH2  596   1.952   1.964   2.411
  240TIP3    H1  597   1.999   1.946   2.492
  240TIP3    H2  598   2.020   1.995   2.351
  241TIP3   OH2  599   2.146   2.093   2.258
  241TIP3    H1  600   2.216   2.028   2.249
  241TIP3    H2  601   2.180   2.156   2.322
  242TIP3   OH2  602   2.353   2.089   1.936
  242TIP3    H1  603   2.281   2.150   1.923
  242TIP3    H2  604   2.401   2.091   1.853
  243TIP3   OH2  605   2.601   1.967   2.300
  243TIP3    H1  606   2.524   1.929   2.258
  243TIP3    H2  607   2.584   2.061   2.301
  244TIP3   OH2  608   3.894   1.363   1.114
  244TIP3    H1  609   3.885   1.458   1.104
  244TIP3    H2  610   3.817   1.327   1.069
  245TIP3   OH2  611   3.861   1.330   1.439
  245TIP3    H1  612   3.853   1.290   1.526
  245TIP3    H2  613   3.845   1.258   1.378
  246TIP3   OH2  614   3.174   1.221   1.782
  246TIP3    H1  615   3.191   1.175   1.864
  246TIP3    H2  616   3.253   1.273   1.766
  247TIP3   OH2  617   4.102   1.632   1.130
  247TIP3    H1  618   4.098   1.565   1.198
  247TIP3    H2  619   4.129   1.711   1.176
  248TIP3   OH2  620   3.160   1.640   1.572
  248TIP3    H1  621   3.111   1.579   1.516
  248TIP3    H2  622   3.250   1.636   1.538
  249TIP3   OH2  623   3.752   2.099   1.140
  249TIP3    H1  624   3.800   2.031   1.093
  249TIP3    H2  625   3.747   2.067   1.230
  250TIP3   OH2  626   3.666   1.571   1.464
  250TIP3    H1  627   3.705   1.485   1.448
  250TIP3    H2  628   3.737   1.624   1.497
  251TIP3   OH2  629   4.676   0.885   1.491
  251TIP3    H1  630   4.704   0.963   1.539
  251TIP3    H2  631   4.685   0.908   1.399
  252TIP3   OH2  632   4.116   1.078   1.524
  252TIP3    H1  633   4.142   0.988   1.547
  252TIP3    H2  634   4.042   1.067   1.465
  253TIP3   OH2  635   4.749   1.090   1.661
  253TIP3    H1  636   4.667   1.134   1.641
  253TIP3    H2  637   4.764   1.109   1.753
  254TIP3   OH2  638   3.765   1.610   0.983
  254TIP3    H1  639   3.785   1.581   0.894
  254TIP3    H2  640   3.717   1.692   0.971
  255TIP3   OH2  641   3.460   1.471   1.775
  255TIP3    H1  642   3.399   1.541   1.796
  255TIP3    H2  643   3.528   1.513   1.721
  256TIP3   OH2  644   4.343   0.814   1.287
  256TIP3    H1  645   4.336   0.774   1.373
  256TIP3    H2  646   4.370   0.904   1.305
  257TIP3   OH2  647   3.334   1.699   1.817
  257TIP3    H1  648   3.306   1.776   1.766
  257TIP3    H2  649   3.264   1.688   1.882
  258TIP3   OH2  650   4.175   1.882   1.292
  258TIP3    H1  651   4.088   1.870   1.332
  258TIP3    H2  652   4.169   1.966   1.247
  259TIP3   OH2  653   4.466   0.786   1.653
  259TIP3    H1  654   4.381   0.820   1.625
  259TIP3    H2  655   4.527   0.814   1.584
  260TIP3   OH2  656   3.879   1.929   0.966
  260TIP3    H1  657   3.924   1.846   0.949
  260TIP3    H2  658   3.934   1.995   0.926
  261TIP3   OH2  659   4.032   1.723   0.877
  261TIP3    H1  660   4.043   1.650   0.816
  261TIP3    H2  661   4.059   1.687   0.962
  262TIP3   OH2  662   4.402   1.794   1.634
  262TIP3    H1  663   4.391   1.717   1.578
  262TIP3    H2  664   4.385   1.868   1.575
  263TIP3   OH2  665   4.597   1.432   1.477
  263TIP3    H1  666   4.514   1.480   1.488
  263TIP3    H2  667   4.627   1.457   1.390
  264TIP3   OH2  668   4.050   1.296   0.898
  264TIP3    H1  669   4.035   1.320   0.989
  264TIP3    H2  670   4.136   1.254   0.898
  265TIP3   OH2  671   4.302   1.317   1.786
  265TIP3    H1  672   4.297   1.393   1.845
  265TIP3    H2  673   4.221   1.321   1.735
  266TIP3   OH2  674   3.402   1.670   1.429
  266TIP3    H1  675   3.392   1.630   1.343
  266TIP3    H2  676   3.492   1.650   1.455
  267TIP3   OH2  677   3.418   1.235   1.635
  267TIP3    H1  678   3.465   1.227   1.552
  267TIP3    H2  679   3.449   1.317   1.672
  268TIP3   OH2  680   3.936   1.876   1.414
  268TIP3    H1  681   3.921   1.956   1.465
  268TIP3    H2  682   3.922   1.805   1.477
  269TIP3   OH2  683   3.545   1.798   1.959
  269TIP3    H1  684   3.492   1.860   2.009
  269TIP3    H2  685   3.482   1.753   1.902
  270TIP3   OH2  686   3.306   1.359   2.072
  270TIP3    H1  687   3.304   1.447   2.033
  270TIP3    H2  688   3.215   1.337   2.088
  271TIP3   OH2  689   3.609   1.836   0.964
  271TIP3    H1  690   3.688   1.886   0.986
  271TIP3    H2  691   3.551   1.900   0.923
  272TIP3   OH2  692   3.342   1.968   2.047
  272TIP3    H1  693   3.316   1.975   1.955
  272TIP3    H2  694   3.264   1.937   2.093
  273TIP3   OH2  695   4.214   1.743   0.280
  273TIP3    H1  696   4.215   1.838   0.290
  273TIP3    H2  697   4.303   1.716   0.301
  274TIP3   OH2  698   2.943   1.517   2.015
  274TIP3    H1  699   2.874   1.544   1.954
  274TIP3    H2  700   2.957   1.424   1.995
  275TIP3   OH2  701   4.638   2.136   1.683
  275TIP3    H1  702   4.639   2.041   1.696
  275TIP3    H2  703   4.558   2.165   1.726
  276TIP3   OH2  704   3.746   1.925   1.819
  276TIP3    H1  705   3.747   2.016   1.848
  276TIP3    H2  706   3.676   1.884   1.870
  277TIP3   OH2  707   3.501   2.057   0.771
  277TIP3    H1  708   3.433   2.038   0.706
  277TIP3    H2  709   3.482   2.146   0.800
  278TIP3   OH2  710   3.760   2.015   0.689
  278TIP3    H1  711   3.668   2.019   0.717
  278TIP3    H2  712   3.803   1.960   0.755
  279TIP3   OH2  713   4.532   1.269   1.957
  279TIP3    H1  714   4.453   1.285   1.905
  279TIP3    H2  715   4.548   1.175   1.948
  280TIP3   OH2  716   3.158   1.679   2.019
  280TIP3    H1  717   3.146   1.733   2.097
  280TIP3    H2  718   3.080   1.623   2.016
  281TIP3   OH2  719   4.066   0.628   1.966
  281TIP3    H1  720   4.131   0.590   2.024
  281TIP3    H2  721   3.983   0.586   1.991
  282TIP3   OH2  722   4.292   1.042   1.877
  282TIP3    H1  723   4.250   1.038   1.963
  282TIP3    H2  724   4.278   1.132   1.847
  283TIP3   OH2  725   3.447   1.013   1.793
  283TIP3    H1  726   3.394   1.044   1.866
  283TIP3    H2  727   3.439   1.081   1.726
  284TIP3   OH2  728   4.005   1.268   2.115
  284TIP3    H1  729   3.983   1.196   2.175
  284TIP3    H2  730   4.096   1.288   2.134
  285TIP3   OH2  731   3.275   1.058   2.001
  285TIP3    H1  732   3.296   1.115   2.074
  285TIP3    H2  733   3.228   0.984   2.040
  286TIP3   OH2  734   4.046   1.305   1.706
  286TIP3    H1  735   4.043   1.238   1.638
  286TIP3    H2  736   4.002   1.265   1.781
  287TIP3   OH2  737   4.150   0.787   1.554
  287TIP3    H1  738   4.137   0.802   1.648
  287TIP3    H2  739   4.063   0.765   1.521
  288TIP3   OH2  740   4.330   2.490   1.780
  288TIP3    H1  741   4.326   2.513   1.687
  288TIP3    H2  742   4.405   2.539   1.813
  289TIP3   OH2  743   3.847   1.126   1.628
  289TIP3    H1  744   3.854   1.123   1.723
  289TIP3    H2  745   3.780   1.061   1.606
  290TIP3   OH2  746   3.724   0.896   1.822
  290TIP3    H1  747   3.657   0.932   1.765
  290TIP3    H2  748   3.796   0.960   1.818
  291TIP3   OH2  749   4.365   1.576   1.471
  291TIP3    H1  750   4.388   1.626   1.392
  291TIP3    H2  751   4.281   1.535   1.450
  292TIP3   OH2  752   3.851   1.651   1.846
  292TIP3    H1  753   3.895   1.639   1.930
  292TIP3    H2  754   3.825   1.743   1.846
  293TIP3   OH2  755   3.057   1.270   2.167
  293TIP3    H1  756   3.040   1.263   2.261
  293TIP3    H2  757   3.027   1.187   2.130
  294TIP3   OH2  758   3.759   1.395   2.139
  294TIP3    H1  759   3.699   1.327   2.107
  294TIP3    H2  760   3.846   1.363   2.118
  295TIP3   OH2  761   4.022   1.915   1.740
  295TIP3    H1  762   3.927   1.917   1.747
  295TIP3    H2  763   4.053   1.968   1.813
  296TIP3   OH2  764   4.651   1.846   1.722
  296TIP3    H1  765   4.556   1.843   1.719
  296TIP3    H2  766   4.679   1.817   1.635
  297TIP3   OH2  767   4.138   1.803   0.543
  297TIP3    H1  768   4.117   1.741   0.613
  297TIP3    H2  769   4.132   1.751   0.463
  298TIP3   OH2  770   4.129   1.441   1.387
  298TIP3    H1  771   4.039   1.415   1.408
  298TIP3    H2  772   4.167   1.362   1.348
  299TIP3   OH2  773   3.529   2.013   1.612
  299TIP3    H1  774   3.567   2.084   1.560
  299TIP3    H2  775   3.603   1.976   1.660
  300TIP3   OH2  776   3.916   1.643   1.576
  300TIP3    H1  777   3.903   1.639   1.670
  300TIP3    H2  778   3.993   1.589   1.559
  301TIP3   OH2  779   4.162   2.178   1.619
  301TIP3    H1  780   4.084   2.122   1.613
  301TIP3    H2  781   4.150   2.243   1.550
  302TIP3   OH2  782   4.229   2.025   0.258
  302TIP3    H1  783   4.283   2.102   0.238
  302TIP3    H2  784   4.150   2.062   0.298
  303TIP3   OH2  785   4.066   1.506   0.720
  303TIP3    H1  786   4.076   1.426   0.771
  303TIP3    H2  787   4.135   1.501   0.653
  304TIP3   OH2  788   2.980   1.865   1.780
  304TIP3    H1  789   3.046   1.797   1.792
  304TIP3    H2  790   3.011   1.938   1.835
  305TIP3   OH2  791   4.085   0.850   1.811
  305TIP3    H1  792   4.158   0.897   1.851
  305TIP3    H2  793   4.071   0.775   1.869
  306TIP3   OH2  794   3.928   1.112   1.896
  306TIP3    H1  795   3.943   1.166   1.974
  306TIP3    H2  796   3.978   1.033   1.912
  307TIP3   OH2  797   4.559   1.005   1.872
  307TIP3    H1  798   4.464   1.001   1.883
  307TIP3    H2  799   4.575   0.962   1.788
  308TIP3   OH2  800   4.228   1.207   1.267
  308TIP3    H1  801   4.162   1.140   1.248
  308TIP3    H2  802   4.293   1.163   1.321
  309TIP3   OH2  803   4.185   2.154   1.212
  309TIP3    H1  804   4.140   2.198   1.140
  309TIP3    H2  805   4.278   2.169   1.194
  310TIP3   OH2  806   2.956   2.181   2.195
  310TIP3    H1  807   3.038   2.181   2.243
  310TIP3    H2  808   2.929   2.089   2.195
  311TIP3   OH2  809   3.438   2.144   2.240
  311TIP3    H1  810   3.533   2.133   2.249
  311TIP3    H2  811   3.415   2.090   2.165
  312TIP3   OH2  812   4.078   2.050   1.973
  312TIP3    H1  813   4.068   1.982   2.039
  312TIP3    H2  814   4.153   2.102   2.002
  313TIP3   OH2  815   3.680   1.670   2.173
  313TIP3    H1  816   3.651   1.692   2.085
  313TIP3    H2  817   3.723   1.585   2.164
  314TIP3   OH2  818   4.186   1.686   1.773
  314TIP3    H1  819   4.263   1.724   1.730
  314TIP3    H2  820   4.116   1.750   1.758
  315TIP3   OH2  821   3.553   1.224   2.029
  315TIP3    H1  822   3.475   1.272   2.055
  315TIP3    H2  823   3.547   1.217   1.934
  316TIP3   OH2  824   4.056   1.606   2.171
  316TIP3    H1  825   4.139   1.586   2.127
  316TIP3    H2  826   4.051   1.544   2.243
  317TIP3   OH2  827   3.662   0.991   2.164
  317TIP3    H1  828   3.647   0.905   2.125
  317TIP3    H2  829   3.630   1.052   2.098
  318TIP3   OH2  830   3.614   0.740   2.007
  318TIP3    H1  831   3.664   0.795   1.946
  318TIP3    H2  832   3.541   0.707   1.955
  319TIP3   OH2  833   3.701   1.360   1.699
  319TIP3    H1  834   3.794   1.383   1.706
  319TIP3    H2  835   3.662   1.397   1.778
  320TIP3   OH2  836   4.276   1.281   2.221
  320TIP3    H1  837   4.320   1.201   2.248
  320TIP3    H2  838   4.346   1.340   2.194
  321TIP3   OH2  839   4.318   1.541   1.958
  321TIP3    H1  840   4.257   1.589   1.902
  321TIP3    H2  841   4.404   1.559   1.921
  322TIP3   OH2  842   3.533   1.107   2.379
  322TIP3    H1  843   3.465   1.043   2.399
  322TIP3    H2  844   3.575   1.074   2.299
  323TIP3   OH2  845   3.804   0.539   2.033
  323TIP3    H1  846   3.746   0.615   2.029
  323TIP3    H2  847   3.751   0.467   1.998
  324TIP3   OH2  848   3.923   1.051   2.257
  324TIP3    H1  849   3.925   1.041   2.352
  324TIP3    H2  850   3.835   1.023   2.231
  325TIP3   OH2  851   4.163   0.996   2.109
  325TIP3    H1  852   4.089   0.998   2.170
  325TIP3    H2  853   4.237   0.966   2.162
  326TIP3   OH2  854   4.395   0.936   2.256
  326TIP3    H1  855   4.405   0.843   2.277
  326TIP3    H2  856   4.387   0.979   2.342
  327TIP3   OH2  857   3.386   0.885   2.441
  327TIP3    H1  858   3.388   0.794   2.409
  327TIP3    H2  859   3.420   0.879   2.531
  328TIP3   OH2  860   3.880   0.554   2.298
  328TIP3    H1  861   3.958   0.500   2.303
  328TIP3    H2  862   3.851   0.547   2.207
  329TIP3   OH2  863   3.957   0.769   2.453
  329TIP3    H1  864   3.935   0.698   2.393
  329TIP3    H2  865   3.881   0.827   2.448
  330TIP3   OH2  866   4.439   2.242   1.170
  330TIP3    H1  867   4.460   2.274   1.258
  330TIP3    H2  868   4.495   2.292   1.112
  331TIP3   OH2  869   4.467   2.261   1.452
  331TIP3    H1  870   4.422   2.177   1.446
  331TIP3    H2  871   4.541   2.244   1.511
  332TIP3   OH2  872   4.511   1.942   2.025
  332TIP3    H1  873   4.439   1.947   2.088
  332TIP3    H2  874   4.553   2.028   2.030
  333TIP3   OH2  875   4.341   1.479   0.660
  333TIP3    H1  876   4.420   1.527   0.635
  333TIP3    H2  877   4.372   1.409   0.717
  334TIP3   OH2  878   4.467   1.314   0.846
  334TIP3    H1  879   4.394   1.275   0.893
  334TIP3    H2  880   4.515   1.363   0.912
  335TIP3   OH2  881   4.511   1.713   1.281
  335TIP3    H1  882   4.563   1.650   1.231
  335TIP3    H2  883   4.500   1.787   1.221
  336TIP3   OH2  884   4.340   2.014   1.476
  336TIP3    H1  885   4.272   2.056   1.528
  336TIP3    H2  886   4.292   1.966   1.408
  337TIP3   OH2  887   4.285   1.181   1.003
  337TIP3    H1  888   4.277   1.086   1.001
  337TIP3    H2  889   4.269   1.205   1.094
  338TIP3   OH2  890   4.561   1.603   1.851
  338TIP3    H1  891   4.630   1.537   1.843
  338TIP3    H2  892   4.587   1.673   1.792
  339TIP3   OH2  893   4.746   1.407   1.867
  339TIP3    H1  894   4.671   1.361   1.906
  339TIP3    H2  895   4.820   1.348   1.880
  340TIP3   OH2  896   4.434   1.066   1.385
  340TIP3    H1  897   4.517   1.092   1.345
  340TIP3    H2  898   4.438   1.101   1.474
  341TIP3   OH2  899   4.503   1.210   1.614
  341TIP3    H1  900   4.431   1.241   1.670
  341TIP3    H2  901   4.533   1.289   1.569
  342TIP3   OH2  902   3.125   0.951   2.430
  342TIP3    H1  903   3.219   0.937   2.429
  342TIP3    H2  904   3.088   0.864   2.450
  343TIP3   OH2  905   4.930   0.769   2.156
  343TIP3    H1  906   5.009   0.738   2.111
  343TIP3    H2  907   4.928   0.863   2.135
  344TIP3   OH2  908   4.821   0.954   1.975
  344TIP3    H1  909   4.739   0.988   2.011
  344TIP3    H2  910   4.795   0.874   1.930
  345TIP3   OH2  911   4.029   2.106   0.831
  345TIP3    H1  912   4.074   2.093   0.748
  345TIP3    H2  913   4.077   2.178   0.873
  346TIP3   OH2  914   3.120   1.876   2.216
  346TIP3    H1  915   3.025   1.876   2.206
  346TIP3    H2  916   3.134   1.904   2.307
  347TIP3   OH2  917   3.300   1.972   1.765
  347TIP3    H1  918   3.248   2.041   1.725
  347TIP3    H2  919   3.385   1.978   1.723
  348TIP3   OH2  920   3.747   2.192   1.899
  348TIP3    H1  921   3.786   2.191   1.987
  348TIP3    H2  922   3.810   2.241   1.846
  349TIP3   OH2  923   3.927   2.342   1.758
  349TIP3    H1  924   3.996   2.291   1.715
  349TIP3    H2  925   3.974   2.400   1.818
  350TIP3   OH2  926   4.718   0.711   1.856
  350TIP3    H1  927   4.626   0.708   1.828
  350TIP3    H2  928   4.749   0.621   1.844
  351TIP3   OH2  929   2.978   2.209   1.786
  351TIP3    H1  930   2.891   2.236   1.757
  351TIP3    H2  931   2.984   2.241   1.876
  352TIP3   OH2  932   3.210   2.192   1.637
  352TIP3    H1  933   3.126   2.203   1.683
  352TIP3    H2  934   3.192   2.223   1.548
  353TIP3   OH2  935   3.638   2.213   1.440
  353TIP3    H1  936   3.570   2.230   1.374
  353TIP3    H2  937   3.652   2.298   1.482
  354TIP3   OH2  938   3.906   2.151   1.489
  354TIP3    H1  939   3.813   2.166   1.473
  354TIP3    H2  940   3.950   2.227   1.450
  355TIP3   OH2  941   4.117   2.344   1.405
  355TIP3    H1  942   4.101   2.427   1.361
  355TIP3    H2  943   4.141   2.283   1.335
  356TIP3   OH2  944   2.916   2.004   1.528
  356TIP3    H1  945   2.897   1.972   1.616
  356TIP3    H2  946   2.994   1.956   1.501
  357TIP3   OH2  947   3.108   1.859   1.406
  357TIP3    H1  948   3.128   1.778   1.453
  357TIP3    H2  949   3.194   1.898   1.388
  358TIP3   OH2  950   3.365   1.971   1.385
  358TIP3    H1  951   3.396   1.882   1.367
  358TIP3    H2  952   3.401   1.991   1.472
  359TIP3   OH2  953   4.476   0.497   1.398
  359TIP3    H1  954   4.505   0.544   1.320
  359TIP3    H2  955   4.381   0.493   1.390
  360TIP3   OH2  956   4.574   0.603   1.176
  360TIP3    H1  957   4.597   0.544   1.103
  360TIP3    H2  958   4.607   0.689   1.148
  361TIP3   OH2  959   4.168   2.070   0.590
  361TIP3    H1  960   4.159   1.976   0.581
  361TIP3    H2  961   4.117   2.107   0.518
  362TIP3   OH2  962   3.397   0.618   2.398
  362TIP3    H1  963   3.368   0.531   2.426
  362TIP3    H2  964   3.488   0.624   2.425
  363TIP3   OH2  965   3.645   0.609   2.508
  363TIP3    H1  966   3.725   0.585   2.462
  363TIP3    H2  967   3.633   0.540   2.573
  364TIP3   OH2  968   4.450   0.665   2.292
  364TIP3    H1  969   4.465   0.636   2.382
  364TIP3    H2  970   4.536   0.662   2.251
  365TIP3   OH2  971   4.393   2.223   1.780
  365TIP3    H1  972   4.316   2.188   1.735
  365TIP3    H2  973   4.376   2.317   1.787
  366TIP3   OH2  974   5.646   1.555   0.922
  366TIP3    H1  975   5.713   1.567   0.990
  366TIP3    H2  976   5.563   1.559   0.969
  367TIP3   OH2  977   4.967   1.486   1.289
  367TIP3    H1  978   4.989   1.418   1.353
  367TIP3    H2  979   5.028   1.557   1.307
  368TIP3   OH2  980   5.922   1.867   0.626
  368TIP3    H1  981   5.901   1.826   0.711
  368TIP3    H2  982   5.914   1.961   0.643
  369TIP3   OH2  983   4.929   1.897   1.021
  369TIP3    H1  984   4.918   1.802   1.025
  369TIP3    H2  985   5.024   1.910   1.015
  370TIP3   OH2  986   4.634   1.098   0.803
  370TIP3    H1  987   4.594   1.185   0.803
  370TIP3    H2  988   4.564   1.039   0.831
  371TIP3   OH2  989   4.704   1.394   0.982
  371TIP3    H1  990   4.748   1.316   1.015
  371TIP3    H2  991   4.750   1.415   0.901
  372TIP3   OH2  992   5.568   2.337   0.610
  372TIP3    H1  993   5.574   2.254   0.563
  372TIP3    H2  994   5.545   2.311   0.700
  373TIP3   OH2  995   5.459   1.815   0.978
  373TIP3    H1  996   5.484   1.783   0.891
  373TIP3    H2  997   5.539   1.854   1.013
  374TIP3   OH2  998   6.426   1.180   1.008
  374TIP3    H1  999   6.485   1.217   1.074
  374TIP3    H2 1000   6.432   1.239   0.933
  375TIP3   OH2 1001   5.871   1.315   1.025
  375TIP3    H1 1002   5.917   1.240   1.062
  375TIP3    H2 1003   5.840   1.285   0.939
  376TIP3   OH2 1004   5.204   0.977   0.971
  376TIP3    H1 1005   5.184   1.051   0.914
  376TIP3    H2 1006   5.154   0.904   0.934
  377TIP3   OH2 1007   4.844   1.180   1.081
  377TIP3    H1 1008   4.922   1.163   1.134
  377TIP3    H2 1009   4.856   1.126   1.003
  378TIP3   OH2 1010   5.296   1.371   0.856
  378TIP3    H1 1011   5.363   1.325   0.906
  378TIP3    H2 1012   5.235   1.302   0.828
  379TIP3   OH2 1013   6.553   1.370   1.154
  379TIP3    H1 1014   6.467   1.410   1.140
  379TIP3    H2 1015   6.562   1.363   1.249
  380TIP3   OH2 1016   5.200   0.962   1.411
  380TIP3    H1 1017   5.142   1.000   1.344
  380TIP3    H2 1018   5.154   0.976   1.494
  381TIP3   OH2 1019   5.306   1.739   1.208
  381TIP3    H1 1020   5.244   1.800   1.248
  381TIP3    H2 1021   5.348   1.790   1.138
  382TIP3   OH2 1022   5.077   1.079   1.194
  382TIP3    H1 1023   5.134   1.151   1.221
  382TIP3    H2 1024   5.124   1.037   1.122
  383TIP3   OH2 1025   5.134   1.932   1.304
  383TIP3    H1 1026   5.113   2.017   1.264
  383TIP3    H2 1027   5.059   1.913   1.360
  384TIP3   OH2 1028   4.554   1.623   0.556
  384TIP3    H1 1029   4.501   1.631   0.477
  384TIP3    H2 1030   4.566   1.714   0.586
  385TIP3   OH2 1031   5.975   2.142   0.781
  385TIP3    H1 1032   5.889   2.127   0.821
  385TIP3    H2 1033   5.965   2.224   0.734
  386TIP3   OH2 1034   6.237   1.048   1.162
  386TIP3    H1 1035   6.154   1.073   1.122
  386TIP3    H2 1036   6.303   1.076   1.099
  387TIP3   OH2 1037   5.564   0.714   1.135
  387TIP3    H1 1038   5.552   0.619   1.126
  387TIP3    H2 1039   5.485   0.744   1.180
  388TIP3   OH2 1040   5.838   1.931   0.323
  388TIP3    H1 1041   5.745   1.949   0.333
  388TIP3    H2 1042   5.875   1.945   0.410
  389TIP3   OH2 1043   6.198   2.052   1.121
  389TIP3    H1 1044   6.187   1.975   1.065
  389TIP3    H2 1045   6.180   2.126   1.063
  390TIP3   OH2 1046   5.496   1.436   0.366
  390TIP3    H1 1047   5.409   1.474   0.379
  390TIP3    H2 1048   5.534   1.486   0.294
  391TIP3   OH2 1049   6.391   1.686   0.961
  391TIP3    H1 1050   6.311   1.737   0.973
  391TIP3    H2 1051   6.422   1.710   0.873
  392TIP3   OH2 1052   5.802   1.540   0.401
  392TIP3    H1 1053   5.746   1.601   0.450
  392TIP3    H2 1054   5.891   1.568   0.421
  393TIP3   OH2 1055   6.071   1.571   1.264
  393TIP3    H1 1056   6.073   1.648   1.320
  393TIP3    H2 1057   5.987   1.577   1.218
  394TIP3   OH2 1058   5.068   1.517   0.768
  394TIP3    H1 1059   5.025   1.465   0.700
  394TIP3    H2 1060   5.148   1.469   0.787
  395TIP3   OH2 1061   5.196   1.936   0.917
  395TIP3    H1 1062   5.175   1.898   0.831
  395TIP3    H2 1063   5.284   1.904   0.936
  396TIP3   OH2 1064   5.228   1.491   1.119
  396TIP3    H1 1065   5.233   1.497   1.023
  396TIP3    H2 1066   5.250   1.580   1.149
  397TIP3   OH2 1067   5.741   2.131   0.909
  397TIP3    H1 1068   5.718   2.213   0.952
  397TIP3    H2 1069   5.713   2.063   0.971
  398TIP3   OH2 1070   5.340   2.052   1.445
  398TIP3    H1 1071   5.286   2.115   1.493
  398TIP3    H2 1072   5.277   1.998   1.398
  399TIP3   OH2 1073   5.092   1.614   1.541
  399TIP3    H1 1074   5.104   1.696   1.588
  399TIP3    H2 1075   5.002   1.588   1.560
  400TIP3   OH2 1076   5.137   2.220   1.534
  400TIP3    H1 1077   5.102   2.219   1.444
  400TIP3    H2 1078   5.061   2.199   1.589
  401TIP3   OH2 1079   4.936   1.364   0.570
  401TIP3    H1 1080   4.883   1.426   0.519
  401TIP3    H2 1081   4.878   1.289   0.584
  402TIP3   OH2 1082   4.718   1.749   1.480
  402TIP3    H1 1083   4.651   1.729   1.414
  402TIP3    H2 1084   4.752   1.663   1.505
  403TIP3   OH2 1085   4.572   1.945   1.114
  403TIP3    H1 1086   4.667   1.941   1.106
  403TIP3    H2 1087   4.556   2.024   1.167
  404TIP3   OH2 1088   6.435   2.393   1.170
  404TIP3    H1 1089   6.435   2.298   1.183
  404TIP3    H2 1090   6.355   2.422   1.213
  405TIP3   OH2 1091   5.540   2.183   1.304
  405TIP3    H1 1092   5.542   2.273   1.335
  405TIP3    H2 1093   5.471   2.141   1.356
  406TIP3   OH2 1094   5.296   2.320   0.242
  406TIP3    H1 1095   5.250   2.301   0.160
  406TIP3    H2 1096   5.265   2.406   0.268
  407TIP3   OH2 1097   4.739   2.159   0.641
  407TIP3    H1 1098   4.788   2.153   0.723
  407TIP3    H2 1099   4.680   2.083   0.643
  408TIP3   OH2 1100   8.755   6.846   7.929
  408TIP3    H1 1101   8.824   6.797   7.883
  408TIP3    H2 1102   8.787   6.855   8.019
  409TIP3   OH2 1103   5.555   2.260   0.190
  409TIP3    H1 1104   5.465   2.268   0.222
  409TIP3    H2 1105   5.601   2.215   0.260
  410TIP3   OH2 1106   6.327   1.528   1.442
  410TIP3    H1 1107   6.244   1.541   1.395
  410TIP3    H2 1108   6.347   1.436   1.431
  411TIP3   OH2 1109   4.922   1.932   1.471
  411TIP3    H1 1110   4.971   1.919   1.552
  411TIP3    H2 1111   4.848   1.871   1.477
  412TIP3   OH2 1112   5.316   0.764   1.253
  412TIP3    H1 1113   5.231   0.727   1.226
  412TIP3    H2 1114   5.293   0.843   1.302
  413TIP3   OH2 1115   5.854   0.880   1.454
  413TIP3    H1 1116   5.924   0.851   1.512
  413TIP3    H2 1117   5.774   0.860   1.501
  414TIP3   OH2 1118   6.092   1.304   1.367
  414TIP3    H1 1119   6.046   1.296   1.451
  414TIP3    H2 1120   6.068   1.391   1.335
  415TIP3   OH2 1121   5.252   1.272   1.275
  415TIP3    H1 1122   5.204   1.292   1.355
  415TIP3    H2 1123   5.242   1.351   1.221
  416TIP3   OH2 1124   5.133   1.164   0.789
  416TIP3    H1 1125   5.043   1.139   0.806
  416TIP3    H2 1126   5.151   1.132   0.701
  417TIP3   OH2 1127   5.802   1.522   1.601
  417TIP3    H1 1128   5.778   1.452   1.661
  417TIP3    H2 1129   5.894   1.540   1.621
  418TIP3   OH2 1130   5.073   1.300   1.483
  418TIP3    H1 1131   5.094   1.365   1.550
  418TIP3    H2 1132   5.059   1.219   1.531
  419TIP3   OH2 1133   4.675   0.824   1.057
  419TIP3    H1 1134   4.735   0.859   1.123
  419TIP3    H2 1135   4.726   0.826   0.975
  420TIP3   OH2 1136   5.784   1.523   1.165
  420TIP3    H1 1137   5.824   1.453   1.115
  420TIP3    H2 1138   5.759   1.483   1.249
  421TIP3   OH2 1139   5.471   1.025   0.869
  421TIP3    H1 1140   5.386   0.999   0.906
  421TIP3    H2 1141   5.533   0.962   0.905
  422TIP3   OH2 1142   4.898   1.036   0.854
  422TIP3    H1 1143   4.808   1.047   0.823
  422TIP3    H2 1144   4.922   0.947   0.829
  423TIP3   OH2 1145   5.179   1.055   0.546
  423TIP3    H1 1146   5.275   1.049   0.545
  423TIP3    H2 1147   5.154   1.051   0.454
  424TIP3   OH2 1148   5.937   1.052   1.044
  424TIP3    H1 1149   5.917   1.063   1.137
  424TIP3    H2 1150   5.870   0.991   1.013
  425TIP3   OH2 1151   6.127   2.746   1.267
  425TIP3    H1 1152   6.124   2.771   1.175
  425TIP3    H2 1153   6.202   2.794   1.303
  426TIP3   OH2 1154   5.085   1.857   1.692
  426TIP3    H1 1155   5.164   1.886   1.738
  426TIP3    H2 1156   5.018   1.852   1.760
  427TIP3   OH2 1157   5.577   1.274   0.911
  427TIP3    H1 1158   5.555   1.183   0.893
  427TIP3    H2 1159   5.580   1.280   1.006
  428TIP3   OH2 1160   5.065   0.793   0.819
  428TIP3    H1 1161   5.045   0.711   0.864
  428TIP3    H2 1162   5.125   0.768   0.749
  429TIP3   OH2 1163   5.525   1.225   1.216
  429TIP3    H1 1164   5.436   1.247   1.245
  429TIP3    H2 1165   5.582   1.270   1.278
  430TIP3   OH2 1166   5.272   1.596   0.337
  430TIP3    H1 1167   5.203   1.531   0.324
  430TIP3    H2 1168   5.254   1.634   0.423
  431TIP3   OH2 1169   6.163   1.835   0.957
  431TIP3    H1 1170   6.189   1.885   0.879
  431TIP3    H2 1171   6.078   1.797   0.934
  432TIP3   OH2 1172   5.659   1.916   1.326
  432TIP3    H1 1173   5.682   1.891   1.416
  432TIP3    H2 1174   5.621   2.004   1.334
  433TIP3   OH2 1175   4.961   1.623   1.009
  433TIP3    H1 1176   4.990   1.586   0.925
  433TIP3    H2 1177   4.979   1.554   1.072
  434TIP3   OH2 1178   5.408   1.741   0.137
  434TIP3    H1 1179   5.376   1.830   0.152
  434TIP3    H2 1180   5.372   1.690   0.210
  435TIP3   OH2 1181   4.834   1.536   1.618
  435TIP3    H1 1182   4.855   1.527   1.711
  435TIP3    H2 1183   4.764   1.472   1.603
  436TIP3   OH2 1184   5.558   1.653   1.634
  436TIP3    H1 1185   5.498   1.590   1.596
  436TIP3    H2 1186   5.645   1.620   1.611
  437TIP3   OH2 1187   5.818   2.170   1.226
  437TIP3    H1 1188   5.723   2.172   1.236
  437TIP3    H2 1189   5.851   2.222   1.299
  438TIP3   OH2 1190   6.447   2.101   1.210
  438TIP3    H1 1191   6.352   2.099   1.207
  438TIP3    H2 1192   6.475   2.074   1.123
  439TIP3   OH2 1193   5.938   2.049   0.040
  439TIP3    H1 1194   5.918   2.023   0.130
  439TIP3    H2 1195   5.874   2.002  -0.014
  440TIP3   OH2 1196   5.931   1.700   0.877
  440TIP3    H1 1197   5.841   1.685   0.903
  440TIP3    H2 1198   5.960   1.617   0.840
  441TIP3   OH2 1199   5.055   1.921   0.628
  441TIP3    H1 1200   5.061   2.001   0.576
  441TIP3    H2 1201   4.961   1.908   0.641
  442TIP3   OH2 1202   4.666   1.263   0.425
  442TIP3    H1 1203   4.704   1.351   0.419
  442TIP3    H2 1204   4.583   1.270   0.378
  443TIP3   OH2 1205   5.197   1.687   0.582
  443TIP3    H1 1206   5.166   1.777   0.590
  443TIP3    H2 1207   5.149   1.639   0.650
  444TIP3   OH2 1208   5.325   2.267   1.099
  444TIP3    H1 1209   5.362   2.339   1.049
  444TIP3    H2 1210   5.398   2.233   1.151
  445TIP3   OH2 1211   4.971   2.162   0.484
  445TIP3    H1 1212   4.887   2.169   0.529
  445TIP3    H2 1213   5.006   2.251   0.484
  446TIP3   OH2 1214   5.713   1.883   1.062
  446TIP3    H1 1215   5.697   1.894   1.156
  446TIP3    H2 1216   5.808   1.870   1.056
  447TIP3   OH2 1217   5.745   1.837  -0.025
  447TIP3    H1 1218   5.787   1.788   0.046
  447TIP3    H2 1219   5.680   1.892   0.019
  448TIP3   OH2 1220   5.958   2.433   1.106
  448TIP3    H1 1221   5.880   2.378   1.101
  448TIP3    H2 1222   5.945   2.499   1.038
  449TIP3   OH2 1223   9.261   6.893   7.815
  449TIP3    H1 1224   9.324   6.940   7.761
  449TIP3    H2 1225   9.191   6.957   7.832
  450TIP3   OH2 1226   5.045   1.041   1.627
  450TIP3    H1 1227   4.951   1.053   1.644
  450TIP3    H2 1228   5.077   0.990   1.701
  451TIP3   OH2 1229   5.863   1.703   0.189
  451TIP3    H1 1230   5.811   1.659   0.256
  451TIP3    H2 1231   5.884   1.789   0.227
  452TIP3   OH2 1232   4.765   2.129   1.259
  452TIP3    H1 1233   4.813   2.053   1.291
  452TIP3    H2 1234   4.785   2.199   1.321
  453TIP3   OH2 1235   8.306   6.397   7.937
  453TIP3    H1 1236   8.369   6.326   7.922
  453TIP3    H2 1237   8.292   6.395   8.032
  454TIP3   OH2 1238   5.002   1.780   0.212
  454TIP3    H1 1239   5.072   1.754   0.273
  454TIP3    H2 1240   5.003   1.875   0.214
  455TIP3   OH2 1241   4.762   1.518   0.425
  455TIP3    H1 1242   4.697   1.551   0.487
  455TIP3    H2 1243   4.762   1.582   0.354
  456TIP3   OH2 1244   5.887   1.106   1.305
  456TIP3    H1 1245   5.963   1.147   1.346
  456TIP3    H2 1246   5.870   1.029   1.358
  457TIP3   OH2 1247   5.262   1.970   0.161
  457TIP3    H1 1248   5.183   2.004   0.203
  457TIP3    H2 1249   5.286   2.037   0.097
  458TIP3   OH2 1250   5.455   1.054   0.580
  458TIP3    H1 1251   5.546   1.056   0.550
  458TIP3    H2 1252   5.461   1.030   0.673
  459TIP3   OH2 1253   5.728   1.364   1.381
  459TIP3    H1 1254   5.739   1.416   1.460
  459TIP3    H2 1255   5.778   1.284   1.398
  460TIP3   OH2 1256   4.999   2.050   0.231
  460TIP3    H1 1257   4.975   2.119   0.168
  460TIP3    H2 1258   4.988   2.092   0.316
  461TIP3   OH2 1259   6.358   1.267   1.350
  461TIP3    H1 1260   6.264   1.268   1.367
  461TIP3    H2 1261   6.370   1.200   1.283
  462TIP3   OH2 1262   5.978   1.444   0.775
  462TIP3    H1 1263   5.966   1.354   0.746
  462TIP3    H2 1264   6.068   1.447   0.808
  463TIP3   OH2 1265   4.730   1.698   0.220
  463TIP3    H1 1266   4.798   1.764   0.233
  463TIP3    H2 1267   4.763   1.641   0.151
  464TIP3   OH2 1268   5.982   2.413   0.699
  464TIP3    H1 1269   5.934   2.458   0.630
  464TIP3    H2 1270   6.074   2.431   0.680
  465TIP3   OH2 1271   5.056   0.677   1.228
  465TIP3    H1 1272   5.026   0.640   1.145
  465TIP3    H2 1273   5.048   0.606   1.291
  466TIP3   OH2 1274   4.594   1.900   0.610
  466TIP3    H1 1275   4.524   1.928   0.668
  466TIP3    H2 1276   4.571   1.937   0.524
  467TIP3   OH2 1277   4.753   2.435   1.680
  467TIP3    H1 1278   4.836   2.437   1.727
  467TIP3    H2 1279   4.729   2.342   1.678
  468TIP3   OH2 1280   5.236   2.403   1.722
  468TIP3    H1 1281   5.329   2.384   1.733
  468TIP3    H2 1282   5.208   2.346   1.650
  469TIP3   OH2 1283   8.478   6.602   7.868
  469TIP3    H1 1284   8.409   6.539   7.889
  469TIP3    H2 1285   8.544   6.552   7.821
  470TIP3   OH2 1286   5.878   2.305   1.456
  470TIP3    H1 1287   5.865   2.239   1.524
  470TIP3    H2 1288   5.950   2.359   1.488
  471TIP3   OH2 1289   8.974   6.710   7.843
  471TIP3    H1 1290   8.979   6.623   7.803
  471TIP3    H2 1291   9.021   6.767   7.784
  472TIP3   OH2 1292   4.883   1.843   1.878
  472TIP3    H1 1293   4.900   1.750   1.889
  472TIP3    H2 1294   4.796   1.847   1.837
  473TIP3   OH2 1295   4.861   1.492   0.067
  473TIP3    H1 1296   4.925   1.470   0.135
  473TIP3    H2 1297   4.913   1.531  -0.003
  474TIP3   OH2 1298   5.493   1.929   1.652
  474TIP3    H1 1299   5.448   1.944   1.569
  474TIP3    H2 1300   5.522   1.837   1.647
  475TIP3   OH2 1301   8.536   6.248   7.918
  475TIP3    H1 1302   8.553   6.296   7.999
  475TIP3    H2 1303   8.618   6.251   7.870
  476TIP3   OH2 1304   5.980   1.936   1.251
  476TIP3    H1 1305   6.057   1.980   1.214
  476TIP3    H2 1306   5.911   2.002   1.251
  477TIP3   OH2 1307   5.007   1.578   1.862
  477TIP3    H1 1308   5.072   1.508   1.850
  477TIP3    H2 1309   5.025   1.613   1.949
  478TIP3   OH2 1310   5.083   1.401   0.312
  478TIP3    H1 1311   5.043   1.363   0.391
  478TIP3    H2 1312   5.070   1.334   0.245
  479TIP3   OH2 1313   5.338   1.466   1.523
  479TIP3    H1 1314   5.261   1.521   1.528
  479TIP3    H2 1315   5.384   1.496   1.444
  480TIP3   OH2 1316   5.854   1.863   1.657
  480TIP3    H1 1317   5.938   1.843   1.616
  480TIP3    H2 1318   5.847   1.800   1.729
  481TIP3   OH2 1319   5.461   1.250   1.648
  481TIP3    H1 1320   5.459   1.171   1.594
  481TIP3    H2 1321   5.416   1.316   1.595
  482TIP3   OH2 1322   5.459   1.041   1.450
  482TIP3    H1 1323   5.487   1.074   1.365
  482TIP3    H2 1324   5.367   1.017   1.438
  483TIP3   OH2 1325   5.491   1.570   1.321
  483TIP3    H1 1326   5.577   1.590   1.284
  483TIP3    H2 1327   5.433   1.638   1.286
  484TIP3   OH2 1328   6.073   1.538   1.710
  484TIP3    H1 1329   6.118   1.456   1.728
  484TIP3    H2 1330   6.142   1.597   1.681
  485TIP3   OH2 1331   6.113   1.794   1.441
  485TIP3    H1 1332   6.053   1.844   1.386
  485TIP3    H2 1333   6.200   1.812   1.405
  486TIP3   OH2 1334   5.338   1.365   1.875
  486TIP3    H1 1335   5.268   1.304   1.897
  486TIP3    H2 1336   5.373   1.333   1.792
  487TIP3   OH2 1337   5.592   0.808   1.526
  487TIP3    H1 1338   5.542   0.886   1.504
  487TIP3    H2 1339   5.530   0.736   1.515
  488TIP3   OH2 1340   5.718   1.306   1.743
  488TIP3    H1 1341   5.712   1.296   1.838
  488TIP3    H2 1342   5.630   1.282   1.711
  489TIP3   OH2 1343   5.958   1.251   1.596
  489TIP3    H1 1344   5.885   1.255   1.657
  489TIP3    H2 1345   6.032   1.222   1.650
  490TIP3   OH2 1346   6.189   1.195   1.746
  490TIP3    H1 1347   6.202   1.101   1.762
  490TIP3    H2 1348   6.184   1.234   1.833
  491TIP3   OH2 1349   5.176   1.145   1.920
  491TIP3    H1 1350   5.182   1.054   1.890
  491TIP3    H2 1351   5.216   1.144   2.007
  492TIP3   OH2 1352   5.688   0.808   1.782
  492TIP3    H1 1353   5.757   0.741   1.779
  492TIP3    H2 1354   5.649   0.805   1.695
  493TIP3   OH2 1355   5.754   1.027   1.939
  493TIP3    H1 1356   5.732   0.956   1.878
  493TIP3    H2 1357   5.678   1.085   1.936
  494TIP3   OH2 1358   4.963   2.250   0.044
  494TIP3    H1 1359   5.057   2.249   0.022
  494TIP3    H2 1360   4.922   2.294  -0.031
  495TIP3   OH2 1361   4.475   1.603   0.278
  495TIP3    H1 1362   4.560   1.645   0.266
  495TIP3    H2 1363   4.434   1.608   0.191
  496TIP3   OH2 1364   4.371   2.244   0.668
  496TIP3    H1 1365   4.302   2.187   0.634
  496TIP3    H2 1366   4.414   2.192   0.736
  497TIP3   OH2 1367   4.507   2.101   0.859
  497TIP3    H1 1368   4.491   2.027   0.917
  497TIP3    H2 1369   4.556   2.163   0.913
  498TIP3   OH2 1370   6.233   2.507   0.655
  498TIP3    H1 1371   6.259   2.534   0.744
  498TIP3    H2 1372   6.302   2.541   0.599
  499TIP3   OH2 1373   6.264   2.517   0.938
  499TIP3    H1 1374   6.218   2.433   0.934
  499TIP3    H2 1375   6.338   2.501   0.997
  500TIP3   OH2 1376   6.307   2.198   1.512
  500TIP3    H1 1377   6.235   2.204   1.575
  500TIP3    H2 1378   6.349   2.284   1.516
  501TIP3   OH2 1379   6.311   1.968   0.768
  501TIP3    H1 1380   6.355   1.906   0.710
  501TIP3    H2 1381   6.296   2.045   0.713
  502TIP3   OH2 1382   6.137   2.271   0.964
  502TIP3    H1 1383   6.069   2.313   1.016
  502TIP3    H2 1384   6.089   2.224   0.895
  503TIP3   OH2 1385   6.141   1.385   0.537
  503TIP3    H1 1386   6.203   1.380   0.464
  503TIP3    H2 1387   6.147   1.476   0.567
  504TIP3   OH2 1388   4.698   1.507   1.229
  504TIP3    H1 1389   4.690   1.478   1.139
  504TIP3    H2 1390   4.792   1.508   1.246
  505TIP3   OH2 1391   6.358   1.858   1.337
  505TIP3    H1 1392   6.428   1.793   1.330
  505TIP3    H2 1393   6.385   1.930   1.280
  506TIP3   OH2 1394   6.544   1.662   1.356
  506TIP3    H1 1395   6.468   1.618   1.393
  506TIP3    H2 1396   6.617   1.602   1.372
  507TIP3   OH2 1397   6.216   1.361   0.871
  507TIP3    H1 1398   6.300   1.369   0.827
  507TIP3    H2 1399   6.236   1.371   0.964
  508TIP3   OH2 1400   6.296   1.473   1.110
  508TIP3    H1 1401   6.217   1.500   1.158
  508TIP3    H2 1402   6.325   1.552   1.064
  509TIP3   OH2 1403   4.913   1.198   1.899
  509TIP3    H1 1404   5.008   1.194   1.904
  509TIP3    H2 1405   4.884   1.116   1.939
  510TIP3   OH2 1406   6.734   1.074   1.665
  510TIP3    H1 1407   6.795   1.007   1.636
  510TIP3    H2 1408   6.713   1.123   1.586
  511TIP3   OH2 1409   4.875   0.887   1.229
  511TIP3    H1 1410   4.933   0.812   1.244
  511TIP3    H2 1411   4.934   0.962   1.231
  512TIP3   OH2 1412   4.679   1.160   1.307
  512TIP3    H1 1413   4.726   1.159   1.224
  512TIP3    H2 1414   4.699   1.246   1.345
  513TIP3   OH2 1415   6.613   1.206   1.460
  513TIP3    H1 1416   6.529   1.240   1.490
  513TIP3    H2 1417   6.591   1.131   1.406
  514TIP3   OH2 1418   5.808   2.392   0.312
  514TIP3    H1 1419   5.849   2.352   0.235
  514TIP3    H2 1420   5.882   2.409   0.372
  515TIP3   OH2 1421   4.874   0.737   1.620
  515TIP3    H1 1422   4.831   0.739   1.705
  515TIP3    H2 1423   4.812   0.781   1.561
  516TIP3   OH2 1424   4.917   2.169   1.702
  516TIP3    H1 1425   4.827   2.143   1.683
  516TIP3    H2 1426   4.928   2.151   1.795
  517TIP3   OH2 1427   5.097   2.203   1.245
  517TIP3    H1 1428   5.044   2.275   1.211
  517TIP3    H2 1429   5.182   2.215   1.203
  518TIP3   OH2 1430   5.545   2.447   1.385
  518TIP3    H1 1431   5.581   2.447   1.473
  518TIP3    H2 1432   5.607   2.499   1.334
  519TIP3   OH2 1433   5.723   2.600   1.244
  519TIP3    H1 1434   5.792   2.547   1.204
  519TIP3    H2 1435   5.770   2.657   1.305
  520TIP3   OH2 1436   6.489   0.978   1.360
  520TIP3    H1 1437   6.417   0.965   1.297
  520TIP3    H2 1438   6.553   0.911   1.336
  521TIP3   OH2 1439   4.772   2.463   1.271
  521TIP3    H1 1440   4.685   2.493   1.245
  521TIP3    H2 1441   4.783   2.494   1.361
  522TIP3   OH2 1442   5.008   2.440   1.128
  522TIP3    H1 1443   4.925   2.452   1.175
  522TIP3    H2 1444   4.990   2.472   1.040
  523TIP3   OH2 1445   5.434   2.471   0.926
  523TIP3    H1 1446   5.364   2.488   0.863
  523TIP3    H2 1447   5.448   2.554   0.970
  524TIP3   OH2 1448   5.701   2.407   0.977
  524TIP3    H1 1449   5.608   2.420   0.959
  524TIP3    H2 1450   5.744   2.482   0.937
  525TIP3   OH2 1451   5.916   2.601   0.893
  525TIP3    H1 1452   5.900   2.683   0.847
  525TIP3    H2 1453   5.938   2.538   0.824
  526TIP3   OH2 1454   4.687   2.253   1.017
  526TIP3    H1 1455   4.709   2.230   1.107
  526TIP3    H2 1456   4.755   2.211   0.965
  527TIP3   OH2 1457   4.879   2.124   0.872
  527TIP3    H1 1458   4.892   2.043   0.921
  527TIP3    H2 1459   4.967   2.163   0.868
  528TIP3   OH2 1460   5.145   2.222   0.876
  528TIP3    H1 1461   5.174   2.133   0.858
  528TIP3    H2 1462   5.184   2.244   0.960
  529TIP3   OH2 1463   5.722   0.878   0.966
  529TIP3    H1 1464   5.675   0.825   1.031
  529TIP3    H2 1465   5.760   0.813   0.907
  530TIP3   OH2 1466   4.982   0.566   0.982
  530TIP3    H1 1467   4.894   0.531   0.967
  530TIP3    H2 1468   5.039   0.490   0.971
  531TIP3   OH2 1469   4.470   2.023   0.405
  531TIP3    H1 1470   4.388   1.988   0.372
  531TIP3    H2 1471   4.458   2.118   0.402
  532TIP3   OH2 1472   8.493   6.844   7.983
  532TIP3    H1 1473   8.583   6.868   7.959
  532TIP3    H2 1474   8.476   6.764   7.934
  533TIP3   OH2 1475   5.958   2.323   0.090
  533TIP3    H1 1476   5.967   2.231   0.065
  533TIP3    H2 1477   5.909   2.364   0.019
  534TIP3   OH2 1478   5.182   0.863   1.861
  534TIP3    H1 1479   5.141   0.799   1.920
  534TIP3    H2 1480   5.273   0.868   1.891
  535TIP3   OH2 1481   5.427   0.850   1.985
  535TIP3    H1 1482   5.514   0.834   1.947
  535TIP3    H2 1483   5.418   0.783   2.053
  536TIP3   OH2 1484   4.557   2.056   0.065
  536TIP3    H1 1485   4.533   2.098   0.148
  536TIP3    H2 1486   4.646   2.026   0.079
  537TIP3   OH2 1487   6.248   0.926   1.779
  537TIP3    H1 1488   6.266   0.894   1.868
  537TIP3    H2 1489   6.332   0.917   1.733
  538TIP3   OH2 1490   6.190   2.479   1.266
  538TIP3    H1 1491   6.112   2.444   1.222
  538TIP3    H2 1492   6.173   2.573   1.274
  539TIP3   OH2 1493   6.752   1.760   0.805
  539TIP3    H1 1494   6.789   1.681   0.846
  539TIP3    H2 1495   6.823   1.824   0.807
  540TIP3   OH2 1496   6.724   2.172   0.515
  540TIP3    H1 1497   6.711   2.080   0.539
  540TIP3    H2 1498   6.818   2.180   0.500
  541TIP3   OH2 1499   7.374   2.574   0.126
  541TIP3    H1 1500   7.358   2.482   0.105
  541TIP3    H2 1501   7.344   2.585   0.216
  542TIP3   OH2 1502   7.105   1.998   0.717
  542TIP3    H1 1503   7.032   2.056   0.742
  542TIP3    H2 1504   7.151   2.046   0.648
  543TIP3   OH2 1505   6.927   2.191   0.790
  543TIP3    H1 1506   6.908   2.276   0.750
  543TIP3    H2 1507   6.852   2.173   0.847
  544TIP3   OH2 1508   7.940   2.306   0.619
  544TIP3    H1 1509   7.877   2.262   0.562
  544TIP3    H2 1510   7.933   2.398   0.595
  545TIP3   OH2 1511   6.990   2.186   0.407
  545TIP3    H1 1512   6.970   2.146   0.322
  545TIP3    H2 1513   7.086   2.187   0.411
  546TIP3   OH2 1514   7.493   2.398   0.362
  546TIP3    H1 1515   7.498   2.486   0.400
  546TIP3    H2 1516   7.506   2.339   0.437
  547TIP3   OH2 1517   7.137   2.306   0.936
  547TIP3    H1 1518   7.083   2.369   0.984
  547TIP3    H2 1519   7.074   2.254   0.886
  548TIP3   OH2 1520   6.914   1.872   1.044
  548TIP3    H1 1521   6.908   1.956   1.089
  548TIP3    H2 1522   6.823   1.842   1.038
  549TIP3   OH2 1523   6.933   2.475   1.020
  549TIP3    H1 1524   6.899   2.476   0.931
  549TIP3    H2 1525   6.857   2.455   1.075
  550TIP3   OH2 1526   6.514   2.005   0.968
  550TIP3    H1 1527   6.448   1.985   0.902
  550TIP3    H2 1528   6.550   1.919   0.992
  551TIP3   OH2 1529   6.370   2.200   0.603
  551TIP3    H1 1530   6.465   2.198   0.590
  551TIP3    H2 1531   6.355   2.278   0.657
  552TIP3   OH2 1532   8.229   2.662   0.655
  552TIP3    H1 1533   8.236   2.567   0.665
  552TIP3    H2 1534   8.148   2.685   0.700
  553TIP3   OH2 1535   7.338   2.437   0.796
  553TIP3    H1 1536   7.342   2.529   0.823
  553TIP3    H2 1537   7.266   2.400   0.847
  554TIP3   OH2 1538   6.525   2.426   0.138
  554TIP3    H1 1539   6.572   2.414   0.220
  554TIP3    H2 1540   6.474   2.345   0.128
  555TIP3   OH2 1541   6.718   2.187   0.958
  555TIP3    H1 1542   6.766   2.177   1.040
  555TIP3    H2 1543   6.644   2.128   0.965
  556TIP3   OH2 1544   7.597   1.812   1.094
  556TIP3    H1 1545   7.560   1.736   1.139
  556TIP3    H2 1546   7.692   1.802   1.105
  557TIP3   OH2 1547   6.876   1.563   0.987
  557TIP3    H1 1548   6.853   1.625   1.056
  557TIP3    H2 1549   6.866   1.477   1.029
  558TIP3   OH2 1550   7.924   3.004   0.757
  558TIP3    H1 1551   7.920   3.024   0.664
  558TIP3    H2 1552   7.999   3.052   0.790
  559TIP3   OH2 1553   6.883   2.112   1.181
  559TIP3    H1 1554   6.960   2.147   1.226
  559TIP3    H2 1555   6.814   2.110   1.248
  560TIP3   OH2 1556   7.448   2.177   0.816
  560TIP3    H1 1557   7.495   2.158   0.897
  560TIP3    H2 1558   7.409   2.263   0.829
  561TIP3   OH2 1559   6.742   1.905   0.564
  561TIP3    H1 1560   6.777   1.862   0.485
  561TIP3    H2 1561   6.745   1.837   0.631
  562TIP3   OH2 1562   6.632   1.790   1.106
  562TIP3    H1 1563   6.651   1.785   1.199
  562TIP3    H2 1564   6.562   1.726   1.092
  563TIP3   OH2 1565   7.630   2.473   0.710
  563TIP3    H1 1566   7.537   2.451   0.710
  563TIP3    H2 1567   7.646   2.512   0.796
  564TIP3   OH2 1568   8.240   2.390   0.694
  564TIP3    H1 1569   8.162   2.361   0.741
  564TIP3    H2 1570   8.244   2.332   0.618
  565TIP3   OH2 1571   6.783   2.209   0.122
  565TIP3    H1 1572   6.787   2.285   0.064
  565TIP3    H2 1573   6.689   2.199   0.142
  566TIP3   OH2 1574   7.122   2.521   0.584
  566TIP3    H1 1575   7.158   2.595   0.535
  566TIP3    H2 1576   7.196   2.489   0.636
  567TIP3   OH2 1577   0.195   7.041   7.958
  567TIP3    H1 1578   0.119   7.058   8.014
  567TIP3    H2 1579   0.246   7.122   7.961
  568TIP3   OH2 1580   7.553   2.219   0.569
  568TIP3    H1 1581   7.510   2.205   0.653
  568TIP3    H2 1582   7.630   2.163   0.571
  569TIP3   OH2 1583   7.762   2.696   0.591
  569TIP3    H1 1584   7.691   2.633   0.599
  569TIP3    H2 1585   7.733   2.756   0.522
  570TIP3   OH2 1586   6.844   1.323   1.125
  570TIP3    H1 1587   6.748   1.324   1.130
  570TIP3    H2 1588   6.868   1.239   1.166
  571TIP3   OH2 1589   6.558   2.388   0.747
  571TIP3    H1 1590   6.609   2.311   0.775
  571TIP3    H2 1591   6.583   2.456   0.810
  572TIP3   OH2 1592   7.791   2.681   0.185
  572TIP3    H1 1593   7.736   2.732   0.125
  572TIP3    H2 1594   7.879   2.717   0.172
  573TIP3   OH2 1595   6.412   2.177   0.113
  573TIP3    H1 1596   6.326   2.170   0.154
  573TIP3    H2 1597   6.393   2.191   0.020
  574TIP3   OH2 1598   6.549   2.692   1.166
  574TIP3    H1 1599   6.633   2.696   1.214
  574TIP3    H2 1600   6.526   2.599   1.166
  575TIP3   OH2 1601   7.031   2.659   1.210
  575TIP3    H1 1602   7.125   2.644   1.221
  575TIP3    H2 1603   7.006   2.602   1.137
  576TIP3   OH2 1604   7.667   2.571   0.961
  576TIP3    H1 1605   7.661   2.500   1.025
  576TIP3    H2 1606   7.746   2.620   0.986
  577TIP3   OH2 1607   6.679   2.100   1.364
  577TIP3    H1 1608   6.696   2.006   1.373
  577TIP3    H2 1609   6.592   2.105   1.325
  578TIP3   OH2 1610   7.279   2.169   1.137
  578TIP3    H1 1611   7.249   2.203   1.053
  578TIP3    H2 1612   7.363   2.128   1.117
  579TIP3   OH2 1613   7.757   2.210   0.806
  579TIP3    H1 1614   7.835   2.251   0.767
  579TIP3    H2 1615   7.685   2.266   0.779
  580TIP3   OH2 1616   6.801   1.836   1.350
  580TIP3    H1 1617   6.860   1.761   1.340
  580TIP3    H2 1618   6.821   1.871   1.436
  581TIP3   OH2 1619   7.645   2.117   1.143
  581TIP3    H1 1620   7.725   2.097   1.093
  581TIP3    H2 1621   7.640   2.047   1.207
  582TIP3   OH2 1622   7.247   1.838   0.872
  582TIP3    H1 1623   7.331   1.829   0.826
  582TIP3    H2 1624   7.194   1.892   0.814
  583TIP3   OH2 1625   7.866   1.797   1.193
  583TIP3    H1 1626   7.904   1.732   1.253
  583TIP3    H2 1627   7.938   1.857   1.175
  584TIP3   OH2 1628   7.897   2.043   0.968
  584TIP3    H1 1629   7.831   2.087   0.914
  584TIP3    H2 1630   7.975   2.039   0.912
  585TIP3   OH2 1631   7.120   1.628   1.306
  585TIP3    H1 1632   7.057   1.574   1.353
  585TIP3    H2 1633   7.195   1.571   1.291
  586TIP3   OH2 1634   7.462   1.619   1.242
  586TIP3    H1 1635   7.489   1.581   1.325
  586TIP3    H2 1636   7.490   1.556   1.176
  587TIP3   OH2 1637   6.987   1.412   1.423
  587TIP3    H1 1638   6.972   1.321   1.397
  587TIP3    H2 1639   7.016   1.406   1.514
  588TIP3   OH2 1640   7.561   1.302   1.435
  588TIP3    H1 1641   7.570   1.247   1.358
  588TIP3    H2 1642   7.476   1.345   1.425
  589TIP3   OH2 1643   6.161   2.502   0.158
  589TIP3    H1 1644   6.099   2.439   0.121
  589TIP3    H2 1645   6.211   2.451   0.222
  590TIP3   OH2 1646   6.295   2.367   0.353
  590TIP3    H1 1647   6.289   2.284   0.400
  590TIP3    H2 1648   6.351   2.423   0.407
  591TIP3   OH2 1649   8.048   2.766   0.145
  591TIP3    H1 1650   8.063   2.785   0.237
  591TIP3    H2 1651   8.092   2.836   0.098
  592TIP3   OH2 1652   8.062   2.778   0.425
  592TIP3    H1 1653   8.024   2.691   0.434
  592TIP3    H2 1654   8.141   2.775   0.478
  593TIP3   OH2 1655   8.101   2.458   0.993
  593TIP3    H1 1656   8.032   2.460   1.060
  593TIP3    H2 1657   8.145   2.542   1.000
  594TIP3   OH2 1658   7.939   2.534   0.464
  594TIP3    H1 1659   7.877   2.591   0.511
  594TIP3    H2 1660   7.887   2.495   0.394
  595TIP3   OH2 1661   6.491   1.746   0.710
  595TIP3    H1 1662   6.501   1.733   0.616
  595TIP3    H2 1663   6.580   1.760   0.742
  596TIP3   OH2 1664   6.716   1.457   1.404
  596TIP3    H1 1665   6.811   1.446   1.395
  596TIP3    H2 1666   6.686   1.371   1.434
  597TIP3   OH2 1667   6.465   1.416   0.769
  597TIP3    H1 1668   6.455   1.438   0.676
  597TIP3    H2 1669   6.478   1.501   0.812
  598TIP3   OH2 1670   6.714   2.423   1.188
  598TIP3    H1 1671   6.623   2.399   1.171
  598TIP3    H2 1672   6.725   2.410   1.282
  599TIP3   OH2 1673   6.893   2.460   0.731
  599TIP3    H1 1674   6.841   2.533   0.696
  599TIP3    H2 1675   6.979   2.472   0.690
  600TIP3   OH2 1676   7.341   2.704   0.871
  600TIP3    H1 1677   7.377   2.704   0.960
  600TIP3    H2 1678   7.404   2.754   0.819
  601TIP3   OH2 1679   7.521   2.855   0.731
  601TIP3    H1 1680   7.592   2.806   0.690
  601TIP3    H2 1681   7.564   2.915   0.791
  602TIP3   OH2 1682   6.570   2.718   0.759
  602TIP3    H1 1683   6.482   2.748   0.736
  602TIP3    H2 1684   6.584   2.752   0.848
  603TIP3   OH2 1685   6.805   2.696   0.615
  603TIP3    H1 1686   6.722   2.708   0.661
  603TIP3    H2 1687   6.787   2.726   0.525
  604TIP3   OH2 1688   7.233   2.728   0.407
  604TIP3    H1 1689   7.158   2.746   0.349
  604TIP3    H2 1690   7.247   2.810   0.453
  605TIP3   OH2 1691   7.500   2.663   0.448
  605TIP3    H1 1692   7.407   2.684   0.439
  605TIP3    H2 1693   7.545   2.744   0.424
  606TIP3   OH2 1694   7.696   2.861   0.378
  606TIP3    H1 1695   7.689   2.948   0.338
  606TIP3    H2 1696   7.728   2.805   0.307
  607TIP3   OH2 1697   6.482   2.514   0.509
  607TIP3    H1 1698   6.507   2.489   0.598
  607TIP3    H2 1699   6.548   2.474   0.453
  608TIP3   OH2 1700   6.672   2.391   0.362
  608TIP3    H1 1701   6.685   2.309   0.409
  608TIP3    H2 1702   6.760   2.427   0.353
  609TIP3   OH2 1703   6.938   2.483   0.362
  609TIP3    H1 1704   6.967   2.394   0.340
  609TIP3    H2 1705   6.980   2.501   0.447
  610TIP3   OH2 1706   9.543   6.898   7.903
  610TIP3    H1 1707   9.467   6.848   7.872
  610TIP3    H2 1708   9.528   6.987   7.870
  611TIP3   OH2 1709   6.955   1.144   1.408
  611TIP3    H1 1710   6.924   1.064   1.451
  611TIP3    H2 1711   7.022   1.114   1.347
  612TIP3   OH2 1712   7.251   1.122   1.489
  612TIP3    H1 1713   7.299   1.054   1.443
  612TIP3    H2 1714   7.213   1.077   1.565
  613TIP3   OH2 1715   7.984   2.737   0.756
  613TIP3    H1 1716   7.906   2.707   0.709
  613TIP3    H2 1717   7.972   2.832   0.763
  614TIP3   OH2 1718   8.342   2.946   0.656
  614TIP3    H1 1719   8.428   2.946   0.698
  614TIP3    H2 1720   8.317   2.854   0.652
  615TIP3   OH2 1721   8.454   2.357   0.859
  615TIP3    H1 1722   8.448   2.263   0.873
  615TIP3    H2 1723   8.379   2.378   0.803
  616TIP3   OH2 1724   8.503   2.632   0.682
  616TIP3    H1 1725   8.409   2.644   0.665
  616TIP3    H2 1726   8.514   2.655   0.774
  617TIP3   OH2 1727   8.340   2.975   0.224
  617TIP3    H1 1728   8.269   3.040   0.231
  617TIP3    H2 1729   8.392   2.988   0.303
  618TIP3   OH2 1730   0.691   3.443   2.369
  618TIP3    H1 1731   0.666   3.353   2.350
  618TIP3    H2 1732   0.612   3.483   2.405
  619TIP3   OH2 1733   0.376   3.789   2.443
  619TIP3    H1 1734   0.372   3.814   2.351
  619TIP3    H2 1735   0.450   3.838   2.479
  620TIP3   OH2 1736   0.567   3.250   2.698
  620TIP3    H1 1737   0.490   3.255   2.756
  620TIP3    H2 1738   0.606   3.337   2.702
  621TIP3   OH2 1739   0.439   3.526   2.442
  621TIP3    H1 1740   0.355   3.491   2.473
  621TIP3    H2 1741   0.430   3.621   2.448
  622TIP3   OH2 1742   1.943   3.192   1.280
  622TIP3    H1 1743   1.944   3.125   1.348
  622TIP3    H2 1744   1.974   3.271   1.323
  623TIP3   OH2 1745   1.595   3.658   1.288
  623TIP3    H1 1746   1.638   3.584   1.245
  623TIP3    H2 1747   1.578   3.627   1.377
  624TIP3   OH2 1748   1.537   3.147   1.657
  624TIP3    H1 1749   1.552   3.115   1.567
  624TIP3    H2 1750   1.624   3.175   1.686
  625TIP3   OH2 1751   2.525   2.439   1.633
  625TIP3    H1 1752   2.549   2.515   1.686
  625TIP3    H2 1753   2.535   2.468   1.543
  626TIP3   OH2 1754   2.586   2.641   1.815
  626TIP3    H1 1755   2.508   2.690   1.789
  626TIP3    H2 1756   2.609   2.677   1.900
  627TIP3   OH2 1757   1.391   3.059   1.978
  627TIP3    H1 1758   1.301   3.090   1.971
  627TIP3    H2 1759   1.444   3.132   1.945
  628TIP3   OH2 1760   1.175   3.239   1.976
  628TIP3    H1 1761   1.157   3.322   1.931
  628TIP3    H2 1762   1.103   3.230   2.038
  629TIP3   OH2 1763   2.015   3.439   1.438
  629TIP3    H1 1764   1.929   3.428   1.480
  629TIP3    H2 1765   2.011   3.526   1.399
  630TIP3   OH2 1766   2.329   2.352   1.812
  630TIP3    H1 1767   2.235   2.365   1.795
  630TIP3    H2 1768   2.372   2.384   1.733
  631TIP3   OH2 1769   1.736   3.480   1.130
  631TIP3    H1 1770   1.812   3.424   1.146
  631TIP3    H2 1771   1.768   3.548   1.070
  632TIP3   OH2 1772   2.241   3.359   1.792
  632TIP3    H1 1773   2.239   3.281   1.735
  632TIP3    H2 1774   2.226   3.432   1.732
  633TIP3   OH2 1775   2.439   2.985   1.634
  633TIP3    H1 1776   2.365   3.044   1.640
  633TIP3    H2 1777   2.465   2.987   1.542
  634TIP3   OH2 1778   2.146   2.874   1.940
  634TIP3    H1 1779   2.135   2.957   1.986
  634TIP3    H2 1780   2.062   2.860   1.896
  635TIP3   OH2 1781   1.778   3.434   1.564
  635TIP3    H1 1782   1.762   3.515   1.612
  635TIP3    H2 1783   1.771   3.365   1.630
  636TIP3   OH2 1784   1.386   3.355   2.108
  636TIP3    H1 1785   1.333   3.418   2.158
  636TIP3    H2 1786   1.322   3.301   2.061
  637TIP3   OH2 1787   1.138   2.939   2.219
  637TIP3    H1 1788   1.145   3.022   2.266
  637TIP3    H2 1789   1.053   2.904   2.245
  638TIP3   OH2 1790   1.182   3.521   2.198
  638TIP3    H1 1791   1.150   3.523   2.108
  638TIP3    H2 1792   1.105   3.500   2.251
  639TIP3   OH2 1793   2.479   3.695   1.833
  639TIP3    H1 1794   2.481   3.600   1.845
  639TIP3    H2 1795   2.399   3.723   1.877
  640TIP3   OH2 1796   1.586   3.486   1.969
  640TIP3    H1 1797   1.588   3.577   2.000
  640TIP3    H2 1798   1.517   3.444   2.021
  641TIP3   OH2 1799   2.369   2.824   2.109
  641TIP3    H1 1800   2.293   2.845   2.054
  641TIP3    H2 1801   2.384   2.730   2.094
  642TIP3   OH2 1802   0.973   3.238   2.155
  642TIP3    H1 1803   1.031   3.238   2.231
  642TIP3    H2 1804   0.922   3.157   2.163
  643TIP3   OH2 1805   2.139   2.600   2.029
  643TIP3    H1 1806   2.090   2.595   2.111
  643TIP3    H2 1807   2.120   2.688   1.996
  644TIP3   OH2 1808   1.854   2.826   2.263
  644TIP3    H1 1809   1.827   2.756   2.323
  644TIP3    H2 1810   1.946   2.841   2.285
  645TIP3   OH2 1811   1.896   2.817   1.854
  645TIP3    H1 1812   1.843   2.777   1.785
  645TIP3    H2 1813   1.835   2.830   1.927
  646TIP3   OH2 1814   2.171   4.048   1.930
  646TIP3    H1 1815   2.168   4.072   1.837
  646TIP3    H2 1816   2.247   4.094   1.965
  647TIP3   OH2 1817   1.131   3.174   2.369
  647TIP3    H1 1818   1.212   3.199   2.414
  647TIP3    H2 1819   1.065   3.172   2.438
  648TIP3   OH2 1820   2.225   3.150   1.624
  648TIP3    H1 1821   2.252   3.189   1.541
  648TIP3    H2 1822   2.141   3.108   1.605
  649TIP3   OH2 1823   1.694   3.216   1.986
  649TIP3    H1 1824   1.723   3.188   2.073
  649TIP3    H2 1825   1.669   3.308   1.998
  650TIP3   OH2 1826   1.613   2.957   2.308
  650TIP3    H1 1827   1.554   2.902   2.256
  650TIP3    H2 1828   1.701   2.932   2.278
  651TIP3   OH2 1829   1.864   3.471   1.891
  651TIP3    H1 1830   1.768   3.475   1.898
  651TIP3    H2 1831   1.895   3.525   1.963
  652TIP3   OH2 1832   2.492   3.404   1.874
  652TIP3    H1 1833   2.397   3.401   1.870
  652TIP3    H2 1834   2.520   3.374   1.787
  653TIP3   OH2 1835   2.001   3.017   1.554
  653TIP3    H1 1836   1.907   3.001   1.549
  653TIP3    H2 1837   2.041   2.931   1.539
  654TIP3   OH2 1838   1.376   3.561   1.769
  654TIP3    H1 1839   1.407   3.637   1.719
  654TIP3    H2 1840   1.452   3.534   1.820
  655TIP3   OH2 1841   1.791   3.201   1.730
  655TIP3    H1 1842   1.764   3.202   1.822
  655TIP3    H2 1843   1.881   3.169   1.732
  656TIP3   OH2 1844   2.003   3.735   1.769
  656TIP3    H1 1845   1.925   3.681   1.762
  656TIP3    H2 1846   1.992   3.802   1.701
  657TIP3   OH2 1847   0.809   3.423   1.932
  657TIP3    H1 1848   0.862   3.345   1.949
  657TIP3    H2 1849   0.838   3.487   1.997
  658TIP3   OH2 1850   1.911   2.432   1.986
  658TIP3    H1 1851   2.004   2.457   1.993
  658TIP3    H2 1852   1.912   2.337   1.976
  659TIP3   OH2 1853   1.741   2.636   2.074
  659TIP3    H1 1854   1.779   2.706   2.128
  659TIP3    H2 1855   1.815   2.578   2.056
  660TIP3   OH2 1856   2.405   2.559   2.031
  660TIP3    H1 1857   2.310   2.558   2.036
  660TIP3    H2 1858   2.426   2.524   1.944
  661TIP3   OH2 1859   2.064   2.743   1.517
  661TIP3    H1 1860   2.033   2.685   1.448
  661TIP3    H2 1861   2.155   2.716   1.533
  662TIP3   OH2 1862   2.027   3.710   1.361
  662TIP3    H1 1863   1.982   3.756   1.290
  662TIP3    H2 1864   2.120   3.728   1.346
  663TIP3   OH2 1865   0.798   3.738   2.343
  663TIP3    H1 1866   0.881   3.739   2.390
  663TIP3    H2 1867   0.774   3.646   2.339
  664TIP3   OH2 1868   1.280   3.704   2.387
  664TIP3    H1 1869   1.373   3.688   2.398
  664TIP3    H2 1870   1.254   3.647   2.314
  665TIP3   OH2 1871   1.920   3.608   2.122
  665TIP3    H1 1872   1.910   3.541   2.189
  665TIP3    H2 1873   1.994   3.661   2.151
  666TIP3   OH2 1874   0.923   3.140   2.545
  666TIP3    H1 1875   0.950   3.050   2.560
  666TIP3    H2 1876   0.830   3.135   2.524
  667TIP3   OH2 1877   1.536   3.230   2.316
  667TIP3    H1 1878   1.494   3.243   2.231
  667TIP3    H2 1879   1.568   3.140   2.313
  668TIP3   OH2 1880   2.026   3.240   1.919
  668TIP3    H1 1881   2.103   3.281   1.880
  668TIP3    H2 1882   1.958   3.308   1.913
  669TIP3   OH2 1883   1.055   2.868   2.548
  669TIP3    H1 1884   1.131   2.812   2.533
  669TIP3    H2 1885   1.074   2.912   2.631
  670TIP3   OH2 1886   1.404   2.775   2.204
  670TIP3    H1 1887   1.343   2.845   2.225
  670TIP3    H2 1888   1.445   2.802   2.122
  671TIP3   OH2 1889   1.899   3.166   2.322
  671TIP3    H1 1890   1.979   3.145   2.274
  671TIP3    H2 1891   1.894   3.100   2.391
  672TIP3   OH2 1892   1.528   2.564   2.322
  672TIP3    H1 1893   1.518   2.484   2.271
  672TIP3    H2 1894   1.490   2.633   2.268
  673TIP3   OH2 1895   1.590   2.887   2.031
  673TIP3    H1 1896   1.622   2.853   1.947
  673TIP3    H2 1897   1.525   2.953   2.007
  674TIP3   OH2 1898   2.125   2.841   2.378
  674TIP3    H1 1899   2.166   2.755   2.364
  674TIP3    H2 1900   2.188   2.903   2.343
  675TIP3   OH2 1901   2.158   3.103   2.112
  675TIP3    H1 1902   2.098   3.151   2.054
  675TIP3    H2 1903   2.245   3.119   2.075
  676TIP3   OH2 1904   1.373   2.692   2.531
  676TIP3    H1 1905   1.325   2.619   2.570
  676TIP3    H2 1906   1.414   2.656   2.453
  677TIP3   OH2 1907   1.777   2.610   2.413
  677TIP3    H1 1908   1.761   2.600   2.507
  677TIP3    H2 1909   1.693   2.590   2.372
  678TIP3   OH2 1910   2.013   2.564   2.268
  678TIP3    H1 1911   1.930   2.568   2.315
  678TIP3    H2 1912   2.073   2.521   2.329
  679TIP3   OH2 1913   2.240   2.501   2.455
  679TIP3    H1 1914   2.254   2.407   2.443
  679TIP3    H2 1915   2.175   2.507   2.525
  680TIP3   OH2 1916   1.275   2.463   2.643
  680TIP3    H1 1917   1.216   2.393   2.616
  680TIP3    H2 1918   1.290   2.448   2.736
  681TIP3   OH2 1919   1.752   2.133   2.456
  681TIP3    H1 1920   1.826   2.072   2.452
  681TIP3    H2 1921   1.692   2.104   2.388
  682TIP3   OH2 1922   1.803   2.342   2.611
  682TIP3    H1 1923   1.787   2.272   2.549
  682TIP3    H2 1924   1.725   2.398   2.606
  683TIP3   OH2 1925   2.277   3.805   1.321
  683TIP3    H1 1926   2.301   3.835   1.409
  683TIP3    H2 1927   2.339   3.849   1.262
  684TIP3   OH2 1928   2.307   3.819   1.603
  684TIP3    H1 1929   2.265   3.734   1.598
  684TIP3    H2 1930   2.383   3.805   1.659
  685TIP3   OH2 1931   2.353   3.499   2.178
  685TIP3    H1 1932   2.281   3.507   2.239
  685TIP3    H2 1933   2.395   3.585   2.179
  686TIP3   OH2 1934   2.367   3.259   1.415
  686TIP3    H1 1935   2.393   3.201   1.344
  686TIP3    H2 1936   2.347   3.342   1.372
  687TIP3   OH2 1937   2.181   3.571   1.626
  687TIP3    H1 1938   2.114   3.614   1.679
  687TIP3    H2 1939   2.132   3.524   1.558
  688TIP3   OH2 1940   2.402   3.160   2.001
  688TIP3    H1 1941   2.472   3.095   1.994
  688TIP3    H2 1942   2.428   3.230   1.941
  689TIP3   OH2 1943   2.584   2.963   2.027
  689TIP3    H1 1944   2.509   2.915   2.063
  689TIP3    H2 1945   2.658   2.902   2.036
  690TIP3   OH2 1946   2.305   2.629   1.547
  690TIP3    H1 1947   2.384   2.653   1.499
  690TIP3    H2 1948   2.319   2.665   1.635
  691TIP3   OH2 1949   2.347   2.772   1.774
  691TIP3    H1 1950   2.272   2.804   1.824
  691TIP3    H2 1951   2.379   2.848   1.726
  692TIP3   OH2 1952   2.790   2.360   2.323
  692TIP3    H1 1953   2.847   2.296   2.281
  692TIP3    H2 1954   2.759   2.415   2.250
  693TIP3   OH2 1955   2.655   2.500   2.132
  693TIP3    H1 1956   2.569   2.541   2.139
  693TIP3    H2 1957   2.641   2.427   2.072
  694TIP3   OH2 1958   1.858   3.671   0.979
  694TIP3    H1 1959   1.908   3.658   0.898
  694TIP3    H2 1960   1.909   3.734   1.029
  695TIP3   OH2 1961   0.964   3.469   2.367
  695TIP3    H1 1962   0.871   3.451   2.358
  695TIP3    H2 1963   0.982   3.460   2.461
  696TIP3   OH2 1964   1.142   3.506   1.913
  696TIP3    H1 1965   1.088   3.571   1.868
  696TIP3    H2 1966   1.229   3.517   1.873
  697TIP3   OH2 1967   1.589   3.750   2.050
  697TIP3    H1 1968   1.627   3.749   2.137
  697TIP3    H2 1969   1.651   3.800   1.997
  698TIP3   OH2 1970   1.768   3.901   1.908
  698TIP3    H1 1971   1.837   3.849   1.866
  698TIP3    H2 1972   1.815   3.958   1.968
  699TIP3   OH2 1973   2.565   2.268   2.009
  699TIP3    H1 1974   2.478   2.266   1.970
  699TIP3    H2 1975   2.596   2.177   2.003
  700TIP3   OH2 1976   0.811   3.775   1.913
  700TIP3    H1 1977   0.720   3.806   1.911
  700TIP3    H2 1978   0.839   3.787   2.003
  701TIP3   OH2 1979   1.063   3.749   1.794
  701TIP3    H1 1980   0.979   3.764   1.837
  701TIP3    H2 1981   1.049   3.772   1.703
  702TIP3   OH2 1982   1.483   3.770   1.592
  702TIP3    H1 1983   1.413   3.786   1.528
  702TIP3    H2 1984   1.496   3.855   1.634
  703TIP3   OH2 1985   1.749   3.707   1.640
  703TIP3    H1 1986   1.656   3.723   1.624
  703TIP3    H2 1987   1.793   3.783   1.601
  704TIP3   OH2 1988   1.956   3.901   1.555
  704TIP3    H1 1989   1.942   3.984   1.511
  704TIP3    H2 1990   1.982   3.841   1.485
  705TIP3   OH2 1991   1.220   3.566   1.531
  705TIP3    H1 1992   1.226   3.495   1.468
  705TIP3    H2 1993   1.271   3.536   1.606
  706TIP3   OH2 1994   1.993   3.629   0.732
  706TIP3    H1 1995   1.991   3.536   0.711
  706TIP3    H2 1996   1.952   3.672   0.656
  707TIP3   OH2 1997   1.466   2.185   2.662
  707TIP3    H1 1998   1.554   2.158   2.638
  707TIP3    H2 1999   1.436   2.120   2.726
  708TIP3   OH2 2000   2.298   2.231   2.442
  708TIP3    H1 2001   2.313   2.197   2.530
  708TIP3    H2 2002   2.382   2.223   2.398
  709TIP3   OH2 2003   2.233   3.780   1.932
  709TIP3    H1 2004   2.156   3.746   1.885
  709TIP3    H2 2005   2.217   3.875   1.937
  710TIP3   OH2 2006   3.503   3.155   0.702
  710TIP3    H1 2007   3.478   3.246   0.685
  710TIP3    H2 2008   3.431   3.104   0.665
  711TIP3   OH2 2009   3.502   3.148   1.080
  711TIP3    H1 2010   3.531   3.122   1.167
  711TIP3    H2 2011   3.456   3.071   1.046
  712TIP3   OH2 2012   2.797   3.059   1.467
  712TIP3    H1 2013   2.831   2.980   1.509
  712TIP3    H2 2014   2.872   3.096   1.421
  713TIP3   OH2 2015   3.743   3.453   0.762
  713TIP3    H1 2016   3.726   3.383   0.825
  713TIP3    H2 2017   3.770   3.528   0.816
  714TIP3   OH2 2018   2.771   3.456   1.170
  714TIP3    H1 2019   2.762   3.361   1.176
  714TIP3    H2 2020   2.866   3.471   1.172
  715TIP3   OH2 2021   3.391   3.914   0.777
  715TIP3    H1 2022   3.439   3.844   0.732
  715TIP3    H2 2023   3.383   3.883   0.867
  716TIP3   OH2 2024   3.301   3.377   1.127
  716TIP3    H1 2025   3.332   3.299   1.080
  716TIP3    H2 2026   3.381   3.423   1.153
  717TIP3   OH2 2027   4.313   2.699   1.126
  717TIP3    H1 2028   4.339   2.778   1.172
  717TIP3    H2 2029   4.329   2.718   1.034
  718TIP3   OH2 2030   3.713   2.877   1.160
  718TIP3    H1 2031   3.752   2.793   1.182
  718TIP3    H2 2032   3.679   2.864   1.071
  719TIP3   OH2 2033   3.047   2.534   1.117
  719TIP3    H1 2034   3.024   2.610   1.064
  719TIP3    H2 2035   2.987   2.465   1.088
  720TIP3   OH2 2036   3.744   2.626   0.750
  720TIP3    H1 2037   3.812   2.609   0.816
  720TIP3    H2 2038   3.791   2.663   0.676
  721TIP3   OH2 2039   3.123   2.938   1.020
  721TIP3    H1 2040   3.213   2.915   1.041
  721TIP3    H2 2041   3.082   2.856   0.993
  722TIP3   OH2 2042   4.382   2.906   1.297
  722TIP3    H1 2043   4.301   2.951   1.276
  722TIP3    H2 2044   4.398   2.927   1.389
  723TIP3   OH2 2045   3.044   2.517   1.566
  723TIP3    H1 2046   2.992   2.554   1.494
  723TIP3    H2 2047   2.994   2.537   1.645
  724TIP3   OH2 2048   3.397   3.377   0.568
  724TIP3    H1 2049   3.353   3.346   0.489
  724TIP3    H2 2050   3.352   3.458   0.591
  725TIP3   OH2 2051   3.152   3.299   1.359
  725TIP3    H1 2052   3.088   3.359   1.397
  725TIP3    H2 2053   3.192   3.349   1.288
  726TIP3   OH2 2054   3.955   2.630   0.920
  726TIP3    H1 2055   3.938   2.582   1.001
  726TIP3    H2 2056   4.005   2.707   0.948
  727TIP3   OH2 2057   2.920   2.622   1.350
  727TIP3    H1 2058   2.959   2.708   1.369
  727TIP3    H2 2059   2.962   2.594   1.269
  728TIP3   OH2 2060   2.975   3.491   1.453
  728TIP3    H1 2061   2.954   3.576   1.416
  728TIP3    H2 2062   2.901   3.470   1.510
  729TIP3   OH2 2063   2.361   3.194   0.698
  729TIP3    H1 2064   2.386   3.191   0.606
  729TIP3    H2 2065   2.416   3.262   0.736
  730TIP3   OH2 2066   3.812   3.696   0.929
  730TIP3    H1 2067   3.726   3.684   0.970
  730TIP3    H2 2068   3.806   3.780   0.885
  731TIP3   OH2 2069   4.103   2.598   1.292
  731TIP3    H1 2070   4.016   2.625   1.264
  731TIP3    H2 2071   4.161   2.628   1.222
  732TIP3   OH2 2072   3.402   2.239   1.276
  732TIP3    H1 2073   3.390   2.146   1.294
  732TIP3    H2 2074   3.326   2.281   1.317
  733TIP3   OH2 2075   3.521   3.741   0.603
  733TIP3    H1 2076   3.566   3.659   0.585
  733TIP3    H2 2077   3.577   3.809   0.564
  734TIP3   OH2 2078   3.661   3.525   0.509
  734TIP3    H1 2079   3.611   3.451   0.475
  734TIP3    H2 2080   3.696   3.494   0.593
  735TIP3   OH2 2081   4.040   3.609   1.271
  735TIP3    H1 2082   4.027   3.532   1.216
  735TIP3    H2 2083   4.022   3.683   1.213
  736TIP3   OH2 2084   3.334   3.014   0.536
  736TIP3    H1 2085   3.249   3.055   0.519
  736TIP3    H2 2086   3.367   2.991   0.449
  737TIP3   OH2 2087   3.297   2.790   0.338
  737TIP3    H1 2088   3.380   2.836   0.334
  737TIP3    H2 2089   3.321   2.697   0.334
  738TIP3   OH2 2090   4.234   3.247   1.115
  738TIP3    H1 2091   4.152   3.295   1.125
  738TIP3    H2 2092   4.264   3.269   1.027
  739TIP3   OH2 2093   3.681   3.088   0.509
  739TIP3    H1 2094   3.624   3.112   0.582
  739TIP3    H2 2095   3.763   3.061   0.550
  740TIP3   OH2 2096   3.911   3.127   1.413
  740TIP3    H1 2097   3.911   3.208   1.464
  740TIP3    H2 2098   3.827   3.127   1.368
  741TIP3   OH2 2099   2.916   3.081   0.910
  741TIP3    H1 2100   2.874   3.013   0.859
  741TIP3    H2 2101   2.991   3.037   0.951
  742TIP3   OH2 2102   3.046   3.500   1.064
  742TIP3    H1 2103   3.017   3.445   0.990
  742TIP3    H2 2104   3.132   3.466   1.086
  743TIP3   OH2 2105   3.066   3.048   1.281
  743TIP3    H1 2106   3.076   3.038   1.187
  743TIP3    H2 2107   3.092   3.139   1.298
  744TIP3   OH2 2108   3.573   3.690   1.050
  744TIP3    H1 2109   3.559   3.770   1.101
  744TIP3    H2 2110   3.558   3.619   1.112
  745TIP3   OH2 2111   3.182   3.610   1.597
  745TIP3    H1 2112   3.126   3.672   1.644
  745TIP3    H2 2113   3.121   3.555   1.548
  746TIP3   OH2 2114   3.533   2.940   0.332
  746TIP3    H1 2115   3.582   3.003   0.385
  746TIP3    H2 2116   3.555   2.963   0.241
  747TIP3   OH2 2117   2.943   3.166   1.709
  747TIP3    H1 2118   2.943   3.252   1.749
  747TIP3    H2 2119   2.851   3.147   1.692
  748TIP3   OH2 2120   3.262   3.623   0.597
  748TIP3    H1 2121   3.339   3.674   0.623
  748TIP3    H2 2122   3.198   3.688   0.569
  749TIP3   OH2 2123   2.977   3.778   1.683
  749TIP3    H1 2124   2.943   3.777   1.593
  749TIP3    H2 2125   2.901   3.757   1.737
  750TIP3   OH2 2126   4.036   2.186   0.373
  750TIP3    H1 2127   3.957   2.197   0.425
  750TIP3    H2 2128   4.046   2.270   0.327
  751TIP3   OH2 2129   2.760   2.915   0.699
  751TIP3    H1 2130   2.699   2.986   0.721
  751TIP3    H2 2131   2.728   2.840   0.749
  752TIP3   OH2 2132   7.099   8.177   7.916
  752TIP3    H1 2133   7.110   8.271   7.907
  752TIP3    H2 2134   7.189   8.142   7.914
  753TIP3   OH2 2135   2.555   3.309   1.629
  753TIP3    H1 2136   2.497   3.286   1.557
  753TIP3    H2 2137   2.597   3.226   1.654
  754TIP3   OH2 2138   2.411   3.507   1.263
  754TIP3    H1 2139   2.505   3.490   1.253
  754TIP3    H2 2140   2.406   3.584   1.319
  755TIP3   OH2 2141   4.276   3.951   1.320
  755TIP3    H1 2142   4.276   3.856   1.334
  755TIP3    H2 2143   4.196   3.981   1.363
  756TIP3   OH2 2144   3.380   3.740   1.455
  756TIP3    H1 2145   3.383   3.831   1.485
  756TIP3    H2 2146   3.312   3.699   1.508
  757TIP3   OH2 2147   3.140   3.870   0.401
  757TIP3    H1 2148   3.094   3.854   0.318
  757TIP3    H2 2149   3.110   3.956   0.428
  758TIP3   OH2 2150   2.582   3.717   0.791
  758TIP3    H1 2151   2.628   3.710   0.874
  758TIP3    H2 2152   2.529   3.638   0.786
  759TIP3   OH2 2153   3.340   3.765   0.059
  759TIP3    H1 2154   3.396   3.708   0.007
  759TIP3    H2 2155   3.382   3.770   0.145
  760TIP3   OH2 2156   3.397   3.819   0.327
  760TIP3    H1 2157   3.308   3.828   0.362
  760TIP3    H2 2158   3.446   3.775   0.396
  761TIP3   OH2 2159   4.167   3.084   1.592
  761TIP3    H1 2160   4.085   3.100   1.544
  761TIP3    H2 2161   4.182   2.990   1.583
  762TIP3   OH2 2162   2.762   3.491   1.621
  762TIP3    H1 2163   2.812   3.477   1.701
  762TIP3    H2 2164   2.689   3.429   1.626
  763TIP3   OH2 2165   3.158   2.320   1.398
  763TIP3    H1 2166   3.071   2.288   1.373
  763TIP3    H2 2167   3.141   2.401   1.445
  764TIP3   OH2 2168   3.694   2.430   1.599
  764TIP3    H1 2169   3.761   2.404   1.662
  764TIP3    H2 2170   3.611   2.411   1.642
  765TIP3   OH2 2171   3.937   2.863   1.519
  765TIP3    H1 2172   3.888   2.857   1.601
  765TIP3    H2 2173   3.910   2.947   1.481
  766TIP3   OH2 2174   3.600   2.994   0.076
  766TIP3    H1 2175   3.540   2.989   0.002
  766TIP3    H2 2176   3.674   3.047   0.044
  767TIP3   OH2 2177   3.098   2.827   1.427
  767TIP3    H1 2178   3.044   2.845   1.504
  767TIP3    H2 2179   3.088   2.905   1.372
  768TIP3   OH2 2180   2.977   2.719   0.931
  768TIP3    H1 2181   2.889   2.691   0.955
  768TIP3    H2 2182   2.995   2.673   0.849
  769TIP3   OH2 2183   3.474   2.810   0.660
  769TIP3    H1 2184   3.419   2.880   0.625
  769TIP3    H2 2185   3.520   2.775   0.585
  770TIP3   OH2 2186   3.644   3.080   1.751
  770TIP3    H1 2187   3.619   3.010   1.811
  770TIP3    H2 2188   3.736   3.098   1.771
  771TIP3   OH2 2189   3.626   2.830   0.900
  771TIP3    H1 2190   3.566   2.865   0.833
  771TIP3    H2 2191   3.659   2.749   0.862
  772TIP3   OH2 2192   2.920   2.858   1.632
  772TIP3    H1 2193   2.935   2.925   1.698
  772TIP3    H2 2194   2.903   2.778   1.683
  773TIP3   OH2 2195   3.639   3.076   1.326
  773TIP3    H1 2196   3.671   3.008   1.268
  773TIP3    H2 2197   3.607   3.029   1.403
  774TIP3   OH2 2198   3.308   2.543   0.999
  774TIP3    H1 2199   3.223   2.537   1.043
  774TIP3    H2 2200   3.372   2.541   1.071
  775TIP3   OH2 2201   2.754   2.588   0.996
  775TIP3    H1 2202   2.671   2.617   1.033
  775TIP3    H2 2203   2.733   2.504   0.954
  776TIP3   OH2 2204   3.042   2.601   0.694
  776TIP3    H1 2205   3.137   2.611   0.691
  776TIP3    H2 2206   3.010   2.656   0.622
  777TIP3   OH2 2207   3.794   2.612   1.198
  777TIP3    H1 2208   3.765   2.628   1.288
  777TIP3    H2 2209   3.729   2.552   1.162
  778TIP3   OH2 2210   3.968   4.303   1.418
  778TIP3    H1 2211   3.965   4.330   1.326
  778TIP3    H2 2212   4.041   4.353   1.455
  779TIP3   OH2 2213   2.924   3.416   1.843
  779TIP3    H1 2214   3.004   3.445   1.887
  779TIP3    H2 2215   2.858   3.414   1.912
  780TIP3   OH2 2216   3.389   2.867   1.097
  780TIP3    H1 2217   3.460   2.825   1.047
  780TIP3    H2 2218   3.394   2.828   1.184
  781TIP3   OH2 2219   3.366   2.764   1.384
  781TIP3    H1 2220   3.276   2.796   1.398
  781TIP3    H2 2221   3.420   2.825   1.434
  782TIP3   OH2 2222   3.099   3.171   0.483
  782TIP3    H1 2223   3.051   3.088   0.481
  782TIP3    H2 2224   3.088   3.204   0.572
  783TIP3   OH2 2225   4.002   3.390   1.108
  783TIP3    H1 2226   4.025   3.440   1.029
  783TIP3    H2 2227   3.918   3.349   1.087
  784TIP3   OH2 2228   3.593   2.473   0.315
  784TIP3    H1 2229   3.498   2.475   0.321
  784TIP3    H2 2230   3.620   2.561   0.342
  785TIP3   OH2 2231   3.506   3.477   1.476
  785TIP3    H1 2232   3.521   3.449   1.567
  785TIP3    H2 2233   3.462   3.562   1.484
  786TIP3   OH2 2234   3.639   2.711   0.441
  786TIP3    H1 2235   3.731   2.722   0.464
  786TIP3    H2 2236   3.616   2.792   0.394
  787TIP3   OH2 2237   2.807   3.185   1.163
  787TIP3    H1 2238   2.827   3.145   1.078
  787TIP3    H2 2239   2.765   3.115   1.213
  788TIP3   OH2 2240   3.251   3.314   0.313
  788TIP3    H1 2241   3.205   3.397   0.314
  788TIP3    H2 2242   3.199   3.257   0.370
  789TIP3   OH2 2243   2.669   3.102   1.774
  789TIP3    H1 2244   2.693   3.084   1.864
  789TIP3    H2 2245   2.606   3.033   1.751
  790TIP3   OH2 2246   3.399   3.208   1.789
  790TIP3    H1 2247   3.337   3.154   1.741
  790TIP3    H2 2248   3.485   3.178   1.760
  791TIP3   OH2 2249   3.661   3.735   1.371
  791TIP3    H1 2250   3.566   3.730   1.383
  791TIP3    H2 2251   3.691   3.784   1.448
  792TIP3   OH2 2252   4.071   2.806   0.280
  792TIP3    H1 2253   4.011   2.757   0.224
  792TIP3    H2 2254   4.071   2.895   0.244
  793TIP3   OH2 2255   4.288   3.659   1.360
  793TIP3    H1 2256   4.193   3.657   1.356
  793TIP3    H2 2257   4.316   3.631   1.273
  794TIP3   OH2 2258   3.780   3.621   0.187
  794TIP3    H1 2259   3.743   3.559   0.250
  794TIP3    H2 2260   3.775   3.575   0.103
  795TIP3   OH2 2261   3.767   3.251   1.027
  795TIP3    H1 2262   3.675   3.229   1.042
  795TIP3    H2 2263   3.802   3.174   0.982
  796TIP3   OH2 2264   2.890   3.479   0.773
  796TIP3    H1 2265   2.890   3.562   0.725
  796TIP3    H2 2266   2.798   3.465   0.796
  797TIP3   OH2 2267   3.038   3.252   0.728
  797TIP3    H1 2268   2.999   3.338   0.744
  797TIP3    H2 2269   3.003   3.196   0.798
  798TIP3   OH2 2270   3.165   3.825   1.250
  798TIP3    H1 2271   3.204   3.897   1.200
  798TIP3    H2 2272   3.238   3.789   1.300
  799TIP3   OH2 2273   2.811   3.722   0.632
  799TIP3    H1 2274   2.728   3.726   0.678
  799TIP3    H2 2275   2.844   3.812   0.634
  800TIP3   OH2 2276   3.554   3.457   1.209
  800TIP3    H1 2277   3.542   3.459   1.304
  800TIP3    H2 2278   3.633   3.404   1.196
  801TIP3   OH2 2279   3.525   3.358   0.093
  801TIP3    H1 2280   3.576   3.330   0.169
  801TIP3    H2 2281   3.435   3.332   0.113
  802TIP3   OH2 2282   3.801   3.991   1.256
  802TIP3    H1 2283   3.724   3.934   1.254
  802TIP3    H2 2284   3.785   4.056   1.188
  803TIP3   OH2 2285   7.134   8.458   7.905
  803TIP3    H1 2286   7.184   8.535   7.878
  803TIP3    H2 2287   7.052   8.493   7.941
  804TIP3   OH2 2288   2.885   2.602   1.781
  804TIP3    H1 2289   2.790   2.604   1.787
  804TIP3    H2 2290   2.911   2.538   1.847
  805TIP3   OH2 2291   3.688   3.280   0.307
  805TIP3    H1 2292   3.675   3.219   0.381
  805TIP3    H2 2293   3.783   3.283   0.295
  806TIP3   OH2 2294   2.602   3.687   1.411
  806TIP3    H1 2295   2.653   3.611   1.439
  806TIP3    H2 2296   2.628   3.757   1.470
  807TIP3   OH2 2297   2.888   3.332   0.093
  807TIP3    H1 2298   2.915   3.244   0.068
  807TIP3    H2 2299   2.872   3.326   0.187
  808TIP3   OH2 2300   2.853   3.336   0.368
  808TIP3    H1 2301   2.923   3.306   0.426
  808TIP3    H2 2302   2.855   3.431   0.373
  809TIP3   OH2 2303   3.727   2.664   1.456
  809TIP3    H1 2304   3.802   2.705   1.499
  809TIP3    H2 2305   3.708   2.587   1.509
  810TIP3   OH2 2306   3.596   2.429   0.614
  810TIP3    H1 2307   3.594   2.454   0.521
  810TIP3    H2 2308   3.638   2.502   0.658
  811TIP3   OH2 2309   3.101   3.537   0.306
  811TIP3    H1 2310   3.017   3.562   0.346
  811TIP3    H2 2311   3.125   3.613   0.253
  812TIP3   OH2 2312   3.312   2.601   0.731
  812TIP3    H1 2313   3.372   2.674   0.713
  812TIP3    H2 2314   3.312   2.595   0.827
  813TIP3   OH2 2315   3.563   2.918   1.534
  813TIP3    H1 2316   3.578   2.974   1.610
  813TIP3    H2 2317   3.616   2.840   1.549
  814TIP3   OH2 2318   3.450   2.330   0.835
  814TIP3    H1 2319   3.432   2.408   0.888
  814TIP3    H2 2320   3.499   2.364   0.760
  815TIP3   OH2 2321   2.846   3.609   0.381
  815TIP3    H1 2322   2.816   3.676   0.319
  815TIP3    H2 2323   2.829   3.648   0.467
  816TIP3   OH2 2324   4.201   2.815   1.510
  816TIP3    H1 2325   4.107   2.817   1.524
  816TIP3    H2 2326   4.212   2.775   1.424
  817TIP3   OH2 2327   3.854   3.009   0.901
  817TIP3    H1 2328   3.777   2.954   0.914
  817TIP3    H2 2329   3.923   2.964   0.949
  818TIP3   OH2 2330   2.579   3.317   0.345
  818TIP3    H1 2331   2.664   3.349   0.374
  818TIP3    H2 2332   2.582   3.223   0.362
  819TIP3   OH2 2333   3.823   3.968   0.848
  819TIP3    H1 2334   3.778   4.012   0.776
  819TIP3    H2 2335   3.916   3.984   0.832
  820TIP3   OH2 2336   2.898   2.230   1.377
  820TIP3    H1 2337   2.835   2.193   1.315
  820TIP3    H2 2338   2.909   2.162   1.444
  821TIP3   OH2 2339   2.446   3.471   0.757
  821TIP3    H1 2340   2.371   3.483   0.815
  821TIP3    H2 2341   2.415   3.499   0.671
  822TIP3   OH2 2342   2.595   3.992   1.830
  822TIP3    H1 2343   2.678   3.997   1.876
  822TIP3    H2 2344   2.573   3.899   1.829
  823TIP3   OH2 2345   3.075   3.960   1.875
  823TIP3    H1 2346   3.169   3.947   1.884
  823TIP3    H2 2347   3.050   3.903   1.802
  824TIP3   OH2 2348   3.060   3.527   0.004
  824TIP3    H1 2349   2.996   3.472   0.048
  824TIP3    H2 2350   3.141   3.477   0.008
  825TIP3   OH2 2351   3.718   3.863   1.607
  825TIP3    H1 2352   3.706   3.797   1.675
  825TIP3    H2 2353   3.791   3.916   1.637
  826TIP3   OH2 2354   6.775   8.208   7.929
  826TIP3    H1 2355   6.784   8.128   7.980
  826TIP3    H2 2356   6.847   8.206   7.866
  827TIP3   OH2 2357   2.721   3.398   2.031
  827TIP3    H1 2358   2.740   3.305   2.034
  827TIP3    H2 2359   2.637   3.405   1.987
  828TIP3   OH2 2360   3.332   3.485   1.803
  828TIP3    H1 2361   3.289   3.502   1.719
  828TIP3    H2 2362   3.361   3.394   1.796
  829TIP3   OH2 2363   3.222   3.275   0.049
  829TIP3    H1 2364   3.234   3.287   0.144
  829TIP3    H2 2365   3.193   3.184   0.040
  830TIP3   OH2 2366   3.825   3.494   1.409
  830TIP3    H1 2367   3.898   3.541   1.367
  830TIP3    H2 2368   3.750   3.554   1.400
  831TIP3   OH2 2369   2.841   3.132   2.017
  831TIP3    H1 2370   2.919   3.084   1.987
  831TIP3    H2 2371   2.867   3.168   2.102
  832TIP3   OH2 2372   2.975   2.935   0.499
  832TIP3    H1 2373   2.917   2.914   0.572
  832TIP3    H2 2374   2.960   2.864   0.436
  833TIP3   OH2 2375   3.181   3.024   1.678
  833TIP3    H1 2376   3.102   3.077   1.682
  833TIP3    H2 2377   3.225   3.054   1.598
  834TIP3   OH2 2378   3.694   3.421   1.809
  834TIP3    H1 2379   3.775   3.402   1.762
  834TIP3    H2 2380   3.691   3.355   1.879
  835TIP3   OH2 2381   7.093   7.709   7.937
  835TIP3    H1 2382   7.104   7.666   7.852
  835TIP3    H2 2383   7.091   7.803   7.916
  836TIP3   OH2 2384   3.301   2.808   1.798
  836TIP3    H1 2385   3.299   2.729   1.744
  836TIP3    H2 2386   3.259   2.875   1.745
  837TIP3   OH2 2387   3.303   2.594   1.605
  837TIP3    H1 2388   3.329   2.637   1.523
  837TIP3    H2 2389   3.211   2.572   1.592
  838TIP3   OH2 2390   3.334   3.135   1.481
  838TIP3    H1 2391   3.413   3.140   1.428
  838TIP3    H2 2392   3.274   3.197   1.440
  839TIP3   OH2 2393   3.914   3.098   1.862
  839TIP3    H1 2394   3.962   3.016   1.873
  839TIP3    H2 2395   3.980   3.160   1.830
  840TIP3   OH2 2396   3.956   3.351   1.595
  840TIP3    H1 2397   3.895   3.401   1.540
  840TIP3    H2 2398   4.042   3.370   1.558
  841TIP3   OH2 2399   3.179   2.919   2.031
  841TIP3    H1 2400   3.110   2.854   2.045
  841TIP3    H2 2401   3.213   2.900   1.943
  842TIP3   OH2 2402   3.433   2.360   1.673
  842TIP3    H1 2403   3.389   2.442   1.651
  842TIP3    H2 2404   3.365   2.293   1.661
  843TIP3   OH2 2405   3.559   2.862   1.891
  843TIP3    H1 2406   3.551   2.854   1.986
  843TIP3    H2 2407   3.473   2.839   1.857
  844TIP3   OH2 2408   3.800   2.809   1.746
  844TIP3    H1 2409   3.725   2.814   1.805
  844TIP3    H2 2410   3.873   2.781   1.802
  845TIP3   OH2 2411   4.032   2.752   1.898
  845TIP3    H1 2412   4.043   2.659   1.916
  845TIP3    H2 2413   4.026   2.792   1.984
  846TIP3   OH2 2414   3.017   2.701   2.085
  846TIP3    H1 2415   3.022   2.614   2.045
  846TIP3    H2 2416   3.053   2.689   2.173
  847TIP3   OH2 2417   3.530   2.366   1.930
  847TIP3    H1 2418   3.597   2.298   1.926
  847TIP3    H2 2419   3.489   2.364   1.844
  848TIP3   OH2 2420   3.593   2.582   2.091
  848TIP3    H1 2421   3.573   2.513   2.028
  848TIP3    H2 2422   3.519   2.642   2.085
  849TIP3   OH2 2423   2.813   3.808   0.192
  849TIP3    H1 2424   2.905   3.805   0.165
  849TIP3    H2 2425   2.769   3.857   0.122
  850TIP3   OH2 2426   2.204   3.801   0.822
  850TIP3    H1 2427   2.142   3.738   0.785
  850TIP3    H2 2428   2.253   3.751   0.887
  851TIP3   OH2 2429   2.344   3.661   1.013
  851TIP3    H1 2430   2.338   3.584   1.069
  851TIP3    H2 2431   2.395   3.724   1.064
  852TIP3   OH2 2432   4.075   4.059   0.807
  852TIP3    H1 2433   4.096   4.086   0.896
  852TIP3    H2 2434   4.136   4.109   0.751
  853TIP3   OH2 2435   4.104   4.074   1.087
  853TIP3    H1 2436   4.060   3.990   1.085
  853TIP3    H2 2437   4.177   4.061   1.148
  854TIP3   OH2 2438   4.149   3.756   1.663
  854TIP3    H1 2439   4.077   3.762   1.725
  854TIP3    H2 2440   4.191   3.842   1.666
  855TIP3   OH2 2441   3.970   3.267   0.283
  855TIP3    H1 2442   4.034   3.333   0.257
  855TIP3    H2 2443   4.007   3.228   0.362
  856TIP3   OH2 2444   4.094   3.135   0.488
  856TIP3    H1 2445   4.028   3.093   0.544
  856TIP3    H2 2446   4.156   3.174   0.549
  857TIP3   OH2 2447   4.149   3.528   0.917
  857TIP3    H1 2448   4.200   3.464   0.868
  857TIP3    H2 2449   4.136   3.601   0.857
  858TIP3   OH2 2450   3.977   3.828   1.113
  858TIP3    H1 2451   3.910   3.870   1.166
  858TIP3    H2 2452   3.928   3.781   1.046
  859TIP3   OH2 2453   4.027   3.046   0.132
  859TIP3    H1 2454   3.953   3.044   0.071
  859TIP3    H2 2455   4.007   3.119   0.191
  860TIP3   OH2 2456   3.908   2.711   0.090
  860TIP3    H1 2457   3.864   2.752   0.015
  860TIP3    H2 2458   3.882   2.619   0.086
  861TIP3   OH2 2459   3.910   2.990   0.635
  861TIP3    H1 2460   3.915   2.895   0.628
  861TIP3    H2 2461   3.895   3.007   0.728
  862TIP3   OH2 2462   4.198   3.416   1.488
  862TIP3    H1 2463   4.269   3.352   1.480
  862TIP3    H2 2464   4.224   3.487   1.430
  863TIP3   OH2 2465   4.383   3.219   1.505
  863TIP3    H1 2466   4.308   3.175   1.544
  863TIP3    H2 2467   4.456   3.159   1.519
  864TIP3   OH2 2468   3.840   2.452   0.097
  864TIP3    H1 2469   3.924   2.419   0.127
  864TIP3    H2 2470   3.775   2.410   0.154
  865TIP3   OH2 2471   3.908   2.706   0.529
  865TIP3    H1 2472   3.944   2.619   0.546
  865TIP3    H2 2473   3.963   2.741   0.459
  866TIP3   OH2 2474   4.069   2.883   1.024
  866TIP3    H1 2475   4.151   2.907   0.982
  866TIP3    H2 2476   4.076   2.918   1.113
  867TIP3   OH2 2477   4.132   3.027   1.255
  867TIP3    H1 2478   4.056   3.058   1.304
  867TIP3    H2 2479   4.165   3.106   1.211
  868TIP3   OH2 2480   2.750   2.749   2.055
  868TIP3    H1 2481   2.846   2.747   2.052
  868TIP3    H2 2482   2.726   2.666   2.095
  869TIP3   OH2 2483   4.588   2.617   1.809
  869TIP3    H1 2484   4.644   2.552   1.768
  869TIP3    H2 2485   4.558   2.672   1.737
  870TIP3   OH2 2486   4.015   2.454   0.565
  870TIP3    H1 2487   4.060   2.443   0.648
  870TIP3    H2 2488   3.952   2.382   0.562
  871TIP3   OH2 2489   2.715   2.438   1.393
  871TIP3    H1 2490   2.790   2.380   1.400
  871TIP3    H2 2491   2.752   2.525   1.380
  872TIP3   OH2 2492   2.543   2.718   1.445
  872TIP3    H1 2493   2.535   2.716   1.350
  872TIP3    H2 2494   2.567   2.808   1.466
  873TIP3   OH2 2495   4.456   2.756   1.617
  873TIP3    H1 2496   4.374   2.799   1.643
  873TIP3    H2 2497   4.429   2.686   1.558
  874TIP3   OH2 2498   4.105   2.395   0.184
  874TIP3    H1 2499   4.171   2.334   0.152
  874TIP3    H2 2500   4.151   2.479   0.190
  875TIP3   OH2 2501   3.660   3.924   0.463
  875TIP3    H1 2502   3.712   3.911   0.384
  875TIP3    H2 2503   3.710   3.989   0.514
  876TIP3   OH2 2504   2.722   2.307   1.776
  876TIP3    H1 2505   2.671   2.296   1.856
  876TIP3    H2 2506   2.660   2.345   1.714
  877TIP3   OH2 2507   2.758   3.726   1.851
  877TIP3    H1 2508   2.668   3.699   1.833
  877TIP3    H2 2509   2.769   3.713   1.945
  878TIP3   OH2 2510   2.936   3.762   1.394
  878TIP3    H1 2511   2.886   3.835   1.360
  878TIP3    H2 2512   3.023   3.772   1.354
  879TIP3   OH2 2513   3.385   4.007   1.535
  879TIP3    H1 2514   3.422   4.006   1.624
  879TIP3    H2 2515   3.448   4.057   1.483
  880TIP3   OH2 2516   3.565   4.157   1.394
  880TIP3    H1 2517   3.635   4.104   1.356
  880TIP3    H2 2518   3.609   4.216   1.455
  881TIP3   OH2 2519   4.355   2.518   1.493
  881TIP3    H1 2520   4.265   2.517   1.461
  881TIP3    H2 2521   4.385   2.427   1.482
  882TIP3   OH2 2522   2.612   4.020   1.422
  882TIP3    H1 2523   2.525   4.051   1.398
  882TIP3    H2 2524   2.627   4.056   1.509
  883TIP3   OH2 2525   2.848   3.998   1.278
  883TIP3    H1 2526   2.765   4.009   1.325
  883TIP3    H2 2527   2.830   4.030   1.189
  884TIP3   OH2 2528   3.276   4.029   1.074
  884TIP3    H1 2529   3.205   4.047   1.013
  884TIP3    H2 2530   3.289   4.112   1.121
  885TIP3   OH2 2531   3.543   3.966   1.124
  885TIP3    H1 2532   3.450   3.981   1.107
  885TIP3    H2 2533   3.587   4.044   1.090
  886TIP3   OH2 2534   3.753   4.158   1.043
  886TIP3    H1 2535   3.739   4.241   0.998
  886TIP3    H2 2536   3.778   4.097   0.973
  887TIP3   OH2 2537   2.528   3.810   1.167
  887TIP3    H1 2538   2.549   3.788   1.257
  887TIP3    H2 2539   2.596   3.768   1.115
  888TIP3   OH2 2540   2.721   3.682   1.023
  888TIP3    H1 2541   2.732   3.600   1.071
  888TIP3    H2 2542   2.809   3.719   1.019
  889TIP3   OH2 2543   2.988   3.776   1.026
  889TIP3    H1 2544   3.015   3.685   1.013
  889TIP3    H2 2545   3.027   3.802   1.110
  890TIP3   OH2 2546   3.564   2.435   1.118
  890TIP3    H1 2547   3.517   2.369   1.169
  890TIP3    H2 2548   3.629   2.385   1.068
  891TIP3   OH2 2549   4.085   2.316   1.018
  891TIP3    H1 2550   4.120   2.368   0.946
  891TIP3    H2 2551   3.991   2.329   1.014
  892TIP3   OH2 2552   4.182   2.416   0.781
  892TIP3    H1 2553   4.253   2.364   0.742
  892TIP3    H2 2554   4.210   2.507   0.769
  893TIP3   OH2 2555   3.249   2.196   0.995
  893TIP3    H1 2556   3.321   2.241   0.951
  893TIP3    H2 2557   3.270   2.203   1.088
  894TIP3   OH2 2558   3.806   2.318   0.992
  894TIP3    H1 2559   3.795   2.285   0.903
  894TIP3    H2 2560   3.788   2.242   1.048
  895TIP3   OH2 2561   3.833   2.240   0.554
  895TIP3    H1 2562   3.745   2.277   0.549
  895TIP3    H2 2563   3.821   2.157   0.601
  896TIP3   OH2 2564   2.299   3.580   0.554
  896TIP3    H1 2565   2.222   3.541   0.514
  896TIP3    H2 2566   2.298   3.671   0.526
  897TIP3   OH2 2567   3.250   2.360   0.629
  897TIP3    H1 2568   3.273   2.295   0.696
  897TIP3    H2 2569   3.271   2.444   0.669
  898TIP3   OH2 2570   3.080   3.774   0.126
  898TIP3    H1 2571   3.170   3.796   0.104
  898TIP3    H2 2572   3.060   3.697   0.073
  899TIP3   OH2 2573   3.807   3.888   0.228
  899TIP3    H1 2574   3.801   3.793   0.221
  899TIP3    H2 2575   3.758   3.921   0.153
  900TIP3   OH2 2576   3.017   2.424   2.026
  900TIP3    H1 2577   2.982   2.353   2.078
  900TIP3    H2 2578   3.110   2.427   2.048
  901TIP3   OH2 2579   3.267   2.419   2.143
  901TIP3    H1 2580   3.350   2.401   2.098
  901TIP3    H2 2581   3.256   2.348   2.205
  902TIP3   OH2 2582   2.424   3.644   0.223
  902TIP3    H1 2583   2.369   3.666   0.299
  902TIP3    H2 2584   2.468   3.563   0.248
  903TIP3   OH2 2585   4.092   2.480   1.929
  903TIP3    H1 2586   4.109   2.451   2.019
  903TIP3    H2 2587   4.178   2.477   1.887
  904TIP3   OH2 2588   4.031   4.037   1.416
  904TIP3    H1 2589   3.953   4.002   1.372
  904TIP3    H2 2590   4.014   4.131   1.424
  905TIP3   OH2 2591   5.296   3.409   0.186
  905TIP3    H1 2592   5.271   3.499   0.167
  905TIP3    H2 2593   5.222   3.356   0.157
  906TIP3   OH2 2594   5.304   3.401   0.564
  906TIP3    H1 2595   5.326   3.381   0.655
  906TIP3    H2 2596   5.253   3.325   0.535
  907TIP3   OH2 2597   4.598   3.302   0.930
  907TIP3    H1 2598   4.625   3.234   0.993
  907TIP3    H2 2599   4.670   3.366   0.932
  908TIP3   OH2 2600   5.544   3.707   0.250
  908TIP3    H1 2601   5.518   3.644   0.317
  908TIP3    H2 2602   5.566   3.786   0.299
  909TIP3   OH2 2603   4.566   3.710   0.656
  909TIP3    H1 2604   4.555   3.615   0.660
  909TIP3    H2 2605   4.661   3.724   0.655
  910TIP3   OH2 2606   4.272   2.918   0.443
  910TIP3    H1 2607   4.227   3.000   0.460
  910TIP3    H2 2608   4.204   2.860   0.408
  911TIP3   OH2 2609   4.335   3.202   0.613
  911TIP3    H1 2610   4.380   3.127   0.651
  911TIP3    H2 2611   4.392   3.231   0.542
  912TIP3   OH2 2612   5.179   4.169   0.263
  912TIP3    H1 2613   5.230   4.104   0.216
  912TIP3    H2 2614   5.186   4.143   0.355
  913TIP3   OH2 2615   5.097   3.632   0.614
  913TIP3    H1 2616   5.129   3.558   0.562
  913TIP3    H2 2617   5.177   3.678   0.641
  914TIP3   OH2 2618   5.525   3.139   0.638
  914TIP3    H1 2619   5.547   3.051   0.669
  914TIP3    H2 2620   5.474   3.124   0.558
  915TIP3   OH2 2621   4.844   2.794   0.610
  915TIP3    H1 2622   4.823   2.867   0.552
  915TIP3    H2 2623   4.798   2.719   0.571
  916TIP3   OH2 2624   5.543   2.887   0.239
  916TIP3    H1 2625   5.615   2.864   0.297
  916TIP3    H2 2626   5.586   2.921   0.160
  917TIP3   OH2 2627   4.480   2.995   0.719
  917TIP3    H1 2628   4.559   2.977   0.769
  917TIP3    H2 2629   4.488   2.940   0.641
  918TIP3   OH2 2630   4.920   3.192   0.509
  918TIP3    H1 2631   5.011   3.169   0.526
  918TIP3    H2 2632   4.879   3.111   0.480
  919TIP3   OH2 2633   6.177   3.150   0.779
  919TIP3    H1 2634   6.094   3.192   0.757
  919TIP3    H2 2635   6.195   3.177   0.869
  920TIP3   OH2 2636   4.839   2.778   1.048
  920TIP3    H1 2637   4.781   2.813   0.980
  920TIP3    H2 2638   4.791   2.793   1.130
  921TIP3   OH2 2639   5.185   3.627   0.059
  921TIP3    H1 2640   5.153   3.608  -0.029
  921TIP3    H2 2641   5.145   3.711   0.082
  922TIP3   OH2 2642   4.947   3.554   0.845
  922TIP3    H1 2643   4.884   3.615   0.883
  922TIP3    H2 2644   4.988   3.604   0.774
  923TIP3   OH2 2645   5.760   2.878   0.417
  923TIP3    H1 2646   5.730   2.797   0.458
  923TIP3    H2 2647   5.754   2.944   0.485
  924TIP3   OH2 2648   4.714   2.893   0.831
  924TIP3    H1 2649   4.772   2.965   0.857
  924TIP3    H2 2650   4.760   2.851   0.758
  925TIP3   OH2 2651   4.771   3.746   0.939
  925TIP3    H1 2652   4.751   3.832   0.901
  925TIP3    H2 2653   4.697   3.727   0.997
  926TIP3   OH2 2654   4.173   3.437   0.179
  926TIP3    H1 2655   4.130   3.459   0.097
  926TIP3    H2 2656   4.201   3.521   0.215
  927TIP3   OH2 2657   5.608   3.949   0.415
  927TIP3    H1 2658   5.522   3.940   0.456
  927TIP3    H2 2659   5.604   4.034   0.371
  928TIP3   OH2 2660   5.895   2.857   0.781
  928TIP3    H1 2661   5.802   2.881   0.780
  928TIP3    H2 2662   5.923   2.867   0.690
  929TIP3   OH2 2663   5.196   2.497   0.763
  929TIP3    H1 2664   5.185   2.403   0.777
  929TIP3    H2 2665   5.121   2.537   0.807
  930TIP3   OH2 2666   5.313   3.998   0.092
  930TIP3    H1 2667   5.359   3.916   0.072
  930TIP3    H2 2668   5.367   4.066   0.052
  931TIP3   OH2 2669   5.457   3.786  -0.003
  931TIP3    H1 2670   5.437   3.711  -0.058
  931TIP3    H2 2671   5.488   3.748   0.080
  932TIP3   OH2 2672   5.836   3.866   0.758
  932TIP3    H1 2673   5.824   3.789   0.702
  932TIP3    H2 2674   5.816   3.940   0.700
  933TIP3   OH2 2675   8.393   7.879   8.017
  933TIP3    H1 2676   8.312   7.928   8.005
  933TIP3    H2 2677   8.430   7.872   7.928
  934TIP3   OH2 2678   8.348   7.652   7.762
  934TIP3    H1 2679   8.427   7.701   7.785
  934TIP3    H2 2680   8.379   7.585   7.701
  935TIP3   OH2 2681   6.029   3.498   0.599
  935TIP3    H1 2682   5.948   3.549   0.607
  935TIP3    H2 2683   6.063   3.520   0.513
  936TIP3   OH2 2684   5.474   3.332  -0.004
  936TIP3    H1 2685   5.417   3.362   0.067
  936TIP3    H2 2686   5.558   3.316   0.038
  937TIP3   OH2 2687   5.707   3.383   0.900
  937TIP3    H1 2688   5.710   3.463   0.953
  937TIP3    H2 2689   5.622   3.386   0.856
  938TIP3   OH2 2690   4.707   3.337   0.404
  938TIP3    H1 2691   4.665   3.282   0.338
  938TIP3    H2 2692   4.782   3.286   0.433
  939TIP3   OH2 2693   4.839   3.747   0.554
  939TIP3    H1 2694   4.816   3.704   0.471
  939TIP3    H2 2695   4.928   3.717   0.572
  940TIP3   OH2 2696   4.851   3.309   0.759
  940TIP3    H1 2697   4.878   3.293   0.669
  940TIP3    H2 2698   4.887   3.395   0.780
  941TIP3   OH2 2699   5.370   3.948   0.539
  941TIP3    H1 2700   5.357   4.028   0.589
  941TIP3    H2 2701   5.353   3.877   0.601
  942TIP3   OH2 2702   4.977   3.866   1.084
  942TIP3    H1 2703   4.922   3.929   1.131
  942TIP3    H2 2704   4.915   3.813   1.035
  943TIP3   OH2 2705   8.593   7.821   7.809
  943TIP3    H1 2706   8.641   7.870   7.876
  943TIP3    H2 2707   8.605   7.872   7.729
  944TIP3   OH2 2708   4.732   3.426   1.183
  944TIP3    H1 2709   4.741   3.510   1.228
  944TIP3    H2 2710   4.639   3.402   1.195
  945TIP3   OH2 2711   5.056   3.876   0.094
  945TIP3    H1 2712   5.129   3.933   0.120
  945TIP3    H2 2713   4.988   3.936   0.064
  946TIP3   OH2 2714   4.774   4.034   1.171
  946TIP3    H1 2715   4.740   4.033   1.081
  946TIP3    H2 2716   4.698   4.013   1.226
  947TIP3   OH2 2717   9.078   7.074   7.887
  947TIP3    H1 2718   8.997   7.085   7.935
  947TIP3    H2 2719   9.083   7.151   7.830
  948TIP3   OH2 2720   4.572   3.180   0.207
  948TIP3    H1 2721   4.509   3.227   0.153
  948TIP3    H2 2722   4.530   3.097   0.227
  949TIP3   OH2 2723   4.354   3.563   1.117
  949TIP3    H1 2724   4.288   3.544   1.051
  949TIP3    H2 2725   4.390   3.478   1.142
  950TIP3   OH2 2726   4.209   3.761   0.748
  950TIP3    H1 2727   4.305   3.754   0.742
  950TIP3    H2 2728   4.194   3.837   0.804
  951TIP3   OH2 2729   6.068   4.207   0.802
  951TIP3    H1 2730   6.071   4.113   0.817
  951TIP3    H2 2731   5.990   4.237   0.848
  952TIP3   OH2 2732   5.177   3.996   0.942
  952TIP3    H1 2733   5.179   4.087   0.972
  952TIP3    H2 2734   5.108   3.955   0.994
  953TIP3   OH2 2735   8.180   8.752   7.907
  953TIP3    H1 2736   8.163   8.735   7.815
  953TIP3    H2 2737   8.170   8.847   7.916
  954TIP3   OH2 2738   4.375   3.973   0.278
  954TIP3    H1 2739   4.425   3.968   0.360
  954TIP3    H2 2740   4.319   3.896   0.279
  955TIP3   OH2 2741   8.433   8.659   7.847
  955TIP3    H1 2742   8.344   8.675   7.878
  955TIP3    H2 2743   8.479   8.624   7.923
  956TIP3   OH2 2744   5.964   3.341   1.079
  956TIP3    H1 2745   5.882   3.356   1.033
  956TIP3    H2 2746   5.979   3.247   1.072
  957TIP3   OH2 2747   4.560   3.746   1.107
  957TIP3    H1 2748   4.608   3.735   1.188
  957TIP3    H2 2749   4.485   3.686   1.114
  958TIP3   OH2 2750   4.956   2.575   0.889
  958TIP3    H1 2751   4.871   2.541   0.862
  958TIP3    H2 2752   4.935   2.655   0.937
  959TIP3   OH2 2753   5.490   2.687   1.086
  959TIP3    H1 2754   5.557   2.662   1.149
  959TIP3    H2 2755   5.407   2.668   1.129
  960TIP3   OH2 2756   5.732   3.119   1.004
  960TIP3    H1 2757   5.685   3.112   1.087
  960TIP3    H2 2758   5.707   3.205   0.969
  961TIP3   OH2 2759   8.386   7.255   7.871
  961TIP3    H1 2760   8.345   7.249   7.957
  961TIP3    H2 2761   8.342   7.188   7.818
  962TIP3   OH2 2762   4.891   3.088   0.910
  962TIP3    H1 2763   4.841   3.106   0.990
  962TIP3    H2 2764   4.877   3.166   0.856
  963TIP3   OH2 2765   4.772   2.973   0.422
  963TIP3    H1 2766   4.682   2.949   0.442
  963TIP3    H2 2767   4.788   2.935   0.335
  964TIP3   OH2 2768   5.265   3.062   0.151
  964TIP3    H1 2769   5.211   3.131   0.111
  964TIP3    H2 2770   5.317   3.028   0.078
  965TIP3   OH2 2771   5.439   3.337   1.237
  965TIP3    H1 2772   5.415   3.266   1.297
  965TIP3    H2 2773   5.531   3.356   1.258
  966TIP3   OH2 2774   5.422   3.090   0.383
  966TIP3    H1 2775   5.357   3.122   0.320
  966TIP3    H2 2776   5.454   3.009   0.345
  967TIP3   OH2 2777   4.711   3.116   1.119
  967TIP3    H1 2778   4.730   3.182   1.185
  967TIP3    H2 2779   4.697   3.035   1.168
  968TIP3   OH2 2780   8.034   7.195   7.835
  968TIP3    H1 2781   8.028   7.204   7.930
  968TIP3    H2 2782   7.954   7.237   7.802
  969TIP3   OH2 2783   4.304   2.639   0.695
  969TIP3    H1 2784   4.376   2.670   0.750
  969TIP3    H2 2785   4.346   2.605   0.617
  970TIP3   OH2 2786   4.273   2.625   0.215
  970TIP3    H1 2787   4.324   2.659   0.141
  970TIP3    H2 2788   4.214   2.697   0.238
  971TIP3   OH2 2789   5.434   3.331   0.811
  971TIP3    H1 2790   5.470   3.264   0.753
  971TIP3    H2 2791   5.405   3.283   0.888
  972TIP3   OH2 2792   5.102   2.801   0.488
  972TIP3    H1 2793   5.017   2.796   0.532
  972TIP3    H2 2794   5.166   2.794   0.559
  973TIP3   OH2 2795   4.535   2.851   0.491
  973TIP3    H1 2796   4.443   2.860   0.466
  973TIP3    H2 2797   4.557   2.761   0.469
  974TIP3   OH2 2798   4.808   2.849   0.182
  974TIP3    H1 2799   4.901   2.862   0.160
  974TIP3    H2 2800   4.762   2.869   0.100
  975TIP3   OH2 2801   5.590   2.870   0.680
  975TIP3    H1 2802   5.565   2.883   0.771
  975TIP3    H2 2803   5.526   2.807   0.646
  976TIP3   OH2 2804   7.916   7.497   7.966
  976TIP3    H1 2805   7.825   7.476   7.943
  976TIP3    H2 2806   7.954   7.532   7.886
  977TIP3   OH2 2807   5.764   4.558   0.902
  977TIP3    H1 2808   5.753   4.583   0.810
  977TIP3    H2 2809   5.813   4.631   0.941
  978TIP3   OH2 2810   4.722   3.670   1.329
  978TIP3    H1 2811   4.801   3.701   1.373
  978TIP3    H2 2812   4.655   3.668   1.397
  979TIP3   OH2 2813   5.186   3.126   0.587
  979TIP3    H1 2814   5.246   3.073   0.535
  979TIP3    H2 2815   5.188   3.085   0.674
  980TIP3   OH2 2816   4.709   2.610   0.460
  980TIP3    H1 2817   4.674   2.534   0.507
  980TIP3    H2 2818   4.760   2.573   0.388
  981TIP3   OH2 2819   5.162   3.025   0.867
  981TIP3    H1 2820   5.072   3.056   0.883
  981TIP3    H2 2821   5.216   3.082   0.921
  982TIP3   OH2 2822   8.161   8.028   7.974
  982TIP3    H1 2823   8.091   7.964   7.960
  982TIP3    H2 2824   8.145   8.063   8.061
  983TIP3   OH2 2825   5.799   3.646   0.594
  983TIP3    H1 2826   5.822   3.697   0.516
  983TIP3    H2 2827   5.713   3.609   0.574
  984TIP3   OH2 2828   8.642   7.344   7.823
  984TIP3    H1 2829   8.551   7.313   7.823
  984TIP3    H2 2830   8.636   7.437   7.846
  985TIP3   OH2 2831   5.299   3.731   0.964
  985TIP3    H1 2832   5.318   3.707   1.055
  985TIP3    H2 2833   5.258   3.818   0.970
  986TIP3   OH2 2834   8.692   7.595   7.938
  986TIP3    H1 2835   8.787   7.598   7.951
  986TIP3    H2 2836   8.673   7.670   7.882
  987TIP3   OH2 2837   4.592   3.433   0.643
  987TIP3    H1 2838   4.628   3.404   0.560
  987TIP3    H2 2839   4.626   3.370   0.707
  988TIP3   OH2 2840   8.309   8.189   7.808
  988TIP3    H1 2841   8.264   8.273   7.809
  988TIP3    H2 2842   8.255   8.132   7.861
  989TIP3   OH2 2843   4.471   3.351   1.256
  989TIP3    H1 2844   4.490   3.341   1.349
  989TIP3    H2 2845   4.400   3.289   1.239
  990TIP3   OH2 2846   5.196   3.466   1.273
  990TIP3    H1 2847   5.134   3.408   1.229
  990TIP3    H2 2848   5.282   3.435   1.247
  991TIP3   OH2 2849   5.456   3.986   0.861
  991TIP3    H1 2850   5.361   3.986   0.872
  991TIP3    H2 2851   5.488   4.038   0.935
  992TIP3   OH2 2852   9.103   7.698   7.807
  992TIP3    H1 2853   9.130   7.625   7.751
  992TIP3    H2 2854   9.096   7.773   7.749
  993TIP3   OH2 2855   6.085   3.918   0.846
  993TIP3    H1 2856   5.989   3.915   0.843
  993TIP3    H2 2857   6.112   3.889   0.759
  994TIP3   OH2 2858   5.560   3.509   0.515
  994TIP3    H1 2859   5.468   3.488   0.532
  994TIP3    H2 2860   5.593   3.435   0.465
  995TIP3   OH2 2861   4.689   3.735   0.262
  995TIP3    H1 2862   4.690   3.818   0.213
  995TIP3    H2 2863   4.596   3.721   0.282
  996TIP3   OH2 2864   4.258   3.044  -0.023
  996TIP3    H1 2865   4.302   3.128  -0.006
  996TIP3    H2 2866   4.180   3.047   0.031
  997TIP3   OH2 2867   4.830   3.503   0.215
  997TIP3    H1 2868   4.796   3.592   0.228
  997TIP3    H2 2869   4.793   3.452   0.288
  998TIP3   OH2 2870   4.961   4.079   0.740
  998TIP3    H1 2871   5.000   4.148   0.685
  998TIP3    H2 2872   5.035   4.045   0.790
  999TIP3   OH2 2873   4.607   3.976   0.122
  999TIP3    H1 2874   4.523   3.980   0.167
  999TIP3    H2 2875   4.638   4.066   0.120
 1000TIP3   OH2 2876   5.349   3.712   0.697
 1000TIP3    H1 2877   5.336   3.716   0.792
 1000TIP3    H2 2878   5.432   3.665   0.686
 1001TIP3   OH2 2879   5.599   4.249   0.740
 1001TIP3    H1 2880   5.517   4.200   0.732
 1001TIP3    H2 2881   5.594   4.315   0.671
 1002TIP3   OH2 2882   4.681   2.857   1.265
 1002TIP3    H1 2883   4.586   2.866   1.278
 1002TIP3    H2 2884   4.710   2.800   1.336
 1003TIP3   OH2 2885   8.741   8.174   7.827
 1003TIP3    H1 2886   8.733   8.099   7.887
 1003TIP3    H2 2887   8.832   8.172   7.797
 1004TIP3   OH2 2888   4.401   3.943   0.896
 1004TIP3    H1 2889   4.451   3.868   0.928
 1004TIP3    H2 2890   4.420   4.013   0.959
 1005TIP3   OH2 2891   7.949   8.186   7.574
 1005TIP3    H1 2892   7.977   8.094   7.570
 1005TIP3    H2 2893   7.923   8.199   7.665
 1006TIP3   OH2 2894   7.904   8.216   7.850
 1006TIP3    H1 2895   7.970   8.184   7.910
 1006TIP3    H2 2896   7.908   8.311   7.858
 1007TIP3   OH2 2897   4.371   3.292   0.054
 1007TIP3    H1 2898   4.306   3.334   0.111
 1007TIP3    H2 2899   4.388   3.358  -0.014
 1008TIP3   OH2 2900   5.529   2.915   0.937
 1008TIP3    H1 2901   5.594   2.963   0.989
 1008TIP3    H2 2902   5.505   2.841   0.992
 1009TIP3   OH2 2903   5.388   2.681   0.106
 1009TIP3    H1 2904   5.380   2.694   0.011
 1009TIP3    H2 2905   5.429   2.762   0.137
 1010TIP3   OH2 2906   8.163   8.418   7.788
 1010TIP3    H1 2907   8.081   8.443   7.831
 1010TIP3    H2 2908   8.154   8.451   7.698
 1011TIP3   OH2 2909   5.091   2.854   0.214
 1011TIP3    H1 2910   5.153   2.924   0.193
 1011TIP3    H2 2911   5.093   2.848   0.309
 1012TIP3   OH2 2912   5.362   3.174   1.021
 1012TIP3    H1 2913   5.372   3.234   1.096
 1012TIP3    H2 2914   5.413   3.097   1.045
 1013TIP3   OH2 2915   5.233   2.588   0.316
 1013TIP3    H1 2916   5.222   2.665   0.372
 1013TIP3    H2 2917   5.290   2.619   0.246
 1014TIP3   OH2 2918   7.909   8.485   7.872
 1014TIP3    H1 2919   7.882   8.554   7.811
 1014TIP3    H2 2920   7.895   8.524   7.959
 1015TIP3   OH2 2921   4.747   2.583   0.109
 1015TIP3    H1 2922   4.740   2.672   0.144
 1015TIP3    H2 2923   4.840   2.562   0.115
 1016TIP3   OH2 2924   5.997   3.072   0.999
 1016TIP3    H1 2925   5.902   3.074   1.012
 1016TIP3    H2 2926   6.009   3.036   0.911
 1017TIP3   OH2 2927   5.656   3.248   0.397
 1017TIP3    H1 2928   5.570   3.207   0.388
 1017TIP3    H2 2929   5.679   3.236   0.489
 1018TIP3   OH2 2930   7.633   8.125   7.859
 1018TIP3    H1 2931   7.703   8.189   7.874
 1018TIP3    H2 2932   7.671   8.063   7.798
 1019TIP3   OH2 2933   7.586   7.401   7.987
 1019TIP3    H1 2934   7.573   7.495   7.980
 1019TIP3    H2 2935   7.509   7.362   7.947
 1020TIP3   OH2 2936   5.618   4.211   0.330
 1020TIP3    H1 2937   5.569   4.259   0.264
 1020TIP3    H2 2938   5.709   4.237   0.316
 1021TIP3   OH2 2939   4.694   2.490   0.865
 1021TIP3    H1 2940   4.662   2.460   0.780
 1021TIP3    H2 2941   4.684   2.415   0.923
 1022TIP3   OH2 2942   4.233   3.714   0.245
 1022TIP3    H1 2943   4.162   3.741   0.304
 1022TIP3    H2 2944   4.208   3.750   0.160
 1023TIP3   OH2 2945   4.391   4.249   1.314
 1023TIP3    H1 2946   4.474   4.253   1.363
 1023TIP3    H2 2947   4.366   4.157   1.316
 1024TIP3   OH2 2948   4.874   4.218   1.359
 1024TIP3    H1 2949   4.967   4.200   1.370
 1024TIP3    H2 2950   4.846   4.160   1.288
 1025TIP3   OH2 2951   5.516   4.119   1.094
 1025TIP3    H1 2952   5.503   4.053   1.162
 1025TIP3    H2 2953   5.587   4.174   1.126
 1026TIP3   OH2 2954   4.520   3.657   1.515
 1026TIP3    H1 2955   4.536   3.563   1.523
 1026TIP3    H2 2956   4.433   3.663   1.475
 1027TIP3   OH2 2957   7.776   7.942   7.725
 1027TIP3    H1 2958   7.832   7.899   7.789
 1027TIP3    H2 2959   7.805   7.907   7.640
 1028TIP3   OH2 2960   5.130   3.743   1.289
 1028TIP3    H1 2961   5.085   3.759   1.206
 1028TIP3    H2 2962   5.158   3.651   1.283
 1029TIP3   OH2 2963   8.307   8.149   7.533
 1029TIP3    H1 2964   8.311   8.180   7.623
 1029TIP3    H2 2965   8.313   8.053   7.541
 1030TIP3   OH2 2966   5.620   3.751   0.893
 1030TIP3    H1 2967   5.693   3.798   0.853
 1030TIP3    H2 2968   5.547   3.812   0.888
 1031TIP3   OH2 2969   4.641   3.391   1.501
 1031TIP3    H1 2970   4.713   3.331   1.482
 1031TIP3    H2 2971   4.662   3.426   1.587
 1032TIP3   OH2 2972   7.971   7.829   7.935
 1032TIP3    H1 2973   7.945   7.791   8.018
 1032TIP3    H2 2974   8.007   7.756   7.885
 1033TIP3   OH2 2975   4.974   3.280   1.160
 1033TIP3    H1 2976   4.897   3.335   1.166
 1033TIP3    H2 2977   5.021   3.311   1.083
 1034TIP3   OH2 2978   8.070   7.624   7.770
 1034TIP3    H1 2979   8.056   7.604   7.677
 1034TIP3    H2 2980   8.164   7.638   7.778
 1035TIP3   OH2 2981   5.489   3.677   1.296
 1035TIP3    H1 2982   5.572   3.658   1.251
 1035TIP3    H2 2983   5.485   3.613   1.367
 1036TIP3   OH2 2984   5.098   3.066   1.285
 1036TIP3    H1 2985   5.095   2.986   1.232
 1036TIP3    H2 2986   5.054   3.131   1.231
 1037TIP3   OH2 2987   5.099   2.851   1.090
 1037TIP3    H1 2988   5.125   2.892   1.008
 1037TIP3    H2 2989   5.007   2.828   1.077
 1038TIP3   OH2 2990   5.129   3.388   0.964
 1038TIP3    H1 2991   5.211   3.399   0.916
 1038TIP3    H2 2992   5.070   3.453   0.925
 1039TIP3   OH2 2993   5.710   3.353   1.347
 1039TIP3    H1 2994   5.758   3.273   1.366
 1039TIP3    H2 2995   5.776   3.415   1.318
 1040TIP3   OH2 2996   5.752   3.607   1.079
 1040TIP3    H1 2997   5.691   3.657   1.025
 1040TIP3    H2 2998   5.838   3.626   1.042
 1041TIP3   OH2 2999   4.975   3.176   1.515
 1041TIP3    H1 3000   4.906   3.112   1.533
 1041TIP3    H2 3001   5.009   3.152   1.430
 1042TIP3   OH2 3002   5.229   2.615   1.158
 1042TIP3    H1 3003   5.183   2.697   1.138
 1042TIP3    H2 3004   5.162   2.547   1.149
 1043TIP3   OH2 3005   5.356   3.119   1.378
 1043TIP3    H1 3006   5.350   3.110   1.473
 1043TIP3    H2 3007   5.269   3.096   1.346
 1044TIP3   OH2 3008   5.595   3.062   1.231
 1044TIP3    H1 3009   5.521   3.070   1.291
 1044TIP3    H2 3010   5.669   3.036   1.286
 1045TIP3   OH2 3011   5.827   3.007   1.383
 1045TIP3    H1 3012   5.838   2.914   1.403
 1045TIP3    H2 3013   5.821   3.049   1.469
 1046TIP3   OH2 3014   4.816   2.956   1.570
 1046TIP3    H1 3015   4.820   2.867   1.535
 1046TIP3    H2 3016   4.850   2.948   1.659
 1047TIP3   OH2 3017   5.328   2.624   1.414
 1047TIP3    H1 3018   5.394   2.555   1.413
 1047TIP3    H2 3019   5.286   2.619   1.329
 1048TIP3   OH2 3020   5.391   2.841   1.576
 1048TIP3    H1 3021   5.371   2.771   1.514
 1048TIP3    H2 3022   5.316   2.899   1.572
 1049TIP3   OH2 3023   7.860   8.686   7.693
 1049TIP3    H1 3024   7.943   8.711   7.652
 1049TIP3    H2 3025   7.794   8.703   7.626
 1050TIP3   OH2 3026   7.366   8.071   7.908
 1050TIP3    H1 3027   7.453   8.106   7.890
 1050TIP3    H2 3028   7.362   7.989   7.858
 1051TIP3   OH2 3029   4.008   4.060   0.306
 1051TIP3    H1 3030   3.940   4.002   0.273
 1051TIP3    H2 3031   4.053   4.009   0.374
 1052TIP3   OH2 3032   4.143   3.917   0.498
 1052TIP3    H1 3033   4.130   3.841   0.555
 1052TIP3    H2 3034   4.193   3.978   0.551
 1053TIP3   OH2 3035   5.867   4.313   0.299
 1053TIP3    H1 3036   5.884   4.348   0.386
 1053TIP3    H2 3037   5.929   4.359   0.241
 1054TIP3   OH2 3038   5.913   4.327   0.578
 1054TIP3    H1 3039   5.855   4.252   0.564
 1054TIP3    H2 3040   5.974   4.297   0.645
 1055TIP3   OH2 3041   5.945   4.013   1.149
 1055TIP3    H1 3042   5.873   4.018   1.211
 1055TIP3    H2 3043   5.986   4.099   1.152
 1056TIP3   OH2 3044   9.008   8.153   7.778
 1056TIP3    H1 3045   9.073   8.213   7.741
 1056TIP3    H2 3046   9.059   8.099   7.839
 1057TIP3   OH2 3047   5.893   3.394  -0.032
 1057TIP3    H1 3048   5.823   3.353   0.020
 1057TIP3    H2 3049   5.949   3.436   0.033
 1058TIP3   OH2 3050   5.945   3.785   0.406
 1058TIP3    H1 3051   5.997   3.722   0.356
 1058TIP3    H2 3052   5.932   3.859   0.346
 1059TIP3   OH2 3053   5.773   4.084   0.599
 1059TIP3    H1 3054   5.706   4.129   0.651
 1059TIP3    H2 3055   5.723   4.038   0.531
 1060TIP3   OH2 3056   5.713   3.246   0.123
 1060TIP3    H1 3057   5.704   3.152   0.104
 1060TIP3    H2 3058   5.699   3.254   0.217
 1061TIP3   OH2 3059   4.333   3.320   0.864
 1061TIP3    H1 3060   4.328   3.292   0.773
 1061TIP3    H2 3061   4.427   3.323   0.883
 1062TIP3   OH2 3062   5.995   3.673   0.974
 1062TIP3    H1 3063   6.065   3.609   0.967
 1062TIP3    H2 3064   6.021   3.744   0.915
 1063TIP3   OH2 3065   6.180   3.476   0.992
 1063TIP3    H1 3066   6.104   3.431   1.030
 1063TIP3    H2 3067   6.253   3.415   1.004
 1064TIP3   OH2 3068   8.889   7.332   7.598
 1064TIP3    H1 3069   8.972   7.296   7.631
 1064TIP3    H2 3070   8.822   7.285   7.647
 1065TIP3   OH2 3071   5.701   2.970   0.022
 1065TIP3    H1 3072   5.738   2.882   0.031
 1065TIP3    H2 3073   5.749   3.009  -0.051
 1066TIP3   OH2 3074   5.932   3.279   0.742
 1066TIP3    H1 3075   5.854   3.308   0.789
 1066TIP3    H2 3076   5.963   3.357   0.696
 1067TIP3   OH2 3077   4.550   3.007   1.541
 1067TIP3    H1 3078   4.645   3.003   1.542
 1067TIP3    H2 3079   4.522   2.925   1.582
 1068TIP3   OH2 3080   6.382   2.872   1.296
 1068TIP3    H1 3081   6.440   2.807   1.256
 1068TIP3    H2 3082   6.354   2.928   1.224
 1069TIP3   OH2 3083   5.805   2.714   0.058
 1069TIP3    H1 3084   5.853   2.693   0.139
 1069TIP3    H2 3085   5.740   2.644   0.051
 1070TIP3   OH2 3086   4.512   2.700   0.868
 1070TIP3    H1 3087   4.571   2.625   0.881
 1070TIP3    H2 3088   4.570   2.776   0.866
 1071TIP3   OH2 3089   4.314   2.975   0.945
 1071TIP3    H1 3090   4.361   2.969   0.861
 1071TIP3    H2 3091   4.338   3.061   0.980
 1072TIP3   OH2 3092   6.252   3.013   1.103
 1072TIP3    H1 3093   6.171   3.056   1.133
 1072TIP3    H2 3094   6.223   2.943   1.046
 1073TIP3   OH2 3095   9.139   7.273   7.709
 1073TIP3    H1 3096   9.203   7.226   7.656
 1073TIP3    H2 3097   9.164   7.365   7.699
 1074TIP3   OH2 3098   4.294   2.477   0.442
 1074TIP3    H1 3099   4.204   2.475   0.474
 1074TIP3    H2 3100   4.291   2.535   0.367
 1075TIP3   OH2 3101   8.723   8.797   7.958
 1075TIP3    H1 3102   8.779   8.780   7.883
 1075TIP3    H2 3103   8.764   8.870   8.003
 1076TIP3   OH2 3104   4.513   2.557   1.259
 1076TIP3    H1 3105   4.467   2.552   1.343
 1076TIP3    H2 3106   4.449   2.597   1.200
 1077TIP3   OH2 3107   4.555   3.980   1.339
 1077TIP3    H1 3108   4.464   3.957   1.320
 1077TIP3    H2 3109   4.564   3.968   1.433
 1078TIP3   OH2 3110   4.734   4.018   0.883
 1078TIP3    H1 3111   4.680   4.088   0.846
 1078TIP3    H2 3112   4.819   4.028   0.840
 1079TIP3   OH2 3113   5.180   4.261   1.023
 1079TIP3    H1 3114   5.218   4.262   1.111
 1079TIP3    H2 3115   5.242   4.311   0.969
 1080TIP3   OH2 3116   5.362   4.409   0.884
 1080TIP3    H1 3117   5.433   4.364   0.837
 1080TIP3    H2 3118   5.406   4.469   0.943
 1081TIP3   OH2 3119   6.153   2.773   0.979
 1081TIP3    H1 3120   6.060   2.769   0.954
 1081TIP3    H2 3121   6.183   2.682   0.971
 1082TIP3   OH2 3122   4.407   4.278   0.908
 1082TIP3    H1 3123   4.319   4.309   0.885
 1082TIP3    H2 3124   4.422   4.309   0.997
 1083TIP3   OH2 3125   4.639   4.251   0.762
 1083TIP3    H1 3126   4.556   4.264   0.808
 1083TIP3    H2 3127   4.623   4.283   0.673
 1084TIP3   OH2 3128   5.075   4.266   0.569
 1084TIP3    H1 3129   5.023   4.285   0.490
 1084TIP3    H2 3130   5.087   4.352   0.610
 1085TIP3   OH2 3131   5.345   4.237   0.608
 1085TIP3    H1 3132   5.250   4.231   0.596
 1085TIP3    H2 3133   5.368   4.325   0.577
 1086TIP3   OH2 3134   5.578   4.424   0.533
 1086TIP3    H1 3135   5.508   4.488   0.518
 1086TIP3    H2 3136   5.577   4.369   0.454
 1087TIP3   OH2 3137   4.325   4.069   0.654
 1087TIP3    H1 3138   4.346   4.045   0.744
 1087TIP3    H2 3139   4.392   4.025   0.601
 1088TIP3   OH2 3140   4.513   3.936   0.509
 1088TIP3    H1 3141   4.525   3.855   0.558
 1088TIP3    H2 3142   4.601   3.974   0.505
 1089TIP3   OH2 3143   4.773   4.020   0.518
 1089TIP3    H1 3144   4.808   3.931   0.511
 1089TIP3    H2 3145   4.819   4.058   0.592
 1090TIP3   OH2 3146   5.364   2.690   0.604
 1090TIP3    H1 3147   5.314   2.626   0.655
 1090TIP3    H2 3148   5.425   2.638   0.552
 1091TIP3   OH2 3149   5.884   2.593   0.513
 1091TIP3    H1 3150   5.917   2.630   0.431
 1091TIP3    H2 3151   5.791   2.580   0.498
 1092TIP3   OH2 3152   5.993   2.683   0.265
 1092TIP3    H1 3153   6.047   2.610   0.235
 1092TIP3    H2 3154   6.032   2.760   0.223
 1093TIP3   OH2 3155   4.604   2.397   0.617
 1093TIP3    H1 3156   4.513   2.368   0.619
 1093TIP3    H2 3157   4.655   2.316   0.614
 1094TIP3   OH2 3158   4.373   2.269   0.259
 1094TIP3    H1 3159   4.421   2.319   0.193
 1094TIP3    H2 3160   4.356   2.332   0.329
 1095TIP3   OH2 3161   5.047   2.434   0.496
 1095TIP3    H1 3162   5.108   2.478   0.437
 1095TIP3    H2 3163   5.068   2.469   0.583
 1096TIP3   OH2 3164   5.607   2.570   0.476
 1096TIP3    H1 3165   5.604   2.534   0.387
 1096TIP3    H2 3166   5.597   2.494   0.533
 1097TIP3   OH2 3167   5.612   2.505   0.061
 1097TIP3    H1 3168   5.522   2.538   0.058
 1097TIP3    H2 3169   5.606   2.422   0.109
 1098TIP3   OH2 3170   4.110   3.836   0.038
 1098TIP3    H1 3171   4.027   3.798   0.009
 1098TIP3    H2 3172   4.094   3.930   0.042
 1099TIP3   OH2 3173   4.516   2.415   0.074
 1099TIP3    H1 3174   4.539   2.373  -0.009
 1099TIP3    H2 3175   4.585   2.479   0.089
 1100TIP3   OH2 3176   5.022   2.604   0.130
 1100TIP3    H1 3177   5.079   2.553   0.187
 1100TIP3    H2 3178   5.043   2.695   0.151
 1101TIP3   OH2 3179   4.816   2.679   1.509
 1101TIP3    H1 3180   4.777   2.611   1.564
 1101TIP3    H2 3181   4.908   2.682   1.535
 1102TIP3   OH2 3182   5.063   2.675   1.628
 1102TIP3    H1 3183   5.148   2.651   1.590
 1102TIP3    H2 3184   5.047   2.609   1.695
 1103TIP3   OH2 3185   7.491   8.527   7.713
 1103TIP3    H1 3186   7.439   8.524   7.793
 1103TIP3    H2 3187   7.538   8.444   7.712
 1104TIP3   OH2 3188   5.889   2.736   1.416
 1104TIP3    H1 3189   5.904   2.707   1.506
 1104TIP3    H2 3190   5.975   2.733   1.375
 1105TIP3   OH2 3191   5.827   4.292   0.903
 1105TIP3    H1 3192   5.750   4.256   0.859
 1105TIP3    H2 3193   5.807   4.386   0.911
 1106TIP3   OH2 3194   7.085   3.641   0.067
 1106TIP3    H1 3195   7.128   3.635   0.152
 1106TIP3    H2 3196   7.042   3.557   0.056
 1107TIP3   OH2 3197   6.393   3.556   0.417
 1107TIP3    H1 3198   6.416   3.490   0.484
 1107TIP3    H2 3199   6.466   3.617   0.418
 1108TIP3   OH2 3200   6.361   3.958   0.146
 1108TIP3    H1 3201   6.348   3.864   0.149
 1108TIP3    H2 3202   6.454   3.970   0.167
 1109TIP3   OH2 3203   9.316   7.785   7.950
 1109TIP3    H1 3204   9.287   7.876   7.956
 1109TIP3    H2 3205   9.245   7.739   7.907
 1110TIP3   OH2 3206   6.135   3.455   0.101
 1110TIP3    H1 3207   6.176   3.379   0.141
 1110TIP3    H2 3208   6.200   3.487   0.038
 1111TIP3   OH2 3209   6.891   3.891   0.101
 1111TIP3    H1 3210   6.916   3.808   0.061
 1111TIP3    H2 3211   6.974   3.930   0.130
 1112TIP3   OH2 3212   7.299   3.385   0.133
 1112TIP3    H1 3213   7.338   3.305   0.170
 1112TIP3    H2 3214   7.317   3.379   0.039
 1113TIP3   OH2 3215   6.618   3.056   0.107
 1113TIP3    H1 3216   6.600   3.132   0.052
 1113TIP3    H2 3217   6.585   2.982   0.056
 1114TIP3   OH2 3218   6.255   3.220   0.215
 1114TIP3    H1 3219   6.340   3.237   0.255
 1114TIP3    H2 3220   6.276   3.187   0.127
 1115TIP3   OH2 3221   6.725   3.460   0.013
 1115TIP3    H1 3222   6.818   3.440   0.024
 1115TIP3    H2 3223   6.689   3.383  -0.031
 1116TIP3   OH2 3224   7.940   3.406   0.270
 1116TIP3    H1 3225   7.872   3.472   0.258
 1116TIP3    H2 3226   7.994   3.439   0.343
 1117TIP3   OH2 3227   6.635   3.034   0.534
 1117TIP3    H1 3228   6.578   3.074   0.468
 1117TIP3    H2 3229   6.589   3.048   0.617
 1118TIP3   OH2 3230   6.742   3.813   0.330
 1118TIP3    H1 3231   6.679   3.872   0.372
 1118TIP3    H2 3232   6.790   3.868   0.269
 1119TIP3   OH2 3233   6.500   3.154   0.324
 1119TIP3    H1 3234   6.560   3.224   0.350
 1119TIP3    H2 3235   6.544   3.110   0.251
 1120TIP3   OH2 3236   6.562   4.003   0.422
 1120TIP3    H1 3237   6.545   4.092   0.391
 1120TIP3    H2 3238   6.491   3.984   0.483
 1121TIP3   OH2 3239   7.688   3.109   0.256
 1121TIP3    H1 3240   7.598   3.136   0.241
 1121TIP3    H2 3241   7.735   3.137   0.178
 1122TIP3   OH2 3242   6.994   2.751   0.256
 1122TIP3    H1 3243   6.978   2.657   0.268
 1122TIP3    H2 3244   6.917   2.793   0.293
 1123TIP3   OH2 3245   7.619   4.138   0.246
 1123TIP3    H1 3246   7.639   4.080   0.173
 1123TIP3    H2 3247   7.598   4.222   0.204
 1124TIP3   OH2 3248   7.498   3.637   0.393
 1124TIP3    H1 3249   7.504   3.717   0.445
 1124TIP3    H2 3250   7.418   3.647   0.343
 1125TIP3   OH2 3251   9.772   8.207   7.893
 1125TIP3    H1 3252   9.757   8.138   7.829
 1125TIP3    H2 3253   9.853   8.180   7.938
 1126TIP3   OH2 3254   6.649   4.005   0.029
 1126TIP3    H1 3255   6.615   3.928  -0.017
 1126TIP3    H2 3256   6.735   3.979   0.062
 1127TIP3   OH2 3257   6.636   3.571   0.249
 1127TIP3    H1 3258   6.674   3.542   0.166
 1127TIP3    H2 3259   6.682   3.652   0.271
 1128TIP3   OH2 3260   6.774   4.123   0.567
 1128TIP3    H1 3261   6.723   4.186   0.618
 1128TIP3    H2 3262   6.709   4.069   0.523
 1129TIP3   OH2 3263   6.526   3.684   0.667
 1129TIP3    H1 3264   6.536   3.767   0.714
 1129TIP3    H2 3265   6.435   3.660   0.682
 1130TIP3   OH2 3266   6.568   4.285   0.653
 1130TIP3    H1 3267   6.532   4.285   0.565
 1130TIP3    H2 3268   6.492   4.269   0.710
 1131TIP3   OH2 3269   6.152   3.821   0.602
 1131TIP3    H1 3270   6.084   3.800   0.539
 1131TIP3    H2 3271   6.187   3.736   0.630
 1132TIP3   OH2 3272   6.005   4.013   0.240
 1132TIP3    H1 3273   6.100   4.017   0.229
 1132TIP3    H2 3274   5.983   4.091   0.292
 1133TIP3   OH2 3275   7.868   4.451   0.297
 1133TIP3    H1 3276   7.891   4.361   0.320
 1133TIP3    H2 3277   7.793   4.472   0.353
 1134TIP3   OH2 3278   6.969   4.256   0.422
 1134TIP3    H1 3279   6.975   4.344   0.458
 1134TIP3    H2 3280   6.905   4.212   0.478
 1135TIP3   OH2 3281   7.752   3.591   0.573
 1135TIP3    H1 3282   7.683   3.607   0.509
 1135TIP3    H2 3283   7.773   3.498   0.564
 1136TIP3   OH2 3284   6.356   4.006   0.597
 1136TIP3    H1 3285   6.407   3.988   0.676
 1136TIP3    H2 3286   6.283   3.944   0.602
 1137TIP3   OH2 3287   6.747   2.827   0.377
 1137TIP3    H1 3288   6.660   2.798   0.349
 1137TIP3    H2 3289   6.731   2.909   0.423
 1138TIP3   OH2 3290   7.289   2.941   0.571
 1138TIP3    H1 3291   7.356   2.918   0.635
 1138TIP3    H2 3292   7.206   2.924   0.617
 1139TIP3   OH2 3293   7.522   3.372   0.485
 1139TIP3    H1 3294   7.481   3.367   0.572
 1139TIP3    H2 3295   7.504   3.461   0.456
 1140TIP3   OH2 3296   6.680   3.346   0.395
 1140TIP3    H1 3297   6.638   3.365   0.479
 1140TIP3    H2 3298   6.667   3.425   0.343
 1141TIP3   OH2 3299   9.795   7.874   7.945
 1141TIP3    H1 3300   9.728   7.807   7.931
 1141TIP3    H2 3301   9.851   7.868   7.868
 1142TIP3   OH2 3302   7.236   3.594   0.724
 1142TIP3    H1 3303   7.213   3.523   0.784
 1142TIP3    H2 3304   7.327   3.613   0.743
 1143TIP3   OH2 3305   6.503   3.371   0.608
 1143TIP3    H1 3306   6.533   3.437   0.670
 1143TIP3    H2 3307   6.494   3.291   0.659
 1144TIP3   OH2 3308   7.605   5.688   1.127
 1144TIP3    H1 3309   7.618   5.771   1.082
 1144TIP3    H2 3310   7.511   5.671   1.122
 1145TIP3   OH2 3311   7.224   3.588   0.295
 1145TIP3    H1 3312   7.257   3.517   0.240
 1145TIP3    H2 3313   7.200   3.547   0.377
 1146TIP3   OH2 3314   6.876   2.976   0.032
 1146TIP3    H1 3315   6.802   3.026   0.067
 1146TIP3    H2 3316   6.950   3.037   0.036
 1147TIP3   OH2 3317   9.578   7.705   7.976
 1147TIP3    H1 3318   9.484   7.711   7.957
 1147TIP3    H2 3319   9.601   7.615   7.956
 1148TIP3   OH2 3320   7.381   3.126   0.182
 1148TIP3    H1 3321   7.352   3.143   0.272
 1148TIP3    H2 3322   7.318   3.063   0.148
 1149TIP3   OH2 3323   7.562   4.809   0.376
 1149TIP3    H1 3324   7.513   4.860   0.312
 1149TIP3    H2 3325   7.620   4.872   0.419
 1150TIP3   OH2 3326   6.519   3.929   0.816
 1150TIP3    H1 3327   6.599   3.956   0.860
 1150TIP3    H2 3328   6.453   3.924   0.885
 1151TIP3   OH2 3329   6.985   3.378   0.068
 1151TIP3    H1 3330   7.030   3.317   0.010
 1151TIP3    H2 3331   6.999   3.343   0.156
 1152TIP3   OH2 3332   9.778   7.485   7.943
 1152TIP3    H1 3333   9.738   7.412   7.990
 1152TIP3    H2 3334   9.856   7.447   7.902
 1153TIP3   OH2 3335   6.956   3.280   0.358
 1153TIP3    H1 3336   6.869   3.316   0.374
 1153TIP3    H2 3337   7.015   3.336   0.407
 1154TIP3   OH2 3338   7.082   3.982   0.453
 1154TIP3    H1 3339   7.123   3.959   0.537
 1154TIP3    H2 3340   7.059   4.074   0.461
 1155TIP3   OH2 3341   6.384   3.679   0.130
 1155TIP3    H1 3342   6.425   3.649   0.049
 1155TIP3    H2 3343   6.427   3.629   0.199
 1156TIP3   OH2 3344   6.265   3.609   0.743
 1156TIP3    H1 3345   6.290   3.600   0.836
 1156TIP3    H2 3346   6.198   3.542   0.730
 1157TIP3   OH2 3347   6.993   3.722   0.760
 1157TIP3    H1 3348   6.935   3.662   0.713
 1157TIP3    H2 3349   7.082   3.693   0.737
 1158TIP3   OH2 3350   7.243   4.231   0.354
 1158TIP3    H1 3351   7.150   4.245   0.368
 1158TIP3    H2 3352   7.286   4.286   0.419
 1159TIP3   OH2 3353   7.873   4.178   0.360
 1159TIP3    H1 3354   7.778   4.187   0.355
 1159TIP3    H2 3355   7.900   4.153   0.272
 1160TIP3   OH2 3356   6.758   4.316   0.232
 1160TIP3    H1 3357   6.785   4.387   0.174
 1160TIP3    H2 3358   6.836   4.297   0.284
 1161TIP3   OH2 3359   7.135   3.980   0.181
 1161TIP3    H1 3360   7.128   3.977   0.276
 1161TIP3    H2 3361   7.228   3.971   0.163
 1162TIP3   OH2 3362   6.478   3.113   0.751
 1162TIP3    H1 3363   6.385   3.123   0.770
 1162TIP3    H2 3364   6.511   3.059   0.823
 1163TIP3   OH2 3365   6.202   4.198   0.392
 1163TIP3    H1 3366   6.247   4.117   0.417
 1163TIP3    H2 3367   6.225   4.260   0.462
 1164TIP3   OH2 3368   7.312   3.182   0.437
 1164TIP3    H1 3369   7.392   3.222   0.471
 1164TIP3    H2 3370   7.302   3.102   0.488
 1165TIP3   OH2 3371   7.156   3.432   0.508
 1165TIP3    H1 3372   7.175   3.485   0.585
 1165TIP3    H2 3373   7.209   3.353   0.518
 1166TIP3   OH2 3374   7.791   3.327   0.493
 1166TIP3    H1 3375   7.696   3.321   0.489
 1166TIP3    H2 3376   7.821   3.311   0.404
 1167TIP3   OH2 3377   6.472   2.756   0.355
 1167TIP3    H1 3378   6.452   2.721   0.268
 1167TIP3    H2 3379   6.472   2.679   0.412
 1168TIP3   OH2 3380   6.242   4.507   0.816
 1168TIP3    H1 3381   6.285   4.437   0.865
 1168TIP3    H2 3382   6.169   4.465   0.771
 1169TIP3   OH2 3383   6.650   4.485   0.833
 1169TIP3    H1 3384   6.742   4.485   0.861
 1169TIP3    H2 3385   6.645   4.416   0.767
 1170TIP3   OH2 3386   7.314   4.374   0.577
 1170TIP3    H1 3387   7.301   4.310   0.647
 1170TIP3    H2 3388   7.384   4.431   0.609
 1171TIP3   OH2 3389   6.316   3.914   1.001
 1171TIP3    H1 3390   6.332   3.821   1.013
 1171TIP3    H2 3391   6.228   3.918   0.962
 1172TIP3   OH2 3392   6.924   3.998   0.776
 1172TIP3    H1 3393   6.886   4.014   0.690
 1172TIP3    H2 3394   6.957   3.908   0.772
 1173TIP3   OH2 3395   7.414   4.011   0.382
 1173TIP3    H1 3396   7.490   4.049   0.337
 1173TIP3    H2 3397   7.346   4.078   0.376
 1174TIP3   OH2 3398   6.440   3.648   0.985
 1174TIP3    H1 3399   6.511   3.586   0.969
 1174TIP3    H2 3400   6.458   3.683   1.072
 1175TIP3   OH2 3401   6.766   3.531   0.643
 1175TIP3    H1 3402   6.693   3.593   0.650
 1175TIP3    H2 3403   6.818   3.564   0.569
 1176TIP3   OH2 3404   7.285   3.932   0.780
 1176TIP3    H1 3405   7.371   3.920   0.740
 1176TIP3    H2 3406   7.283   3.870   0.853
 1177TIP3   OH2 3407   6.891   3.321   0.773
 1177TIP3    H1 3408   6.894   3.241   0.720
 1177TIP3    H2 3409   6.849   3.386   0.717
 1178TIP3   OH2 3410   6.895   3.108   0.578
 1178TIP3    H1 3411   6.925   3.148   0.496
 1178TIP3    H2 3412   6.804   3.085   0.562
 1179TIP3   OH2 3413   6.920   3.640   0.450
 1179TIP3    H1 3414   7.007   3.649   0.411
 1179TIP3    H2 3415   6.869   3.711   0.411
 1180TIP3   OH2 3416   7.507   3.610   0.835
 1180TIP3    H1 3417   7.555   3.528   0.848
 1180TIP3    H2 3418   7.573   3.671   0.802
 1181TIP3   OH2 3419   7.551   3.866   0.563
 1181TIP3    H1 3420   7.489   3.918   0.511
 1181TIP3    H2 3421   7.636   3.882   0.523
 1182TIP3   OH2 3422   6.767   3.434   1.001
 1182TIP3    H1 3423   6.700   3.369   1.020
 1182TIP3    H2 3424   6.805   3.407   0.917
 1183TIP3   OH2 3425   7.026   2.872   0.646
 1183TIP3    H1 3426   6.981   2.954   0.625
 1183TIP3    H2 3427   6.958   2.805   0.636
 1184TIP3   OH2 3428   7.151   3.377   0.866
 1184TIP3    H1 3429   7.149   3.367   0.961
 1184TIP3    H2 3430   7.064   3.352   0.837
 1185TIP3   OH2 3431   7.393   3.323   0.720
 1185TIP3    H1 3432   7.319   3.327   0.780
 1185TIP3    H2 3433   7.467   3.295   0.774
 1186TIP3   OH2 3434   7.617   3.263   0.872
 1186TIP3    H1 3435   7.633   3.170   0.890
 1186TIP3    H2 3436   7.617   3.305   0.958
 1187TIP3   OH2 3437   6.611   3.212   1.058
 1187TIP3    H1 3438   6.618   3.123   1.023
 1187TIP3    H2 3439   6.646   3.206   1.147
 1188TIP3   OH2 3440   7.124   2.879   0.902
 1188TIP3    H1 3441   7.191   2.812   0.900
 1188TIP3    H2 3442   7.082   2.875   0.816
 1189TIP3   OH2 3443   7.186   3.096   1.064
 1189TIP3    H1 3444   7.166   3.027   1.001
 1189TIP3    H2 3445   7.111   3.156   1.058
 1190TIP3   OH2 3446   5.936   4.177  -0.002
 1190TIP3    H1 3447   5.911   4.102   0.053
 1190TIP3    H2 3448   5.977   4.238   0.059
 1191TIP3   OH2 3449   7.740   4.267   0.640
 1191TIP3    H1 3450   7.667   4.275   0.702
 1191TIP3    H2 3451   7.781   4.353   0.640
 1192TIP3   OH2 3452   6.129   3.582   0.350
 1192TIP3    H1 3453   6.127   3.556   0.258
 1192TIP3    H2 3454   6.222   3.581   0.373
 1193TIP3   OH2 3455   7.790   3.930   0.449
 1193TIP3    H1 3456   7.864   3.870   0.455
 1193TIP3    H2 3457   7.829   4.014   0.423
 1194TIP3   OH2 3458   7.967   3.733   0.501
 1194TIP3    H1 3459   7.893   3.681   0.532
 1194TIP3    H2 3460   8.042   3.675   0.510
 1195TIP3   OH2 3461   7.728   3.578   0.239
 1195TIP3    H1 3462   7.648   3.583   0.292
 1195TIP3    H2 3463   7.700   3.605   0.152
 1196TIP3   OH2 3464   6.346   3.261   1.021
 1196TIP3    H1 3465   6.441   3.260   1.028
 1196TIP3    H2 3466   6.317   3.182   1.066
 1197TIP3   OH2 3467   8.177   3.129   0.784
 1197TIP3    H1 3468   8.235   3.066   0.743
 1197TIP3    H2 3469   8.148   3.185   0.712
 1198TIP3   OH2 3470   6.296   2.975   0.372
 1198TIP3    H1 3471   6.328   2.885   0.378
 1198TIP3    H2 3472   6.375   3.028   0.363
 1199TIP3   OH2 3473   8.047   3.275   0.595
 1199TIP3    H1 3474   7.960   3.311   0.611
 1199TIP3    H2 3475   8.033   3.206   0.530
 1200TIP3   OH2 3476   9.343   7.369   7.941
 1200TIP3    H1 3477   9.251   7.351   7.957
 1200TIP3    H2 3478   9.345   7.417   7.858
 1201TIP3   OH2 3479   6.314   2.815   0.752
 1201TIP3    H1 3480   6.269   2.802   0.835
 1201TIP3    H2 3481   6.257   2.875   0.703
 1202TIP3   OH2 3482   6.344   4.252   0.836
 1202TIP3    H1 3483   6.258   4.215   0.814
 1202TIP3    H2 3484   6.368   4.210   0.919
 1203TIP3   OH2 3485   6.525   4.273   0.369
 1203TIP3    H1 3486   6.473   4.342   0.328
 1203TIP3    H2 3487   6.612   4.283   0.331
 1204TIP3   OH2 3488   6.979   4.513   0.510
 1204TIP3    H1 3489   7.012   4.514   0.600
 1204TIP3    H2 3490   7.042   4.565   0.461
 1205TIP3   OH2 3491   7.159   4.652   0.361
 1205TIP3    H1 3492   7.239   4.607   0.334
 1205TIP3    H2 3493   7.189   4.720   0.422
 1206TIP3   OH2 3494   7.947   3.031   0.480
 1206TIP3    H1 3495   7.863   3.041   0.435
 1206TIP3    H2 3496   7.975   2.942   0.460
 1207TIP3   OH2 3497   6.208   4.542   0.404
 1207TIP3    H1 3498   6.129   4.579   0.364
 1207TIP3    H2 3499   6.180   4.517   0.492
 1208TIP3   OH2 3500   6.428   4.519   0.245
 1208TIP3    H1 3501   6.353   4.534   0.302
 1208TIP3    H2 3502   6.392   4.528   0.156
 1209TIP3   OH2 3503   6.113   4.323   0.162
 1209TIP3    H1 3504   6.137   4.295   0.250
 1209TIP3    H2 3505   6.177   4.280   0.105
 1210TIP3   OH2 3506   6.300   4.196   0.021
 1210TIP3    H1 3507   6.315   4.112   0.064
 1210TIP3    H2 3508   6.387   4.237   0.020
 1211TIP3   OH2 3509   6.560   4.265   0.039
 1211TIP3    H1 3510   6.592   4.175   0.042
 1211TIP3    H2 3511   6.619   4.313   0.097
 1212TIP3   OH2 3512   7.163   2.956   0.109
 1212TIP3    H1 3513   7.094   2.901   0.146
 1212TIP3    H2 3514   7.225   2.894   0.070
 1213TIP3   OH2 3515   7.666   2.864   0.037
 1213TIP3    H1 3516   7.715   2.931  -0.012
 1213TIP3    H2 3517   7.575   2.880   0.014
 1214TIP3   OH2 3518   6.398   2.661   0.102
 1214TIP3    H1 3519   6.306   2.633   0.099
 1214TIP3    H2 3520   6.448   2.579   0.104
 1215TIP3   OH2 3521   9.465   7.137   7.789
 1215TIP3    H1 3522   9.438   7.167   7.703
 1215TIP3    H2 3523   9.432   7.204   7.849
 1216TIP3   OH2 3524   0.316   7.309   7.988
 1216TIP3    H1 3525   0.343   7.376   7.926
 1216TIP3    H2 3526   0.327   7.350   8.074
 1217TIP3   OH2 3527   0.825   7.429   7.991
 1217TIP3    H1 3528   0.797   7.386   7.910
 1217TIP3    H2 3529   0.840   7.357   8.053
 1218TIP3   OH2 3530   6.611   2.936   0.994
 1218TIP3    H1 3531   6.573   2.868   1.050
 1218TIP3    H2 3532   6.704   2.938   1.019
 1219TIP3   OH2 3533   6.858   2.931   1.113
 1219TIP3    H1 3534   6.944   2.910   1.076
 1219TIP3    H2 3535   6.844   2.865   1.181
 1220TIP3   OH2 3536   7.685   2.992   0.902
 1220TIP3    H1 3537   7.702   2.964   0.992
 1220TIP3    H2 3538   7.770   2.992   0.860
 1221TIP3   OH2 3539   7.628   4.540   0.412
 1221TIP3    H1 3540   7.594   4.496   0.334
 1221TIP3    H2 3541   7.606   4.632   0.399
 1222TIP3   OH2 3542   8.354   4.124   0.343
 1222TIP3    H1 3543   8.406   4.187   0.393
 1222TIP3    H2 3544   8.278   4.107   0.400
 1223TIP3   OH2 3545   8.071   3.821   0.255
 1223TIP3    H1 3546   8.124   3.851   0.329
 1223TIP3    H2 3547   8.023   3.745   0.288
 1224TIP3   OH2 3548   8.212   3.277   0.268
 1224TIP3    H1 3549   8.204   3.370   0.245
 1224TIP3    H2 3550   8.287   3.273   0.328
 1225TIP3   OH2 3551   8.115   4.169   0.491
 1225TIP3    H1 3552   8.117   4.075   0.510
 1225TIP3    H2 3553   8.028   4.184   0.455
 1226TIP3   OH2 3554   8.229   3.890   0.479
 1226TIP3    H1 3555   8.305   3.838   0.455
 1226TIP3    H2 3556   8.251   3.928   0.563
 1227TIP3   OH2 3557   8.544   3.702   0.468
 1227TIP3    H1 3558   8.482   3.632   0.487
 1227TIP3    H2 3559   8.583   3.678   0.384
 1228TIP3   OH2 3560   8.403   3.480   0.555
 1228TIP3    H1 3561   8.422   3.407   0.496
 1228TIP3    H2 3562   8.438   3.452   0.639
 1229TIP3   OH2 3563   8.138   3.524   0.513
 1229TIP3    H1 3564   8.234   3.522   0.515
 1229TIP3    H2 3565   8.111   3.441   0.552
 1230TIP3   OH2 3566   8.052   3.069   0.218
 1230TIP3    H1 3567   8.044   3.065   0.313
 1230TIP3    H2 3568   8.093   3.154   0.201
 1231TIP3   OH2 3569   8.378   3.180   0.471
 1231TIP3    H1 3570   8.343   3.114   0.531
 1231TIP3    H2 3571   8.469   3.192   0.499
 1232TIP3   OH2 3572   8.612   3.193   0.600
 1232TIP3    H1 3573   8.707   3.204   0.590
 1232TIP3    H2 3574   8.603   3.120   0.661
 1233TIP3   OH2 3575   0.430   4.178   1.976
 1233TIP3    H1 3576   0.364   4.226   1.926
 1233TIP3    H2 3577   0.452   4.237   2.049
 1234TIP3   OH2 3578   9.671   4.985   1.629
 1234TIP3    H1 3579   9.576   4.978   1.638
 1234TIP3    H2 3580   9.685   5.040   1.552
 1235TIP3   OH2 3581   0.083   4.913   1.935
 1235TIP3    H1 3582   0.076   4.835   1.879
 1235TIP3    H2 3583   0.073   4.987   1.875
 1236TIP3   OH2 3584   0.277   4.546   1.781
 1236TIP3    H1 3585   0.195   4.595   1.789
 1236TIP3    H2 3586   0.307   4.564   1.692
 1237TIP3   OH2 3587   9.770   4.429   2.088
 1237TIP3    H1 3588   9.763   4.507   2.143
 1237TIP3    H2 3589   9.692   4.431   2.033
 1238TIP3   OH2 3590   0.320   5.252   1.981
 1238TIP3    H1 3591   0.322   5.157   1.994
 1238TIP3    H2 3592   0.242   5.280   2.028
 1239TIP3   OH2 3593   9.244   5.031   2.126
 1239TIP3    H1 3594   9.257   5.121   2.155
 1239TIP3    H2 3595   9.149   5.017   2.132
 1240TIP3   OH2 3596   0.214   4.382   2.256
 1240TIP3    H1 3597   0.133   4.397   2.207
 1240TIP3    H2 3598   0.226   4.287   2.254
 1241TIP3   OH2 3599   9.770   4.161   2.165
 1241TIP3    H1 3600   9.741   4.155   2.256
 1241TIP3    H2 3601   9.765   4.254   2.144
 1242TIP3   OH2 3602   9.487   4.399   2.422
 1242TIP3    H1 3603   9.460   4.320   2.468
 1242TIP3    H2 3604   9.582   4.404   2.435
 1243TIP3   OH2 3605   0.009   5.603   2.103
 1243TIP3    H1 3606   0.005   5.620   2.009
 1243TIP3    H2 3607   0.087   5.651   2.132
 1244TIP3   OH2 3608   0.051   4.698   1.769
 1244TIP3    H1 3609   0.086   4.745   1.694
 1244TIP3    H2 3610  -0.040   4.679   1.745
 1245TIP3   OH2 3611   9.368   4.787   2.126
 1245TIP3    H1 3612   9.377   4.753   2.216
 1245TIP3    H2 3613   9.317   4.868   2.136
 1246TIP3   OH2 3614   9.249   4.522   2.478
 1246TIP3    H1 3615   9.191   4.500   2.405
 1246TIP3    H2 3616   9.335   4.489   2.450
 1247TIP3   OH2 3617   9.501   5.087   2.023
 1247TIP3    H1 3618   9.415   5.048   2.041
 1247TIP3    H2 3619   9.535   5.109   2.110
 1248TIP3   OH2 3620   0.332   4.962   2.025
 1248TIP3    H1 3621   0.237   4.959   2.021
 1248TIP3    H2 3622   0.360   4.933   1.938
 1249TIP3   OH2 3623   9.467   4.805   1.856
 1249TIP3    H1 3624   9.446   4.814   1.949
 1249TIP3    H2 3625   9.449   4.713   1.837
 1250TIP3   OH2 3626   9.657   5.287   1.927
 1250TIP3    H1 3627   9.602   5.216   1.958
 1250TIP3    H2 3628   9.604   5.332   1.861
 1251TIP3   OH2 3629   0.240   4.109   2.179
 1251TIP3    H1 3630   0.144   4.108   2.170
 1251TIP3    H2 3631   0.272   4.113   2.089
 1252TIP3   OH2 3632   9.572   5.161   2.272
 1252TIP3    H1 3633   9.560   5.093   2.338
 1252TIP3    H2 3634   9.643   5.215   2.305
 1253TIP3   OH2 3635   9.190   4.791   2.454
 1253TIP3    H1 3636   9.126   4.764   2.387
 1253TIP3    H2 3637   9.227   4.708   2.485
 1254TIP3   OH2 3638   9.678   4.790   2.073
 1254TIP3    H1 3639   9.750   4.838   2.032
 1254TIP3    H2 3640   9.601   4.845   2.058
 1255TIP3   OH2 3641   9.539   4.716   2.473
 1255TIP3    H1 3642   9.626   4.704   2.433
 1255TIP3    H2 3643   9.535   4.651   2.542
 1256TIP3   OH2 3644   9.760   4.412   2.529
 1256TIP3    H1 3645   9.796   4.324   2.529
 1256TIP3    H2 3646   9.834   4.468   2.505
 1257TIP3   OH2 3647   0.004   4.649   2.258
 1257TIP3    H1 3648  -0.055   4.703   2.205
 1257TIP3    H2 3649   0.091   4.667   2.222
 1258TIP3   OH2 3650   9.385   4.184   2.568
 1258TIP3    H1 3651   9.408   4.166   2.659
 1258TIP3    H2 3652   9.290   4.195   2.570
 1259TIP3   OH2 3653   9.696   4.150   2.425
 1259TIP3    H1 3654   9.621   4.132   2.482
 1259TIP3    H2 3655   9.769   4.106   2.468
 1260TIP3   OH2 3656   0.095   4.044   2.572
 1260TIP3    H1 3657   0.095   3.950   2.592
 1260TIP3    H2 3658   0.084   4.086   2.657
 1261TIP3   OH2 3659   0.146   5.421   1.481
 1261TIP3    H1 3660   0.178   5.381   1.561
 1261TIP3    H2 3661   0.202   5.386   1.411
 1262TIP3   OH2 3662   0.163   5.382   1.768
 1262TIP3    H1 3663   0.110   5.304   1.755
 1262TIP3    H2 3664   0.234   5.353   1.826
 1263TIP3   OH2 3665   0.191   5.057   2.324
 1263TIP3    H1 3666   0.120   5.063   2.389
 1263TIP3    H2 3667   0.233   5.143   2.326
 1264TIP3   OH2 3668   0.191   4.822   1.577
 1264TIP3    H1 3669   0.248   4.759   1.533
 1264TIP3    H2 3670   0.194   4.900   1.522
 1265TIP3   OH2 3671   9.837   5.137   1.782
 1265TIP3    H1 3672   9.771   5.178   1.836
 1265TIP3    H2 3673   9.787   5.085   1.718
 1266TIP3   OH2 3674   0.243   4.718   2.148
 1266TIP3    H1 3675   0.313   4.652   2.143
 1266TIP3    H2 3676   0.273   4.789   2.092
 1267TIP3   OH2 3677   0.427   4.522   2.172
 1267TIP3    H1 3678   0.353   4.474   2.210
 1267TIP3    H2 3679   0.502   4.464   2.184
 1268TIP3   OH2 3680   0.180   4.327   1.927
 1268TIP3    H1 3681   0.114   4.373   1.979
 1268TIP3    H2 3682   0.218   4.395   1.871
 1269TIP3   OH2 3683   0.628   3.913   2.473
 1269TIP3    H1 3684   0.688   3.851   2.432
 1269TIP3    H2 3685   0.601   3.971   2.401
 1270TIP3   OH2 3686   0.501   4.060   2.282
 1270TIP3    H1 3687   0.420   4.100   2.314
 1270TIP3    H2 3688   0.472   3.995   2.218
 1271TIP3   OH2 3689   9.248   5.284   2.207
 1271TIP3    H1 3690   9.267   5.316   2.295
 1271TIP3    H2 3691   9.282   5.352   2.149
 1272TIP3   OH2 3692   9.435   5.431   2.054
 1272TIP3    H1 3693   9.522   5.391   2.051
 1272TIP3    H2 3694   9.445   5.506   2.114
 1273TIP3   OH2 3695   0.396   3.814   2.151
 1273TIP3    H1 3696   0.309   3.835   2.117
 1273TIP3    H2 3697   0.401   3.719   2.145
 1274TIP3   OH2 3698   0.134   3.766   2.591
 1274TIP3    H1 3699   0.158   3.745   2.681
 1274TIP3    H2 3700   0.218   3.774   2.545
 1275TIP3   OH2 3701   0.081   5.339   2.086
 1275TIP3    H1 3702   0.007   5.306   2.036
 1275TIP3    H2 3703   0.061   5.432   2.100
 1276TIP3   OH2 3704   1.360   4.728   0.871
 1276TIP3    H1 3705   1.330   4.816   0.848
 1276TIP3    H2 3706   1.290   4.670   0.840
 1277TIP3   OH2 3707   1.333   4.708   1.235
 1277TIP3    H1 3708   1.371   4.684   1.320
 1277TIP3    H2 3709   1.302   4.626   1.198
 1278TIP3   OH2 3710   0.642   4.607   1.600
 1278TIP3    H1 3711   0.664   4.530   1.653
 1278TIP3    H2 3712   0.719   4.663   1.606
 1279TIP3   OH2 3713   1.582   5.010   0.913
 1279TIP3    H1 3714   1.569   4.939   0.976
 1279TIP3    H2 3715   1.612   5.084   0.966
 1280TIP3   OH2 3716   0.610   5.009   1.322
 1280TIP3    H1 3717   0.598   4.914   1.327
 1280TIP3    H2 3718   0.705   5.020   1.325
 1281TIP3   OH2 3719   1.226   5.469   0.921
 1281TIP3    H1 3720   1.281   5.401   0.883
 1281TIP3    H2 3721   1.222   5.447   1.014
 1282TIP3   OH2 3722   1.144   4.932   1.277
 1282TIP3    H1 3723   1.180   4.853   1.236
 1282TIP3    H2 3724   1.222   4.982   1.303
 1283TIP3   OH2 3725   2.151   4.257   1.276
 1283TIP3    H1 3726   2.179   4.335   1.325
 1283TIP3    H2 3727   2.171   4.277   1.185
 1284TIP3   OH2 3728   1.552   4.436   1.310
 1284TIP3    H1 3729   1.593   4.353   1.334
 1284TIP3    H2 3730   1.520   4.422   1.221
 1285TIP3   OH2 3731   1.574   4.177   0.920
 1285TIP3    H1 3732   1.656   4.167   0.968
 1285TIP3    H2 3733   1.600   4.208   0.833
 1286TIP3   OH2 3734   0.977   4.485   1.175
 1286TIP3    H1 3735   1.071   4.478   1.195
 1286TIP3    H2 3736   0.949   4.395   1.160
 1287TIP3   OH2 3737   2.222   4.462   1.448
 1287TIP3    H1 3738   2.140   4.508   1.432
 1287TIP3    H2 3739   2.250   4.492   1.535
 1288TIP3   OH2 3740   0.875   4.073   1.713
 1288TIP3    H1 3741   0.819   4.113   1.647
 1288TIP3    H2 3742   0.833   4.093   1.796
 1289TIP3   OH2 3743   1.235   4.930   0.728
 1289TIP3    H1 3744   1.203   4.912   0.639
 1289TIP3    H2 3745   1.199   5.017   0.748
 1290TIP3   OH2 3746   0.990   4.855   1.507
 1290TIP3    H1 3747   0.928   4.917   1.546
 1290TIP3    H2 3748   1.035   4.906   1.439
 1291TIP3   OH2 3749   1.801   4.187   1.069
 1291TIP3    H1 3750   1.780   4.141   1.150
 1291TIP3    H2 3751   1.849   4.265   1.098
 1292TIP3   OH2 3752   0.753   4.196   1.511
 1292TIP3    H1 3753   0.821   4.263   1.505
 1292TIP3    H2 3754   0.775   4.133   1.442
 1293TIP3   OH2 3755   0.815   5.048   1.603
 1293TIP3    H1 3756   0.795   5.134   1.566
 1293TIP3    H2 3757   0.741   5.028   1.660
 1294TIP3   OH2 3758   1.651   5.254   1.080
 1294TIP3    H1 3759   1.564   5.242   1.119
 1294TIP3    H2 3760   1.646   5.338   1.035
 1295TIP3   OH2 3761   1.944   4.153   1.440
 1295TIP3    H1 3762   1.858   4.185   1.413
 1295TIP3    H2 3763   2.003   4.186   1.373
 1296TIP3   OH2 3764   1.263   3.816   1.428
 1296TIP3    H1 3765   1.247   3.723   1.442
 1296TIP3    H2 3766   1.184   3.860   1.460
 1297TIP3   OH2 3767   1.369   5.299   0.761
 1297TIP3    H1 3768   1.412   5.216   0.740
 1297TIP3    H2 3769   1.427   5.366   0.726
 1298TIP3   OH2 3770   1.496   5.082   0.662
 1298TIP3    H1 3771   1.471   5.005   0.612
 1298TIP3    H2 3772   1.532   5.047   0.744
 1299TIP3   OH2 3773   1.878   5.168   1.421
 1299TIP3    H1 3774   1.869   5.090   1.366
 1299TIP3    H2 3775   1.864   5.241   1.361
 1300TIP3   OH2 3776   1.195   4.595   0.701
 1300TIP3    H1 3777   1.110   4.634   0.681
 1300TIP3    H2 3778   1.251   4.622   0.629
 1301TIP3   OH2 3779   2.073   4.802   1.264
 1301TIP3    H1 3780   1.992   4.853   1.274
 1301TIP3    H2 3781   2.105   4.826   1.177
 1302TIP3   OH2 3782   1.525   4.649   0.667
 1302TIP3    H1 3783   1.476   4.678   0.744
 1302TIP3    H2 3784   1.607   4.614   0.702
 1303TIP3   OH2 3785   1.752   4.684   1.564
 1303TIP3    H1 3786   1.754   4.763   1.617
 1303TIP3    H2 3787   1.668   4.688   1.518
 1304TIP3   OH2 3788   0.779   4.637   1.066
 1304TIP3    H1 3789   0.727   4.560   1.045
 1304TIP3    H2 3790   0.859   4.602   1.106
 1305TIP3   OH2 3791   0.891   5.045   1.211
 1305TIP3    H1 3792   0.871   4.979   1.144
 1305TIP3    H2 3793   0.979   5.023   1.240
 1306TIP3   OH2 3794   0.886   4.616   1.417
 1306TIP3    H1 3795   0.931   4.593   1.335
 1306TIP3    H2 3796   0.928   4.697   1.446
 1307TIP3   OH2 3797   1.411   5.248   1.200
 1307TIP3    H1 3798   1.402   5.327   1.253
 1307TIP3    H2 3799   1.398   5.176   1.262
 1308TIP3   OH2 3800   1.022   5.170   1.746
 1308TIP3    H1 3801   0.967   5.231   1.794
 1308TIP3    H2 3802   0.960   5.115   1.698
 1309TIP3   OH2 3803   1.361   4.526   0.484
 1309TIP3    H1 3804   1.429   4.556   0.544
 1309TIP3    H2 3805   1.392   4.549   0.397
 1310TIP3   OH2 3806   0.777   4.730   1.845
 1310TIP3    H1 3807   0.784   4.814   1.892
 1310TIP3    H2 3808   0.686   4.705   1.855
 1311TIP3   OH2 3809   1.103   5.191   0.741
 1311TIP3    H1 3810   1.183   5.232   0.773
 1311TIP3    H2 3811   1.034   5.254   0.761
 1312TIP3   OH2 3812   0.817   5.338   1.834
 1312TIP3    H1 3813   0.785   5.335   1.744
 1312TIP3    H2 3814   0.741   5.316   1.888
 1313TIP3   OH2 3815   1.683   5.113   0.084
 1313TIP3    H1 3816   1.687   5.204   0.057
 1313TIP3    H2 3817   1.771   5.079   0.066
 1314TIP3   OH2 3818   0.399   4.865   1.782
 1314TIP3    H1 3819   0.339   4.841   1.712
 1314TIP3    H2 3820   0.438   4.782   1.810
 1315TIP3   OH2 3821   0.256   5.040   1.416
 1315TIP3    H1 3822   0.349   5.052   1.397
 1315TIP3    H2 3823   0.227   5.126   1.446
 1316TIP3   OH2 3824   2.114   5.508   1.469
 1316TIP3    H1 3825   2.118   5.413   1.483
 1316TIP3    H2 3826   2.035   5.535   1.514
 1317TIP3   OH2 3827   1.221   5.300   1.605
 1317TIP3    H1 3828   1.223   5.390   1.636
 1317TIP3    H2 3829   1.153   5.258   1.657
 1318TIP3   OH2 3830   1.253   5.366   0.514
 1318TIP3    H1 3831   1.186   5.392   0.577
 1318TIP3    H2 3832   1.317   5.317   0.566
 1319TIP3   OH2 3833   2.008   4.640   1.742
 1319TIP3    H1 3834   1.927   4.653   1.693
 1319TIP3    H2 3835   2.025   4.546   1.737
 1320TIP3   OH2 3836   0.603   5.049   1.773
 1320TIP3    H1 3837   0.655   5.032   1.852
 1320TIP3    H2 3838   0.531   4.987   1.779
 1321TIP3   OH2 3839   1.025   3.905   1.540
 1321TIP3    H1 3840   0.955   3.843   1.517
 1321TIP3    H2 3841   0.981   3.971   1.594
 1322TIP3   OH2 3842   1.539   3.989   1.749
 1322TIP3    H1 3843   1.605   3.962   1.812
 1322TIP3    H2 3844   1.455   3.970   1.792
 1323TIP3   OH2 3845   1.773   4.418   1.665
 1323TIP3    H1 3846   1.728   4.413   1.749
 1323TIP3    H2 3847   1.752   4.505   1.631
 1324TIP3   OH2 3848   0.939   4.397   1.570
 1324TIP3    H1 3849   0.885   4.406   1.649
 1324TIP3    H2 3850   0.918   4.474   1.518
 1325TIP3   OH2 3851   1.301   4.377   0.827
 1325TIP3    H1 3852   1.259   4.452   0.785
 1325TIP3    H2 3853   1.368   4.350   0.765
 1326TIP3   OH2 3854   1.485   4.639   1.902
 1326TIP3    H1 3855   1.461   4.568   1.961
 1326TIP3    H2 3856   1.577   4.656   1.920
 1327TIP3   OH2 3857   1.466   4.389   1.052
 1327TIP3    H1 3858   1.405   4.418   0.984
 1327TIP3    H2 3859   1.499   4.305   1.020
 1328TIP3   OH2 3860   0.760   4.422   1.778
 1328TIP3    H1 3861   0.783   4.478   1.853
 1328TIP3    H2 3862   0.734   4.339   1.817
 1329TIP3   OH2 3863   1.473   4.633   1.475
 1329TIP3    H1 3864   1.508   4.566   1.417
 1329TIP3    H2 3865   1.446   4.586   1.554
 1330TIP3   OH2 3866   1.159   4.123   1.166
 1330TIP3    H1 3867   1.085   4.094   1.219
 1330TIP3    H2 3868   1.236   4.105   1.219
 1331TIP3   OH2 3869   1.635   4.173   1.349
 1331TIP3    H1 3870   1.605   4.186   1.439
 1331TIP3    H2 3871   1.573   4.111   1.311
 1332TIP3   OH2 3872   1.808   5.864   1.567
 1332TIP3    H1 3873   1.806   5.884   1.473
 1332TIP3    H2 3874   1.886   5.908   1.600
 1333TIP3   OH2 3875   0.765   4.974   1.992
 1333TIP3    H1 3876   0.846   5.002   2.037
 1333TIP3    H2 3877   0.700   4.970   2.062
 1334TIP3   OH2 3878   1.233   4.429   1.249
 1334TIP3    H1 3879   1.295   4.381   1.194
 1334TIP3    H2 3880   1.240   4.388   1.335
 1335TIP3   OH2 3881   1.206   4.323   1.534
 1335TIP3    H1 3882   1.119   4.358   1.551
 1335TIP3    H2 3883   1.265   4.379   1.585
 1336TIP3   OH2 3884   0.951   4.702   0.648
 1336TIP3    H1 3885   0.883   4.634   0.647
 1336TIP3    H2 3886   0.937   4.749   0.730
 1337TIP3   OH2 3887   1.842   4.950   1.258
 1337TIP3    H1 3888   1.867   4.998   1.179
 1337TIP3    H2 3889   1.759   4.908   1.236
 1338TIP3   OH2 3890   1.339   5.030   1.628
 1338TIP3    H1 3891   1.367   5.007   1.716
 1338TIP3    H2 3892   1.304   5.119   1.637
 1339TIP3   OH2 3893   1.489   4.306   0.648
 1339TIP3    H1 3894   1.584   4.295   0.641
 1339TIP3    H2 3895   1.459   4.310   0.557
 1340TIP3   OH2 3896   0.635   4.731   1.313
 1340TIP3    H1 3897   0.673   4.707   1.228
 1340TIP3    H2 3898   0.681   4.675   1.376
 1341TIP3   OH2 3899   1.094   4.888   0.493
 1341TIP3    H1 3900   1.046   4.965   0.462
 1341TIP3    H2 3901   1.029   4.837   0.541
 1342TIP3   OH2 3902   0.514   4.657   1.921
 1342TIP3    H1 3903   0.537   4.644   2.012
 1342TIP3    H2 3904   0.450   4.587   1.902
 1343TIP3   OH2 3905   1.241   4.768   1.937
 1343TIP3    H1 3906   1.180   4.709   1.893
 1343TIP3    H2 3907   1.328   4.736   1.912
 1344TIP3   OH2 3908   1.501   5.292   1.524
 1344TIP3    H1 3909   1.406   5.289   1.534
 1344TIP3    H2 3910   1.531   5.342   1.600
 1345TIP3   OH2 3911   1.910   4.360   0.427
 1345TIP3    H1 3912   1.845   4.309   0.377
 1345TIP3    H2 3913   1.905   4.448   0.389
 1346TIP3   OH2 3914   2.127   5.217   1.510
 1346TIP3    H1 3915   2.032   5.213   1.505
 1346TIP3    H2 3916   2.156   5.189   1.423
 1347TIP3   OH2 3917   1.620   5.179   0.343
 1347TIP3    H1 3918   1.577   5.112   0.395
 1347TIP3    H2 3919   1.624   5.142   0.255
 1348TIP3   OH2 3920   1.607   4.809   1.177
 1348TIP3    H1 3921   1.515   4.787   1.191
 1348TIP3    H2 3922   1.644   4.733   1.133
 1349TIP3   OH2 3923   0.721   5.047   0.907
 1349TIP3    H1 3924   0.751   5.130   0.944
 1349TIP3    H2 3925   0.638   5.029   0.951
 1350TIP3   OH2 3926   0.875   4.814   0.874
 1350TIP3    H1 3927   0.831   4.899   0.883
 1350TIP3    H2 3928   0.842   4.762   0.947
 1351TIP3   OH2 3929   1.008   5.383   1.402
 1351TIP3    H1 3930   1.046   5.453   1.349
 1351TIP3    H2 3931   1.082   5.347   1.451
 1352TIP3   OH2 3932   1.395   5.016   1.360
 1352TIP3    H1 3933   1.383   5.015   1.455
 1352TIP3    H2 3934   1.474   4.965   1.345
 1353TIP3   OH2 3935   1.362   4.896   0.250
 1353TIP3    H1 3936   1.406   4.880   0.333
 1353TIP3    H2 3937   1.276   4.855   0.260
 1354TIP3   OH2 3938   1.640   5.552   1.409
 1354TIP3    H1 3939   1.565   5.494   1.403
 1354TIP3    H2 3940   1.628   5.616   1.339
 1355TIP3   OH2 3941   1.703   5.392   0.057
 1355TIP3    H1 3942   1.756   5.465   0.024
 1355TIP3    H2 3943   1.613   5.417   0.039
 1356TIP3   OH2 3944   0.727   4.157   1.931
 1356TIP3    H1 3945   0.632   4.161   1.941
 1356TIP3    H2 3946   0.756   4.103   2.005
 1357TIP3   OH2 3947   1.529   4.844   0.472
 1357TIP3    H1 3948   1.522   4.779   0.542
 1357TIP3    H2 3949   1.621   4.843   0.447
 1358TIP3   OH2 3950   0.445   5.245   1.568
 1358TIP3    H1 3951   0.491   5.165   1.593
 1358TIP3    H2 3952   0.479   5.312   1.628
 1359TIP3   OH2 3953   1.564   4.224   1.607
 1359TIP3    H1 3954   1.641   4.265   1.646
 1359TIP3    H2 3955   1.549   4.146   1.660
 1360TIP3   OH2 3956   1.218   4.125   0.878
 1360TIP3    H1 3957   1.245   4.213   0.853
 1360TIP3    H2 3958   1.169   4.137   0.960
 1361TIP3   OH2 3959   1.405   4.475   1.685
 1361TIP3    H1 3960   1.422   4.528   1.762
 1361TIP3    H2 3961   1.458   4.396   1.697
 1362TIP3   OH2 3962   1.333   3.900   0.994
 1362TIP3    H1 3963   1.314   3.925   1.085
 1362TIP3    H2 3964   1.330   3.983   0.947
 1363TIP3   OH2 3965   2.040   4.373   1.664
 1363TIP3    H1 3966   1.945   4.372   1.671
 1363TIP3    H2 3967   2.058   4.338   1.577
 1364TIP3   OH2 3968   1.694   4.568   1.052
 1364TIP3    H1 3969   1.618   4.511   1.064
 1364TIP3    H2 3970   1.765   4.524   1.098
 1365TIP3   OH2 3971   1.663   5.526   0.999
 1365TIP3    H1 3972   1.618   5.574   0.929
 1365TIP3    H2 3973   1.756   5.542   0.984
 1366TIP3   OH2 3974   0.435   5.552   1.981
 1366TIP3    H1 3975   0.519   5.552   2.028
 1366TIP3    H2 3976   0.410   5.460   1.978
 1367TIP3   OH2 3977   0.918   5.519   2.021
 1367TIP3    H1 3978   1.011   5.498   2.033
 1367TIP3    H2 3979   0.890   5.462   1.950
 1368TIP3   OH2 3980   1.555   5.424   1.761
 1368TIP3    H1 3981   1.545   5.355   1.826
 1368TIP3    H2 3982   1.632   5.473   1.789
 1369TIP3   OH2 3983   0.564   4.959   2.180
 1369TIP3    H1 3984   0.583   4.865   2.189
 1369TIP3    H2 3985   0.478   4.962   2.138
 1370TIP3   OH2 3986   1.172   5.042   1.953
 1370TIP3    H1 3987   1.132   5.058   1.868
 1370TIP3    H2 3988   1.204   4.952   1.948
 1371TIP3   OH2 3989   1.664   5.054   1.558
 1371TIP3    H1 3990   1.740   5.095   1.517
 1371TIP3    H2 3991   1.593   5.118   1.547
 1372TIP3   OH2 3992   0.686   4.693   2.163
 1372TIP3    H1 3993   0.757   4.631   2.144
 1372TIP3    H2 3994   0.706   4.726   2.251
 1373TIP3   OH2 3995   1.022   4.584   1.826
 1373TIP3    H1 3996   0.943   4.637   1.827
 1373TIP3    H2 3997   1.069   4.611   1.747
 1374TIP3   OH2 3998   1.537   4.980   1.959
 1374TIP3    H1 3999   1.619   4.960   1.913
 1374TIP3    H2 4000   1.532   4.915   2.029
 1375TIP3   OH2 4001   1.684   4.653   0.063
 1375TIP3    H1 4002   1.637   4.639  -0.019
 1375TIP3    H2 4003   1.660   4.742   0.089
 1376TIP3   OH2 4004   1.140   4.365   1.950
 1376TIP3    H1 4005   1.140   4.286   1.896
 1376TIP3    H2 4006   1.099   4.432   1.895
 1377TIP3   OH2 4007   1.138   4.153   1.756
 1377TIP3    H1 4008   1.168   4.191   1.674
 1377TIP3    H2 4009   1.047   4.128   1.739
 1378TIP3   OH2 4010   1.172   4.687   1.626
 1378TIP3    H1 4011   1.257   4.695   1.582
 1378TIP3    H2 4012   1.118   4.755   1.586
 1379TIP3   OH2 4013   1.756   4.655   2.012
 1379TIP3    H1 4014   1.802   4.573   2.026
 1379TIP3    H2 4015   1.824   4.716   1.982
 1380TIP3   OH2 4016   1.796   4.909   1.744
 1380TIP3    H1 4017   1.737   4.960   1.688
 1380TIP3    H2 4018   1.883   4.926   1.708
 1381TIP3   OH2 4019   1.018   4.478   2.179
 1381TIP3    H1 4020   0.949   4.414   2.196
 1381TIP3    H2 4021   1.054   4.453   2.094
 1382TIP3   OH2 4022   1.278   3.922   1.824
 1382TIP3    H1 4023   1.230   4.002   1.802
 1382TIP3    H2 4024   1.214   3.852   1.814
 1383TIP3   OH2 4025   1.400   4.421   2.042
 1383TIP3    H1 4026   1.396   4.411   2.137
 1383TIP3    H2 4027   1.313   4.397   2.011
 1384TIP3   OH2 4028   1.641   4.369   1.896
 1384TIP3    H1 4029   1.567   4.371   1.957
 1384TIP3    H2 4030   1.715   4.340   1.950
 1385TIP3   OH2 4031   1.865   4.308   2.048
 1385TIP3    H1 4032   1.881   4.215   2.066
 1385TIP3    H2 4033   1.864   4.349   2.135
 1386TIP3   OH2 4034   0.859   4.258   2.234
 1386TIP3    H1 4035   0.867   4.170   2.197
 1386TIP3    H2 4036   0.894   4.250   2.323
 1387TIP3   OH2 4037   1.372   3.923   2.082
 1387TIP3    H1 4038   1.439   3.856   2.078
 1387TIP3    H2 4039   1.332   3.923   1.995
 1388TIP3   OH2 4040   1.435   4.141   2.241
 1388TIP3    H1 4041   1.414   4.071   2.179
 1388TIP3    H2 4042   1.360   4.200   2.235
 1389TIP3   OH2 4043   1.914   5.620   0.958
 1389TIP3    H1 4044   1.940   5.648   1.046
 1389TIP3    H2 4045   1.978   5.661   0.899
 1390TIP3   OH2 4046   1.945   5.633   1.240
 1390TIP3    H1 4047   1.900   5.549   1.235
 1390TIP3    H2 4048   2.020   5.617   1.298
 1391TIP3   OH2 4049   1.986   5.318   1.809
 1391TIP3    H1 4050   1.917   5.321   1.876
 1391TIP3    H2 4051   2.031   5.402   1.816
 1392TIP3   OH2 4052   1.811   4.820   0.431
 1392TIP3    H1 4053   1.872   4.889   0.404
 1392TIP3    H2 4054   1.850   4.785   0.511
 1393TIP3   OH2 4055   1.935   4.692   0.639
 1393TIP3    H1 4056   1.870   4.651   0.696
 1393TIP3    H2 4057   1.998   4.731   0.699
 1394TIP3   OH2 4058   1.987   5.084   1.065
 1394TIP3    H1 4059   2.042   5.021   1.019
 1394TIP3    H2 4060   1.979   5.158   1.005
 1395TIP3   OH2 4061   1.818   5.387   1.262
 1395TIP3    H1 4062   1.750   5.426   1.316
 1395TIP3    H2 4063   1.770   5.338   1.195
 1396TIP3   OH2 4064   1.862   4.595   0.280
 1396TIP3    H1 4065   1.800   4.606   0.208
 1396TIP3    H2 4066   1.844   4.669   0.339
 1397TIP3   OH2 4067   1.751   4.545   0.786
 1397TIP3    H1 4068   1.755   4.450   0.780
 1397TIP3    H2 4069   1.736   4.563   0.879
 1398TIP3   OH2 4070   0.383   4.624   1.526
 1398TIP3    H1 4071   0.388   4.593   1.436
 1398TIP3    H2 4072   0.474   4.629   1.555
 1399TIP3   OH2 4073   2.039   4.974   1.637
 1399TIP3    H1 4074   2.109   4.908   1.632
 1399TIP3    H2 4075   2.068   5.045   1.580
 1400TIP3   OH2 4076   2.223   4.778   1.655
 1400TIP3    H1 4077   2.150   4.729   1.693
 1400TIP3    H2 4078   2.300   4.723   1.670
 1401TIP3   OH2 4079   1.763   4.262   0.674
 1401TIP3    H1 4080   1.796   4.174   0.696
 1401TIP3    H2 4081   1.826   4.297   0.612
 1402TIP3   OH2 4082   1.909   4.442   1.173
 1402TIP3    H1 4083   1.991   4.465   1.131
 1402TIP3    H2 4084   1.917   4.475   1.263
 1403TIP3   OH2 4085   1.972   4.584   1.405
 1403TIP3    H1 4086   1.896   4.616   1.454
 1403TIP3    H2 4087   2.007   4.662   1.361
 1404TIP3   OH2 4088   0.593   4.309   2.201
 1404TIP3    H1 4089   0.688   4.307   2.204
 1404TIP3    H2 4090   0.566   4.228   2.244
 1405TIP3   OH2 4091   2.427   4.169   1.959
 1405TIP3    H1 4092   2.485   4.106   1.917
 1405TIP3    H2 4093   2.398   4.227   1.888
 1406TIP3   OH2 4094   1.857   4.003   0.715
 1406TIP3    H1 4095   1.907   4.009   0.796
 1406TIP3    H2 4096   1.814   3.918   0.719
 1407TIP3   OH2 4097   0.438   4.306   1.634
 1407TIP3    H1 4098   0.389   4.242   1.583
 1407TIP3    H2 4099   0.393   4.389   1.619
 1408TIP3   OH2 4100   2.297   4.314   1.769
 1408TIP3    H1 4101   2.216   4.357   1.797
 1408TIP3    H2 4102   2.268   4.245   1.710
 1409TIP3   OH2 4103   2.002   3.940   0.346
 1409TIP3    H1 4104   2.029   3.892   0.267
 1409TIP3    H2 4105   2.055   4.019   0.345
 1410TIP3   OH2 4106   1.519   5.482   0.630
 1410TIP3    H1 4107   1.556   5.466   0.543
 1410TIP3    H2 4108   1.575   5.549   0.668
 1411TIP3   OH2 4109   0.550   3.879   1.920
 1411TIP3    H1 4110   0.516   3.849   2.004
 1411TIP3    H2 4111   0.495   3.953   1.897
 1412TIP3   OH2 4112   0.598   5.289   2.003
 1412TIP3    H1 4113   0.509   5.259   1.983
 1412TIP3    H2 4114   0.611   5.265   2.095
 1413TIP3   OH2 4115   0.779   5.320   1.546
 1413TIP3    H1 4116   0.728   5.392   1.509
 1413TIP3    H2 4117   0.865   5.328   1.505
 1414TIP3   OH2 4118   1.225   5.567   1.688
 1414TIP3    H1 4119   1.265   5.564   1.775
 1414TIP3    H2 4120   1.289   5.615   1.635
 1415TIP3   OH2 4121   1.404   5.716   1.544
 1415TIP3    H1 4122   1.472   5.662   1.502
 1415TIP3    H2 4123   1.453   5.772   1.604
 1416TIP3   OH2 4124   2.196   4.076   1.643
 1416TIP3    H1 4125   2.106   4.074   1.611
 1416TIP3    H2 4126   2.227   3.986   1.632
 1417TIP3   OH2 4127   0.468   5.576   1.580
 1417TIP3    H1 4128   0.391   5.627   1.554
 1417TIP3    H2 4129   0.481   5.597   1.672
 1418TIP3   OH2 4130   0.696   5.557   1.426
 1418TIP3    H1 4131   0.613   5.565   1.473
 1418TIP3    H2 4132   0.676   5.585   1.337
 1419TIP3   OH2 4133   1.127   5.584   1.235
 1419TIP3    H1 4134   1.051   5.594   1.179
 1419TIP3    H2 4135   1.142   5.671   1.272
 1420TIP3   OH2 4136   1.393   5.522   1.278
 1420TIP3    H1 4137   1.299   5.535   1.263
 1420TIP3    H2 4138   1.435   5.598   1.236
 1421TIP3   OH2 4139   1.594   5.717   1.192
 1421TIP3    H1 4140   1.580   5.800   1.146
 1421TIP3    H2 4141   1.620   5.655   1.123
 1422TIP3   OH2 4142   0.365   5.362   1.329
 1422TIP3    H1 4143   0.405   5.337   1.412
 1422TIP3    H2 4144   0.426   5.330   1.262
 1423TIP3   OH2 4145   0.554   5.240   1.178
 1423TIP3    H1 4146   0.570   5.160   1.227
 1423TIP3    H2 4147   0.641   5.280   1.168
 1424TIP3   OH2 4148   0.818   5.313   1.183
 1424TIP3    H1 4149   0.858   5.226   1.187
 1424TIP3    H2 4150   0.863   5.364   1.251
 1425TIP3   OH2 4151   1.395   3.993   1.260
 1425TIP3    H1 4152   1.357   3.930   1.321
 1425TIP3    H2 4153   1.469   3.947   1.221
 1426TIP3   OH2 4154   1.927   3.871   1.165
 1426TIP3    H1 4155   1.962   3.927   1.096
 1426TIP3    H2 4156   1.833   3.889   1.166
 1427TIP3   OH2 4157   2.021   3.978   0.928
 1427TIP3    H1 4158   2.093   3.924   0.894
 1427TIP3    H2 4159   2.053   4.068   0.920
 1428TIP3   OH2 4160   1.648   3.881   1.149
 1428TIP3    H1 4161   1.629   3.850   1.060
 1428TIP3    H2 4162   1.633   3.804   1.205
 1429TIP3   OH2 4163   1.639   5.444   0.379
 1429TIP3    H1 4164   1.641   5.348   0.383
 1429TIP3    H2 4165   1.598   5.464   0.295
 1430TIP3   OH2 4166   0.860   3.979   2.171
 1430TIP3    H1 4167   0.823   3.910   2.226
 1430TIP3    H2 4168   0.952   3.983   2.196
 1431TIP3   OH2 4169   1.107   3.976   2.291
 1431TIP3    H1 4170   1.192   3.955   2.251
 1431TIP3    H2 4171   1.094   3.908   2.357
 1432TIP3   OH2 4172   1.934   4.038   2.079
 1432TIP3    H1 4173   1.950   4.009   2.168
 1432TIP3    H2 4174   2.020   4.036   2.037
 1433TIP3   OH2 4175   1.869   5.596   1.569
 1433TIP3    H1 4176   1.793   5.560   1.523
 1433TIP3    H2 4177   1.852   5.690   1.575
 1434TIP3   OH2 4178   3.138   4.967   0.331
 1434TIP3    H1 4179   3.115   5.059   0.319
 1434TIP3    H2 4180   3.055   4.920   0.318
 1435TIP3   OH2 4181   3.136   4.958   0.717
 1435TIP3    H1 4182   3.169   4.942   0.806
 1435TIP3    H2 4183   3.092   4.877   0.693
 1436TIP3   OH2 4184   2.439   4.859   1.082
 1436TIP3    H1 4185   2.464   4.791   1.145
 1436TIP3    H2 4186   2.509   4.923   1.087
 1437TIP3   OH2 4187   3.377   5.268   0.400
 1437TIP3    H1 4188   3.367   5.200   0.466
 1437TIP3    H2 4189   3.407   5.345   0.450
 1438TIP3   OH2 4190   2.406   5.267   0.806
 1438TIP3    H1 4191   2.396   5.172   0.810
 1438TIP3    H2 4192   2.501   5.280   0.808
 1439TIP3   OH2 4193   2.114   4.476   0.590
 1439TIP3    H1 4194   2.071   4.560   0.608
 1439TIP3    H2 4195   2.043   4.418   0.565
 1440TIP3   OH2 4196   2.174   4.759   0.763
 1440TIP3    H1 4197   2.220   4.684   0.802
 1440TIP3    H2 4198   2.236   4.793   0.698
 1441TIP3   OH2 4199   3.026   5.725   0.412
 1441TIP3    H1 4200   3.075   5.655   0.369
 1441TIP3    H2 4201   3.022   5.699   0.504
 1442TIP3   OH2 4202   2.940   5.190   0.763
 1442TIP3    H1 4203   2.974   5.112   0.719
 1442TIP3    H2 4204   3.018   5.238   0.790
 1443TIP3   OH2 4205   3.948   4.515   0.763
 1443TIP3    H1 4206   3.975   4.592   0.813
 1443TIP3    H2 4207   3.965   4.539   0.671
 1444TIP3   OH2 4208   3.351   4.693   0.796
 1444TIP3    H1 4209   3.390   4.610   0.822
 1444TIP3    H2 4210   3.317   4.677   0.708
 1445TIP3   OH2 4211   2.683   4.351   0.761
 1445TIP3    H1 4212   2.664   4.425   0.703
 1445TIP3    H2 4213   2.637   4.277   0.721
 1446TIP3   OH2 4214   3.382   4.440   0.386
 1446TIP3    H1 4215   3.446   4.422   0.454
 1446TIP3    H2 4216   3.433   4.478   0.314
 1447TIP3   OH2 4217   2.321   4.553   0.868
 1447TIP3    H1 4218   2.400   4.536   0.920
 1447TIP3    H2 4219   2.331   4.498   0.791
 1448TIP3   OH2 4220   2.763   4.750   0.657
 1448TIP3    H1 4221   2.853   4.726   0.676
 1448TIP3    H2 4222   2.721   4.668   0.630
 1449TIP3   OH2 4223   4.018   4.721   0.934
 1449TIP3    H1 4224   3.935   4.765   0.916
 1449TIP3    H2 4225   4.038   4.742   1.025
 1450TIP3   OH2 4226   2.680   4.335   1.197
 1450TIP3    H1 4227   2.621   4.372   1.131
 1450TIP3    H2 4228   2.633   4.348   1.280
 1451TIP3   OH2 4229   3.039   5.199   0.196
 1451TIP3    H1 4230   2.981   5.168   0.126
 1451TIP3    H2 4231   2.995   5.277   0.230
 1452TIP3   OH2 4232   2.787   5.112   0.994
 1452TIP3    H1 4233   2.724   5.172   1.034
 1452TIP3    H2 4234   2.829   5.164   0.925
 1453TIP3   OH2 4235   3.591   4.445   0.558
 1453TIP3    H1 4236   3.573   4.398   0.640
 1453TIP3    H2 4237   3.641   4.522   0.586
 1454TIP3   OH2 4238   2.554   4.452   0.981
 1454TIP3    H1 4239   2.612   4.523   1.008
 1454TIP3    H2 4240   2.601   4.408   0.910
 1455TIP3   OH2 4241   2.610   5.304   1.090
 1455TIP3    H1 4242   2.591   5.390   1.053
 1455TIP3    H2 4243   2.537   5.285   1.148
 1456TIP3   OH2 4244   2.013   4.994   0.330
 1456TIP3    H1 4245   1.970   5.015   0.247
 1456TIP3    H2 4246   2.040   5.078   0.366
 1457TIP3   OH2 4247   3.446   5.508   0.561
 1457TIP3    H1 4248   3.361   5.499   0.604
 1457TIP3    H2 4249   3.444   5.594   0.521
 1458TIP3   OH2 4250   3.741   4.410   0.927
 1458TIP3    H1 4251   3.654   4.443   0.902
 1458TIP3    H2 4252   3.799   4.443   0.858
 1459TIP3   OH2 4253   3.036   4.054   0.912
 1459TIP3    H1 4254   3.027   3.960   0.929
 1459TIP3    H2 4255   2.962   4.093   0.957
 1460TIP3   OH2 4256   3.159   5.552   0.238
 1460TIP3    H1 4257   3.208   5.471   0.222
 1460TIP3    H2 4258   3.215   5.621   0.203
 1461TIP3   OH2 4259   3.300   5.325   0.141
 1461TIP3    H1 4260   3.223   5.269   0.137
 1461TIP3    H2 4261   3.340   5.305   0.226
 1462TIP3   OH2 4262   3.675   5.424   0.909
 1462TIP3    H1 4263   3.665   5.346   0.853
 1462TIP3    H2 4264   3.659   5.498   0.850
 1463TIP3   OH2 4265   2.962   4.810   0.162
 1463TIP3    H1 4266   2.883   4.863   0.153
 1463TIP3    H2 4267   3.007   4.819   0.078
 1464TIP3   OH2 4268   6.189   9.210   7.895
 1464TIP3    H1 4269   6.258   9.258   7.941
 1464TIP3    H2 4270   6.228   9.126   7.873
 1465TIP3   OH2 4271   3.870   5.058   0.749
 1465TIP3    H1 4272   3.790   5.109   0.761
 1465TIP3    H2 4273   3.902   5.084   0.663
 1466TIP3   OH2 4274   3.318   4.895   0.145
 1466TIP3    H1 4275   3.260   4.922   0.216
 1466TIP3    H2 4276   3.400   4.871   0.188
 1467TIP3   OH2 4277   3.548   4.941   1.050
 1467TIP3    H1 4278   3.551   5.019   1.105
 1467TIP3    H2 4279   3.463   4.946   1.006
 1468TIP3   OH2 4280   2.550   4.895   0.552
 1468TIP3    H1 4281   2.510   4.838   0.487
 1468TIP3    H2 4282   2.626   4.845   0.584
 1469TIP3   OH2 4283   2.681   5.310   0.703
 1469TIP3    H1 4284   2.657   5.262   0.623
 1469TIP3    H2 4285   2.769   5.279   0.724
 1470TIP3   OH2 4286   2.688   4.868   0.907
 1470TIP3    H1 4287   2.722   4.851   0.819
 1470TIP3    H2 4288   2.727   4.952   0.932
 1471TIP3   OH2 4289   3.209   5.504   0.688
 1471TIP3    H1 4290   3.196   5.585   0.738
 1471TIP3    H2 4291   3.195   5.434   0.751
 1472TIP3   OH2 4292   2.818   5.426   1.231
 1472TIP3    H1 4293   2.764   5.487   1.281
 1472TIP3    H2 4294   2.755   5.371   1.185
 1473TIP3   OH2 4295   9.701   0.135   7.969
 1473TIP3    H1 4296   9.750   0.192   8.029
 1473TIP3    H2 4297   9.707   0.179   7.884
 1474TIP3   OH2 4298   2.571   4.987   1.329
 1474TIP3    H1 4299   2.582   5.068   1.378
 1474TIP3    H2 4300   2.481   4.961   1.346
 1475TIP3   OH2 4301   2.901   5.435   0.243
 1475TIP3    H1 4302   2.975   5.492   0.263
 1475TIP3    H2 4303   2.837   5.493   0.201
 1476TIP3   OH2 4304   2.614   5.594   1.321
 1476TIP3    H1 4305   2.580   5.591   1.231
 1476TIP3    H2 4306   2.538   5.573   1.376
 1477TIP3   OH2 4307   3.672   4.004   0.012
 1477TIP3    H1 4308   3.592   4.011   0.064
 1477TIP3    H2 4309   3.677   4.087  -0.035
 1478TIP3   OH2 4310   2.417   4.737   0.348
 1478TIP3    H1 4311   2.348   4.784   0.301
 1478TIP3    H2 4312   2.373   4.659   0.382
 1479TIP3   OH2 4313   2.195   5.121   1.268
 1479TIP3    H1 4314   2.131   5.097   1.200
 1479TIP3    H2 4315   2.233   5.038   1.296
 1480TIP3   OH2 4316   2.050   5.318   0.900
 1480TIP3    H1 4317   2.145   5.308   0.891
 1480TIP3    H2 4318   2.039   5.394   0.957
 1481TIP3   OH2 4319   3.912   5.765   0.958
 1481TIP3    H1 4320   3.913   5.670   0.972
 1481TIP3    H2 4321   3.832   5.794   1.001
 1482TIP3   OH2 4322   3.017   5.556   1.091
 1482TIP3    H1 4323   3.020   5.647   1.122
 1482TIP3    H2 4324   2.949   5.514   1.143
 1483TIP3   OH2 4325   2.780   5.684   0.038
 1483TIP3    H1 4326   2.735   5.668  -0.044
 1483TIP3    H2 4327   2.752   5.772   0.064
 1484TIP3   OH2 4328   2.218   5.531   0.428
 1484TIP3    H1 4329   2.267   5.524   0.510
 1484TIP3    H2 4330   2.161   5.455   0.428
 1485TIP3   OH2 4331   9.510   0.973   7.701
 1485TIP3    H1 4332   9.558   0.903   7.658
 1485TIP3    H2 4333   9.543   0.974   7.791
 1486TIP3   OH2 4334   3.032   5.619  -0.034
 1486TIP3    H1 4335   2.943   5.634  -0.003
 1486TIP3    H2 4336   3.080   5.589   0.043
 1487TIP3   OH2 4337   3.806   4.898   1.227
 1487TIP3    H1 4338   3.721   4.912   1.186
 1487TIP3    H2 4339   3.821   4.804   1.223
 1488TIP3   OH2 4340   2.400   5.306   1.260
 1488TIP3    H1 4341   2.451   5.291   1.339
 1488TIP3    H2 4342   2.328   5.243   1.265
 1489TIP3   OH2 4343   2.796   4.132   1.039
 1489TIP3    H1 4344   2.710   4.098   1.013
 1489TIP3    H2 4345   2.776   4.212   1.087
 1490TIP3   OH2 4346   3.332   4.243   1.236
 1490TIP3    H1 4347   3.400   4.220   1.299
 1490TIP3    H2 4348   3.250   4.226   1.281
 1491TIP3   OH2 4349   3.571   4.676   1.154
 1491TIP3    H1 4350   3.526   4.669   1.238
 1491TIP3    H2 4351   3.547   4.763   1.121
 1492TIP3   OH2 4352   9.763   0.196   7.702
 1492TIP3    H1 4353   9.709   0.170   7.628
 1492TIP3    H2 4354   9.754   0.291   7.706
 1493TIP3   OH2 4355   2.958   4.198   0.020
 1493TIP3    H1 4356   2.924   4.191   0.109
 1493TIP3    H2 4357   2.922   4.121  -0.025
 1494TIP3   OH2 4358   2.729   4.648   1.059
 1494TIP3    H1 4359   2.683   4.667   1.141
 1494TIP3    H2 4360   2.715   4.726   1.006
 1495TIP3   OH2 4361   2.611   4.531   0.572
 1495TIP3    H1 4362   2.522   4.505   0.594
 1495TIP3    H2 4363   2.628   4.490   0.487
 1496TIP3   OH2 4364   3.106   4.619   0.300
 1496TIP3    H1 4365   3.051   4.687   0.261
 1496TIP3    H2 4366   3.158   4.585   0.228
 1497TIP3   OH2 4367   3.280   4.894   1.387
 1497TIP3    H1 4368   3.257   4.824   1.448
 1497TIP3    H2 4369   3.372   4.914   1.408
 1498TIP3   OH2 4370   3.263   4.644   0.537
 1498TIP3    H1 4371   3.201   4.676   0.472
 1498TIP3    H2 4372   3.296   4.562   0.501
 1499TIP3   OH2 4373   2.549   4.674   1.270
 1499TIP3    H1 4374   2.577   4.737   1.336
 1499TIP3    H2 4375   2.538   4.592   1.319
 1500TIP3   OH2 4376   2.592   4.133  -0.021
 1500TIP3    H1 4377   2.606   4.132   0.074
 1500TIP3    H2 4378   2.520   4.193  -0.035
 1501TIP3   OH2 4379   2.141   4.204   0.848
 1501TIP3    H1 4380   2.217   4.229   0.901
 1501TIP3    H2 4381   2.179   4.165   0.769
 1502TIP3   OH2 4382   2.126   4.188   0.364
 1502TIP3    H1 4383   2.177   4.223   0.290
 1502TIP3    H2 4384   2.069   4.261   0.390
 1503TIP3   OH2 4385   3.270   4.891   0.961
 1503TIP3    H1 4386   3.305   4.822   0.904
 1503TIP3    H2 4387   3.244   4.845   1.040
 1504TIP3   OH2 4388   2.939   4.356   0.635
 1504TIP3    H1 4389   2.858   4.353   0.686
 1504TIP3    H2 4390   3.009   4.352   0.701
 1505TIP3   OH2 4391   2.377   4.408   0.640
 1505TIP3    H1 4392   2.285   4.417   0.615
 1505TIP3    H2 4393   2.399   4.317   0.622
 1506TIP3   OH2 4394   2.648   4.404   0.333
 1506TIP3    H1 4395   2.741   4.420   0.315
 1506TIP3    H2 4396   2.604   4.425   0.250
 1507TIP3   OH2 4397   3.430   4.428   0.832
 1507TIP3    H1 4398   3.406   4.442   0.924
 1507TIP3    H2 4399   3.365   4.367   0.799
 1508TIP3   OH2 4400   2.490   4.429   0.112
 1508TIP3    H1 4401   2.397   4.415   0.098
 1508TIP3    H2 4402   2.520   4.473   0.032
 1509TIP3   OH2 4403   3.605   6.119   1.054
 1509TIP3    H1 4404   3.602   6.142   0.961
 1509TIP3    H2 4405   3.681   6.165   1.088
 1510TIP3   OH2 4406   2.563   5.231   1.479
 1510TIP3    H1 4407   2.642   5.258   1.524
 1510TIP3    H2 4408   2.497   5.224   1.548
 1511TIP3   OH2 4409   3.026   4.681   0.734
 1511TIP3    H1 4410   3.098   4.638   0.688
 1511TIP3    H2 4411   3.029   4.645   0.822
 1512TIP3   OH2 4412   2.548   4.167   0.610
 1512TIP3    H1 4413   2.512   4.093   0.659
 1512TIP3    H2 4414   2.605   4.127   0.545
 1513TIP3   OH2 4415   3.002   4.583   1.018
 1513TIP3    H1 4416   2.914   4.616   1.036
 1513TIP3    H2 4417   3.059   4.638   1.071
 1514TIP3   OH2 4418   2.740   4.967   0.120
 1514TIP3    H1 4419   2.667   4.906   0.106
 1514TIP3    H2 4420   2.723   5.005   0.206
 1515TIP3   OH2 4421   3.640   5.205   0.744
 1515TIP3    H1 4422   3.664   5.255   0.666
 1515TIP3    H2 4423   3.555   5.166   0.723
 1516TIP3   OH2 4424   6.472   8.910   7.946
 1516TIP3    H1 4425   6.385   8.877   7.967
 1516TIP3    H2 4426   6.480   8.993   7.993
 1517TIP3   OH2 4427   3.137   5.288   1.115
 1517TIP3    H1 4428   3.162   5.263   1.204
 1517TIP3    H2 4429   3.099   5.375   1.125
 1518TIP3   OH2 4430   3.267   4.523   0.083
 1518TIP3    H1 4431   3.360   4.528   0.106
 1518TIP3    H2 4432   3.248   4.606   0.039
 1519TIP3   OH2 4433   2.430   4.988   0.792
 1519TIP3    H1 4434   2.470   4.961   0.710
 1519TIP3    H2 4435   2.469   4.930   0.858
 1520TIP3   OH2 4436   9.411   0.498   7.934
 1520TIP3    H1 4437   9.374   0.585   7.943
 1520TIP3    H2 4438   9.361   0.445   7.997
 1521TIP3   OH2 4439   2.312   4.913   1.407
 1521TIP3    H1 4440   2.340   4.906   1.498
 1521TIP3    H2 4441   2.245   4.845   1.397
 1522TIP3   OH2 4442   3.038   5.026   1.420
 1522TIP3    H1 4443   2.978   4.963   1.379
 1522TIP3    H2 4444   3.125   4.994   1.397
 1523TIP3   OH2 4445   3.296   5.547   1.010
 1523TIP3    H1 4446   3.201   5.545   1.022
 1523TIP3    H2 4447   3.328   5.597   1.086
 1524TIP3   OH2 4448   6.970   9.226   7.928
 1524TIP3    H1 4449   6.915   9.176   7.868
 1524TIP3    H2 4450   6.972   9.314   7.890
 1525TIP3   OH2 4451   3.924   5.473   0.998
 1525TIP3    H1 4452   3.829   5.471   0.995
 1525TIP3    H2 4453   3.952   5.446   0.911
 1526TIP3   OH2 4454   0.144   0.816   7.817
 1526TIP3    H1 4455   0.115   0.768   7.894
 1526TIP3    H2 4456   0.139   0.753   7.746
 1527TIP3   OH2 4457   3.403   5.067   0.661
 1527TIP3    H1 4458   3.311   5.044   0.678
 1527TIP3    H2 4459   3.439   4.989   0.620
 1528TIP3   OH2 4460   2.529   5.292   0.409
 1528TIP3    H1 4461   2.532   5.375   0.362
 1528TIP3    H2 4462   2.436   5.280   0.431
 1529TIP3   OH2 4463   2.097   4.603   0.126
 1529TIP3    H1 4464   2.140   4.687   0.143
 1529TIP3    H2 4465   2.017   4.606   0.180
 1530TIP3   OH2 4466   2.672   5.062   0.362
 1530TIP3    H1 4467   2.636   5.150   0.376
 1530TIP3    H2 4468   2.638   5.010   0.434
 1531TIP3   OH2 4469   2.802   5.640   0.887
 1531TIP3    H1 4470   2.842   5.711   0.837
 1531TIP3    H2 4471   2.875   5.604   0.938
 1532TIP3   OH2 4472   2.451   5.536   0.271
 1532TIP3    H1 4473   2.366   5.542   0.316
 1532TIP3    H2 4474   2.485   5.626   0.272
 1533TIP3   OH2 4475   3.190   5.270   0.848
 1533TIP3    H1 4476   3.177   5.273   0.943
 1533TIP3    H2 4477   3.274   5.224   0.837
 1534TIP3   OH2 4478   9.690   0.469   7.728
 1534TIP3    H1 4479   9.744   0.485   7.806
 1534TIP3    H2 4480   9.607   0.512   7.747
 1535TIP3   OH2 4481   3.436   5.806   0.893
 1535TIP3    H1 4482   3.360   5.750   0.889
 1535TIP3    H2 4483   3.423   5.871   0.824
 1536TIP3   OH2 4484   2.524   4.414   1.414
 1536TIP3    H1 4485   2.431   4.425   1.433
 1536TIP3    H2 4486   2.558   4.362   1.487
 1537TIP3   OH2 4487   0.063   0.457   7.938
 1537TIP3    H1 4488   0.047   0.413   8.022
 1537TIP3    H2 4489   0.156   0.479   7.940
 1538TIP3   OH2 4490   2.240   5.501   1.048
 1538TIP3    H1 4491   2.291   5.425   1.078
 1538TIP3    H2 4492   2.266   5.571   1.108
 1539TIP3   OH2 4493   9.064   0.531   7.729
 1539TIP3    H1 4494   9.090   0.443   7.702
 1539TIP3    H2 4495   9.041   0.521   7.822
 1540TIP3   OH2 4496   2.481   5.153   0.001
 1540TIP3    H1 4497   2.543   5.129   0.070
 1540TIP3    H2 4498   2.480   5.249   0.002
 1541TIP3   OH2 4499   2.211   4.852   0.204
 1541TIP3    H1 4500   2.145   4.891   0.262
 1541TIP3    H2 4501   2.225   4.918   0.137
 1542TIP3   OH2 4502   3.366   4.475   1.091
 1542TIP3    H1 4503   3.436   4.521   1.137
 1542TIP3    H2 4504   3.347   4.399   1.146
 1543TIP3   OH2 4505   3.238   4.237   0.255
 1543TIP3    H1 4506   3.228   4.263   0.164
 1543TIP3    H2 4507   3.279   4.314   0.297
 1544TIP3   OH2 4508   9.278   0.729   7.961
 1544TIP3    H1 4509   9.194   0.762   7.994
 1544TIP3    H2 4510   9.282   0.761   7.870
 1545TIP3   OH2 4511   2.930   4.413   0.364
 1545TIP3    H1 4512   2.993   4.483   0.348
 1545TIP3    H2 4513   2.931   4.401   0.459
 1546TIP3   OH2 4514   3.203   4.732   1.172
 1546TIP3    H1 4515   3.215   4.789   1.248
 1546TIP3    H2 4516   3.255   4.654   1.192
 1547TIP3   OH2 4517   3.076   4.142   0.464
 1547TIP3    H1 4518   3.073   4.212   0.530
 1547TIP3    H2 4519   3.133   4.176   0.396
 1548TIP3   OH2 4520   2.482   5.423   0.018
 1548TIP3    H1 4521   2.457   5.490  -0.045
 1548TIP3    H2 4522   2.468   5.464   0.104
 1549TIP3   OH2 4523   2.593   4.138   0.255
 1549TIP3    H1 4524   2.581   4.225   0.294
 1549TIP3    H2 4525   2.686   4.119   0.267
 1550TIP3   OH2 4526   3.836   4.629   1.147
 1550TIP3    H1 4527   3.742   4.630   1.161
 1550TIP3    H2 4528   3.848   4.589   1.061
 1551TIP3   OH2 4529   3.491   4.823   0.537
 1551TIP3    H1 4530   3.414   4.769   0.554
 1551TIP3    H2 4531   3.562   4.781   0.585
 1552TIP3   OH2 4532   8.740   0.442   8.012
 1552TIP3    H1 4533   8.804   0.512   8.025
 1552TIP3    H2 4534   8.782   0.383   7.949
 1553TIP3   OH2 4535   2.169   4.343   0.130
 1553TIP3    H1 4536   2.148   4.436   0.126
 1553TIP3    H2 4537   2.095   4.299   0.088
 1554TIP3   OH2 4538   3.460   5.779   0.485
 1554TIP3    H1 4539   3.414   5.824   0.415
 1554TIP3    H2 4540   3.553   5.798   0.469
 1555TIP3   OH2 4541   2.534   4.048   1.016
 1555TIP3    H1 4542   2.503   4.016   0.931
 1555TIP3    H2 4543   2.525   3.973   1.075
 1556TIP3   OH2 4544   2.077   5.270   0.401
 1556TIP3    H1 4545   2.005   5.295   0.458
 1556TIP3    H2 4546   2.052   5.304   0.315
 1557TIP3   OH2 4547   2.231   5.807   1.469
 1557TIP3    H1 4548   2.315   5.810   1.515
 1557TIP3    H2 4549   2.209   5.714   1.465
 1558TIP3   OH2 4550   2.713   5.776   1.508
 1558TIP3    H1 4551   2.805   5.756   1.522
 1558TIP3    H2 4552   2.686   5.718   1.437
 1559TIP3   OH2 4553   9.249   0.723   7.681
 1559TIP3    H1 4554   9.173   0.667   7.695
 1559TIP3    H2 4555   9.277   0.705   7.591
 1560TIP3   OH2 4556   3.354   5.678   1.245
 1560TIP3    H1 4557   3.342   5.611   1.312
 1560TIP3    H2 4558   3.428   5.730   1.275
 1561TIP3   OH2 4559   2.360   5.219   1.665
 1561TIP3    H1 4560   2.381   5.128   1.684
 1561TIP3    H2 4561   2.274   5.216   1.623
 1562TIP3   OH2 4562   8.879   0.258   7.877
 1562TIP3    H1 4563   8.938   0.222   7.943
 1562TIP3    H2 4564   8.922   0.237   7.794
 1563TIP3   OH2 4565   2.970   5.301   1.440
 1563TIP3    H1 4566   2.927   5.315   1.355
 1563TIP3    H2 4567   3.001   5.210   1.436
 1564TIP3   OH2 4568   9.363   0.418   7.668
 1564TIP3    H1 4569   9.370   0.473   7.746
 1564TIP3    H2 4570   9.368   0.328   7.702
 1565TIP3   OH2 4571   3.459   5.309   1.042
 1565TIP3    H1 4572   3.535   5.353   1.003
 1565TIP3    H2 4573   3.389   5.373   1.035
 1566TIP3   OH2 4574   2.483   4.948   1.648
 1566TIP3    H1 4575   2.539   4.870   1.647
 1566TIP3    H2 4576   2.496   4.986   1.735
 1567TIP3   OH2 4577   2.545   4.770   0.083
 1567TIP3    H1 4578   2.516   4.741   0.169
 1567TIP3    H2 4579   2.579   4.691   0.040
 1568TIP3   OH2 4580   2.813   4.834   1.307
 1568TIP3    H1 4581   2.739   4.893   1.315
 1568TIP3    H2 4582   2.863   4.867   1.232
 1569TIP3   OH2 4583   5.912   9.183   7.918
 1569TIP3    H1 4584   5.903   9.141   7.832
 1569TIP3    H2 4585   6.006   9.199   7.927
 1570TIP3   OH2 4586   3.331   5.235   1.445
 1570TIP3    H1 4587   3.416   5.218   1.405
 1570TIP3    H2 4588   3.326   5.173   1.518
 1571TIP3   OH2 4589   0.222   0.279   7.617
 1571TIP3    H1 4590   0.238   0.261   7.525
 1571TIP3    H2 4591   0.201   0.372   7.620
 1572TIP3   OH2 4592   2.938   4.621   1.434
 1572TIP3    H1 4593   2.938   4.542   1.381
 1572TIP3    H2 4594   2.894   4.686   1.380
 1573TIP3   OH2 4595   2.939   4.408   1.240
 1573TIP3    H1 4596   2.967   4.449   1.158
 1573TIP3    H2 4597   2.847   4.386   1.226
 1574TIP3   OH2 4598   2.968   4.943   1.112
 1574TIP3    H1 4599   3.053   4.955   1.069
 1574TIP3    H2 4600   2.912   5.010   1.073
 1575TIP3   OH2 4601   3.550   4.910   1.495
 1575TIP3    H1 4602   3.597   4.832   1.524
 1575TIP3    H2 4603   3.619   4.973   1.474
 1576TIP3   OH2 4604   3.593   5.164   1.228
 1576TIP3    H1 4605   3.532   5.215   1.174
 1576TIP3    H2 4606   3.679   5.184   1.192
 1577TIP3   OH2 4607   2.820   4.736   1.663
 1577TIP3    H1 4608   2.743   4.683   1.684
 1577TIP3    H2 4609   2.851   4.701   1.580
 1578TIP3   OH2 4610   3.070   4.173   1.308
 1578TIP3    H1 4611   3.024   4.254   1.289
 1578TIP3    H2 4612   3.003   4.105   1.300
 1579TIP3   OH2 4613   3.197   4.678   1.529
 1579TIP3    H1 4614   3.194   4.668   1.625
 1579TIP3    H2 4615   3.109   4.654   1.500
 1580TIP3   OH2 4616   3.435   4.619   1.381
 1580TIP3    H1 4617   3.362   4.628   1.442
 1580TIP3    H2 4618   3.510   4.594   1.436
 1581TIP3   OH2 4619   3.663   4.564   1.532
 1581TIP3    H1 4620   3.677   4.472   1.554
 1581TIP3    H2 4621   3.659   4.608   1.617
 1582TIP3   OH2 4622   2.655   4.512   1.716
 1582TIP3    H1 4623   2.664   4.422   1.686
 1582TIP3    H2 4624   2.688   4.511   1.806
 1583TIP3   OH2 4625   3.168   4.181   1.565
 1583TIP3    H1 4626   3.235   4.113   1.564
 1583TIP3    H2 4627   3.127   4.176   1.479
 1584TIP3   OH2 4628   3.231   4.398   1.727
 1584TIP3    H1 4629   3.209   4.329   1.665
 1584TIP3    H2 4630   3.156   4.457   1.724
 1585TIP3   OH2 4631   8.983   0.999   7.833
 1585TIP3    H1 4632   9.074   1.003   7.805
 1585TIP3    H2 4633   8.935   1.047   7.765
 1586TIP3   OH2 4634   1.942   5.006   0.058
 1586TIP3    H1 4635   2.030   5.038   0.038
 1586TIP3    H2 4636   1.932   4.928   0.003
 1587TIP3   OH2 4637   1.843   5.620   0.459
 1587TIP3    H1 4638   1.778   5.558   0.424
 1587TIP3    H2 4639   1.891   5.569   0.524
 1588TIP3   OH2 4640   1.983   5.476   0.647
 1588TIP3    H1 4641   1.971   5.400   0.704
 1588TIP3    H2 4642   2.035   5.537   0.700
 1589TIP3   OH2 4643   3.710   5.875   0.445
 1589TIP3    H1 4644   3.735   5.905   0.532
 1589TIP3    H2 4645   3.773   5.916   0.386
 1590TIP3   OH2 4646   3.740   5.890   0.727
 1590TIP3    H1 4647   3.698   5.805   0.722
 1590TIP3    H2 4648   3.817   5.876   0.783
 1591TIP3   OH2 4649   3.784   5.572   1.298
 1591TIP3    H1 4650   3.713   5.577   1.363
 1591TIP3    H2 4651   3.827   5.657   1.303
 1592TIP3   OH2 4652   0.344   0.462   7.925
 1592TIP3    H1 4653   0.410   0.526   7.901
 1592TIP3    H2 4654   0.375   0.426   8.008
 1593TIP3   OH2 4655   3.728   4.947   0.125
 1593TIP3    H1 4656   3.667   4.907   0.187
 1593TIP3    H2 4657   3.796   4.986   0.180
 1594TIP3   OH2 4658   3.783   5.341   0.551
 1594TIP3    H1 4659   3.839   5.280   0.503
 1594TIP3    H2 4660   3.777   5.418   0.495
 1595TIP3   OH2 4661   3.614   5.641   0.750
 1595TIP3    H1 4662   3.547   5.685   0.803
 1595TIP3    H2 4663   3.564   5.595   0.682
 1596TIP3   OH2 4664   0.404   0.226   7.803
 1596TIP3    H1 4665   0.354   0.256   7.727
 1596TIP3    H2 4666   0.395   0.297   7.867
 1597TIP3   OH2 4667   6.757   9.184   7.699
 1597TIP3    H1 4668   6.810   9.155   7.625
 1597TIP3    H2 4669   6.731   9.103   7.742
 1598TIP3   OH2 4670   3.545   4.803   0.273
 1598TIP3    H1 4671   3.553   4.707   0.272
 1598TIP3    H2 4672   3.531   4.824   0.366
 1599TIP3   OH2 4673   2.174   4.882   1.014
 1599TIP3    H1 4674   2.169   4.851   0.923
 1599TIP3    H2 4675   2.268   4.882   1.034
 1600TIP3   OH2 4676   3.836   5.230   1.123
 1600TIP3    H1 4677   3.906   5.165   1.116
 1600TIP3    H2 4678   3.864   5.303   1.068
 1601TIP3   OH2 4679   4.021   5.034   1.139
 1601TIP3    H1 4680   3.946   4.989   1.179
 1601TIP3    H2 4681   4.095   4.975   1.154
 1602TIP3   OH2 4682   6.755   8.924   7.749
 1602TIP3    H1 4683   6.836   8.877   7.766
 1602TIP3    H2 4684   6.686   8.859   7.766
 1603TIP3   OH2 4685   3.542   4.517   0.162
 1603TIP3    H1 4686   3.574   4.429   0.181
 1603TIP3    H2 4687   3.607   4.555   0.104
 1604TIP3   OH2 4688   3.705   4.698   0.660
 1604TIP3    H1 4689   3.788   4.722   0.619
 1604TIP3    H2 4690   3.711   4.732   0.749
 1605TIP3   OH2 4691   3.767   4.840   0.890
 1605TIP3    H1 4692   3.693   4.871   0.943
 1605TIP3    H2 4693   3.801   4.920   0.848
 1606TIP3   OH2 4694   2.387   4.559   1.678
 1606TIP3    H1 4695   2.481   4.569   1.690
 1606TIP3    H2 4696   2.364   4.480   1.726
 1607TIP3   OH2 4697   4.225   4.429   1.445
 1607TIP3    H1 4698   4.281   4.364   1.402
 1607TIP3    H2 4699   4.195   4.486   1.375
 1608TIP3   OH2 4700   3.650   4.269   0.202
 1608TIP3    H1 4701   3.698   4.258   0.284
 1608TIP3    H2 4702   3.590   4.195   0.200
 1609TIP3   OH2 4703   2.353   4.257   1.018
 1609TIP3    H1 4704   2.412   4.183   1.032
 1609TIP3    H2 4705   2.411   4.333   1.017
 1610TIP3   OH2 4706   2.153   4.533   1.093
 1610TIP3    H1 4707   2.202   4.528   1.011
 1610TIP3    H2 4708   2.181   4.616   1.133
 1611TIP3   OH2 4709   4.094   4.571   1.255
 1611TIP3    H1 4710   4.016   4.613   1.291
 1611TIP3    H2 4711   4.059   4.503   1.197
 1612TIP3   OH2 4712   7.011   8.832   7.814
 1612TIP3    H1 4713   7.067   8.759   7.788
 1612TIP3    H2 4714   7.070   8.906   7.827
 1613TIP3   OH2 4715   2.139   4.053   0.604
 1613TIP3    H1 4716   2.046   4.037   0.621
 1613TIP3    H2 4717   2.140   4.102   0.522
 1614TIP3   OH2 4718   3.309   5.729   0.107
 1614TIP3    H1 4719   3.355   5.728   0.023
 1614TIP3    H2 4720   3.342   5.808   0.151
 1615TIP3   OH2 4721   2.353   4.113   1.409
 1615TIP3    H1 4722   2.309   4.110   1.494
 1615TIP3    H2 4723   2.289   4.153   1.350
 1616TIP3   OH2 4724   2.394   5.546   1.489
 1616TIP3    H1 4725   2.305   5.515   1.471
 1616TIP3    H2 4726   2.411   5.520   1.580
 1617TIP3   OH2 4727   2.574   5.576   1.032
 1617TIP3    H1 4728   2.524   5.649   0.997
 1617TIP3    H2 4729   2.661   5.585   0.992
 1618TIP3   OH2 4730   3.022   5.822   1.174
 1618TIP3    H1 4731   3.060   5.819   1.262
 1618TIP3    H2 4732   3.086   5.871   1.122
 1619TIP3   OH2 4733   3.202   5.972   1.031
 1619TIP3    H1 4734   3.271   5.919   0.991
 1619TIP3    H2 4735   3.248   6.029   1.092
 1620TIP3   OH2 4736   3.993   4.333   1.128
 1620TIP3    H1 4737   3.901   4.330   1.101
 1620TIP3    H2 4738   4.023   4.242   1.119
 1621TIP3   OH2 4739   2.249   5.833   1.058
 1621TIP3    H1 4740   2.162   5.866   1.035
 1621TIP3    H2 4741   2.263   5.865   1.147
 1622TIP3   OH2 4742   2.485   5.811   0.915
 1622TIP3    H1 4743   2.402   5.823   0.961
 1622TIP3    H2 4744   2.468   5.844   0.826
 1623TIP3   OH2 4745   2.913   5.843   0.712
 1623TIP3    H1 4746   2.844   5.862   0.648
 1623TIP3    H2 4747   2.927   5.927   0.757
 1624TIP3   OH2 4748   3.180   5.780   0.761
 1624TIP3    H1 4749   3.087   5.796   0.744
 1624TIP3    H2 4750   3.225   5.856   0.725
 1625TIP3   OH2 4751   3.388   5.972   0.679
 1625TIP3    H1 4752   3.375   6.056   0.635
 1625TIP3    H2 4753   3.415   5.912   0.609
 1626TIP3   OH2 4754   2.165   5.624   0.805
 1626TIP3    H1 4755   2.187   5.602   0.895
 1626TIP3    H2 4756   2.233   5.583   0.752
 1627TIP3   OH2 4757   2.357   5.496   0.660
 1627TIP3    H1 4758   2.370   5.414   0.708
 1627TIP3    H2 4759   2.445   5.534   0.656
 1628TIP3   OH2 4760   2.623   5.590   0.665
 1628TIP3    H1 4761   2.652   5.500   0.652
 1628TIP3    H2 4762   2.664   5.618   0.747
 1629TIP3   OH2 4763   3.194   4.244   0.743
 1629TIP3    H1 4764   3.152   4.181   0.801
 1629TIP3    H2 4765   3.269   4.198   0.707
 1630TIP3   OH2 4766   3.721   4.127   0.650
 1630TIP3    H1 4767   3.757   4.181   0.580
 1630TIP3    H2 4768   3.628   4.146   0.650
 1631TIP3   OH2 4769   3.819   4.234   0.415
 1631TIP3    H1 4770   3.890   4.181   0.380
 1631TIP3    H2 4771   3.849   4.324   0.404
 1632TIP3   OH2 4772   2.446   3.955   0.766
 1632TIP3    H1 4773   2.355   3.927   0.764
 1632TIP3    H2 4774   2.497   3.874   0.764
 1633TIP3   OH2 4775   2.261   3.818   0.421
 1633TIP3    H1 4776   2.284   3.875   0.348
 1633TIP3    H2 4777   2.207   3.872   0.478
 1634TIP3   OH2 4778   2.889   3.993   0.646
 1634TIP3    H1 4779   2.950   4.043   0.591
 1634TIP3    H2 4780   2.906   4.024   0.735
 1635TIP3   OH2 4781   3.439   4.133   0.631
 1635TIP3    H1 4782   3.436   4.096   0.543
 1635TIP3    H2 4783   3.425   4.058   0.689
 1636TIP3   OH2 4784   3.467   4.055   0.195
 1636TIP3    H1 4785   3.380   4.095   0.199
 1636TIP3    H2 4786   3.458   3.972   0.242
 1637TIP3   OH2 4787   1.950   5.383   0.196
 1637TIP3    H1 4788   1.865   5.348   0.170
 1637TIP3    H2 4789   1.948   5.475   0.169
 1638TIP3   OH2 4790   2.352   3.987   0.199
 1638TIP3    H1 4791   2.392   3.909   0.160
 1638TIP3    H2 4792   2.426   4.044   0.221
 1639TIP3   OH2 4793   2.868   4.162   0.279
 1639TIP3    H1 4794   2.924   4.112   0.339
 1639TIP3    H2 4795   2.883   4.254   0.302
 1640TIP3   OH2 4796   9.248   0.982   7.764
 1640TIP3    H1 4797   9.338   1.003   7.741
 1640TIP3    H2 4798   9.230   0.899   7.721
 1641TIP3   OH2 4799   0.172   1.085   7.862
 1641TIP3    H1 4800   0.164   0.990   7.850
 1641TIP3    H2 4801   0.100   1.122   7.811
 1642TIP3   OH2 4802   2.657   4.233   1.656
 1642TIP3    H1 4803   2.619   4.167   1.714
 1642TIP3    H2 4804   2.749   4.238   1.683
 1643TIP3   OH2 4805   2.903   4.232   1.777
 1643TIP3    H1 4806   2.989   4.212   1.739
 1643TIP3    H2 4807   2.889   4.165   1.844
 1644TIP3   OH2 4808   8.570   0.831   7.855
 1644TIP3    H1 4809   8.544   0.849   7.945
 1644TIP3    H2 4810   8.647   0.775   7.863
 1645TIP3   OH2 4811   3.729   4.293   1.566
 1645TIP3    H1 4812   3.745   4.265   1.656
 1645TIP3    H2 4813   3.816   4.291   1.525
 1646TIP3   OH2 4814   3.667   5.851   1.055
 1646TIP3    H1 4815   3.589   5.817   1.010
 1646TIP3    H2 4816   3.650   5.946   1.062
 1647TIP3   OH2 4817   4.905   5.223   0.211
 1647TIP3    H1 4818   4.959   5.203   0.288
 1647TIP3    H2 4819   4.910   5.144   0.157
 1648TIP3   OH2 4820   4.237   5.116   0.568
 1648TIP3    H1 4821   4.264   5.049   0.631
 1648TIP3    H2 4822   4.302   5.186   0.577
 1649TIP3   OH2 4823   4.202   5.522   0.295
 1649TIP3    H1 4824   4.192   5.427   0.298
 1649TIP3    H2 4825   4.296   5.536   0.288
 1650TIP3   OH2 4826   3.913   4.733   0.073
 1650TIP3    H1 4827   3.872   4.816   0.097
 1650TIP3    H2 4828   3.839   4.674   0.059
 1651TIP3   OH2 4829   3.970   5.013   0.241
 1651TIP3    H1 4830   4.016   4.941   0.285
 1651TIP3    H2 4831   4.038   5.060   0.194
 1652TIP3   OH2 4832   4.736   5.445   0.250
 1652TIP3    H1 4833   4.774   5.364   0.216
 1652TIP3    H2 4834   4.812   5.497   0.277
 1653TIP3   OH2 4835   5.759   4.761   0.256
 1653TIP3    H1 4836   5.766   4.842   0.306
 1653TIP3    H2 4837   5.787   4.785   0.168
 1654TIP3   OH2 4838   5.120   4.923   0.305
 1654TIP3    H1 4839   5.199   4.872   0.323
 1654TIP3    H2 4840   5.121   4.935   0.210
 1655TIP3   OH2 4841   4.484   4.608   0.247
 1655TIP3    H1 4842   4.463   4.680   0.188
 1655TIP3    H2 4843   4.437   4.533   0.211
 1656TIP3   OH2 4844   1.862   0.064   7.944
 1656TIP3    H1 4845   1.916   0.041   8.020
 1656TIP3    H2 4846   1.924   0.065   7.871
 1657TIP3   OH2 4847   4.117   4.811   0.355
 1657TIP3    H1 4848   4.195   4.794   0.407
 1657TIP3    H2 4849   4.127   4.756   0.277
 1658TIP3   OH2 4850   4.559   5.002   0.143
 1658TIP3    H1 4851   4.649   4.972   0.158
 1658TIP3    H2 4852   4.513   4.924   0.113
 1659TIP3   OH2 4853   5.814   4.978   0.420
 1659TIP3    H1 4854   5.732   5.022   0.400
 1659TIP3    H2 4855   5.833   5.002   0.511
 1660TIP3   OH2 4856   4.470   4.596   0.690
 1660TIP3    H1 4857   4.413   4.632   0.622
 1660TIP3    H2 4858   4.422   4.608   0.771
 1661TIP3   OH2 4859   4.582   5.367   0.483
 1661TIP3    H1 4860   4.520   5.429   0.522
 1661TIP3    H2 4861   4.624   5.417   0.412
 1662TIP3   OH2 4862   5.387   4.711   0.075
 1662TIP3    H1 4863   5.396   4.652   0.149
 1662TIP3    H2 4864   5.435   4.789   0.101
 1663TIP3   OH2 4865   4.351   4.709   0.467
 1663TIP3    H1 4866   4.408   4.781   0.493
 1663TIP3    H2 4867   4.398   4.665   0.396
 1664TIP3   OH2 4868   4.407   5.560   0.576
 1664TIP3    H1 4869   4.389   5.645   0.536
 1664TIP3    H2 4870   4.333   5.544   0.635
 1665TIP3   OH2 4871   0.537   0.637   7.826
 1665TIP3    H1 4872   0.470   0.676   7.770
 1665TIP3    H2 4873   0.562   0.707   7.886
 1666TIP3   OH2 4874   5.217   5.787   0.079
 1666TIP3    H1 4875   5.136   5.751   0.114
 1666TIP3    H2 4876   5.190   5.860   0.023
 1667TIP3   OH2 4877   5.470   5.680   0.399
 1667TIP3    H1 4878   5.476   5.607   0.338
 1667TIP3    H2 4879   5.458   5.757   0.344
 1668TIP3   OH2 4880   5.669   5.308   0.268
 1668TIP3    H1 4881   5.593   5.365   0.275
 1668TIP3    H2 4882   5.690   5.306   0.175
 1669TIP3   OH2 4883   5.338   5.207   0.526
 1669TIP3    H1 4884   5.344   5.282   0.585
 1669TIP3    H2 4885   5.263   5.226   0.470
 1670TIP3   OH2 4886   4.343   5.149   0.045
 1670TIP3    H1 4887   4.303   5.094  -0.022
 1670TIP3    H2 4888   4.423   5.104   0.070
 1671TIP3   OH2 4889   4.469   5.559   0.195
 1671TIP3    H1 4890   4.446   5.532   0.107
 1671TIP3    H2 4891   4.558   5.526   0.208
 1672TIP3   OH2 4892   4.492   5.121   0.395
 1672TIP3    H1 4893   4.517   5.112   0.303
 1672TIP3    H2 4894   4.524   5.208   0.420
 1673TIP3   OH2 4895   4.972   5.755   0.183
 1673TIP3    H1 4896   4.970   5.839   0.230
 1673TIP3    H2 4897   4.969   5.689   0.252
 1674TIP3   OH2 4898   4.615   5.678   0.723
 1674TIP3    H1 4899   4.562   5.743   0.768
 1674TIP3    H2 4900   4.552   5.626   0.673
 1675TIP3   OH2 4901   4.367   5.239   0.819
 1675TIP3    H1 4902   4.380   5.323   0.862
 1675TIP3    H2 4903   4.276   5.216   0.835
 1676TIP3   OH2 4904   4.411   5.845   0.807
 1676TIP3    H1 4905   4.377   5.850   0.717
 1676TIP3    H2 4906   4.334   5.827   0.861
 1677TIP3   OH2 4907   0.940   0.367   7.862
 1677TIP3    H1 4908   0.887   0.417   7.799
 1677TIP3    H2 4909   0.880   0.301   7.895
 1678TIP3   OH2 4910   3.991   5.377   0.756
 1678TIP3    H1 4911   3.926   5.355   0.689
 1678TIP3    H2 4912   4.027   5.292   0.782
 1679TIP3   OH2 4913   3.848   5.573   0.390
 1679TIP3    H1 4914   3.943   5.568   0.378
 1679TIP3    H2 4915   3.834   5.651   0.443
 1680TIP3   OH2 4916   5.706   6.021   0.452
 1680TIP3    H1 4917   5.708   5.926   0.467
 1680TIP3    H2 4918   5.624   6.050   0.491
 1681TIP3   OH2 4919   4.817   5.807   0.578
 1681TIP3    H1 4920   4.825   5.898   0.606
 1681TIP3    H2 4921   4.747   5.771   0.633
 1682TIP3   OH2 4922   0.738   1.153   7.915
 1682TIP3    H1 4923   0.810   1.162   7.977
 1682TIP3    H2 4924   0.675   1.097   7.960
 1683TIP3   OH2 4925   5.600   5.152   0.717
 1683TIP3    H1 4926   5.515   5.170   0.678
 1683TIP3    H2 4927   5.607   5.056   0.717
 1684TIP3   OH2 4928   4.196   5.560   0.744
 1684TIP3    H1 4929   4.246   5.549   0.825
 1684TIP3    H2 4930   4.122   5.500   0.753
 1685TIP3   OH2 4931   4.589   4.404   0.531
 1685TIP3    H1 4932   4.510   4.363   0.495
 1685TIP3    H2 4933   4.557   4.475   0.585
 1686TIP3   OH2 4934   5.092   4.502   0.705
 1686TIP3    H1 4935   5.180   4.508   0.742
 1686TIP3    H2 4936   5.038   4.471   0.778
 1687TIP3   OH2 4937   5.394   4.965   0.666
 1687TIP3    H1 4938   5.328   4.924   0.722
 1687TIP3    H2 4939   5.345   5.029   0.614
 1688TIP3   OH2 4940   4.538   4.899   0.545
 1688TIP3    H1 4941   4.489   4.916   0.625
 1688TIP3    H2 4942   4.524   4.977   0.490
 1689TIP3   OH2 4943   4.411   4.783   0.054
 1689TIP3    H1 4944   4.320   4.763   0.078
 1689TIP3    H2 4945   4.421   4.747  -0.034
 1690TIP3   OH2 4946   5.073   5.149   0.869
 1690TIP3    H1 4947   5.051   5.080   0.931
 1690TIP3    H2 4948   5.164   5.172   0.889
 1691TIP3   OH2 4949   1.772   0.313   8.031
 1691TIP3    H1 4950   1.756   0.363   7.951
 1691TIP3    H2 4951   1.797   0.226   8.001
 1692TIP3   OH2 4952   4.353   4.926   0.754
 1692TIP3    H1 4953   4.368   4.996   0.817
 1692TIP3    H2 4954   4.334   4.849   0.807
 1693TIP3   OH2 4955   3.941   4.458   0.326
 1693TIP3    H1 4956   4.011   4.487   0.385
 1693TIP3    H2 4957   3.987   4.414   0.254
 1694TIP3   OH2 4958   7.178   9.055   7.855
 1694TIP3    H1 4959   7.230   9.087   7.781
 1694TIP3    H2 4960   7.127   9.131   7.883
 1695TIP3   OH2 4961   5.048   5.142   0.447
 1695TIP3    H1 4962   5.089   5.073   0.394
 1695TIP3    H2 4963   5.039   5.103   0.534
 1696TIP3   OH2 4964   4.748   4.613   0.137
 1696TIP3    H1 4965   4.664   4.588   0.177
 1696TIP3    H2 4966   4.767   4.699   0.174
 1697TIP3   OH2 4967   4.174   4.665   0.128
 1697TIP3    H1 4968   4.082   4.673   0.102
 1697TIP3    H2 4969   4.196   4.574   0.109
 1698TIP3   OH2 4970   1.178   0.047   7.805
 1698TIP3    H1 4971   1.272   0.054   7.819
 1698TIP3    H2 4972   1.160   0.106   7.732
 1699TIP3   OH2 4973   5.414   6.371   0.569
 1699TIP3    H1 4974   5.404   6.384   0.474
 1699TIP3    H2 4975   5.471   6.443   0.597
 1700TIP3   OH2 4976   4.360   5.483   0.966
 1700TIP3    H1 4977   4.439   5.515   1.009
 1700TIP3    H2 4978   4.293   5.482   1.034
 1701TIP3   OH2 4979   4.825   4.888   0.209
 1701TIP3    H1 4980   4.898   4.902   0.148
 1701TIP3    H2 4981   4.858   4.917   0.294
 1702TIP3   OH2 4982   4.347   4.423   0.098
 1702TIP3    H1 4983   4.311   4.349   0.146
 1702TIP3    H2 4984   4.406   4.383   0.034
 1703TIP3   OH2 4985   4.821   4.815   0.518
 1703TIP3    H1 4986   4.733   4.848   0.501
 1703TIP3    H2 4987   4.867   4.889   0.558
 1704TIP3   OH2 4988   5.442   5.449   0.229
 1704TIP3    H1 4989   5.430   5.524   0.171
 1704TIP3    H2 4990   5.357   5.405   0.229
 1705TIP3   OH2 4991   4.932   5.543   0.604
 1705TIP3    H1 4992   4.958   5.528   0.695
 1705TIP3    H2 4993   4.895   5.631   0.603
 1706TIP3   OH2 4994   4.218   5.235   0.281
 1706TIP3    H1 4995   4.262   5.216   0.198
 1706TIP3    H2 4996   4.266   5.183   0.346
 1707TIP3   OH2 4997   4.109   5.164   0.893
 1707TIP3    H1 4998   4.132   5.159   0.986
 1707TIP3    H2 4999   4.038   5.100   0.882
 1708TIP3   OH2 5000   4.833   5.281   0.911
 1708TIP3    H1 5001   4.773   5.220   0.866
 1708TIP3    H2 5002   4.920   5.251   0.885
 1709TIP3   OH2 5003   5.091   5.799   0.497
 1709TIP3    H1 5004   4.996   5.803   0.511
 1709TIP3    H2 5005   5.127   5.850   0.569
 1710TIP3   OH2 5006   5.717   5.733   0.492
 1710TIP3    H1 5007   5.621   5.733   0.495
 1710TIP3    H2 5008   5.739   5.704   0.403
 1711TIP3   OH2 5009   5.206   5.311   0.204
 1711TIP3    H1 5010   5.114   5.319   0.177
 1711TIP3    H2 5011   5.241   5.244   0.146
 1712TIP3   OH2 5012   1.077   0.942   7.920
 1712TIP3    H1 5013   1.088   1.032   7.890
 1712TIP3    H2 5014   1.001   0.909   7.872
 1713TIP3   OH2 5015   0.609   0.234   7.615
 1713TIP3    H1 5016   0.655   0.317   7.631
 1713TIP3    H2 5017   0.541   0.231   7.682
 1714TIP3   OH2 5018   1.216   0.704   7.873
 1714TIP3    H1 5019   1.179   0.792   7.878
 1714TIP3    H2 5020   1.165   0.653   7.936
 1715TIP3   OH2 5021   4.598   5.895   0.373
 1715TIP3    H1 5022   4.634   5.971   0.327
 1715TIP3    H2 5023   4.670   5.864   0.428
 1716TIP3   OH2 5024   4.990   5.520   0.338
 1716TIP3    H1 5025   4.976   5.525   0.433
 1716TIP3    H2 5026   5.075   5.476   0.329
 1717TIP3   OH2 5027   5.228   6.060   0.386
 1717TIP3    H1 5028   5.147   6.010   0.388
 1717TIP3    H2 5029   5.205   6.140   0.338
 1718TIP3   OH2 5030   4.319   4.669   0.905
 1718TIP3    H1 5031   4.225   4.681   0.921
 1718TIP3    H2 5032   4.350   4.615   0.977
 1719TIP3   OH2 5033   4.036   5.758   0.535
 1719TIP3    H1 5034   4.089   5.685   0.566
 1719TIP3    H2 5035   4.061   5.832   0.589
 1720TIP3   OH2 5036   0.728   0.461   7.701
 1720TIP3    H1 5037   0.674   0.518   7.757
 1720TIP3    H2 5038   0.771   0.522   7.641
 1721TIP3   OH2 5039   1.445   0.058   7.865
 1721TIP3    H1 5040   1.517   0.105   7.822
 1721TIP3    H2 5041   1.471   0.054   7.957
 1722TIP3   OH2 5042   5.008   4.966   0.667
 1722TIP3    H1 5043   4.994   5.040   0.727
 1722TIP3    H2 5044   5.079   4.916   0.706
 1723TIP3   OH2 5045   8.150   9.041   7.952
 1723TIP3    H1 5046   8.115   9.100   8.018
 1723TIP3    H2 5047   8.238   9.075   7.934
 1724TIP3   OH2 5048   7.639   9.013   7.760
 1724TIP3    H1 5049   7.637   9.104   7.789
 1724TIP3    H2 5050   7.725   8.981   7.788
 1725TIP3   OH2 5051   5.640   4.869   0.632
 1725TIP3    H1 5052   5.549   4.884   0.655
 1725TIP3    H2 5053   5.639   4.850   0.538
 1726TIP3   OH2 5054   5.292   5.093   0.064
 1726TIP3    H1 5055   5.226   5.039   0.019
 1726TIP3    H2 5056   5.366   5.034   0.076
 1727TIP3   OH2 5057   7.210   9.210   7.624
 1727TIP3    H1 5058   7.188   9.303   7.616
 1727TIP3    H2 5059   7.151   9.167   7.562
 1728TIP3   OH2 5060   4.332   4.305   0.502
 1728TIP3    H1 5061   4.300   4.272   0.418
 1728TIP3    H2 5062   4.324   4.230   0.561
 1729TIP3   OH2 5063   0.570   0.895   7.928
 1729TIP3    H1 5064   0.519   0.969   7.960
 1729TIP3    H2 5065   0.596   0.920   7.839
 1730TIP3   OH2 5066   4.027   6.065   0.957
 1730TIP3    H1 5067   4.111   6.069   1.002
 1730TIP3    H2 5068   4.006   5.971   0.954
 1731TIP3   OH2 5069   4.508   6.028   1.004
 1731TIP3    H1 5070   4.603   6.020   1.009
 1731TIP3    H2 5071   4.484   5.981   0.925
 1732TIP3   OH2 5072   5.157   5.929   0.727
 1732TIP3    H1 5073   5.143   5.867   0.799
 1732TIP3    H2 5074   5.224   5.989   0.761
 1733TIP3   OH2 5075   4.156   5.473   1.153
 1733TIP3    H1 5076   4.174   5.379   1.164
 1733TIP3    H2 5077   4.070   5.477   1.112
 1734TIP3   OH2 5078   4.766   5.558   0.927
 1734TIP3    H1 5079   4.723   5.577   0.844
 1734TIP3    H2 5080   4.795   5.467   0.919
 1735TIP3   OH2 5081   5.255   5.565   0.530
 1735TIP3    H1 5082   5.330   5.611   0.492
 1735TIP3    H2 5083   5.183   5.628   0.525
 1736TIP3   OH2 5084   4.279   5.205   1.137
 1736TIP3    H1 5085   4.349   5.140   1.123
 1736TIP3    H2 5086   4.297   5.241   1.224
 1737TIP3   OH2 5087   4.613   5.091   0.792
 1737TIP3    H1 5088   4.537   5.148   0.802
 1737TIP3    H2 5089   4.658   5.125   0.715
 1738TIP3   OH2 5090   5.125   5.488   0.932
 1738TIP3    H1 5091   5.210   5.476   0.890
 1738TIP3    H2 5092   5.125   5.426   1.005
 1739TIP3   OH2 5093   4.735   4.883   0.924
 1739TIP3    H1 5094   4.724   4.799   0.879
 1739TIP3    H2 5095   4.689   4.946   0.870
 1740TIP3   OH2 5096   4.732   4.654   0.719
 1740TIP3    H1 5097   4.731   4.734   0.667
 1740TIP3    H2 5098   4.641   4.625   0.721
 1741TIP3   OH2 5099   4.771   5.197   0.591
 1741TIP3    H1 5100   4.854   5.220   0.549
 1741TIP3    H2 5101   4.709   5.262   0.559
 1742TIP3   OH2 5102   5.347   5.168   0.985
 1742TIP3    H1 5103   5.393   5.085   0.990
 1742TIP3    H2 5104   5.412   5.231   0.954
 1743TIP3   OH2 5105   5.389   5.421   0.715
 1743TIP3    H1 5106   5.328   5.473   0.662
 1743TIP3    H2 5107   5.475   5.441   0.679
 1744TIP3   OH2 5108   4.611   4.992   1.152
 1744TIP3    H1 5109   4.541   4.930   1.171
 1744TIP3    H2 5110   4.646   4.964   1.068
 1745TIP3   OH2 5111   4.850   4.420   0.810
 1745TIP3    H1 5112   4.803   4.500   0.788
 1745TIP3    H2 5113   4.786   4.350   0.796
 1746TIP3   OH2 5114   4.992   4.935   1.018
 1746TIP3    H1 5115   4.989   4.926   1.114
 1746TIP3    H2 5116   4.904   4.913   0.989
 1747TIP3   OH2 5117   5.225   4.879   0.865
 1747TIP3    H1 5118   5.156   4.886   0.932
 1747TIP3    H2 5119   5.303   4.851   0.914
 1748TIP3   OH2 5120   5.471   4.826   1.022
 1748TIP3    H1 5121   5.477   4.732   1.039
 1748TIP3    H2 5122   5.461   4.866   1.109
 1749TIP3   OH2 5123   4.454   4.770   1.205
 1749TIP3    H1 5124   4.457   4.680   1.175
 1749TIP3    H2 5125   4.485   4.766   1.296
 1750TIP3   OH2 5126   4.967   4.439   1.054
 1750TIP3    H1 5127   5.033   4.370   1.052
 1750TIP3    H2 5128   4.918   4.428   0.973
 1751TIP3   OH2 5129   5.028   4.655   1.214
 1751TIP3    H1 5130   5.008   4.585   1.152
 1751TIP3    H2 5131   4.952   4.713   1.210
 1752TIP3   OH2 5132   0.370   1.259   7.948
 1752TIP3    H1 5133   0.309   1.197   7.909
 1752TIP3    H2 5134   0.416   1.208   8.015
 1753TIP3   OH2 5135   3.781   5.732   0.132
 1753TIP3    H1 5136   3.769   5.658   0.192
 1753TIP3    H2 5137   3.829   5.797   0.183
 1754TIP3   OH2 5138   5.561   6.132   0.219
 1754TIP3    H1 5139   5.516   6.048   0.232
 1754TIP3    H2 5140   5.629   6.133   0.285
 1755TIP3   OH2 5141   5.583   5.826   0.786
 1755TIP3    H1 5142   5.510   5.832   0.848
 1755TIP3    H2 5143   5.624   5.912   0.789
 1756TIP3   OH2 5144   5.404   5.903   0.251
 1756TIP3    H1 5145   5.351   5.957   0.310
 1756TIP3    H2 5146   5.341   5.858   0.196
 1757TIP3   OH2 5147   3.972   5.135   0.500
 1757TIP3    H1 5148   3.968   5.111   0.407
 1757TIP3    H2 5149   4.066   5.137   0.520
 1758TIP3   OH2 5150   5.631   5.488   0.610
 1758TIP3    H1 5151   5.701   5.423   0.604
 1758TIP3    H2 5152   5.661   5.560   0.556
 1759TIP3   OH2 5153   5.813   5.292   0.634
 1759TIP3    H1 5154   5.739   5.243   0.669
 1759TIP3    H2 5155   5.887   5.232   0.643
 1760TIP3   OH2 5156   5.512   4.952   0.145
 1760TIP3    H1 5157   5.592   4.983   0.103
 1760TIP3    H2 5158   5.520   4.982   0.236
 1761TIP3   OH2 5159   5.560   5.089   0.384
 1761TIP3    H1 5160   5.484   5.119   0.433
 1761TIP3    H2 5161   5.600   5.169   0.350
 1762TIP3   OH2 5162   4.187   4.819   1.170
 1762TIP3    H1 5163   4.282   4.819   1.179
 1762TIP3    H2 5164   4.159   4.740   1.216
 1763TIP3   OH2 5165   6.054   4.709   0.926
 1763TIP3    H1 5166   6.064   4.619   0.894
 1763TIP3    H2 5167   5.998   4.752   0.862
 1764TIP3   OH2 5168   4.148   4.512   0.501
 1764TIP3    H1 5169   4.207   4.439   0.517
 1764TIP3    H2 5170   4.205   4.589   0.502
 1765TIP3   OH2 5171   3.950   4.789   0.580
 1765TIP3    H1 5172   3.999   4.789   0.498
 1765TIP3    H2 5173   3.971   4.873   0.621
 1766TIP3   OH2 5174   5.884   4.819   0.749
 1766TIP3    H1 5175   5.807   4.870   0.775
 1766TIP3    H2 5176   5.851   4.758   0.683
 1767TIP3   OH2 5177   3.931   4.288   0.081
 1767TIP3    H1 5178   3.842   4.287   0.115
 1767TIP3    H2 5179   3.928   4.347   0.006
 1768TIP3   OH2 5180   4.149   4.371   0.895
 1768TIP3    H1 5181   4.105   4.365   0.980
 1768TIP3    H2 5182   4.084   4.410   0.837
 1769TIP3   OH2 5183   4.190   5.796   0.975
 1769TIP3    H1 5184   4.099   5.771   0.959
 1769TIP3    H2 5185   4.203   5.782   1.069
 1770TIP3   OH2 5186   4.370   5.831   0.517
 1770TIP3    H1 5187   4.321   5.906   0.484
 1770TIP3    H2 5188   4.457   5.841   0.478
 1771TIP3   OH2 5189   4.835   6.067   0.654
 1771TIP3    H1 5190   4.859   6.088   0.744
 1771TIP3    H2 5191   4.881   6.131   0.600
 1772TIP3   OH2 5192   5.005   6.225   0.504
 1772TIP3    H1 5193   5.088   6.179   0.515
 1772TIP3    H2 5194   5.009   6.296   0.568
 1773TIP3   OH2 5195   5.791   4.587   0.617
 1773TIP3    H1 5196   5.700   4.591   0.589
 1773TIP3    H2 5197   5.816   4.495   0.606
 1774TIP3   OH2 5198   4.043   6.088   0.546
 1774TIP3    H1 5199   3.956   6.121   0.523
 1774TIP3    H2 5200   4.062   6.126   0.631
 1775TIP3   OH2 5201   4.281   6.064   0.401
 1775TIP3    H1 5202   4.197   6.077   0.446
 1775TIP3    H2 5203   4.267   6.100   0.314
 1776TIP3   OH2 5204   4.718   6.103   0.201
 1776TIP3    H1 5205   4.640   6.115   0.146
 1776TIP3    H2 5206   4.727   6.186   0.248
 1777TIP3   OH2 5207   4.984   6.038   0.232
 1777TIP3    H1 5208   4.889   6.047   0.231
 1777TIP3    H2 5209   5.017   6.119   0.194
 1778TIP3   OH2 5210   3.959   5.880   0.291
 1778TIP3    H1 5211   3.982   5.859   0.381
 1778TIP3    H2 5212   4.028   5.841   0.238
 1779TIP3   OH2 5213   4.153   5.756   0.145
 1779TIP3    H1 5214   4.166   5.672   0.190
 1779TIP3    H2 5215   4.241   5.794   0.141
 1780TIP3   OH2 5216   4.418   5.850   0.151
 1780TIP3    H1 5217   4.447   5.760   0.134
 1780TIP3    H2 5218   4.458   5.874   0.234
 1781TIP3   OH2 5219   5.518   4.376   0.142
 1781TIP3    H1 5220   5.550   4.430   0.070
 1781TIP3    H2 5221   5.425   4.398   0.148
 1782TIP3   OH2 5222   8.900   9.077   7.904
 1782TIP3    H1 5223   8.990   9.048   7.922
 1782TIP3    H2 5224   8.905   9.172   7.901
 1783TIP3   OH2 5225   4.241   4.212   0.252
 1783TIP3    H1 5226   4.151   4.181   0.257
 1783TIP3    H2 5227   4.294   4.132   0.251
 1784TIP3   OH2 5228   7.273   8.708   7.895
 1784TIP3    H1 5229   7.320   8.764   7.833
 1784TIP3    H2 5230   7.259   8.764   7.972
 1785TIP3   OH2 5231   4.672   4.247   0.135
 1785TIP3    H1 5232   4.746   4.287   0.090
 1785TIP3    H2 5233   4.685   4.272   0.227
 1786TIP3   OH2 5234   5.246   4.390   0.111
 1786TIP3    H1 5235   5.238   4.346   0.027
 1786TIP3    H2 5236   5.216   4.325   0.175
 1787TIP3   OH2 5237   7.409   8.879   7.685
 1787TIP3    H1 5238   7.450   8.797   7.658
 1787TIP3    H2 5239   7.482   8.935   7.712
 1788TIP3   OH2 5240   7.899   9.025   7.827
 1788TIP3    H1 5241   7.973   8.982   7.870
 1788TIP3    H2 5242   7.924   9.117   7.821
 1789TIP3   OH2 5243   4.454   4.494   1.143
 1789TIP3    H1 5244   4.413   4.428   1.199
 1789TIP3    H2 5245   4.545   4.496   1.171
 1790TIP3   OH2 5246   4.701   4.488   1.263
 1790TIP3    H1 5247   4.787   4.463   1.228
 1790TIP3    H2 5248   4.683   4.423   1.331
 1791TIP3   OH2 5249   5.525   4.552   1.054
 1791TIP3    H1 5250   5.539   4.523   1.144
 1791TIP3    H2 5251   5.610   4.543   1.012
 1792TIP3   OH2 5252   5.464   6.106   0.543
 1792TIP3    H1 5253   5.381   6.078   0.504
 1792TIP3    H2 5254   5.454   6.200   0.554
 1793TIP3   OH2 5255   6.247   4.847   0.166
 1793TIP3    H1 5256   6.284   4.923   0.122
 1793TIP3    H2 5257   6.199   4.884   0.241
 1794TIP3   OH2 5258   6.174   5.482   0.328
 1794TIP3    H1 5259   6.187   5.572   0.357
 1794TIP3    H2 5260   6.079   5.474   0.319
 1795TIP3   OH2 5261   5.765   5.631   0.250
 1795TIP3    H1 5262   5.768   5.629   0.154
 1795TIP3    H2 5263   5.811   5.551   0.277
 1796TIP3   OH2 5264   6.018   5.752   0.254
 1796TIP3    H1 5265   6.075   5.758   0.331
 1796TIP3    H2 5266   5.937   5.713   0.287
 1797TIP3   OH2 5267   6.916   4.762   0.225
 1797TIP3    H1 5268   6.994   4.756   0.280
 1797TIP3    H2 5269   6.843   4.760   0.286
 1798TIP3   OH2 5270   6.876   5.410   0.413
 1798TIP3    H1 5271   6.871   5.317   0.435
 1798TIP3    H2 5272   6.966   5.424   0.383
 1799TIP3   OH2 5273   6.104   5.185   0.254
 1799TIP3    H1 5274   6.162   5.260   0.271
 1799TIP3    H2 5275   6.136   5.116   0.313
 1800TIP3   OH2 5276   6.167   5.731   0.483
 1800TIP3    H1 5277   6.243   5.768   0.529
 1800TIP3    H2 5278   6.094   5.744   0.543
 1801TIP3   OH2 5279   5.901   5.435   0.385
 1801TIP3    H1 5280   5.935   5.423   0.473
 1801TIP3    H2 5281   5.839   5.363   0.373
 1802TIP3   OH2 5282   6.622   5.500   0.438
 1802TIP3    H1 5283   6.573   5.494   0.356
 1802TIP3    H2 5284   6.712   5.477   0.413
 1803TIP3   OH2 5285   6.109   4.932   0.392
 1803TIP3    H1 5286   6.019   4.965   0.392
 1803TIP3    H2 5287   6.105   4.853   0.446
 1804TIP3   OH2 5288   9.348   9.160   7.990
 1804TIP3    H1 5289   9.348   9.114   7.906
 1804TIP3    H2 5290   9.362   9.091   8.055
 1805TIP3   OH2 5291   5.821   6.295   0.434
 1805TIP3    H1 5292   5.902   6.313   0.481
 1805TIP3    H2 5293   5.797   6.207   0.461
 1806TIP3   OH2 5294   6.331   6.283   0.476
 1806TIP3    H1 5295   6.396   6.219   0.504
 1806TIP3    H2 5296   6.317   6.264   0.383
 1807TIP3   OH2 5297   5.948   5.725   0.649
 1807TIP3    H1 5298   5.966   5.631   0.646
 1807TIP3    H2 5299   5.864   5.735   0.604
 1808TIP3   OH2 5300   6.554   5.765   0.464
 1808TIP3    H1 5301   6.517   5.779   0.377
 1808TIP3    H2 5302   6.582   5.673   0.464
 1809TIP3   OH2 5303   6.067   5.458   0.627
 1809TIP3    H1 5304   6.148   5.428   0.588
 1809TIP3    H2 5305   6.093   5.494   0.712
 1810TIP3   OH2 5306   6.393   5.333   0.274
 1810TIP3    H1 5307   6.322   5.389   0.306
 1810TIP3    H2 5308   6.436   5.384   0.205
 1811TIP3   OH2 5309   6.973   5.698   0.422
 1811TIP3    H1 5310   7.036   5.769   0.432
 1811TIP3    H2 5311   6.960   5.663   0.511
 1812TIP3   OH2 5312   6.514   5.143   0.428
 1812TIP3    H1 5313   6.523   5.062   0.377
 1812TIP3    H2 5314   6.481   5.208   0.365
 1813TIP3   OH2 5315   6.517   4.914   0.268
 1813TIP3    H1 5316   6.551   4.964   0.194
 1813TIP3    H2 5317   6.426   4.896   0.246
 1814TIP3   OH2 5318   7.165   5.433   0.492
 1814TIP3    H1 5319   7.190   5.340   0.494
 1814TIP3    H2 5320   7.208   5.467   0.414
 1815TIP3   OH2 5321   6.401   5.253   0.651
 1815TIP3    H1 5322   6.315   5.211   0.644
 1815TIP3    H2 5323   6.444   5.235   0.568
 1816TIP3   OH2 5324   6.646   4.677   0.284
 1816TIP3    H1 5325   6.608   4.764   0.298
 1816TIP3    H2 5326   6.570   4.618   0.284
 1817TIP3   OH2 5327   6.793   5.163   0.500
 1817TIP3    H1 5328   6.796   5.167   0.595
 1817TIP3    H2 5329   6.699   5.162   0.479
 1818TIP3   OH2 5330   7.023   5.113   0.355
 1818TIP3    H1 5331   6.945   5.128   0.409
 1818TIP3    H2 5332   7.094   5.102   0.417
 1819TIP3   OH2 5333   7.283   5.087   0.536
 1819TIP3    H1 5334   7.276   4.993   0.519
 1819TIP3    H2 5335   7.230   5.102   0.614
 1820TIP3   OH2 5336   6.242   5.010   0.688
 1820TIP3    H1 5337   6.312   4.997   0.625
 1820TIP3    H2 5338   6.287   5.019   0.772
 1821TIP3   OH2 5339   6.769   4.686   0.525
 1821TIP3    H1 5340   6.834   4.617   0.533
 1821TIP3    H2 5341   6.724   4.668   0.443
 1822TIP3   OH2 5342   6.755   4.871   0.729
 1822TIP3    H1 5343   6.770   4.822   0.648
 1822TIP3    H2 5344   6.754   4.963   0.701
 1823TIP3   OH2 5345   5.975   5.072   0.664
 1823TIP3    H1 5346   6.070   5.065   0.662
 1823TIP3    H2 5347   5.945   4.993   0.710
 1824TIP3   OH2 5348   5.945   4.807   0.048
 1824TIP3    H1 5349   6.011   4.748   0.085
 1824TIP3    H2 5350   5.994   4.886   0.024
 1825TIP3   OH2 5351   5.758   5.050   0.058
 1825TIP3    H1 5352   5.831   4.990   0.045
 1825TIP3    H2 5353   5.799   5.135   0.075
 1826TIP3   OH2 5354   5.951   4.632   0.391
 1826TIP3    H1 5355   5.900   4.622   0.471
 1826TIP3    H2 5356   5.890   4.669   0.328
 1827TIP3   OH2 5357   5.983   6.019   0.460
 1827TIP3    H1 5358   5.888   6.015   0.455
 1827TIP3    H2 5359   6.001   6.043   0.551
 1828TIP3   OH2 5360   7.307   4.792   0.544
 1828TIP3    H1 5361   7.332   4.776   0.635
 1828TIP3    H2 5362   7.389   4.810   0.499
 1829TIP3   OH2 5363   9.570   5.870   2.231
 1829TIP3    H1 5364   9.542   5.779   2.234
 1829TIP3    H2 5365   9.518   5.913   2.298
 1830TIP3   OH2 5366   0.269   5.733   2.109
 1830TIP3    H1 5367   0.325   5.665   2.073
 1830TIP3    H2 5368   0.246   5.787   2.034
 1831TIP3   OH2 5369   0.129   5.878   1.926
 1831TIP3    H1 5370   0.066   5.914   1.988
 1831TIP3    H2 5371   0.089   5.797   1.895
 1832TIP3   OH2 5372   0.043   5.631   1.826
 1832TIP3    H1 5373  -0.006   5.641   1.745
 1832TIP3    H2 5374   0.085   5.545   1.819
 1833TIP3   OH2 5375   9.565   5.591   2.239
 1833TIP3    H1 5376   9.587   5.562   2.328
 1833TIP3    H2 5377   9.650   5.595   2.194
 1834TIP3   OH2 5378   1.794   6.067   0.915
 1834TIP3    H1 5379   1.822   6.146   0.962
 1834TIP3    H2 5380   1.809   6.087   0.823
 1835TIP3   OH2 5381   1.145   6.238   0.967
 1835TIP3    H1 5382   1.186   6.155   0.990
 1835TIP3    H2 5383   1.193   6.269   0.890
 1836TIP3   OH2 5384   1.861   6.275   1.087
 1836TIP3    H1 5385   1.780   6.322   1.066
 1836TIP3    H2 5386   1.883   6.303   1.176
 1837TIP3   OH2 5387   0.538   5.888   1.375
 1837TIP3    H1 5388   0.468   5.867   1.312
 1837TIP3    H2 5389   0.491   5.907   1.456
 1838TIP3   OH2 5390   1.424   6.008   0.711
 1838TIP3    H1 5391   1.426   5.945   0.783
 1838TIP3    H2 5392   1.486   6.076   0.737
 1839TIP3   OH2 5393   1.581   5.972   1.078
 1839TIP3    H1 5394   1.495   5.999   1.046
 1839TIP3    H2 5395   1.642   6.000   1.010
 1840TIP3   OH2 5396   0.893   5.627   1.098
 1840TIP3    H1 5397   0.874   5.561   1.031
 1840TIP3    H2 5398   0.807   5.659   1.125
 1841TIP3   OH2 5399   1.511   6.986   1.066
 1841TIP3    H1 5400   1.514   6.919   0.998
 1841TIP3    H2 5401   1.474   7.063   1.023
 1842TIP3   OH2 5402   1.709   6.616   0.902
 1842TIP3    H1 5403   1.633   6.673   0.911
 1842TIP3    H2 5404   1.745   6.636   0.816
 1843TIP3   OH2 5405   1.386   6.499   1.204
 1843TIP3    H1 5406   1.396   6.571   1.267
 1843TIP3    H2 5407   1.324   6.533   1.139
 1844TIP3   OH2 5408   1.766   7.320   1.123
 1844TIP3    H1 5409   1.757   7.225   1.128
 1844TIP3    H2 5410   1.680   7.354   1.150
 1845TIP3   OH2 5411   1.646   6.453   1.383
 1845TIP3    H1 5412   1.568   6.467   1.329
 1845TIP3    H2 5413   1.665   6.359   1.375
 1846TIP3   OH2 5414   0.630   5.690   1.188
 1846TIP3    H1 5415   0.554   5.651   1.146
 1846TIP3    H2 5416   0.602   5.778   1.212
 1847TIP3   OH2 5417   1.175   5.809   1.389
 1847TIP3    H1 5418   1.243   5.778   1.448
 1847TIP3    H2 5419   1.093   5.781   1.431
 1848TIP3   OH2 5420   1.406   6.230   1.300
 1848TIP3    H1 5421   1.365   6.225   1.386
 1848TIP3    H2 5422   1.392   6.320   1.271
 1849TIP3   OH2 5423   1.126   6.456   1.546
 1849TIP3    H1 5424   1.105   6.385   1.607
 1849TIP3    H2 5425   1.218   6.478   1.565
 1850TIP3   OH2 5426   1.088   6.446   1.126
 1850TIP3    H1 5427   1.116   6.381   1.061
 1850TIP3    H2 5428   1.146   6.434   1.200
 1851TIP3   OH2 5429   1.267   5.989   0.996
 1851TIP3    H1 5430   1.234   5.996   1.086
 1851TIP3    H2 5431   1.210   5.923   0.956
 1852TIP3   OH2 5432   0.831   6.191   1.186
 1852TIP3    H1 5433   0.748   6.153   1.157
 1852TIP3    H2 5434   0.872   6.123   1.238
 1853TIP3   OH2 5435   1.484   6.776   0.881
 1853TIP3    H1 5436   1.509   6.814   0.797
 1853TIP3    H2 5437   1.418   6.710   0.859
 1854TIP3   OH2 5438   0.884   6.583   1.574
 1854TIP3    H1 5439   0.835   6.515   1.528
 1854TIP3    H2 5440   0.976   6.561   1.558
 1855TIP3   OH2 5441   1.765   7.024   1.146
 1855TIP3    H1 5442   1.669   7.028   1.143
 1855TIP3    H2 5443   1.791   6.999   1.058
 1856TIP3   OH2 5444   0.411   5.942   1.604
 1856TIP3    H1 5445   0.316   5.932   1.597
 1856TIP3    H2 5446   0.437   5.880   1.672
 1857TIP3   OH2 5447   1.185   6.051   1.258
 1857TIP3    H1 5448   1.272   6.083   1.278
 1857TIP3    H2 5449   1.179   5.967   1.304
 1858TIP3   OH2 5450   1.041   6.293   1.347
 1858TIP3    H1 5451   1.075   6.339   1.423
 1858TIP3    H2 5452   1.090   6.211   1.343
 1859TIP3   OH2 5453   1.676   6.190   1.300
 1859TIP3    H1 5454   1.581   6.184   1.306
 1859TIP3    H2 5455   1.697   6.149   1.216
 1860TIP3   OH2 5456   1.316   6.315   0.765
 1860TIP3    H1 5457   1.327   6.349   0.676
 1860TIP3    H2 5458   1.405   6.291   0.792
 1861TIP3   OH2 5459   1.210   7.251   1.406
 1861TIP3    H1 5460   1.186   7.182   1.468
 1861TIP3    H2 5461   1.283   7.296   1.448
 1862TIP3   OH2 5462   0.816   6.855   1.598
 1862TIP3    H1 5463   0.753   6.849   1.526
 1862TIP3    H2 5464   0.860   6.770   1.598
 1863TIP3   OH2 5465   1.305   6.873   1.203
 1863TIP3    H1 5466   1.383   6.918   1.170
 1863TIP3    H2 5467   1.255   6.942   1.248
 1864TIP3   OH2 5468   0.385   6.621   1.843
 1864TIP3    H1 5469   0.331   6.547   1.814
 1864TIP3    H2 5470   0.445   6.582   1.907
 1865TIP3   OH2 5471   1.168   6.780   1.600
 1865TIP3    H1 5472   1.257   6.785   1.565
 1865TIP3    H2 5473   1.174   6.720   1.675
 1866TIP3   OH2 5474   0.777   6.174   1.584
 1866TIP3    H1 5475   0.796   6.086   1.553
 1866TIP3    H2 5476   0.727   6.214   1.512
 1867TIP3   OH2 5477   0.790   5.973   1.376
 1867TIP3    H1 5478   0.813   5.932   1.292
 1867TIP3    H2 5479   0.698   5.950   1.388
 1868TIP3   OH2 5480   1.393   6.471   1.649
 1868TIP3    H1 5481   1.438   6.387   1.663
 1868TIP3    H2 5482   1.461   6.530   1.618
 1869TIP3   OH2 5483   1.437   6.713   1.376
 1869TIP3    H1 5484   1.378   6.769   1.325
 1869TIP3    H2 5485   1.524   6.736   1.343
 1870TIP3   OH2 5486   0.661   6.295   1.811
 1870TIP3    H1 5487   0.587   6.239   1.835
 1870TIP3    H2 5488   0.698   6.255   1.732
 1871TIP3   OH2 5489   0.913   5.733   1.462
 1871TIP3    H1 5490   0.863   5.812   1.443
 1871TIP3    H2 5491   0.850   5.661   1.447
 1872TIP3   OH2 5492   1.038   6.239   1.684
 1872TIP3    H1 5493   1.039   6.228   1.779
 1872TIP3    H2 5494   0.950   6.212   1.658
 1873TIP3   OH2 5495   1.280   6.187   1.536
 1873TIP3    H1 5496   1.206   6.184   1.597
 1873TIP3    H2 5497   1.354   6.156   1.587
 1874TIP3   OH2 5498   1.503   6.123   1.684
 1874TIP3    H1 5499   1.519   6.030   1.701
 1874TIP3    H2 5500   1.502   6.163   1.771
 1875TIP3   OH2 5501   0.504   6.075   1.878
 1875TIP3    H1 5502   0.508   5.989   1.837
 1875TIP3    H2 5503   0.541   6.061   1.966
 1876TIP3   OH2 5504   1.010   5.740   1.717
 1876TIP3    H1 5505   1.077   5.673   1.717
 1876TIP3    H2 5506   0.969   5.733   1.631
 1877TIP3   OH2 5507   1.073   5.956   1.877
 1877TIP3    H1 5508   1.054   5.885   1.816
 1877TIP3    H2 5509   0.996   6.013   1.873
 1878TIP3   OH2 5510   1.626   7.127   1.449
 1878TIP3    H1 5511   1.556   7.134   1.513
 1878TIP3    H2 5512   1.669   7.212   1.450
 1879TIP3   OH2 5513   1.676   6.788   1.273
 1879TIP3    H1 5514   1.747   6.724   1.267
 1879TIP3    H2 5515   1.705   6.861   1.219
 1880TIP3   OH2 5516   1.859   6.592   1.297
 1880TIP3    H1 5517   1.786   6.544   1.337
 1880TIP3    H2 5518   1.935   6.534   1.308
 1881TIP3   OH2 5519   1.571   6.243   0.817
 1881TIP3    H1 5520   1.650   6.272   0.769
 1881TIP3    H2 5521   1.582   6.280   0.905
 1882TIP3   OH2 5522   1.613   6.398   1.042
 1882TIP3    H1 5523   1.537   6.432   1.090
 1882TIP3    H2 5524   1.647   6.474   0.994
 1883TIP3   OH2 5525   0.245   6.114   1.811
 1883TIP3    H1 5526   0.339   6.108   1.828
 1883TIP3    H2 5527   0.206   6.049   1.870
 1884TIP3   OH2 5528   2.062   5.987   1.596
 1884TIP3    H1 5529   2.121   5.922   1.558
 1884TIP3    H2 5530   2.037   6.043   1.523
 1885TIP3   OH2 5531   1.502   5.812   0.347
 1885TIP3    H1 5532   1.545   5.817   0.432
 1885TIP3    H2 5533   1.432   5.748   0.359
 1886TIP3   OH2 5534   1.934   6.130   1.403
 1886TIP3    H1 5535   1.850   6.169   1.428
 1886TIP3    H2 5536   1.909   6.056   1.346
 1887TIP3   OH2 5537   0.220   5.724   1.573
 1887TIP3    H1 5538   0.191   5.659   1.638
 1887TIP3    H2 5539   0.158   5.715   1.501
 1888TIP3   OH2 5540   1.833   5.889   1.281
 1888TIP3    H1 5541   1.743   5.883   1.249
 1888TIP3    H2 5542   1.867   5.800   1.272
 1889TIP3   OH2 5543   1.073   5.809   0.928
 1889TIP3    H1 5544   0.996   5.765   0.964
 1889TIP3    H2 5545   1.097   5.758   0.852
 1890TIP3   OH2 5546   1.567   5.700   0.812
 1890TIP3    H1 5547   1.601   5.747   0.736
 1890TIP3    H2 5548   1.472   5.703   0.801
 1891TIP3   OH2 5549   1.660   5.797   0.570
 1891TIP3    H1 5550   1.730   5.742   0.534
 1891TIP3    H2 5551   1.691   5.886   0.557
 1892TIP3   OH2 5552   1.294   5.683   0.771
 1892TIP3    H1 5553   1.292   5.636   0.688
 1892TIP3    H2 5554   1.267   5.618   0.836
 1893TIP3   OH2 5555   0.497   5.788   1.814
 1893TIP3    H1 5556   0.461   5.719   1.870
 1893TIP3    H2 5557   0.590   5.793   1.838
 1894TIP3   OH2 5558   0.745   5.792   1.927
 1894TIP3    H1 5559   0.829   5.766   1.888
 1894TIP3    H2 5560   0.729   5.726   1.995
 1895TIP3   OH2 5561   1.571   5.854   1.716
 1895TIP3    H1 5562   1.587   5.823   1.805
 1895TIP3    H2 5563   1.656   5.850   1.673
 1896TIP3   OH2 5564   1.512   7.408   1.206
 1896TIP3    H1 5565   1.441   7.356   1.168
 1896TIP3    H2 5566   1.481   7.499   1.201
 1897TIP3   OH2 5567   9.293   2.163   8.015
 1897TIP3    H1 5568   9.273   2.256   8.003
 1897TIP3    H2 5569   9.226   2.118   7.964
 1898TIP3   OH2 5570   2.772   6.781   0.357
 1898TIP3    H1 5571   2.803   6.749   0.442
 1898TIP3    H2 5572   2.733   6.705   0.315
 1899TIP3   OH2 5573   2.093   6.666   0.720
 1899TIP3    H1 5574   2.118   6.600   0.786
 1899TIP3    H2 5575   2.163   6.731   0.723
 1900TIP3   OH2 5576   3.032   7.062   0.037
 1900TIP3    H1 5577   3.008   7.002   0.108
 1900TIP3    H2 5578   3.049   7.145   0.081
 1901TIP3   OH2 5579   2.047   7.057   0.482
 1901TIP3    H1 5580   2.074   6.967   0.497
 1901TIP3    H2 5581   2.125   7.101   0.449
 1902TIP3   OH2 5582   1.840   6.597   0.414
 1902TIP3    H1 5583   1.874   6.515   0.448
 1902TIP3    H2 5584   1.868   6.598   0.322
 1903TIP3   OH2 5585   2.697   7.538   0.045
 1903TIP3    H1 5586   2.728   7.448   0.034
 1903TIP3    H2 5587   2.661   7.539   0.134
 1904TIP3   OH2 5588   2.582   7.003   0.403
 1904TIP3    H1 5589   2.614   6.926   0.357
 1904TIP3    H2 5590   2.661   7.050   0.429
 1905TIP3   OH2 5591   3.583   6.329   0.401
 1905TIP3    H1 5592   3.611   6.406   0.450
 1905TIP3    H2 5593   3.610   6.347   0.311
 1906TIP3   OH2 5594   2.978   6.501   0.439
 1906TIP3    H1 5595   3.024   6.420   0.461
 1906TIP3    H2 5596   2.950   6.490   0.349
 1907TIP3   OH2 5597   2.320   6.166   0.400
 1907TIP3    H1 5598   2.304   6.239   0.341
 1907TIP3    H2 5599   2.277   6.092   0.358
 1908TIP3   OH2 5600   3.016   6.254   0.029
 1908TIP3    H1 5601   3.088   6.237   0.090
 1908TIP3    H2 5602   3.059   6.289  -0.050
 1909TIP3   OH2 5603   1.959   6.362   0.500
 1909TIP3    H1 5604   2.036   6.351   0.555
 1909TIP3    H2 5605   1.977   6.311   0.422
 1910TIP3   OH2 5606   2.407   6.560   0.301
 1910TIP3    H1 5607   2.498   6.536   0.315
 1910TIP3    H2 5608   2.366   6.480   0.267
 1911TIP3   OH2 5609   3.655   6.533   0.573
 1911TIP3    H1 5610   3.573   6.579   0.553
 1911TIP3    H2 5611   3.677   6.560   0.662
 1912TIP3   OH2 5612   2.316   6.149   0.835
 1912TIP3    H1 5613   2.260   6.187   0.767
 1912TIP3    H2 5614   2.269   6.165   0.917
 1913TIP3   OH2 5615   9.207   2.397   7.903
 1913TIP3    H1 5616   9.218   2.350   7.821
 1913TIP3    H2 5617   9.139   2.462   7.885
 1914TIP3   OH2 5618   2.426   6.926   0.632
 1914TIP3    H1 5619   2.362   6.987   0.669
 1914TIP3    H2 5620   2.464   6.974   0.558
 1915TIP3   OH2 5621   3.231   6.259   0.197
 1915TIP3    H1 5622   3.215   6.212   0.280
 1915TIP3    H2 5623   3.280   6.337   0.223
 1916TIP3   OH2 5624   2.191   6.266   0.620
 1916TIP3    H1 5625   2.248   6.338   0.646
 1916TIP3    H2 5626   2.237   6.223   0.548
 1917TIP3   OH2 5627   2.251   7.116   0.732
 1917TIP3    H1 5628   2.229   7.196   0.684
 1917TIP3    H2 5629   2.175   7.100   0.788
 1918TIP3   OH2 5630   3.086   7.327   0.201
 1918TIP3    H1 5631   3.002   7.307   0.243
 1918TIP3    H2 5632   3.076   7.417   0.170
 1919TIP3   OH2 5633   3.377   6.225   0.565
 1919TIP3    H1 5634   3.291   6.255   0.537
 1919TIP3    H2 5635   3.436   6.257   0.497
 1920TIP3   OH2 5636   2.673   5.868   0.549
 1920TIP3    H1 5637   2.664   5.774   0.566
 1920TIP3    H2 5638   2.599   5.908   0.594
 1921TIP3   OH2 5639   3.312   7.236   0.547
 1921TIP3    H1 5640   3.302   7.159   0.491
 1921TIP3    H2 5641   3.297   7.310   0.488
 1922TIP3   OH2 5642   9.143   2.012   7.816
 1922TIP3    H1 5643   9.052   2.040   7.815
 1922TIP3    H2 5644   9.167   2.002   7.724
 1923TIP3   OH2 5645   3.505   6.873   0.389
 1923TIP3    H1 5646   3.425   6.924   0.399
 1923TIP3    H2 5647   3.537   6.895   0.302
 1924TIP3   OH2 5648   9.451   2.034   7.836
 1924TIP3    H1 5649   9.423   2.075   7.918
 1924TIP3    H2 5650   9.547   2.038   7.840
 1925TIP3   OH2 5651   3.186   6.755   0.688
 1925TIP3    H1 5652   3.187   6.836   0.739
 1925TIP3    H2 5653   3.102   6.756   0.642
 1926TIP3   OH2 5654   2.194   6.701   0.211
 1926TIP3    H1 5655   2.169   6.658   0.130
 1926TIP3    H2 5656   2.276   6.659   0.236
 1927TIP3   OH2 5657   2.312   7.083   0.377
 1927TIP3    H1 5658   2.298   7.097   0.283
 1927TIP3    H2 5659   2.405   7.066   0.385
 1928TIP3   OH2 5660   2.339   6.678   0.548
 1928TIP3    H1 5661   2.366   6.661   0.458
 1928TIP3    H2 5662   2.370   6.767   0.566
 1929TIP3   OH2 5663   2.847   7.319   0.321
 1929TIP3    H1 5664   2.836   7.398   0.374
 1929TIP3    H2 5665   2.834   7.247   0.384
 1930TIP3   OH2 5666   2.456   7.240   0.871
 1930TIP3    H1 5667   2.400   7.302   0.918
 1930TIP3    H2 5668   2.395   7.186   0.822
 1931TIP3   OH2 5669   2.211   6.798   0.972
 1931TIP3    H1 5670   2.220   6.883   1.015
 1931TIP3    H2 5671   2.118   6.776   0.981
 1932TIP3   OH2 5672   2.252   7.408   0.959
 1932TIP3    H1 5673   2.219   7.406   0.869
 1932TIP3    H2 5674   2.177   7.385   1.013
 1933TIP3   OH2 5675   1.832   6.927   0.901
 1933TIP3    H1 5676   1.812   6.900   0.811
 1933TIP3    H2 5677   1.874   6.850   0.940
 1934TIP3   OH2 5678   3.549   7.579   0.594
 1934TIP3    H1 5679   3.551   7.484   0.606
 1934TIP3    H2 5680   3.468   7.607   0.639
 1935TIP3   OH2 5681   2.658   7.369   0.733
 1935TIP3    H1 5682   2.660   7.460   0.764
 1935TIP3    H2 5683   2.588   7.328   0.784
 1936TIP3   OH2 5684   3.439   6.711   0.868
 1936TIP3    H1 5685   3.360   6.726   0.816
 1936TIP3    H2 5686   3.456   6.617   0.860
 1937TIP3   OH2 5687   2.036   7.116   0.897
 1937TIP3    H1 5688   2.086   7.102   0.978
 1937TIP3    H2 5689   1.961   7.058   0.905
 1938TIP3   OH2 5690   2.433   5.945   0.677
 1938TIP3    H1 5691   2.347   5.913   0.651
 1938TIP3    H2 5692   2.415   6.027   0.723
 1939TIP3   OH2 5693   2.971   6.058   0.873
 1939TIP3    H1 5694   3.038   6.032   0.936
 1939TIP3    H2 5695   2.888   6.039   0.917
 1940TIP3   OH2 5696   3.207   6.489   0.790
 1940TIP3    H1 5697   3.161   6.485   0.874
 1940TIP3    H2 5698   3.185   6.575   0.755
 1941TIP3   OH2 5699   9.138   1.367   7.642
 1941TIP3    H1 5700   9.111   1.393   7.730
 1941TIP3    H2 5701   9.092   1.284   7.626
 1942TIP3   OH2 5702   2.367   6.458   0.699
 1942TIP3    H1 5703   2.320   6.481   0.779
 1942TIP3    H2 5704   2.358   6.536   0.643
 1943TIP3   OH2 5705   2.248   6.342   0.210
 1943TIP3    H1 5706   2.155   6.321   0.223
 1943TIP3    H2 5707   2.268   6.309   0.123
 1944TIP3   OH2 5708   9.276   1.807   7.935
 1944TIP3    H1 5709   9.224   1.882   7.906
 1944TIP3    H2 5710   9.351   1.806   7.876
 1945TIP3   OH2 5711   2.918   6.710   1.026
 1945TIP3    H1 5712   2.894   6.638   1.085
 1945TIP3    H2 5713   3.011   6.726   1.045
 1946TIP3   OH2 5714   2.900   6.457   0.176
 1946TIP3    H1 5715   2.842   6.493   0.109
 1946TIP3    H2 5716   2.935   6.377   0.136
 1947TIP3   OH2 5717   2.189   6.487   0.911
 1947TIP3    H1 5718   2.219   6.550   0.976
 1947TIP3    H2 5719   2.178   6.405   0.960
 1948TIP3   OH2 5720   8.785   1.371   7.633
 1948TIP3    H1 5721   8.798   1.349   7.725
 1948TIP3    H2 5722   8.697   1.340   7.613
 1949TIP3   OH2 5723   1.777   6.027   0.478
 1949TIP3    H1 5724   1.854   6.044   0.533
 1949TIP3    H2 5725   1.812   5.978   0.403
 1950TIP3   OH2 5726   2.910   6.704   0.601
 1950TIP3    H1 5727   2.942   6.635   0.543
 1950TIP3    H2 5728   2.881   6.657   0.679
 1951TIP3   OH2 5729   2.578   6.167   0.275
 1951TIP3    H1 5730   2.498   6.166   0.328
 1951TIP3    H2 5731   2.649   6.168   0.338
 1952TIP3   OH2 5732   2.007   6.208   0.273
 1952TIP3    H1 5733   1.917   6.176   0.265
 1952TIP3    H2 5734   2.061   6.129   0.261
 1953TIP3   OH2 5735   8.821   1.593   7.974
 1953TIP3    H1 5736   8.916   1.604   7.972
 1953TIP3    H2 5737   8.790   1.641   7.897
 1954TIP3   OH2 5738   3.070   6.242   0.474
 1954TIP3    H1 5739   3.040   6.256   0.563
 1954TIP3    H2 5740   3.006   6.183   0.435
 1955TIP3   OH2 5741   3.242   7.934   0.692
 1955TIP3    H1 5742   3.237   7.957   0.599
 1955TIP3    H2 5743   3.320   7.978   0.724
 1956TIP3   OH2 5744   2.199   7.041   1.119
 1956TIP3    H1 5745   2.279   7.072   1.161
 1956TIP3    H2 5746   2.133   7.043   1.188
 1957TIP3   OH2 5747   2.666   6.491   0.369
 1957TIP3    H1 5748   2.739   6.456   0.318
 1957TIP3    H2 5749   2.677   6.452   0.456
 1958TIP3   OH2 5750   2.180   5.987   0.246
 1958TIP3    H1 5751   2.151   5.908   0.292
 1958TIP3    H2 5752   2.226   5.955   0.169
 1959TIP3   OH2 5753   2.639   6.391   0.663
 1959TIP3    H1 5754   2.551   6.428   0.673
 1959TIP3    H2 5755   2.696   6.451   0.710
 1960TIP3   OH2 5756   3.273   7.018   0.384
 1960TIP3    H1 5757   3.299   7.064   0.304
 1960TIP3    H2 5758   3.189   6.978   0.363
 1961TIP3   OH2 5759   2.777   7.104   0.751
 1961TIP3    H1 5760   2.798   7.079   0.841
 1961TIP3    H2 5761   2.736   7.190   0.759
 1962TIP3   OH2 5762   2.094   6.791   0.450
 1962TIP3    H1 5763   2.124   6.765   0.363
 1962TIP3    H2 5764   2.131   6.724   0.509
 1963TIP3   OH2 5765   1.949   6.727   1.045
 1963TIP3    H1 5766   1.972   6.715   1.137
 1963TIP3    H2 5767   1.884   6.658   1.028
 1964TIP3   OH2 5768   2.675   6.838   1.062
 1964TIP3    H1 5769   2.615   6.782   1.011
 1964TIP3    H2 5770   2.762   6.808   1.036
 1965TIP3   OH2 5771   2.935   7.365   0.646
 1965TIP3    H1 5772   2.840   7.359   0.658
 1965TIP3    H2 5773   2.965   7.414   0.723
 1966TIP3   OH2 5774   3.562   7.289   0.635
 1966TIP3    H1 5775   3.466   7.286   0.632
 1966TIP3    H2 5776   3.590   7.260   0.548
 1967TIP3   OH2 5777   3.034   6.887   0.306
 1967TIP3    H1 5778   2.942   6.865   0.319
 1967TIP3    H2 5779   3.073   6.808   0.270
 1968TIP3   OH2 5780   2.319   6.870   0.026
 1968TIP3    H1 5781   2.300   6.964   0.022
 1968TIP3    H2 5782   2.276   6.840   0.107
 1969TIP3   OH2 5783   2.454   7.455   0.560
 1969TIP3    H1 5784   2.490   7.517   0.496
 1969TIP3    H2 5785   2.531   7.420   0.604
 1970TIP3   OH2 5786   2.832   7.089   0.484
 1970TIP3    H1 5787   2.819   7.087   0.578
 1970TIP3    H2 5788   2.909   7.033   0.468
 1971TIP3   OH2 5789   3.074   7.620   0.533
 1971TIP3    H1 5790   2.999   7.562   0.528
 1971TIP3    H2 5791   3.059   7.687   0.466
 1972TIP3   OH2 5792   2.161   6.230   1.053
 1972TIP3    H1 5793   2.066   6.235   1.065
 1972TIP3    H2 5794   2.191   6.171   1.122
 1973TIP3   OH2 5795   1.858   7.303   0.694
 1973TIP3    H1 5796   1.920   7.231   0.703
 1973TIP3    H2 5797   1.893   7.372   0.750
 1974TIP3   OH2 5798   2.998   6.294   0.732
 1974TIP3    H1 5799   3.075   6.335   0.771
 1974TIP3    H2 5800   2.983   6.216   0.785
 1975TIP3   OH2 5801   9.387   1.453   7.892
 1975TIP3    H1 5802   9.389   1.478   7.799
 1975TIP3    H2 5803   9.446   1.515   7.934
 1976TIP3   OH2 5804   2.561   6.227   0.002
 1976TIP3    H1 5805   2.627   6.290  -0.025
 1976TIP3    H2 5806   2.572   6.218   0.096
 1977TIP3   OH2 5807   2.836   6.546   0.809
 1977TIP3    H1 5808   2.855   6.600   0.886
 1977TIP3    H2 5809   2.890   6.468   0.822
 1978TIP3   OH2 5810   2.716   5.958   0.098
 1978TIP3    H1 5811   2.710   6.029   0.162
 1978TIP3    H2 5812   2.768   5.993   0.027
 1979TIP3   OH2 5813   8.769   1.331   7.916
 1979TIP3    H1 5814   8.763   1.422   7.942
 1979TIP3    H2 5815   8.862   1.311   7.920
 1980TIP3   OH2 5816   3.474   6.445   0.788
 1980TIP3    H1 5817   3.379   6.444   0.796
 1980TIP3    H2 5818   3.491   6.408   0.701
 1981TIP3   OH2 5819   3.118   6.643   0.210
 1981TIP3    H1 5820   3.045   6.580   0.208
 1981TIP3    H2 5821   3.191   6.594   0.247
 1982TIP3   OH2 5822   3.105   7.602   0.147
 1982TIP3    H1 5823   3.064   7.581   0.063
 1982TIP3    H2 5824   3.193   7.632   0.123
 1983TIP3   OH2 5825   2.170   5.862   0.653
 1983TIP3    H1 5826   2.141   5.830   0.568
 1983TIP3    H2 5827   2.162   5.787   0.712
 1984TIP3   OH2 5828   1.865   7.608   1.116
 1984TIP3    H1 5829   1.950   7.604   1.159
 1984TIP3    H2 5830   1.840   7.516   1.104
 1985TIP3   OH2 5831   2.352   7.589   1.147
 1985TIP3    H1 5832   2.445   7.569   1.157
 1985TIP3    H2 5833   2.322   7.533   1.076
 1986TIP3   OH2 5834   2.989   7.494   0.884
 1986TIP3    H1 5835   2.979   7.426   0.950
 1986TIP3    H2 5836   3.065   7.545   0.912
 1987TIP3   OH2 5837   1.996   7.028   1.305
 1987TIP3    H1 5838   2.015   6.935   1.309
 1987TIP3    H2 5839   1.911   7.034   1.261
 1988TIP3   OH2 5840   2.605   7.114   1.077
 1988TIP3    H1 5841   2.564   7.131   0.992
 1988TIP3    H2 5842   2.636   7.023   1.071
 1989TIP3   OH2 5843   3.098   7.124   0.684
 1989TIP3    H1 5844   3.173   7.167   0.641
 1989TIP3    H2 5845   3.025   7.186   0.672
 1990TIP3   OH2 5846   2.117   6.760   1.289
 1990TIP3    H1 5847   2.194   6.709   1.264
 1990TIP3    H2 5848   2.139   6.796   1.374
 1991TIP3   OH2 5849   2.450   6.650   0.946
 1991TIP3    H1 5850   2.375   6.709   0.950
 1991TIP3    H2 5851   2.501   6.681   0.871
 1992TIP3   OH2 5852   2.969   7.050   1.083
 1992TIP3    H1 5853   3.049   7.030   1.035
 1992TIP3    H2 5854   2.966   6.984   1.153
 1993TIP3   OH2 5855   2.573   6.437   1.074
 1993TIP3    H1 5856   2.575   6.358   1.021
 1993TIP3    H2 5857   2.532   6.502   1.018
 1994TIP3   OH2 5858   2.576   6.223   0.881
 1994TIP3    H1 5859   2.605   6.265   0.800
 1994TIP3    H2 5860   2.484   6.201   0.864
 1995TIP3   OH2 5861   2.606   6.762   0.755
 1995TIP3    H1 5862   2.689   6.768   0.706
 1995TIP3    H2 5863   2.549   6.826   0.713
 1996TIP3   OH2 5864   3.189   6.727   1.137
 1996TIP3    H1 5865   3.235   6.643   1.148
 1996TIP3    H2 5866   3.256   6.786   1.102
 1997TIP3   OH2 5867   3.230   6.981   0.870
 1997TIP3    H1 5868   3.170   7.031   0.814
 1997TIP3    H2 5869   3.316   6.998   0.833
 1998TIP3   OH2 5870   2.450   6.550   1.303
 1998TIP3    H1 5871   2.383   6.483   1.319
 1998TIP3    H2 5872   2.488   6.526   1.218
 1999TIP3   OH2 5873   2.708   5.987   0.946
 1999TIP3    H1 5874   2.662   6.069   0.926
 1999TIP3    H2 5875   2.641   5.920   0.937
 2000TIP3   OH2 5876   2.834   6.492   1.166
 2000TIP3    H1 5877   2.828   6.481   1.261
 2000TIP3    H2 5878   2.747   6.468   1.134
 2001TIP3   OH2 5879   3.075   6.440   1.021
 2001TIP3    H1 5880   3.001   6.443   1.081
 2001TIP3    H2 5881   3.148   6.410   1.075
 2002TIP3   OH2 5882   3.302   6.380   1.173
 2002TIP3    H1 5883   3.316   6.287   1.190
 2002TIP3    H2 5884   3.300   6.420   1.260
 2003TIP3   OH2 5885   2.292   6.329   1.359
 2003TIP3    H1 5886   2.298   6.241   1.321
 2003TIP3    H2 5887   2.328   6.320   1.447
 2004TIP3   OH2 5888   2.806   5.996   1.203
 2004TIP3    H1 5889   2.872   5.928   1.202
 2004TIP3    H2 5890   2.764   5.991   1.117
 2005TIP3   OH2 5891   2.868   6.212   1.364
 2005TIP3    H1 5892   2.849   6.142   1.302
 2005TIP3    H2 5893   2.793   6.271   1.358
 2006TIP3   OH2 5894   3.356   7.701   0.090
 2006TIP3    H1 5895   3.381   7.713   0.182
 2006TIP3    H2 5896   3.436   7.717   0.041
 2007TIP3   OH2 5897   3.377   7.703   0.367
 2007TIP3    H1 5898   3.335   7.618   0.366
 2007TIP3    H2 5899   3.457   7.690   0.418
 2008TIP3   OH2 5900   3.423   7.386   0.937
 2008TIP3    H1 5901   3.351   7.392   1.001
 2008TIP3    H2 5902   3.465   7.471   0.940
 2009TIP3   OH2 5903   3.418   7.145   0.191
 2009TIP3    H1 5904   3.470   7.082   0.142
 2009TIP3    H2 5905   3.437   7.229   0.151
 2010TIP3   OH2 5906   3.253   7.455   0.390
 2010TIP3    H1 5907   3.185   7.499   0.442
 2010TIP3    H2 5908   3.205   7.408   0.322
 2011TIP3   OH2 5909   9.714   1.993   7.951
 2011TIP3    H1 5910   9.728   1.898   7.950
 2011TIP3    H2 5911   9.701   2.014   8.043
 2012TIP3   OH2 5912   1.832   6.727   0.676
 2012TIP3    H1 5913   1.804   6.691   0.592
 2012TIP3    H2 5914   1.926   6.713   0.679
 2013TIP3   OH2 5915   3.473   7.045   0.763
 2013TIP3    H1 5916   3.542   6.980   0.755
 2013TIP3    H2 5917   3.499   7.115   0.704
 2014TIP3   OH2 5918   3.655   6.848   0.783
 2014TIP3    H1 5919   3.581   6.800   0.821
 2014TIP3    H2 5920   3.730   6.789   0.794
 2015TIP3   OH2 5921   9.710   1.714   7.832
 2015TIP3    H1 5922   9.751   1.627   7.827
 2015TIP3    H2 5923   9.773   1.772   7.789
 2016TIP3   OH2 5924   3.343   6.511   0.298
 2016TIP3    H1 5925   3.424   6.536   0.254
 2016TIP3    H2 5926   3.352   6.545   0.387
 2017TIP3   OH2 5927   3.406   6.655   0.529
 2017TIP3    H1 5928   3.330   6.687   0.578
 2017TIP3    H2 5929   3.440   6.733   0.484
 2018TIP3   OH2 5930   2.026   6.380   1.327
 2018TIP3    H1 5931   2.122   6.377   1.328
 2018TIP3    H2 5932   2.000   6.297   1.368
 2019TIP3   OH2 5933   3.859   6.244   1.084
 2019TIP3    H1 5934   3.918   6.180   1.045
 2019TIP3    H2 5935   3.832   6.300   1.011
 2020TIP3   OH2 5936   0.021   1.464   7.845
 2020TIP3    H1 5937   0.072   1.456   7.925
 2020TIP3    H2 5938  -0.041   1.391   7.849
 2021TIP3   OH2 5939   1.989   6.069   0.652
 2021TIP3    H1 5940   2.049   5.996   0.667
 2021TIP3    H2 5941   2.045   6.147   0.653
 2022TIP3   OH2 5942   1.806   6.349   0.734
 2022TIP3    H1 5943   1.850   6.344   0.648
 2022TIP3    H2 5944   1.815   6.440   0.760
 2023TIP3   OH2 5945   3.729   6.386   0.891
 2023TIP3    H1 5946   3.646   6.427   0.914
 2023TIP3    H2 5947   3.706   6.314   0.833
 2024TIP3   OH2 5948   1.760   5.885   0.232
 2024TIP3    H1 5949   1.671   5.857   0.256
 2024TIP3    H2 5950   1.760   5.881   0.137
 2025TIP3   OH2 5951   1.993   5.931   1.050
 2025TIP3    H1 5952   1.945   5.924   1.132
 2025TIP3    H2 5953   1.929   5.967   0.988
 2026TIP3   OH2 5954   2.037   7.353   1.128
 2026TIP3    H1 5955   1.946   7.331   1.109
 2026TIP3    H2 5956   2.045   7.340   1.222
 2027TIP3   OH2 5957   2.207   7.391   0.676
 2027TIP3    H1 5958   2.155   7.455   0.628
 2027TIP3    H2 5959   2.297   7.407   0.648
 2028TIP3   OH2 5960   2.660   7.635   0.812
 2028TIP3    H1 5961   2.697   7.634   0.900
 2028TIP3    H2 5962   2.724   7.683   0.759
 2029TIP3   OH2 5963   2.841   7.782   0.671
 2029TIP3    H1 5964   2.911   7.731   0.629
 2029TIP3    H2 5965   2.888   7.841   0.731
 2030TIP3   OH2 5966   3.629   6.147   0.768
 2030TIP3    H1 5967   3.539   6.144   0.736
 2030TIP3    H2 5968   3.661   6.057   0.758
 2031TIP3   OH2 5969   2.561   7.656   0.356
 2031TIP3    H1 5970   2.480   7.656   0.304
 2031TIP3    H2 5971   2.569   7.745   0.388
 2032TIP3   OH2 5972   2.823   7.592   0.400
 2032TIP3    H1 5973   2.729   7.608   0.389
 2032TIP3    H2 5974   2.865   7.671   0.367
 2033TIP3   OH2 5975   3.021   7.791   0.327
 2033TIP3    H1 5976   3.021   7.876   0.283
 2033TIP3    H2 5977   3.051   7.730   0.260
 2034TIP3   OH2 5978   2.323   7.477   0.329
 2034TIP3    H1 5979   2.331   7.403   0.270
 2034TIP3    H2 5980   2.345   7.442   0.415
 2035TIP3   OH2 5981   2.834   6.062   0.385
 2035TIP3    H1 5982   2.791   5.994   0.438
 2035TIP3    H2 5983   2.906   6.017   0.342
 2036TIP3   OH2 5984   3.352   5.939   0.295
 2036TIP3    H1 5985   3.390   5.990   0.224
 2036TIP3    H2 5986   3.259   5.961   0.294
 2037TIP3   OH2 5987   3.449   6.039   0.062
 2037TIP3    H1 5988   3.518   5.986   0.021
 2037TIP3    H2 5989   3.482   6.129   0.057
 2038TIP3   OH2 5990   2.082   5.769   0.404
 2038TIP3    H1 5991   1.992   5.737   0.405
 2038TIP3    H2 5992   2.136   5.690   0.400
 2039TIP3   OH2 5993   1.887   5.619   0.077
 2039TIP3    H1 5994   1.889   5.681   0.004
 2039TIP3    H2 5995   1.831   5.662   0.142
 2040TIP3   OH2 5996   2.528   5.805   0.286
 2040TIP3    H1 5997   2.583   5.854   0.225
 2040TIP3    H2 5998   2.549   5.841   0.372
 2041TIP3   OH2 5999   3.073   5.950   0.269
 2041TIP3    H1 6000   3.070   5.922   0.177
 2041TIP3    H2 6001   3.058   5.869   0.319
 2042TIP3   OH2 6002   9.656   1.252   7.881
 2042TIP3    H1 6003   9.601   1.270   7.804
 2042TIP3    H2 6004   9.625   1.168   7.914
 2043TIP3   OH2 6005   8.614   1.176   7.722
 2043TIP3    H1 6006   8.582   1.089   7.746
 2043TIP3    H2 6007   8.633   1.218   7.806
 2044TIP3   OH2 6008   9.041   1.354   7.918
 2044TIP3    H1 6009   9.103   1.309   7.976
 2044TIP3    H2 6010   9.056   1.447   7.935
 2045TIP3   OH2 6011   2.293   6.051   1.297
 2045TIP3    H1 6012   2.256   5.982   1.352
 2045TIP3    H2 6013   2.386   6.054   1.321
 2046TIP3   OH2 6014   2.541   6.048   1.415
 2046TIP3    H1 6015   2.625   6.025   1.375
 2046TIP3    H2 6016   2.527   5.982   1.482
 2047TIP3   OH2 6017   3.367   6.110   1.203
 2047TIP3    H1 6018   3.383   6.079   1.292
 2047TIP3    H2 6019   3.453   6.106   1.161
 2048TIP3   OH2 6020   3.302   7.665   0.695
 2048TIP3    H1 6021   3.226   7.631   0.647
 2048TIP3    H2 6022   3.287   7.760   0.699
 2049TIP3   OH2 6023   3.869   6.930   0.210
 2049TIP3    H1 6024   3.909   6.873   0.276
 2049TIP3    H2 6025   3.930   7.003   0.201
 2050TIP3   OH2 6026   0.478   1.990   7.986
 2050TIP3    H1 6027   0.561   1.987   8.033
 2050TIP3    H2 6028   0.495   1.943   7.904
 2051TIP3   OH2 6029   4.109   6.403   0.322
 2051TIP3    H1 6030   4.056   6.442   0.253
 2051TIP3    H2 6031   4.061   6.421   0.403
 2052TIP3   OH2 6032   3.992   6.516   0.093
 2052TIP3    H1 6033   4.047   6.588   0.125
 2052TIP3    H2 6034   4.028   6.496   0.006
 2053TIP3   OH2 6035   4.051   7.312   0.258
 2053TIP3    H1 6036   4.038   7.371   0.185
 2053TIP3    H2 6037   3.973   7.324   0.313
 2054TIP3   OH2 6038   4.483   6.113   0.057
 2054TIP3    H1 6039   4.452   6.025   0.079
 2054TIP3    H2 6040   4.406   6.169   0.070
 2055TIP3   OH2 6041   4.232   7.457   0.419
 2055TIP3    H1 6042   4.210   7.549   0.406
 2055TIP3    H2 6043   4.180   7.410   0.354
 2056TIP3   OH2 6044   4.005   7.049   0.463
 2056TIP3    H1 6045   4.017   7.138   0.496
 2056TIP3    H2 6046   3.912   7.032   0.474
 2057TIP3   OH2 6047   4.034   7.681   0.440
 2057TIP3    H1 6048   4.003   7.643   0.358
 2057TIP3    H2 6049   3.968   7.657   0.505
 2058TIP3   OH2 6050   3.627   7.190   0.392
 2058TIP3    H1 6051   3.566   7.164   0.324
 2058TIP3    H2 6052   3.666   7.108   0.423
 2059TIP3   OH2 6053   3.532   7.376   0.085
 2059TIP3    H1 6054   3.618   7.358   0.047
 2059TIP3    H2 6055   3.546   7.452   0.142
 2060TIP3   OH2 6056   5.269   6.998   0.364
 2060TIP3    H1 6057   5.182   7.010   0.324
 2060TIP3    H2 6058   5.286   6.905   0.357
 2061TIP3   OH2 6059   3.822   7.385   0.392
 2061TIP3    H1 6060   3.872   7.370   0.472
 2061TIP3    H2 6061   3.750   7.321   0.395
 2062TIP3   OH2 6062   4.226   6.201   0.166
 2062TIP3    H1 6063   4.140   6.168   0.142
 2062TIP3    H2 6064   4.209   6.283   0.213
 2063TIP3   OH2 6065   4.762   6.330   0.354
 2063TIP3    H1 6066   4.828   6.326   0.423
 2063TIP3    H2 6067   4.680   6.308   0.398
 2064TIP3   OH2 6068   4.974   6.708   0.275
 2064TIP3    H1 6069   4.968   6.695   0.369
 2064TIP3    H2 6070   4.935   6.795   0.261
 2065TIP3   OH2 6071   4.180   6.693   0.217
 2065TIP3    H1 6072   4.128   6.723   0.292
 2065TIP3    H2 6073   4.145   6.741   0.142
 2066TIP3   OH2 6074   4.712   6.969   0.506
 2066TIP3    H1 6075   4.686   6.900   0.566
 2066TIP3    H2 6076   4.805   6.984   0.525
 2067TIP3   OH2 6077   3.978   6.745   0.402
 2067TIP3    H1 6078   4.009   6.810   0.464
 2067TIP3    H2 6079   3.969   6.664   0.453
 2068TIP3   OH2 6080   3.604   6.251   0.002
 2068TIP3    H1 6081   3.646   6.303   0.070
 2068TIP3    H2 6082   3.676   6.207  -0.042
 2069TIP3   OH2 6083   3.990   7.299   0.601
 2069TIP3    H1 6084   4.073   7.331   0.635
 2069TIP3    H2 6085   3.931   7.299   0.677
 2070TIP3   OH2 6086   4.456   6.641   0.182
 2070TIP3    H1 6087   4.368   6.650   0.147
 2070TIP3    H2 6088   4.457   6.697   0.260
 2071TIP3   OH2 6089   4.528   7.302   0.277
 2071TIP3    H1 6090   4.557   7.289   0.367
 2071TIP3    H2 6091   4.544   7.394   0.259
 2072TIP3   OH2 6092   3.742   6.983   0.534
 2072TIP3    H1 6093   3.768   6.972   0.625
 2072TIP3    H2 6094   3.677   6.914   0.519
 2073TIP3   OH2 6095   4.471   7.092   0.552
 2073TIP3    H1 6096   4.415   7.042   0.493
 2073TIP3    H2 6097   4.560   7.063   0.531
 2074TIP3   OH2 6098   3.956   6.488   0.541
 2074TIP3    H1 6099   3.861   6.492   0.554
 2074TIP3    H2 6100   3.988   6.430   0.611
 2075TIP3   OH2 6101   3.671   7.568   0.207
 2075TIP3    H1 6102   3.739   7.512   0.243
 2075TIP3    H2 6103   3.704   7.657   0.219
 2076TIP3   OH2 6104   4.781   6.544   0.188
 2076TIP3    H1 6105   4.864   6.583   0.215
 2076TIP3    H2 6106   4.773   6.466   0.244
 2077TIP3   OH2 6107   4.662   6.791   0.300
 2077TIP3    H1 6108   4.648   6.879   0.337
 2077TIP3    H2 6109   4.710   6.745   0.369
 2078TIP3   OH2 6110   3.964   6.120   0.144
 2078TIP3    H1 6111   3.933   6.089   0.059
 2078TIP3    H2 6112   3.957   6.044   0.202
 2079TIP3   OH2 6113   3.664   7.877   0.599
 2079TIP3    H1 6114   3.749   7.879   0.643
 2079TIP3    H2 6115   3.644   7.783   0.591
 2080TIP3   OH2 6116   4.145   7.845   0.638
 2080TIP3    H1 6117   4.240   7.833   0.642
 2080TIP3    H2 6118   4.118   7.795   0.560
 2081TIP3   OH2 6119   4.779   7.721   0.358
 2081TIP3    H1 6120   4.768   7.677   0.443
 2081TIP3    H2 6121   4.851   7.783   0.373
 2082TIP3   OH2 6122   3.792   7.285   0.794
 2082TIP3    H1 6123   3.812   7.192   0.798
 2082TIP3    H2 6124   3.707   7.290   0.750
 2083TIP3   OH2 6125   4.421   7.367   0.580
 2083TIP3    H1 6126   4.361   7.390   0.509
 2083TIP3    H2 6127   4.438   7.273   0.569
 2084TIP3   OH2 6128   3.914   7.017   0.775
 2084TIP3    H1 6129   3.992   6.968   0.749
 2084TIP3    H2 6130   3.936   7.053   0.861
 2085TIP3   OH2 6131   4.236   6.898   0.438
 2085TIP3    H1 6132   4.164   6.961   0.449
 2085TIP3    H2 6133   4.292   6.938   0.371
 2086TIP3   OH2 6134   4.764   7.294   0.565
 2086TIP3    H1 6135   4.855   7.286   0.536
 2086TIP3    H2 6136   4.757   7.234   0.639
 2087TIP3   OH2 6137   4.363   6.691   0.566
 2087TIP3    H1 6138   4.364   6.609   0.516
 2087TIP3    H2 6139   4.317   6.753   0.510
 2088TIP3   OH2 6140   4.365   6.474   0.380
 2088TIP3    H1 6141   4.398   6.506   0.297
 2088TIP3    H2 6142   4.273   6.453   0.363
 2089TIP3   OH2 6143   4.415   7.018   0.274
 2089TIP3    H1 6144   4.448   6.975   0.195
 2089TIP3    H2 6145   4.415   7.111   0.252
 2090TIP3   OH2 6146   4.984   6.984   0.628
 2090TIP3    H1 6147   5.021   6.896   0.635
 2090TIP3    H2 6148   5.054   7.037   0.589
 2091TIP3   OH2 6149   5.025   7.218   0.371
 2091TIP3    H1 6150   4.954   7.227   0.308
 2091TIP3    H2 6151   5.093   7.278   0.339
 2092TIP3   OH2 6152   4.240   6.811   0.790
 2092TIP3    H1 6153   4.177   6.740   0.806
 2092TIP3    H2 6154   4.283   6.787   0.708
 2093TIP3   OH2 6155   4.508   6.245   0.430
 2093TIP3    H1 6156   4.457   6.325   0.420
 2093TIP3    H2 6157   4.442   6.175   0.427
 2094TIP3   OH2 6158   4.621   6.758   0.652
 2094TIP3    H1 6159   4.631   6.734   0.744
 2094TIP3    H2 6160   4.534   6.725   0.628
 2095TIP3   OH2 6161   4.866   6.704   0.523
 2095TIP3    H1 6162   4.786   6.707   0.575
 2095TIP3    H2 6163   4.919   6.635   0.564
 2096TIP3   OH2 6164   5.132   6.629   0.668
 2096TIP3    H1 6165   5.096   6.541   0.676
 2096TIP3    H2 6166   5.108   6.673   0.749
 2097TIP3   OH2 6167   4.088   6.585   0.846
 2097TIP3    H1 6168   4.098   6.498   0.808
 2097TIP3    H2 6169   4.124   6.576   0.935
 2098TIP3   OH2 6170   4.563   6.224   0.708
 2098TIP3    H1 6171   4.657   6.235   0.718
 2098TIP3    H2 6172   4.547   6.238   0.615
 2099TIP3   OH2 6173   5.209   7.659   0.468
 2099TIP3    H1 6174   5.134   7.673   0.526
 2099TIP3    H2 6175   5.233   7.747   0.439
 2100TIP3   OH2 6176   3.612   6.948   0.140
 2100TIP3    H1 6177   3.614   6.930   0.046
 2100TIP3    H2 6178   3.704   6.946   0.167
 2101TIP3   OH2 6179   3.822   6.635   0.813
 2101TIP3    H1 6180   3.918   6.633   0.815
 2101TIP3    H2 6181   3.796   6.554   0.856
 2102TIP3   OH2 6182   5.693   6.493   0.585
 2102TIP3    H1 6183   5.732   6.432   0.522
 2102TIP3    H2 6184   5.632   6.545   0.532
 2103TIP3   OH2 6185   3.795   6.337   0.173
 2103TIP3    H1 6186   3.852   6.260   0.174
 2103TIP3    H2 6187   3.853   6.409   0.148
 2104TIP3   OH2 6188   3.586   6.605   0.216
 2104TIP3    H1 6189   3.636   6.599   0.134
 2104TIP3    H2 6190   3.616   6.686   0.257
 2105TIP3   OH2 6191   5.506   6.630   0.454
 2105TIP3    H1 6192   5.418   6.667   0.445
 2105TIP3    H2 6193   5.541   6.630   0.365
 2106TIP3   OH2 6194   3.786   6.187   0.534
 2106TIP3    H1 6195   3.740   6.182   0.618
 2106TIP3    H2 6196   3.723   6.225   0.473
 2107TIP3   OH2 6197   3.829   7.614   0.615
 2107TIP3    H1 6198   3.740   7.585   0.595
 2107TIP3    H2 6199   3.838   7.597   0.709
 2108TIP3   OH2 6200   5.418   6.379   0.302
 2108TIP3    H1 6201   5.366   6.423   0.235
 2108TIP3    H2 6202   5.486   6.333   0.253
 2109TIP3   OH2 6203   3.662   7.896   0.163
 2109TIP3    H1 6204   3.579   7.944   0.163
 2109TIP3    H2 6205   3.711   7.933   0.236
 2110TIP3   OH2 6206   0.607   1.402   7.909
 2110TIP3    H1 6207   0.519   1.370   7.891
 2110TIP3    H2 6208   0.664   1.329   7.887
 2111TIP3   OH2 6209   4.090   6.306   0.781
 2111TIP3    H1 6210   4.054   6.238   0.838
 2111TIP3    H2 6211   4.183   6.310   0.805
 2112TIP3   OH2 6212   4.339   6.306   0.897
 2112TIP3    H1 6213   4.417   6.288   0.845
 2112TIP3    H2 6214   4.335   6.234   0.960
 2113TIP3   OH2 6215   5.169   6.340   0.686
 2113TIP3    H1 6216   5.180   6.331   0.781
 2113TIP3    H2 6217   5.257   6.358   0.653
 2114TIP3   OH2 6218   6.135   6.579   0.417
 2114TIP3    H1 6219   6.191   6.553   0.343
 2114TIP3    H2 6220   6.102   6.496   0.452
 2115TIP3   OH2 6221   1.724   7.822   1.205
 2115TIP3    H1 6222   1.772   7.740   1.193
 2115TIP3    H2 6223   1.671   7.831   1.126
 2116TIP3   OH2 6224   3.221   8.346   0.247
 2116TIP3    H1 6225   3.258   8.408   0.184
 2116TIP3    H2 6226   3.280   8.348   0.322
 2117TIP3   OH2 6227   3.040   8.053   0.232
 2117TIP3    H1 6228   2.960   8.100   0.256
 2117TIP3    H2 6229   3.030   8.036   0.138
 2118TIP3   OH2 6230   3.085   8.526   0.554
 2118TIP3    H1 6231   3.052   8.534   0.465
 2118TIP3    H2 6232   3.097   8.431   0.567
 2119TIP3   OH2 6233   2.615   7.874   0.522
 2119TIP3    H1 6234   2.683   7.843   0.582
 2119TIP3    H2 6235   2.532   7.853   0.566
 2120TIP3   OH2 6236   2.851   8.330   0.435
 2120TIP3    H1 6237   2.819   8.298   0.519
 2120TIP3    H2 6238   2.777   8.378   0.398
 2121TIP3   OH2 6239   2.600   8.560   0.748
 2121TIP3    H1 6240   2.554   8.476   0.753
 2121TIP3    H2 6241   2.692   8.537   0.738
 2122TIP3   OH2 6242   2.658   8.107   0.365
 2122TIP3    H1 6243   2.699   8.140   0.445
 2122TIP3    H2 6244   2.617   8.024   0.391
 2123TIP3   OH2 6245   3.103   8.240   0.477
 2123TIP3    H1 6246   3.009   8.255   0.473
 2123TIP3    H2 6247   3.131   8.237   0.385
 2124TIP3   OH2 6248   2.883   8.548   0.765
 2124TIP3    H1 6249   2.893   8.460   0.802
 2124TIP3    H2 6250   2.962   8.562   0.714
 2125TIP3   OH2 6251   2.340   7.815   0.586
 2125TIP3    H1 6252   2.306   7.882   0.527
 2125TIP3    H2 6253   2.279   7.742   0.576
 2126TIP3   OH2 6254   2.485   8.308   0.803
 2126TIP3    H1 6255   2.489   8.305   0.899
 2126TIP3    H2 6256   2.394   8.290   0.783
 2127TIP3   OH2 6257   2.722   8.256   0.655
 2127TIP3    H1 6258   2.641   8.261   0.705
 2127TIP3    H2 6259   2.788   8.226   0.719
 2128TIP3   OH2 6260   2.944   8.197   0.814
 2128TIP3    H1 6261   2.956   8.103   0.829
 2128TIP3    H2 6262   2.941   8.235   0.902
 2129TIP3   OH2 6263   2.034   8.195   0.992
 2129TIP3    H1 6264   1.983   8.142   0.932
 2129TIP3    H2 6265   2.014   8.160   1.079
 2130TIP3   OH2 6266   2.444   7.813   0.841
 2130TIP3    H1 6267   2.509   7.743   0.838
 2130TIP3    H2 6268   2.401   7.810   0.756
 2131TIP3   OH2 6269   2.505   8.028   1.003
 2131TIP3    H1 6270   2.488   7.957   0.941
 2131TIP3    H2 6271   2.429   8.086   0.994
 2132TIP3   OH2 6272   3.285   8.670   0.430
 2132TIP3    H1 6273   3.212   8.623   0.470
 2132TIP3    H2 6274   3.361   8.613   0.444
 2133TIP3   OH2 6275   3.033   8.581   0.293
 2133TIP3    H1 6276   2.979   8.520   0.244
 2133TIP3    H2 6277   3.090   8.621   0.228
 2134TIP3   OH2 6278   3.494   8.058   0.719
 2134TIP3    H1 6279   3.554   7.993   0.683
 2134TIP3    H2 6280   3.475   8.116   0.645
 2135TIP3   OH2 6281   3.367   8.205   0.524
 2135TIP3    H1 6282   3.277   8.231   0.547
 2135TIP3    H2 6283   3.356   8.124   0.474
 2136TIP3   OH2 6284   3.274   7.965   0.409
 2136TIP3    H1 6285   3.186   7.973   0.373
 2136TIP3    H2 6286   3.296   7.872   0.398
 2137TIP3   OH2 6287   1.986   7.757   0.912
 2137TIP3    H1 6288   1.938   7.720   0.985
 2137TIP3    H2 6289   2.050   7.816   0.952
 2138TIP3   OH2 6290   2.186   7.875   1.068
 2138TIP3    H1 6291   2.266   7.848   1.023
 2138TIP3    H2 6292   2.168   7.804   1.130
 2139TIP3   OH2 6293   3.005   7.926   0.841
 2139TIP3    H1 6294   3.021   7.894   0.930
 2139TIP3    H2 6295   3.090   7.922   0.798
 2140TIP3   OH2 6296   3.565   8.801   0.426
 2140TIP3    H1 6297   3.614   8.730   0.467
 2140TIP3    H2 6298   3.565   8.871   0.491
 2141TIP3   OH2 6299   3.843   8.635   0.392
 2141TIP3    H1 6300   3.798   8.557   0.424
 2141TIP3    H2 6301   3.923   8.602   0.352
 2142TIP3   OH2 6302   3.729   8.405   0.489
 2142TIP3    H1 6303   3.731   8.327   0.434
 2142TIP3    H2 6304   3.762   8.375   0.574
 2143TIP3   OH2 6305   4.260   8.250   0.471
 2143TIP3    H1 6306   4.229   8.239   0.381
 2143TIP3    H2 6307   4.256   8.344   0.486
 2144TIP3   OH2 6308   3.458   8.459   0.460
 2144TIP3    H1 6309   3.553   8.454   0.448
 2144TIP3    H2 6310   3.433   8.373   0.496
 2145TIP3   OH2 6311   3.407   8.005   0.162
 2145TIP3    H1 6312   3.376   7.986   0.250
 2145TIP3    H2 6313   3.351   8.077   0.132
 2146TIP3   OH2 6314   3.721   8.113   0.429
 2146TIP3    H1 6315   3.697   8.040   0.486
 2146TIP3    H2 6316   3.814   8.126   0.446
 2147TIP3   OH2 6317   3.968   8.129   0.549
 2147TIP3    H1 6318   4.049   8.123   0.498
 2147TIP3    H2 6319   3.968   8.051   0.604
 2148TIP3   OH2 6320   8.171   9.145   4.788
 2148TIP3    H1 6321   8.104   9.081   4.765
 2148TIP3    H2 6322   8.142   9.226   4.747
 2149TIP3   OH2 6323   1.855   0.256   4.851
 2149TIP3    H1 6324   1.856   0.161   4.863
 2149TIP3    H2 6325   1.775   0.285   4.894
 2150TIP3   OH2 6326   1.543   0.606   4.946
 2150TIP3    H1 6327   1.539   0.629   4.853
 2150TIP3    H2 6328   1.619   0.654   4.980
 2151TIP3   OH2 6329   8.409   9.208   4.890
 2151TIP3    H1 6330   8.314   9.202   4.889
 2151TIP3    H2 6331   8.436   9.178   4.804
 2152TIP3   OH2 6332   1.385   0.294   4.781
 2152TIP3    H1 6333   1.301   0.250   4.797
 2152TIP3    H2 6334   1.365   0.361   4.716
 2153TIP3   OH2 6335   1.362   0.147   5.106
 2153TIP3    H1 6336   1.272   0.140   5.137
 2153TIP3    H2 6337   1.400   0.217   5.159
 2154TIP3   OH2 6338   1.643   0.360   4.330
 2154TIP3    H1 6339   1.670   0.397   4.415
 2154TIP3    H2 6340   1.708   0.395   4.269
 2155TIP3   OH2 6341   1.682   0.380   4.620
 2155TIP3    H1 6342   1.643   0.294   4.609
 2155TIP3    H2 6343   1.760   0.365   4.674
 2156TIP3   OH2 6344   1.743   0.054   5.185
 2156TIP3    H1 6345   1.667   0.055   5.243
 2156TIP3    H2 6346   1.777   0.143   5.188
 2157TIP3   OH2 6347   1.553   0.128   4.649
 2157TIP3    H1 6348   1.496   0.183   4.703
 2157TIP3    H2 6349   1.498   0.104   4.574
 2158TIP3   OH2 6350   8.317   8.961   5.019
 2158TIP3    H1 6351   8.380   8.891   5.006
 2158TIP3    H2 6352   8.337   9.025   4.950
 2159TIP3   OH2 6353   8.483   8.743   5.034
 2159TIP3    H1 6354   8.423   8.678   5.072
 2159TIP3    H2 6355   8.570   8.713   5.060
 2160TIP3   OH2 6356   1.142   0.469   4.910
 2160TIP3    H1 6357   1.208   0.399   4.905
 2160TIP3    H2 6358   1.173   0.527   4.979
 2161TIP3   OH2 6359   1.347   0.463   4.567
 2161TIP3    H1 6360   1.315   0.550   4.541
 2161TIP3    H2 6361   1.367   0.420   4.484
 2162TIP3   OH2 6362   1.611   0.339   4.952
 2162TIP3    H1 6363   1.534   0.299   4.912
 2162TIP3    H2 6364   1.590   0.433   4.954
 2163TIP3   OH2 6365   9.356   8.958   3.750
 2163TIP3    H1 6366   9.421   9.027   3.740
 2163TIP3    H2 6367   9.393   8.883   3.704
 2164TIP3   OH2 6368   9.395   8.941   4.102
 2164TIP3    H1 6369   9.441   8.931   4.186
 2164TIP3    H2 6370   9.360   8.854   4.084
 2165TIP3   OH2 6371   8.704   8.835   4.450
 2165TIP3    H1 6372   8.737   8.779   4.520
 2165TIP3    H2 6373   8.776   8.895   4.431
 2166TIP3   OH2 6374   3.109  -0.002   3.792
 2166TIP3    H1 6375   3.119  -0.060   3.867
 2166TIP3    H2 6376   3.138   0.083   3.823
 2167TIP3   OH2 6377   8.708   9.257   4.232
 2167TIP3    H1 6378   8.661   9.198   4.173
 2167TIP3    H2 6379   8.797   9.260   4.197
 2168TIP3   OH2 6380   2.761   0.474   3.796
 2168TIP3    H1 6381   2.809   0.408   3.746
 2168TIP3    H2 6382   2.758   0.440   3.885
 2169TIP3   OH2 6383   9.214   9.167   4.137
 2169TIP3    H1 6384   9.256   9.086   4.109
 2169TIP3    H2 6385   9.287   9.224   4.163
 2170TIP3   OH2 6386   9.622   8.683   4.176
 2170TIP3    H1 6387   9.652   8.601   4.217
 2170TIP3    H2 6388   9.587   8.656   4.091
 2171TIP3   OH2 6389   0.470   8.685   4.329
 2171TIP3    H1 6390   0.402   8.750   4.310
 2171TIP3    H2 6391   0.507   8.712   4.413
 2172TIP3   OH2 6392   9.216   9.184   3.630
 2172TIP3    H1 6393   9.272   9.168   3.554
 2172TIP3    H2 6394   9.201   9.278   3.629
 2173TIP3   OH2 6395   9.060   9.091   4.379
 2173TIP3    H1 6396   8.997   9.150   4.420
 2173TIP3    H2 6397   9.102   9.144   4.311
 2174TIP3   OH2 6398   2.355   0.046   4.478
 2174TIP3    H1 6399   2.330   0.121   4.424
 2174TIP3    H2 6400   2.278   0.028   4.531
 2175TIP3   OH2 6401   3.185   0.255   3.945
 2175TIP3    H1 6402   3.098   0.245   3.985
 2175TIP3    H2 6403   3.181   0.339   3.900
 2176TIP3   OH2 6404   2.890   0.303   3.625
 2176TIP3    H1 6405   2.929   0.219   3.603
 2176TIP3    H2 6406   2.948   0.368   3.584
 2177TIP3   OH2 6407   3.006   0.073   3.541
 2177TIP3    H1 6408   3.034   0.012   3.473
 2177TIP3    H2 6409   3.051   0.044   3.620
 2178TIP3   OH2 6410   3.414   0.167   4.289
 2178TIP3    H1 6411   3.403   0.090   4.232
 2178TIP3    H2 6412   3.396   0.242   4.232
 2179TIP3   OH2 6413   0.340   9.044   4.136
 2179TIP3    H1 6414   0.258   9.093   4.142
 2179TIP3    H2 6415   0.371   9.062   4.047
 2180TIP3   OH2 6416   9.595   8.918   3.588
 2180TIP3    H1 6417   9.646   8.948   3.664
 2180TIP3    H2 6418   9.659   8.871   3.535
 2181TIP3   OH2 6419   9.816   8.929   4.425
 2181TIP3    H1 6420   9.818   9.009   4.478
 2181TIP3    H2 6421   9.735   8.937   4.374
 2182TIP3   OH2 6422   2.416   0.046   4.086
 2182TIP3    H1 6423   2.398  -0.001   4.005
 2182TIP3    H2 6424   2.505   0.022   4.109
 2183TIP3   OH2 6425   8.961   8.845   4.292
 2183TIP3    H1 6426   8.993   8.827   4.204
 2183TIP3    H2 6427   8.998   8.931   4.314
 2184TIP3   OH2 6428   2.946   0.250   4.068
 2184TIP3    H1 6429   2.931   0.330   4.118
 2184TIP3    H2 6430   2.931   0.180   4.132
 2185TIP3   OH2 6431   2.555   0.175   4.612
 2185TIP3    H1 6432   2.497   0.236   4.658
 2185TIP3    H2 6433   2.496   0.117   4.563
 2186TIP3   OH2 6434   8.825   8.965   4.714
 2186TIP3    H1 6435   8.834   9.049   4.759
 2186TIP3    H2 6436   8.731   8.947   4.716
 2187TIP3   OH2 6437   2.628   0.206   3.627
 2187TIP3    H1 6438   2.710   0.253   3.637
 2187TIP3    H2 6439   2.571   0.265   3.579
 2188TIP3   OH2 6440   2.350   0.343   4.702
 2188TIP3    H1 6441   2.321   0.340   4.610
 2188TIP3    H2 6442   2.273   0.316   4.752
 2189TIP3   OH2 6443   3.221   0.119   2.947
 2189TIP3    H1 6444   3.235   0.213   2.959
 2189TIP3    H2 6445   3.309   0.082   2.945
 2190TIP3   OH2 6446   8.473   9.106   4.649
 2190TIP3    H1 6447   8.424   9.090   4.568
 2190TIP3    H2 6448   8.499   9.019   4.679
 2191TIP3   OH2 6449   4.196   1.079   1.962
 2191TIP3    H1 6450   4.277   1.110   1.923
 2191TIP3    H2 6451   4.147   1.158   1.984
 2192TIP3   OH2 6452   3.651   0.512   4.338
 2192TIP3    H1 6453   3.651   0.417   4.347
 2192TIP3    H2 6454   3.570   0.540   4.380
 2193TIP3   OH2 6455   2.757   0.299   4.472
 2193TIP3    H1 6456   2.755   0.391   4.499
 2193TIP3    H2 6457   2.687   0.257   4.522
 2194TIP3   OH2 6458   2.510   0.427   3.426
 2194TIP3    H1 6459   2.446   0.411   3.356
 2194TIP3    H2 6460   2.495   0.518   3.452
 2195TIP3   OH2 6461   2.770   0.392   3.344
 2195TIP3    H1 6462   2.678   0.393   3.372
 2195TIP3    H2 6463   2.813   0.330   3.403
 2196TIP3   OH2 6464   0.280   8.882   4.601
 2196TIP3    H1 6465   0.194   8.910   4.571
 2196TIP3    H2 6466   0.272   8.788   4.616
 2197TIP3   OH2 6467   2.136   0.054   4.639
 2197TIP3    H1 6468   2.185   0.034   4.718
 2197TIP3    H2 6469   2.062  -0.007   4.640
 2198TIP3   OH2 6470   9.737   8.749   4.621
 2198TIP3    H1 6471   9.790   8.669   4.621
 2198TIP3    H2 6472   9.766   8.797   4.544
 2199TIP3   OH2 6473   9.014   8.628   4.453
 2199TIP3    H1 6474   8.944   8.638   4.518
 2199TIP3    H2 6475   8.994   8.693   4.385
 2200TIP3   OH2 6476   9.549   8.933   4.720
 2200TIP3    H1 6477   9.530   8.888   4.802
 2200TIP3    H2 6478   9.641   8.914   4.703
 2201TIP3   OH2 6479   9.540   8.617   3.914
 2201TIP3    H1 6480   9.504   8.664   3.839
 2201TIP3    H2 6481   9.599   8.552   3.875
 2202TIP3   OH2 6482   8.822   8.666   4.646
 2202TIP3    H1 6483   8.839   8.730   4.715
 2202TIP3    H2 6484   8.790   8.589   4.692
 2203TIP3   OH2 6485   9.542   8.884   4.338
 2203TIP3    H1 6486   9.572   8.811   4.284
 2203TIP3    H2 6487   9.515   8.844   4.421
 2204TIP3   OH2 6488   3.338   0.863   4.432
 2204TIP3    H1 6489   3.333   0.886   4.339
 2204TIP3    H2 6490   3.418   0.905   4.464
 2205TIP3   OH2 6491   8.827   9.204   4.851
 2205TIP3    H1 6492   8.911   9.234   4.885
 2205TIP3    H2 6493   8.767   9.210   4.925
 2206TIP3   OH2 6494   9.318   8.672   4.119
 2206TIP3    H1 6495   9.376   8.614   4.070
 2206TIP3    H2 6496   9.301   8.626   4.201
 2207TIP3   OH2 6497   9.278   8.558   4.409
 2207TIP3    H1 6498   9.189   8.591   4.422
 2207TIP3    H2 6499   9.332   8.612   4.467
 2208TIP3   OH2 6500   0.110   9.190   4.125
 2208TIP3    H1 6501   0.137   9.239   4.047
 2208TIP3    H2 6502   0.026   9.150   4.099
 2209TIP3   OH2 6503   2.877   0.035   4.493
 2209TIP3    H1 6504   2.894   0.005   4.582
 2209TIP3    H2 6505   2.836   0.121   4.504
 2210TIP3   OH2 6506   8.568   8.891   4.796
 2210TIP3    H1 6507   8.611   8.897   4.881
 2210TIP3    H2 6508   8.514   8.812   4.802
 2211TIP3   OH2 6509   9.301   9.019   4.805
 2211TIP3    H1 6510   9.231   8.968   4.764
 2211TIP3    H2 6511   9.380   8.995   4.756
 2212TIP3   OH2 6512   3.036   0.290   4.394
 2212TIP3    H1 6513   2.940   0.287   4.401
 2212TIP3    H2 6514   3.063   0.345   4.467
 2213TIP3   OH2 6515   3.663   0.220   4.376
 2213TIP3    H1 6516   3.567   0.217   4.372
 2213TIP3    H2 6517   3.692   0.191   4.289
 2214TIP3   OH2 6518   3.144   0.174   3.204
 2214TIP3    H1 6519   3.130   0.101   3.264
 2214TIP3    H2 6520   3.146   0.134   3.117
 2215TIP3   OH2 6521   9.673   9.051   4.039
 2215TIP3    H1 6522   9.583   9.026   4.059
 2215TIP3    H2 6523   9.712   8.972   4.001
 2216TIP3   OH2 6524   2.541   0.384   4.266
 2216TIP3    H1 6525   2.576   0.456   4.214
 2216TIP3    H2 6526   2.616   0.350   4.314
 2217TIP3   OH2 6527   2.927   0.015   4.227
 2217TIP3    H1 6528   2.915   0.016   4.322
 2217TIP3    H2 6529   3.011  -0.029   4.214
 2218TIP3   OH2 6530   3.173   0.552   4.273
 2218TIP3    H1 6531   3.095   0.498   4.265
 2218TIP3    H2 6532   3.163   0.618   4.204
 2219TIP3   OH2 6533   3.243   0.395   2.927
 2219TIP3    H1 6534   3.289   0.472   2.892
 2219TIP3    H2 6535   3.160   0.430   2.960
 2220TIP3   OH2 6536   9.616   9.112   3.375
 2220TIP3    H1 6537   9.631   9.024   3.410
 2220TIP3    H2 6538   9.682   9.121   3.305
 2221TIP3   OH2 6539   1.979   0.255   4.430
 2221TIP3    H1 6540   2.023   0.172   4.448
 2221TIP3    H2 6541   2.014   0.316   4.495
 2222TIP3   OH2 6542   9.459   8.702   4.575
 2222TIP3    H1 6543   9.467   8.781   4.629
 2222TIP3    H2 6544   9.547   8.664   4.575
 2223TIP3   OH2 6545   9.756   8.810   3.922
 2223TIP3    H1 6546   9.691   8.743   3.944
 2223TIP3    H2 6547   9.837   8.780   3.961
 2224TIP3   OH2 6548   3.197   0.526   3.866
 2224TIP3    H1 6549   3.151   0.570   3.795
 2224TIP3    H2 6550   3.290   0.542   3.847
 2225TIP3   OH2 6551   1.968   0.553   4.847
 2225TIP3    H1 6552   2.052   0.553   4.894
 2225TIP3    H2 6553   1.941   0.461   4.846
 2226TIP3   OH2 6554   2.466   0.503   4.907
 2226TIP3    H1 6555   2.534   0.557   4.866
 2226TIP3    H2 6556   2.430   0.452   4.834
 2227TIP3   OH2 6557   3.083   0.429   4.632
 2227TIP3    H1 6558   3.078   0.357   4.695
 2227TIP3    H2 6559   3.164   0.475   4.655
 2228TIP3   OH2 6560   8.636   9.201   5.046
 2228TIP3    H1 6561   8.644   9.108   5.066
 2228TIP3    H2 6562   8.551   9.209   5.004
 2229TIP3   OH2 6563   2.705   0.046   4.832
 2229TIP3    H1 6564   2.663   0.062   4.747
 2229TIP3    H2 6565   2.732  -0.046   4.829
 2230TIP3   OH2 6566   3.197   0.054   4.423
 2230TIP3    H1 6567   3.272   0.098   4.381
 2230TIP3    H2 6568   3.125   0.118   4.416
 2231TIP3   OH2 6569   8.744   8.919   5.031
 2231TIP3    H1 6570   8.823   8.872   5.006
 2231TIP3    H2 6571   8.764   8.957   5.116
 2232TIP3   OH2 6572   9.086   8.884   4.687
 2232TIP3    H1 6573   8.997   8.919   4.690
 2232TIP3    H2 6574   9.107   8.880   4.594
 2233TIP3   OH2 6575   9.609   9.229   4.834
 2233TIP3    H1 6576   9.682   9.198   4.779
 2233TIP3    H2 6577   9.598   9.160   4.899
 2234TIP3   OH2 6578   9.180   8.662   4.810
 2234TIP3    H1 6579   9.207   8.600   4.743
 2234TIP3    H2 6580   9.164   8.744   4.762
 2235TIP3   OH2 6581   9.268   8.932   4.468
 2235TIP3    H1 6582   9.342   8.950   4.410
 2235TIP3    H2 6583   9.203   8.998   4.446
 2236TIP3   OH2 6584   0.063   9.146   4.606
 2236TIP3    H1 6585   0.003   9.200   4.554
 2236TIP3    H2 6586   0.150   9.169   4.573
 2237TIP3   OH2 6587   9.058   8.737   5.046
 2237TIP3    H1 6588   8.995   8.666   5.047
 2237TIP3    H2 6589   9.112   8.720   4.969
 2238TIP3   OH2 6590   9.503   8.769   4.921
 2238TIP3    H1 6591   9.469   8.752   5.010
 2238TIP3    H2 6592   9.539   8.685   4.893
 2239TIP3   OH2 6593   3.450   0.615   3.825
 2239TIP3    H1 6594   3.474   0.653   3.910
 2239TIP3    H2 6595   3.504   0.662   3.762
 2240TIP3   OH2 6596   3.476   0.635   4.108
 2240TIP3    H1 6597   3.433   0.550   4.099
 2240TIP3    H2 6598   3.553   0.618   4.161
 2241TIP3   OH2 6599   3.525   0.314   4.682
 2241TIP3    H1 6600   3.452   0.319   4.743
 2241TIP3    H2 6601   3.563   0.402   4.684
 2242TIP3   OH2 6602   0.086   9.093   3.314
 2242TIP3    H1 6603   0.162   9.141   3.281
 2242TIP3    H2 6604   0.122   9.029   3.375
 2243TIP3   OH2 6605   0.208   8.929   3.501
 2243TIP3    H1 6606   0.139   8.887   3.551
 2243TIP3    H2 6607   0.263   8.972   3.566
 2244TIP3   OH2 6608   3.522   0.085   3.934
 2244TIP3    H1 6609   3.574   0.021   3.886
 2244TIP3    H2 6610   3.517   0.161   3.876
 2245TIP3   OH2 6611   3.351   0.385   4.131
 2245TIP3    H1 6612   3.283   0.430   4.180
 2245TIP3    H2 6613   3.305   0.339   4.061
 2246TIP3   OH2 6614   0.033   8.788   3.658
 2246TIP3    H1 6615   0.022   8.695   3.640
 2246TIP3    H2 6616   0.014   8.797   3.752
 2247TIP3   OH2 6617   0.310   9.213   4.506
 2247TIP3    H1 6618   0.378   9.148   4.493
 2247TIP3    H2 6619   0.330   9.282   4.443
 2248TIP3   OH2 6620   0.496   9.014   4.517
 2248TIP3    H1 6621   0.422   8.967   4.555
 2248TIP3    H2 6622   0.573   8.971   4.554
 2249TIP3   OH2 6623   0.179   8.722   4.041
 2249TIP3    H1 6624   0.265   8.725   4.000
 2249TIP3    H2 6625   0.196   8.731   4.134
 2250TIP3   OH2 6626   0.239   8.832   4.288
 2250TIP3    H1 6627   0.160   8.871   4.323
 2250TIP3    H2 6628   0.278   8.900   4.232
 2251TIP3   OH2 6629   3.044   0.476   3.488
 2251TIP3    H1 6630   3.083   0.464   3.401
 2251TIP3    H2 6631   3.088   0.553   3.524
 2252TIP3   OH2 6632   2.133   0.279   4.876
 2252TIP3    H1 6633   2.046   0.257   4.842
 2252TIP3    H2 6634   2.124   0.272   4.971
 2253TIP3   OH2 6635   2.314   0.325   4.417
 2253TIP3    H1 6636   2.258   0.392   4.378
 2253TIP3    H2 6637   2.398   0.335   4.373
 2254TIP3   OH2 6638   2.757   0.565   4.551
 2254TIP3    H1 6639   2.798   0.565   4.638
 2254TIP3    H2 6640   2.819   0.614   4.496
 2255TIP3   OH2 6641   2.938   0.714   4.413
 2255TIP3    H1 6642   3.006   0.667   4.365
 2255TIP3    H2 6643   2.987   0.773   4.471
 2256TIP3   OH2 6644   1.989   0.581   4.440
 2256TIP3    H1 6645   1.902   0.610   4.410
 2256TIP3    H2 6646   1.995   0.613   4.530
 2257TIP3   OH2 6647   2.224   0.557   4.295
 2257TIP3    H1 6648   2.140   0.568   4.341
 2257TIP3    H2 6649   2.206   0.589   4.207
 2258TIP3   OH2 6650   2.649   0.586   4.094
 2258TIP3    H1 6651   2.582   0.601   4.027
 2258TIP3    H2 6652   2.663   0.672   4.134
 2259TIP3   OH2 6653   2.917   0.525   4.145
 2259TIP3    H1 6654   2.824   0.540   4.127
 2259TIP3    H2 6655   2.962   0.597   4.102
 2260TIP3   OH2 6656   3.126   0.716   4.058
 2260TIP3    H1 6657   3.111   0.800   4.015
 2260TIP3    H2 6658   3.151   0.657   3.987
 2261TIP3   OH2 6659   1.913   0.376   4.194
 2261TIP3    H1 6660   1.920   0.351   4.286
 2261TIP3    H2 6661   1.989   0.335   4.153
 2262TIP3   OH2 6662   2.110   0.245   4.067
 2262TIP3    H1 6663   2.129   0.157   4.098
 2262TIP3    H2 6664   2.195   0.282   4.045
 2263TIP3   OH2 6665   2.371   0.343   4.040
 2263TIP3    H1 6666   2.402   0.254   4.022
 2263TIP3    H2 6667   2.407   0.364   4.126
 2264TIP3   OH2 6668   3.176   0.444   3.246
 2264TIP3    H1 6669   3.167   0.349   3.237
 2264TIP3    H2 6670   3.131   0.480   3.170
 2265TIP3   OH2 6671   3.403   0.596   4.436
 2265TIP3    H1 6672   3.328   0.562   4.387
 2265TIP3    H2 6673   3.388   0.690   4.440
 2266TIP3   OH2 6674   1.400   9.208   3.203
 2266TIP3    H1 6675   1.376   9.298   3.181
 2266TIP3    H2 6676   1.328   9.155   3.169
 2267TIP3   OH2 6677   1.402   9.206   3.584
 2267TIP3    H1 6678   1.435   9.171   3.666
 2267TIP3    H2 6679   1.359   9.131   3.541
 2268TIP3   OH2 6680   0.704   9.105   3.950
 2268TIP3    H1 6681   0.740   9.040   4.010
 2268TIP3    H2 6682   0.779   9.157   3.923
 2269TIP3   OH2 6683   4.913   0.267   3.265
 2269TIP3    H1 6684   4.897   0.197   3.328
 2269TIP3    H2 6685   4.941   0.342   3.318
 2270TIP3   OH2 6686   3.945   0.269   3.680
 2270TIP3    H1 6687   3.933   0.174   3.680
 2270TIP3    H2 6688   4.039   0.281   3.664
 2271TIP3   OH2 6689   0.370   8.706   3.463
 2271TIP3    H1 6690   0.332   8.793   3.477
 2271TIP3    H2 6691   0.297   8.654   3.429
 2272TIP3   OH2 6692   0.448   9.000   3.635
 2272TIP3    H1 6693   0.494   8.924   3.669
 2272TIP3    H2 6694   0.497   9.025   3.557
 2273TIP3   OH2 6695   4.562   0.728   3.281
 2273TIP3    H1 6696   4.607   0.661   3.229
 2273TIP3    H2 6697   4.555   0.689   3.368
 2274TIP3   OH2 6698   4.470   0.190   3.635
 2274TIP3    H1 6699   4.499   0.114   3.585
 2274TIP3    H2 6700   4.551   0.236   3.657
 2275TIP3   OH2 6701   1.614   8.939   3.664
 2275TIP3    H1 6702   1.651   8.854   3.689
 2275TIP3    H2 6703   1.583   8.926   3.575
 2276TIP3   OH2 6704   0.591   8.788   3.738
 2276TIP3    H1 6705   0.667   8.765   3.791
 2276TIP3    H2 6706   0.602   8.737   3.657
 2277TIP3   OH2 6707   1.026   8.991   3.538
 2277TIP3    H1 6708   1.117   8.962   3.548
 2277TIP3    H2 6709   0.980   8.914   3.505
 2278TIP3   OH2 6710   2.259   8.933   3.822
 2278TIP3    H1 6711   2.200   9.004   3.795
 2278TIP3    H2 6712   2.311   8.971   3.893
 2279TIP3   OH2 6713   4.565   0.190   3.070
 2279TIP3    H1 6714   4.526   0.166   2.986
 2279TIP3    H2 6715   4.518   0.270   3.096
 2280TIP3   OH2 6716   4.327   0.111   3.866
 2280TIP3    H1 6717   4.262   0.173   3.900
 2280TIP3    H2 6718   4.365   0.155   3.791
 2281TIP3   OH2 6719   0.831   8.698   3.838
 2281TIP3    H1 6720   0.896   8.766   3.854
 2281TIP3    H2 6721   0.861   8.655   3.758
 2282TIP3   OH2 6722   4.148   0.305   3.960
 2282TIP3    H1 6723   4.126   0.385   3.913
 2282TIP3    H2 6724   4.071   0.286   4.014
 2283TIP3   OH2 6725   3.553   0.002   3.196
 2283TIP3    H1 6726   3.507   0.019   3.114
 2283TIP3    H2 6727   3.574   0.088   3.231
 2284TIP3   OH2 6728   4.983   0.512   3.436
 2284TIP3    H1 6729   4.895   0.502   3.473
 2284TIP3    H2 6730   4.978   0.595   3.387
 2285TIP3   OH2 6731   4.689   0.555   3.108
 2285TIP3    H1 6732   4.734   0.473   3.087
 2285TIP3    H2 6733   4.745   0.623   3.071
 2286TIP3   OH2 6734   4.828   0.339   3.013
 2286TIP3    H1 6735   4.778   0.265   2.978
 2286TIP3    H2 6736   4.865   0.306   3.095
 2287TIP3   OH2 6737   5.208   0.423   3.775
 2287TIP3    H1 6738   5.199   0.347   3.718
 2287TIP3    H2 6739   5.192   0.498   3.717
 2288TIP3   OH2 6740   1.235   9.060   3.033
 2288TIP3    H1 6741   1.153   9.108   3.016
 2288TIP3    H2 6742   1.276   9.053   2.947
 2289TIP3   OH2 6743   1.192   8.859   2.766
 2289TIP3    H1 6744   1.273   8.891   2.806
 2289TIP3    H2 6745   1.219   8.781   2.718
 2290TIP3   OH2 6746   5.402   0.060   3.622
 2290TIP3    H1 6747   5.320   0.109   3.628
 2290TIP3    H2 6748   5.434   0.078   3.534
 2291TIP3   OH2 6749   1.582   9.141   3.010
 2291TIP3    H1 6750   1.526   9.165   3.083
 2291TIP3    H2 6751   1.664   9.112   3.051
 2292TIP3   OH2 6752   1.810   9.187   3.912
 2292TIP3    H1 6753   1.811   9.269   3.961
 2292TIP3    H2 6754   1.729   9.189   3.861
 2293TIP3   OH2 6755   0.815   9.137   3.424
 2293TIP3    H1 6756   0.770   9.082   3.360
 2293TIP3    H2 6757   0.889   9.084   3.453
 2294TIP3   OH2 6758   4.209   0.305   3.572
 2294TIP3    H1 6759   4.186   0.269   3.486
 2294TIP3    H2 6760   4.297   0.272   3.588
 2295TIP3   OH2 6761   0.952   9.106   3.782
 2295TIP3    H1 6762   0.979   9.080   3.693
 2295TIP3    H2 6763   0.996   9.191   3.795
 2296TIP3   OH2 6764   4.742   0.509   3.555
 2296TIP3    H1 6765   4.728   0.586   3.610
 2296TIP3    H2 6766   4.728   0.435   3.615
 2297TIP3   OH2 6767   4.349   0.431   4.100
 2297TIP3    H1 6768   4.287   0.492   4.141
 2297TIP3    H2 6769   4.294   0.371   4.049
 2298TIP3   OH2 6770   1.434   8.987   2.835
 2298TIP3    H1 6771   1.485   9.047   2.889
 2298TIP3    H2 6772   1.456   9.012   2.745
 2299TIP3   OH2 6773   4.092  -0.014   4.203
 2299TIP3    H1 6774   4.098   0.070   4.250
 2299TIP3    H2 6775   4.000  -0.038   4.210
 2300TIP3   OH2 6776   4.429   0.442   3.115
 2300TIP3    H1 6777   4.509   0.493   3.125
 2300TIP3    H2 6778   4.371   0.498   3.063
 2301TIP3   OH2 6779   4.145   0.601   4.189
 2301TIP3    H1 6780   4.118   0.599   4.098
 2301TIP3    H2 6781   4.068   0.573   4.238
 2302TIP3   OH2 6782   0.680   8.987   3.237
 2302TIP3    H1 6783   0.622   9.035   3.178
 2302TIP3    H2 6784   0.651   8.896   3.231
 2303TIP3   OH2 6785   5.010   0.360   2.408
 2303TIP3    H1 6786   5.003   0.455   2.405
 2303TIP3    H2 6787   5.104   0.342   2.417
 2304TIP3   OH2 6788   3.727   0.125   4.132
 2304TIP3    H1 6789   3.664   0.106   4.063
 2304TIP3    H2 6790   3.762   0.039   4.156
 2305TIP3   OH2 6791   3.582   0.315   3.774
 2305TIP3    H1 6792   3.676   0.311   3.757
 2305TIP3    H2 6793   3.570   0.399   3.820
 2306TIP3   OH2 6794   5.444   0.767   3.824
 2306TIP3    H1 6795   5.446   0.672   3.833
 2306TIP3    H2 6796   5.364   0.794   3.868
 2307TIP3   OH2 6797   4.554   0.554   3.960
 2307TIP3    H1 6798   4.552   0.646   3.986
 2307TIP3    H2 6799   4.482   0.514   4.009
 2308TIP3   OH2 6800   4.311   0.682   2.910
 2308TIP3    H1 6801   4.269   0.665   2.826
 2308TIP3    H2 6802   4.285   0.771   2.932
 2309TIP3   OH2 6803   3.750   0.532   3.295
 2309TIP3    H1 6804   3.798   0.525   3.377
 2309TIP3    H2 6805   3.694   0.455   3.293
 2310TIP3   OH2 6806   4.514   0.585   2.550
 2310TIP3    H1 6807   4.578   0.524   2.513
 2310TIP3    H2 6808   4.544   0.599   2.640
 2311TIP3   OH2 6809   4.562   0.628   2.822
 2311TIP3    H1 6810   4.475   0.639   2.861
 2311TIP3    H2 6811   4.615   0.591   2.893
 2312TIP3   OH2 6812   2.071   9.133   4.110
 2312TIP3    H1 6813   2.000   9.168   4.056
 2312TIP3    H2 6814   2.091   9.048   4.071
 2313TIP3   OH2 6815   3.930   0.309   4.125
 2313TIP3    H1 6816   3.981   0.288   4.203
 2313TIP3    H2 6817   3.857   0.247   4.126
 2314TIP3   OH2 6818   1.745   9.002   4.114
 2314TIP3    H1 6819   1.782   8.917   4.090
 2314TIP3    H2 6820   1.757   9.055   4.036
 2315TIP3   OH2 6821   1.500   9.036   2.575
 2315TIP3    H1 6822   1.465   9.009   2.491
 2315TIP3    H2 6823   1.559   9.108   2.555
 2316TIP3   OH2 6824   1.007   8.888   3.932
 2316TIP3    H1 6825   0.947   8.903   4.006
 2316TIP3    H2 6826   0.992   8.962   3.874
 2317TIP3   OH2 6827   0.868   8.794   3.436
 2317TIP3    H1 6828   0.791   8.744   3.466
 2317TIP3    H2 6829   0.894   8.751   3.355
 2318TIP3   OH2 6830   1.378   8.864   3.163
 2318TIP3    H1 6831   1.324   8.934   3.125
 2318TIP3    H2 6832   1.421   8.824   3.088
 2319TIP3   OH2 6833   1.559   9.197   4.215
 2319TIP3    H1 6834   1.532   9.146   4.292
 2319TIP3    H2 6835   1.652   9.179   4.207
 2320TIP3   OH2 6836   1.533   8.889   3.401
 2320TIP3    H1 6837   1.474   8.920   3.332
 2320TIP3    H2 6838   1.566   8.805   3.369
 2321TIP3   OH2 6839   0.822   8.926   4.130
 2321TIP3    H1 6840   0.827   8.984   4.206
 2321TIP3    H2 6841   0.776   8.849   4.162
 2322TIP3   OH2 6842   1.545   9.136   3.833
 2322TIP3    H1 6843   1.571   9.066   3.774
 2322TIP3    H2 6844   1.508   9.092   3.909
 2323TIP3   OH2 6845   0.635   8.647   3.509
 2323TIP3    H1 6846   0.546   8.666   3.482
 2323TIP3    H2 6847   0.648   8.555   3.487
 2324TIP3   OH2 6848   0.933   8.668   3.203
 2324TIP3    H1 6849   1.016   8.642   3.164
 2324TIP3    H2 6850   0.871   8.669   3.130
 2325TIP3   OH2 6851   0.758   8.698   2.995
 2325TIP3    H1 6852   0.676   8.660   2.963
 2325TIP3    H2 6853   0.806   8.722   2.915
 2326TIP3   OH2 6854   5.136   1.121   3.920
 2326TIP3    H1 6855   5.132   1.141   3.826
 2326TIP3    H2 6856   5.214   1.167   3.951
 2327TIP3   OH2 6857   4.088   0.229   4.341
 2327TIP3    H1 6858   4.169   0.261   4.380
 2327TIP3    H2 6859   4.026   0.225   4.414
 2328TIP3   OH2 6860   1.297   8.924   3.606
 2328TIP3    H1 6861   1.353   8.874   3.547
 2328TIP3    H2 6862   1.292   8.870   3.685
 2329TIP3   OH2 6863   1.274   8.808   3.909
 2329TIP3    H1 6864   1.185   8.845   3.910
 2329TIP3    H2 6865   1.325   8.869   3.962
 2330TIP3   OH2 6866   1.001   9.206   2.985
 2330TIP3    H1 6867   0.929   9.144   2.973
 2330TIP3    H2 6868   0.986   9.242   3.072
 2331TIP3   OH2 6869   5.171   0.206   3.612
 2331TIP3    H1 6870   5.197   0.254   3.533
 2331TIP3    H2 6871   5.089   0.164   3.589
 2332TIP3   OH2 6872   4.676   0.291   3.978
 2332TIP3    H1 6873   4.692   0.261   4.068
 2332TIP3    H2 6874   4.635   0.377   3.988
 2333TIP3   OH2 6875   1.526   8.745   2.939
 2333TIP3    H1 6876   1.621   8.754   2.953
 2333TIP3    H2 6877   1.502   8.824   2.891
 2334TIP3   OH2 6878   0.702   9.232   3.658
 2334TIP3    H1 6879   0.734   9.208   3.571
 2334TIP3    H2 6880   0.734   9.163   3.716
 2335TIP3   OH2 6881   4.437   0.129   2.828
 2335TIP3    H1 6882   4.386   0.209   2.817
 2335TIP3    H2 6883   4.375   0.066   2.866
 2336TIP3   OH2 6884   0.568   9.150   4.275
 2336TIP3    H1 6885   0.587   9.133   4.367
 2336TIP3    H2 6886   0.498   9.089   4.253
 2337TIP3   OH2 6887   4.568   0.034   4.289
 2337TIP3    H1 6888   4.499  -0.019   4.250
 2337TIP3    H2 6889   4.648   0.009   4.242
 2338TIP3   OH2 6890   4.834   0.551   3.880
 2338TIP3    H1 6891   4.738   0.543   3.886
 2338TIP3    H2 6892   4.858   0.605   3.956
 2339TIP3   OH2 6893   1.975   8.856   2.781
 2339TIP3    H1 6894   1.918   8.806   2.723
 2339TIP3    H2 6895   1.976   8.944   2.744
 2340TIP3   OH2 6896   5.458   0.475   3.863
 2340TIP3    H1 6897   5.362   0.473   3.858
 2340TIP3    H2 6898   5.488   0.448   3.776
 2341TIP3   OH2 6899   4.957   0.434   2.686
 2341TIP3    H1 6900   4.915   0.384   2.756
 2341TIP3    H2 6901   4.937   0.385   2.606
 2342TIP3   OH2 6902   4.937   0.065   3.535
 2342TIP3    H1 6903   4.844   0.043   3.546
 2342TIP3    H2 6904   4.973  -0.010   3.488
 2343TIP3   OH2 6905   4.064   0.299   3.289
 2343TIP3    H1 6906   4.069   0.377   3.232
 2343TIP3    H2 6907   3.971   0.276   3.289
 2344TIP3   OH2 6908   0.395   8.890   3.003
 2344TIP3    H1 6909   0.451   8.967   3.017
 2344TIP3    H2 6910   0.350   8.878   3.086
 2345TIP3   OH2 6911   4.204   0.064   3.231
 2345TIP3    H1 6912   4.171   0.152   3.248
 2345TIP3    H2 6913   4.168   0.011   3.302
 2346TIP3   OH2 6914   4.335   0.643   3.755
 2346TIP3    H1 6915   4.370   0.713   3.700
 2346TIP3    H2 6916   4.412   0.604   3.796
 2347TIP3   OH2 6917   3.985   0.537   3.138
 2347TIP3    H1 6918   3.900   0.543   3.181
 2347TIP3    H2 6919   4.018   0.626   3.138
 2348TIP3   OH2 6920   4.726   0.274   3.712
 2348TIP3    H1 6921   4.717   0.272   3.807
 2348TIP3    H2 6922   4.801   0.218   3.693
 2349TIP3   OH2 6923   4.699   0.158   2.586
 2349TIP3    H1 6924   4.747   0.139   2.667
 2349TIP3    H2 6925   4.607   0.149   2.611
 2350TIP3   OH2 6926   4.968   0.811   3.761
 2350TIP3    H1 6927   4.892   0.754   3.753
 2350TIP3    H2 6928   4.958   0.875   3.690
 2351TIP3   OH2 6929   5.034   0.627   2.393
 2351TIP3    H1 6930   5.072   0.705   2.353
 2351TIP3    H2 6931   4.968   0.660   2.454
 2352TIP3   OH2 6932   4.858   0.095   2.808
 2352TIP3    H1 6933   4.844   0.034   2.881
 2352TIP3    H2 6934   4.953   0.099   2.799
 2353TIP3   OH2 6935   3.773   0.504   3.913
 2353TIP3    H1 6936   3.824   0.427   3.940
 2353TIP3    H2 6937   3.802   0.574   3.972
 2354TIP3   OH2 6938   4.053   0.154   2.597
 2354TIP3    H1 6939   4.081   0.073   2.556
 2354TIP3    H2 6940   4.040   0.132   2.689
 2355TIP3   OH2 6941   4.008   0.154   2.874
 2355TIP3    H1 6942   4.085   0.125   2.924
 2355TIP3    H2 6943   4.013   0.249   2.875
 2356TIP3   OH2 6944   0.501   9.124   3.080
 2356TIP3    H1 6945   0.433   9.163   3.135
 2356TIP3    H2 6946   0.510   9.185   3.007
 2357TIP3   OH2 6947   4.273   0.347   2.818
 2357TIP3    H1 6948   4.189   0.380   2.850
 2357TIP3    H2 6949   4.291   0.398   2.739
 2358TIP3   OH2 6950   1.222   8.647   3.231
 2358TIP3    H1 6951   1.261   8.731   3.208
 2358TIP3    H2 6952   1.175   8.664   3.313
 2359TIP3   OH2 6953   1.460   8.965   4.061
 2359TIP3    H1 6954   1.471   9.043   4.117
 2359TIP3    H2 6955   1.544   8.921   4.064
 2360TIP3   OH2 6956   4.014   0.428   2.881
 2360TIP3    H1 6957   3.987   0.495   2.818
 2360TIP3    H2 6958   4.001   0.469   2.966
 2361TIP3   OH2 6959   1.756   9.070   3.405
 2361TIP3    H1 6960   1.684   9.007   3.415
 2361TIP3    H2 6961   1.830   9.029   3.450
 2362TIP3   OH2 6962   3.739   0.066   2.870
 2362TIP3    H1 6963   3.807   0.132   2.879
 2362TIP3    H2 6964   3.776   0.001   2.810
 2363TIP3   OH2 6965   4.992   0.784   3.353
 2363TIP3    H1 6966   4.946   0.829   3.283
 2363TIP3    H2 6967   5.085   0.799   3.335
 2364TIP3   OH2 6968   3.607   0.275   3.266
 2364TIP3    H1 6969   3.531   0.303   3.317
 2364TIP3    H2 6970   3.590   0.309   3.178
 2365TIP3   OH2 6971   3.766   0.809   4.331
 2365TIP3    H1 6972   3.849   0.808   4.379
 2365TIP3    H2 6973   3.737   0.718   4.331
 2366TIP3   OH2 6974   4.291   0.727   4.396
 2366TIP3    H1 6975   4.334   0.805   4.361
 2366TIP3    H2 6976   4.233   0.698   4.325
 2367TIP3   OH2 6977   4.237   0.341   2.517
 2367TIP3    H1 6978   4.170   0.282   2.551
 2367TIP3    H2 6979   4.292   0.286   2.461
 2368TIP3   OH2 6980   4.877   0.688   4.121
 2368TIP3    H1 6981   4.873   0.615   4.183
 2368TIP3    H2 6982   4.960   0.732   4.142
 2369TIP3   OH2 6983   4.691   0.412   2.431
 2369TIP3    H1 6984   4.682   0.325   2.469
 2369TIP3    H2 6985   4.725   0.395   2.342
 2370TIP3   OH2 6986   3.892   0.215   4.533
 2370TIP3    H1 6987   3.910   0.122   4.546
 2370TIP3    H2 6988   3.807   0.218   4.490
 2371TIP3   OH2 6989   0.608   9.107   2.746
 2371TIP3    H1 6990   0.669   9.080   2.814
 2371TIP3    H2 6991   0.660   9.106   2.666
 2372TIP3   OH2 6992   4.481   0.289   4.313
 2372TIP3    H1 6993   4.458   0.312   4.223
 2372TIP3    H2 6994   4.520   0.202   4.307
 2373TIP3   OH2 6995   4.996   0.312   3.916
 2373TIP3    H1 6996   5.069   0.354   3.870
 2373TIP3    H2 6997   4.922   0.371   3.902
 2374TIP3   OH2 6998   0.750   9.186   4.519
 2374TIP3    H1 6999   0.826   9.132   4.496
 2374TIP3    H2 7000   0.769   9.217   4.607
 2375TIP3   OH2 7001   0.808   9.008   2.949
 2375TIP3    H1 7002   0.790   8.966   3.033
 2375TIP3    H2 7003   0.846   8.940   2.895
 2376TIP3   OH2 7004   1.084   9.137   4.173
 2376TIP3    H1 7005   0.995   9.173   4.176
 2376TIP3    H2 7006   1.109   9.143   4.081
 2377TIP3   OH2 7007   0.917   8.807   2.791
 2377TIP3    H1 7008   0.902   8.760   2.709
 2377TIP3    H2 7009   1.011   8.826   2.792
 2378TIP3   OH2 7010   4.872   0.248   4.319
 2378TIP3    H1 7011   4.935   0.212   4.256
 2378TIP3    H2 7012   4.857   0.177   4.382
 2379TIP3   OH2 7013   1.753   9.147   2.438
 2379TIP3    H1 7014   1.728   9.095   2.362
 2379TIP3    H2 7015   1.710   9.231   2.426
 2380TIP3   OH2 7016   1.185   8.922   4.305
 2380TIP3    H1 7017   1.186   8.848   4.245
 2380TIP3    H2 7018   1.166   8.998   4.249
 2381TIP3   OH2 7019   1.264   9.193   3.957
 2381TIP3    H1 7020   1.336   9.207   3.895
 2381TIP3    H2 7021   1.198   9.257   3.932
 2382TIP3   OH2 7022   1.823   9.164   4.378
 2382TIP3    H1 7023   1.854   9.075   4.360
 2382TIP3    H2 7024   1.884   9.221   4.331
 2383TIP3   OH2 7025   5.128   0.167   4.099
 2383TIP3    H1 7026   5.067   0.218   4.045
 2383TIP3    H2 7027   5.215   0.187   4.063
 2384TIP3   OH2 7028   1.060   9.000   4.539
 2384TIP3    H1 7029   0.995   8.931   4.551
 2384TIP3    H2 7030   1.107   8.975   4.460
 2385TIP3   OH2 7031   1.491   9.026   4.403
 2385TIP3    H1 7032   1.461   9.002   4.491
 2385TIP3    H2 7033   1.518   8.943   4.365
 2386TIP3   OH2 7034   3.987   0.628   2.691
 2386TIP3    H1 7035   4.081   0.620   2.677
 2386TIP3    H2 7036   3.956   0.677   2.615
 2387TIP3   OH2 7037   0.206   9.255   2.929
 2387TIP3    H1 7038   0.293   9.279   2.898
 2387TIP3    H2 7039   0.189   9.169   2.889
 2388TIP3   OH2 7040   3.379   0.619   3.322
 2388TIP3    H1 7041   3.312   0.560   3.287
 2388TIP3    H2 7042   3.424   0.566   3.389
 2389TIP3   OH2 7043   3.516   0.477   3.513
 2389TIP3    H1 7044   3.503   0.400   3.569
 2389TIP3    H2 7045   3.567   0.538   3.567
 2390TIP3   OH2 7046   5.246   0.871   3.312
 2390TIP3    H1 7047   5.272   0.908   3.396
 2390TIP3    H2 7048   5.300   0.917   3.247
 2391TIP3   OH2 7049   5.273   0.893   3.596
 2391TIP3    H1 7050   5.229   0.809   3.586
 2391TIP3    H2 7051   5.351   0.873   3.648
 2392TIP3   OH2 7052   5.320   0.572   4.169
 2392TIP3    H1 7053   5.247   0.580   4.231
 2392TIP3    H2 7054   5.362   0.658   4.170
 2393TIP3   OH2 7055   5.142   0.082   2.786
 2393TIP3    H1 7056   5.207   0.149   2.763
 2393TIP3    H2 7057   5.177   0.042   2.866
 2394TIP3   OH2 7058   1.997   9.189   2.991
 2394TIP3    H1 7059   1.932   9.148   3.048
 2394TIP3    H2 7060   2.061   9.227   3.051
 2395TIP3   OH2 7061   5.319   0.342   3.422
 2395TIP3    H1 7062   5.369   0.278   3.373
 2395TIP3    H2 7063   5.310   0.416   3.362
 2396TIP3   OH2 7064   5.148   0.643   3.618
 2396TIP3    H1 7065   5.078   0.686   3.667
 2396TIP3    H2 7066   5.103   0.596   3.548
 2397TIP3   OH2 7067   1.935   9.097   2.637
 2397TIP3    H1 7068   1.870   9.103   2.567
 2397TIP3    H2 7069   1.913   9.168   2.697
 2398TIP3   OH2 7070   1.814   8.764   2.582
 2398TIP3    H1 7071   1.772   8.831   2.527
 2398TIP3    H2 7072   1.776   8.682   2.553
 2399TIP3   OH2 7073   1.813   9.047   3.141
 2399TIP3    H1 7074   1.819   8.951   3.137
 2399TIP3    H2 7075   1.798   9.066   3.233
 2400TIP3   OH2 7076   0.439   9.117   3.884
 2400TIP3    H1 7077   0.434   9.089   3.793
 2400TIP3    H2 7078   0.533   9.123   3.902
 2401TIP3   OH2 7079   5.373   0.228   3.993
 2401TIP3    H1 7080   5.443   0.164   3.979
 2401TIP3    H2 7081   5.393   0.298   3.931
 2402TIP3   OH2 7082   2.290   9.263   4.010
 2402TIP3    H1 7083   2.222   9.216   4.058
 2402TIP3    H2 7084   2.372   9.222   4.039
 2403TIP3   OH2 7085   1.796   8.765   2.985
 2403TIP3    H1 7086   1.839   8.729   3.062
 2403TIP3    H2 7087   1.868   8.798   2.930
 2404TIP3   OH2 7088   1.976   8.972   3.532
 2404TIP3    H1 7089   2.061   8.979   3.489
 2404TIP3    H2 7090   1.995   8.988   3.625
 2405TIP3   OH2 7091   2.036   9.093   3.778
 2405TIP3    H1 7092   1.954   9.131   3.808
 2405TIP3    H2 7093   2.073   9.159   3.719
 2406TIP3   OH2 7094   0.434   8.779   3.963
 2406TIP3    H1 7095   0.476   8.761   3.879
 2406TIP3    H2 7096   0.455   8.870   3.982
 2407TIP3   OH2 7097   4.833   0.739   2.975
 2407TIP3    H1 7098   4.871   0.721   2.889
 2407TIP3    H2 7099   4.880   0.816   3.006
 2408TIP3   OH2 7100   3.930   0.538   4.365
 2408TIP3    H1 7101   3.845   0.514   4.327
 2408TIP3    H2 7102   3.918   0.525   4.459
 2409TIP3   OH2 7103   4.110   0.582   3.905
 2409TIP3    H1 7104   4.056   0.651   3.865
 2409TIP3    H2 7105   4.194   0.590   3.860
 2410TIP3   OH2 7106   4.553   0.822   4.039
 2410TIP3    H1 7107   4.595   0.818   4.125
 2410TIP3    H2 7108   4.615   0.868   3.984
 2411TIP3   OH2 7109   4.732   0.971   3.900
 2411TIP3    H1 7110   4.797   0.922   3.849
 2411TIP3    H2 7111   4.785   1.028   3.957
 2412TIP3   OH2 7112   3.783   0.835   3.928
 2412TIP3    H1 7113   3.697   0.864   3.897
 2412TIP3    H2 7114   3.789   0.870   4.017
 2413TIP3   OH2 7115   4.019   0.814   3.783
 2413TIP3    H1 7116   3.935   0.826   3.827
 2413TIP3    H2 7117   4.003   0.845   3.694
 2414TIP3   OH2 7118   4.443   0.842   3.582
 2414TIP3    H1 7119   4.379   0.856   3.512
 2414TIP3    H2 7120   4.458   0.930   3.618
 2415TIP3   OH2 7121   4.712   0.784   3.635
 2415TIP3    H1 7122   4.620   0.797   3.613
 2415TIP3    H2 7123   4.758   0.853   3.586
 2416TIP3   OH2 7124   4.924   0.974   3.545
 2416TIP3    H1 7125   4.907   1.057   3.500
 2416TIP3    H2 7126   4.948   0.914   3.474
 2417TIP3   OH2 7127   3.698   0.626   3.671
 2417TIP3    H1 7128   3.720   0.602   3.761
 2417TIP3    H2 7129   3.766   0.585   3.618
 2418TIP3   OH2 7130   3.890   0.498   3.528
 2418TIP3    H1 7131   3.905   0.415   3.573
 2418TIP3    H2 7132   3.977   0.536   3.519
 2419TIP3   OH2 7133   4.155   0.593   3.530
 2419TIP3    H1 7134   4.185   0.505   3.509
 2419TIP3    H2 7135   4.197   0.614   3.613
 2420TIP3   OH2 7136   3.483   0.400   3.062
 2420TIP3    H1 7137   3.401   0.362   3.028
 2420TIP3    H2 7138   3.473   0.494   3.049
 2421TIP3   OH2 7139   4.254   0.588   2.638
 2421TIP3    H1 7140   4.342   0.614   2.610
 2421TIP3    H2 7141   4.233   0.512   2.585
 2422TIP3   OH2 7142   4.969   0.707   2.746
 2422TIP3    H1 7143   4.963   0.617   2.714
 2422TIP3    H2 7144   4.970   0.761   2.667
 2423TIP3   OH2 7145   3.563   0.427   2.699
 2423TIP3    H1 7146   3.559   0.449   2.792
 2423TIP3    H2 7147   3.647   0.383   2.689
 2424TIP3   OH2 7148   5.197   0.853   3.924
 2424TIP3    H1 7149   5.123   0.818   3.874
 2424TIP3    H2 7150   5.182   0.947   3.927
 2425TIP3   OH2 7151   6.464   0.227   2.695
 2425TIP3    H1 7152   6.439   0.317   2.673
 2425TIP3    H2 7153   6.391   0.174   2.664
 2426TIP3   OH2 7154   6.462   0.222   3.072
 2426TIP3    H1 7155   6.499   0.190   3.154
 2426TIP3    H2 7156   6.422   0.144   3.032
 2427TIP3   OH2 7157   5.766   0.123   3.437
 2427TIP3    H1 7158   5.799   0.056   3.497
 2427TIP3    H2 7159   5.843   0.175   3.415
 2428TIP3   OH2 7160   6.706   0.526   2.753
 2428TIP3    H1 7161   6.696   0.453   2.813
 2428TIP3    H2 7162   6.737   0.598   2.808
 2429TIP3   OH2 7163   5.738   0.525   3.163
 2429TIP3    H1 7164   5.726   0.430   3.164
 2429TIP3    H2 7165   5.833   0.537   3.156
 2430TIP3   OH2 7166   2.167   8.961   2.952
 2430TIP3    H1 7167   2.123   9.045   2.969
 2430TIP3    H2 7168   2.107   8.913   2.896
 2431TIP3   OH2 7169   2.240   9.254   3.117
 2431TIP3    H1 7170   2.285   9.179   3.155
 2431TIP3    H2 7171   2.298   9.284   3.048
 2432TIP3   OH2 7172   6.358   0.986   2.768
 2432TIP3    H1 7173   6.404   0.918   2.719
 2432TIP3    H2 7174   6.351   0.950   2.857
 2433TIP3   OH2 7175   6.267   0.446   3.120
 2433TIP3    H1 7176   6.299   0.369   3.074
 2433TIP3    H2 7177   6.347   0.495   3.142
 2434TIP3   OH2 7178   3.409   9.194   3.151
 2434TIP3    H1 7179   3.450   9.111   3.176
 2434TIP3    H2 7180   3.381   9.182   3.061
 2435TIP3   OH2 7181   2.384   9.045   3.223
 2435TIP3    H1 7182   2.462   9.025   3.276
 2435TIP3    H2 7183   2.396   8.995   3.143
 2436TIP3   OH2 7184   2.823   9.248   3.023
 2436TIP3    H1 7185   2.914   9.219   3.035
 2436TIP3    H2 7186   2.777   9.170   2.991
 2437TIP3   OH2 7187   4.062   9.195   3.304
 2437TIP3    H1 7188   3.997   9.263   3.284
 2437TIP3    H2 7189   4.104   9.224   3.384
 2438TIP3   OH2 7190   6.358   0.446   2.559
 2438TIP3    H1 7191   6.313   0.421   2.479
 2438TIP3    H2 7192   6.317   0.529   2.585
 2439TIP3   OH2 7193   6.122   0.366   3.353
 2439TIP3    H1 7194   6.059   0.428   3.389
 2439TIP3    H2 7195   6.163   0.413   3.280
 2440TIP3   OH2 7196   2.622   8.960   3.320
 2440TIP3    H1 7197   2.690   9.022   3.345
 2440TIP3    H2 7198   2.661   8.909   3.249
 2441TIP3   OH2 7199   5.943   0.561   3.445
 2441TIP3    H1 7200   5.922   0.645   3.403
 2441TIP3    H2 7201   5.867   0.543   3.501
 2442TIP3   OH2 7202   5.345   0.259   2.682
 2442TIP3    H1 7203   5.284   0.294   2.617
 2442TIP3    H2 7204   5.380   0.336   2.727
 2443TIP3   OH2 7205   6.778   0.769   2.922
 2443TIP3    H1 7206   6.691   0.758   2.960
 2443TIP3    H2 7207   6.773   0.852   2.875
 2444TIP3   OH2 7208   6.485   0.814   2.593
 2444TIP3    H1 7209   6.529   0.732   2.575
 2444TIP3    H2 7210   6.542   0.881   2.554
 2445TIP3   OH2 7211   6.625   0.598   2.500
 2445TIP3    H1 7212   6.586   0.521   2.460
 2445TIP3    H2 7213   6.660   0.567   2.584
 2446TIP3   OH2 7214   7.004   0.681   3.262
 2446TIP3    H1 7215   6.995   0.604   3.205
 2446TIP3    H2 7216   6.989   0.755   3.203
 2447TIP3   OH2 7217   6.297   0.080   2.520
 2447TIP3    H1 7218   6.212   0.123   2.510
 2447TIP3    H2 7219   6.330   0.070   2.431
 2448TIP3   OH2 7220   2.994   9.172   2.257
 2448TIP3    H1 7221   3.072   9.160   2.310
 2448TIP3    H2 7222   2.985   9.090   2.208
 2449TIP3   OH2 7223   7.198   0.316   3.108
 2449TIP3    H1 7224   7.117   0.365   3.116
 2449TIP3    H2 7225   7.230   0.337   3.020
 2450TIP3   OH2 7226   6.649   0.163   2.508
 2450TIP3    H1 7227   6.596   0.185   2.585
 2450TIP3    H2 7228   6.733   0.133   2.545
 2451TIP3   OH2 7229   6.874   0.203   3.399
 2451TIP3    H1 7230   6.874   0.284   3.448
 2451TIP3    H2 7231   6.793   0.206   3.348
 2452TIP3   OH2 7232   5.880   0.154   2.908
 2452TIP3    H1 7233   5.836   0.098   2.844
 2452TIP3    H2 7234   5.953   0.100   2.940
 2453TIP3   OH2 7235   6.008   0.565   3.057
 2453TIP3    H1 7236   5.985   0.521   2.975
 2453TIP3    H2 7237   6.096   0.533   3.078
 2454TIP3   OH2 7238   6.013   0.124   3.267
 2454TIP3    H1 7239   6.042   0.097   3.179
 2454TIP3    H2 7240   6.058   0.207   3.283
 2455TIP3   OH2 7241   6.537   0.764   3.041
 2455TIP3    H1 7242   6.525   0.842   3.095
 2455TIP3    H2 7243   6.524   0.691   3.101
 2456TIP3   OH2 7244   6.147   0.684   3.586
 2456TIP3    H1 7245   6.091   0.745   3.633
 2456TIP3    H2 7246   6.086   0.629   3.537
 2457TIP3   OH2 7247   6.511   0.042   2.318
 2457TIP3    H1 7248   6.559   0.074   2.395
 2457TIP3    H2 7249   6.490   0.121   2.269
 2458TIP3   OH2 7250   5.886   0.244   3.693
 2458TIP3    H1 7251   5.894   0.329   3.738
 2458TIP3    H2 7252   5.793   0.223   3.698
 2459TIP3   OH2 7253   6.228   0.696   2.592
 2459TIP3    H1 7254   6.306   0.748   2.612
 2459TIP3    H2 7255   6.166   0.760   2.556
 2460TIP3   OH2 7256   5.943   0.852   3.674
 2460TIP3    H1 7257   5.912   0.850   3.583
 2460TIP3    H2 7258   5.866   0.830   3.726
 2461TIP3   OH2 7259   2.473   9.245   2.714
 2461TIP3    H1 7260   2.403   9.274   2.656
 2461TIP3    H2 7261   2.455   9.153   2.731
 2462TIP3   OH2 7262   6.797   0.624   1.914
 2462TIP3    H1 7263   6.801   0.719   1.901
 2462TIP3    H2 7264   6.876   0.590   1.873
 2463TIP3   OH2 7265   5.522   0.383   3.619
 2463TIP3    H1 7266   5.459   0.363   3.550
 2463TIP3    H2 7267   5.557   0.297   3.645
 2464TIP3   OH2 7268   5.378   0.573   3.259
 2464TIP3    H1 7269   5.473   0.567   3.244
 2464TIP3    H2 7270   5.367   0.655   3.308
 2465TIP3   OH2 7271   7.237   1.022   3.309
 2465TIP3    H1 7272   7.239   0.927   3.321
 2465TIP3    H2 7273   7.157   1.050   3.354
 2466TIP3   OH2 7274   6.347   0.813   3.446
 2466TIP3    H1 7275   6.349   0.904   3.476
 2466TIP3    H2 7276   6.278   0.772   3.497
 2467TIP3   OH2 7277   6.108   0.942   2.395
 2467TIP3    H1 7278   6.065   0.923   2.312
 2467TIP3    H2 7279   6.076   1.028   2.420
 2468TIP3   OH2 7280   5.548   0.789   2.782
 2468TIP3    H1 7281   5.597   0.781   2.863
 2468TIP3    H2 7282   5.478   0.724   2.790
 2469TIP3   OH2 7283   6.311   0.842   2.038
 2469TIP3    H1 7284   6.368   0.775   2.001
 2469TIP3    H2 7285   6.343   0.853   2.128
 2470TIP3   OH2 7286   6.360   0.889   2.309
 2470TIP3    H1 7287   6.273   0.899   2.348
 2470TIP3    H2 7288   6.412   0.847   2.377
 2471TIP3   OH2 7289   7.135   0.152   3.596
 2471TIP3    H1 7290   7.060   0.186   3.547
 2471TIP3    H2 7291   7.149   0.064   3.562
 2472TIP3   OH2 7292   5.728   0.564   3.612
 2472TIP3    H1 7293   5.779   0.548   3.692
 2472TIP3    H2 7294   5.656   0.502   3.616
 2473TIP3   OH2 7295   6.798   0.014   3.599
 2473TIP3    H1 7296   6.840  -0.071   3.583
 2473TIP3    H2 7297   6.821   0.066   3.522
 2474TIP3   OH2 7298   2.801   9.144   3.420
 2474TIP3    H1 7299   2.741   9.160   3.493
 2474TIP3    H2 7300   2.785   9.217   3.359
 2475TIP3   OH2 7301   2.660   9.054   2.919
 2475TIP3    H1 7302   2.588   9.001   2.954
 2475TIP3    H2 7303   2.687   9.008   2.839
 2476TIP3   OH2 7304   3.166   9.125   2.666
 2476TIP3    H1 7305   3.115   9.193   2.621
 2476TIP3    H2 7306   3.218   9.085   2.596
 2477TIP3   OH2 7307   6.611   0.203   3.704
 2477TIP3    H1 7308   6.577   0.158   3.781
 2477TIP3    H2 7309   6.703   0.179   3.700
 2478TIP3   OH2 7310   3.331   9.144   2.890
 2478TIP3    H1 7311   3.269   9.168   2.820
 2478TIP3    H2 7312   3.367   9.060   2.861
 2479TIP3   OH2 7313   2.612   9.184   3.616
 2479TIP3    H1 7314   2.634   9.236   3.693
 2479TIP3    H2 7315   2.584   9.099   3.650
 2480TIP3   OH2 7316   6.607   0.153   3.318
 2480TIP3    H1 7317   6.635   0.083   3.260
 2480TIP3    H2 7318   6.570   0.108   3.394
 2481TIP3   OH2 7319   2.433   8.904   2.995
 2481TIP3    H1 7320   2.341   8.920   2.972
 2481TIP3    H2 7321   2.444   8.810   2.980
 2482TIP3   OH2 7322   2.721   8.927   2.686
 2482TIP3    H1 7323   2.810   8.904   2.661
 2482TIP3    H2 7324   2.669   8.916   2.607
 2483TIP3   OH2 7325   2.533   8.944   2.464
 2483TIP3    H1 7326   2.463   8.894   2.422
 2483TIP3    H2 7327   2.584   8.981   2.391
 2484TIP3   OH2 7328   6.934   1.378   3.407
 2484TIP3    H1 7329   6.931   1.397   3.313
 2484TIP3    H2 7330   7.013   1.421   3.438
 2485TIP3   OH2 7331   5.889   0.487   3.834
 2485TIP3    H1 7332   5.971   0.515   3.876
 2485TIP3    H2 7333   5.825   0.488   3.905
 2486TIP3   OH2 7334   3.092   9.181   3.092
 2486TIP3    H1 7335   3.151   9.131   3.036
 2486TIP3    H2 7336   3.088   9.129   3.173
 2487TIP3   OH2 7337   3.069   9.067   3.392
 2487TIP3    H1 7338   2.981   9.104   3.395
 2487TIP3    H2 7339   3.122   9.127   3.444
 2488TIP3   OH2 7340   6.065   0.228   2.471
 2488TIP3    H1 7341   5.994   0.164   2.459
 2488TIP3    H2 7342   6.051   0.263   2.559
 2489TIP3   OH2 7343   6.968   0.463   3.099
 2489TIP3    H1 7344   6.993   0.511   3.020
 2489TIP3    H2 7345   6.885   0.420   3.076
 2490TIP3   OH2 7346   6.472   0.550   3.465
 2490TIP3    H1 7347   6.489   0.521   3.555
 2490TIP3    H2 7348   6.429   0.635   3.476
 2491TIP3   OH2 7349   3.319   9.041   2.460
 2491TIP3    H1 7350   3.412   9.022   2.477
 2491TIP3    H2 7351   3.321   9.116   2.400
 2492TIP3   OH2 7352   5.762   0.247   3.144
 2492TIP3    H1 7353   5.798   0.222   3.058
 2492TIP3    H2 7354   5.801   0.183   3.205
 2493TIP3   OH2 7355   6.214   0.376   2.291
 2493TIP3    H1 7356   6.169   0.460   2.294
 2493TIP3    H2 7357   6.163   0.320   2.350
 2494TIP3   OH2 7358   5.628   0.173   3.766
 2494TIP3    H1 7359   5.655   0.153   3.855
 2494TIP3    H2 7360   5.564   0.105   3.745
 2495TIP3   OH2 7361   6.363   0.294   3.781
 2495TIP3    H1 7362   6.291   0.248   3.738
 2495TIP3    H2 7363   6.440   0.275   3.726
 2496TIP3   OH2 7364   6.628   0.810   3.362
 2496TIP3    H1 7365   6.533   0.802   3.373
 2496TIP3    H2 7366   6.656   0.859   3.439
 2497TIP3   OH2 7367   7.254   0.731   3.351
 2497TIP3    H1 7368   7.158   0.729   3.346
 2497TIP3    H2 7369   7.283   0.704   3.264
 2498TIP3   OH2 7370   6.724   0.696   2.176
 2498TIP3    H1 7371   6.727   0.631   2.246
 2498TIP3    H2 7372   6.761   0.651   2.100
 2499TIP3   OH2 7373   6.733   0.322   3.020
 2499TIP3    H1 7374   6.641   0.300   3.032
 2499TIP3    H2 7375   6.770   0.246   2.974
 2500TIP3   OH2 7376   5.859   0.554   2.769
 2500TIP3    H1 7377   5.862   0.634   2.717
 2500TIP3    H2 7378   5.765   0.537   2.782
 2501TIP3   OH2 7379   2.154   9.101   2.470
 2501TIP3    H1 7380   2.205   9.178   2.495
 2501TIP3    H2 7381   2.081   9.100   2.532
 2502TIP3   OH2 7382   6.000   0.321   2.716
 2502TIP3    H1 7383   5.965   0.408   2.734
 2502TIP3    H2 7384   5.968   0.266   2.787
 2503TIP3   OH2 7385   6.132   0.898   3.241
 2503TIP3    H1 7386   6.170   0.969   3.189
 2503TIP3    H2 7387   6.205   0.860   3.288
 2504TIP3   OH2 7388   5.780   0.793   2.623
 2504TIP3    H1 7389   5.696   0.798   2.668
 2504TIP3    H2 7390   5.813   0.883   2.625
 2505TIP3   OH2 7391   6.521   0.530   3.198
 2505TIP3    H1 7392   6.511   0.531   3.293
 2505TIP3    H2 7393   6.598   0.475   3.182
 2506TIP3   OH2 7394   6.453   0.416   2.113
 2506TIP3    H1 7395   6.518   0.398   2.182
 2506TIP3    H2 7396   6.369   0.410   2.158
 2507TIP3   OH2 7397   6.765   1.066   3.249
 2507TIP3    H1 7398   6.690   1.008   3.244
 2507TIP3    H2 7399   6.751   1.129   3.178
 2508TIP3   OH2 7400   6.830   0.904   1.897
 2508TIP3    H1 7401   6.875   0.980   1.859
 2508TIP3    H2 7402   6.748   0.940   1.933
 2509TIP3   OH2 7403   6.641   0.344   2.300
 2509TIP3    H1 7404   6.641   0.291   2.380
 2509TIP3    H2 7405   6.734   0.352   2.277
 2510TIP3   OH2 7406   5.570   0.760   3.401
 2510TIP3    H1 7407   5.619   0.682   3.427
 2510TIP3    H2 7408   5.601   0.829   3.461
 2511TIP3   OH2 7409   5.854   0.404   2.082
 2511TIP3    H1 7410   5.872   0.316   2.050
 2511TIP3    H2 7411   5.839   0.394   2.176
 2512TIP3   OH2 7412   5.804   0.410   2.355
 2512TIP3    H1 7413   5.874   0.379   2.413
 2512TIP3    H2 7414   5.808   0.505   2.360
 2513TIP3   OH2 7415   5.531   0.103   2.552
 2513TIP3    H1 7416   5.475   0.150   2.614
 2513TIP3    H2 7417   5.564   0.172   2.494
 2514TIP3   OH2 7418   6.069   0.605   2.301
 2514TIP3    H1 7419   5.985   0.631   2.339
 2514TIP3    H2 7420   6.089   0.675   2.239
 2515TIP3   OH2 7421   3.006   8.908   2.710
 2515TIP3    H1 7422   3.054   8.990   2.697
 2515TIP3    H2 7423   2.981   8.910   2.803
 2516TIP3   OH2 7424   3.253   9.220   3.546
 2516TIP3    H1 7425   3.267   9.301   3.595
 2516TIP3    H2 7426   3.339   9.179   3.541
 2517TIP3   OH2 7427   5.812   0.683   2.369
 2517TIP3    H1 7428   5.783   0.750   2.306
 2517TIP3    H2 7429   5.797   0.723   2.454
 2518TIP3   OH2 7430   6.817   0.086   2.892
 2518TIP3    H1 7431   6.746   0.023   2.902
 2518TIP3    H2 7432   6.891   0.046   2.937
 2519TIP3   OH2 7433   5.530   0.323   2.355
 2519TIP3    H1 7434   5.594   0.392   2.374
 2519TIP3    H2 7435   5.576   0.264   2.296
 2520TIP3   OH2 7436   2.183   8.811   2.497
 2520TIP3    H1 7437   2.224   8.897   2.491
 2520TIP3    H2 7438   2.093   8.829   2.525
 2521TIP3   OH2 7439   6.788   1.042   2.840
 2521TIP3    H1 7440   6.743   1.086   2.768
 2521TIP3    H2 7441   6.881   1.058   2.824
 2522TIP3   OH2 7442   5.395   0.523   2.745
 2522TIP3    H1 7443   5.331   0.558   2.806
 2522TIP3    H2 7444   5.377   0.569   2.663
 2523TIP3   OH2 7445   5.560   1.065   3.823
 2523TIP3    H1 7446   5.644   1.066   3.868
 2523TIP3    H2 7447   5.537   0.972   3.817
 2524TIP3   OH2 7448   6.043   1.032   3.863
 2524TIP3    H1 7449   6.136   1.012   3.874
 2524TIP3    H2 7450   6.015   0.977   3.790
 2525TIP3   OH2 7451   6.016   0.612   1.999
 2525TIP3    H1 7452   5.967   0.538   2.034
 2525TIP3    H2 7453   6.095   0.573   1.961
 2526TIP3   OH2 7454   6.680   0.940   3.600
 2526TIP3    H1 7455   6.670   0.871   3.666
 2526TIP3    H2 7456   6.757   0.989   3.629
 2527TIP3   OH2 7457   6.466   0.656   1.913
 2527TIP3    H1 7458   6.524   0.604   1.969
 2527TIP3    H2 7459   6.512   0.659   1.829
 2528TIP3   OH2 7460   5.687   0.471   4.022
 2528TIP3    H1 7461   5.707   0.378   4.026
 2528TIP3    H2 7462   5.603   0.476   3.977
 2529TIP3   OH2 7463   5.669   0.126   2.217
 2529TIP3    H1 7464   5.719   0.093   2.292
 2529TIP3    H2 7465   5.731   0.126   2.144
 2530TIP3   OH2 7466   6.296   0.560   3.795
 2530TIP3    H1 7467   6.255   0.572   3.709
 2530TIP3    H2 7468   6.328   0.470   3.794
 2531TIP3   OH2 7469   6.159   0.318   2.025
 2531TIP3    H1 7470   6.171   0.327   2.120
 2531TIP3    H2 7471   6.153   0.224   2.010
 2532TIP3   OH2 7472   6.791   0.567   3.401
 2532TIP3    H1 7473   6.863   0.612   3.357
 2532TIP3    H2 7474   6.716   0.626   3.390
 2533TIP3   OH2 7475   5.806   0.202   4.008
 2533TIP3    H1 7476   5.882   0.151   3.978
 2533TIP3    H2 7477   5.831   0.235   4.094
 2534TIP3   OH2 7478   2.599   9.276   2.442
 2534TIP3    H1 7479   2.582   9.235   2.527
 2534TIP3    H2 7480   2.637   9.207   2.389
 2535TIP3   OH2 7481   6.149   0.178   3.661
 2535TIP3    H1 7482   6.056   0.200   3.664
 2535TIP3    H2 7483   6.167   0.165   3.568
 2536TIP3   OH2 7484   2.704   9.083   2.282
 2536TIP3    H1 7485   2.691   9.001   2.236
 2536TIP3    H2 7486   2.789   9.115   2.251
 2537TIP3   OH2 7487   6.666   0.501   3.806
 2537TIP3    H1 7488   6.734   0.469   3.747
 2537TIP3    H2 7489   6.656   0.432   3.872
 2538TIP3   OH2 7490   2.909   9.167   3.752
 2538TIP3    H1 7491   2.987   9.112   3.761
 2538TIP3    H2 7492   2.940   9.244   3.704
 2539TIP3   OH2 7493   6.331   0.210   3.444
 2539TIP3    H1 7494   6.400   0.224   3.379
 2539TIP3    H2 7495   6.263   0.273   3.421
 2540TIP3   OH2 7496   6.872   0.171   3.855
 2540TIP3    H1 7497   6.928   0.098   3.883
 2540TIP3    H2 7498   6.934   0.238   3.827
 2541TIP3   OH2 7499   6.924   0.423   3.585
 2541TIP3    H1 7500   6.863   0.474   3.532
 2541TIP3    H2 7501   7.010   0.444   3.548
 2542TIP3   OH2 7502   2.871   9.231   4.016
 2542TIP3    H1 7503   2.791   9.181   4.028
 2542TIP3    H2 7504   2.882   9.237   3.921
 2543TIP3   OH2 7505   6.555   0.043   3.909
 2543TIP3    H1 7506   6.524  -0.045   3.930
 2543TIP3    H2 7507   6.650   0.035   3.903
 2544TIP3   OH2 7508   5.783   0.882   2.176
 2544TIP3    H1 7509   5.877   0.878   2.163
 2544TIP3    H2 7510   5.750   0.934   2.102
 2545TIP3   OH2 7511   5.269   0.243   2.386
 2545TIP3    H1 7512   5.351   0.291   2.373
 2545TIP3    H2 7513   5.295   0.160   2.424
 2546TIP3   OH2 7514   5.185   0.886   2.827
 2546TIP3    H1 7515   5.121   0.844   2.768
 2546TIP3    H2 7516   5.216   0.815   2.883
 2547TIP3   OH2 7517   5.323   0.718   2.998
 2547TIP3    H1 7518   5.303   0.649   3.062
 2547TIP3    H2 7519   5.366   0.786   3.050
 2548TIP3   OH2 7520   7.039   1.136   2.798
 2548TIP3    H1 7521   7.069   1.164   2.885
 2548TIP3    H2 7522   7.104   1.172   2.738
 2549TIP3   OH2 7523   7.070   1.149   3.081
 2549TIP3    H1 7524   7.026   1.064   3.075
 2549TIP3    H2 7525   7.147   1.132   3.135
 2550TIP3   OH2 7526   7.117   0.828   3.656
 2550TIP3    H1 7527   7.043   0.835   3.717
 2550TIP3    H2 7528   7.158   0.914   3.658
 2551TIP3   OH2 7529   6.912   0.348   2.281
 2551TIP3    H1 7530   6.971   0.417   2.252
 2551TIP3    H2 7531   6.965   0.295   2.341
 2552TIP3   OH2 7532   7.056   0.203   2.477
 2552TIP3    H1 7533   6.992   0.159   2.534
 2552TIP3    H2 7534   7.122   0.237   2.537
 2553TIP3   OH2 7535   7.114   0.599   2.908
 2553TIP3    H1 7536   7.166   0.535   2.859
 2553TIP3    H2 7537   7.105   0.673   2.848
 2554TIP3   OH2 7538   6.944   0.900   3.104
 2554TIP3    H1 7539   6.875   0.941   3.156
 2554TIP3    H2 7540   6.897   0.852   3.036
 2555TIP3   OH2 7541   6.873   0.058   2.627
 2555TIP3    H1 7542   6.883  -0.037   2.618
 2555TIP3    H2 7543   6.859   0.072   2.721
 2556TIP3   OH2 7544   5.502   0.133   3.369
 2556TIP3    H1 7545   5.498   0.105   3.278
 2556TIP3    H2 7546   5.596   0.139   3.388
 2557TIP3   OH2 7547   7.170   0.485   3.479
 2557TIP3    H1 7548   7.240   0.421   3.466
 2557TIP3    H2 7549   7.191   0.556   3.419
 2558TIP3   OH2 7550   7.353   0.280   3.494
 2558TIP3    H1 7551   7.283   0.235   3.541
 2558TIP3    H2 7552   7.433   0.239   3.524
 2559TIP3   OH2 7553   3.772   9.232   3.019
 2559TIP3    H1 7554   3.858   9.237   2.977
 2559TIP3    H2 7555   3.789   9.243   3.112
 2560TIP3   OH2 7556   7.100   0.109   3.266
 2560TIP3    H1 7557   7.017   0.147   3.296
 2560TIP3    H2 7558   7.137   0.175   3.207
 2561TIP3   OH2 7559   2.229   9.036   3.451
 2561TIP3    H1 7560   2.272   9.017   3.367
 2561TIP3    H2 7561   2.253   9.126   3.470
 2562TIP3   OH2 7562   6.626   0.998   2.453
 2562TIP3    H1 7563   6.675   0.981   2.373
 2562TIP3    H2 7564   6.679   1.061   2.501
 2563TIP3   OH2 7565   5.724   0.802   3.842
 2563TIP3    H1 7566   5.634   0.773   3.823
 2563TIP3    H2 7567   5.736   0.782   3.935
 2564TIP3   OH2 7568   5.904   0.835   3.386
 2564TIP3    H1 7569   5.853   0.907   3.350
 2564TIP3    H2 7570   5.990   0.844   3.346
 2565TIP3   OH2 7571   6.351   1.080   3.528
 2565TIP3    H1 7572   6.391   1.078   3.615
 2565TIP3    H2 7573   6.414   1.128   3.474
 2566TIP3   OH2 7574   6.530   1.230   3.385
 2566TIP3    H1 7575   6.597   1.177   3.341
 2566TIP3    H2 7576   6.579   1.286   3.445
 2567TIP3   OH2 7577   5.579   1.092   3.412
 2567TIP3    H1 7578   5.493   1.124   3.385
 2567TIP3    H2 7579   5.588   1.122   3.502
 2568TIP3   OH2 7580   5.815   1.070   3.268
 2568TIP3    H1 7581   5.731   1.082   3.314
 2568TIP3    H2 7582   5.798   1.101   3.179
 2569TIP3   OH2 7583   6.241   1.101   3.067
 2569TIP3    H1 7584   6.173   1.117   3.002
 2569TIP3    H2 7585   6.255   1.185   3.109
 2570TIP3   OH2 7586   6.509   1.040   3.119
 2570TIP3    H1 7587   6.416   1.053   3.099
 2570TIP3    H2 7588   6.554   1.113   3.076
 2571TIP3   OH2 7589   6.719   1.231   3.032
 2571TIP3    H1 7590   6.705   1.313   2.986
 2571TIP3    H2 7591   6.745   1.169   2.963
 2572TIP3   OH2 7592   5.494   0.883   3.158
 2572TIP3    H1 7593   5.516   0.860   3.248
 2572TIP3    H2 7594   5.562   0.842   3.105
 2573TIP3   OH2 7595   5.687   0.754   3.015
 2573TIP3    H1 7596   5.700   0.672   3.062
 2573TIP3    H2 7597   5.774   0.792   3.008
 2574TIP3   OH2 7598   5.953   0.849   3.017
 2574TIP3    H1 7599   5.981   0.759   3.001
 2574TIP3    H2 7600   5.994   0.873   3.100
 2575TIP3   OH2 7601   5.270   0.667   2.546
 2575TIP3    H1 7602   5.193   0.625   2.509
 2575TIP3    H2 7603   5.245   0.758   2.557
 2576TIP3   OH2 7604   6.053   0.847   2.128
 2576TIP3    H1 7605   6.140   0.870   2.096
 2576TIP3    H2 7606   6.026   0.772   2.074
 2577TIP3   OH2 7607   6.770   0.959   2.220
 2577TIP3    H1 7608   6.758   0.865   2.211
 2577TIP3    H2 7609   6.725   0.996   2.144
 2578TIP3   OH2 7610   5.353   0.666   2.192
 2578TIP3    H1 7611   5.352   0.706   2.279
 2578TIP3    H2 7612   5.444   0.638   2.179
 2579TIP3   OH2 7613   6.992   1.108   3.412
 2579TIP3    H1 7614   6.917   1.075   3.363
 2579TIP3    H2 7615   6.978   1.203   3.415
 2580TIP3   OH2 7616   8.219   0.475   2.556
 2580TIP3    H1 7617   8.283   0.456   2.624
 2580TIP3    H2 7618   8.213   0.394   2.505
 2581TIP3   OH2 7619   7.565   0.377   2.919
 2581TIP3    H1 7620   7.596   0.312   2.982
 2581TIP3    H2 7621   7.630   0.447   2.923
 2582TIP3   OH2 7622   7.531   0.784   2.648
 2582TIP3    H1 7623   7.520   0.689   2.655
 2582TIP3    H2 7624   7.626   0.797   2.642
 2583TIP3   OH2 7625   7.302   0.276   2.604
 2583TIP3    H1 7626   7.361   0.214   2.647
 2583TIP3    H2 7627   7.348   0.301   2.524
 2584TIP3   OH2 7628   8.172   1.264   2.253
 2584TIP3    H1 7629   8.228   1.188   2.235
 2584TIP3    H2 7630   8.126   1.241   2.334
 2585TIP3   OH2 7631   8.062   0.704   2.607
 2585TIP3    H1 7632   8.098   0.625   2.567
 2585TIP3    H2 7633   8.140   0.756   2.631
 2586TIP3   OH2 7634   7.466   0.097   2.728
 2586TIP3    H1 7635   7.540   0.067   2.780
 2586TIP3    H2 7636   7.458   0.033   2.658
 2587TIP3   OH2 7637   7.916   0.622   2.841
 2587TIP3    H1 7638   7.853   0.683   2.878
 2587TIP3    H2 7639   7.955   0.670   2.767
 2588TIP3   OH2 7640   4.419   9.214   2.816
 2588TIP3    H1 7641   4.492   9.266   2.849
 2588TIP3    H2 7642   4.460   9.139   2.772
 2589TIP3   OH2 7643   7.740   0.817   2.929
 2589TIP3    H1 7644   7.720   0.902   2.890
 2589TIP3    H2 7645   7.666   0.800   2.988
 2590TIP3   OH2 7646   7.087   0.549   2.185
 2590TIP3    H1 7647   7.137   0.504   2.116
 2590TIP3    H2 7648   7.151   0.606   2.228
 2591TIP3   OH2 7649   8.567   1.016   2.418
 2591TIP3    H1 7650   8.480   1.002   2.457
 2591TIP3    H2 7651   8.556   1.092   2.361
 2592TIP3   OH2 7652   8.371   1.096   2.140
 2592TIP3    H1 7653   8.331   1.013   2.112
 2592TIP3    H2 7654   8.357   1.155   2.066
 2593TIP3   OH2 7655   8.675   0.463   2.871
 2593TIP3    H1 7656   8.681   0.529   2.940
 2593TIP3    H2 7657   8.585   0.469   2.839
 2594TIP3   OH2 7658   7.669   0.432   2.412
 2594TIP3    H1 7659   7.616   0.424   2.333
 2594TIP3    H2 7660   7.731   0.359   2.407
 2595TIP3   OH2 7661   7.800   0.820   2.542
 2595TIP3    H1 7662   7.778   0.784   2.456
 2595TIP3    H2 7663   7.889   0.788   2.560
 2596TIP3   OH2 7664   7.824   0.380   2.755
 2596TIP3    H1 7665   7.840   0.380   2.660
 2596TIP3    H2 7666   7.853   0.466   2.784
 2597TIP3   OH2 7667   8.324   1.018   2.526
 2597TIP3    H1 7668   8.310   1.099   2.575
 2597TIP3    H2 7669   8.308   0.948   2.590
 2598TIP3   OH2 7670   7.951   0.927   3.072
 2598TIP3    H1 7671   7.895   0.989   3.119
 2598TIP3    H2 7672   7.889   0.875   3.020
 2599TIP3   OH2 7673   7.677   0.503   3.172
 2599TIP3    H1 7674   7.689   0.586   3.219
 2599TIP3    H2 7675   7.586   0.479   3.189
 2600TIP3   OH2 7676   7.971   0.999   2.130
 2600TIP3    H1 7677   8.064   1.001   2.108
 2600TIP3    H2 7678   7.929   1.048   2.058
 2601TIP3   OH2 7679   7.742   1.075   3.154
 2601TIP3    H1 7680   7.702   1.099   3.070
 2601TIP3    H2 7681   7.675   1.094   3.219
 2602TIP3   OH2 7682   7.317   0.636   3.108
 2602TIP3    H1 7683   7.254   0.617   3.039
 2602TIP3    H2 7684   7.353   0.550   3.132
 2603TIP3   OH2 7685   7.177   0.832   2.743
 2603TIP3    H1 7686   7.271   0.821   2.729
 2603TIP3    H2 7687   7.169   0.910   2.797
 2604TIP3   OH2 7688   8.144   1.062   2.930
 2604TIP3    H1 7689   8.150   1.153   2.960
 2604TIP3    H2 7690   8.076   1.023   2.984
 2605TIP3   OH2 7691   7.908   1.199   1.882
 2605TIP3    H1 7692   7.842   1.170   1.818
 2605TIP3    H2 7693   7.879   1.287   1.907
 2606TIP3   OH2 7694   7.345   1.048   2.269
 2606TIP3    H1 7695   7.393   1.041   2.352
 2606TIP3    H2 7696   7.293   0.968   2.263
 2607TIP3   OH2 7697   8.164   1.142   1.833
 2607TIP3    H1 7698   8.075   1.173   1.853
 2607TIP3    H2 7699   8.151   1.071   1.769
 2608TIP3   OH2 7700   7.525   0.817   3.094
 2608TIP3    H1 7701   7.575   0.810   3.175
 2608TIP3    H2 7702   7.452   0.756   3.105
 2609TIP3   OH2 7703   7.860   0.161   2.910
 2609TIP3    H1 7704   7.802   0.181   2.983
 2609TIP3    H2 7705   7.848   0.234   2.849
 2610TIP3   OH2 7706   8.408   0.444   3.173
 2610TIP3    H1 7707   8.416   0.538   3.158
 2610TIP3    H2 7708   8.465   0.427   3.249
 2611TIP3   OH2 7709   7.675   0.202   3.106
 2611TIP3    H1 7710   7.692   0.256   3.183
 2611TIP3    H2 7711   7.640   0.120   3.142
 2612TIP3   OH2 7712   8.391   0.396   2.789
 2612TIP3    H1 7713   8.446   0.321   2.764
 2612TIP3    H2 7714   8.354   0.371   2.874
 2613TIP3   OH2 7715   8.724   1.638   2.892
 2613TIP3    H1 7716   8.727   1.656   2.798
 2613TIP3    H2 7717   8.792   1.696   2.929
 2614TIP3   OH2 7718   7.686   0.740   3.320
 2614TIP3    H1 7719   7.767   0.773   3.360
 2614TIP3    H2 7720   7.621   0.745   3.391
 2615TIP3   OH2 7721   8.119   0.067   2.911
 2615TIP3    H1 7722   8.039   0.115   2.887
 2615TIP3    H2 7723   8.184   0.135   2.927
 2616TIP3   OH2 7724   8.278   0.812   2.956
 2616TIP3    H1 7725   8.272   0.779   3.046
 2616TIP3    H2 7726   8.226   0.892   2.956
 2617TIP3   OH2 7727   7.553   0.509   2.648
 2617TIP3    H1 7728   7.590   0.486   2.563
 2617TIP3    H2 7729   7.581   0.438   2.707
 2618TIP3   OH2 7730   7.426   0.425   3.251
 2618TIP3    H1 7731   7.450   0.408   3.342
 2618TIP3    H2 7732   7.359   0.360   3.232
 2619TIP3   OH2 7733   8.159   0.539   3.276
 2619TIP3    H1 7734   8.079   0.509   3.233
 2619TIP3    H2 7735   8.230   0.495   3.229
 2620TIP3   OH2 7736   8.423   1.064   2.848
 2620TIP3    H1 7737   8.328   1.057   2.861
 2620TIP3    H2 7738   8.454   1.113   2.924
 2621TIP3   OH2 7739   7.656   0.807   2.259
 2621TIP3    H1 7740   7.667   0.886   2.205
 2621TIP3    H2 7741   7.562   0.790   2.257
 2622TIP3   OH2 7742   7.832   0.588   2.243
 2622TIP3    H1 7743   7.790   0.671   2.224
 2622TIP3    H2 7744   7.772   0.543   2.302
 2623TIP3   OH2 7745   7.928   1.153   2.727
 2623TIP3    H1 7746   7.965   1.228   2.681
 2623TIP3    H2 7747   8.000   1.118   2.779
 2624TIP3   OH2 7748   7.579   1.051   2.112
 2624TIP3    H1 7749   7.493   1.051   2.155
 2624TIP3    H2 7750   7.608   1.142   2.115
 2625TIP3   OH2 7751   8.314   0.788   2.689
 2625TIP3    H1 7752   8.304   0.792   2.784
 2625TIP3    H2 7753   8.393   0.736   2.675
 2626TIP3   OH2 7754   8.550   1.316   2.736
 2626TIP3    H1 7755   8.471   1.264   2.726
 2626TIP3    H2 7756   8.545   1.383   2.668
 2627TIP3   OH2 7757   7.365   1.017   2.890
 2627TIP3    H1 7758   7.417   0.940   2.913
 2627TIP3    H2 7759   7.397   1.085   2.948
 2628TIP3   OH2 7760   8.333   0.233   3.007
 2628TIP3    H1 7761   8.348   0.304   3.070
 2628TIP3    H2 7762   8.378   0.157   3.045
 2629TIP3   OH2 7763   7.548   0.947   1.848
 2629TIP3    H1 7764   7.559   1.029   1.800
 2629TIP3    H2 7765   7.576   0.968   1.937
 2630TIP3   OH2 7766   8.612   1.310   2.314
 2630TIP3    H1 7767   8.555   1.273   2.247
 2630TIP3    H2 7768   8.695   1.263   2.304
 2631TIP3   OH2 7769   7.210   0.807   2.241
 2631TIP3    H1 7770   7.128   0.810   2.290
 2631TIP3    H2 7771   7.185   0.827   2.151
 2632TIP3   OH2 7772   7.353   1.319   3.312
 2632TIP3    H1 7773   7.448   1.323   3.325
 2632TIP3    H2 7774   7.334   1.225   3.310
 2633TIP3   OH2 7775   8.483   1.189   3.086
 2633TIP3    H1 7776   8.474   1.120   3.152
 2633TIP3    H2 7777   8.551   1.247   3.121
 2634TIP3   OH2 7778   7.484   0.728   3.509
 2634TIP3    H1 7779   7.504   0.635   3.511
 2634TIP3    H2 7780   7.399   0.734   3.465
 2635TIP3   OH2 7781   8.096   0.814   3.280
 2635TIP3    H1 7782   8.050   0.831   3.198
 2635TIP3    H2 7783   8.122   0.722   3.275
 2636TIP3   OH2 7784   8.590   0.826   2.881
 2636TIP3    H1 7785   8.638   0.876   2.816
 2636TIP3    H2 7786   8.507   0.872   2.891
 2637TIP3   OH2 7787   7.604   0.458   3.495
 2637TIP3    H1 7788   7.679   0.406   3.468
 2637TIP3    H2 7789   7.628   0.492   3.581
 2638TIP3   OH2 7790   7.941   0.451   3.147
 2638TIP3    H1 7791   7.847   0.469   3.154
 2638TIP3    H2 7792   7.950   0.400   3.066
 2639TIP3   OH2 7793   8.453   0.714   3.267
 2639TIP3    H1 7794   8.542   0.748   3.255
 2639TIP3    H2 7795   8.453   0.676   3.355
 2640TIP3   OH2 7796   7.990   0.197   3.257
 2640TIP3    H1 7797   8.026   0.112   3.232
 2640TIP3    H2 7798   8.044   0.260   3.210
 2641TIP3   OH2 7799   8.138   0.475   2.936
 2641TIP3    H1 7800   8.188   0.484   2.854
 2641TIP3    H2 7801   8.062   0.532   2.924
 2642TIP3   OH2 7802   8.678   0.431   3.344
 2642TIP3    H1 7803   8.722   0.346   3.334
 2642TIP3    H2 7804   8.744   0.495   3.315
 2643TIP3   OH2 7805   8.737   0.690   3.064
 2643TIP3    H1 7806   8.669   0.736   3.016
 2643TIP3    H2 7807   8.817   0.705   3.013
 2644TIP3   OH2 7808   7.922   0.264   3.508
 2644TIP3    H1 7809   7.850   0.202   3.515
 2644TIP3    H2 7810   7.960   0.248   3.421
 2645TIP3   OH2 7811   8.404   0.311   3.431
 2645TIP3    H1 7812   8.325   0.302   3.485
 2645TIP3    H2 7813   8.386   0.256   3.354
 2646TIP3   OH2 7814   7.587   1.163   1.671
 2646TIP3    H1 7815   7.653   1.231   1.684
 2646TIP3    H2 7816   7.535   1.193   1.597
 2647TIP3   OH2 7817   6.972   1.133   2.297
 2647TIP3    H1 7818   6.906   1.073   2.262
 2647TIP3    H2 7819   7.018   1.082   2.364
 2648TIP3   OH2 7820   7.104   0.994   2.491
 2648TIP3    H1 7821   7.097   0.913   2.542
 2648TIP3    H2 7822   7.160   1.051   2.544
 2649TIP3   OH2 7823   8.721   1.119   2.625
 2649TIP3    H1 7824   8.655   1.175   2.666
 2649TIP3    H2 7825   8.674   1.072   2.557
 2650TIP3   OH2 7826   7.298   0.390   2.857
 2650TIP3    H1 7827   7.291   0.363   2.765
 2650TIP3    H2 7828   7.393   0.393   2.873
 2651TIP3   OH2 7829   7.294   0.053   2.940
 2651TIP3    H1 7830   7.344   0.045   2.859
 2651TIP3    H2 7831   7.306   0.145   2.967
 2652TIP3   OH2 7832   8.450   1.295   1.940
 2652TIP3    H1 7833   8.412   1.241   1.871
 2652TIP3    H2 7834   8.520   1.344   1.896
 2653TIP3   OH2 7835   7.513   1.059   3.334
 2653TIP3    H1 7836   7.424   1.029   3.317
 2653TIP3    H2 7837   7.527   1.042   3.427
 2654TIP3   OH2 7838   7.695   1.087   2.862
 2654TIP3    H1 7839   7.648   1.164   2.831
 2654TIP3    H2 7840   7.784   1.098   2.826
 2655TIP3   OH2 7841   8.157   1.323   3.011
 2655TIP3    H1 7842   8.187   1.332   3.101
 2655TIP3    H2 7843   8.212   1.383   2.961
 2656TIP3   OH2 7844   8.329   1.486   2.870
 2656TIP3    H1 7845   8.400   1.431   2.836
 2656TIP3    H2 7846   8.372   1.545   2.932
 2657TIP3   OH2 7847   7.374   1.349   2.896
 2657TIP3    H1 7848   7.287   1.384   2.878
 2657TIP3    H2 7849   7.392   1.377   2.986
 2658TIP3   OH2 7850   7.609   1.326   2.754
 2658TIP3    H1 7851   7.526   1.338   2.801
 2658TIP3    H2 7852   7.590   1.357   2.665
 2659TIP3   OH2 7853   8.040   1.360   2.549
 2659TIP3    H1 7854   7.966   1.378   2.491
 2659TIP3    H2 7855   8.052   1.441   2.599
 2660TIP3   OH2 7856   8.304   1.294   2.598
 2660TIP3    H1 7857   8.211   1.308   2.580
 2660TIP3    H2 7858   8.346   1.377   2.575
 2661TIP3   OH2 7859   8.517   1.481   2.523
 2661TIP3    H1 7860   8.494   1.565   2.482
 2661TIP3    H2 7861   8.551   1.428   2.451
 2662TIP3   OH2 7862   7.290   1.139   2.646
 2662TIP3    H1 7863   7.313   1.117   2.736
 2662TIP3    H2 7864   7.358   1.098   2.593
 2663TIP3   OH2 7865   7.483   1.013   2.502
 2663TIP3    H1 7866   7.495   0.929   2.546
 2663TIP3    H2 7867   7.571   1.049   2.496
 2664TIP3   OH2 7868   7.750   1.110   2.502
 2664TIP3    H1 7869   7.778   1.021   2.480
 2664TIP3    H2 7870   7.789   1.128   2.587
 2665TIP3   OH2 7871   7.075   0.908   2.028
 2665TIP3    H1 7872   6.990   0.875   2.000
 2665TIP3    H2 7873   7.065   1.003   2.026
 2666TIP3   OH2 7874   7.175   0.968   1.700
 2666TIP3    H1 7875   7.148   0.995   1.788
 2666TIP3    H2 7876   7.249   0.908   1.714
 2667TIP3   OH2 7877   8.761   1.369   2.908
 2667TIP3    H1 7878   8.697   1.328   2.851
 2667TIP3    H2 7879   8.741   1.463   2.902
 2668TIP3   OH2 7880   0.955   1.557   3.940
 2668TIP3    H1 7881   0.954   1.498   4.016
 2668TIP3    H2 7882   0.987   1.640   3.975
 2669TIP3   OH2 7883   0.610   2.032   3.948
 2669TIP3    H1 7884   0.650   1.965   3.892
 2669TIP3    H2 7885   0.595   1.988   4.032
 2670TIP3   OH2 7886   0.517   1.487   4.322
 2670TIP3    H1 7887   0.517   1.446   4.236
 2670TIP3    H2 7888   0.605   1.523   4.332
 2671TIP3   OH2 7889   1.527   0.813   4.296
 2671TIP3    H1 7890   1.556   0.895   4.335
 2671TIP3    H2 7891   1.547   0.823   4.203
 2672TIP3   OH2 7892   1.600   1.023   4.467
 2672TIP3    H1 7893   1.520   1.069   4.443
 2672TIP3    H2 7894   1.617   1.050   4.557
 2673TIP3   OH2 7895   0.370   1.415   4.541
 2673TIP3    H1 7896   0.304   1.481   4.561
 2673TIP3    H2 7897   0.412   1.447   4.461
 2674TIP3   OH2 7898   0.186   1.611   4.624
 2674TIP3    H1 7899   0.166   1.697   4.586
 2674TIP3    H2 7900   0.108   1.589   4.675
 2675TIP3   OH2 7901   1.024   1.812   4.093
 2675TIP3    H1 7902   0.937   1.804   4.133
 2675TIP3    H2 7903   1.023   1.899   4.052
 2676TIP3   OH2 7904   1.321   0.714   4.459
 2676TIP3    H1 7905   1.242   0.765   4.441
 2676TIP3    H2 7906   1.382   0.740   4.390
 2677TIP3   OH2 7907   0.747   1.859   3.785
 2677TIP3    H1 7908   0.820   1.797   3.793
 2677TIP3    H2 7909   0.780   1.926   3.725
 2678TIP3   OH2 7910   1.254   1.724   4.440
 2678TIP3    H1 7911   1.245   1.648   4.382
 2678TIP3    H2 7912   1.238   1.800   4.383
 2679TIP3   OH2 7913   1.449   1.364   4.284
 2679TIP3    H1 7914   1.367   1.414   4.291
 2679TIP3    H2 7915   1.481   1.384   4.196
 2680TIP3   OH2 7916   1.132   1.246   4.582
 2680TIP3    H1 7917   1.129   1.328   4.631
 2680TIP3    H2 7918   1.046   1.240   4.540
 2681TIP3   OH2 7919   0.785   1.809   4.219
 2681TIP3    H1 7920   0.778   1.886   4.275
 2681TIP3    H2 7921   0.774   1.735   4.278
 2682TIP3   OH2 7922   0.398   1.733   4.761
 2682TIP3    H1 7923   0.338   1.788   4.810
 2682TIP3    H2 7924   0.341   1.674   4.711
 2683TIP3   OH2 7925   0.146   1.284   4.868
 2683TIP3    H1 7926   0.149   1.374   4.900
 2683TIP3    H2 7927   0.060   1.276   4.827
 2684TIP3   OH2 7928   0.189   1.896   4.853
 2684TIP3    H1 7929   0.160   1.898   4.762
 2684TIP3    H2 7930   0.110   1.875   4.903
 2685TIP3   OH2 7931   1.495   2.068   4.488
 2685TIP3    H1 7932   1.492   1.973   4.499
 2685TIP3    H2 7933   1.413   2.099   4.527
 2686TIP3   OH2 7934   0.596   1.855   4.615
 2686TIP3    H1 7935   0.622   1.931   4.667
 2686TIP3    H2 7936   0.525   1.815   4.666
 2687TIP3   OH2 7937   1.380   1.200   4.760
 2687TIP3    H1 7938   1.301   1.216   4.708
 2687TIP3    H2 7939   1.396   1.106   4.752
 2688TIP3   OH2 7940   9.771   1.588   4.796
 2688TIP3    H1 7941   9.831   1.590   4.871
 2688TIP3    H2 7942   9.692   1.546   4.829
 2689TIP3   OH2 7943   0.915   0.562   4.776
 2689TIP3    H1 7944   0.993   0.527   4.818
 2689TIP3    H2 7945   0.842   0.528   4.828
 2690TIP3   OH2 7946   1.156   0.979   4.683
 2690TIP3    H1 7947   1.105   0.971   4.763
 2690TIP3    H2 7948   1.128   1.063   4.646
 2691TIP3   OH2 7949   0.862   1.206   4.928
 2691TIP3    H1 7950   0.842   1.129   4.983
 2691TIP3    H2 7951   0.956   1.218   4.937
 2692TIP3   OH2 7952   0.877   1.198   4.488
 2692TIP3    H1 7953   0.868   1.127   4.424
 2692TIP3    H2 7954   0.841   1.162   4.569
 2693TIP3   OH2 7955   1.182   2.422   4.585
 2693TIP3    H1 7956   1.179   2.440   4.491
 2693TIP3    H2 7957   1.261   2.467   4.615
 2694TIP3   OH2 7958   0.146   1.541   5.010
 2694TIP3    H1 7959   0.233   1.579   5.024
 2694TIP3    H2 7960   0.117   1.515   5.097
 2695TIP3   OH2 7961   1.218   1.510   4.273
 2695TIP3    H1 7962   1.247   1.559   4.196
 2695TIP3    H2 7963   1.133   1.474   4.248
 2696TIP3   OH2 7964   0.724   1.592   4.640
 2696TIP3    H1 7965   0.742   1.560   4.728
 2696TIP3    H2 7966   0.678   1.675   4.653
 2697TIP3   OH2 7967   0.613   1.323   4.957
 2697TIP3    H1 7968   0.553   1.274   4.902
 2697TIP3    H2 7969   0.700   1.295   4.930
 2698TIP3   OH2 7970   0.880   1.845   4.533
 2698TIP3    H1 7971   0.785   1.842   4.544
 2698TIP3    H2 7972   0.912   1.895   4.608
 2699TIP3   OH2 7973   1.503   1.775   4.528
 2699TIP3    H1 7974   1.407   1.775   4.524
 2699TIP3    H2 7975   1.532   1.748   4.441
 2700TIP3   OH2 7976   0.982   1.380   4.196
 2700TIP3    H1 7977   0.897   1.362   4.237
 2700TIP3    H2 7978   1.020   1.293   4.181
 2701TIP3   OH2 7979   0.384   1.936   4.428
 2701TIP3    H1 7980   0.416   1.999   4.364
 2701TIP3    H2 7981   0.463   1.897   4.465
 2702TIP3   OH2 7982   0.778   1.569   4.375
 2702TIP3    H1 7983   0.759   1.571   4.469
 2702TIP3    H2 7984   0.868   1.537   4.370
 2703TIP3   OH2 7985   1.016   2.109   4.423
 2703TIP3    H1 7986   0.938   2.055   4.418
 2703TIP3    H2 7987   1.003   2.177   4.357
 2704TIP3   OH2 7988   9.606   1.796   4.619
 2704TIP3    H1 7989   9.669   1.724   4.613
 2704TIP3    H2 7990   9.659   1.873   4.639
 2705TIP3   OH2 7991   0.927   0.799   4.636
 2705TIP3    H1 7992   1.017   0.823   4.658
 2705TIP3    H2 7993   0.915   0.712   4.672
 2706TIP3   OH2 7994   0.796   1.053   4.695
 2706TIP3    H1 7995   0.805   1.086   4.784
 2706TIP3    H2 7996   0.826   0.962   4.700
 2707TIP3   OH2 7997   1.420   0.931   4.682
 2707TIP3    H1 7998   1.324   0.933   4.691
 2707TIP3    H2 7999   1.435   0.902   4.592
 2708TIP3   OH2 8000   1.041   1.119   4.155
 2708TIP3    H1 8001   0.991   1.044   4.123
 2708TIP3    H2 8002   1.129   1.084   4.170
 2709TIP3   OH2 8003   1.039   2.083   4.017
 2709TIP3    H1 8004   0.994   2.132   3.948
 2709TIP3    H2 8005   1.132   2.100   4.002
 2710TIP3   OH2 8006   9.625   2.120   4.979
 2710TIP3    H1 8007   9.700   2.123   5.038
 2710TIP3    H2 8008   9.591   2.031   4.988
 2711TIP3   OH2 8009   0.312   2.086   5.011
 2711TIP3    H1 8010   0.384   2.036   5.050
 2711TIP3    H2 8011   0.267   2.024   4.954
 2712TIP3   OH2 8012   0.921   1.980   4.769
 2712TIP3    H1 8013   0.909   1.921   4.844
 2712TIP3    H2 8014   0.994   2.037   4.795
 2713TIP3   OH2 8015   0.540   1.596   4.969
 2713TIP3    H1 8016   0.509   1.613   4.880
 2713TIP3    H2 8017   0.577   1.507   4.965
 2714TIP3   OH2 8018   1.039   1.611   4.573
 2714TIP3    H1 8019   1.115   1.654   4.534
 2714TIP3    H2 8020   0.968   1.675   4.564
 2715TIP3   OH2 8021   0.392   1.142   4.850
 2715TIP3    H1 8022   0.308   1.187   4.843
 2715TIP3    H2 8023   0.440   1.168   4.771
 2716TIP3   OH2 8024   0.910   1.539   4.978
 2716TIP3    H1 8025   0.988   1.520   4.926
 2716TIP3    H2 8026   0.908   1.469   5.044
 2717TIP3   OH2 8027   0.544   0.933   4.956
 2717TIP3    H1 8028   0.514   0.869   4.892
 2717TIP3    H2 8029   0.492   1.011   4.937
 2718TIP3   OH2 8030   0.551   1.257   4.662
 2718TIP3    H1 8031   0.623   1.244   4.601
 2718TIP3    H2 8032   0.490   1.314   4.615
 2719TIP3   OH2 8033   1.132   1.217   5.032
 2719TIP3    H1 8034   1.176   1.132   5.031
 2719TIP3    H2 8035   1.196   1.278   4.996
 2720TIP3   OH2 8036   1.169   1.471   4.763
 2720TIP3    H1 8037   1.110   1.520   4.706
 2720TIP3    H2 8038   1.256   1.487   4.727
 2721TIP3   OH2 8039   0.795   0.980   5.061
 2721TIP3    H1 8040   0.787   0.983   5.156
 2721TIP3    H2 8041   0.707   0.962   5.029
 2722TIP3   OH2 8042   1.026   0.936   4.914
 2722TIP3    H1 8043   0.948   0.934   4.970
 2722TIP3    H2 8044   1.095   0.900   4.969
 2723TIP3   OH2 8045   1.249   0.869   5.068
 2723TIP3    H1 8046   1.260   0.775   5.085
 2723TIP3    H2 8047   1.243   0.908   5.155
 2724TIP3   OH2 8048   1.287   2.176   3.973
 2724TIP3    H1 8049   1.321   2.220   4.051
 2724TIP3    H2 8050   1.309   2.234   3.900
 2725TIP3   OH2 8051   1.313   2.197   4.262
 2725TIP3    H1 8052   1.276   2.110   4.249
 2725TIP3    H2 8053   1.395   2.181   4.310
 2726TIP3   OH2 8054   1.365   1.872   4.832
 2726TIP3    H1 8055   1.290   1.881   4.891
 2726TIP3    H2 8056   1.405   1.959   4.831
 2727TIP3   OH2 8057   1.311   1.258   3.643
 2727TIP3    H1 8058   1.261   1.204   3.704
 2727TIP3    H2 8059   1.386   1.288   3.694
 2728TIP3   OH2 8060   1.363   1.643   4.083
 2728TIP3    H1 8061   1.414   1.580   4.033
 2728TIP3    H2 8062   1.360   1.721   4.028
 2729TIP3   OH2 8063   1.193   1.941   4.283
 2729TIP3    H1 8064   1.126   1.988   4.332
 2729TIP3    H2 8065   1.146   1.897   4.212
 2730TIP3   OH2 8066   1.412   1.533   4.656
 2730TIP3    H1 8067   1.483   1.469   4.647
 2730TIP3    H2 8068   1.437   1.604   4.597
 2731TIP3   OH2 8069   1.597   1.337   4.676
 2731TIP3    H1 8070   1.521   1.291   4.714
 2731TIP3    H2 8071   1.670   1.276   4.688
 2732TIP3   OH2 8072   1.288   1.013   4.199
 2732TIP3    H1 8073   1.369   1.027   4.149
 2732TIP3    H2 8074   1.308   1.046   4.287
 2733TIP3   OH2 8075   1.353   1.148   4.429
 2733TIP3    H1 8076   1.275   1.179   4.475
 2733TIP3    H2 8077   1.385   1.225   4.381
 2734TIP3   OH2 8078   1.800   0.732   4.976
 2734TIP3    H1 8079   1.858   0.668   4.934
 2734TIP3    H2 8080   1.770   0.789   4.905
 2735TIP3   OH2 8081   1.671   0.873   4.785
 2735TIP3    H1 8082   1.587   0.916   4.805
 2735TIP3    H2 8083   1.647   0.802   4.725
 2736TIP3   OH2 8084   0.873   2.047   3.634
 2736TIP3    H1 8085   0.911   2.027   3.549
 2736TIP3    H2 8086   0.934   2.111   3.673
 2737TIP3   OH2 8087   9.763   1.838   5.021
 2737TIP3    H1 8088   9.686   1.784   5.003
 2737TIP3    H2 8089   9.772   1.835   5.116
 2738TIP3   OH2 8090   0.151   1.883   4.565
 2738TIP3    H1 8091   0.102   1.956   4.527
 2738TIP3    H2 8092   0.238   1.890   4.526
 2739TIP3   OH2 8093   0.761   2.284   4.558
 2739TIP3    H1 8094   0.821   2.219   4.522
 2739TIP3    H2 8095   0.815   2.334   4.620
 2740TIP3   OH2 8096   1.572   0.636   4.662
 2740TIP3    H1 8097   1.483   0.636   4.627
 2740TIP3    H2 8098   1.602   0.546   4.651
 2741TIP3   OH2 8099   9.628   2.147   4.585
 2741TIP3    H1 8100   9.538   2.173   4.565
 2741TIP3    H2 8101   9.635   2.159   4.680
 2742TIP3   OH2 8102   0.070   2.121   4.454
 2742TIP3    H1 8103  -0.017   2.135   4.492
 2742TIP3    H2 8104   0.057   2.133   4.359
 2743TIP3   OH2 8105   0.494   2.131   4.242
 2743TIP3    H1 8106   0.417   2.145   4.188
 2743TIP3    H2 8107   0.497   2.207   4.300
 2744TIP3   OH2 8108   0.762   2.084   4.302
 2744TIP3    H1 8109   0.673   2.092   4.268
 2744TIP3    H2 8110   0.813   2.148   4.252
 2745TIP3   OH2 8111   0.957   2.271   4.203
 2745TIP3    H1 8112   0.954   2.356   4.157
 2745TIP3    H2 8113   0.994   2.211   4.138
 2746TIP3   OH2 8114   0.201   1.941   4.198
 2746TIP3    H1 8115   0.198   1.872   4.132
 2746TIP3    H2 8116   0.247   1.902   4.272
 2747TIP3   OH2 8117   1.000   1.999   3.388
 2747TIP3    H1 8118   1.001   1.908   3.360
 2747TIP3    H2 8119   0.967   2.047   3.312
 2748TIP3   OH2 8120   1.305   0.598   5.098
 2748TIP3    H1 8121   1.325   0.568   5.186
 2748TIP3    H2 8122   1.389   0.594   5.052
 2749TIP3   OH2 8123   1.249   2.155   4.580
 2749TIP3    H1 8124   1.172   2.119   4.537
 2749TIP3    H2 8125   1.231   2.249   4.588
 2750TIP3   OH2 8126   2.490   1.528   3.339
 2750TIP3    H1 8127   2.481   1.624   3.339
 2750TIP3    H2 8128   2.408   1.496   3.303
 2751TIP3   OH2 8129   2.520   1.522   3.730
 2751TIP3    H1 8130   2.540   1.491   3.818
 2751TIP3    H2 8131   2.468   1.451   3.691
 2752TIP3   OH2 8132   1.812   1.420   4.101
 2752TIP3    H1 8133   1.843   1.353   4.162
 2752TIP3    H2 8134   1.887   1.477   4.087
 2753TIP3   OH2 8135   2.754   1.823   3.415
 2753TIP3    H1 8136   2.739   1.752   3.478
 2753TIP3    H2 8137   2.773   1.900   3.469
 2754TIP3   OH2 8138   1.786   1.827   3.827
 2754TIP3    H1 8139   1.773   1.732   3.830
 2754TIP3    H2 8140   1.880   1.838   3.814
 2755TIP3   OH2 8141   1.549   1.318   3.780
 2755TIP3    H1 8142   1.598   1.244   3.816
 2755TIP3    H2 8143   1.599   1.343   3.702
 2756TIP3   OH2 8144   2.401   2.286   3.432
 2756TIP3    H1 8145   2.455   2.221   3.388
 2756TIP3    H2 8146   2.391   2.252   3.521
 2757TIP3   OH2 8147   2.310   1.751   3.786
 2757TIP3    H1 8148   2.332   1.679   3.727
 2757TIP3    H2 8149   2.394   1.790   3.809
 2758TIP3   OH2 8150   3.324   1.071   3.780
 2758TIP3    H1 8151   3.350   1.151   3.825
 2758TIP3    H2 8152   3.342   1.087   3.688
 2759TIP3   OH2 8153   2.721   1.249   3.815
 2759TIP3    H1 8154   2.763   1.166   3.835
 2759TIP3    H2 8155   2.689   1.239   3.725
 2760TIP3   OH2 8156   2.060   0.911   3.781
 2760TIP3    H1 8157   2.037   0.981   3.720
 2760TIP3    H2 8158   2.018   0.833   3.745
 2761TIP3   OH2 8159   2.754   1.002   3.406
 2761TIP3    H1 8160   2.825   0.986   3.468
 2761TIP3    H2 8161   2.798   1.037   3.328
 2762TIP3   OH2 8162   1.697   1.112   3.888
 2762TIP3    H1 8163   1.776   1.096   3.940
 2762TIP3    H2 8164   1.707   1.056   3.812
 2763TIP3   OH2 8165   2.133   1.308   3.682
 2763TIP3    H1 8166   2.225   1.286   3.693
 2763TIP3    H2 8167   2.093   1.228   3.648
 2764TIP3   OH2 8168   3.394   1.278   3.953
 2764TIP3    H1 8169   3.312   1.324   3.934
 2764TIP3    H2 8170   3.419   1.308   4.041
 2765TIP3   OH2 8171   2.053   0.895   4.215
 2765TIP3    H1 8172   1.996   0.930   4.146
 2765TIP3    H2 8173   2.004   0.912   4.296
 2766TIP3   OH2 8174   2.164   1.671   4.012
 2766TIP3    H1 8175   2.101   1.733   4.049
 2766TIP3    H2 8176   2.203   1.717   3.939
 2767TIP3   OH2 8177   2.967   1.003   3.575
 2767TIP3    H1 8178   2.954   0.954   3.656
 2767TIP3    H2 8179   3.018   1.080   3.601
 2768TIP3   OH2 8180   1.930   1.011   3.999
 2768TIP3    H1 8181   1.988   1.082   4.024
 2768TIP3    H2 8182   1.974   0.969   3.924
 2769TIP3   OH2 8183   1.988   1.864   4.109
 2769TIP3    H1 8184   1.966   1.946   4.066
 2769TIP3    H2 8185   1.913   1.845   4.165
 2770TIP3   OH2 8186   1.385   1.563   3.347
 2770TIP3    H1 8187   1.360   1.593   3.260
 2770TIP3    H2 8188   1.421   1.642   3.390
 2771TIP3   OH2 8189   2.828   2.075   3.586
 2771TIP3    H1 8190   2.743   2.057   3.627
 2771TIP3    H2 8191   2.815   2.157   3.539
 2772TIP3   OH2 8192   3.114   0.969   3.945
 2772TIP3    H1 8193   3.027   0.997   3.917
 2772TIP3    H2 8194   3.173   0.999   3.876
 2773TIP3   OH2 8195   2.413   0.612   3.931
 2773TIP3    H1 8196   2.400   0.518   3.947
 2773TIP3    H2 8197   2.337   0.653   3.971
 2774TIP3   OH2 8198   2.552   2.121   3.277
 2774TIP3    H1 8199   2.579   2.035   3.246
 2774TIP3    H2 8200   2.597   2.183   3.219
 2775TIP3   OH2 8201   2.664   1.899   3.162
 2775TIP3    H1 8202   2.630   1.824   3.113
 2775TIP3    H2 8203   2.701   1.860   3.241
 2776TIP3   OH2 8204   3.055   1.979   3.922
 2776TIP3    H1 8205   3.036   1.900   3.871
 2776TIP3    H2 8206   3.023   2.051   3.868
 2777TIP3   OH2 8207   2.337   1.126   3.014
 2777TIP3    H1 8208   2.384   1.210   3.013
 2777TIP3    H2 8209   2.361   1.084   2.932
 2778TIP3   OH2 8210   3.247   1.623   3.770
 2778TIP3    H1 8211   3.163   1.669   3.779
 2778TIP3    H2 8212   3.278   1.646   3.683
 2779TIP3   OH2 8213   2.694   1.477   3.160
 2779TIP3    H1 8214   2.628   1.488   3.229
 2779TIP3    H2 8215   2.769   1.438   3.205
 2780TIP3   OH2 8216   2.923   1.499   4.067
 2780TIP3    H1 8217   2.922   1.580   4.117
 2780TIP3    H2 8218   2.838   1.498   4.022
 2781TIP3   OH2 8219   1.909   1.442   3.573
 2781TIP3    H1 8220   1.879   1.387   3.502
 2781TIP3    H2 8221   1.993   1.405   3.599
 2782TIP3   OH2 8222   2.051   1.864   3.714
 2782TIP3    H1 8223   2.029   1.820   3.632
 2782TIP3    H2 8224   2.138   1.831   3.737
 2783TIP3   OH2 8225   2.063   1.426   3.929
 2783TIP3    H1 8226   2.088   1.406   3.838
 2783TIP3    H2 8227   2.100   1.513   3.945
 2784TIP3   OH2 8228   2.591   2.063   3.706
 2784TIP3    H1 8229   2.569   2.142   3.755
 2784TIP3    H2 8230   2.570   1.991   3.766
 2785TIP3   OH2 8231   2.193   1.981   4.254
 2785TIP3    H1 8232   2.137   2.045   4.298
 2785TIP3    H2 8233   2.132   1.928   4.202
 2786TIP3   OH2 8234   2.554   1.302   2.993
 2786TIP3    H1 8235   2.581   1.381   3.041
 2786TIP3    H2 8236   2.538   1.333   2.904
 2787TIP3   OH2 8237   1.949   1.540   4.355
 2787TIP3    H1 8238   1.956   1.626   4.397
 2787TIP3    H2 8239   1.856   1.519   4.358
 2788TIP3   OH2 8240   2.274   2.029   3.230
 2788TIP3    H1 8241   2.332   2.068   3.296
 2788TIP3    H2 8242   2.195   2.083   3.233
 2789TIP3   OH2 8243   1.990   2.150   4.337
 2789TIP3    H1 8244   1.957   2.152   4.247
 2789TIP3    H2 8245   1.913   2.129   4.391
 2790TIP3   OH2 8246   3.045   0.560   3.029
 2790TIP3    H1 8247   2.966   0.571   3.081
 2790TIP3    H2 8248   3.056   0.643   2.983
 2791TIP3   OH2 8249   1.787   1.283   3.367
 2791TIP3    H1 8250   1.726   1.350   3.335
 2791TIP3    H2 8251   1.732   1.215   3.405
 2792TIP3   OH2 8252   2.842   1.927   2.576
 2792TIP3    H1 8253   2.846   2.022   2.564
 2792TIP3    H2 8254   2.933   1.898   2.565
 2793TIP3   OH2 8255   1.568   1.681   4.285
 2793TIP3    H1 8256   1.506   1.662   4.215
 2793TIP3    H2 8257   1.606   1.595   4.307
 2794TIP3   OH2 8258   1.423   1.874   3.927
 2794TIP3    H1 8259   1.516   1.874   3.907
 2794TIP3    H2 8260   1.407   1.961   3.965
 2795TIP3   OH2 8261   3.278   2.303   3.954
 2795TIP3    H1 8262   3.286   2.217   3.995
 2795TIP3    H2 8263   3.204   2.344   4.000
 2796TIP3   OH2 8264   2.393   2.112   4.111
 2796TIP3    H1 8265   2.396   2.203   4.139
 2796TIP3    H2 8266   2.323   2.072   4.162
 2797TIP3   OH2 8267   2.153   2.254   3.048
 2797TIP3    H1 8268   2.096   2.230   2.975
 2797TIP3    H2 8269   2.112   2.332   3.086
 2798TIP3   OH2 8270   1.596   2.089   3.445
 2798TIP3    H1 8271   1.642   2.082   3.528
 2798TIP3    H2 8272   1.524   2.025   3.452
 2799TIP3   OH2 8273   2.360   2.145   2.702
 2799TIP3    H1 8274   2.414   2.076   2.664
 2799TIP3    H2 8275   2.387   2.149   2.794
 2800TIP3   OH2 8276   2.404   2.184   2.975
 2800TIP3    H1 8277   2.317   2.202   3.011
 2800TIP3    H2 8278   2.445   2.126   3.039
 2801TIP3   OH2 8279   3.177   1.455   4.233
 2801TIP3    H1 8280   3.093   1.466   4.188
 2801TIP3    H2 8281   3.193   1.361   4.233
 2802TIP3   OH2 8282   1.774   1.862   4.274
 2802TIP3    H1 8283   1.822   1.849   4.356
 2802TIP3    H2 8284   1.699   1.803   4.280
 2803TIP3   OH2 8285   2.171   0.690   4.058
 2803TIP3    H1 8286   2.087   0.655   4.028
 2803TIP3    H2 8287   2.150   0.772   4.101
 2804TIP3   OH2 8288   2.706   0.804   4.253
 2804TIP3    H1 8289   2.772   0.777   4.316
 2804TIP3    H2 8290   2.622   0.785   4.295
 2805TIP3   OH2 8291   2.945   1.234   4.170
 2805TIP3    H1 8292   2.898   1.231   4.253
 2805TIP3    H2 8293   2.922   1.319   4.132
 2806TIP3   OH2 8294   2.646   1.342   2.709
 2806TIP3    H1 8295   2.576   1.349   2.644
 2806TIP3    H2 8296   2.678   1.432   2.719
 2807TIP3   OH2 8297   2.107   1.206   4.078
 2807TIP3    H1 8298   2.055   1.224   4.157
 2807TIP3    H2 8299   2.093   1.283   4.023
 2808TIP3   OH2 8300   1.987   1.087   3.590
 2808TIP3    H1 8301   1.893   1.076   3.597
 2808TIP3    H2 8302   2.009   1.052   3.504
 2809TIP3   OH2 8303   2.480   1.188   3.305
 2809TIP3    H1 8304   2.415   1.245   3.262
 2809TIP3    H2 8305   2.529   1.149   3.232
 2810TIP3   OH2 8306   2.657   1.457   4.412
 2810TIP3    H1 8307   2.634   1.383   4.467
 2810TIP3    H2 8308   2.752   1.468   4.423
 2811TIP3   OH2 8309   2.635   1.206   3.552
 2811TIP3    H1 8310   2.578   1.241   3.484
 2811TIP3    H2 8311   2.670   1.125   3.514
 2812TIP3   OH2 8312   1.927   1.234   4.286
 2812TIP3    H1 8313   1.944   1.300   4.352
 2812TIP3    H2 8314   1.912   1.153   4.335
 2813TIP3   OH2 8315   2.652   1.449   3.982
 2813TIP3    H1 8316   2.682   1.382   3.921
 2813TIP3    H2 8317   2.619   1.400   4.058
 2814TIP3   OH2 8318   2.319   0.915   3.655
 2814TIP3    H1 8319   2.235   0.911   3.700
 2814TIP3    H2 8320   2.384   0.915   3.725
 2815TIP3   OH2 8321   1.744   0.959   3.669
 2815TIP3    H1 8322   1.659   0.971   3.626
 2815TIP3    H2 8323   1.779   0.878   3.632
 2816TIP3   OH2 8324   2.055   0.982   3.352
 2816TIP3    H1 8325   2.150   0.984   3.337
 2816TIP3    H2 8326   2.018   1.025   3.275
 2817TIP3   OH2 8327   2.806   0.986   3.855
 2817TIP3    H1 8328   2.772   1.002   3.943
 2817TIP3    H2 8329   2.742   0.926   3.815
 2818TIP3   OH2 8330   2.980   2.676   4.071
 2818TIP3    H1 8331   2.973   2.702   3.979
 2818TIP3    H2 8332   3.053   2.728   4.106
 2819TIP3   OH2 8333   1.934   1.785   4.496
 2819TIP3    H1 8334   2.012   1.821   4.538
 2819TIP3    H2 8335   1.867   1.786   4.564
 2820TIP3   OH2 8336   2.401   1.240   3.750
 2820TIP3    H1 8337   2.471   1.203   3.697
 2820TIP3    H2 8338   2.410   1.197   3.835
 2821TIP3   OH2 8339   1.953   0.705   3.637
 2821TIP3    H1 8340   1.964   0.612   3.657
 2821TIP3    H2 8341   2.004   0.718   3.557
 2822TIP3   OH2 8342   2.376   1.135   4.043
 2822TIP3    H1 8343   2.287   1.171   4.051
 2822TIP3    H2 8344   2.431   1.197   4.089
 2823TIP3   OH2 8345   3.009   1.762   3.765
 2823TIP3    H1 8346   3.035   1.809   3.685
 2823TIP3    H2 8347   2.927   1.718   3.741
 2824TIP3   OH2 8348   2.553   0.835   2.994
 2824TIP3    H1 8349   2.459   0.852   2.993
 2824TIP3    H2 8350   2.594   0.921   2.995
 2825TIP3   OH2 8351   2.520   1.852   4.130
 2825TIP3    H1 8352   2.529   1.825   4.221
 2825TIP3    H2 8353   2.473   1.935   4.135
 2826TIP3   OH2 8354   2.650   1.074   3.100
 2826TIP3    H1 8355   2.743   1.094   3.114
 2826TIP3    H2 8356   2.618   1.146   3.047
 2827TIP3   OH2 8357   1.809   1.551   3.811
 2827TIP3    H1 8358   1.836   1.522   3.724
 2827TIP3    H2 8359   1.842   1.483   3.870
 2828TIP3   OH2 8360   1.685   1.467   4.423
 2828TIP3    H1 8361   1.703   1.456   4.516
 2828TIP3    H2 8362   1.614   1.405   4.404
 2829TIP3   OH2 8363   2.409   1.580   4.443
 2829TIP3    H1 8364   2.347   1.527   4.394
 2829TIP3    H2 8365   2.495   1.550   4.414
 2830TIP3   OH2 8366   2.675   2.110   4.025
 2830TIP3    H1 8367   2.580   2.102   4.035
 2830TIP3    H2 8368   2.703   2.158   4.103
 2831TIP3   OH2 8369   3.085   1.177   2.934
 2831TIP3    H1 8370   3.028   1.127   2.874
 2831TIP3    H2 8371   3.083   1.266   2.899
 2832TIP3   OH2 8372   3.311   2.027   3.986
 2832TIP3    H1 8373   3.215   2.019   3.987
 2832TIP3    H2 8374   3.341   1.943   3.950
 2833TIP3   OH2 8375   2.787   1.993   2.845
 2833TIP3    H1 8376   2.753   1.927   2.906
 2833TIP3    H2 8377   2.793   1.947   2.761
 2834TIP3   OH2 8378   2.778   1.623   3.681
 2834TIP3    H1 8379   2.687   1.601   3.698
 2834TIP3    H2 8380   2.815   1.547   3.637
 2835TIP3   OH2 8381   1.896   1.857   3.429
 2835TIP3    H1 8382   1.899   1.938   3.377
 2835TIP3    H2 8383   1.803   1.841   3.442
 2836TIP3   OH2 8384   2.074   1.643   3.462
 2836TIP3    H1 8385   2.028   1.716   3.420
 2836TIP3    H2 8386   2.006   1.580   3.482
 2837TIP3   OH2 8387   2.176   2.198   3.905
 2837TIP3    H1 8388   2.212   2.271   3.854
 2837TIP3    H2 8389   2.251   2.164   3.954
 2838TIP3   OH2 8390   1.824   2.094   3.286
 2838TIP3    H1 8391   1.740   2.098   3.331
 2838TIP3    H2 8392   1.856   2.184   3.286
 2839TIP3   OH2 8393   2.567   1.830   3.863
 2839TIP3    H1 8394   2.555   1.831   3.958
 2839TIP3    H2 8395   2.642   1.773   3.848
 2840TIP3   OH2 8396   2.533   1.717   2.748
 2840TIP3    H1 8397   2.588   1.702   2.825
 2840TIP3    H2 8398   2.445   1.692   2.777
 2841TIP3   OH2 8399   2.816   2.360   3.906
 2841TIP3    H1 8400   2.737   2.306   3.908
 2841TIP3    H2 8401   2.797   2.428   3.840
 2842TIP3   OH2 8402   2.878   2.204   2.564
 2842TIP3    H1 8403   2.918   2.273   2.511
 2842TIP3    H2 8404   2.797   2.243   2.598
 2843TIP3   OH2 8405   1.896   0.976   4.434
 2843TIP3    H1 8406   1.801   0.981   4.441
 2843TIP3    H2 8407   1.922   0.913   4.502
 2844TIP3   OH2 8408   2.706   1.667   2.957
 2844TIP3    H1 8409   2.678   1.603   3.022
 2844TIP3    H2 8410   2.801   1.653   2.949
 2845TIP3   OH2 8411   1.619   2.061   4.069
 2845TIP3    H1 8412   1.668   1.984   4.098
 2845TIP3    H2 8413   1.646   2.131   4.129
 2846TIP3   OH2 8414   1.875   1.706   2.747
 2846TIP3    H1 8415   1.929   1.634   2.713
 2846TIP3    H2 8416   1.883   1.701   2.842
 2847TIP3   OH2 8417   1.867   1.708   3.019
 2847TIP3    H1 8418   1.945   1.676   3.065
 2847TIP3    H2 8419   1.870   1.803   3.029
 2848TIP3   OH2 8420   1.607   1.444   3.244
 2848TIP3    H1 8421   1.531   1.459   3.299
 2848TIP3    H2 8422   1.593   1.499   3.167
 2849TIP3   OH2 8423   2.732   1.042   4.114
 2849TIP3    H1 8424   2.814   1.079   4.149
 2849TIP3    H2 8425   2.719   0.962   4.164
 2850TIP3   OH2 8426   2.614   0.797   3.272
 2850TIP3    H1 8427   2.595   0.821   3.181
 2850TIP3    H2 8428   2.651   0.876   3.311
 2851TIP3   OH2 8429   2.084   1.913   2.925
 2851TIP3    H1 8430   2.018   1.935   2.991
 2851TIP3    H2 8431   2.139   1.991   2.919
 2852TIP3   OH2 8432   2.330   0.970   3.381
 2852TIP3    H1 8433   2.385   1.045   3.361
 2852TIP3    H2 8434   2.325   0.970   3.477
 2853TIP3   OH2 8435   2.573   1.291   4.188
 2853TIP3    H1 8436   2.591   1.343   4.266
 2853TIP3    H2 8437   2.627   1.212   4.199
 2854TIP3   OH2 8438   2.460   0.702   3.488
 2854TIP3    H1 8439   2.436   0.781   3.537
 2854TIP3    H2 8440   2.513   0.734   3.414
 2855TIP3   OH2 8441   1.842   1.985   3.035
 2855TIP3    H1 8442   1.820   2.055   2.973
 2855TIP3    H2 8443   1.831   2.024   3.121
 2856TIP3   OH2 8444   3.211   1.185   4.167
 2856TIP3    H1 8445   3.116   1.186   4.173
 2856TIP3    H2 8446   3.229   1.154   4.078
 2857TIP3   OH2 8447   2.864   1.384   3.558
 2857TIP3    H1 8448   2.788   1.327   3.566
 2857TIP3    H2 8449   2.934   1.337   3.602
 2858TIP3   OH2 8450   1.595   1.660   3.047
 2858TIP3    H1 8451   1.668   1.720   3.065
 2858TIP3    H2 8452   1.631   1.596   2.985
 2859TIP3   OH2 8453   2.835   2.343   3.502
 2859TIP3    H1 8454   2.788   2.386   3.430
 2859TIP3    H2 8455   2.927   2.358   3.482
 2860TIP3   OH2 8456   1.909   0.600   4.029
 2860TIP3    H1 8457   1.873   0.556   3.952
 2860TIP3    H2 8458   1.906   0.534   4.099
 2861TIP3   OH2 8459   1.446   1.826   3.414
 2861TIP3    H1 8460   1.375   1.861   3.467
 2861TIP3    H2 8461   1.432   1.863   3.327
 2862TIP3   OH2 8462   1.604   2.366   4.491
 2862TIP3    H1 8463   1.689   2.367   4.534
 2862TIP3    H2 8464   1.581   2.273   4.485
 2863TIP3   OH2 8465   2.086   2.331   4.530
 2863TIP3    H1 8466   2.181   2.320   4.536
 2863TIP3    H2 8467   2.060   2.276   4.457
 2864TIP3   OH2 8468   2.072   1.898   2.649
 2864TIP3    H1 8469   2.019   1.864   2.721
 2864TIP3    H2 8470   2.157   1.856   2.659
 2865TIP3   OH2 8471   2.731   2.236   4.260
 2865TIP3    H1 8472   2.718   2.171   4.329
 2865TIP3    H2 8473   2.802   2.291   4.293
 2866TIP3   OH2 8474   2.507   1.953   2.571
 2866TIP3    H1 8475   2.543   1.886   2.628
 2866TIP3    H2 8476   2.562   1.950   2.493
 2867TIP3   OH2 8477   1.733   1.773   4.684
 2867TIP3    H1 8478   1.751   1.678   4.686
 2867TIP3    H2 8479   1.648   1.780   4.642
 2868TIP3   OH2 8480   2.343   1.857   4.457
 2868TIP3    H1 8481   2.299   1.879   4.374
 2868TIP3    H2 8482   2.370   1.766   4.446
 2869TIP3   OH2 8483   2.230   1.655   2.728
 2869TIP3    H1 8484   2.245   1.667   2.822
 2869TIP3    H2 8485   2.223   1.560   2.717
 2870TIP3   OH2 8486   2.836   1.868   4.064
 2870TIP3    H1 8487   2.907   1.917   4.022
 2870TIP3    H2 8488   2.759   1.924   4.056
 2871TIP3   OH2 8489   1.853   1.509   4.669
 2871TIP3    H1 8490   1.926   1.452   4.645
 2871TIP3    H2 8491   1.877   1.543   4.755
 2872TIP3   OH2 8492   2.006   1.295   3.149
 2872TIP3    H1 8493   1.951   1.312   3.225
 2872TIP3    H2 8494   1.949   1.247   3.089
 2873TIP3   OH2 8495   2.192   1.399   4.331
 2873TIP3    H1 8496   2.111   1.451   4.334
 2873TIP3    H2 8497   2.237   1.428   4.252
 2874TIP3   OH2 8498   2.708   1.797   4.463
 2874TIP3    H1 8499   2.786   1.781   4.410
 2874TIP3    H2 8500   2.705   1.723   4.524
 2875TIP3   OH2 8501   2.878   1.483   2.593
 2875TIP3    H1 8502   2.833   1.419   2.537
 2875TIP3    H2 8503   2.831   1.565   2.579
 2876TIP3   OH2 8504   2.314   1.182   4.450
 2876TIP3    H1 8505   2.311   1.103   4.397
 2876TIP3    H2 8506   2.271   1.248   4.397
 2877TIP3   OH2 8507   2.313   0.967   4.260
 2877TIP3    H1 8508   2.341   1.010   4.179
 2877TIP3    H2 8509   2.221   0.945   4.245
 2878TIP3   OH2 8510   2.345   1.509   4.135
 2878TIP3    H1 8511   2.424   1.513   4.082
 2878TIP3    H2 8512   2.285   1.571   4.094
 2879TIP3   OH2 8513   2.930   1.476   4.520
 2879TIP3    H1 8514   2.974   1.391   4.522
 2879TIP3    H2 8515   2.998   1.537   4.492
 2880TIP3   OH2 8516   2.963   1.724   4.253
 2880TIP3    H1 8517   2.906   1.775   4.195
 2880TIP3    H2 8518   3.051   1.738   4.218
 2881TIP3   OH2 8519   2.193   1.291   4.684
 2881TIP3    H1 8520   2.122   1.229   4.700
 2881TIP3    H2 8521   2.223   1.272   4.595
 2882TIP3   OH2 8522   2.444   0.734   4.331
 2882TIP3    H1 8523   2.399   0.815   4.306
 2882TIP3    H2 8524   2.379   0.666   4.317
 2883TIP3   OH2 8525   2.570   1.236   4.545
 2883TIP3    H1 8526   2.556   1.225   4.639
 2883TIP3    H2 8527   2.485   1.214   4.506
 2884TIP3   OH2 8528   2.812   1.189   4.401
 2884TIP3    H1 8529   2.736   1.188   4.460
 2884TIP3    H2 8530   2.885   1.157   4.455
 2885TIP3   OH2 8531   3.036   1.125   4.554
 2885TIP3    H1 8532   3.051   1.032   4.570
 2885TIP3    H2 8533   3.036   1.164   4.642
 2886TIP3   OH2 8534   2.030   1.074   4.737
 2886TIP3    H1 8535   2.032   0.986   4.699
 2886TIP3    H2 8536   2.063   1.062   4.826
 2887TIP3   OH2 8537   2.539   0.735   4.587
 2887TIP3    H1 8538   2.609   0.670   4.576
 2887TIP3    H2 8539   2.496   0.738   4.502
 2888TIP3   OH2 8540   2.604   0.955   4.747
 2888TIP3    H1 8541   2.584   0.887   4.683
 2888TIP3    H2 8542   2.531   1.017   4.739
 2889TIP3   OH2 8543   1.830   2.185   2.840
 2889TIP3    H1 8544   1.923   2.181   2.821
 2889TIP3    H2 8545   1.794   2.242   2.772
 2890TIP3   OH2 8546   1.207   2.173   3.481
 2890TIP3    H1 8547   1.151   2.107   3.442
 2890TIP3    H2 8548   1.262   2.125   3.543
 2891TIP3   OH2 8549   1.360   2.033   3.659
 2891TIP3    H1 8550   1.351   1.962   3.723
 2891TIP3    H2 8551   1.408   2.102   3.706
 2892TIP3   OH2 8552   3.095   2.415   3.461
 2892TIP3    H1 8553   3.106   2.456   3.547
 2892TIP3    H2 8554   3.127   2.481   3.399
 2893TIP3   OH2 8555   3.117   2.447   3.737
 2893TIP3    H1 8556   3.066   2.367   3.742
 2893TIP3    H2 8557   3.175   2.443   3.814
 2894TIP3   OH2 8558   3.159   2.132   4.308
 2894TIP3    H1 8559   3.088   2.134   4.372
 2894TIP3    H2 8560   3.202   2.217   4.318
 2895TIP3   OH2 8561   2.985   1.639   2.934
 2895TIP3    H1 8562   3.053   1.701   2.908
 2895TIP3    H2 8563   3.020   1.598   3.013
 2896TIP3   OH2 8564   3.104   1.511   3.142
 2896TIP3    H1 8565   3.039   1.466   3.196
 2896TIP3    H2 8566   3.167   1.546   3.205
 2897TIP3   OH2 8567   3.159   1.902   3.580
 2897TIP3    H1 8568   3.213   1.833   3.542
 2897TIP3    H2 8569   3.140   1.960   3.506
 2898TIP3   OH2 8570   2.994   2.201   3.765
 2898TIP3    H1 8571   2.928   2.244   3.819
 2898TIP3    H2 8572   2.943   2.155   3.698
 2899TIP3   OH2 8573   3.046   1.407   2.794
 2899TIP3    H1 8574   2.988   1.418   2.718
 2899TIP3    H2 8575   3.029   1.484   2.848
 2900TIP3   OH2 8576   2.933   1.083   2.733
 2900TIP3    H1 8577   2.865   1.142   2.700
 2900TIP3    H2 8578   2.893   0.996   2.729
 2901TIP3   OH2 8579   2.923   1.363   3.290
 2901TIP3    H1 8580   2.925   1.268   3.280
 2901TIP3    H2 8581   2.907   1.376   3.384
 2902TIP3   OH2 8582   1.547   1.434   4.033
 2902TIP3    H1 8583   1.541   1.407   3.942
 2902TIP3    H2 8584   1.641   1.439   4.050
 2903TIP3   OH2 8585   3.206   1.785   4.146
 2903TIP3    H1 8586   3.276   1.720   4.140
 2903TIP3    H2 8587   3.228   1.849   4.078
 2904TIP3   OH2 8588   3.394   1.594   4.161
 2904TIP3    H1 8589   3.319   1.548   4.198
 2904TIP3    H2 8590   3.468   1.534   4.173
 2905TIP3   OH2 8591   2.855   0.823   2.738
 2905TIP3    H1 8592   2.939   0.801   2.778
 2905TIP3    H2 8593   2.790   0.780   2.794
 2906TIP3   OH2 8594   2.923   1.082   3.188
 2906TIP3    H1 8595   2.958   0.994   3.202
 2906TIP3    H2 8596   2.975   1.117   3.115
 2907TIP3   OH2 8597   3.080   1.257   3.678
 2907TIP3    H1 8598   3.162   1.280   3.635
 2907TIP3    H2 8599   3.088   1.291   3.767
 2908TIP3   OH2 8600   3.144   1.401   3.908
 2908TIP3    H1 8601   3.068   1.432   3.957
 2908TIP3    H2 8602   3.179   1.479   3.865
 2909TIP3   OH2 8603   1.763   1.124   4.710
 2909TIP3    H1 8604   1.859   1.120   4.708
 2909TIP3    H2 8605   1.737   1.041   4.750
 2910TIP3   OH2 8606   3.586   0.971   4.469
 2910TIP3    H1 8607   3.647   0.920   4.417
 2910TIP3    H2 8608   3.568   1.049   4.416
 2911TIP3   OH2 8609   3.026   0.828   3.219
 2911TIP3    H1 8610   3.072   0.815   3.302
 2911TIP3    H2 8611   2.963   0.756   3.215
 2912TIP3   OH2 8612   1.729   0.817   4.066
 2912TIP3    H1 8613   1.787   0.741   4.055
 2912TIP3    H2 8614   1.782   0.892   4.038
 2913TIP3   OH2 8615   1.535   1.095   4.115
 2913TIP3    H1 8616   1.580   1.082   4.031
 2913TIP3    H2 8617   1.557   1.185   4.139
 2914TIP3   OH2 8618   3.469   1.130   4.275
 2914TIP3    H1 8619   3.389   1.173   4.304
 2914TIP3    H2 8620   3.440   1.061   4.217
 2915TIP3   OH2 8621   3.107   0.774   2.849
 2915TIP3    H1 8622   3.148   0.702   2.803
 2915TIP3    H2 8623   3.172   0.844   2.849
 2916TIP3   OH2 8624   2.668   2.304   3.112
 2916TIP3    H1 8625   2.720   2.285   3.035
 2916TIP3    H2 8626   2.719   2.368   3.161
 2917TIP3   OH2 8627   1.731   0.676   4.429
 2917TIP3    H1 8628   1.681   0.671   4.511
 2917TIP3    H2 8629   1.670   0.714   4.366
 2918TIP3   OH2 8630   1.771   2.095   4.506
 2918TIP3    H1 8631   1.680   2.074   4.485
 2918TIP3    H2 8632   1.776   2.088   4.601
 2919TIP3   OH2 8633   1.949   2.135   4.051
 2919TIP3    H1 8634   1.895   2.206   4.016
 2919TIP3    H2 8635   2.034   2.147   4.008
 2920TIP3   OH2 8636   2.396   2.377   4.188
 2920TIP3    H1 8637   2.432   2.379   4.277
 2920TIP3    H2 8638   2.458   2.430   4.137
 2921TIP3   OH2 8639   2.574   2.531   4.049
 2921TIP3    H1 8640   2.643   2.478   4.009
 2921TIP3    H2 8641   2.621   2.588   4.110
 2922TIP3   OH2 8642   3.365   0.892   4.148
 2922TIP3    H1 8643   3.276   0.894   4.112
 2922TIP3    H2 8644   3.394   0.801   4.136
 2923TIP3   OH2 8645   1.632   2.397   4.077
 2923TIP3    H1 8646   1.543   2.417   4.048
 2923TIP3    H2 8647   1.637   2.435   4.165
 2924TIP3   OH2 8648   1.861   2.370   3.930
 2924TIP3    H1 8649   1.780   2.380   3.980
 2924TIP3    H2 8650   1.839   2.400   3.842
 2925TIP3   OH2 8651   2.288   2.401   3.729
 2925TIP3    H1 8652   2.216   2.417   3.667
 2925TIP3    H2 8653   2.300   2.485   3.773
 2926TIP3   OH2 8654   2.554   2.341   3.779
 2926TIP3    H1 8655   2.461   2.352   3.764
 2926TIP3    H2 8656   2.594   2.421   3.743
 2927TIP3   OH2 8657   2.770   2.533   3.697
 2927TIP3    H1 8658   2.752   2.616   3.653
 2927TIP3    H2 8659   2.787   2.471   3.626
 2928TIP3   OH2 8660   1.536   2.169   3.822
 2928TIP3    H1 8661   1.561   2.151   3.912
 2928TIP3    H2 8662   1.610   2.140   3.769
 2929TIP3   OH2 8663   1.736   2.055   3.676
 2929TIP3    H1 8664   1.748   1.974   3.725
 2929TIP3    H2 8665   1.824   2.092   3.670
 2930TIP3   OH2 8666   2.002   2.152   3.677
 2930TIP3    H1 8667   2.027   2.061   3.661
 2930TIP3    H2 8668   2.038   2.173   3.763
 2931TIP3   OH2 8669   2.578   0.810   3.776
 2931TIP3    H1 8670   2.528   0.742   3.822
 2931TIP3    H2 8671   2.638   0.761   3.720
 2932TIP3   OH2 8672   3.096   0.692   3.675
 2932TIP3    H1 8673   3.133   0.740   3.601
 2932TIP3    H2 8674   3.002   0.704   3.667
 2933TIP3   OH2 8675   3.193   0.788   3.437
 2933TIP3    H1 8676   3.262   0.736   3.396
 2933TIP3    H2 8677   3.221   0.879   3.423
 2934TIP3   OH2 8678   2.249   0.573   3.652
 2934TIP3    H1 8679   2.319   0.613   3.601
 2934TIP3    H2 8680   2.279   0.577   3.743
 2935TIP3   OH2 8681   2.817   0.692   3.646
 2935TIP3    H1 8682   2.805   0.662   3.556
 2935TIP3    H2 8683   2.798   0.615   3.700
 2936TIP3   OH2 8684   2.843   0.616   3.208
 2936TIP3    H1 8685   2.757   0.658   3.208
 2936TIP3    H2 8686   2.829   0.533   3.252
 2937TIP3   OH2 8687   1.309   1.955   3.211
 2937TIP3    H1 8688   1.234   1.916   3.168
 2937TIP3    H2 8689   1.307   2.047   3.184
 2938TIP3   OH2 8690   2.241   0.723   3.312
 2938TIP3    H1 8691   2.300   0.673   3.369
 2938TIP3    H2 8692   2.276   0.813   3.315
 2939TIP3   OH2 8693   2.096   2.153   2.777
 2939TIP3    H1 8694   2.187   2.168   2.750
 2939TIP3    H2 8695   2.071   2.073   2.731
 2940TIP3   OH2 8696   2.816   2.259   2.884
 2940TIP3    H1 8697   2.810   2.164   2.876
 2940TIP3    H2 8698   2.773   2.293   2.806
 2941TIP3   OH2 8699   2.028   0.798   4.677
 2941TIP3    H1 8700   1.991   0.728   4.731
 2941TIP3    H2 8701   2.121   0.801   4.702
 2942TIP3   OH2 8702   2.276   0.796   4.796
 2942TIP3    H1 8703   2.357   0.770   4.751
 2942TIP3    H2 8704   2.262   0.727   4.860
 2943TIP3   OH2 8705   1.419   2.017   2.865
 2943TIP3    H1 8706   1.386   2.026   2.955
 2943TIP3    H2 8707   1.489   1.953   2.872
 2944TIP3   OH2 8708   3.104   0.854   4.583
 2944TIP3    H1 8709   3.124   0.824   4.672
 2944TIP3    H2 8710   3.189   0.853   4.538
 2945TIP3   OH2 8711   3.049   2.411   4.059
 2945TIP3    H1 8712   2.968   2.375   4.024
 2945TIP3    H2 8713   3.029   2.504   4.074
 2946TIP3   OH2 8714   4.308   1.785   2.842
 2946TIP3    H1 8715   4.280   1.874   2.822
 2946TIP3    H2 8716   4.238   1.730   2.807
 2947TIP3   OH2 8717   4.305   1.782   3.221
 2947TIP3    H1 8718   4.334   1.747   3.305
 2947TIP3    H2 8719   4.266   1.706   3.176
 2948TIP3   OH2 8720   3.607   1.677   3.587
 2948TIP3    H1 8721   3.633   1.609   3.649
 2948TIP3    H2 8722   3.688   1.723   3.566
 2949TIP3   OH2 8723   4.550   2.084   2.902
 2949TIP3    H1 8724   4.534   2.012   2.962
 2949TIP3    H2 8725   4.578   2.156   2.958
 2950TIP3   OH2 8726   3.580   2.082   3.321
 2950TIP3    H1 8727   3.570   1.987   3.319
 2950TIP3    H2 8728   3.674   2.097   3.307
 2951TIP3   OH2 8729   3.280   1.289   3.100
 2951TIP3    H1 8730   3.236   1.374   3.110
 2951TIP3    H2 8731   3.213   1.232   3.061
 2952TIP3   OH2 8732   3.350   1.577   3.267
 2952TIP3    H1 8733   3.393   1.500   3.303
 2952TIP3    H2 8734   3.398   1.596   3.187
 2953TIP3   OH2 8735   4.197   2.542   2.918
 2953TIP3    H1 8736   4.244   2.474   2.869
 2953TIP3    H2 8737   4.192   2.509   3.008
 2954TIP3   OH2 8738   4.107   2.006   3.270
 2954TIP3    H1 8739   4.138   1.929   3.223
 2954TIP3    H2 8740   4.188   2.053   3.294
 2955TIP3   OH2 8741   5.120   1.327   3.267
 2955TIP3    H1 8742   5.147   1.409   3.308
 2955TIP3    H2 8743   5.138   1.339   3.174
 2956TIP3   OH2 8744   4.517   1.505   3.301
 2956TIP3    H1 8745   4.561   1.422   3.320
 2956TIP3    H2 8746   4.486   1.495   3.211
 2957TIP3   OH2 8747   3.849   1.166   3.267
 2957TIP3    H1 8748   3.835   1.240   3.207
 2957TIP3    H2 8749   3.805   1.092   3.225
 2958TIP3   OH2 8750   4.549   1.258   2.892
 2958TIP3    H1 8751   4.618   1.240   2.955
 2958TIP3    H2 8752   4.596   1.287   2.813
 2959TIP3   OH2 8753   3.491   1.367   3.374
 2959TIP3    H1 8754   3.572   1.350   3.422
 2959TIP3    H2 8755   3.499   1.316   3.294
 2960TIP3   OH2 8756   3.931   1.567   3.172
 2960TIP3    H1 8757   4.024   1.545   3.180
 2960TIP3    H2 8758   3.891   1.487   3.137
 2961TIP3   OH2 8759   5.191   1.536   3.438
 2961TIP3    H1 8760   5.111   1.581   3.414
 2961TIP3    H2 8761   5.204   1.558   3.531
 2962TIP3   OH2 8762   3.849   1.152   3.703
 2962TIP3    H1 8763   3.794   1.186   3.632
 2962TIP3    H2 8764   3.799   1.168   3.783
 2963TIP3   OH2 8765   4.201   2.005   2.711
 2963TIP3    H1 8766   4.157   1.974   2.632
 2963TIP3    H2 8767   4.157   2.087   2.733
 2964TIP3   OH2 8768   3.960   1.927   3.496
 2964TIP3    H1 8769   3.900   1.991   3.534
 2964TIP3    H2 8770   4.003   1.974   3.424
 2965TIP3   OH2 8771   4.757   1.263   3.063
 2965TIP3    H1 8772   4.761   1.202   3.137
 2965TIP3    H2 8773   4.815   1.336   3.090
 2966TIP3   OH2 8774   3.725   1.267   3.486
 2966TIP3    H1 8775   3.785   1.338   3.509
 2966TIP3    H2 8776   3.766   1.224   3.411
 2967TIP3   OH2 8777   3.788   2.117   3.603
 2967TIP3    H1 8778   3.753   2.198   3.566
 2967TIP3    H2 8779   3.725   2.093   3.671
 2968TIP3   OH2 8780   3.187   1.812   2.830
 2968TIP3    H1 8781   3.137   1.840   2.753
 2968TIP3    H2 8782   3.216   1.893   2.871
 2969TIP3   OH2 8783   4.619   2.327   3.072
 2969TIP3    H1 8784   4.532   2.316   3.111
 2969TIP3    H2 8785   4.614   2.410   3.026
 2970TIP3   OH2 8786   4.909   1.230   3.434
 2970TIP3    H1 8787   4.822   1.252   3.402
 2970TIP3    H2 8788   4.968   1.257   3.363
 2971TIP3   OH2 8789   4.208   0.868   3.418
 2971TIP3    H1 8790   4.195   0.774   3.428
 2971TIP3    H2 8791   4.132   0.908   3.461
 2972TIP3   OH2 8792   4.326   2.371   2.743
 2972TIP3    H1 8793   4.371   2.288   2.725
 2972TIP3    H2 8794   4.382   2.438   2.705
 2973TIP3   OH2 8795   4.466   2.155   2.650
 2973TIP3    H1 8796   4.424   2.079   2.612
 2973TIP3    H2 8797   4.502   2.124   2.733
 2974TIP3   OH2 8798   4.848   2.238   3.412
 2974TIP3    H1 8799   4.836   2.161   3.356
 2974TIP3    H2 8800   4.829   2.313   3.355
 2975TIP3   OH2 8801   4.142   1.641   2.670
 2975TIP3    H1 8802   4.054   1.673   2.649
 2975TIP3    H2 8803   4.185   1.631   2.585
 2976TIP3   OH2 8804   4.098   1.419   2.381
 2976TIP3    H1 8805   4.160   1.465   2.438
 2976TIP3    H2 8806   4.150   1.352   2.337
 2977TIP3   OH2 8807   5.041   1.879   3.258
 2977TIP3    H1 8808   4.958   1.927   3.265
 2977TIP3    H2 8809   5.072   1.898   3.170
 2978TIP3   OH2 8810   4.486   1.716   2.646
 2978TIP3    H1 8811   4.430   1.740   2.720
 2978TIP3    H2 8812   4.568   1.688   2.685
 2979TIP3   OH2 8813   4.719   1.756   3.553
 2979TIP3    H1 8814   4.718   1.839   3.600
 2979TIP3    H2 8815   4.635   1.753   3.507
 2980TIP3   OH2 8816   3.719   1.716   3.059
 2980TIP3    H1 8817   3.667   1.661   3.001
 2980TIP3    H2 8818   3.792   1.660   3.086
 2981TIP3   OH2 8819   3.844   2.118   3.210
 2981TIP3    H1 8820   3.823   2.079   3.125
 2981TIP3    H2 8821   3.933   2.089   3.229
 2982TIP3   OH2 8822   3.853   1.684   3.416
 2982TIP3    H1 8823   3.882   1.658   3.328
 2982TIP3    H2 8824   3.897   1.767   3.432
 2983TIP3   OH2 8825   4.379   2.322   3.191
 2983TIP3    H1 8826   4.365   2.401   3.243
 2983TIP3    H2 8827   4.365   2.250   3.253
 2984TIP3   OH2 8828   3.993   2.242   3.739
 2984TIP3    H1 8829   3.936   2.303   3.785
 2984TIP3    H2 8830   3.933   2.187   3.689
 2985TIP3   OH2 8831   4.329   1.574   2.469
 2985TIP3    H1 8832   4.384   1.630   2.523
 2985TIP3    H2 8833   4.353   1.596   2.379
 2986TIP3   OH2 8834   3.739   1.800   3.841
 2986TIP3    H1 8835   3.750   1.885   3.884
 2986TIP3    H2 8836   3.645   1.782   3.847
 2987TIP3   OH2 8837   4.067   2.255   2.744
 2987TIP3    H1 8838   4.147   2.305   2.763
 2987TIP3    H2 8839   4.008   2.319   2.705
 2988TIP3   OH2 8840   3.785   2.409   3.823
 2988TIP3    H1 8841   3.755   2.417   3.733
 2988TIP3    H2 8842   3.706   2.390   3.874
 2989TIP3   OH2 8843   3.555   1.564   2.888
 2989TIP3    H1 8844   3.512   1.593   2.808
 2989TIP3    H2 8845   3.584   1.475   2.869
 2990TIP3   OH2 8846   4.642   2.182   2.064
 2990TIP3    H1 8847   4.647   2.277   2.051
 2990TIP3    H2 8848   4.731   2.151   2.052
 2991TIP3   OH2 8849   3.271   2.168   3.492
 2991TIP3    H1 8850   3.315   2.136   3.414
 2991TIP3    H2 8851   3.204   2.228   3.459
 2992TIP3   OH2 8852   5.084   2.582   3.462
 2992TIP3    H1 8853   5.084   2.487   3.471
 2992TIP3    H2 8854   5.003   2.611   3.505
 2993TIP3   OH2 8855   4.190   2.371   3.596
 2993TIP3    H1 8856   4.192   2.462   3.625
 2993TIP3    H2 8857   4.121   2.330   3.648
 2994TIP3   OH2 8858   3.948   2.499   2.546
 2994TIP3    H1 8859   3.906   2.481   2.462
 2994TIP3    H2 8860   3.918   2.587   2.570
 2995TIP3   OH2 8861   3.388   2.346   2.931
 2995TIP3    H1 8862   3.438   2.339   3.012
 2995TIP3    H2 8863   3.330   2.270   2.932
 2996TIP3   OH2 8864   4.153   2.398   2.188
 2996TIP3    H1 8865   4.210   2.331   2.150
 2996TIP3    H2 8866   4.185   2.410   2.277
 2997TIP3   OH2 8867   4.200   2.447   2.459
 2997TIP3    H1 8868   4.114   2.457   2.499
 2997TIP3    H2 8869   4.254   2.407   2.527
 2998TIP3   OH2 8870   4.973   1.713   3.732
 2998TIP3    H1 8871   4.894   1.730   3.680
 2998TIP3    H2 8872   4.990   1.619   3.721
 2999TIP3   OH2 8873   3.967   0.945   3.545
 2999TIP3    H1 8874   3.882   0.912   3.516
 2999TIP3    H2 8875   3.947   1.029   3.586
 3000TIP3   OH2 8876   4.502   1.063   3.740
 3000TIP3    H1 8877   4.569   1.031   3.800
 3000TIP3    H2 8878   4.419   1.040   3.782
 3001TIP3   OH2 8879   4.746   1.492   3.656
 3001TIP3    H1 8880   4.695   1.488   3.737
 3001TIP3    H2 8881   4.721   1.576   3.617
 3002TIP3   OH2 8882   4.402   1.623   2.211
 3002TIP3    H1 8883   4.368   1.595   2.126
 3002TIP3    H2 8884   4.483   1.670   2.190
 3003TIP3   OH2 8885   4.112   0.995   2.514
 3003TIP3    H1 8886   4.080   1.003   2.604
 3003TIP3    H2 8887   4.080   0.910   2.484
 3004TIP3   OH2 8888   3.901   1.463   3.565
 3004TIP3    H1 8889   3.850   1.481   3.644
 3004TIP3    H2 8890   3.887   1.540   3.509
 3005TIP3   OH2 8891   3.790   1.350   3.080
 3005TIP3    H1 8892   3.699   1.320   3.083
 3005TIP3    H2 8893   3.812   1.351   2.987
 3006TIP3   OH2 8894   4.278   1.445   2.806
 3006TIP3    H1 8895   4.220   1.510   2.766
 3006TIP3    H2 8896   4.326   1.407   2.733
 3007TIP3   OH2 8897   4.453   1.715   3.891
 3007TIP3    H1 8898   4.428   1.645   3.951
 3007TIP3    H2 8899   4.546   1.730   3.909
 3008TIP3   OH2 8900   4.432   1.461   3.038
 3008TIP3    H1 8901   4.371   1.490   2.970
 3008TIP3    H2 8902   4.470   1.380   3.004
 3009TIP3   OH2 8903   3.718   1.490   3.772
 3009TIP3    H1 8904   3.744   1.552   3.840
 3009TIP3    H2 8905   3.706   1.407   3.819
 3010TIP3   OH2 8906   3.765   0.964   2.480
 3010TIP3    H1 8907   3.768   0.962   2.575
 3010TIP3    H2 8908   3.685   1.013   2.459
 3011TIP3   OH2 8909   3.315   1.010   3.353
 3011TIP3    H1 8910   3.388   1.044   3.405
 3011TIP3    H2 8911   3.356   0.982   3.271
 3012TIP3   OH2 8912   3.289   0.993   2.872
 3012TIP3    H1 8913   3.333   1.022   2.791
 3012TIP3    H2 8914   3.229   1.065   2.893
 3013TIP3   OH2 8915   4.448   1.704   3.468
 3013TIP3    H1 8916   4.478   1.636   3.408
 3013TIP3    H2 8917   4.414   1.655   3.543
 3014TIP3   OH2 8918   4.106   1.160   3.152
 3014TIP3    H1 8919   4.024   1.164   3.201
 3014TIP3    H2 8920   4.174   1.170   3.218
 3015TIP3   OH2 8921   3.544   1.222   3.149
 3015TIP3    H1 8922   3.453   1.231   3.120
 3015TIP3    H2 8923   3.570   1.134   3.122
 3016TIP3   OH2 8924   4.604   1.244   3.348
 3016TIP3    H1 8925   4.562   1.258   3.433
 3016TIP3    H2 8926   4.546   1.182   3.303
 3017TIP3   OH2 8927   3.564   1.302   2.572
 3017TIP3    H1 8928   3.567   1.226   2.515
 3017TIP3    H2 8929   3.651   1.305   2.612
 3018TIP3   OH2 8930   4.775   2.934   3.557
 3018TIP3    H1 8931   4.770   2.957   3.464
 3018TIP3    H2 8932   4.851   2.983   3.590
 3019TIP3   OH2 8933   3.735   2.045   3.973
 3019TIP3    H1 8934   3.811   2.077   4.022
 3019TIP3    H2 8935   3.664   2.042   4.037
 3020TIP3   OH2 8936   4.198   1.497   3.236
 3020TIP3    H1 8937   4.264   1.459   3.178
 3020TIP3    H2 8938   4.211   1.452   3.319
 3021TIP3   OH2 8939   3.719   0.984   3.112
 3021TIP3    H1 8940   3.687   0.906   3.157
 3021TIP3    H2 8941   3.775   0.950   3.041
 3022TIP3   OH2 8942   4.171   1.389   3.533
 3022TIP3    H1 8943   4.083   1.428   3.538
 3022TIP3    H2 8944   4.227   1.453   3.576
 3023TIP3   OH2 8945   3.896   1.786   2.619
 3023TIP3    H1 8946   3.832   1.716   2.612
 3023TIP3    H2 8947   3.888   1.818   2.709
 3024TIP3   OH2 8948   4.808   2.021   3.249
 3024TIP3    H1 8949   4.832   2.070   3.170
 3024TIP3    H2 8950   4.725   1.978   3.226
 3025TIP3   OH2 8951   4.361   1.106   2.467
 3025TIP3    H1 8952   4.270   1.085   2.487
 3025TIP3    H2 8953   4.376   1.192   2.506
 3026TIP3   OH2 8954   4.309   2.104   3.618
 3026TIP3    H1 8955   4.328   2.080   3.709
 3026TIP3    H2 8956   4.271   2.192   3.623
 3027TIP3   OH2 8957   4.438   1.343   2.585
 3027TIP3    H1 8958   4.532   1.348   2.604
 3027TIP3    H2 8959   4.420   1.423   2.535
 3028TIP3   OH2 8960   3.604   1.810   3.295
 3028TIP3    H1 8961   3.638   1.783   3.209
 3028TIP3    H2 8962   3.638   1.743   3.356
 3029TIP3   OH2 8963   4.049   1.933   2.439
 3029TIP3    H1 8964   4.006   2.018   2.445
 3029TIP3    H2 8965   3.999   1.877   2.498
 3030TIP3   OH2 8966   3.462   1.759   3.921
 3030TIP3    H1 8967   3.493   1.726   4.005
 3030TIP3    H2 8968   3.409   1.687   3.886
 3031TIP3   OH2 8969   4.204   1.845   3.924
 3031TIP3    H1 8970   4.147   1.785   3.876
 3031TIP3    H2 8971   4.293   1.813   3.908
 3032TIP3   OH2 8972   4.469   2.362   3.515
 3032TIP3    H1 8973   4.373   2.360   3.523
 3032TIP3    H2 8974   4.498   2.414   3.590
 3033TIP3   OH2 8975   4.876   1.433   2.420
 3033TIP3    H1 8976   4.818   1.383   2.363
 3033TIP3    H2 8977   4.878   1.521   2.382
 3034TIP3   OH2 8978   5.097   2.291   3.501
 3034TIP3    H1 8979   5.001   2.288   3.497
 3034TIP3    H2 8980   5.126   2.262   3.414
 3035TIP3   OH2 8981   4.579   2.252   2.330
 3035TIP3    H1 8982   4.554   2.184   2.392
 3035TIP3    H2 8983   4.591   2.205   2.247
 3036TIP3   OH2 8984   4.574   1.880   3.171
 3036TIP3    H1 8985   4.481   1.858   3.183
 3036TIP3    H2 8986   4.610   1.804   3.125
 3037TIP3   OH2 8987   3.699   2.114   2.925
 3037TIP3    H1 8988   3.705   2.192   2.871
 3037TIP3    H2 8989   3.606   2.092   2.925
 3038TIP3   OH2 8990   3.841   1.880   2.867
 3038TIP3    H1 8991   3.807   1.967   2.887
 3038TIP3    H2 8992   3.809   1.824   2.938
 3039TIP3   OH2 8993   3.970   2.454   3.392
 3039TIP3    H1 8994   4.006   2.527   3.341
 3039TIP3    H2 8995   4.045   2.419   3.440
 3040TIP3   OH2 8996   3.621   2.352   2.774
 3040TIP3    H1 8997   3.536   2.359   2.818
 3040TIP3    H2 8998   3.656   2.441   2.775
 3041TIP3   OH2 8999   4.361   2.088   3.350
 3041TIP3    H1 9000   4.351   2.086   3.445
 3041TIP3    H2 9001   4.438   2.033   3.332
 3042TIP3   OH2 9002   4.333   1.980   2.234
 3042TIP3    H1 9003   4.388   1.957   2.309
 3042TIP3    H2 9004   4.244   1.955   2.261
 3043TIP3   OH2 9005   4.607   2.623   3.397
 3043TIP3    H1 9006   4.530   2.567   3.392
 3043TIP3    H2 9007   4.595   2.688   3.328
 3044TIP3   OH2 9008   4.672   2.460   2.051
 3044TIP3    H1 9009   4.713   2.529   1.998
 3044TIP3    H2 9010   4.593   2.500   2.086
 3045TIP3   OH2 9011   3.692   1.233   3.920
 3045TIP3    H1 9012   3.598   1.242   3.934
 3045TIP3    H2 9013   3.721   1.174   3.990
 3046TIP3   OH2 9014   4.495   1.914   2.448
 3046TIP3    H1 9015   4.481   1.850   2.519
 3046TIP3    H2 9016   4.590   1.914   2.435
 3047TIP3   OH2 9017   3.699   1.960   2.232
 3047TIP3    H1 9018   3.715   1.871   2.203
 3047TIP3    H2 9019   3.684   1.953   2.326
 3048TIP3   OH2 9020   3.647   1.964   2.504
 3048TIP3    H1 9021   3.721   1.933   2.557
 3048TIP3    H2 9022   3.650   2.059   2.511
 3049TIP3   OH2 9023   3.375   1.657   2.678
 3049TIP3    H1 9024   3.317   1.680   2.749
 3049TIP3    H2 9025   3.400   1.740   2.638
 3050TIP3   OH2 9026   4.524   1.305   3.608
 3050TIP3    H1 9027   4.612   1.334   3.633
 3050TIP3    H2 9028   4.513   1.222   3.654
 3051TIP3   OH2 9029   4.413   1.045   2.760
 3051TIP3    H1 9030   4.399   1.071   2.669
 3051TIP3    H2 9031   4.447   1.124   2.803
 3052TIP3   OH2 9032   3.908   2.165   2.451
 3052TIP3    H1 9033   3.824   2.192   2.489
 3052TIP3    H2 9034   3.930   2.236   2.391
 3053TIP3   OH2 9035   4.145   1.205   2.872
 3053TIP3    H1 9036   4.169   1.293   2.843
 3053TIP3    H2 9037   4.106   1.219   2.959
 3054TIP3   OH2 9038   4.367   1.547   3.673
 3054TIP3    H1 9039   4.392   1.599   3.749
 3054TIP3    H2 9040   4.422   1.469   3.678
 3055TIP3   OH2 9041   4.251   0.957   2.973
 3055TIP3    H1 9042   4.219   1.038   3.013
 3055TIP3    H2 9043   4.307   0.987   2.901
 3056TIP3   OH2 9044   3.650   2.240   2.519
 3056TIP3    H1 9045   3.624   2.307   2.456
 3056TIP3    H2 9046   3.638   2.282   2.605
 3057TIP3   OH2 9047   3.757   0.963   2.755
 3057TIP3    H1 9048   3.751   1.055   2.780
 3057TIP3    H2 9049   3.849   0.940   2.765
 3058TIP3   OH2 9050   5.009   1.445   3.651
 3058TIP3    H1 9051   4.914   1.448   3.662
 3058TIP3    H2 9052   5.023   1.405   3.566
 3059TIP3   OH2 9053   4.660   1.639   3.044
 3059TIP3    H1 9054   4.584   1.582   3.050
 3059TIP3    H2 9055   4.730   1.592   3.089
 3060TIP3   OH2 9056   3.374   1.880   2.505
 3060TIP3    H1 9057   3.430   1.955   2.525
 3060TIP3    H2 9058   3.423   1.830   2.439
 3061TIP3   OH2 9059   3.306   1.127   2.639
 3061TIP3    H1 9060   3.330   1.218   2.657
 3061TIP3    H2 9061   3.212   1.131   2.620
 3062TIP3   OH2 9062   4.630   2.598   2.989
 3062TIP3    H1 9063   4.585   2.642   2.918
 3062TIP3    H2 9064   4.723   2.614   2.973
 3063TIP3   OH2 9065   3.704   0.864   3.519
 3063TIP3    H1 9066   3.675   0.835   3.433
 3063TIP3    H2 9067   3.693   0.788   3.576
 3064TIP3   OH2 9068   3.243   2.092   2.904
 3064TIP3    H1 9069   3.163   2.117   2.951
 3064TIP3    H2 9070   3.230   2.123   2.815
 3065TIP3   OH2 9071   3.403   2.627   3.977
 3065TIP3    H1 9072   3.487   2.634   4.022
 3065TIP3    H2 9073   3.386   2.533   3.972
 3066TIP3   OH2 9074   3.884   2.589   4.016
 3066TIP3    H1 9075   3.978   2.576   4.027
 3066TIP3    H2 9076   3.861   2.533   3.941
 3067TIP3   OH2 9077   3.863   2.163   2.144
 3067TIP3    H1 9078   3.807   2.096   2.182
 3067TIP3    H2 9079   3.939   2.115   2.112
 3068TIP3   OH2 9080   4.522   2.496   3.751
 3068TIP3    H1 9081   4.512   2.428   3.817
 3068TIP3    H2 9082   4.597   2.548   3.780
 3069TIP3   OH2 9083   4.301   2.206   2.055
 3069TIP3    H1 9084   4.343   2.144   2.114
 3069TIP3    H2 9085   4.357   2.207   1.977
 3070TIP3   OH2 9086   3.534   2.035   4.169
 3070TIP3    H1 9087   3.559   1.945   4.187
 3070TIP3    H2 9088   3.447   2.029   4.130
 3071TIP3   OH2 9089   3.515   1.634   2.386
 3071TIP3    H1 9090   3.583   1.645   2.452
 3071TIP3    H2 9091   3.557   1.659   2.303
 3072TIP3   OH2 9092   4.140   2.115   3.945
 3072TIP3    H1 9093   4.100   2.133   3.860
 3072TIP3    H2 9094   4.169   2.024   3.939
 3073TIP3   OH2 9095   4.013   1.877   2.172
 3073TIP3    H1 9096   4.019   1.894   2.266
 3073TIP3    H2 9097   4.016   1.782   2.165
 3074TIP3   OH2 9098   4.632   2.126   3.552
 3074TIP3    H1 9099   4.706   2.169   3.508
 3074TIP3    H2 9100   4.559   2.187   3.539
 3075TIP3   OH2 9101   3.651   1.766   4.155
 3075TIP3    H1 9102   3.709   1.690   4.144
 3075TIP3    H2 9103   3.672   1.800   4.242
 3076TIP3   OH2 9104   3.712   1.574   2.589
 3076TIP3    H1 9105   3.732   1.532   2.673
 3076TIP3    H2 9106   3.746   1.513   2.523
 3077TIP3   OH2 9107   3.986   1.652   3.819
 3077TIP3    H1 9108   3.909   1.708   3.821
 3077TIP3    H2 9109   4.034   1.680   3.741
 3078TIP3   OH2 9110   3.811   1.393   2.416
 3078TIP3    H1 9111   3.797   1.382   2.322
 3078TIP3    H2 9112   3.906   1.385   2.427
 3079TIP3   OH2 9113   4.504   2.054   3.950
 3079TIP3    H1 9114   4.581   2.030   3.899
 3079TIP3    H2 9115   4.493   1.982   4.012
 3080TIP3   OH2 9116   4.637   1.714   2.086
 3080TIP3    H1 9117   4.617   1.663   2.007
 3080TIP3    H2 9118   4.606   1.802   2.067
 3081TIP3   OH2 9119   4.115   1.435   3.940
 3081TIP3    H1 9120   4.112   1.357   3.884
 3081TIP3    H2 9121   4.072   1.503   3.888
 3082TIP3   OH2 9122   4.109   1.224   3.749
 3082TIP3    H1 9123   4.139   1.266   3.669
 3082TIP3    H2 9124   4.018   1.201   3.732
 3083TIP3   OH2 9125   4.138   1.761   3.621
 3083TIP3    H1 9126   4.221   1.767   3.573
 3083TIP3    H2 9127   4.082   1.827   3.580
 3084TIP3   OH2 9128   4.724   1.729   4.002
 3084TIP3    H1 9129   4.772   1.646   4.000
 3084TIP3    H2 9130   4.786   1.793   3.968
 3085TIP3   OH2 9131   4.762   1.983   3.738
 3085TIP3    H1 9132   4.702   2.033   3.682
 3085TIP3    H2 9133   4.848   1.999   3.701
 3086TIP3   OH2 9134   4.041   1.536   4.197
 3086TIP3    H1 9135   3.955   1.498   4.215
 3086TIP3    H2 9136   4.049   1.533   4.101
 3087TIP3   OH2 9137   4.241   0.992   3.822
 3087TIP3    H1 9138   4.196   1.072   3.794
 3087TIP3    H2 9139   4.178   0.922   3.805
 3088TIP3   OH2 9140   4.373   1.496   4.028
 3088TIP3    H1 9141   4.388   1.450   4.111
 3088TIP3    H2 9142   4.284   1.469   4.002
 3089TIP3   OH2 9143   4.613   1.446   3.886
 3089TIP3    H1 9144   4.536   1.448   3.942
 3089TIP3    H2 9145   4.684   1.415   3.942
 3090TIP3   OH2 9146   4.833   1.381   4.043
 3090TIP3    H1 9147   4.851   1.289   4.058
 3090TIP3    H2 9148   4.832   1.420   4.131
 3091TIP3   OH2 9149   3.833   1.341   4.232
 3091TIP3    H1 9150   3.827   1.252   4.197
 3091TIP3    H2 9151   3.821   1.330   4.326
 3092TIP3   OH2 9152   4.339   0.990   4.076
 3092TIP3    H1 9153   4.409   0.927   4.065
 3092TIP3    H2 9154   4.296   0.995   3.991
 3093TIP3   OH2 9155   4.374   1.216   4.223
 3093TIP3    H1 9156   4.390   1.138   4.171
 3093TIP3    H2 9157   4.283   1.239   4.207
 3094TIP3   OH2 9158   3.625   2.440   2.328
 3094TIP3    H1 9159   3.719   2.437   2.314
 3094TIP3    H2 9160   3.591   2.491   2.254
 3095TIP3   OH2 9161   3.104   1.838   2.549
 3095TIP3    H1 9162   3.197   1.856   2.535
 3095TIP3    H2 9163   3.094   1.746   2.527
 3096TIP3   OH2 9164   3.014   2.437   2.957
 3096TIP3    H1 9165   2.949   2.376   2.922
 3096TIP3    H2 9166   3.062   2.385   3.022
 3097TIP3   OH2 9167   3.152   2.296   3.143
 3097TIP3    H1 9168   3.131   2.218   3.194
 3097TIP3    H2 9169   3.206   2.349   3.201
 3098TIP3   OH2 9170   4.883   2.687   2.948
 3098TIP3    H1 9171   4.905   2.722   3.035
 3098TIP3    H2 9172   4.939   2.735   2.888
 3099TIP3   OH2 9173   4.910   2.706   3.230
 3099TIP3    H1 9174   4.866   2.621   3.224
 3099TIP3    H2 9175   4.986   2.690   3.285
 3100TIP3   OH2 9176   4.957   2.386   3.805
 3100TIP3    H1 9177   4.884   2.392   3.866
 3100TIP3    H2 9178   4.997   2.473   3.806
 3101TIP3   OH2 9179   4.775   1.899   2.424
 3101TIP3    H1 9180   4.842   1.962   2.395
 3101TIP3    H2 9181   4.813   1.859   2.502
 3102TIP3   OH2 9182   4.899   1.768   2.629
 3102TIP3    H1 9183   4.834   1.723   2.684
 3102TIP3    H2 9184   4.962   1.804   2.691
 3103TIP3   OH2 9185   4.957   2.157   3.059
 3103TIP3    H1 9186   5.007   2.092   3.010
 3103TIP3    H2 9187   4.946   2.231   2.999
 3104TIP3   OH2 9188   4.785   2.457   3.256
 3104TIP3    H1 9189   4.716   2.501   3.306
 3104TIP3    H2 9190   4.738   2.410   3.186
 3105TIP3   OH2 9191   4.836   1.677   2.272
 3105TIP3    H1 9192   4.767   1.676   2.206
 3105TIP3    H2 9193   4.812   1.749   2.331
 3106TIP3   OH2 9194   4.709   1.342   2.224
 3106TIP3    H1 9195   4.663   1.381   2.149
 3106TIP3    H2 9196   4.688   1.249   2.220
 3107TIP3   OH2 9197   4.715   1.621   2.774
 3107TIP3    H1 9198   4.720   1.526   2.761
 3107TIP3    H2 9199   4.702   1.631   2.868
 3108TIP3   OH2 9200   3.342   1.702   3.514
 3108TIP3    H1 9201   3.339   1.667   3.425
 3108TIP3    H2 9202   3.435   1.701   3.537
 3109TIP3   OH2 9203   5.005   2.045   3.630
 3109TIP3    H1 9204   5.076   1.982   3.621
 3109TIP3    H2 9205   5.027   2.114   3.567
 3110TIP3   OH2 9206   5.191   1.850   3.651
 3110TIP3    H1 9207   5.114   1.805   3.687
 3110TIP3    H2 9208   5.263   1.788   3.663
 3111TIP3   OH2 9209   4.661   1.071   2.221
 3111TIP3    H1 9210   4.721   1.038   2.288
 3111TIP3    H2 9211   4.579   1.025   2.238
 3112TIP3   OH2 9212   4.712   1.344   2.666
 3112TIP3    H1 9213   4.739   1.257   2.692
 3112TIP3    H2 9214   4.773   1.370   2.598
 3113TIP3   OH2 9215   4.878   1.515   3.166
 3113TIP3    H1 9216   4.960   1.539   3.123
 3113TIP3    H2 9217   4.886   1.549   3.255
 3114TIP3   OH2 9218   4.943   1.659   3.398
 3114TIP3    H1 9219   4.864   1.690   3.443
 3114TIP3    H2 9220   4.975   1.736   3.351
 3115TIP3   OH2 9221   3.559   1.378   4.183
 3115TIP3    H1 9222   3.653   1.385   4.198
 3115TIP3    H2 9223   3.532   1.303   4.236
 3116TIP3   OH2 9224   5.393   1.245   3.950
 3116TIP3    H1 9225   5.451   1.181   3.910
 3116TIP3    H2 9226   5.365   1.301   3.877
 3117TIP3   OH2 9227   4.789   1.096   2.730
 3117TIP3    H1 9228   4.862   1.072   2.787
 3117TIP3    H2 9229   4.752   1.012   2.701
 3118TIP3   OH2 9230   3.522   1.075   3.528
 3118TIP3    H1 9231   3.581   0.999   3.535
 3118TIP3    H2 9232   3.581   1.150   3.519
 3119TIP3   OH2 9233   3.325   1.348   3.598
 3119TIP3    H1 9234   3.371   1.338   3.515
 3119TIP3    H2 9235   3.352   1.433   3.631
 3120TIP3   OH2 9236   5.262   1.387   3.757
 3120TIP3    H1 9237   5.177   1.428   3.774
 3120TIP3    H2 9238   5.241   1.314   3.698
 3121TIP3   OH2 9239   3.304   0.849   3.099
 3121TIP3    H1 9240   3.213   0.848   3.128
 3121TIP3    H2 9241   3.304   0.908   3.023
 3122TIP3   OH2 9242   4.467   2.554   2.604
 3122TIP3    H1 9243   4.516   2.540   2.524
 3122TIP3    H2 9244   4.516   2.621   2.651
 3123TIP3   OH2 9245   3.524   0.929   3.914
 3123TIP3    H1 9246   3.477   0.927   3.997
 3123TIP3    H2 9247   3.462   0.969   3.853
 3124TIP3   OH2 9248   3.556   2.352   3.981
 3124TIP3    H1 9249   3.464   2.327   3.986
 3124TIP3    H2 9250   3.591   2.332   4.068
 3125TIP3   OH2 9251   3.740   2.390   3.538
 3125TIP3    H1 9252   3.693   2.465   3.502
 3125TIP3    H2 9253   3.827   2.395   3.498
 3126TIP3   OH2 9254   4.192   2.636   3.677
 3126TIP3    H1 9255   4.231   2.636   3.765
 3126TIP3    H2 9256   4.254   2.685   3.624
 3127TIP3   OH2 9257   4.371   2.786   3.536
 3127TIP3    H1 9258   4.439   2.737   3.491
 3127TIP3    H2 9259   4.419   2.844   3.596
 3128TIP3   OH2 9260   5.161   1.147   3.636
 3128TIP3    H1 9261   5.073   1.146   3.599
 3128TIP3    H2 9262   5.193   1.058   3.624
 3129TIP3   OH2 9263   3.411   2.638   3.558
 3129TIP3    H1 9264   3.325   2.676   3.538
 3129TIP3    H2 9265   3.437   2.680   3.640
 3130TIP3   OH2 9266   3.651   2.620   3.417
 3130TIP3    H1 9267   3.569   2.639   3.463
 3130TIP3    H2 9268   3.640   2.660   3.331
 3131TIP3   OH2 9269   4.081   2.657   3.218
 3131TIP3    H1 9270   4.015   2.676   3.151
 3131TIP3    H2 9271   4.096   2.741   3.261
 3132TIP3   OH2 9272   4.350   2.597   3.268
 3132TIP3    H1 9273   4.257   2.611   3.250
 3132TIP3    H2 9274   4.394   2.671   3.228
 3133TIP3   OH2 9275   4.560   2.787   3.183
 3133TIP3    H1 9276   4.545   2.871   3.139
 3133TIP3    H2 9277   4.585   2.727   3.112
 3134TIP3   OH2 9278   3.336   2.439   3.302
 3134TIP3    H1 9279   3.375   2.470   3.384
 3134TIP3    H2 9280   3.409   2.397   3.255
 3135TIP3   OH2 9281   3.530   2.310   3.164
 3135TIP3    H1 9282   3.549   2.227   3.208
 3135TIP3    H2 9283   3.616   2.352   3.155
 3136TIP3   OH2 9284   3.792   2.406   3.168
 3136TIP3    H1 9285   3.824   2.318   3.150
 3136TIP3    H2 9286   3.834   2.431   3.250
 3137TIP3   OH2 9287   4.377   1.068   3.270
 3137TIP3    H1 9288   4.326   0.998   3.309
 3137TIP3    H2 9289   4.431   1.024   3.204
 3138TIP3   OH2 9290   4.893   0.955   3.167
 3138TIP3    H1 9291   4.930   0.997   3.090
 3138TIP3    H2 9292   4.798   0.961   3.155
 3139TIP3   OH2 9293   4.990   1.046   2.928
 3139TIP3    H1 9294   5.059   0.994   2.889
 3139TIP3    H2 9295   5.014   1.137   2.909
 3140TIP3   OH2 9296   3.615   0.771   3.273
 3140TIP3    H1 9297   3.524   0.742   3.272
 3140TIP3    H2 9298   3.666   0.689   3.268
 3141TIP3   OH2 9299   3.396   0.643   2.919
 3141TIP3    H1 9300   3.431   0.697   2.848
 3141TIP3    H2 9301   3.372   0.706   2.987
 3142TIP3   OH2 9302   4.061   0.807   3.151
 3142TIP3    H1 9303   4.119   0.852   3.089
 3142TIP3    H2 9304   4.080   0.847   3.236
 3143TIP3   OH2 9305   4.615   0.950   3.133
 3143TIP3    H1 9306   4.603   0.923   3.042
 3143TIP3    H2 9307   4.595   0.872   3.185
 3144TIP3   OH2 9308   4.635   0.869   2.699
 3144TIP3    H1 9309   4.551   0.914   2.712
 3144TIP3    H2 9310   4.623   0.784   2.740
 3145TIP3   OH2 9311   3.118   2.213   2.699
 3145TIP3    H1 9312   3.036   2.177   2.664
 3145TIP3    H2 9313   3.112   2.307   2.682
 3146TIP3   OH2 9314   3.524   0.803   2.681
 3146TIP3    H1 9315   3.572   0.741   2.626
 3146TIP3    H2 9316   3.592   0.859   2.719
 3147TIP3   OH2 9317   4.030   0.980   2.783
 3147TIP3    H1 9318   4.091   0.930   2.837
 3147TIP3    H2 9319   4.053   1.072   2.800
 3148TIP3   OH2 9320   3.894   2.402   2.278
 3148TIP3    H1 9321   3.981   2.427   2.246
 3148TIP3    H2 9322   3.869   2.328   2.222
 3149TIP3   OH2 9323   4.610   2.519   2.371
 3149TIP3    H1 9324   4.604   2.424   2.361
 3149TIP3    H2 9325   4.566   2.554   2.294
 3150TIP3   OH2 9326   3.826   1.060   4.164
 3150TIP3    H1 9327   3.787   0.991   4.218
 3150TIP3    H2 9328   3.919   1.059   4.187
 3151TIP3   OH2 9329   4.084   1.050   4.272
 3151TIP3    H1 9330   4.157   1.008   4.226
 3151TIP3    H2 9331   4.060   0.988   4.341
 3152TIP3   OH2 9332   3.195   2.230   2.339
 3152TIP3    H1 9333   3.195   2.268   2.426
 3152TIP3    H2 9334   3.285   2.197   2.327
 3153TIP3   OH2 9335   4.901   1.112   4.071
 3153TIP3    H1 9336   4.920   1.080   4.159
 3153TIP3    H2 9337   4.985   1.109   4.025
 3154TIP3   OH2 9338   4.836   2.666   3.560
 3154TIP3    H1 9339   4.760   2.632   3.512
 3154TIP3    H2 9340   4.820   2.761   3.564
 3155TIP3   OH2 9341   6.103   2.039   2.326
 3155TIP3    H1 9342   6.077   2.129   2.308
 3155TIP3    H2 9343   6.028   1.987   2.297
 3156TIP3   OH2 9344   6.103   2.035   2.707
 3156TIP3    H1 9345   6.133   2.008   2.794
 3156TIP3    H2 9346   6.060   1.957   2.672
 3157TIP3   OH2 9347   5.405   1.933   3.074
 3157TIP3    H1 9348   5.434   1.865   3.135
 3157TIP3    H2 9349   5.482   1.989   3.061
 3158TIP3   OH2 9350   6.346   2.339   2.390
 3158TIP3    H1 9351   6.331   2.269   2.453
 3158TIP3    H2 9352   6.374   2.414   2.443
 3159TIP3   OH2 9353   5.376   2.341   2.799
 3159TIP3    H1 9354   5.364   2.246   2.802
 3159TIP3    H2 9355   5.471   2.352   2.793
 3160TIP3   OH2 9356   5.079   1.552   2.587
 3160TIP3    H1 9357   5.021   1.628   2.597
 3160TIP3    H2 9358   5.024   1.486   2.545
 3161TIP3   OH2 9359   5.143   1.833   2.756
 3161TIP3    H1 9360   5.186   1.756   2.792
 3161TIP3    H2 9361   5.192   1.854   2.676
 3162TIP3   OH2 9362   5.994   2.799   2.404
 3162TIP3    H1 9363   6.041   2.730   2.358
 3162TIP3    H2 9364   5.987   2.768   2.494
 3163TIP3   OH2 9365   5.904   2.262   2.756
 3163TIP3    H1 9366   5.936   2.185   2.708
 3163TIP3    H2 9367   5.984   2.309   2.781
 3164TIP3   OH2 9368   6.913   1.586   2.753
 3164TIP3    H1 9369   6.943   1.664   2.798
 3164TIP3    H2 9370   6.935   1.601   2.661
 3165TIP3   OH2 9371   6.315   1.764   2.788
 3165TIP3    H1 9372   6.356   1.680   2.810
 3165TIP3    H2 9373   6.283   1.751   2.698
 3166TIP3   OH2 9374   5.651   1.424   2.752
 3166TIP3    H1 9375   5.630   1.497   2.693
 3166TIP3    H2 9376   5.608   1.349   2.712
 3167TIP3   OH2 9377   6.347   1.515   2.377
 3167TIP3    H1 9378   6.414   1.498   2.443
 3167TIP3    H2 9379   6.395   1.550   2.302
 3168TIP3   OH2 9380   5.286   1.623   2.859
 3168TIP3    H1 9381   5.367   1.604   2.907
 3168TIP3    H2 9382   5.291   1.569   2.781
 3169TIP3   OH2 9383   5.726   1.821   2.653
 3169TIP3    H1 9384   5.818   1.798   2.667
 3169TIP3    H2 9385   5.685   1.741   2.622
 3170TIP3   OH2 9386   6.985   1.791   2.924
 3170TIP3    H1 9387   6.904   1.837   2.903
 3170TIP3    H2 9388   7.001   1.812   3.016
 3171TIP3   OH2 9389   5.646   1.409   3.189
 3171TIP3    H1 9390   5.589   1.443   3.120
 3171TIP3    H2 9391   5.597   1.425   3.270
 3172TIP3   OH2 9392   5.998   2.262   2.194
 3172TIP3    H1 9393   5.951   2.235   2.116
 3172TIP3    H2 9394   5.955   2.344   2.220
 3173TIP3   OH2 9395   5.755   2.184   2.985
 3173TIP3    H1 9396   5.693   2.246   3.022
 3173TIP3    H2 9397   5.796   2.232   2.912
 3174TIP3   OH2 9398   6.557   1.518   2.548
 3174TIP3    H1 9399   6.548   1.465   2.628
 3174TIP3    H2 9400   6.610   1.593   2.575
 3175TIP3   OH2 9401   5.522   1.523   2.971
 3175TIP3    H1 9402   5.581   1.594   2.996
 3175TIP3    H2 9403   5.565   1.480   2.897
 3176TIP3   OH2 9404   5.580   2.378   3.083
 3176TIP3    H1 9405   5.559   2.461   3.041
 3176TIP3    H2 9406   5.504   2.358   3.138
 3177TIP3   OH2 9407   4.979   2.067   2.317
 3177TIP3    H1 9408   4.935   2.092   2.235
 3177TIP3    H2 9409   5.008   2.150   2.354
 3178TIP3   OH2 9410   6.415   2.583   2.557
 3178TIP3    H1 9411   6.329   2.572   2.597
 3178TIP3    H2 9412   6.410   2.667   2.512
 3179TIP3   OH2 9413   6.706   1.486   2.920
 3179TIP3    H1 9414   6.619   1.512   2.889
 3179TIP3    H2 9415   6.765   1.515   2.850
 3180TIP3   OH2 9416   6.005   1.127   2.904
 3180TIP3    H1 9417   5.994   1.032   2.917
 3180TIP3    H2 9418   5.929   1.165   2.948
 3181TIP3   OH2 9419   6.124   2.628   2.231
 3181TIP3    H1 9420   6.169   2.545   2.212
 3181TIP3    H2 9421   6.179   2.695   2.192
 3182TIP3   OH2 9422   6.264   2.410   2.137
 3182TIP3    H1 9423   6.215   2.335   2.103
 3182TIP3    H2 9424   6.299   2.380   2.220
 3183TIP3   OH2 9425   6.642   2.495   2.899
 3183TIP3    H1 9426   6.632   2.418   2.843
 3183TIP3    H2 9427   6.625   2.570   2.841
 3184TIP3   OH2 9428   5.933   1.889   2.156
 3184TIP3    H1 9429   5.854   1.939   2.138
 3184TIP3    H2 9430   5.979   1.886   2.072
 3185TIP3   OH2 9431   5.895   1.674   1.872
 3185TIP3    H1 9432   5.959   1.724   1.924
 3185TIP3    H2 9433   5.948   1.609   1.826
 3186TIP3   OH2 9434   6.836   2.133   2.743
 3186TIP3    H1 9435   6.755   2.183   2.752
 3186TIP3    H2 9436   6.868   2.154   2.655
 3187TIP3   OH2 9437   6.282   1.971   2.133
 3187TIP3    H1 9438   6.227   1.996   2.207
 3187TIP3    H2 9439   6.365   1.945   2.173
 3188TIP3   OH2 9440   6.515   2.013   3.040
 3188TIP3    H1 9441   6.515   2.095   3.089
 3188TIP3    H2 9442   6.431   2.012   2.994
 3189TIP3   OH2 9443   5.515   1.968   2.544
 3189TIP3    H1 9444   5.471   1.913   2.480
 3189TIP3    H2 9445   5.589   1.916   2.574
 3190TIP3   OH2 9446   5.645   2.380   2.694
 3190TIP3    H1 9447   5.621   2.337   2.612
 3190TIP3    H2 9448   5.733   2.348   2.713
 3191TIP3   OH2 9449   5.655   1.940   2.902
 3191TIP3    H1 9450   5.683   1.919   2.812
 3191TIP3    H2 9451   5.694   2.025   2.920
 3192TIP3   OH2 9452   6.176   2.577   2.678
 3192TIP3    H1 9453   6.161   2.657   2.729
 3192TIP3    H2 9454   6.161   2.506   2.740
 3193TIP3   OH2 9455   5.784   2.497   3.228
 3193TIP3    H1 9456   5.727   2.560   3.270
 3193TIP3    H2 9457   5.725   2.442   3.176
 3194TIP3   OH2 9458   6.126   1.831   1.954
 3194TIP3    H1 9459   6.180   1.888   2.008
 3194TIP3    H2 9460   6.149   1.853   1.864
 3195TIP3   OH2 9461   5.541   2.054   3.327
 3195TIP3    H1 9462   5.547   2.140   3.370
 3195TIP3    H2 9463   5.448   2.032   3.331
 3196TIP3   OH2 9464   5.866   2.509   2.229
 3196TIP3    H1 9465   5.942   2.563   2.251
 3196TIP3    H2 9466   5.803   2.572   2.193
 3197TIP3   OH2 9467   5.581   2.665   3.311
 3197TIP3    H1 9468   5.549   2.666   3.221
 3197TIP3    H2 9469   5.504   2.642   3.364
 3198TIP3   OH2 9470   6.637   1.073   2.004
 3198TIP3    H1 9471   6.557   1.087   2.055
 3198TIP3    H2 9472   6.650   1.154   1.956
 3199TIP3   OH2 9473   5.378   1.812   2.350
 3199TIP3    H1 9474   5.314   1.856   2.295
 3199TIP3    H2 9475   5.342   1.725   2.366
 3200TIP3   OH2 9476   6.437   2.439   1.549
 3200TIP3    H1 9477   6.443   2.534   1.538
 3200TIP3    H2 9478   6.528   2.409   1.539
 3201TIP3   OH2 9479   5.161   2.195   3.257
 3201TIP3    H1 9480   5.096   2.175   3.190
 3201TIP3    H2 9481   5.197   2.109   3.281
 3202TIP3   OH2 9482   5.016   2.389   2.893
 3202TIP3    H1 9483   5.111   2.383   2.883
 3202TIP3    H2 9484   5.002   2.469   2.944
 3203TIP3   OH2 9485   6.879   2.838   2.948
 3203TIP3    H1 9486   6.879   2.743   2.959
 3203TIP3    H2 9487   6.798   2.866   2.991
 3204TIP3   OH2 9488   5.986   2.625   3.085
 3204TIP3    H1 9489   5.988   2.717   3.112
 3204TIP3    H2 9490   5.915   2.586   3.135
 3205TIP3   OH2 9491   5.746   2.757   2.032
 3205TIP3    H1 9492   5.699   2.738   1.950
 3205TIP3    H2 9493   5.714   2.843   2.058
 3206TIP3   OH2 9494   5.185   2.602   2.418
 3206TIP3    H1 9495   5.232   2.596   2.501
 3206TIP3    H2 9496   5.125   2.528   2.419
 3207TIP3   OH2 9497   5.950   2.655   1.674
 3207TIP3    H1 9498   6.006   2.587   1.638
 3207TIP3    H2 9499   5.980   2.666   1.764
 3208TIP3   OH2 9500   5.997   2.703   1.945
 3208TIP3    H1 9501   5.910   2.714   1.984
 3208TIP3    H2 9502   6.049   2.664   2.015
 3209TIP3   OH2 9503   6.767   1.969   3.221
 3209TIP3    H1 9504   6.689   1.985   3.167
 3209TIP3    H2 9505   6.786   1.876   3.210
 3210TIP3   OH2 9506   5.365   2.377   3.247
 3210TIP3    H1 9507   5.414   2.362   3.328
 3210TIP3    H2 9508   5.292   2.316   3.252
 3211TIP3   OH2 9509   5.763   1.204   3.030
 3211TIP3    H1 9510   5.678   1.169   3.002
 3211TIP3    H2 9511   5.742   1.285   3.075
 3212TIP3   OH2 9512   6.299   1.318   3.227
 3212TIP3    H1 9513   6.366   1.289   3.288
 3212TIP3    H2 9514   6.216   1.297   3.270
 3213TIP3   OH2 9515   6.538   1.747   3.145
 3213TIP3    H1 9516   6.490   1.744   3.227
 3213TIP3    H2 9517   6.514   1.832   3.107
 3214TIP3   OH2 9518   6.198   1.877   1.696
 3214TIP3    H1 9519   6.165   1.849   1.611
 3214TIP3    H2 9520   6.277   1.927   1.676
 3215TIP3   OH2 9521   5.910   1.251   2.002
 3215TIP3    H1 9522   5.881   1.252   2.093
 3215TIP3    H2 9523   5.874   1.170   1.966
 3216TIP3   OH2 9524   5.698   1.719   3.051
 3216TIP3    H1 9525   5.646   1.736   3.130
 3216TIP3    H2 9526   5.684   1.796   2.996
 3217TIP3   OH2 9527   5.577   1.602   2.562
 3217TIP3    H1 9528   5.487   1.577   2.582
 3217TIP3    H2 9529   5.594   1.564   2.476
 3218TIP3   OH2 9530   6.073   1.692   2.290
 3218TIP3    H1 9531   6.019   1.761   2.251
 3218TIP3    H2 9532   6.126   1.660   2.217
 3219TIP3   OH2 9533   6.247   1.970   3.384
 3219TIP3    H1 9534   6.222   1.897   3.440
 3219TIP3    H2 9535   6.341   1.980   3.398
 3220TIP3   OH2 9536   6.229   1.718   2.527
 3220TIP3    H1 9537   6.168   1.750   2.460
 3220TIP3    H2 9538   6.264   1.637   2.490
 3221TIP3   OH2 9539   5.518   1.746   3.259
 3221TIP3    H1 9540   5.540   1.810   3.327
 3221TIP3    H2 9541   5.504   1.665   3.307
 3222TIP3   OH2 9542   5.565   1.224   1.972
 3222TIP3    H1 9543   5.559   1.214   2.067
 3222TIP3    H2 9544   5.486   1.272   1.948
 3223TIP3   OH2 9545   5.111   1.269   2.842
 3223TIP3    H1 9546   5.185   1.300   2.894
 3223TIP3    H2 9547   5.148   1.252   2.756
 3224TIP3   OH2 9548   5.147   1.311   2.379
 3224TIP3    H1 9549   5.153   1.318   2.283
 3224TIP3    H2 9550   5.053   1.311   2.397
 3225TIP3   OH2 9551   6.242   1.962   2.954
 3225TIP3    H1 9552   6.273   1.894   2.894
 3225TIP3    H2 9553   6.211   1.914   3.031
 3226TIP3   OH2 9554   5.907   1.428   2.627
 3226TIP3    H1 9555   5.824   1.425   2.674
 3226TIP3    H2 9556   5.974   1.425   2.695
 3227TIP3   OH2 9557   5.339   1.478   2.632
 3227TIP3    H1 9558   5.249   1.491   2.603
 3227TIP3    H2 9559   5.362   1.390   2.602
 3228TIP3   OH2 9560   5.614   1.481   2.321
 3228TIP3    H1 9561   5.706   1.495   2.297
 3228TIP3    H2 9562   5.565   1.501   2.240
 3229TIP3   OH2 9563   6.397   1.501   2.828
 3229TIP3    H1 9564   6.365   1.514   2.917
 3229TIP3    H2 9565   6.336   1.439   2.789
 3230TIP3   OH2 9566   5.453   1.513   2.101
 3230TIP3    H1 9567   5.376   1.469   2.064
 3230TIP3    H2 9568   5.501   1.544   2.025
 3231TIP3   OH2 9569   6.571   3.190   3.044
 3231TIP3    H1 9570   6.567   3.214   2.952
 3231TIP3    H2 9571   6.645   3.241   3.078
 3232TIP3   OH2 9572   5.527   2.301   3.468
 3232TIP3    H1 9573   5.604   2.338   3.511
 3232TIP3    H2 9574   5.460   2.299   3.537
 3233TIP3   OH2 9575   5.993   1.754   2.724
 3233TIP3    H1 9576   6.062   1.713   2.672
 3233TIP3    H2 9577   5.999   1.712   2.810
 3234TIP3   OH2 9578   5.524   1.238   2.602
 3234TIP3    H1 9579   5.481   1.164   2.645
 3234TIP3    H2 9580   5.558   1.202   2.520
 3235TIP3   OH2 9581   5.968   1.651   3.012
 3235TIP3    H1 9582   5.880   1.685   3.025
 3235TIP3    H2 9583   6.024   1.710   3.062
 3236TIP3   OH2 9584   5.704   2.041   2.109
 3236TIP3    H1 9585   5.635   1.976   2.095
 3236TIP3    H2 9586   5.688   2.075   2.197
 3237TIP3   OH2 9587   6.605   2.278   2.735
 3237TIP3    H1 9588   6.629   2.327   2.656
 3237TIP3    H2 9589   6.521   2.236   2.713
 3238TIP3   OH2 9590   6.161   1.357   1.964
 3238TIP3    H1 9591   6.068   1.338   1.976
 3238TIP3    H2 9592   6.170   1.448   1.994
 3239TIP3   OH2 9593   6.105   2.361   3.104
 3239TIP3    H1 9594   6.123   2.338   3.195
 3239TIP3    H2 9595   6.067   2.449   3.109
 3240TIP3   OH2 9596   6.234   1.602   2.072
 3240TIP3    H1 9597   6.328   1.606   2.089
 3240TIP3    H2 9598   6.215   1.681   2.022
 3241TIP3   OH2 9599   5.402   2.066   2.783
 3241TIP3    H1 9600   5.434   2.037   2.698
 3241TIP3    H2 9601   5.432   1.998   2.844
 3242TIP3   OH2 9602   5.846   2.192   1.927
 3242TIP3    H1 9603   5.803   2.277   1.932
 3242TIP3    H2 9604   5.796   2.136   1.986
 3243TIP3   OH2 9605   5.276   1.982   3.396
 3243TIP3    H1 9606   5.294   1.968   3.489
 3243TIP3    H2 9607   5.207   1.919   3.376
 3244TIP3   OH2 9608   6.002   2.096   3.415
 3244TIP3    H1 9609   5.940   2.040   3.368
 3244TIP3    H2 9610   6.088   2.064   3.389
 3245TIP3   OH2 9611   6.265   2.618   3.003
 3245TIP3    H1 9612   6.170   2.616   3.011
 3245TIP3    H2 9613   6.294   2.671   3.077
 3246TIP3   OH2 9614   6.675   1.691   1.903
 3246TIP3    H1 9615   6.614   1.643   1.847
 3246TIP3    H2 9616   6.673   1.781   1.870
 3247TIP3   OH2 9617   6.891   2.547   2.987
 3247TIP3    H1 9618   6.796   2.544   2.983
 3247TIP3    H2 9619   6.920   2.518   2.901
 3248TIP3   OH2 9620   6.375   2.509   1.816
 3248TIP3    H1 9621   6.349   2.443   1.880
 3248TIP3    H2 9622   6.386   2.460   1.734
 3249TIP3   OH2 9623   6.370   2.137   2.656
 3249TIP3    H1 9624   6.277   2.115   2.669
 3249TIP3    H2 9625   6.406   2.061   2.611
 3250TIP3   OH2 9626   5.496   2.367   2.405
 3250TIP3    H1 9627   5.498   2.449   2.354
 3250TIP3    H2 9628   5.403   2.350   2.419
 3251TIP3   OH2 9629   5.057   1.675   2.111
 3251TIP3    H1 9630   5.106   1.755   2.131
 3251TIP3    H2 9631   4.983   1.676   2.171
 3252TIP3   OH2 9632   5.638   2.135   2.354
 3252TIP3    H1 9633   5.603   2.223   2.370
 3252TIP3    H2 9634   5.603   2.082   2.425
 3253TIP3   OH2 9635   5.769   2.713   2.877
 3253TIP3    H1 9636   5.805   2.785   2.826
 3253TIP3    H2 9637   5.844   2.677   2.924
 3254TIP3   OH2 9638   5.417   2.608   2.261
 3254TIP3    H1 9639   5.332   2.613   2.306
 3254TIP3    H2 9640   5.450   2.698   2.262
 3255TIP3   OH2 9641   6.157   2.344   2.837
 3255TIP3    H1 9642   6.147   2.343   2.932
 3255TIP3    H2 9643   6.235   2.291   2.820
 3256TIP3   OH2 9644   6.129   2.236   1.720
 3256TIP3    H1 9645   6.183   2.213   1.795
 3256TIP3    H2 9646   6.040   2.212   1.746
 3257TIP3   OH2 9647   6.403   2.879   2.883
 3257TIP3    H1 9648   6.325   2.823   2.878
 3257TIP3    H2 9649   6.391   2.944   2.815
 3258TIP3   OH2 9650   6.469   2.717   1.538
 3258TIP3    H1 9651   6.511   2.787   1.488
 3258TIP3    H2 9652   6.389   2.756   1.573
 3259TIP3   OH2 9653   5.488   1.490   3.406
 3259TIP3    H1 9654   5.392   1.495   3.415
 3259TIP3    H2 9655   5.515   1.428   3.474
 3260TIP3   OH2 9656   6.292   2.167   1.932
 3260TIP3    H1 9657   6.278   2.106   2.006
 3260TIP3    H2 9658   6.387   2.170   1.922
 3261TIP3   OH2 9659   5.207   2.574   3.036
 3261TIP3    H1 9660   5.258   2.499   3.068
 3261TIP3    H2 9661   5.232   2.646   3.094
 3262TIP3   OH2 9662   5.497   2.216   1.718
 3262TIP3    H1 9663   5.510   2.126   1.689
 3262TIP3    H2 9664   5.478   2.209   1.811
 3263TIP3   OH2 9665   5.444   2.226   1.989
 3263TIP3    H1 9666   5.510   2.195   2.051
 3263TIP3    H2 9667   5.447   2.321   1.997
 3264TIP3   OH2 9668   5.177   1.920   2.193
 3264TIP3    H1 9669   5.112   1.960   2.252
 3264TIP3    H2 9670   5.192   1.987   2.126
 3265TIP3   OH2 9671   6.325   1.555   3.088
 3265TIP3    H1 9672   6.407   1.590   3.123
 3265TIP3    H2 9673   6.310   1.475   3.139
 3266TIP3   OH2 9674   6.207   1.308   2.248
 3266TIP3    H1 9675   6.193   1.329   2.156
 3266TIP3    H2 9676   6.245   1.387   2.286
 3267TIP3   OH2 9677   5.706   2.424   1.937
 3267TIP3    H1 9678   5.621   2.446   1.976
 3267TIP3    H2 9679   5.725   2.497   1.878
 3268TIP3   OH2 9680   5.900   1.485   2.354
 3268TIP3    H1 9681   5.962   1.556   2.336
 3268TIP3    H2 9682   5.900   1.477   2.449
 3269TIP3   OH2 9683   6.166   1.804   3.161
 3269TIP3    H1 9684   6.184   1.855   3.240
 3269TIP3    H2 9685   6.219   1.725   3.171
 3270TIP3   OH2 9686   6.042   1.215   2.456
 3270TIP3    H1 9687   6.032   1.290   2.516
 3270TIP3    H2 9688   6.100   1.248   2.387
 3271TIP3   OH2 9689   5.450   2.498   2.007
 3271TIP3    H1 9690   5.421   2.565   1.944
 3271TIP3    H2 9691   5.434   2.538   2.092
 3272TIP3   OH2 9692   5.561   1.209   2.249
 3272TIP3    H1 9693   5.547   1.298   2.284
 3272TIP3    H2 9694   5.655   1.196   2.255
 3273TIP3   OH2 9695   6.804   1.704   3.139
 3273TIP3    H1 9696   6.708   1.704   3.149
 3273TIP3    H2 9697   6.819   1.660   3.055
 3274TIP3   OH2 9698   6.456   1.897   2.529
 3274TIP3    H1 9699   6.380   1.840   2.541
 3274TIP3    H2 9700   6.527   1.852   2.575
 3275TIP3   OH2 9701   5.171   2.128   1.997
 3275TIP3    H1 9702   5.231   2.201   2.010
 3275TIP3    H2 9703   5.213   2.073   1.932
 3276TIP3   OH2 9704   5.112   1.404   2.113
 3276TIP3    H1 9705   5.107   1.499   2.121
 3276TIP3    H2 9706   5.021   1.376   2.103
 3277TIP3   OH2 9707   6.426   2.854   2.476
 3277TIP3    H1 9708   6.381   2.898   2.404
 3277TIP3    H2 9709   6.519   2.871   2.459
 3278TIP3   OH2 9710   5.500   1.121   3.005
 3278TIP3    H1 9711   5.469   1.091   2.920
 3278TIP3    H2 9712   5.489   1.045   3.063
 3279TIP3   OH2 9713   5.039   2.343   2.387
 3279TIP3    H1 9714   4.969   2.371   2.445
 3279TIP3    H2 9715   5.017   2.380   2.301
 3280TIP3   OH2 9716   5.196   2.879   3.460
 3280TIP3    H1 9717   5.281   2.881   3.506
 3280TIP3    H2 9718   5.173   2.786   3.457
 3281TIP3   OH2 9719   5.679   2.837   3.512
 3281TIP3    H1 9720   5.775   2.840   3.506
 3281TIP3    H2 9721   5.652   2.787   3.435
 3282TIP3   OH2 9722   5.659   2.419   1.630
 3282TIP3    H1 9723   5.601   2.354   1.669
 3282TIP3    H2 9724   5.735   2.369   1.602
 3283TIP3   OH2 9725   6.317   2.753   3.238
 3283TIP3    H1 9726   6.310   2.685   3.304
 3283TIP3    H2 9727   6.393   2.805   3.264
 3284TIP3   OH2 9728   6.097   2.462   1.541
 3284TIP3    H1 9729   6.139   2.400   1.602
 3284TIP3    H2 9730   6.155   2.463   1.465
 3285TIP3   OH2 9731   5.326   2.286   3.658
 3285TIP3    H1 9732   5.344   2.191   3.660
 3285TIP3    H2 9733   5.241   2.293   3.616
 3286TIP3   OH2 9734   5.307   1.940   1.850
 3286TIP3    H1 9735   5.355   1.905   1.925
 3286TIP3    H2 9736   5.372   1.946   1.780
 3287TIP3   OH2 9737   5.933   2.370   3.431
 3287TIP3    H1 9738   5.893   2.390   3.346
 3287TIP3    H2 9739   5.964   2.280   3.422
 3288TIP3   OH2 9740   5.814   2.136   1.658
 3288TIP3    H1 9741   5.815   2.152   1.752
 3288TIP3    H2 9742   5.811   2.041   1.650
 3289TIP3   OH2 9743   6.428   2.383   3.038
 3289TIP3    H1 9744   6.502   2.425   2.994
 3289TIP3    H2 9745   6.355   2.444   3.026
 3290TIP3   OH2 9746   5.447   2.024   3.640
 3290TIP3    H1 9747   5.517   1.962   3.617
 3290TIP3    H2 9748   5.469   2.052   3.729
 3291TIP3   OH2 9749   5.515   1.841   2.075
 3291TIP3    H1 9750   5.484   1.803   2.158
 3291TIP3    H2 9751   5.548   1.766   2.026
 3292TIP3   OH2 9752   5.783   1.911   3.303
 3292TIP3    H1 9753   5.704   1.965   3.305
 3292TIP3    H2 9754   5.830   1.940   3.225
 3293TIP3   OH2 9755   5.613   1.636   1.911
 3293TIP3    H1 9756   5.585   1.639   1.820
 3293TIP3    H2 9757   5.708   1.642   1.907
 3294TIP3   OH2 9758   6.301   2.310   3.440
 3294TIP3    H1 9759   6.374   2.287   3.383
 3294TIP3    H2 9760   6.297   2.239   3.504
 3295TIP3   OH2 9761   6.435   1.969   1.571
 3295TIP3    H1 9762   6.413   1.920   1.493
 3295TIP3    H2 9763   6.404   2.058   1.554
 3296TIP3   OH2 9764   5.903   1.695   3.427
 3296TIP3    H1 9765   5.904   1.615   3.374
 3296TIP3    H2 9766   5.861   1.761   3.372
 3297TIP3   OH2 9767   5.905   1.482   3.234
 3297TIP3    H1 9768   5.935   1.522   3.152
 3297TIP3    H2 9769   5.814   1.459   3.218
 3298TIP3   OH2 9770   5.936   2.021   3.108
 3298TIP3    H1 9771   6.017   2.024   3.057
 3298TIP3    H2 9772   5.879   2.085   3.066
 3299TIP3   OH2 9773   6.523   1.985   3.494
 3299TIP3    H1 9774   6.564   1.899   3.495
 3299TIP3    H2 9775   6.587   2.042   3.452
 3300TIP3   OH2 9776   6.558   2.241   3.226
 3300TIP3    H1 9777   6.499   2.290   3.169
 3300TIP3    H2 9778   6.645   2.256   3.189
 3301TIP3   OH2 9779   5.781   1.807   3.658
 3301TIP3    H1 9780   5.714   1.741   3.674
 3301TIP3    H2 9781   5.816   1.786   3.571
 3302TIP3   OH2 9782   6.037   1.246   3.301
 3302TIP3    H1 9783   5.991   1.327   3.279
 3302TIP3    H2 9784   5.971   1.178   3.290
 3303TIP3   OH2 9785   6.162   1.750   3.520
 3303TIP3    H1 9786   6.153   1.739   3.614
 3303TIP3    H2 9787   6.076   1.726   3.484
 3304TIP3   OH2 9788   6.406   1.705   3.377
 3304TIP3    H1 9789   6.330   1.701   3.435
 3304TIP3    H2 9790   6.478   1.669   3.430
 3305TIP3   OH2 9791   6.634   1.639   3.528
 3305TIP3    H1 9792   6.647   1.545   3.542
 3305TIP3    H2 9793   6.632   1.677   3.616
 3306TIP3   OH2 9794   5.624   1.587   3.711
 3306TIP3    H1 9795   5.626   1.499   3.673
 3306TIP3    H2 9796   5.658   1.575   3.800
 3307TIP3   OH2 9797   6.135   1.254   3.557
 3307TIP3    H1 9798   6.201   1.186   3.555
 3307TIP3    H2 9799   6.093   1.250   3.471
 3308TIP3   OH2 9800   6.198   1.470   3.717
 3308TIP3    H1 9801   6.179   1.400   3.655
 3308TIP3    H2 9802   6.123   1.529   3.711
 3309TIP3   OH2 9803   5.421   2.699   1.816
 3309TIP3    H1 9804   5.515   2.695   1.801
 3309TIP3    H2 9805   5.386   2.748   1.741
 3310TIP3   OH2 9806   4.901   2.080   2.033
 3310TIP3    H1 9807   4.993   2.103   2.022
 3310TIP3    H2 9808   4.893   1.993   1.994
 3311TIP3   OH2 9809   4.814   2.690   2.448
 3311TIP3    H1 9810   4.747   2.632   2.412
 3311TIP3    H2 9811   4.859   2.637   2.514
 3312TIP3   OH2 9812   4.952   2.545   2.636
 3312TIP3    H1 9813   4.936   2.471   2.695
 3312TIP3    H2 9814   5.001   2.608   2.690
 3313TIP3   OH2 9815   6.678   2.945   2.435
 3313TIP3    H1 9816   6.701   2.976   2.522
 3313TIP3    H2 9817   6.737   2.993   2.376
 3314TIP3   OH2 9818   6.706   2.962   2.717
 3314TIP3    H1 9819   6.663   2.877   2.711
 3314TIP3    H2 9820   6.783   2.947   2.773
 3315TIP3   OH2 9821   6.754   2.642   3.291
 3315TIP3    H1 9822   6.681   2.649   3.352
 3315TIP3    H2 9823   6.795   2.729   3.293
 3316TIP3   OH2 9824   6.572   2.155   1.911
 3316TIP3    H1 9825   6.638   2.219   1.883
 3316TIP3    H2 9826   6.610   2.115   1.990
 3317TIP3   OH2 9827   6.696   2.022   2.115
 3317TIP3    H1 9828   6.632   1.980   2.172
 3317TIP3    H2 9829   6.760   2.060   2.175
 3318TIP3   OH2 9830   6.751   2.413   2.544
 3318TIP3    H1 9831   6.804   2.350   2.496
 3318TIP3    H2 9832   6.742   2.488   2.485
 3319TIP3   OH2 9833   6.581   2.714   2.741
 3319TIP3    H1 9834   6.513   2.757   2.793
 3319TIP3    H2 9835   6.533   2.667   2.673
 3320TIP3   OH2 9836   6.633   1.932   1.759
 3320TIP3    H1 9837   6.564   1.932   1.693
 3320TIP3    H2 9838   6.610   2.004   1.818
 3321TIP3   OH2 9839   6.507   1.601   1.712
 3321TIP3    H1 9840   6.460   1.640   1.637
 3321TIP3    H2 9841   6.484   1.508   1.708
 3322TIP3   OH2 9842   6.512   1.877   2.262
 3322TIP3    H1 9843   6.519   1.782   2.255
 3322TIP3    H2 9844   6.498   1.893   2.355
 3323TIP3   OH2 9845   5.140   1.950   3.007
 3323TIP3    H1 9846   5.134   1.921   2.915
 3323TIP3    H2 9847   5.234   1.953   3.025
 3324TIP3   OH2 9848   6.801   2.303   3.117
 3324TIP3    H1 9849   6.871   2.238   3.109
 3324TIP3    H2 9850   6.826   2.372   3.055
 3325TIP3   OH2 9851   6.985   2.106   3.138
 3325TIP3    H1 9852   6.911   2.058   3.174
 3325TIP3    H2 9853   7.059   2.047   3.149
 3326TIP3   OH2 9854   6.449   1.337   1.703
 3326TIP3    H1 9855   6.522   1.307   1.757
 3326TIP3    H2 9856   6.377   1.278   1.726
 3327TIP3   OH2 9857   6.509   1.592   2.155
 3327TIP3    H1 9858   6.545   1.505   2.173
 3327TIP3    H2 9859   6.566   1.627   2.086
 3328TIP3   OH2 9860   6.672   1.772   2.651
 3328TIP3    H1 9861   6.754   1.795   2.608
 3328TIP3    H2 9862   6.681   1.804   2.741
 3329TIP3   OH2 9863   6.737   1.915   2.883
 3329TIP3    H1 9864   6.660   1.946   2.930
 3329TIP3    H2 9865   6.770   1.992   2.837
 3330TIP3   OH2 9866   5.357   1.639   3.687
 3330TIP3    H1 9867   5.453   1.633   3.683
 3330TIP3    H2 9868   5.330   1.555   3.724
 3331TIP3   OH2 9869   7.184   1.501   3.437
 3331TIP3    H1 9870   7.247   1.437   3.403
 3331TIP3    H2 9871   7.164   1.557   3.362
 3332TIP3   OH2 9872   6.616   1.342   2.195
 3332TIP3    H1 9873   6.664   1.329   2.276
 3332TIP3    H2 9874   6.556   1.268   2.190
 3333TIP3   OH2 9875   5.319   1.331   3.017
 3333TIP3    H1 9876   5.377   1.255   3.022
 3333TIP3    H2 9877   5.379   1.406   3.007
 3334TIP3   OH2 9878   5.123   1.607   3.087
 3334TIP3    H1 9879   5.166   1.593   3.003
 3334TIP3    H2 9880   5.150   1.695   3.113
 3335TIP3   OH2 9881   7.058   1.645   3.240
 3335TIP3    H1 9882   6.972   1.683   3.258
 3335TIP3    H2 9883   7.040   1.569   3.186
 3336TIP3   OH2 9884   6.697   1.287   1.829
 3336TIP3    H1 9885   6.726   1.212   1.777
 3336TIP3    H2 9886   6.766   1.352   1.819
 3337TIP3   OH2 9887   6.263   2.811   2.090
 3337TIP3    H1 9888   6.314   2.798   2.011
 3337TIP3    H2 9889   6.311   2.877   2.139
 3338TIP3   OH2 9890   5.321   1.190   3.403
 3338TIP3    H1 9891   5.271   1.183   3.485
 3338TIP3    H2 9892   5.259   1.227   3.340
 3339TIP3   OH2 9893   5.363   2.607   3.481
 3339TIP3    H1 9894   5.273   2.585   3.456
 3339TIP3    H2 9895   5.363   2.604   3.576
 3340TIP3   OH2 9896   5.542   2.650   3.023
 3340TIP3    H1 9897   5.489   2.721   2.988
 3340TIP3    H2 9898   5.627   2.660   2.981
 3341TIP3   OH2 9899   5.989   2.892   3.163
 3341TIP3    H1 9900   6.027   2.895   3.251
 3341TIP3    H2 9901   6.050   2.942   3.108
 3342TIP3   OH2 9902   6.167   3.043   3.023
 3342TIP3    H1 9903   6.237   2.993   2.979
 3342TIP3    H2 9904   6.213   3.101   3.083
 3343TIP3   OH2 9905   6.958   1.403   3.122
 3343TIP3    H1 9906   6.868   1.397   3.089
 3343TIP3    H2 9907   6.993   1.314   3.113
 3344TIP3   OH2 9908   5.216   2.905   3.052
 3344TIP3    H1 9909   5.129   2.935   3.023
 3344TIP3    H2 9910   5.229   2.946   3.137
 3345TIP3   OH2 9911   5.451   2.883   2.905
 3345TIP3    H1 9912   5.368   2.894   2.952
 3345TIP3    H2 9913   5.434   2.917   2.817
 3346TIP3   OH2 9914   5.878   2.914   2.703
 3346TIP3    H1 9915   5.810   2.932   2.639
 3346TIP3    H2 9916   5.893   2.998   2.747
 3347TIP3   OH2 9917   6.146   2.853   2.754
 3347TIP3    H1 9918   6.054   2.868   2.737
 3347TIP3    H2 9919   6.191   2.929   2.716
 3348TIP3   OH2 9920   6.357   3.044   2.670
 3348TIP3    H1 9921   6.342   3.128   2.626
 3348TIP3    H2 9922   6.381   2.984   2.599
 3349TIP3   OH2 9923   5.132   2.697   2.794
 3349TIP3    H1 9924   5.153   2.674   2.884
 3349TIP3    H2 9925   5.200   2.655   2.742
 3350TIP3   OH2 9926   5.324   2.568   2.651
 3350TIP3    H1 9927   5.337   2.487   2.699
 3350TIP3    H2 9928   5.411   2.607   2.645
 3351TIP3   OH2 9929   5.590   2.663   2.654
 3351TIP3    H1 9930   5.619   2.573   2.640
 3351TIP3    H2 9931   5.629   2.689   2.737
 3352TIP3   OH2 9932   6.165   1.320   2.742
 3352TIP3    H1 9933   6.120   1.253   2.794
 3352TIP3    H2 9934   6.235   1.272   2.696
 3353TIP3   OH2 9935   6.687   1.203   2.645
 3353TIP3    H1 9936   6.724   1.253   2.572
 3353TIP3    H2 9937   6.593   1.218   2.639
 3354TIP3   OH2 9938   6.785   1.304   2.409
 3354TIP3    H1 9939   6.855   1.250   2.371
 3354TIP3    H2 9940   6.815   1.394   2.396
 3355TIP3   OH2 9941   5.412   1.028   2.758
 3355TIP3    H1 9942   5.321   0.999   2.763
 3355TIP3    H2 9943   5.463   0.947   2.751
 3356TIP3   OH2 9944   5.860   1.060   2.637
 3356TIP3    H1 9945   5.916   1.111   2.579
 3356TIP3    H2 9946   5.872   1.100   2.723
 3357TIP3   OH2 9947   6.406   1.206   2.621
 3357TIP3    H1 9948   6.401   1.171   2.532
 3357TIP3    H2 9949   6.391   1.130   2.678
 3358TIP3   OH2 9950   6.431   1.130   2.185
 3358TIP3    H1 9951   6.346   1.173   2.194
 3358TIP3    H2 9952   6.420   1.046   2.230
 3359TIP3   OH2 9953   4.915   2.470   2.183
 3359TIP3    H1 9954   4.832   2.434   2.151
 3359TIP3    H2 9955   4.907   2.565   2.170
 3360TIP3   OH2 9956   5.321   1.083   2.134
 3360TIP3    H1 9957   5.373   1.006   2.109
 3360TIP3    H2 9958   5.369   1.122   2.206
 3361TIP3   OH2 9959   5.835   1.236   2.268
 3361TIP3    H1 9960   5.889   1.185   2.328
 3361TIP3    H2 9961   5.853   1.327   2.290
 3362TIP3   OH2 9962   5.690   2.658   1.763
 3362TIP3    H1 9963   5.777   2.683   1.732
 3362TIP3    H2 9964   5.665   2.584   1.708
 3363TIP3   OH2 9965   6.407   2.776   1.857
 3363TIP3    H1 9966   6.400   2.681   1.848
 3363TIP3    H2 9967   6.362   2.811   1.780
 3364TIP3   OH2 9968   5.622   1.311   3.653
 3364TIP3    H1 9969   5.586   1.240   3.706
 3364TIP3    H2 9970   5.715   1.313   3.675
 3365TIP3   OH2 9971   5.871   1.307   3.769
 3365TIP3    H1 9972   5.954   1.283   3.727
 3365TIP3    H2 9973   5.857   1.239   3.835
 3366TIP3   OH2 9974   4.994   2.498   1.825
 3366TIP3    H1 9975   4.989   2.523   1.917
 3366TIP3    H2 9976   5.080   2.457   1.816
 3367TIP3   OH2 9977   6.697   1.369   3.556
 3367TIP3    H1 9978   6.713   1.338   3.645
 3367TIP3    H2 9979   6.782   1.365   3.513
 3368TIP3   OH2 9980   6.632   2.923   3.047
 3368TIP3    H1 9981   6.556   2.888   2.999
 3368TIP3    H2 9982   6.617   3.017   3.051
 3369TIP3   OH2 9983   7.898   2.293   1.814
 3369TIP3    H1 9984   7.874   2.384   1.797
 3369TIP3    H2 9985   7.823   2.243   1.783
 3370TIP3   OH2 9986   7.898   2.292   2.195
 3370TIP3    H1 9987   7.930   2.267   2.282
 3370TIP3    H2 9988   7.856   2.213   2.161
 3371TIP3   OH2 9989   7.201   2.189   2.561
 3371TIP3    H1 9990   7.228   2.121   2.623
 3371TIP3    H2 9991   7.276   2.247   2.555
 3372TIP3   OH2 9992   8.142   2.596   1.877
 3372TIP3    H1 9993   8.128   2.526   1.942
 3372TIP3    H2 9994   8.170   2.671   1.929
 3373TIP3   OH2 9995   7.170   2.596   2.284
 3373TIP3    H1 9996   7.159   2.501   2.288
 3373TIP3    H2 9997   7.265   2.609   2.281
 3374TIP3   OH2 9998   6.876   1.805   2.069
 3374TIP3    H1 9999   6.829   1.887   2.086
 3374TIP3    H210000   6.808   1.746   2.036
 3375TIP3   OH210001   6.937   2.087   2.240
 3375TIP3    H110002   6.983   2.013   2.279
 3375TIP3    H210003   6.996   2.120   2.173
 3376TIP3   OH210004   7.790   3.055   1.891
 3376TIP3    H110005   7.837   2.987   1.844
 3376TIP3    H210006   7.786   3.024   1.981
 3377TIP3   OH210007   7.701   2.519   2.242
 3377TIP3    H110008   7.735   2.442   2.195
 3377TIP3    H210009   7.780   2.567   2.268
 3378TIP3   OH210010   8.645   1.865   2.252
 3378TIP3    H110011   8.702   1.915   2.311
 3378TIP3    H210012   8.691   1.867   2.168
 3379TIP3   OH210013   8.110   2.020   2.275
 3379TIP3    H110014   8.145   1.935   2.300
 3379TIP3    H210015   8.078   2.008   2.185
 3380TIP3   OH210016   7.446   1.680   2.237
 3380TIP3    H110017   7.426   1.754   2.179
 3380TIP3    H210018   7.400   1.606   2.198
 3381TIP3   OH210019   8.149   1.773   1.870
 3381TIP3    H110020   8.222   1.747   1.926
 3381TIP3    H210021   8.191   1.804   1.790
 3382TIP3   OH210022   7.083   1.881   2.346
 3382TIP3    H110023   7.163   1.864   2.396
 3382TIP3    H210024   7.092   1.827   2.268
 3383TIP3   OH210025   7.523   2.079   2.138
 3383TIP3    H110026   7.615   2.056   2.153
 3383TIP3    H210027   7.483   1.997   2.108
 3384TIP3   OH210028   8.776   2.042   2.415
 3384TIP3    H110029   8.699   2.098   2.406
 3384TIP3    H210030   8.824   2.080   2.489
 3385TIP3   OH210031   7.443   1.664   2.674
 3385TIP3    H110032   7.384   1.700   2.607
 3385TIP3    H210033   7.396   1.678   2.757
 3386TIP3   OH210034   7.790   2.516   1.684
 3386TIP3    H110035   7.750   2.494   1.601
 3386TIP3    H210036   7.751   2.599   1.709
 3387TIP3   OH210037   7.550   2.441   2.471
 3387TIP3    H110038   7.488   2.503   2.509
 3387TIP3    H210039   7.593   2.490   2.400
 3388TIP3   OH210040   8.368   1.724   2.071
 3388TIP3    H110041   8.320   1.749   2.150
 3388TIP3    H210042   8.418   1.802   2.047
 3389TIP3   OH210043   7.317   1.780   2.457
 3389TIP3    H110044   7.375   1.851   2.484
 3389TIP3    H210045   7.364   1.736   2.385
 3390TIP3   OH210046   7.374   2.634   2.567
 3390TIP3    H110047   7.354   2.719   2.528
 3390TIP3    H210048   7.300   2.615   2.624
 3391TIP3   OH210049   6.776   2.325   1.803
 3391TIP3    H110050   6.731   2.351   1.723
 3391TIP3    H210051   6.805   2.407   1.842
 3392TIP3   OH210052   8.211   2.838   2.042
 3392TIP3    H110053   8.124   2.828   2.082
 3392TIP3    H210054   8.207   2.923   1.998
 3393TIP3   OH210055   8.474   1.713   2.393
 3393TIP3    H110056   8.397   1.768   2.394
 3393TIP3    H210057   8.538   1.761   2.340
 3394TIP3   OH210058   7.798   1.383   2.389
 3394TIP3    H110059   7.790   1.289   2.406
 3394TIP3    H210060   7.724   1.422   2.434
 3395TIP3   OH210061   7.919   2.885   1.716
 3395TIP3    H110062   7.964   2.802   1.698
 3395TIP3    H210063   7.975   2.952   1.678
 3396TIP3   OH210064   8.058   2.668   1.625
 3396TIP3    H110065   8.021   2.591   1.584
 3396TIP3    H210066   8.094   2.636   1.708
 3397TIP3   OH210067   8.437   2.751   2.385
 3397TIP3    H110068   8.425   2.675   2.329
 3397TIP3    H210069   8.419   2.826   2.328
 3398TIP3   OH210070   7.728   2.145   1.644
 3398TIP3    H110071   7.652   2.197   1.622
 3398TIP3    H210072   7.778   2.140   1.562
 3399TIP3   OH210073   7.691   1.929   1.368
 3399TIP3    H110074   7.760   1.978   1.413
 3399TIP3    H210075   7.738   1.866   1.314
 3400TIP3   OH210076   8.630   2.387   2.231
 3400TIP3    H110077   8.550   2.438   2.238
 3400TIP3    H210078   8.664   2.405   2.144
 3401TIP3   OH210079   8.077   2.228   1.619
 3401TIP3    H110080   8.022   2.252   1.694
 3401TIP3    H210081   8.160   2.201   1.657
 3402TIP3   OH210082   8.310   2.270   2.528
 3402TIP3    H110083   8.311   2.350   2.581
 3402TIP3    H210084   8.226   2.273   2.483
 3403TIP3   OH210085   7.311   2.223   2.032
 3403TIP3    H110086   7.271   2.168   1.965
 3403TIP3    H210087   7.387   2.174   2.062
 3404TIP3   OH210088   7.442   2.637   2.180
 3404TIP3    H110089   7.420   2.593   2.099
 3404TIP3    H210090   7.530   2.606   2.201
 3405TIP3   OH210091   7.448   2.198   2.386
 3405TIP3    H110092   7.481   2.177   2.298
 3405TIP3    H210093   7.489   2.282   2.408
 3406TIP3   OH210094   7.972   2.834   2.165
 3406TIP3    H110095   7.958   2.914   2.216
 3406TIP3    H210096   7.957   2.763   2.227
 3407TIP3   OH210097   7.581   2.754   2.711
 3407TIP3    H110098   7.526   2.816   2.758
 3407TIP3    H210099   7.520   2.700   2.662
 3408TIP3   OH210100   7.919   2.086   1.445
 3408TIP3    H110101   7.975   2.140   1.500
 3408TIP3    H210102   7.944   2.110   1.355
 3409TIP3   OH210103   7.336   2.314   2.811
 3409TIP3    H110104   7.343   2.398   2.856
 3409TIP3    H210105   7.244   2.290   2.820
 3410TIP3   OH210106   7.661   2.767   1.716
 3410TIP3    H110107   7.740   2.818   1.736
 3410TIP3    H210108   7.600   2.831   1.681
 3411TIP3   OH210109   7.377   2.922   2.798
 3411TIP3    H110110   7.344   2.921   2.708
 3411TIP3    H210111   7.300   2.900   2.851
 3412TIP3   OH210112   7.178   2.066   1.830
 3412TIP3    H110113   7.112   2.112   1.778
 3412TIP3    H210114   7.135   1.986   1.858
 3413TIP3   OH210115   8.233   2.696   1.036
 3413TIP3    H110116   8.237   2.791   1.025
 3413TIP3    H210117   8.324   2.667   1.024
 3414TIP3   OH210118   6.957   2.451   2.745
 3414TIP3    H110119   6.893   2.430   2.677
 3414TIP3    H210120   6.994   2.366   2.770
 3415TIP3   OH210121   6.813   2.647   2.378
 3415TIP3    H110122   6.908   2.640   2.369
 3415TIP3    H210123   6.799   2.725   2.432
 3416TIP3   OH210124   8.671   3.100   2.434
 3416TIP3    H110125   8.676   3.004   2.442
 3416TIP3    H210126   8.591   3.124   2.479
 3417TIP3   OH210127   7.781   2.884   2.570
 3417TIP3    H110128   7.782   2.975   2.599
 3417TIP3    H210129   7.712   2.842   2.621
 3418TIP3   OH210130   7.540   3.012   1.519
 3418TIP3    H110131   7.497   2.995   1.436
 3418TIP3    H210132   7.511   3.100   1.544
 3419TIP3   OH210133   6.980   2.859   1.905
 3419TIP3    H110134   7.030   2.853   1.987
 3419TIP3    H210135   6.919   2.785   1.909
 3420TIP3   OH210136   7.745   2.910   1.161
 3420TIP3    H110137   7.803   2.844   1.124
 3420TIP3    H210138   7.777   2.923   1.250
 3421TIP3   OH210139   7.792   2.960   1.432
 3421TIP3    H110140   7.706   2.969   1.473
 3421TIP3    H210141   7.847   2.922   1.501
 3422TIP3   OH210142   8.575   2.230   2.699
 3422TIP3    H110143   8.490   2.243   2.656
 3422TIP3    H210144   8.589   2.136   2.698
 3423TIP3   OH210145   7.162   2.634   2.736
 3423TIP3    H110146   7.212   2.619   2.816
 3423TIP3    H210147   7.089   2.572   2.742
 3424TIP3   OH210148   7.558   1.462   2.515
 3424TIP3    H110149   7.473   1.428   2.489
 3424TIP3    H210150   7.538   1.541   2.565
 3425TIP3   OH210151   8.093   1.574   2.715
 3425TIP3    H110152   8.160   1.551   2.780
 3425TIP3    H210153   8.010   1.557   2.759
 3426TIP3   OH210154   8.330   2.004   2.626
 3426TIP3    H110155   8.288   1.999   2.712
 3426TIP3    H210156   8.310   2.092   2.595
 3427TIP3   OH210157   7.999   2.148   1.196
 3427TIP3    H110158   7.959   2.110   1.118
 3427TIP3    H210159   8.080   2.187   1.165
 3428TIP3   OH210160   7.707   1.519   1.489
 3428TIP3    H110161   7.691   1.528   1.583
 3428TIP3    H210162   7.668   1.435   1.465
 3429TIP3   OH210163   7.493   1.976   2.537
 3429TIP3    H110164   7.445   1.994   2.618
 3429TIP3    H210165   7.479   2.054   2.483
 3430TIP3   OH210166   7.374   1.859   2.048
 3430TIP3    H110167   7.284   1.835   2.070
 3430TIP3    H210168   7.390   1.820   1.963
 3431TIP3   OH210169   7.868   1.944   1.775
 3431TIP3    H110170   7.817   2.015   1.736
 3431TIP3    H210171   7.923   1.912   1.704
 3432TIP3   OH210172   8.043   2.225   2.867
 3432TIP3    H110173   8.019   2.153   2.925
 3432TIP3    H210174   8.136   2.241   2.885
 3433TIP3   OH210175   8.023   1.974   2.015
 3433TIP3    H110176   7.964   2.010   1.949
 3433TIP3    H210177   8.057   1.893   1.975
 3434TIP3   OH210178   7.312   2.002   2.747
 3434TIP3    H110179   7.342   2.065   2.812
 3434TIP3    H210180   7.301   1.920   2.795
 3435TIP3   OH210181   7.341   1.464   1.466
 3435TIP3    H110182   7.358   1.453   1.560
 3435TIP3    H210183   7.267   1.526   1.462
 3436TIP3   OH210184   6.907   1.528   2.323
 3436TIP3    H110185   6.981   1.556   2.377
 3436TIP3    H210186   6.947   1.490   2.245
 3437TIP3   OH210187   6.881   1.510   1.840
 3437TIP3    H110188   6.932   1.547   1.768
 3437TIP3    H210189   6.820   1.580   1.864
 3438TIP3   OH210190   8.033   2.219   2.440
 3438TIP3    H110191   8.068   2.152   2.382
 3438TIP3    H210192   8.007   2.171   2.518
 3439TIP3   OH210193   7.704   1.679   2.114
 3439TIP3    H110194   7.619   1.676   2.158
 3439TIP3    H210195   7.767   1.692   2.186
 3440TIP3   OH210196   7.139   1.737   2.118
 3440TIP3    H110197   7.047   1.745   2.093
 3440TIP3    H210198   7.161   1.646   2.099
 3441TIP3   OH210199   7.409   1.733   1.808
 3441TIP3    H110200   7.503   1.750   1.794
 3441TIP3    H210201   7.368   1.756   1.724
 3442TIP3   OH210202   8.180   1.751   2.298
 3442TIP3    H110203   8.166   1.764   2.392
 3442TIP3    H210204   8.110   1.690   2.273
 3443TIP3   OH210205   7.253   1.759   1.580
 3443TIP3    H110206   7.163   1.742   1.553
 3443TIP3    H210207   7.292   1.802   1.504
 3444TIP3   OH210208   8.367   3.449   2.530
 3444TIP3    H110209   8.364   3.468   2.436
 3444TIP3    H210210   8.445   3.494   2.562
 3445TIP3   OH210211   7.324   2.558   2.957
 3445TIP3    H110212   7.404   2.587   3.000
 3445TIP3    H210213   7.258   2.557   3.027
 3446TIP3   OH210214   7.787   2.008   2.209
 3446TIP3    H110215   7.862   1.972   2.161
 3446TIP3    H210216   7.796   1.972   2.297
 3447TIP3   OH210217   7.311   1.496   2.087
 3447TIP3    H110218   7.275   1.421   2.136
 3447TIP3    H210219   7.370   1.456   2.024
 3448TIP3   OH210220   7.766   1.911   2.494
 3448TIP3    H110221   7.677   1.942   2.512
 3448TIP3    H210222   7.822   1.966   2.548
 3449TIP3   OH210223   7.499   2.299   1.594
 3449TIP3    H110224   7.429   2.235   1.582
 3449TIP3    H210225   7.486   2.333   1.683
 3450TIP3   OH210226   8.400   2.534   2.220
 3450TIP3    H110227   8.423   2.581   2.140
 3450TIP3    H210228   8.316   2.492   2.200
 3451TIP3   OH210229   7.938   1.645   1.401
 3451TIP3    H110230   7.862   1.603   1.442
 3451TIP3    H210231   7.969   1.706   1.468
 3452TIP3   OH210232   7.899   2.616   2.592
 3452TIP3    H110233   7.924   2.594   2.681
 3452TIP3    H210234   7.862   2.704   2.598
 3453TIP3   OH210235   8.035   1.855   1.561
 3453TIP3    H110236   8.130   1.857   1.570
 3453TIP3    H210237   8.015   1.930   1.505
 3454TIP3   OH210238   7.193   2.317   2.269
 3454TIP3    H110239   7.231   2.291   2.185
 3454TIP3    H210240   7.232   2.258   2.333
 3455TIP3   OH210241   7.642   2.448   1.411
 3455TIP3    H110242   7.599   2.533   1.417
 3455TIP3    H210243   7.593   2.393   1.472
 3456TIP3   OH210244   7.072   2.240   2.885
 3456TIP3    H110245   7.095   2.228   2.977
 3456TIP3    H210246   7.005   2.174   2.868
 3457TIP3   OH210247   7.800   2.352   2.902
 3457TIP3    H110248   7.740   2.295   2.854
 3457TIP3    H210249   7.887   2.322   2.877
 3458TIP3   OH210250   8.060   2.875   2.489
 3458TIP3    H110251   7.964   2.873   2.498
 3458TIP3    H210252   8.090   2.926   2.564
 3459TIP3   OH210253   8.458   1.947   1.409
 3459TIP3    H110254   8.416   1.882   1.353
 3459TIP3    H210255   8.451   2.029   1.360
 3460TIP3   OH210256   8.687   2.793   2.467
 3460TIP3    H110257   8.591   2.796   2.465
 3460TIP3    H210258   8.713   2.764   2.379
 3461TIP3   OH210259   8.164   2.766   1.301
 3461TIP3    H110260   8.149   2.697   1.366
 3461TIP3    H210261   8.184   2.719   1.220
 3462TIP3   OH210262   8.165   2.395   2.143
 3462TIP3    H110263   8.073   2.373   2.158
 3462TIP3    H210264   8.200   2.320   2.095
 3463TIP3   OH210265   7.292   2.623   1.890
 3463TIP3    H110266   7.296   2.705   1.840
 3463TIP3    H210267   7.199   2.609   1.907
 3464TIP3   OH210268   6.856   1.931   1.600
 3464TIP3    H110269   6.903   2.012   1.618
 3464TIP3    H210270   6.780   1.933   1.658
 3465TIP3   OH210271   7.432   2.390   1.839
 3465TIP3    H110272   7.399   2.479   1.855
 3465TIP3    H210273   7.399   2.338   1.912
 3466TIP3   OH210274   7.565   2.969   2.364
 3466TIP3    H110275   7.603   3.040   2.313
 3466TIP3    H210276   7.638   2.932   2.413
 3467TIP3   OH210277   7.213   2.865   1.747
 3467TIP3    H110278   7.129   2.870   1.792
 3467TIP3    H210279   7.247   2.954   1.749
 3468TIP3   OH210280   7.953   2.600   2.324
 3468TIP3    H110281   7.941   2.601   2.419
 3468TIP3    H210282   8.034   2.550   2.310
 3469TIP3   OH210283   7.926   2.490   1.208
 3469TIP3    H110284   7.983   2.468   1.282
 3469TIP3    H210285   7.838   2.468   1.239
 3470TIP3   OH210286   8.199   3.136   2.371
 3470TIP3    H110287   8.122   3.080   2.365
 3470TIP3    H210288   8.187   3.201   2.301
 3471TIP3   OH210289   8.263   2.974   1.025
 3471TIP3    H110290   8.305   3.044   0.974
 3471TIP3    H210291   8.183   3.014   1.059
 3472TIP3   OH210292   7.285   1.747   2.891
 3472TIP3    H110293   7.190   1.749   2.904
 3472TIP3    H210294   7.317   1.688   2.959
 3473TIP3   OH210295   8.085   2.427   1.423
 3473TIP3    H110296   8.073   2.362   1.492
 3473TIP3    H210297   8.180   2.429   1.409
 3474TIP3   OH210298   7.003   2.830   2.525
 3474TIP3    H110299   7.055   2.755   2.555
 3474TIP3    H210300   7.028   2.901   2.583
 3475TIP3   OH210301   7.289   2.477   1.205
 3475TIP3    H110302   7.311   2.387   1.179
 3475TIP3    H210303   7.273   2.470   1.300
 3476TIP3   OH210304   7.241   2.481   1.477
 3476TIP3    H110305   7.309   2.452   1.538
 3476TIP3    H210306   7.241   2.577   1.483
 3477TIP3   OH210307   6.972   2.176   1.680
 3477TIP3    H110308   6.907   2.216   1.739
 3477TIP3    H210309   6.988   2.243   1.613
 3478TIP3   OH210310   8.133   1.799   2.562
 3478TIP3    H110311   8.200   1.848   2.610
 3478TIP3    H210312   8.111   1.726   2.619
 3479TIP3   OH210313   7.963   1.589   1.729
 3479TIP3    H110314   7.996   1.569   1.642
 3479TIP3    H210315   8.028   1.647   1.768
 3480TIP3   OH210316   7.501   2.679   1.423
 3480TIP3    H110317   7.417   2.703   1.462
 3480TIP3    H210318   7.524   2.754   1.367
 3481TIP3   OH210319   7.688   1.742   1.840
 3481TIP3    H110320   7.755   1.805   1.816
 3481TIP3    H210321   7.694   1.735   1.936
 3482TIP3   OH210322   7.965   2.061   2.650
 3482TIP3    H110323   7.978   2.118   2.726
 3482TIP3    H210324   8.017   1.983   2.670
 3483TIP3   OH210325   7.838   1.475   1.945
 3483TIP3    H110326   7.817   1.552   1.999
 3483TIP3    H210327   7.889   1.510   1.872
 3484TIP3   OH210328   7.243   2.754   1.493
 3484TIP3    H110329   7.215   2.821   1.430
 3484TIP3    H210330   7.230   2.795   1.579
 3485TIP3   OH210331   7.357   1.467   1.736
 3485TIP3    H110332   7.345   1.555   1.773
 3485TIP3    H210333   7.450   1.448   1.748
 3486TIP3   OH210334   8.597   1.959   2.631
 3486TIP3    H110335   8.501   1.955   2.629
 3486TIP3    H210336   8.623   1.950   2.539
 3487TIP3   OH210337   8.244   2.159   2.011
 3487TIP3    H110338   8.171   2.100   2.028
 3487TIP3    H210339   8.317   2.120   2.059
 3488TIP3   OH210340   6.966   2.386   1.485
 3488TIP3    H110341   7.025   2.460   1.498
 3488TIP3    H210342   7.009   2.331   1.420
 3489TIP3   OH210343   6.919   1.665   1.606
 3489TIP3    H110344   6.904   1.759   1.611
 3489TIP3    H210345   6.833   1.628   1.584
 3490TIP3   OH210346   8.223   3.110   1.962
 3490TIP3    H110347   8.178   3.154   1.891
 3490TIP3    H210348   8.316   3.130   1.948
 3491TIP3   OH210349   7.295   1.377   2.493
 3491TIP3    H110350   7.266   1.344   2.408
 3491TIP3    H210351   7.287   1.302   2.552
 3492TIP3   OH210352   6.834   2.596   1.873
 3492TIP3    H110353   6.766   2.627   1.932
 3492TIP3    H210354   6.813   2.635   1.788
 3493TIP3   OH210355   6.993   3.135   2.945
 3493TIP3    H110356   7.077   3.138   2.991
 3493TIP3    H210357   6.970   3.043   2.943
 3494TIP3   OH210358   7.477   3.103   2.988
 3494TIP3    H110359   7.570   3.085   2.997
 3494TIP3    H210360   7.449   3.047   2.915
 3495TIP3   OH210361   7.453   2.680   1.116
 3495TIP3    H110362   7.400   2.612   1.156
 3495TIP3    H210363   7.530   2.634   1.083
 3496TIP3   OH210364   8.114   3.009   2.724
 3496TIP3    H110365   8.104   2.941   2.790
 3496TIP3    H210366   8.190   3.060   2.752
 3497TIP3   OH210367   7.894   2.719   1.029
 3497TIP3    H110368   7.941   2.661   1.089
 3497TIP3    H210369   7.950   2.723   0.951
 3498TIP3   OH210370   7.121   2.542   3.145
 3498TIP3    H110371   7.141   2.449   3.148
 3498TIP3    H210372   7.036   2.548   3.102
 3499TIP3   OH210373   7.102   2.195   1.341
 3499TIP3    H110374   7.154   2.169   1.417
 3499TIP3    H210375   7.164   2.195   1.268
 3500TIP3   OH210376   7.731   2.628   2.918
 3500TIP3    H110377   7.691   2.645   2.832
 3500TIP3    H210378   7.762   2.538   2.912
 3501TIP3   OH210379   7.600   2.386   1.148
 3501TIP3    H110380   7.610   2.407   1.241
 3501TIP3    H210381   7.613   2.292   1.143
 3502TIP3   OH210382   8.223   2.639   2.522
 3502TIP3    H110383   8.298   2.682   2.481
 3502TIP3    H210384   8.152   2.702   2.513
 3503TIP3   OH210385   7.244   2.277   3.128
 3503TIP3    H110386   7.319   2.223   3.103
 3503TIP3    H210387   7.267   2.312   3.214
 3504TIP3   OH210388   7.304   2.100   1.557
 3504TIP3    H110389   7.282   2.064   1.643
 3504TIP3    H210390   7.343   2.026   1.510
 3505TIP3   OH210391   7.576   2.165   2.786
 3505TIP3    H110392   7.500   2.223   2.790
 3505TIP3    H210393   7.626   2.196   2.710
 3506TIP3   OH210394   7.417   1.885   1.391
 3506TIP3    H110395   7.420   1.819   1.322
 3506TIP3    H210396   7.508   1.913   1.402
 3507TIP3   OH210397   8.095   2.565   2.923
 3507TIP3    H110398   8.176   2.545   2.876
 3507TIP3    H210399   8.091   2.499   2.993
 3508TIP3   OH210400   8.223   2.222   1.044
 3508TIP3    H110401   8.197   2.178   0.964
 3508TIP3    H210402   8.197   2.314   1.031
 3509TIP3   OH210403   7.698   1.953   2.916
 3509TIP3    H110404   7.700   1.871   2.866
 3509TIP3    H210405   7.655   2.016   2.859
 3510TIP3   OH210406   7.701   1.741   2.721
 3510TIP3    H110407   7.730   1.778   2.637
 3510TIP3    H210408   7.610   1.716   2.706
 3511TIP3   OH210409   7.731   2.274   2.592
 3511TIP3    H110410   7.815   2.283   2.546
 3511TIP3    H210411   7.675   2.340   2.552
 3512TIP3   OH210412   8.315   2.241   2.976
 3512TIP3    H110413   8.360   2.158   2.991
 3512TIP3    H210414   8.384   2.300   2.946
 3513TIP3   OH210415   8.355   2.495   2.709
 3513TIP3    H110416   8.295   2.545   2.653
 3513TIP3    H210417   8.442   2.511   2.672
 3514TIP3   OH210418   7.570   2.065   3.144
 3514TIP3    H110419   7.508   1.994   3.159
 3514TIP3    H210420   7.612   2.042   3.061
 3515TIP3   OH210421   7.829   1.498   2.774
 3515TIP3    H110422   7.782   1.581   2.762
 3515TIP3    H210423   7.760   1.432   2.773
 3516TIP3   OH210424   7.958   2.008   3.007
 3516TIP3    H110425   7.955   1.992   3.101
 3516TIP3    H210426   7.872   1.983   2.975
 3517TIP3   OH210427   8.200   1.953   2.859
 3517TIP3    H110428   8.125   1.954   2.919
 3517TIP3    H210429   8.273   1.923   2.914
 3518TIP3   OH210430   8.430   1.895   3.012
 3518TIP3    H110431   8.439   1.801   3.030
 3518TIP3    H210432   8.424   1.935   3.099
 3519TIP3   OH210433   7.421   1.838   3.201
 3519TIP3    H110434   7.429   1.751   3.162
 3519TIP3    H210435   7.461   1.829   3.288
 3520TIP3   OH210436   7.966   1.531   3.014
 3520TIP3    H110437   8.003   1.446   3.037
 3520TIP3    H210438   7.899   1.512   2.949
 3521TIP3   OH210439   8.005   1.735   3.193
 3521TIP3    H110440   7.990   1.663   3.133
 3521TIP3    H210441   7.921   1.780   3.199
 3522TIP3   OH210442   7.216   2.954   1.302
 3522TIP3    H110443   7.311   2.950   1.289
 3522TIP3    H210444   7.184   3.005   1.227
 3523TIP3   OH210445   6.697   2.337   1.519
 3523TIP3    H110446   6.789   2.361   1.509
 3523TIP3    H210447   6.690   2.250   1.480
 3524TIP3   OH210448   6.611   2.947   1.935
 3524TIP3    H110449   6.543   2.889   1.899
 3524TIP3    H210450   6.655   2.893   2.001
 3525TIP3   OH210451   6.749   2.801   2.123
 3525TIP3    H110452   6.733   2.727   2.183
 3525TIP3    H210453   6.798   2.864   2.176
 3526TIP3   OH210454   8.473   3.207   1.922
 3526TIP3    H110455   8.504   3.238   2.007
 3526TIP3    H210456   8.539   3.238   1.860
 3527TIP3   OH210457   8.499   3.222   2.208
 3527TIP3    H110458   8.461   3.134   2.202
 3527TIP3    H210459   8.584   3.209   2.250
 3528TIP3   OH210460   8.548   2.900   2.777
 3528TIP3    H110461   8.477   2.906   2.840
 3528TIP3    H210462   8.590   2.986   2.779
 3529TIP3   OH210463   8.360   2.418   1.397
 3529TIP3    H110464   8.426   2.482   1.369
 3529TIP3    H210465   8.400   2.374   1.473
 3530TIP3   OH210466   8.477   2.279   1.598
 3530TIP3    H110467   8.413   2.235   1.653
 3530TIP3    H210468   8.539   2.318   1.659
 3531TIP3   OH210469   8.545   2.665   2.024
 3531TIP3    H110470   8.591   2.614   1.958
 3531TIP3    H210471   8.532   2.751   1.984
 3532TIP3   OH210472   8.376   2.968   2.228
 3532TIP3    H110473   8.310   3.015   2.279
 3532TIP3    H210474   8.327   2.924   2.158
 3533TIP3   OH210475   8.396   2.179   1.263
 3533TIP3    H110476   8.338   2.184   1.187
 3533TIP3    H210477   8.372   2.256   1.315
 3534TIP3   OH210478   8.273   1.838   1.212
 3534TIP3    H110479   8.313   1.878   1.135
 3534TIP3    H210480   8.300   1.746   1.208
 3535TIP3   OH210481   8.304   2.132   1.746
 3535TIP3    H110482   8.315   2.038   1.739
 3535TIP3    H210483   8.290   2.148   1.840
 3536TIP3   OH210484   6.936   2.208   2.492
 3536TIP3    H110485   6.931   2.179   2.401
 3536TIP3    H210486   7.030   2.210   2.511
 3537TIP3   OH210487   8.599   2.558   2.602
 3537TIP3    H110488   8.672   2.496   2.595
 3537TIP3    H210489   8.624   2.631   2.545
 3538TIP3   OH210490   8.794   2.370   2.626
 3538TIP3    H110491   8.715   2.328   2.659
 3538TIP3    H210492   8.862   2.303   2.633
 3539TIP3   OH210493   8.313   1.847   1.643
 3539TIP3    H110494   8.353   1.760   1.653
 3539TIP3    H210495   8.361   1.887   1.571
 3540TIP3   OH210496   8.455   2.042   2.129
 3540TIP3    H110497   8.536   2.071   2.086
 3540TIP3    H210498   8.473   2.054   2.222
 3541TIP3   OH210499   8.530   2.171   2.373
 3541TIP3    H110500   8.453   2.203   2.420
 3541TIP3    H210501   8.563   2.247   2.325
 3542TIP3   OH210502   7.155   1.896   3.173
 3542TIP3    H110503   7.250   1.889   3.170
 3542TIP3    H210504   7.126   1.813   3.210
 3543TIP3   OH210505   8.423   1.598   1.686
 3543TIP3    H110506   8.451   1.580   1.776
 3543TIP3    H210507   8.360   1.530   1.666
 3544TIP3   OH210508   7.114   1.587   2.498
 3544TIP3    H110509   7.172   1.511   2.509
 3544TIP3    H210510   7.174   1.661   2.494
 3545TIP3   OH210511   6.916   1.863   2.571
 3545TIP3    H110512   6.964   1.854   2.488
 3545TIP3    H210513   6.945   1.947   2.606
 3546TIP3   OH210514   8.842   1.890   2.748
 3546TIP3    H110515   8.766   1.942   2.775
 3546TIP3    H210516   8.807   1.832   2.680
 3547TIP3   OH210517   6.897   1.368   2.072
 3547TIP3    H110518   6.806   1.361   2.099
 3547TIP3    H210519   6.894   1.423   1.994
 3548TIP3   OH210520   8.058   3.069   1.577
 3548TIP3    H110521   8.108   3.054   1.497
 3548TIP3    H210522   8.109   3.133   1.626
 3549TIP3   OH210523   7.117   1.450   2.890
 3549TIP3    H110524   7.069   1.439   2.972
 3549TIP3    H210525   7.051   1.483   2.829
 3550TIP3   OH210526   7.157   2.870   2.966
 3550TIP3    H110527   7.067   2.843   2.947
 3550TIP3    H210528   7.168   2.854   3.059
 3551TIP3   OH210529   7.337   2.905   2.510
 3551TIP3    H110530   7.286   2.978   2.474
 3551TIP3    H210531   7.423   2.915   2.469
 3552TIP3   OH210532   7.785   3.150   2.651
 3552TIP3    H110533   7.823   3.150   2.739
 3552TIP3    H210534   7.848   3.199   2.598
 3553TIP3   OH210535   7.964   3.300   2.509
 3553TIP3    H110536   8.032   3.248   2.466
 3553TIP3    H210537   8.012   3.357   2.569
 3554TIP3   OH210538   8.749   1.662   2.615
 3554TIP3    H110539   8.662   1.660   2.576
 3554TIP3    H210540   8.790   1.580   2.586
 3555TIP3   OH210541   7.011   3.162   2.536
 3555TIP3    H110542   6.924   3.194   2.511
 3555TIP3    H210543   7.024   3.196   2.624
 3556TIP3   OH210544   7.247   3.140   2.393
 3556TIP3    H110545   7.164   3.152   2.438
 3556TIP3    H210546   7.231   3.173   2.304
 3557TIP3   OH210547   7.675   3.172   2.190
 3557TIP3    H110548   7.607   3.189   2.125
 3557TIP3    H210549   7.688   3.256   2.234
 3558TIP3   OH210550   7.943   3.109   2.241
 3558TIP3    H110551   7.850   3.125   2.223
 3558TIP3    H210552   7.989   3.183   2.202
 3559TIP3   OH210553   8.149   3.301   2.156
 3559TIP3    H110554   8.137   3.385   2.111
 3559TIP3    H210555   8.178   3.241   2.086
 3560TIP3   OH210556   6.927   2.953   2.281
 3560TIP3    H110557   6.950   2.931   2.371
 3560TIP3    H210558   6.996   2.912   2.229
 3561TIP3   OH210559   7.120   2.825   2.137
 3561TIP3    H110560   7.133   2.743   2.185
 3561TIP3    H210561   7.208   2.863   2.133
 3562TIP3   OH210562   7.386   2.920   2.141
 3562TIP3    H110563   7.415   2.830   2.127
 3562TIP3    H210564   7.426   2.946   2.224
 3563TIP3   OH210565   7.972   1.566   2.230
 3563TIP3    H110566   7.920   1.517   2.294
 3563TIP3    H210567   7.999   1.501   2.166
 3564TIP3   OH210568   8.569   1.549   1.928
 3564TIP3    H110569   8.641   1.509   1.879
 3564TIP3    H210570   8.587   1.643   1.926
 3565TIP3   OH210571   7.208   1.285   2.243
 3565TIP3    H110572   7.117   1.254   2.246
 3565TIP3    H210573   7.260   1.204   2.242
 3566TIP3   OH210574   6.991   1.157   1.886
 3566TIP3    H110575   7.022   1.216   1.818
 3566TIP3    H210576   6.965   1.215   1.958
 3567TIP3   OH210577   7.649   1.327   2.121
 3567TIP3    H110578   7.715   1.374   2.069
 3567TIP3    H210579   7.668   1.351   2.211
 3568TIP3   OH210580   8.219   1.426   1.780
 3568TIP3    H110581   8.187   1.428   1.690
 3568TIP3    H210582   8.223   1.333   1.803
 3569TIP3   OH210583   6.712   2.726   1.670
 3569TIP3    H110584   6.628   2.691   1.638
 3569TIP3    H210585   6.704   2.821   1.660
 3570TIP3   OH210586   7.115   1.324   1.659
 3570TIP3    H110587   7.156   1.261   1.598
 3570TIP3    H210588   7.189   1.370   1.698
 3571TIP3   OH210589   7.634   1.487   1.760
 3571TIP3    H110590   7.692   1.446   1.825
 3571TIP3    H210591   7.645   1.581   1.774
 3572TIP3   OH210592   7.486   2.916   1.252
 3572TIP3    H110593   7.573   2.940   1.220
 3572TIP3    H210594   7.460   2.842   1.196
 3573TIP3   OH210595   8.201   3.031   1.344
 3573TIP3    H110596   8.193   2.936   1.334
 3573TIP3    H210597   8.158   3.067   1.267
 3574TIP3   OH210598   7.431   1.564   3.133
 3574TIP3    H110599   7.392   1.506   3.198
 3574TIP3    H210600   7.525   1.560   3.150
 3575TIP3   OH210601   6.789   2.752   1.312
 3575TIP3    H110602   6.785   2.779   1.404
 3575TIP3    H210603   6.876   2.713   1.301
 3576TIP3   OH210604   8.490   1.624   3.044
 3576TIP3    H110605   8.508   1.595   3.134
 3576TIP3    H210606   8.575   1.622   3.001
 3577TIP3   OH210607   8.424   3.179   2.538
 3577TIP3    H110608   8.350   3.146   2.487
 3577TIP3    H210609   8.412   3.274   2.539
 3578TIP3   OH210610   8.648   2.059   1.576
 3578TIP3    H110611   8.587   2.133   1.577
 3578TIP3    H210612   8.605   1.994   1.521
 3579TIP3   OH210613   8.708   2.349   1.727
 3579TIP3    H110614   8.748   2.271   1.767
 3579TIP3    H210615   8.744   2.352   1.639
 3580TIP3   OH210616   8.562   2.587   1.311
 3580TIP3    H110617   8.544   2.599   1.218
 3580TIP3    H210618   8.596   2.672   1.340
 3581TIP3   OH210619   8.749   2.690   2.221
 3581TIP3    H110620   8.679   2.662   2.161
 3581TIP3    H210621   8.784   2.608   2.255
 3582TIP3   OH210622   8.615   2.904   1.872
 3582TIP3    H110623   8.710   2.904   1.861
 3582TIP3    H210624   8.596   2.983   1.921
 3583TIP3   OH210625   8.739   3.121   1.415
 3583TIP3    H110626   8.801   3.121   1.487
 3583TIP3    H210627   8.695   3.037   1.420
 3584TIP3   OH210628   8.890   2.917   2.244
 3584TIP3    H110629   8.932   2.894   2.327
 3584TIP3    H210630   8.830   2.844   2.227
 3585TIP3   OH210631   8.653   1.791   1.864
 3585TIP3    H110632   8.719   1.834   1.918
 3585TIP3    H210633   8.680   1.808   1.774
 3586TIP3   OH210634   8.853   2.487   2.373
 3586TIP3    H110635   8.876   2.462   2.463
 3586TIP3    H210636   8.785   2.425   2.347
 3587TIP3   OH210637   8.615   2.261   1.118
 3587TIP3    H110638   8.660   2.334   1.161
 3587TIP3    H210639   8.550   2.232   1.183
 3588TIP3   OH210640   8.789   3.088   2.022
 3588TIP3    H110641   8.834   3.029   2.082
 3588TIP3    H210642   8.816   3.176   2.050
 3589TIP3   OH210643   8.627   2.851   1.363
 3589TIP3    H110644   8.551   2.881   1.413
 3589TIP3    H210645   8.618   2.892   1.277
 3590TIP3   OH210646   8.785   3.387   2.442
 3590TIP3    H110647   8.877   3.382   2.469
 3590TIP3    H210648   8.759   3.296   2.427
 3591TIP3   OH210649   8.914   2.827   2.622
 3591TIP3    H110650   8.945   2.743   2.656
 3591TIP3    H210651   8.833   2.806   2.576
 3592TIP3   OH210652   8.491   2.595   0.997
 3592TIP3    H110653   8.586   2.592   1.011
 3592TIP3    H210654   8.469   2.510   0.960
 3593TIP3   OH210655   8.403   3.205   1.425
 3593TIP3    H110656   8.338   3.144   1.389
 3593TIP3    H210657   8.451   3.152   1.489
 3594TIP3   OH210658   8.535   3.055   1.616
 3594TIP3    H110659   8.528   2.983   1.679
 3594TIP3    H210660   8.593   3.118   1.660
 3595TIP3   OH210661   8.760   2.453   1.980
 3595TIP3    H110662   8.731   2.429   1.892
 3595TIP3    H210663   8.837   2.508   1.966
 3596TIP3   OH210664   8.932   2.139   2.634
 3596TIP3    H110665   9.020   2.174   2.646
 3596TIP3    H210666   8.927   2.066   2.695
 3597TIP3   OH210667   8.698   2.135   2.033
 3597TIP3    H110668   8.767   2.070   2.030
 3597TIP3    H210669   8.741   2.214   2.065
 3598TIP3   OH210670   8.953   3.127   2.472
 3598TIP3    H110671   8.871   3.100   2.431
 3598TIP3    H210672   8.947   3.094   2.562
 3599TIP3   OH210673   8.779   3.388   2.051
 3599TIP3    H110674   8.707   3.444   2.022
 3599TIP3    H210675   8.840   3.449   2.093
 3600TIP3   OH210676   8.999   3.339   1.838
 3600TIP3    H110677   9.003   3.382   1.923
 3600TIP3    H210678   9.025   3.407   1.776
 3601TIP3   OH210679   8.722   3.209   1.765
 3601TIP3    H110680   8.749   3.208   1.856
 3601TIP3    H210681   8.800   3.182   1.716
 3602TIP3   OH210682   8.930   3.099   1.608
 3602TIP3    H110683   8.954   3.007   1.616
 3602TIP3    H210684   9.012   3.147   1.626
 3603TIP3   OH210685   8.505   2.980   1.159
 3603TIP3    H110686   8.421   2.951   1.123
 3603TIP3    H210687   8.503   3.075   1.152
 3604TIP3   OH210688   8.594   3.010   0.810
 3604TIP3    H110689   8.570   3.048   0.894
 3604TIP3    H210690   8.668   2.953   0.830
 3605TIP3   OH210691   0.368   3.101   3.531
 3605TIP3    H110692   0.342   3.189   3.505
 3605TIP3    H210693   0.303   3.043   3.491
 3606TIP3   OH210694   0.345   3.088   3.885
 3606TIP3    H110695   0.379   3.057   3.969
 3606TIP3    H210696   0.314   3.009   3.841
 3607TIP3   OH210697   9.444   2.983   4.251
 3607TIP3    H110698   9.468   2.910   4.308
 3607TIP3    H210699   9.522   3.040   4.252
 3608TIP3   OH210700   0.591   3.386   3.566
 3608TIP3    H110701   0.582   3.314   3.628
 3608TIP3    H210702   0.624   3.459   3.619
 3609TIP3   OH210703   9.428   3.382   3.969
 3609TIP3    H110704   9.414   3.287   3.978
 3609TIP3    H210705   9.523   3.392   3.968
 3610TIP3   OH210706   0.238   3.834   3.584
 3610TIP3    H110707   0.286   3.770   3.531
 3610TIP3    H210708   0.247   3.804   3.674
 3611TIP3   OH210709   0.154   3.306   3.931
 3611TIP3    H110710   0.190   3.231   3.885
 3611TIP3    H210711   0.231   3.356   3.959
 3612TIP3   OH210712   0.543   2.772   3.978
 3612TIP3    H110713   0.636   2.753   3.974
 3612TIP3    H210714   0.516   2.779   3.887
 3613TIP3   OH210715   9.699   2.487   3.902
 3613TIP3    H110716   9.666   2.538   3.828
 3613TIP3    H210717   9.721   2.401   3.864
 3614TIP3   OH210718   0.600   2.581   3.577
 3614TIP3    H110719   0.667   2.561   3.642
 3614TIP3    H210720   0.648   2.610   3.500
 3615TIP3   OH210721   9.330   2.660   4.035
 3615TIP3    H110722   9.404   2.641   4.093
 3615TIP3    H210723   9.367   2.660   3.947
 3616TIP3   OH210724  -0.020   2.868   3.825
 3616TIP3    H110725   0.073   2.854   3.842
 3616TIP3    H210726  -0.053   2.781   3.800
 3617TIP3   OH210727   1.224   2.829   4.105
 3617TIP3    H110728   1.147   2.878   4.079
 3617TIP3    H210729   1.245   2.861   4.193
 3618TIP3   OH210730   9.685   2.452   4.363
 3618TIP3    H110731   9.627   2.489   4.297
 3618TIP3    H210732   9.641   2.470   4.447
 3619TIP3   OH210733   0.247   3.304   3.384
 3619TIP3    H110734   0.214   3.284   3.296
 3619TIP3    H210735   0.207   3.388   3.406
 3620TIP3   OH210736   9.804   3.226   4.161
 3620TIP3    H110737   9.743   3.288   4.200
 3620TIP3    H210738   9.848   3.275   4.092
 3621TIP3   OH210739   0.803   2.564   3.753
 3621TIP3    H110740   0.845   2.481   3.774
 3621TIP3    H210741   0.874   2.628   3.752
 3622TIP3   OH210742   9.576   2.577   4.137
 3622TIP3    H110743   9.626   2.649   4.176
 3622TIP3    H210744   9.633   2.542   4.069
 3623TIP3   OH210745   9.631   3.420   4.253
 3623TIP3    H110746   9.612   3.506   4.215
 3623TIP3    H210747   9.558   3.403   4.313
 3624TIP3   OH210748   0.662   3.628   3.735
 3624TIP3    H110749   0.574   3.618   3.772
 3624TIP3    H210750   0.659   3.711   3.689
 3625TIP3   OH210751   0.965   2.527   4.089
 3625TIP3    H110752   0.901   2.597   4.075
 3625TIP3    H210753   1.024   2.533   4.014
 3626TIP3   OH210754   0.265   2.205   4.109
 3626TIP3    H110755   0.261   2.114   4.080
 3626TIP3    H210756   0.176   2.225   4.139
 3627TIP3   OH210757   0.369   3.670   3.406
 3627TIP3    H110758   0.414   3.588   3.387
 3627TIP3    H210759   0.426   3.738   3.369
 3628TIP3   OH210760   0.507   3.455   3.314
 3628TIP3    H110761   0.479   3.377   3.268
 3628TIP3    H210762   0.542   3.423   3.397
 3629TIP3   OH210763   0.890   3.540   4.077
 3629TIP3    H110764   0.882   3.464   4.019
 3629TIP3    H210765   0.875   3.615   4.019
 3630TIP3   OH210766   0.211   2.969   3.359
 3630TIP3    H110767   0.126   3.006   3.338
 3630TIP3    H210768   0.264   2.985   3.281
 3631TIP3   OH210769   1.085   3.179   3.927
 3631TIP3    H110770   1.004   3.231   3.928
 3631TIP3    H210771   1.117   3.186   3.837
 3632TIP3   OH210772   0.535   3.029   3.319
 3632TIP3    H110773   0.487   3.055   3.398
 3632TIP3    H210774   0.617   2.992   3.352
 3633TIP3   OH210775   0.761   3.062   4.220
 3633TIP3    H110776   0.766   3.140   4.275
 3633TIP3    H210777   0.681   3.075   4.168
 3634TIP3   OH210778   9.573   3.021   3.729
 3634TIP3    H110779   9.519   2.951   3.692
 3634TIP3    H210780   9.652   2.976   3.759
 3635TIP3   OH210781   9.695   3.422   3.871
 3635TIP3    H110782   9.676   3.381   3.786
 3635TIP3    H210783   9.783   3.392   3.892
 3636TIP3   OH210784   9.701   2.985   4.075
 3636TIP3    H110785   9.736   2.969   3.988
 3636TIP3    H210786   9.740   3.069   4.101
 3637TIP3   OH210787   0.420   3.623   3.855
 3637TIP3    H110788   0.411   3.702   3.907
 3637TIP3    H210789   0.408   3.551   3.917
 3638TIP3   OH210790   9.834   3.542   4.401
 3638TIP3    H110791   9.780   3.605   4.448
 3638TIP3    H210792   9.772   3.488   4.352
 3639TIP3   OH210793   0.368   2.900   3.138
 3639TIP3    H110794   0.441   2.934   3.190
 3639TIP3    H210795   0.401   2.897   3.048
 3640TIP3   OH210796   9.602   3.104   4.496
 3640TIP3    H110797   9.607   3.191   4.535
 3640TIP3    H210798   9.512   3.076   4.510
 3641TIP3   OH210799   0.108   3.562   3.403
 3641TIP3    H110800   0.191   3.605   3.423
 3641TIP3    H210801   0.050   3.633   3.375
 3642TIP3   OH210802   9.633   3.711   4.488
 3642TIP3    H110803   9.598   3.707   4.399
 3642TIP3    H210804   9.564   3.675   4.543
 3643TIP3   OH210805   0.688   3.490   2.725
 3643TIP3    H110806   0.696   3.585   2.716
 3643TIP3    H210807   0.778   3.458   2.714
 3644TIP3   OH210808   9.219   3.256   4.433
 3644TIP3    H110809   9.153   3.217   4.375
 3644TIP3    H210810   9.254   3.182   4.482
 3645TIP3   OH210811   1.126   3.882   4.124
 3645TIP3    H110812   1.128   3.787   4.135
 3645TIP3    H210813   1.046   3.910   4.168
 3646TIP3   OH210814   0.233   3.672   4.259
 3646TIP3    H110815   0.235   3.763   4.289
 3646TIP3    H210816   0.165   3.631   4.312
 3647TIP3   OH210817   9.788   3.796   3.220
 3647TIP3    H110818   9.763   3.786   3.128
 3647TIP3    H210819   9.770   3.888   3.239
 3648TIP3   OH210820   9.252   3.633   3.575
 3648TIP3    H110821   9.297   3.624   3.659
 3648TIP3    H210822   9.196   3.556   3.568
 3649TIP3   OH210823   0.202   3.691   2.850
 3649TIP3    H110824   0.264   3.629   2.811
 3649TIP3    H210825   0.240   3.712   2.935
 3650TIP3   OH210826   0.242   3.743   3.127
 3650TIP3    H110827   0.160   3.754   3.175
 3650TIP3    H210828   0.304   3.710   3.192
 3651TIP3   OH210829   1.018   3.014   4.400
 3651TIP3    H110830   0.942   3.030   4.343
 3651TIP3    H210831   1.037   2.921   4.390
 3652TIP3   OH210832   9.425   3.431   4.423
 3652TIP3    H110833   9.468   3.428   4.508
 3652TIP3    H210834   9.354   3.367   4.429
 3653TIP3   OH210835   9.806   2.256   4.206
 3653TIP3    H110836   9.732   2.220   4.158
 3653TIP3    H210837   9.767   2.324   4.262
 3654TIP3   OH210838   0.530   2.372   4.373
 3654TIP3    H110839   0.609   2.359   4.426
 3654TIP3    H210840   0.458   2.350   4.431
 3655TIP3   OH210841   0.782   2.790   4.306
 3655TIP3    H110842   0.737   2.777   4.389
 3655TIP3    H210843   0.765   2.882   4.284
 3656TIP3   OH210844   0.459   2.922   2.882
 3656TIP3    H110845   0.392   2.916   2.814
 3656TIP3    H210846   0.524   2.983   2.846
 3657TIP3   OH210847   9.748   2.762   4.228
 3657TIP3    H110848   9.700   2.784   4.308
 3657TIP3    H210849   9.741   2.840   4.174
 3658TIP3   OH210850   0.312   2.747   3.479
 3658TIP3    H110851   0.268   2.822   3.438
 3658TIP3    H210852   0.380   2.722   3.416
 3659TIP3   OH210853   0.493   3.015   4.557
 3659TIP3    H110854   0.473   2.941   4.615
 3659TIP3    H210855   0.586   3.033   4.573
 3660TIP3   OH210856   0.467   2.773   3.711
 3660TIP3    H110857   0.411   2.806   3.640
 3660TIP3    H210858   0.507   2.695   3.675
 3661TIP3   OH210859   9.569   2.793   4.433
 3661TIP3    H110860   9.579   2.860   4.500
 3661TIP3    H210861   9.553   2.712   4.482
 3662TIP3   OH210862   0.475   2.995   4.124
 3662TIP3    H110863   0.512   2.923   4.073
 3662TIP3    H210864   0.461   2.958   4.212
 3663TIP3   OH210865   0.182   2.492   3.822
 3663TIP3    H110866   0.090   2.504   3.845
 3663TIP3    H210867   0.221   2.454   3.900
 3664TIP3   OH210868   0.818   4.237   4.221
 3664TIP3    H110869   0.815   4.257   4.127
 3664TIP3    H210870   0.896   4.282   4.253
 3665TIP3   OH210871   9.585   3.340   4.645
 3665TIP3    H110872   9.664   3.373   4.688
 3665TIP3    H210873   9.516   3.350   4.711
 3666TIP3   OH210874   0.242   2.806   3.889
 3666TIP3    H110875   0.301   2.768   3.824
 3666TIP3    H210876   0.288   2.797   3.972
 3667TIP3   OH210877   9.770   3.076   3.312
 3667TIP3    H110878   9.688   3.037   3.281
 3667TIP3    H210879   9.746   3.120   3.394
 3668TIP3   OH210880   0.853   3.324   3.911
 3668TIP3    H110881   0.881   3.371   3.833
 3668TIP3    H210882   0.770   3.283   3.886
 3669TIP3   OH210883   0.348   3.401   4.284
 3669TIP3    H110884   0.380   3.385   4.372
 3669TIP3    H210885   0.315   3.491   4.286
 3670TIP3   OH210886   0.499   2.676   3.299
 3670TIP3    H110887   0.594   2.670   3.294
 3670TIP3    H210888   0.470   2.682   3.208
 3671TIP3   OH210889   9.440   3.102   3.959
 3671TIP3    H110890   9.485   3.082   3.877
 3671TIP3    H210891   9.483   3.046   4.024
 3672TIP3   OH210892   0.104   3.255   3.152
 3672TIP3    H110893   0.048   3.330   3.133
 3672TIP3    H210894   0.048   3.195   3.200
 3673TIP3   OH210895   9.355   3.025   4.576
 3673TIP3    H110896   9.365   3.020   4.671
 3673TIP3    H210897   9.265   2.999   4.560
 3674TIP3   OH210898   0.251   3.142   4.593
 3674TIP3    H110899   0.191   3.085   4.543
 3674TIP3    H210900   0.338   3.112   4.568
 3675TIP3   OH210901   0.511   3.660   4.181
 3675TIP3    H110902   0.416   3.662   4.189
 3675TIP3    H210903   0.543   3.713   4.255
 3676TIP3   OH210904   0.908   2.724   3.088
 3676TIP3    H110905   0.857   2.692   3.014
 3676TIP3    H210906   0.928   2.815   3.066
 3677TIP3   OH210907   1.139   3.592   4.163
 3677TIP3    H110908   1.043   3.588   4.159
 3677TIP3    H210909   1.168   3.562   4.077
 3678TIP3   OH210910   0.620   3.554   2.991
 3678TIP3    H110911   0.599   3.484   3.054
 3678TIP3    H210912   0.635   3.508   2.909
 3679TIP3   OH210913   0.618   3.182   3.837
 3679TIP3    H110914   0.524   3.164   3.842
 3679TIP3    H210915   0.655   3.107   3.790
 3680TIP3   OH210916   9.546   3.416   3.576
 3680TIP3    H110917   9.551   3.500   3.531
 3680TIP3    H210918   9.452   3.401   3.590
 3681TIP3   OH210919   9.683   3.185   3.537
 3681TIP3    H110920   9.651   3.275   3.552
 3681TIP3    H210921   9.645   3.134   3.608
 3682TIP3   OH210922   0.018   3.758   4.052
 3682TIP3    H110923   0.058   3.829   4.001
 3682TIP3    H210924   0.091   3.721   4.102
 3683TIP3   OH210925   9.486   3.658   3.437
 3683TIP3    H110926   9.397   3.661   3.474
 3683TIP3    H210927   9.516   3.749   3.440
 3684TIP3   OH210928   0.405   3.389   4.015
 3684TIP3    H110929   0.396   3.386   4.110
 3684TIP3    H210930   0.486   3.342   3.996
 3685TIP3   OH210931   0.375   3.280   2.890
 3685TIP3    H110932   0.421   3.261   2.972
 3685TIP3    H210933   0.292   3.233   2.898
 3686TIP3   OH210934   0.650   3.926   4.060
 3686TIP3    H110935   0.573   3.870   4.052
 3686TIP3    H210936   0.640   3.991   3.991
 3687TIP3   OH210937   0.718   3.764   2.716
 3687TIP3    H110938   0.761   3.834   2.667
 3687TIP3    H210939   0.638   3.805   2.751
 3688TIP3   OH210940   9.547   2.529   4.590
 3688TIP3    H110941   9.455   2.542   4.613
 3688TIP3    H210942   9.579   2.465   4.654
 3689TIP3   OH210943   0.540   3.218   3.114
 3689TIP3    H110944   0.526   3.154   3.184
 3689TIP3    H210945   0.634   3.217   3.099
 3690TIP3   OH210946   9.287   3.635   4.208
 3690TIP3    H110947   9.323   3.548   4.221
 3690TIP3    H210948   9.289   3.675   4.295
 3691TIP3   OH210949   9.487   3.300   3.239
 3691TIP3    H110950   9.524   3.303   3.327
 3691TIP3    H210951   9.479   3.392   3.213
 3692TIP3   OH210952   0.529   2.381   3.410
 3692TIP3    H110953   0.453   2.412   3.361
 3692TIP3    H210954   0.548   2.451   3.472
 3693TIP3   OH210955   9.742   3.468   3.078
 3693TIP3    H110956   9.665   3.491   3.129
 3693TIP3    H210957   9.793   3.550   3.074
 3694TIP3   OH210958   0.216   2.496   3.526
 3694TIP3    H110959   0.254   2.579   3.497
 3694TIP3    H210960   0.173   2.516   3.609
 3695TIP3   OH210961   0.449   2.836   4.348
 3695TIP3    H110962   0.421   2.907   4.406
 3695TIP3    H210963   0.513   2.788   4.400
 3696TIP3   OH210964   0.332   2.273   3.659
 3696TIP3    H110965   0.297   2.352   3.702
 3696TIP3    H210966   0.397   2.307   3.598
 3697TIP3   OH210967   9.504   3.561   3.180
 3697TIP3    H110968   9.491   3.630   3.115
 3697TIP3    H210969   9.497   3.606   3.264
 3698TIP3   OH210970   1.052   2.752   4.320
 3698TIP3    H110971   0.957   2.746   4.315
 3698TIP3    H210972   1.083   2.719   4.235
 3699TIP3   OH210973   0.706   2.943   3.714
 3699TIP3    H110974   0.636   2.877   3.714
 3699TIP3    H210975   0.781   2.899   3.753
 3700TIP3   OH210976   0.673   3.899   3.653
 3700TIP3    H110977   0.627   3.941   3.581
 3700TIP3    H210978   0.766   3.915   3.635
 3701TIP3   OH210979   1.670   4.454   1.211
 3701TIP3    H110980   1.580   4.474   1.185
 3701TIP3    H210981   1.706   4.406   1.136
 3702TIP3   OH210982   9.724   3.899   4.675
 3702TIP3    H110983   9.816   3.879   4.691
 3702TIP3    H210984   9.698   3.839   4.605
 3703TIP3   OH210985   0.566   3.798   4.414
 3703TIP3    H110986   0.557   3.729   4.480
 3703TIP3    H210987   0.642   3.848   4.442
 3704TIP3   OH210988   0.356   3.510   2.717
 3704TIP3    H110989   0.371   3.439   2.779
 3704TIP3    H210990   0.435   3.513   2.664
 3705TIP3   OH210991   9.393   3.314   4.842
 3705TIP3    H110992   9.430   3.225   4.839
 3705TIP3    H210993   9.300   3.301   4.826
 3706TIP3   OH210994   0.184   3.417   4.607
 3706TIP3    H110995   0.143   3.434   4.522
 3706TIP3    H210996   0.215   3.326   4.600
 3707TIP3   OH210997   0.674   3.428   4.212
 3707TIP3    H110998   0.752   3.466   4.170
 3707TIP3    H210999   0.606   3.494   4.201
 3708TIP3   OH211000   9.485   3.048   4.834
 3708TIP3    H111001   9.564   3.008   4.799
 3708TIP3    H211002   9.512   3.085   4.918
 3709TIP3   OH211003   0.035   2.954   4.477
 3709TIP3    H111004  -0.043   3.009   4.481
 3709TIP3    H211005   0.082   2.982   4.399
 3710TIP3   OH211006   0.546   3.351   4.613
 3710TIP3    H111007   0.628   3.335   4.566
 3710TIP3    H211008   0.545   3.287   4.684
 3711TIP3   OH211009   0.683   3.014   2.719
 3711TIP3    H111010   0.669   2.999   2.625
 3711TIP3    H211011   0.654   3.104   2.734
 3712TIP3   OH211012   0.152   2.741   4.605
 3712TIP3    H111013   0.149   2.663   4.550
 3712TIP3    H211014   0.111   2.810   4.552
 3713TIP3   OH211015   0.144   2.533   4.393
 3713TIP3    H111016   0.136   2.607   4.332
 3713TIP3    H211017   0.058   2.492   4.393
 3714TIP3   OH211018   0.191   3.063   4.281
 3714TIP3    H111019   0.271   3.075   4.231
 3714TIP3    H211020   0.130   3.127   4.245
 3715TIP3   OH211021   0.767   3.027   4.665
 3715TIP3    H111022   0.816   2.946   4.679
 3715TIP3    H211023   0.832   3.089   4.633
 3716TIP3   OH211024   0.807   3.283   4.397
 3716TIP3    H111025   0.748   3.335   4.342
 3716TIP3    H211026   0.894   3.301   4.362
 3717TIP3   OH211027   0.029   2.851   4.835
 3717TIP3    H111028  -0.037   2.785   4.850
 3717TIP3    H211029   0.064   2.831   4.748
 3718TIP3   OH211030   0.290   2.298   4.471
 3718TIP3    H111031   0.232   2.373   4.459
 3718TIP3    H211032   0.230   2.223   4.476
 3719TIP3   OH211033   0.414   2.792   4.696
 3719TIP3    H111034   0.411   2.789   4.792
 3719TIP3    H211035   0.324   2.773   4.670
 3720TIP3   OH211036   0.647   2.740   4.544
 3720TIP3    H111037   0.580   2.749   4.611
 3720TIP3    H211038   0.726   2.715   4.593
 3721TIP3   OH211039   0.868   2.679   4.701
 3721TIP3    H111040   0.891   2.588   4.718
 3721TIP3    H211041   0.875   2.722   4.787
 3722TIP3   OH211042   9.669   2.634   4.889
 3722TIP3    H111043   9.672   2.546   4.853
 3722TIP3    H211044   9.706   2.625   4.977
 3723TIP3   OH211045   0.420   2.494   4.882
 3723TIP3    H111046   0.410   2.478   4.788
 3723TIP3    H211047   0.365   2.569   4.900
 3724TIP3   OH211048   9.484   3.752   2.984
 3724TIP3    H111049   9.576   3.772   2.967
 3724TIP3    H211050   9.436   3.796   2.915
 3725TIP3   OH211051   0.925   3.990   3.612
 3725TIP3    H111052   0.954   4.024   3.697
 3725TIP3    H211053   0.981   4.034   3.549
 3726TIP3   OH211054   0.955   4.009   3.897
 3726TIP3    H111055   0.912   3.924   3.887
 3726TIP3    H211056   1.032   3.991   3.950
 3727TIP3   OH211057   1.001   3.688   4.468
 3727TIP3    H111058   0.928   3.694   4.530
 3727TIP3    H211059   1.043   3.774   4.471
 3728TIP3   OH211060   0.819   3.201   3.087
 3728TIP3    H111061   0.886   3.264   3.058
 3728TIP3    H211062   0.856   3.164   3.167
 3729TIP3   OH211063   0.939   3.079   3.299
 3729TIP3    H111064   0.879   3.032   3.356
 3729TIP3    H211065   1.013   3.102   3.356
 3730TIP3   OH211066   0.998   3.456   3.719
 3730TIP3    H111067   1.052   3.391   3.675
 3730TIP3    H211068   0.995   3.530   3.659
 3731TIP3   OH211069   0.830   3.758   3.918
 3731TIP3    H111070   0.761   3.801   3.968
 3731TIP3    H211071   0.784   3.711   3.849
 3732TIP3   OH211072   0.878   2.978   2.936
 3732TIP3    H111073   0.809   2.976   2.870
 3732TIP3    H211074   0.854   3.050   2.994
 3733TIP3   OH211075   0.761   2.654   2.871
 3733TIP3    H111076   0.673   2.687   2.853
 3733TIP3    H211077   0.749   2.560   2.883
 3734TIP3   OH211078   0.759   2.921   3.440
 3734TIP3    H111079   0.773   2.827   3.428
 3734TIP3    H211080   0.752   2.933   3.534
 3735TIP3   OH211081   9.190   3.023   4.147
 3735TIP3    H111082   9.208   2.945   4.095
 3735TIP3    H211083   9.270   3.037   4.199
 3736TIP3   OH211084   1.051   3.346   4.293
 3736TIP3    H111085   1.121   3.281   4.284
 3736TIP3    H211086   1.075   3.416   4.232
 3737TIP3   OH211087   1.237   3.148   4.313
 3737TIP3    H111088   1.162   3.101   4.351
 3737TIP3    H211089   1.311   3.090   4.330
 3738TIP3   OH211090   0.775   2.641   3.335
 3738TIP3    H111091   0.807   2.552   3.350
 3738TIP3    H211092   0.826   2.672   3.260
 3739TIP3   OH211093   0.927   2.825   3.829
 3739TIP3    H111094   1.007   2.842   3.778
 3739TIP3    H211095   0.946   2.860   3.916
 3740TIP3   OH211096   0.981   2.963   4.063
 3740TIP3    H111097   0.905   3.000   4.108
 3740TIP3    H211098   1.021   3.037   4.017
 3741TIP3   OH211099   9.395   2.656   4.864
 3741TIP3    H111100   9.486   2.682   4.845
 3741TIP3    H211101   9.403   2.593   4.936
 3742TIP3   OH211102   1.435   2.547   4.612
 3742TIP3    H111103   1.494   2.482   4.573
 3742TIP3    H211104   1.412   2.604   4.539
 3743TIP3   OH211105   0.867   2.384   3.369
 3743TIP3    H111106   0.925   2.381   3.445
 3743TIP3    H211107   0.816   2.303   3.375
 3744TIP3   OH211108   9.204   2.658   4.292
 3744TIP3    H111109   9.224   2.652   4.199
 3744TIP3    H211110   9.156   2.741   4.300
 3745TIP3   OH211111   1.306   2.695   4.420
 3745TIP3    H111112   1.216   2.723   4.434
 3745TIP3    H211113   1.299   2.623   4.357
 3746TIP3   OH211114   1.002   2.313   2.988
 3746TIP3    H111115   1.056   2.261   2.928
 3746TIP3    H211116   1.055   2.391   3.006
 3747TIP3   OH211117   0.508   3.855   3.267
 3747TIP3    H111118   0.559   3.843   3.187
 3747TIP3    H211119   0.552   3.926   3.314
 3748TIP3   OH211120   9.365   2.242   4.592
 3748TIP3    H111121   9.309   2.224   4.668
 3748TIP3    H211122   9.306   2.279   4.527
 3749TIP3   OH211123   9.439   3.623   4.661
 3749TIP3    H111124   9.358   3.672   4.645
 3749TIP3    H211125   9.444   3.614   4.756
 3750TIP3   OH211126   9.597   3.690   4.201
 3750TIP3    H111127   9.540   3.759   4.167
 3750TIP3    H211128   9.681   3.704   4.158
 3751TIP3   OH211129   0.237   3.939   4.341
 3751TIP3    H111130   0.276   3.938   4.429
 3751TIP3    H211131   0.300   3.987   4.287
 3752TIP3   OH211132   0.416   4.088   4.199
 3752TIP3    H111133   0.484   4.038   4.154
 3752TIP3    H211134   0.464   4.145   4.259
 3753TIP3   OH211135   1.200   2.448   4.306
 3753TIP3    H111136   1.114   2.439   4.264
 3753TIP3    H211137   1.244   2.364   4.289
 3754TIP3   OH211138   9.496   3.927   4.088
 3754TIP3    H111139   9.412   3.939   4.133
 3754TIP3    H211140   9.482   3.963   4.000
 3755TIP3   OH211141   0.127   3.958   3.883
 3755TIP3    H111142   0.067   3.978   3.811
 3755TIP3    H211143   0.142   4.043   3.925
 3756TIP3   OH211144   0.396   3.897   3.932
 3756TIP3    H111145   0.303   3.913   3.914
 3756TIP3    H211146   0.442   3.970   3.889
 3757TIP3   OH211147   0.602   4.089   3.845
 3757TIP3    H111148   0.588   4.173   3.801
 3757TIP3    H211149   0.629   4.030   3.774
 3758TIP3   OH211150   9.224   3.755   3.960
 3758TIP3    H111151   9.245   3.721   4.046
 3758TIP3    H211152   9.280   3.706   3.900
 3759TIP3   OH211153   9.383   3.598   3.811
 3759TIP3    H111154   9.393   3.519   3.864
 3759TIP3    H211155   9.470   3.638   3.811
 3760TIP3   OH211156   9.640   3.709   3.834
 3760TIP3    H111157   9.672   3.621   3.814
 3760TIP3    H211158   9.683   3.732   3.916
 3761TIP3   OH211159   0.943   2.254   3.833
 3761TIP3    H111160   0.987   2.300   3.761
 3761TIP3    H211161   0.850   2.260   3.811
 3762TIP3   OH211162   1.027   2.349   3.585
 3762TIP3    H111163   1.096   2.292   3.552
 3762TIP3    H211164   1.069   2.435   3.596
 3763TIP3   OH211165   0.669   2.255   3.800
 3763TIP3    H111166   0.641   2.225   3.714
 3763TIP3    H211167   0.644   2.184   3.860
 3764TIP3   OH211168   9.756   3.725   2.950
 3764TIP3    H111169   9.845   3.727   2.916
 3764TIP3    H211170   9.709   3.666   2.892
 3765TIP3   OH211171   0.654   3.821   3.035
 3765TIP3    H111172   0.646   3.726   3.024
 3765TIP3    H211173   0.610   3.858   2.959
 3766TIP3   OH211174   9.666   2.359   4.830
 3766TIP3    H111175   9.629   2.286   4.878
 3766TIP3    H211176   9.759   2.358   4.854
 3767TIP3   OH211177   0.115   2.347   4.950
 3767TIP3    H111178   0.204   2.324   4.924
 3767TIP3    H211179   0.091   2.281   5.016
 3768TIP3   OH211180   0.941   2.407   4.731
 3768TIP3    H111181   0.947   2.360   4.814
 3768TIP3    H211182   1.030   2.403   4.695
 3769TIP3   OH211183   0.880   3.968   4.224
 3769TIP3    H111184   0.804   3.934   4.176
 3769TIP3    H211185   0.864   4.063   4.228
 3770TIP3   OH211186   2.145   3.337   2.989
 3770TIP3    H111187   2.127   3.430   2.975
 3770TIP3    H211188   2.067   3.292   2.958
 3771TIP3   OH211189   2.153   3.332   3.370
 3771TIP3    H111190   2.179   3.313   3.460
 3771TIP3    H211191   2.101   3.255   3.344
 3772TIP3   OH211192   1.448   3.261   3.742
 3772TIP3    H111193   1.484   3.193   3.800
 3772TIP3    H211194   1.523   3.291   3.691
 3773TIP3   OH211195   2.391   3.637   3.055
 3773TIP3    H111196   2.376   3.571   3.124
 3773TIP3    H211197   2.418   3.715   3.103
 3774TIP3   OH211198   1.419   3.640   3.463
 3774TIP3    H111199   1.408   3.545   3.466
 3774TIP3    H211200   1.514   3.653   3.458
 3775TIP3   OH211201   1.118   2.880   3.208
 3775TIP3    H111202   1.061   2.948   3.243
 3775TIP3    H211203   1.086   2.799   3.248
 3776TIP3   OH211204   1.194   3.114   3.417
 3776TIP3    H111205   1.249   3.044   3.454
 3776TIP3    H211206   1.243   3.146   3.342
 3777TIP3   OH211207   2.039   4.099   3.068
 3777TIP3    H111208   2.085   4.031   3.020
 3777TIP3    H211209   2.034   4.067   3.158
 3778TIP3   OH211210   1.949   3.566   3.418
 3778TIP3    H111211   1.978   3.488   3.371
 3778TIP3    H211212   2.030   3.611   3.443
 3779TIP3   OH211213   2.962   2.886   3.415
 3779TIP3    H111214   2.988   2.966   3.462
 3779TIP3    H211215   2.981   2.905   3.323
 3780TIP3   OH211216   2.366   3.067   3.454
 3780TIP3    H111217   2.402   2.981   3.475
 3780TIP3    H211218   2.331   3.057   3.365
 3781TIP3   OH211219   1.771   3.128   3.318
 3781TIP3    H111220   1.860   3.098   3.336
 3781TIP3    H211221   1.725   3.049   3.288
 3782TIP3   OH211222   3.028   3.092   3.587
 3782TIP3    H111223   2.947   3.138   3.566
 3782TIP3    H211224   3.040   3.108   3.681
 3783TIP3   OH211225   1.667   2.728   3.848
 3783TIP3    H111226   1.606   2.748   3.776
 3783TIP3    H211227   1.615   2.677   3.910
 3784TIP3   OH211228   2.041   3.562   2.858
 3784TIP3    H111229   1.997   3.538   2.777
 3784TIP3    H211230   2.000   3.644   2.885
 3785TIP3   OH211231   1.801   3.488   3.649
 3785TIP3    H111232   1.737   3.548   3.686
 3785TIP3    H211233   1.841   3.537   3.577
 3786TIP3   OH211234   2.603   2.825   3.203
 3786TIP3    H111235   2.574   2.776   3.279
 3786TIP3    H211236   2.652   2.899   3.239
 3787TIP3   OH211237   1.623   3.680   3.746
 3787TIP3    H111238   1.601   3.764   3.706
 3787TIP3    H211239   1.548   3.659   3.802
 3788TIP3   OH211240   1.022   3.371   2.980
 3788TIP3    H111241   0.981   3.398   2.898
 3788TIP3    H211242   1.053   3.452   3.020
 3789TIP3   OH211243   2.460   3.883   3.220
 3789TIP3    H111244   2.373   3.873   3.260
 3789TIP3    H211245   2.455   3.968   3.175
 3790TIP3   OH211246   2.753   2.785   3.581
 3790TIP3    H111247   2.665   2.814   3.557
 3790TIP3    H211248   2.809   2.817   3.511
 3791TIP3   OH211249   2.051   2.429   3.572
 3791TIP3    H111250   2.039   2.334   3.580
 3791TIP3    H211251   1.974   2.466   3.615
 3792TIP3   OH211252   2.169   3.929   2.894
 3792TIP3    H111253   2.214   3.847   2.874
 3792TIP3    H211254   2.224   3.997   2.856
 3793TIP3   OH211255   2.308   3.712   2.802
 3793TIP3    H111256   2.263   3.638   2.763
 3793TIP3    H211257   2.343   3.679   2.885
 3794TIP3   OH211258   2.689   3.795   3.563
 3794TIP3    H111259   2.677   3.719   3.505
 3794TIP3    H211260   2.670   3.871   3.507
 3795TIP3   OH211261   1.972   3.192   2.822
 3795TIP3    H111262   1.892   3.241   2.805
 3795TIP3    H211263   2.017   3.189   2.738
 3796TIP3   OH211264   1.943   2.975   2.537
 3796TIP3    H111265   2.008   3.025   2.586
 3796TIP3    H211266   1.993   2.906   2.493
 3797TIP3   OH211267   2.886   3.438   3.407
 3797TIP3    H111268   2.803   3.485   3.415
 3797TIP3    H211269   2.915   3.456   3.318
 3798TIP3   OH211270   2.327   3.269   2.797
 3798TIP3    H111271   2.270   3.297   2.868
 3798TIP3    H211272   2.409   3.244   2.839
 3799TIP3   OH211273   2.560   3.317   3.700
 3799TIP3    H111274   2.557   3.398   3.752
 3799TIP3    H211275   2.474   3.313   3.657
 3800TIP3   OH211276   1.560   3.271   3.204
 3800TIP3    H111277   1.518   3.213   3.141
 3800TIP3    H211278   1.631   3.219   3.241
 3801TIP3   OH211279   1.690   3.683   3.357
 3801TIP3    H111280   1.666   3.636   3.277
 3801TIP3    H211281   1.778   3.651   3.377
 3802TIP3   OH211282   1.690   3.244   3.568
 3802TIP3    H111283   1.716   3.221   3.479
 3802TIP3    H211284   1.737   3.325   3.587
 3803TIP3   OH211285   2.221   3.879   3.342
 3803TIP3    H111286   2.207   3.958   3.394
 3803TIP3    H211287   2.205   3.807   3.403
 3804TIP3   OH211288   1.830   3.798   3.888
 3804TIP3    H111289   1.774   3.861   3.935
 3804TIP3    H211290   1.769   3.744   3.838
 3805TIP3   OH211291   2.175   3.112   2.629
 3805TIP3    H111292   2.231   3.172   2.679
 3805TIP3    H211293   2.197   3.130   2.538
 3806TIP3   OH211294   1.578   3.367   3.997
 3806TIP3    H111295   1.581   3.453   4.041
 3806TIP3    H211296   1.485   3.344   3.997
 3807TIP3   OH211297   1.911   3.811   2.894
 3807TIP3    H111298   1.988   3.864   2.913
 3807TIP3    H211299   1.848   3.873   2.857
 3808TIP3   OH211300   1.625   3.967   3.974
 3808TIP3    H111301   1.593   3.965   3.884
 3808TIP3    H211302   1.549   3.945   4.027
 3809TIP3   OH211303   2.685   2.374   2.670
 3809TIP3    H111304   2.601   2.387   2.713
 3809TIP3    H211305   2.697   2.452   2.616
 3810TIP3   OH211306   1.429   3.113   3.005
 3810TIP3    H111307   1.356   3.150   2.955
 3810TIP3    H211308   1.394   3.033   3.044
 3811TIP3   OH211309   2.483   3.740   2.214
 3811TIP3    H111310   2.488   3.835   2.201
 3811TIP3    H211311   2.573   3.710   2.203
 3812TIP3   OH211312   1.205   3.495   3.921
 3812TIP3    H111313   1.144   3.475   3.850
 3812TIP3    H211314   1.243   3.410   3.945
 3813TIP3   OH211315   1.060   3.690   3.557
 3813TIP3    H111316   1.154   3.680   3.544
 3813TIP3    H211317   1.051   3.770   3.609
 3814TIP3   OH211318   2.925   4.142   3.613
 3814TIP3    H111319   2.923   4.046   3.620
 3814TIP3    H211320   2.844   4.170   3.655
 3815TIP3   OH211321   2.029   3.929   3.747
 3815TIP3    H111322   2.031   4.020   3.776
 3815TIP3    H211323   1.960   3.888   3.798
 3816TIP3   OH211324   1.789   4.057   2.696
 3816TIP3    H111325   1.746   4.039   2.613
 3816TIP3    H211326   1.759   4.145   2.720
 3817TIP3   OH211327   1.229   3.905   3.083
 3817TIP3    H111328   1.279   3.897   3.164
 3817TIP3    H211329   1.168   3.832   3.085
 3818TIP3   OH211330   1.994   3.955   2.338
 3818TIP3    H111331   2.051   3.888   2.301
 3818TIP3    H211332   2.026   3.967   2.427
 3819TIP3   OH211333   2.041   4.004   2.609
 3819TIP3    H111334   1.954   4.014   2.649
 3819TIP3    H211335   2.095   3.966   2.679
 3820TIP3   OH211336   2.832   3.285   3.868
 3820TIP3    H111337   2.745   3.300   3.831
 3820TIP3    H211338   2.842   3.190   3.870
 3821TIP3   OH211339   1.409   3.680   3.913
 3821TIP3    H111340   1.460   3.664   3.993
 3821TIP3    H211341   1.338   3.616   3.918
 3822TIP3   OH211342   1.802   2.503   3.688
 3822TIP3    H111343   1.718   2.474   3.653
 3822TIP3    H211344   1.784   2.589   3.726
 3823TIP3   OH211345   2.342   2.616   3.890
 3823TIP3    H111346   2.408   2.592   3.955
 3823TIP3    H211347   2.258   2.598   3.933
 3824TIP3   OH211348   2.591   3.057   3.813
 3824TIP3    H111349   2.537   3.044   3.891
 3824TIP3    H211350   2.556   3.136   3.772
 3825TIP3   OH211351   2.244   3.171   2.368
 3825TIP3    H111352   2.207   3.149   2.282
 3825TIP3    H211353   2.319   3.226   2.348
 3826TIP3   OH211354   1.991   2.530   2.663
 3826TIP3    H111355   1.954   2.551   2.749
 3826TIP3    H211356   1.934   2.462   2.628
 3827TIP3   OH211357   1.760   3.020   3.708
 3827TIP3    H111358   1.673   2.992   3.737
 3827TIP3    H211359   1.744   3.089   3.645
 3828TIP3   OH211360   1.637   2.909   3.226
 3828TIP3    H111361   1.569   2.894   3.292
 3828TIP3    H211362   1.619   2.844   3.158
 3829TIP3   OH211363   2.128   3.000   2.932
 3829TIP3    H111364   2.055   3.060   2.942
 3829TIP3    H211365   2.158   3.014   2.842
 3830TIP3   OH211366   2.280   3.023   3.195
 3830TIP3    H111367   2.225   3.059   3.125
 3830TIP3    H211368   2.300   2.934   3.167
 3831TIP3   OH211369   1.606   2.530   2.634
 3831TIP3    H111370   1.603   2.518   2.729
 3831TIP3    H211371   1.530   2.584   2.614
 3832TIP3   OH211372   1.146   2.582   3.494
 3832TIP3    H111373   1.203   2.592   3.570
 3832TIP3    H211374   1.205   2.550   3.425
 3833TIP3   OH211375   1.132   2.559   3.020
 3833TIP3    H111376   1.185   2.598   2.950
 3833TIP3    H211377   1.075   2.630   3.049
 3834TIP3   OH211378   2.291   3.267   3.619
 3834TIP3    H111379   2.320   3.196   3.562
 3834TIP3    H211380   2.260   3.222   3.698
 3835TIP3   OH211381   1.954   2.724   3.287
 3835TIP3    H111382   1.862   2.732   3.313
 3835TIP3    H211383   2.002   2.734   3.369
 3836TIP3   OH211384   1.664   2.766   2.973
 3836TIP3    H111385   1.748   2.809   2.954
 3836TIP3    H211386   1.607   2.794   2.902
 3837TIP3   OH211387   2.442   2.799   3.483
 3837TIP3    H111388   2.420   2.814   3.575
 3837TIP3    H211389   2.375   2.738   3.452
 3838TIP3   OH211390   1.495   2.814   2.764
 3838TIP3    H111391   1.415   2.779   2.726
 3838TIP3    H211392   1.545   2.846   2.689
 3839TIP3   OH211393   2.616   4.492   3.707
 3839TIP3    H111394   2.612   4.514   3.614
 3839TIP3    H211395   2.692   4.541   3.741
 3840TIP3   OH211396   1.570   3.610   4.136
 3840TIP3    H111397   1.652   3.635   4.179
 3840TIP3    H211398   1.506   3.607   4.207
 3841TIP3   OH211399   2.037   3.052   3.392
 3841TIP3    H111400   2.111   3.007   3.350
 3841TIP3    H211401   2.038   3.021   3.483
 3842TIP3   OH211402   1.598   2.534   3.252
 3842TIP3    H111403   1.537   2.485   3.308
 3842TIP3    H211404   1.621   2.474   3.182
 3843TIP3   OH211405   2.023   2.957   3.670
 3843TIP3    H111406   1.933   2.986   3.683
 3843TIP3    H211407   2.076   3.017   3.723
 3844TIP3   OH211408   1.748   3.342   2.773
 3844TIP3    H111409   1.678   3.277   2.760
 3844TIP3    H211410   1.732   3.377   2.861
 3845TIP3   OH211411   2.652   3.577   3.398
 3845TIP3    H111412   2.676   3.627   3.320
 3845TIP3    H211413   2.567   3.538   3.377
 3846TIP3   OH211414   2.155   3.664   3.765
 3846TIP3    H111415   2.172   3.635   3.855
 3846TIP3    H211416   2.112   3.749   3.776
 3847TIP3   OH211417   1.446   3.364   3.442
 3847TIP3    H111418   1.477   3.339   3.355
 3847TIP3    H211419   1.470   3.290   3.498
 3848TIP3   OH211420   1.892   3.492   2.592
 3848TIP3    H111421   1.848   3.577   2.596
 3848TIP3    H211422   1.841   3.437   2.651
 3849TIP3   OH211423   1.315   3.284   4.063
 3849TIP3    H111424   1.334   3.267   4.155
 3849TIP3    H211425   1.247   3.221   4.041
 3850TIP3   OH211426   2.310   3.921   3.664
 3850TIP3    H111427   2.214   3.917   3.674
 3850TIP3    H211428   2.339   3.972   3.740
 3851TIP3   OH211429   2.724   2.996   2.559
 3851TIP3    H111430   2.661   2.950   2.503
 3851TIP3    H211431   2.724   3.086   2.527
 3852TIP3   OH211432   2.936   3.849   3.652
 3852TIP3    H111433   2.841   3.847   3.644
 3852TIP3    H211434   2.967   3.822   3.565
 3853TIP3   OH211435   2.417   3.810   2.478
 3853TIP3    H111436   2.395   3.741   2.541
 3853TIP3    H211437   2.432   3.764   2.396
 3854TIP3   OH211438   2.414   3.440   3.318
 3854TIP3    H111439   2.322   3.417   3.333
 3854TIP3    H211440   2.451   3.364   3.274
 3855TIP3   OH211441   1.541   3.668   3.068
 3855TIP3    H111442   1.543   3.750   3.017
 3855TIP3    H211443   1.448   3.651   3.082
 3856TIP3   OH211444   1.105   2.984   2.786
 3856TIP3    H111445   1.155   3.062   2.808
 3856TIP3    H211446   1.032   2.983   2.848
 3857TIP3   OH211447   1.684   3.437   3.017
 3857TIP3    H111448   1.648   3.524   3.034
 3857TIP3    H211449   1.649   3.382   3.086
 3858TIP3   OH211450   1.813   4.014   3.541
 3858TIP3    H111451   1.852   4.085   3.490
 3858TIP3    H211452   1.887   3.977   3.590
 3859TIP3   OH211453   1.461   3.909   2.924
 3859TIP3    H111454   1.377   3.914   2.969
 3859TIP3    H211455   1.495   3.999   2.925
 3860TIP3   OH211456   2.203   3.644   3.499
 3860TIP3    H111457   2.190   3.646   3.594
 3860TIP3    H211458   2.282   3.592   3.486
 3861TIP3   OH211459   2.173   3.535   2.384
 3861TIP3    H111460   2.227   3.513   2.460
 3861TIP3    H211461   2.083   3.513   2.411
 3862TIP3   OH211462   2.448   4.180   3.547
 3862TIP3    H111463   2.371   4.124   3.542
 3862TIP3    H211464   2.435   4.246   3.478
 3863TIP3   OH211465   2.514   4.017   2.203
 3863TIP3    H111466   2.557   4.087   2.152
 3863TIP3    H211467   2.433   4.058   2.235
 3864TIP3   OH211468   2.336   3.470   2.599
 3864TIP3    H111469   2.323   3.405   2.669
 3864TIP3    H211470   2.430   3.472   2.585
 3865TIP3   OH211471   1.251   3.876   3.702
 3865TIP3    H111472   1.301   3.798   3.727
 3865TIP3    H211473   1.282   3.944   3.762
 3866TIP3   OH211474   1.541   3.517   2.382
 3866TIP3    H111475   1.555   3.428   2.352
 3866TIP3    H211476   1.522   3.509   2.475
 3867TIP3   OH211477   1.487   3.527   2.654
 3867TIP3    H111478   1.555   3.496   2.715
 3867TIP3    H211479   1.490   3.622   2.659
 3868TIP3   OH211480   1.220   3.224   2.858
 3868TIP3    H111481   1.156   3.265   2.916
 3868TIP3    H211482   1.238   3.291   2.792
 3869TIP3   OH211483   2.382   2.843   3.742
 3869TIP3    H111484   2.441   2.894   3.798
 3869TIP3    H211485   2.356   2.769   3.796
 3870TIP3   OH211486   1.751   3.724   2.601
 3870TIP3    H111487   1.666   3.748   2.639
 3870TIP3    H211488   1.771   3.796   2.541
 3871TIP3   OH211489   1.966   2.777   3.015
 3871TIP3    H111490   2.016   2.857   2.999
 3871TIP3    H211491   1.949   2.778   3.110
 3872TIP3   OH211492   2.213   3.117   3.834
 3872TIP3    H111493   2.167   3.154   3.910
 3872TIP3    H211494   2.259   3.041   3.869
 3873TIP3   OH211495   2.085   2.527   3.134
 3873TIP3    H111496   2.061   2.590   3.202
 3873TIP3    H211497   2.119   2.581   3.062
 3874TIP3   OH211498   1.494   3.799   2.670
 3874TIP3    H111499   1.465   3.866   2.607
 3874TIP3    H211500   1.480   3.840   2.755
 3875TIP3   OH211501   1.601   2.505   2.907
 3875TIP3    H111502   1.591   2.592   2.947
 3875TIP3    H211503   1.695   2.488   2.912
 3876TIP3   OH211504   2.852   3.003   3.803
 3876TIP3    H111505   2.758   3.009   3.819
 3876TIP3    H211506   2.859   2.965   3.715
 3877TIP3   OH211507   2.504   3.201   3.194
 3877TIP3    H111508   2.427   3.146   3.209
 3877TIP3    H211509   2.575   3.157   3.241
 3878TIP3   OH211510   1.215   3.431   2.659
 3878TIP3    H111511   1.275   3.504   2.673
 3878TIP3    H211512   1.260   3.375   2.596
 3879TIP3   OH211513   1.169   2.716   2.797
 3879TIP3    H111514   1.157   2.811   2.799
 3879TIP3    H211515   1.085   2.682   2.766
 3880TIP3   OH211516   2.471   4.155   3.140
 3880TIP3    H111517   2.426   4.199   3.069
 3880TIP3    H211518   2.564   4.172   3.123
 3881TIP3   OH211519   1.083   3.643   3.051
 3881TIP3    H111520   1.012   3.673   3.108
 3881TIP3    H211521   1.063   3.680   2.965
 3882TIP3   OH211522   1.242   4.181   4.124
 3882TIP3    H111523   1.326   4.183   4.169
 3882TIP3    H211524   1.220   4.088   4.119
 3883TIP3   OH211525   1.723   4.148   4.163
 3883TIP3    H111526   1.817   4.132   4.175
 3883TIP3    H211527   1.698   4.091   4.091
 3884TIP3   OH211528   1.704   3.721   2.294
 3884TIP3    H111529   1.647   3.654   2.332
 3884TIP3    H211530   1.780   3.673   2.263
 3885TIP3   OH211531   2.364   4.052   3.900
 3885TIP3    H111532   2.353   3.985   3.967
 3885TIP3    H211533   2.438   4.105   3.930
 3886TIP3   OH211534   2.141   3.764   2.204
 3886TIP3    H111535   2.187   3.705   2.263
 3886TIP3    H211536   2.196   3.767   2.125
 3887TIP3   OH211537   1.368   3.588   4.322
 3887TIP3    H111538   1.389   3.495   4.321
 3887TIP3    H211539   1.283   3.594   4.278
 3888TIP3   OH211540   1.355   3.242   2.517
 3888TIP3    H111541   1.405   3.207   2.591
 3888TIP3    H211542   1.418   3.247   2.445
 3889TIP3   OH211543   1.980   3.669   4.094
 3889TIP3    H111544   1.938   3.683   4.009
 3889TIP3    H211545   2.025   3.585   4.085
 3890TIP3   OH211546   1.857   3.438   2.323
 3890TIP3    H111547   1.859   3.453   2.417
 3890TIP3    H211548   1.856   3.342   2.315
 3891TIP3   OH211549   2.474   3.683   3.702
 3891TIP3    H111550   2.545   3.729   3.656
 3891TIP3    H211551   2.398   3.741   3.692
 3892TIP3   OH211552   1.486   3.330   4.311
 3892TIP3    H111553   1.554   3.264   4.295
 3892TIP3    H211554   1.506   3.364   4.399
 3893TIP3   OH211555   1.557   3.143   2.739
 3893TIP3    H111556   1.526   3.110   2.823
 3893TIP3    H211557   1.590   3.065   2.693
 3894TIP3   OH211558   1.776   3.184   3.959
 3894TIP3    H111559   1.726   3.265   3.959
 3894TIP3    H211560   1.859   3.206   3.917
 3895TIP3   OH211561   1.660   2.935   2.579
 3895TIP3    H111562   1.630   2.940   2.488
 3895TIP3    H211563   1.755   2.944   2.573
 3896TIP3   OH211564   2.340   3.607   4.099
 3896TIP3    H111565   2.420   3.582   4.053
 3896TIP3    H211566   2.332   3.544   4.170
 3897TIP3   OH211567   2.478   3.270   2.237
 3897TIP3    H111568   2.459   3.221   2.158
 3897TIP3    H211569   2.449   3.359   2.219
 3898TIP3   OH211570   1.945   2.762   3.874
 3898TIP3    H111571   1.977   2.820   3.804
 3898TIP3    H211572   1.850   2.761   3.862
 3899TIP3   OH211573   1.972   3.301   3.758
 3899TIP3    H111574   2.059   3.325   3.727
 3899TIP3    H211575   1.915   3.372   3.727
 3900TIP3   OH211576   2.586   3.294   4.180
 3900TIP3    H111577   2.612   3.204   4.161
 3900TIP3    H211578   2.632   3.347   4.115
 3901TIP3   OH211579   2.606   3.541   3.887
 3901TIP3    H111580   2.545   3.590   3.833
 3901TIP3    H211581   2.692   3.557   3.847
 3902TIP3   OH211582   2.082   2.543   3.963
 3902TIP3    H111583   2.037   2.623   3.936
 3902TIP3    H211584   2.016   2.474   3.955
 3903TIP3   OH211585   2.450   2.994   4.034
 3903TIP3    H111586   2.377   3.015   4.092
 3903TIP3    H211587   2.520   2.965   4.093
 3904TIP3   OH211588   2.689   2.941   4.190
 3904TIP3    H111589   2.693   2.848   4.208
 3904TIP3    H211590   2.679   2.982   4.276
 3905TIP3   OH211591   2.180   2.553   4.220
 3905TIP3    H111592   2.245   2.484   4.216
 3905TIP3    H211593   2.136   2.550   4.135
 3906TIP3   OH211594   2.249   2.771   4.377
 3906TIP3    H111595   2.226   2.700   4.317
 3906TIP3    H211596   2.172   2.828   4.378
 3907TIP3   OH211597   1.466   4.000   2.479
 3907TIP3    H111598   1.560   3.995   2.465
 3907TIP3    H211599   1.433   4.049   2.403
 3908TIP3   OH211600   0.946   3.383   2.696
 3908TIP3    H111601   1.038   3.408   2.687
 3908TIP3    H211602   0.941   3.295   2.658
 3909TIP3   OH211603   0.863   3.990   3.103
 3909TIP3    H111604   0.792   3.934   3.071
 3909TIP3    H211605   0.904   3.939   3.173
 3910TIP3   OH211606   0.996   3.848   3.299
 3910TIP3    H111607   0.981   3.772   3.357
 3910TIP3    H211608   1.046   3.909   3.353
 3911TIP3   OH211609   2.723   4.246   3.099
 3911TIP3    H111610   2.747   4.282   3.184
 3911TIP3    H211611   2.781   4.291   3.036
 3912TIP3   OH211612   2.749   4.265   3.382
 3912TIP3    H111613   2.708   4.179   3.375
 3912TIP3    H211614   2.829   4.249   3.433
 3913TIP3   OH211615   2.802   3.939   3.960
 3913TIP3    H111616   2.726   3.948   4.018
 3913TIP3    H211617   2.840   4.027   3.957
 3914TIP3   OH211618   2.616   3.456   2.574
 3914TIP3    H111619   2.680   3.521   2.543
 3914TIP3    H211620   2.658   3.418   2.651
 3915TIP3   OH211621   2.741   3.321   2.779
 3915TIP3    H111622   2.677   3.285   2.839
 3915TIP3    H211623   2.808   3.360   2.835
 3916TIP3   OH211624   2.797   3.714   3.207
 3916TIP3    H111625   2.849   3.652   3.157
 3916TIP3    H211626   2.788   3.791   3.150
 3917TIP3   OH211627   2.625   4.013   3.407
 3917TIP3    H111628   2.557   4.059   3.456
 3917TIP3    H211629   2.578   3.968   3.336
 3918TIP3   OH211630   2.676   3.233   2.423
 3918TIP3    H111631   2.609   3.233   2.355
 3918TIP3    H211632   2.654   3.308   2.479
 3919TIP3   OH211633   2.541   2.905   2.387
 3919TIP3    H111634   2.511   2.951   2.308
 3919TIP3    H211635   2.517   2.813   2.372
 3920TIP3   OH211636   2.555   3.164   2.933
 3920TIP3    H111637   2.615   3.091   2.952
 3920TIP3    H211638   2.530   3.198   3.019
 3921TIP3   OH211639   1.184   3.254   3.665
 3921TIP3    H111640   1.182   3.213   3.578
 3921TIP3    H211641   1.277   3.262   3.686
 3922TIP3   OH211642   2.853   3.599   3.775
 3922TIP3    H111643   2.927   3.544   3.748
 3922TIP3    H211644   2.857   3.675   3.717
 3923TIP3   OH211645   3.072   3.424   3.850
 3923TIP3    H111646   2.981   3.395   3.861
 3923TIP3    H211647   3.119   3.344   3.826
 3924TIP3   OH211648   2.488   2.642   2.382
 3924TIP3    H111649   2.567   2.599   2.416
 3924TIP3    H211650   2.419   2.577   2.396
 3925TIP3   OH211651   2.718   3.072   3.314
 3925TIP3    H111652   2.801   3.096   3.273
 3925TIP3    H211653   2.724   3.106   3.403
 3926TIP3   OH211654   2.781   3.216   3.545
 3926TIP3    H111655   2.704   3.245   3.594
 3926TIP3    H211656   2.812   3.295   3.500
 3927TIP3   OH211657   1.415   2.940   4.363
 3927TIP3    H111658   1.507   2.918   4.374
 3927TIP3    H211659   1.367   2.860   4.384
 3928TIP3   OH211660   3.237   2.808   4.101
 3928TIP3    H111661   3.294   2.743   4.060
 3928TIP3    H211662   3.207   2.863   4.028
 3929TIP3   OH211663   2.612   2.661   2.860
 3929TIP3    H111664   2.680   2.664   2.928
 3929TIP3    H211665   2.584   2.570   2.858
 3930TIP3   OH211666   1.165   2.916   3.723
 3930TIP3    H111667   1.219   2.859   3.668
 3930TIP3    H211668   1.218   2.995   3.736
 3931TIP3   OH211669   3.101   2.944   3.910
 3931TIP3    H111670   3.018   2.986   3.929
 3931TIP3    H211671   3.079   2.874   3.849
 3932TIP3   OH211672   2.745   2.580   2.490
 3932TIP3    H111673   2.782   2.509   2.437
 3932TIP3    H211674   2.808   2.651   2.482
 3933TIP3   OH211675   1.147   2.400   3.240
 3933TIP3    H111676   1.059   2.413   3.276
 3933TIP3    H211677   1.155   2.467   3.173
 3934TIP3   OH211678   2.308   4.113   2.755
 3934TIP3    H111679   2.355   4.098   2.673
 3934TIP3    H211680   2.358   4.180   2.800
 3935TIP3   OH211681   1.381   2.489   4.074
 3935TIP3    H111682   1.309   2.506   4.134
 3935TIP3    H211683   1.344   2.501   3.987
 3936TIP3   OH211684   1.406   3.917   4.143
 3936TIP3    H111685   1.316   3.888   4.124
 3936TIP3    H211686   1.418   3.898   4.236
 3937TIP3   OH211687   1.585   3.952   3.687
 3937TIP3    H111688   1.535   4.025   3.650
 3937TIP3    H211689   1.671   3.960   3.646
 3938TIP3   OH211690   2.033   4.195   3.827
 3938TIP3    H111691   2.071   4.194   3.915
 3938TIP3    H211692   2.096   4.244   3.774
 3939TIP3   OH211693   2.212   4.345   3.686
 3939TIP3    H111694   2.280   4.294   3.642
 3939TIP3    H211695   2.260   4.402   3.746
 3940TIP3   OH211696   3.002   2.709   3.783
 3940TIP3    H111697   2.911   2.712   3.753
 3940TIP3    H211698   3.029   2.618   3.769
 3941TIP3   OH211699   1.261   4.208   3.712
 3941TIP3    H111700   1.174   4.239   3.687
 3941TIP3    H211701   1.271   4.238   3.802
 3942TIP3   OH211702   1.497   4.186   3.569
 3942TIP3    H111703   1.413   4.197   3.615
 3942TIP3    H211704   1.480   4.217   3.480
 3943TIP3   OH211705   1.923   4.216   3.367
 3943TIP3    H111706   1.855   4.233   3.302
 3943TIP3    H211707   1.937   4.300   3.410
 3944TIP3   OH211708   2.192   4.154   3.418
 3944TIP3    H111709   2.099   4.169   3.400
 3944TIP3    H211710   2.237   4.228   3.378
 3945TIP3   OH211711   2.399   4.345   3.333
 3945TIP3    H111712   2.386   4.429   3.289
 3945TIP3    H211713   2.426   4.285   3.262
 3946TIP3   OH211714   1.175   3.997   3.458
 3946TIP3    H111715   1.197   3.975   3.548
 3946TIP3    H211716   1.244   3.956   3.406
 3947TIP3   OH211717   1.369   3.869   3.315
 3947TIP3    H111718   1.382   3.787   3.362
 3947TIP3    H211719   1.456   3.907   3.309
 3948TIP3   OH211720   1.635   3.964   3.318
 3948TIP3    H111721   1.663   3.874   3.302
 3948TIP3    H211722   1.676   3.989   3.401
 3949TIP3   OH211723   2.216   2.620   3.407
 3949TIP3    H111724   2.166   2.557   3.460
 3949TIP3    H211725   2.281   2.566   3.362
 3950TIP3   OH211726   2.736   2.503   3.304
 3950TIP3    H111727   2.768   2.556   3.232
 3950TIP3    H211728   2.641   2.518   3.306
 3951TIP3   OH211729   2.822   2.606   3.060
 3951TIP3    H111730   2.894   2.552   3.026
 3951TIP3    H211731   2.855   2.695   3.056
 3952TIP3   OH211732   1.463   2.333   3.392
 3952TIP3    H111733   1.372   2.313   3.414
 3952TIP3    H211734   1.511   2.252   3.410
 3953TIP3   OH211735   1.263   2.191   3.080
 3953TIP3    H111736   1.299   2.245   3.009
 3953TIP3    H211737   1.227   2.255   3.142
 3954TIP3   OH211738   1.912   2.355   3.296
 3954TIP3    H111739   1.970   2.416   3.250
 3954TIP3    H211740   1.894   2.397   3.380
 3955TIP3   OH211741   2.455   2.502   3.283
 3955TIP3    H111742   2.453   2.460   3.197
 3955TIP3    H211743   2.437   2.430   3.345
 3956TIP3   OH211744   2.470   2.421   2.849
 3956TIP3    H111745   2.376   2.422   2.832
 3956TIP3    H211746   2.484   2.343   2.902
 3957TIP3   OH211747   0.960   3.770   2.847
 3957TIP3    H111748   0.877   3.737   2.813
 3957TIP3    H211749   0.952   3.866   2.841
 3958TIP3   OH211750   1.368   2.348   2.872
 3958TIP3    H111751   1.401   2.292   2.802
 3958TIP3    H211752   1.443   2.403   2.895
 3959TIP3   OH211753   1.879   2.531   2.927
 3959TIP3    H111754   1.917   2.482   2.999
 3959TIP3    H211755   1.890   2.623   2.952
 3960TIP3   OH211756   1.735   3.959   2.428
 3960TIP3    H111757   1.821   3.985   2.397
 3960TIP3    H211758   1.709   3.886   2.372
 3961TIP3   OH211759   2.449   4.076   2.521
 3961TIP3    H111760   2.442   3.981   2.510
 3961TIP3    H211761   2.407   4.113   2.443
 3962TIP3   OH211762   1.662   2.604   4.321
 3962TIP3    H111763   1.633   2.533   4.378
 3962TIP3    H211764   1.751   2.623   4.350
 3963TIP3   OH211765   1.913   2.610   4.434
 3963TIP3    H111766   1.996   2.589   4.392
 3963TIP3    H211767   1.900   2.541   4.499
 3964TIP3   OH211768   1.038   3.796   2.489
 3964TIP3    H111769   1.035   3.823   2.580
 3964TIP3    H211770   1.125   3.757   2.478
 3965TIP3   OH211771   2.740   2.667   4.220
 3965TIP3    H111772   2.755   2.639   4.311
 3965TIP3    H211773   2.827   2.663   4.180
 3966TIP3   OH211774   2.677   4.224   3.710
 3966TIP3    H111775   2.601   4.190   3.662
 3966TIP3    H211776   2.663   4.318   3.715
 3967TIP3   OH211777   3.943   3.595   2.476
 3967TIP3    H111778   3.920   3.687   2.460
 3967TIP3    H211779   3.867   3.546   2.446
 3968TIP3   OH211780   3.946   3.592   2.857
 3968TIP3    H111781   3.977   3.567   2.944
 3968TIP3    H211782   3.900   3.514   2.825
 3969TIP3   OH211783   3.246   3.481   3.224
 3969TIP3    H111784   3.277   3.417   3.288
 3969TIP3    H211785   3.301   3.558   3.239
 3970TIP3   OH211786   4.187   3.896   2.541
 3970TIP3    H111787   4.172   3.828   2.607
 3970TIP3    H211788   4.214   3.973   2.591
 3971TIP3   OH211789   3.215   3.896   2.949
 3971TIP3    H111790   3.204   3.800   2.952
 3971TIP3    H211791   3.309   3.909   2.944
 3972TIP3   OH211792   2.916   3.099   2.736
 3972TIP3    H111793   2.877   3.185   2.750
 3972TIP3    H211794   2.849   3.049   2.689
 3973TIP3   OH211795   2.980   3.387   2.902
 3973TIP3    H111796   3.029   3.314   2.941
 3973TIP3    H211797   3.042   3.428   2.842
 3974TIP3   OH211798   3.833   4.355   2.553
 3974TIP3    H111799   3.882   4.286   2.508
 3974TIP3    H211800   3.828   4.325   2.644
 3975TIP3   OH211801   3.746   3.820   2.905
 3975TIP3    H111802   3.779   3.745   2.856
 3975TIP3    H211803   3.825   3.868   2.931
 3976TIP3   OH211804   4.757   3.142   2.903
 3976TIP3    H111805   4.783   3.222   2.949
 3976TIP3    H211806   4.774   3.161   2.811
 3977TIP3   OH211807   4.156   3.319   2.938
 3977TIP3    H111808   4.197   3.236   2.960
 3977TIP3    H211809   4.124   3.307   2.848
 3978TIP3   OH211810   3.490   2.981   2.902
 3978TIP3    H111811   3.473   3.056   2.845
 3978TIP3    H211812   3.444   2.908   2.861
 3979TIP3   OH211813   4.189   3.071   2.527
 3979TIP3    H111814   4.257   3.056   2.592
 3979TIP3    H211815   4.236   3.108   2.452
 3980TIP3   OH211816   3.126   3.181   3.010
 3980TIP3    H111817   3.207   3.169   3.060
 3980TIP3    H211818   3.139   3.129   2.931
 3981TIP3   OH211819   3.570   3.380   2.796
 3981TIP3    H111820   3.661   3.356   2.815
 3981TIP3    H211821   3.529   3.298   2.769
 3982TIP3   OH211822   4.826   3.348   3.077
 3982TIP3    H111823   4.745   3.395   3.055
 3982TIP3    H211824   4.849   3.379   3.165
 3983TIP3   OH211825   3.482   2.964   3.341
 3983TIP3    H111826   3.428   3.004   3.272
 3983TIP3    H211827   3.436   2.985   3.422
 3984TIP3   OH211828   3.838   3.820   2.344
 3984TIP3    H111829   3.793   3.796   2.264
 3984TIP3    H211830   3.797   3.902   2.372
 3985TIP3   OH211831   3.596   3.736   3.137
 3985TIP3    H111832   3.533   3.796   3.177
 3985TIP3    H211833   3.638   3.788   3.068
 3986TIP3   OH211834   4.399   3.073   2.700
 3986TIP3    H111835   4.383   3.029   2.782
 3986TIP3    H211836   4.450   3.151   2.724
 3987TIP3   OH211837   3.361   3.082   3.123
 3987TIP3    H111838   3.417   3.155   3.149
 3987TIP3    H211839   3.408   3.040   3.050
 3988TIP3   OH211840   3.422   3.935   3.232
 3988TIP3    H111841   3.399   4.019   3.193
 3988TIP3    H211842   3.348   3.912   3.287
 3989TIP3   OH211843   2.818   3.625   2.467
 3989TIP3    H111844   2.778   3.650   2.384
 3989TIP3    H211845   2.848   3.708   2.505
 3990TIP3   OH211846   4.256   4.140   2.706
 3990TIP3    H111847   4.170   4.130   2.747
 3990TIP3    H211848   4.251   4.224   2.662
 3991TIP3   OH211849   4.548   3.040   3.069
 3991TIP3    H111850   4.461   3.070   3.042
 3991TIP3    H211851   4.607   3.071   3.000
 3992TIP3   OH211852   3.845   2.685   3.053
 3992TIP3    H111853   3.833   2.591   3.067
 3992TIP3    H211854   3.771   2.725   3.098
 3993TIP3   OH211855   3.967   4.184   2.381
 3993TIP3    H111856   4.013   4.102   2.361
 3993TIP3    H211857   4.021   4.253   2.343
 3994TIP3   OH211858   4.106   3.967   2.287
 3994TIP3    H111859   4.056   3.893   2.253
 3994TIP3    H211860   4.140   3.936   2.371
 3995TIP3   OH211861   4.484   4.053   3.049
 3995TIP3    H111862   4.472   3.976   2.993
 3995TIP3    H211863   4.465   4.128   2.992
 3996TIP3   OH211864   3.773   3.445   2.306
 3996TIP3    H111865   3.694   3.496   2.288
 3996TIP3    H211866   3.821   3.445   2.222
 3997TIP3   OH211867   3.737   3.230   2.025
 3997TIP3    H111868   3.800   3.282   2.075
 3997TIP3    H211869   3.791   3.166   1.977
 3998TIP3   OH211870   4.677   3.689   2.892
 3998TIP3    H111871   4.596   3.740   2.902
 3998TIP3    H211872   4.710   3.713   2.806
 3999TIP3   OH211873   4.123   3.528   2.283
 3999TIP3    H111874   4.067   3.554   2.356
 3999TIP3    H211875   4.206   3.504   2.324
 4000TIP3   OH211876   4.356   3.571   3.190
 4000TIP3    H111877   4.356   3.654   3.239
 4000TIP3    H211878   4.271   3.569   3.145
 4001TIP3   OH211879   3.356   3.525   2.696
 4001TIP3    H111880   3.315   3.470   2.629
 4001TIP3    H211881   3.433   3.476   2.724
 4002TIP3   OH211882   3.485   3.935   2.846
 4002TIP3    H111883   3.464   3.895   2.761
 4002TIP3    H211884   3.574   3.905   2.865
 4003TIP3   OH211885   3.495   3.496   3.045
 4003TIP3    H111886   3.530   3.483   2.956
 4003TIP3    H211887   3.533   3.579   3.073
 4004TIP3   OH211888   4.018   4.135   2.829
 4004TIP3    H111889   4.003   4.215   2.880
 4004TIP3    H211890   4.002   4.064   2.891
 4005TIP3   OH211891   3.626   4.055   3.376
 4005TIP3    H111892   3.569   4.117   3.420
 4005TIP3    H211893   3.566   4.000   3.324
 4006TIP3   OH211894   3.967   3.387   2.105
 4006TIP3    H111895   4.021   3.445   2.158
 4006TIP3    H211896   3.990   3.409   2.015
 4007TIP3   OH211897   3.334   3.653   3.428
 4007TIP3    H111898   3.382   3.701   3.495
 4007TIP3    H211899   3.265   3.608   3.476
 4008TIP3   OH211900   3.706   4.068   2.380
 4008TIP3    H111901   3.783   4.121   2.401
 4008TIP3    H211902   3.643   4.130   2.344
 4009TIP3   OH211903   3.421   4.223   3.461
 4009TIP3    H111904   3.389   4.223   3.371
 4009TIP3    H211905   3.345   4.199   3.514
 4010TIP3   OH211906   4.478   2.630   2.154
 4010TIP3    H111907   4.399   2.647   2.205
 4010TIP3    H211908   4.493   2.711   2.105
 4011TIP3   OH211909   3.220   3.368   2.498
 4011TIP3    H111910   3.158   3.417   2.444
 4011TIP3    H211911   3.178   3.284   2.514
 4012TIP3   OH211912   4.278   3.997   1.699
 4012TIP3    H111913   4.283   4.092   1.689
 4012TIP3    H211914   4.368   3.967   1.689
 4013TIP3   OH211915   3.000   3.756   3.408
 4013TIP3    H111916   2.937   3.737   3.338
 4013TIP3    H211917   3.036   3.671   3.431
 4014TIP3   OH211918   2.858   3.945   3.047
 4014TIP3    H111919   2.952   3.941   3.031
 4014TIP3    H211920   2.845   4.027   3.095
 4015TIP3   OH211921   4.720   4.396   3.099
 4015TIP3    H111922   4.720   4.301   3.110
 4015TIP3    H211923   4.639   4.424   3.141
 4016TIP3   OH211924   3.826   4.184   3.234
 4016TIP3    H111925   3.828   4.275   3.262
 4016TIP3    H211926   3.756   4.144   3.285
 4017TIP3   OH211927   3.587   4.314   2.182
 4017TIP3    H111928   3.540   4.299   2.100
 4017TIP3    H211929   3.557   4.400   2.211
 4018TIP3   OH211930   3.025   4.160   2.568
 4018TIP3    H111931   3.076   4.154   2.649
 4018TIP3    H211932   2.961   4.090   2.575
 4019TIP3   OH211933   3.790   4.212   1.824
 4019TIP3    H111934   3.847   4.145   1.788
 4019TIP3    H211935   3.821   4.224   1.913
 4020TIP3   OH211936   3.837   4.258   2.095
 4020TIP3    H111937   3.750   4.271   2.134
 4020TIP3    H211938   3.890   4.223   2.167
 4021TIP3   OH211939   4.609   3.527   3.371
 4021TIP3    H111940   4.530   3.544   3.320
 4021TIP3    H211941   4.625   3.433   3.361
 4022TIP3   OH211942   3.207   3.937   3.401
 4022TIP3    H111943   3.260   3.915   3.477
 4022TIP3    H211944   3.136   3.873   3.400
 4023TIP3   OH211945   3.606   2.759   3.184
 4023TIP3    H111946   3.517   2.732   3.157
 4023TIP3    H211947   3.593   2.843   3.227
 4024TIP3   OH211948   4.140   2.873   3.377
 4024TIP3    H111949   4.207   2.848   3.440
 4024TIP3    H211950   4.057   2.854   3.421
 4025TIP3   OH211951   4.380   3.306   3.295
 4025TIP3    H111952   4.332   3.302   3.377
 4025TIP3    H211953   4.355   3.391   3.257
 4026TIP3   OH211954   4.041   3.432   1.848
 4026TIP3    H111955   4.006   3.407   1.762
 4026TIP3    H211956   4.117   3.486   1.828
 4027TIP3   OH211957   3.751   2.807   2.153
 4027TIP3    H111958   3.721   2.809   2.244
 4027TIP3    H211959   3.714   2.726   2.117
 4028TIP3   OH211960   3.533   3.279   3.201
 4028TIP3    H111961   3.496   3.305   3.286
 4028TIP3    H211962   3.521   3.355   3.145
 4029TIP3   OH211963   3.421   3.159   2.712
 4029TIP3    H111964   3.330   3.138   2.732
 4029TIP3    H211965   3.436   3.121   2.626
 4030TIP3   OH211966   3.912   3.247   2.438
 4030TIP3    H111967   3.859   3.318   2.401
 4030TIP3    H211968   3.967   3.218   2.365
 4031TIP3   OH211969   4.092   3.527   3.529
 4031TIP3    H111970   4.066   3.455   3.587
 4031TIP3    H211971   4.186   3.539   3.547
 4032TIP3   OH211972   4.069   3.274   2.678
 4032TIP3    H111973   4.009   3.310   2.612
 4032TIP3    H211974   4.103   3.194   2.639
 4033TIP3   OH211975   3.371   3.319   3.429
 4033TIP3    H111976   3.430   3.367   3.487
 4033TIP3    H211977   3.358   3.234   3.472
 4034TIP3   OH211978   3.405   2.782   2.120
 4034TIP3    H111979   3.400   2.780   2.215
 4034TIP3    H211980   3.330   2.834   2.092
 4035TIP3   OH211981   2.953   2.827   2.988
 4035TIP3    H111982   3.023   2.861   3.044
 4035TIP3    H211983   2.997   2.799   2.908
 4036TIP3   OH211984   2.925   2.810   2.506
 4036TIP3    H111985   2.972   2.842   2.430
 4036TIP3    H211986   2.865   2.881   2.530
 4037TIP3   OH211987   4.085   3.521   3.102
 4037TIP3    H111988   4.116   3.450   3.045
 4037TIP3    H211989   4.050   3.477   3.179
 4038TIP3   OH211990   3.748   2.981   2.777
 4038TIP3    H111991   3.666   2.982   2.827
 4038TIP3    H211992   3.816   2.987   2.844
 4039TIP3   OH211993   3.182   3.039   2.783
 4039TIP3    H111994   3.090   3.046   2.757
 4039TIP3    H211995   3.207   2.950   2.758
 4040TIP3   OH211996   3.454   3.035   2.470
 4040TIP3    H111997   3.547   3.052   2.450
 4040TIP3    H211998   3.408   3.059   2.389
 4041TIP3   OH211999   4.240   3.056   2.974
 4041TIP3    H112000   4.212   3.072   3.064
 4041TIP3    H212001   4.174   2.997   2.938
 4042TIP3   OH212002   3.294   3.067   2.248
 4042TIP3    H112003   3.222   3.024   2.202
 4042TIP3    H212004   3.347   3.105   2.178
 4043TIP3   OH212005   4.412   4.748   3.194
 4043TIP3    H112006   4.407   4.771   3.101
 4043TIP3    H212007   4.487   4.797   3.227
 4044TIP3   OH212008   3.365   3.858   3.630
 4044TIP3    H112009   3.450   3.882   3.665
 4044TIP3    H212010   3.303   3.883   3.699
 4045TIP3   OH212011   3.833   3.309   2.874
 4045TIP3    H112012   3.907   3.272   2.826
 4045TIP3    H212013   3.841   3.272   2.962
 4046TIP3   OH212014   3.355   2.799   2.749
 4046TIP3    H112015   3.324   2.721   2.794
 4046TIP3    H212016   3.407   2.766   2.676
 4047TIP3   OH212017   3.808   3.214   3.163
 4047TIP3    H112018   3.720   3.249   3.179
 4047TIP3    H212019   3.865   3.271   3.214
 4048TIP3   OH212020   3.545   3.598   2.260
 4048TIP3    H112021   3.475   3.535   2.245
 4048TIP3    H212022   3.529   3.633   2.347
 4049TIP3   OH212023   4.446   3.835   2.886
 4049TIP3    H112024   4.471   3.884   2.807
 4049TIP3    H212025   4.362   3.795   2.863
 4050TIP3   OH212026   4.003   2.913   2.116
 4050TIP3    H112027   3.909   2.896   2.126
 4050TIP3    H212028   4.014   3.005   2.142
 4051TIP3   OH212029   3.955   3.925   3.252
 4051TIP3    H112030   3.955   3.887   3.340
 4051TIP3    H212031   3.908   4.008   3.263
 4052TIP3   OH212032   4.075   3.159   2.221
 4052TIP3    H112033   4.169   3.166   2.238
 4052TIP3    H212034   4.055   3.238   2.170
 4053TIP3   OH212035   3.235   3.614   2.935
 4053TIP3    H112036   3.275   3.591   2.852
 4053TIP3    H212037   3.281   3.561   3.000
 4054TIP3   OH212038   3.688   3.750   2.078
 4054TIP3    H112039   3.644   3.834   2.081
 4054TIP3    H212040   3.637   3.694   2.137
 4055TIP3   OH212041   3.099   3.539   3.561
 4055TIP3    H112042   3.139   3.478   3.623
 4055TIP3    H212043   3.040   3.484   3.509
 4056TIP3   OH212044   3.841   3.656   3.574
 4056TIP3    H112045   3.770   3.599   3.546
 4056TIP3    H212046   3.918   3.623   3.529
 4057TIP3   OH212047   4.107   4.179   3.151
 4057TIP3    H112048   4.012   4.172   3.161
 4057TIP3    H212049   4.135   4.230   3.227
 4058TIP3   OH212050   4.515   3.249   2.055
 4058TIP3    H112051   4.455   3.202   1.997
 4058TIP3    H212052   4.515   3.339   2.021
 4059TIP3   OH212053   4.732   4.104   3.138
 4059TIP3    H112054   4.637   4.102   3.133
 4059TIP3    H212055   4.761   4.076   3.051
 4060TIP3   OH212056   4.217   4.067   1.965
 4060TIP3    H112057   4.189   4.002   2.030
 4060TIP3    H212058   4.227   4.018   1.884
 4061TIP3   OH212059   4.211   3.695   2.805
 4061TIP3    H112060   4.119   3.673   2.820
 4061TIP3    H212061   4.247   3.619   2.760
 4062TIP3   OH212062   3.337   3.925   2.554
 4062TIP3    H112063   3.341   4.006   2.504
 4062TIP3    H212064   3.244   3.911   2.569
 4063TIP3   OH212065   2.903   3.231   2.264
 4063TIP3    H112066   2.949   3.313   2.280
 4063TIP3    H212067   2.826   3.235   2.320
 4064TIP3   OH212068   3.477   3.692   2.504
 4064TIP3    H112069   3.444   3.781   2.518
 4064TIP3    H212070   3.443   3.641   2.577
 4065TIP3   OH212071   3.609   4.270   3.028
 4065TIP3    H112072   3.646   4.342   2.976
 4065TIP3    H212073   3.684   4.235   3.076
 4066TIP3   OH212074   3.259   4.163   2.412
 4066TIP3    H112075   3.174   4.173   2.455
 4066TIP3    H212076   3.296   4.252   2.412
 4067TIP3   OH212077   3.998   3.900   2.987
 4067TIP3    H112078   3.988   3.905   3.082
 4067TIP3    H212079   4.078   3.850   2.973
 4068TIP3   OH212080   3.970   3.792   1.870
 4068TIP3    H112081   4.024   3.769   1.946
 4068TIP3    H212082   3.880   3.771   1.897
 4069TIP3   OH212083   4.244   4.437   3.034
 4069TIP3    H112084   4.167   4.381   3.029
 4069TIP3    H212085   4.232   4.502   2.964
 4070TIP3   OH212086   4.309   4.274   1.689
 4070TIP3    H112087   4.349   4.345   1.638
 4070TIP3    H212088   4.228   4.313   1.724
 4071TIP3   OH212089   3.329   3.039   3.557
 4071TIP3    H112090   3.236   3.054   3.572
 4071TIP3    H212091   3.356   2.985   3.631
 4072TIP3   OH212092   4.132   3.724   2.083
 4072TIP3    H112093   4.120   3.662   2.156
 4072TIP3    H212094   4.227   3.728   2.072
 4073TIP3   OH212095   3.047   4.131   3.189
 4073TIP3    H112096   3.101   4.057   3.219
 4073TIP3    H212097   3.075   4.205   3.243
 4074TIP3   OH212098   3.338   3.774   1.869
 4074TIP3    H112099   3.351   3.684   1.839
 4074TIP3    H212100   3.319   3.766   1.962
 4075TIP3   OH212101   3.285   3.783   2.140
 4075TIP3    H112102   3.353   3.755   2.202
 4075TIP3    H212103   3.285   3.878   2.145
 4076TIP3   OH212104   3.017   3.478   2.344
 4076TIP3    H112105   2.952   3.520   2.401
 4076TIP3    H212106   3.034   3.544   2.276
 4077TIP3   OH212107   4.173   3.106   3.232
 4077TIP3    H112108   4.246   3.149   3.275
 4077TIP3    H212109   4.154   3.030   3.287
 4078TIP3   OH212110   4.048   2.865   2.398
 4078TIP3    H112111   4.033   2.887   2.306
 4078TIP3    H212112   4.086   2.944   2.436
 4079TIP3   OH212113   3.545   3.980   2.087
 4079TIP3    H112114   3.461   4.004   2.126
 4079TIP3    H212115   3.567   4.055   2.031
 4080TIP3   OH212116   3.739   3.042   2.504
 4080TIP3    H112117   3.800   3.113   2.484
 4080TIP3    H212118   3.741   3.034   2.599
 4081TIP3   OH212119   4.009   3.361   3.307
 4081TIP3    H112120   4.015   3.422   3.381
 4081TIP3    H212121   4.065   3.287   3.332
 4082TIP3   OH212122   3.882   2.772   2.605
 4082TIP3    H112123   3.871   2.846   2.665
 4082TIP3    H212124   3.941   2.806   2.537
 4083TIP3   OH212125   3.289   4.055   2.157
 4083TIP3    H112126   3.261   4.122   2.093
 4083TIP3    H212127   3.275   4.096   2.242
 4084TIP3   OH212128   3.394   2.769   2.397
 4084TIP3    H112129   3.388   2.859   2.430
 4084TIP3    H212130   3.487   2.747   2.402
 4085TIP3   OH212131   4.645   3.258   3.292
 4085TIP3    H112132   4.550   3.259   3.300
 4085TIP3    H212133   4.662   3.227   3.203
 4086TIP3   OH212134   4.298   3.453   2.679
 4086TIP3    H112135   4.221   3.398   2.693
 4086TIP3    H212136   4.369   3.409   2.726
 4087TIP3   OH212137   3.011   3.685   2.148
 4087TIP3    H112138   3.069   3.760   2.161
 4087TIP3    H212139   3.054   3.632   2.082
 4088TIP3   OH212140   2.953   2.961   2.284
 4088TIP3    H112141   2.956   3.056   2.281
 4088TIP3    H212142   2.874   2.938   2.235
 4089TIP3   OH212143   4.267   4.411   2.627
 4089TIP3    H112144   4.221   4.455   2.556
 4089TIP3    H212145   4.360   4.427   2.608
 4090TIP3   OH212146   3.340   2.678   3.154
 4090TIP3    H112147   3.311   2.653   3.067
 4090TIP3    H212148   3.328   2.600   3.207
 4091TIP3   OH212149   2.877   3.893   2.537
 4091TIP3    H112150   2.808   3.928   2.593
 4091TIP3    H212151   2.862   3.934   2.452
 4092TIP3   OH212152   3.037   4.437   3.611
 4092TIP3    H112153   3.122   4.440   3.655
 4092TIP3    H212154   3.016   4.344   3.607
 4093TIP3   OH212155   3.520   4.402   3.654
 4093TIP3    H112156   3.615   4.389   3.659
 4093TIP3    H212157   3.492   4.348   3.581
 4094TIP3   OH212158   3.499   3.978   1.779
 4094TIP3    H112159   3.442   3.912   1.819
 4094TIP3    H212160   3.576   3.928   1.750
 4095TIP3   OH212161   4.159   4.311   3.387
 4095TIP3    H112162   4.150   4.243   3.454
 4095TIP3    H212163   4.234   4.363   3.416
 4096TIP3   OH212164   3.938   4.020   1.691
 4096TIP3    H112165   3.982   3.959   1.751
 4096TIP3    H212166   3.995   4.023   1.614
 4097TIP3   OH212167   3.155   3.846   3.815
 4097TIP3    H112168   3.178   3.760   3.781
 4097TIP3    H212169   3.071   3.866   3.775
 4098TIP3   OH212170   3.148   3.497   2.000
 4098TIP3    H112171   3.199   3.466   2.075
 4098TIP3    H212172   3.211   3.502   1.929
 4099TIP3   OH212173   3.776   3.931   3.580
 4099TIP3    H112174   3.734   3.947   3.496
 4099TIP3    H212175   3.805   3.839   3.575
 4100TIP3   OH212176   3.654   3.694   1.809
 4100TIP3    H112177   3.656   3.710   1.903
 4100TIP3    H212178   3.652   3.599   1.801
 4101TIP3   OH212179   4.270   3.938   3.188
 4101TIP3    H112180   4.342   3.985   3.144
 4101TIP3    H212181   4.195   3.997   3.179
 4102TIP3   OH212182   3.354   3.399   2.224
 4102TIP3    H112183   3.326   3.361   2.307
 4102TIP3    H212184   3.389   3.325   2.174
 4103TIP3   OH212185   3.454   3.192   2.063
 4103TIP3    H112186   3.425   3.197   1.972
 4103TIP3    H212187   3.550   3.200   2.058
 4104TIP3   OH212188   4.144   3.870   3.592
 4104TIP3    H112189   4.215   3.845   3.533
 4104TIP3    H212190   4.134   3.795   3.650
 4105TIP3   OH212191   4.277   3.528   1.722
 4105TIP3    H112192   4.254   3.478   1.644
 4105TIP3    H212193   4.246   3.616   1.705
 4106TIP3   OH212194   3.753   3.011   3.357
 4106TIP3    H112195   3.777   3.077   3.292
 4106TIP3    H212196   3.658   3.014   3.361
 4107TIP3   OH212197   3.802   3.594   3.263
 4107TIP3    H112198   3.862   3.596   3.188
 4107TIP3    H212199   3.724   3.640   3.232
 4108TIP3   OH212200   4.360   3.543   3.642
 4108TIP3    H112201   4.408   3.460   3.645
 4108TIP3    H212202   4.423   3.605   3.606
 4109TIP3   OH212203   4.400   3.798   3.376
 4109TIP3    H112204   4.340   3.847   3.320
 4109TIP3    H212205   4.486   3.815   3.339
 4110TIP3   OH212206   3.881   2.796   3.454
 4110TIP3    H112207   3.839   2.877   3.423
 4110TIP3    H212208   3.814   2.728   3.441
 4111TIP3   OH212209   4.004   3.308   3.667
 4111TIP3    H112210   3.993   3.297   3.762
 4111TIP3    H212211   3.916   3.297   3.631
 4112TIP3   OH212212   4.245   3.255   3.523
 4112TIP3    H112213   4.170   3.259   3.582
 4112TIP3    H212214   4.318   3.226   3.579
 4113TIP3   OH212215   4.475   3.196   3.676
 4113TIP3    H112216   4.487   3.103   3.693
 4113TIP3    H212217   4.471   3.235   3.764
 4114TIP3   OH212218   3.445   3.140   3.889
 4114TIP3    H112219   3.492   3.109   3.812
 4114TIP3    H212220   3.502   3.117   3.963
 4115TIP3   OH212221   3.974   2.810   3.710
 4115TIP3    H112222   4.042   2.742   3.705
 4115TIP3    H212223   3.933   2.808   3.624
 4116TIP3   OH212224   4.038   3.026   3.869
 4116TIP3    H112225   4.018   2.956   3.807
 4116TIP3    H212226   3.965   3.087   3.860
 4117TIP3   OH212227   3.260   4.253   1.963
 4117TIP3    H112228   3.355   4.251   1.951
 4117TIP3    H212229   3.227   4.306   1.891
 4118TIP3   OH212230   2.742   3.636   2.185
 4118TIP3    H112231   2.834   3.661   2.173
 4118TIP3    H212232   2.735   3.549   2.144
 4119TIP3   OH212233   2.652   4.247   2.597
 4119TIP3    H112234   2.586   4.187   2.562
 4119TIP3    H212235   2.698   4.194   2.663
 4120TIP3   OH212236   2.793   4.102   2.785
 4120TIP3    H112237   2.779   4.029   2.846
 4120TIP3    H212238   2.843   4.166   2.836
 4121TIP3   OH212239   4.521   4.499   2.586
 4121TIP3    H112240   4.542   4.534   2.672
 4121TIP3    H212241   4.571   4.552   2.524
 4122TIP3   OH212242   4.547   4.520   2.868
 4122TIP3    H112243   4.503   4.436   2.861
 4122TIP3    H212244   4.623   4.504   2.925
 4123TIP3   OH212245   4.595   4.200   3.442
 4123TIP3    H112246   4.522   4.208   3.502
 4123TIP3    H212247   4.636   4.287   3.443
 4124TIP3   OH212248   4.413   3.712   2.061
 4124TIP3    H112249   4.478   3.777   2.032
 4124TIP3    H212250   4.453   3.673   2.139
 4125TIP3   OH212251   4.538   3.579   2.265
 4125TIP3    H112252   4.473   3.538   2.322
 4125TIP3    H212253   4.601   3.619   2.325
 4126TIP3   OH212254   4.593   3.971   2.695
 4126TIP3    H112255   4.644   3.908   2.645
 4126TIP3    H212256   4.583   4.047   2.637
 4127TIP3   OH212257   4.422   4.272   2.892
 4127TIP3    H112258   4.353   4.316   2.943
 4127TIP3    H212259   4.374   4.225   2.823
 4128TIP3   OH212260   4.474   3.489   1.911
 4128TIP3    H112261   4.406   3.490   1.843
 4128TIP3    H212262   4.451   3.562   1.968
 4129TIP3   OH212263   4.349   3.158   1.863
 4129TIP3    H112264   4.302   3.202   1.791
 4129TIP3    H212265   4.324   3.066   1.854
 4130TIP3   OH212266   4.353   3.435   2.413
 4130TIP3    H112267   4.360   3.340   2.407
 4130TIP3    H212268   4.339   3.452   2.506
 4131TIP3   OH212269   2.983   3.506   3.156
 4131TIP3    H112270   2.976   3.481   3.063
 4131TIP3    H212271   3.077   3.507   3.173
 4132TIP3   OH212272   4.642   3.861   3.267
 4132TIP3    H112273   4.713   3.797   3.258
 4132TIP3    H212274   4.666   3.931   3.206
 4133TIP3   OH212275   4.826   3.664   3.286
 4133TIP3    H112276   4.751   3.618   3.324
 4133TIP3    H212277   4.900   3.604   3.297
 4134TIP3   OH212278   4.292   2.892   1.850
 4134TIP3    H112279   4.364   2.864   1.906
 4134TIP3    H212280   4.218   2.837   1.876
 4135TIP3   OH212281   4.351   3.150   2.306
 4135TIP3    H112282   4.387   3.063   2.322
 4135TIP3    H212283   4.406   3.187   2.237
 4136TIP3   OH212284   4.514   3.328   2.802
 4136TIP3    H112285   4.596   3.352   2.759
 4136TIP3    H212286   4.521   3.363   2.891
 4137TIP3   OH212287   4.577   3.472   3.033
 4137TIP3    H112288   4.500   3.504   3.081
 4137TIP3    H212289   4.611   3.550   2.988
 4138TIP3   OH212290   3.193   3.191   3.829
 4138TIP3    H112291   3.288   3.192   3.835
 4138TIP3    H212292   3.168   3.108   3.872
 4139TIP3   OH212293   5.032   3.060   3.588
 4139TIP3    H112294   5.089   2.996   3.545
 4139TIP3    H212295   5.001   3.115   3.516
 4140TIP3   OH212296   4.458   2.899   2.344
 4140TIP3    H112297   4.506   2.887   2.426
 4140TIP3    H212298   4.397   2.826   2.341
 4141TIP3   OH212299   3.159   2.888   3.163
 4141TIP3    H112300   3.220   2.815   3.173
 4141TIP3    H212301   3.216   2.965   3.156
 4142TIP3   OH212302   2.962   3.165   3.235
 4142TIP3    H112303   3.009   3.156   3.152
 4142TIP3    H212304   2.991   3.249   3.270
 4143TIP3   OH212305   4.899   3.199   3.397
 4143TIP3    H112306   4.816   3.243   3.417
 4143TIP3    H212307   4.875   3.130   3.336
 4144TIP3   OH212308   4.540   2.838   1.975
 4144TIP3    H112309   4.578   2.766   1.924
 4144TIP3    H212310   4.605   2.908   1.969
 4145TIP3   OH212311   2.943   2.666   2.733
 4145TIP3    H112312   2.851   2.670   2.759
 4145TIP3    H212313   2.948   2.723   2.656
 4146TIP3   OH212314   4.106   4.367   2.242
 4146TIP3    H112315   4.154   4.356   2.160
 4146TIP3    H212316   4.149   4.440   2.286
 4147TIP3   OH212317   3.155   2.736   3.546
 4147TIP3    H112318   3.114   2.741   3.632
 4147TIP3    H212319   3.097   2.785   3.488
 4148TIP3   OH212320   3.205   4.166   3.633
 4148TIP3    H112321   3.114   4.144   3.610
 4148TIP3    H212322   3.207   4.165   3.729
 4149TIP3   OH212323   3.381   4.208   3.174
 4149TIP3    H112324   3.331   4.281   3.138
 4149TIP3    H212325   3.467   4.216   3.132
 4150TIP3   OH212326   3.829   4.450   3.315
 4150TIP3    H112327   3.868   4.452   3.402
 4150TIP3    H212328   3.891   4.499   3.260
 4151TIP3   OH212329   4.008   4.600   3.174
 4151TIP3    H112330   4.076   4.550   3.129
 4151TIP3    H212331   4.056   4.658   3.233
 4152TIP3   OH212332   4.799   2.963   3.271
 4152TIP3    H112333   4.709   2.963   3.237
 4152TIP3    H212334   4.829   2.872   3.260
 4153TIP3   OH212335   3.055   4.460   3.203
 4153TIP3    H112336   2.970   4.493   3.173
 4153TIP3    H212337   3.070   4.504   3.287
 4154TIP3   OH212338   3.291   4.440   3.055
 4154TIP3    H112339   3.208   4.453   3.101
 4154TIP3    H212340   3.276   4.475   2.967
 4155TIP3   OH212341   3.720   4.472   2.855
 4155TIP3    H112342   3.651   4.488   2.790
 4155TIP3    H212343   3.734   4.557   2.896
 4156TIP3   OH212344   3.988   4.411   2.904
 4156TIP3    H112345   3.894   4.425   2.888
 4156TIP3    H212346   4.031   4.486   2.863
 4157TIP3   OH212347   4.198   4.603   2.819
 4157TIP3    H112348   4.182   4.686   2.776
 4157TIP3    H212349   4.221   4.543   2.748
 4158TIP3   OH212350   2.970   4.253   2.944
 4158TIP3    H112351   2.993   4.232   3.034
 4158TIP3    H212352   3.040   4.214   2.892
 4159TIP3   OH212353   3.164   4.126   2.801
 4159TIP3    H112354   3.179   4.044   2.849
 4159TIP3    H212355   3.251   4.166   2.795
 4160TIP3   OH212356   3.428   4.219   2.806
 4160TIP3    H112357   3.460   4.130   2.792
 4160TIP3    H212358   3.470   4.247   2.887
 4161TIP3   OH212359   4.007   2.879   2.891
 4161TIP3    H112360   3.962   2.813   2.944
 4161TIP3    H212361   4.078   2.831   2.847
 4162TIP3   OH212362   4.529   2.758   2.795
 4162TIP3    H112363   4.565   2.810   2.723
 4162TIP3    H212364   4.435   2.776   2.792
 4163TIP3   OH212365   4.627   2.860   2.559
 4163TIP3    H112366   4.697   2.808   2.520
 4163TIP3    H212367   4.655   2.951   2.547
 4164TIP3   OH212368   3.252   2.585   2.908
 4164TIP3    H112369   3.161   2.556   2.908
 4164TIP3    H212370   3.303   2.504   2.904
 4165TIP3   OH212371   3.040   2.458   2.553
 4165TIP3    H112372   3.071   2.514   2.482
 4165TIP3    H212373   3.012   2.520   2.621
 4166TIP3   OH212374   3.698   2.620   2.789
 4166TIP3    H112375   3.754   2.669   2.728
 4166TIP3    H212376   3.716   2.659   2.875
 4167TIP3   OH212377   4.247   2.764   2.772
 4167TIP3    H112378   4.241   2.731   2.683
 4167TIP3    H212379   4.231   2.687   2.827
 4168TIP3   OH212380   4.272   2.688   2.335
 4168TIP3    H112381   4.188   2.733   2.345
 4168TIP3    H212382   4.260   2.604   2.380
 4169TIP3   OH212383   2.755   4.029   2.337
 4169TIP3    H112384   2.673   3.994   2.302
 4169TIP3    H212385   2.750   4.123   2.322
 4170TIP3   OH212386   3.159   2.614   2.322
 4170TIP3    H112387   3.205   2.555   2.262
 4170TIP3    H212388   3.228   2.671   2.356
 4171TIP3   OH212389   3.672   2.792   2.420
 4171TIP3    H112390   3.730   2.744   2.478
 4171TIP3    H212391   3.689   2.884   2.441
 4172TIP3   OH212392   3.530   4.216   1.915
 4172TIP3    H112393   3.617   4.241   1.883
 4172TIP3    H212394   3.505   4.142   1.859
 4173TIP3   OH212395   4.248   4.335   2.007
 4173TIP3    H112396   4.240   4.240   1.996
 4173TIP3    H212397   4.202   4.372   1.932
 4174TIP3   OH212398   3.462   2.846   3.788
 4174TIP3    H112399   3.427   2.790   3.856
 4174TIP3    H212400   3.550   2.869   3.819
 4175TIP3   OH212401   3.709   2.867   3.922
 4175TIP3    H112402   3.791   2.847   3.877
 4175TIP3    H212403   3.697   2.797   3.985
 4176TIP3   OH212404   2.833   4.053   1.975
 4176TIP3    H112405   2.832   4.084   2.065
 4176TIP3    H212406   2.920   4.014   1.964
 4177TIP3   OH212407   4.538   2.926   3.707
 4177TIP3    H112408   4.555   2.895   3.796
 4177TIP3    H212409   4.623   2.922   3.663
 4178TIP3   OH212410   4.473   4.481   3.197
 4178TIP3    H112411   4.397   4.446   3.149
 4178TIP3    H212412   4.458   4.575   3.201
 4179TIP3   OH212413   5.740   3.852   1.961
 4179TIP3    H112414   5.716   3.944   1.946
 4179TIP3    H212415   5.663   3.803   1.935
 4180TIP3   OH212416   5.742   3.848   2.344
 4180TIP3    H112417   5.771   3.825   2.432
 4180TIP3    H212418   5.696   3.770   2.313
 4181TIP3   OH212419   5.043   3.746   2.709
 4181TIP3    H112420   5.069   3.679   2.772
 4181TIP3    H212421   5.115   3.808   2.709
 4182TIP3   OH212422   5.983   4.153   2.028
 4182TIP3    H112423   5.968   4.084   2.092
 4182TIP3    H212424   6.010   4.229   2.079
 4183TIP3   OH212425   5.012   4.154   2.434
 4183TIP3    H112426   4.999   4.059   2.438
 4183TIP3    H212427   5.107   4.165   2.433
 4184TIP3   OH212428   4.716   3.360   2.220
 4184TIP3    H112429   4.672   3.444   2.238
 4184TIP3    H212430   4.647   3.305   2.183
 4185TIP3   OH212431   4.778   3.646   2.391
 4185TIP3    H112432   4.825   3.572   2.429
 4185TIP3    H212433   4.836   3.678   2.322
 4186TIP3   OH212434   5.632   4.614   2.041
 4186TIP3    H112435   5.679   4.544   1.996
 4186TIP3    H212436   5.622   4.583   2.131
 4187TIP3   OH212437   5.543   4.077   2.391
 4187TIP3    H112438   5.575   4.000   2.345
 4187TIP3    H212439   5.622   4.124   2.418
 4188TIP3   OH212440   6.553   3.400   2.390
 4188TIP3    H112441   6.580   3.479   2.437
 4188TIP3    H212442   6.570   3.420   2.298
 4189TIP3   OH212443   5.952   3.578   2.425
 4189TIP3    H112444   5.993   3.494   2.448
 4189TIP3    H212445   5.920   3.564   2.336
 4190TIP3   OH212446   5.287   3.238   2.388
 4190TIP3    H112447   5.268   3.312   2.330
 4190TIP3    H212448   5.241   3.164   2.349
 4191TIP3   OH212449   5.985   3.327   2.014
 4191TIP3    H112450   6.052   3.312   2.080
 4191TIP3    H212451   6.033   3.365   1.940
 4192TIP3   OH212452   4.924   3.439   2.497
 4192TIP3    H112453   5.004   3.422   2.547
 4192TIP3    H212454   4.933   3.385   2.419
 4193TIP3   OH212455   5.365   3.636   2.286
 4193TIP3    H112456   5.456   3.613   2.303
 4193TIP3    H212457   5.324   3.555   2.257
 4194TIP3   OH212458   6.622   3.607   2.562
 4194TIP3    H112459   6.541   3.652   2.541
 4194TIP3    H212460   6.639   3.630   2.653
 4195TIP3   OH212461   5.283   3.222   2.826
 4195TIP3    H112462   5.226   3.259   2.757
 4195TIP3    H212463   5.235   3.238   2.907
 4196TIP3   OH212464   5.636   4.077   1.829
 4196TIP3    H112465   5.588   4.050   1.752
 4196TIP3    H212466   5.594   4.159   1.857
 4197TIP3   OH212467   5.390   3.999   2.621
 4197TIP3    H112468   5.328   4.060   2.661
 4197TIP3    H212469   5.432   4.049   2.551
 4198TIP3   OH212470   6.195   3.330   2.187
 4198TIP3    H112471   6.177   3.286   2.269
 4198TIP3    H212472   6.246   3.408   2.212
 4199TIP3   OH212473   5.158   3.337   2.609
 4199TIP3    H112474   5.215   3.410   2.635
 4199TIP3    H212475   5.204   3.296   2.536
 4200TIP3   OH212476   5.215   4.192   2.718
 4200TIP3    H112477   5.194   4.277   2.679
 4200TIP3    H212478   5.141   4.172   2.775
 4201TIP3   OH212479   4.617   3.882   1.953
 4201TIP3    H112480   4.572   3.908   1.873
 4201TIP3    H212481   4.645   3.965   1.993
 4202TIP3   OH212482   6.052   4.397   2.193
 4202TIP3    H112483   5.966   4.386   2.234
 4202TIP3    H212484   6.047   4.481   2.149
 4203TIP3   OH212485   6.345   3.297   2.555
 4203TIP3    H112486   6.258   3.327   2.529
 4203TIP3    H212487   6.403   3.329   2.486
 4204TIP3   OH212488   5.641   2.941   2.541
 4204TIP3    H112489   5.629   2.847   2.555
 4204TIP3    H212490   5.566   2.981   2.585
 4205TIP3   OH212491   5.762   4.442   1.868
 4205TIP3    H112492   5.807   4.359   1.849
 4205TIP3    H212493   5.817   4.509   1.829
 4206TIP3   OH212494   5.902   4.224   1.774
 4206TIP3    H112495   5.848   4.151   1.743
 4206TIP3    H212496   5.937   4.194   1.858
 4207TIP3   OH212497   6.280   4.310   2.536
 4207TIP3    H112498   6.268   4.233   2.481
 4207TIP3    H212499   6.263   4.384   2.477
 4208TIP3   OH212500   5.569   3.702   1.793
 4208TIP3    H112501   5.490   3.752   1.776
 4208TIP3    H212502   5.616   3.702   1.709
 4209TIP3   OH212503   5.532   3.488   1.510
 4209TIP3    H112504   5.595   3.538   1.562
 4209TIP3    H212505   5.586   3.424   1.464
 4210TIP3   OH212506   6.474   3.947   2.379
 4210TIP3    H112507   6.393   3.996   2.390
 4210TIP3    H212508   6.505   3.970   2.292
 4211TIP3   OH212509   5.920   3.785   1.770
 4211TIP3    H112510   5.863   3.810   1.843
 4211TIP3    H212511   6.002   3.760   1.811
 4212TIP3   OH212512   6.152   3.828   2.677
 4212TIP3    H112513   6.152   3.907   2.731
 4212TIP3    H212514   6.068   3.830   2.632
 4213TIP3   OH212515   5.153   3.782   2.182
 4213TIP3    H112516   5.111   3.727   2.115
 4213TIP3    H212517   5.228   3.731   2.211
 4214TIP3   OH212518   5.284   4.196   2.330
 4214TIP3    H112519   5.259   4.151   2.249
 4214TIP3    H212520   5.371   4.163   2.350
 4215TIP3   OH212521   5.292   3.755   2.536
 4215TIP3    H112522   5.323   3.737   2.447
 4215TIP3    H212523   5.331   3.839   2.559
 4216TIP3   OH212524   5.814   4.392   2.316
 4216TIP3    H112525   5.799   4.471   2.368
 4216TIP3    H212526   5.798   4.320   2.377
 4217TIP3   OH212527   5.421   4.315   2.857
 4217TIP3    H112528   5.366   4.375   2.906
 4217TIP3    H212529   5.359   4.258   2.811
 4218TIP3   OH212530   5.764   3.644   1.592
 4218TIP3    H112531   5.818   3.702   1.645
 4218TIP3    H212532   5.787   3.666   1.502
 4219TIP3   OH212533   5.175   3.871   2.960
 4219TIP3    H112534   5.185   3.955   3.006
 4219TIP3    H212535   5.083   3.848   2.972
 4220TIP3   OH212536   5.503   4.323   1.866
 4220TIP3    H112537   5.579   4.378   1.888
 4220TIP3    H212538   5.439   4.384   1.831
 4221TIP3   OH212539   5.217   4.482   2.950
 4221TIP3    H112540   5.185   4.479   2.859
 4221TIP3    H212541   5.141   4.458   3.003
 4222TIP3   OH212542   6.273   2.887   1.640
 4222TIP3    H112543   6.194   2.903   1.692
 4222TIP3    H212544   6.288   2.968   1.593
 4223TIP3   OH212545   5.017   3.625   1.983
 4223TIP3    H112546   4.953   3.672   1.930
 4223TIP3    H212547   4.975   3.542   2.004
 4224TIP3   OH212548   6.075   4.254   1.184
 4224TIP3    H112549   6.081   4.349   1.175
 4224TIP3    H212550   6.165   4.223   1.175
 4225TIP3   OH212551   4.799   4.009   2.894
 4225TIP3    H112552   4.733   3.989   2.828
 4225TIP3    H212553   4.834   3.924   2.920
 4226TIP3   OH212554   4.653   4.203   2.531
 4226TIP3    H112555   4.748   4.201   2.522
 4226TIP3    H212556   4.635   4.284   2.580
 4227TIP3   OH212557   6.515   4.652   2.585
 4227TIP3    H112558   6.517   4.557   2.597
 4227TIP3    H212559   6.435   4.680   2.629
 4228TIP3   OH212560   5.621   4.442   2.719
 4228TIP3    H112561   5.623   4.532   2.751
 4228TIP3    H212562   5.552   4.400   2.769
 4229TIP3   OH212563   5.384   4.572   1.668
 4229TIP3    H112564   5.337   4.553   1.588
 4229TIP3    H212565   5.352   4.658   1.695
 4230TIP3   OH212566   4.822   4.418   2.055
 4230TIP3    H112567   4.870   4.410   2.138
 4230TIP3    H212568   4.756   4.348   2.060
 4231TIP3   OH212569   5.588   4.470   1.311
 4231TIP3    H112570   5.644   4.402   1.276
 4231TIP3    H212571   5.617   4.480   1.402
 4232TIP3   OH212572   5.634   4.517   1.582
 4232TIP3    H112573   5.546   4.529   1.620
 4232TIP3    H212574   5.685   4.478   1.653
 4233TIP3   OH212575   6.410   3.785   2.855
 4233TIP3    H112576   6.325   3.802   2.814
 4233TIP3    H212577   6.422   3.690   2.848
 4234TIP3   OH212578   5.004   4.192   2.887
 4234TIP3    H112579   5.053   4.177   2.967
 4234TIP3    H212580   4.931   4.130   2.891
 4235TIP3   OH212581   5.401   3.018   2.667
 4235TIP3    H112582   5.315   2.984   2.641
 4235TIP3    H212583   5.381   3.100   2.714
 4236TIP3   OH212584   5.935   3.129   2.862
 4236TIP3    H112585   6.002   3.107   2.927
 4236TIP3    H212586   5.852   3.113   2.907
 4237TIP3   OH212587   6.178   3.565   2.784
 4237TIP3    H112588   6.129   3.557   2.866
 4237TIP3    H212589   6.151   3.650   2.749
 4238TIP3   OH212590   5.836   3.688   1.333
 4238TIP3    H112591   5.802   3.663   1.247
 4238TIP3    H212592   5.912   3.743   1.314
 4239TIP3   OH212593   5.548   3.064   1.640
 4239TIP3    H112594   5.518   3.066   1.731
 4239TIP3    H212595   5.511   2.983   1.604
 4240TIP3   OH212596   5.332   3.533   2.685
 4240TIP3    H112597   5.288   3.554   2.768
 4240TIP3    H212598   5.320   3.612   2.632
 4241TIP3   OH212599   5.216   3.416   2.199
 4241TIP3    H112600   5.126   3.393   2.219
 4241TIP3    H212601   5.232   3.377   2.113
 4242TIP3   OH212602   5.709   3.505   1.925
 4242TIP3    H112603   5.655   3.575   1.888
 4242TIP3    H212604   5.763   3.475   1.852
 4243TIP3   OH212605   5.882   3.782   3.015
 4243TIP3    H112606   5.858   3.712   3.076
 4243TIP3    H212607   5.973   3.804   3.037
 4244TIP3   OH212608   5.866   3.531   2.165
 4244TIP3    H112609   5.806   3.566   2.099
 4244TIP3    H212610   5.899   3.450   2.126
 4245TIP3   OH212611   5.153   3.561   2.897
 4245TIP3    H112612   5.184   3.626   2.960
 4245TIP3    H212613   5.143   3.481   2.949
 4246TIP3   OH212614   5.202   3.039   1.606
 4246TIP3    H112615   5.197   3.035   1.702
 4246TIP3    H212616   5.126   3.091   1.581
 4247TIP3   OH212617   4.747   3.083   2.475
 4247TIP3    H112618   4.820   3.115   2.528
 4247TIP3    H212619   4.789   3.051   2.395
 4248TIP3   OH212620   4.721   3.068   1.993
 4248TIP3    H112621   4.768   3.103   1.917
 4248TIP3    H212622   4.660   3.137   2.017
 4249TIP3   OH212623   5.877   3.777   2.590
 4249TIP3    H112624   5.910   3.708   2.532
 4249TIP3    H212625   5.848   3.730   2.668
 4250TIP3   OH212626   5.544   3.239   2.264
 4250TIP3    H112627   5.461   3.238   2.312
 4250TIP3    H212628   5.611   3.242   2.331
 4251TIP3   OH212629   4.979   3.295   2.269
 4251TIP3    H112630   4.887   3.304   2.243
 4251TIP3    H212631   5.001   3.205   2.247
 4252TIP3   OH212632   5.251   3.291   1.957
 4252TIP3    H112633   5.343   3.309   1.936
 4252TIP3    H212634   5.204   3.315   1.877
 4253TIP3   OH212635   6.036   3.314   2.460
 4253TIP3    H112636   6.011   3.328   2.551
 4253TIP3    H212637   5.969   3.254   2.426
 4254TIP3   OH212638   5.091   3.324   1.736
 4254TIP3    H112639   5.016   3.282   1.693
 4254TIP3    H212640   5.142   3.360   1.663
 4255TIP3   OH212641   6.206   5.007   2.681
 4255TIP3    H112642   6.203   5.029   2.588
 4255TIP3    H212643   6.283   5.053   2.714
 4256TIP3   OH212644   5.166   4.116   3.108
 4256TIP3    H112645   5.247   4.143   3.152
 4256TIP3    H212646   5.100   4.115   3.177
 4257TIP3   OH212647   5.629   3.566   2.360
 4257TIP3    H112648   5.703   3.528   2.312
 4257TIP3    H212649   5.636   3.529   2.448
 4258TIP3   OH212650   5.152   3.054   2.237
 4258TIP3    H112651   5.118   2.978   2.284
 4258TIP3    H212652   5.203   3.018   2.165
 4259TIP3   OH212653   5.605   3.467   2.652
 4259TIP3    H112654   5.517   3.503   2.664
 4259TIP3    H212655   5.662   3.526   2.701
 4260TIP3   OH212656   5.342   3.855   1.747
 4260TIP3    H112657   5.272   3.791   1.732
 4260TIP3    H212658   5.325   3.890   1.834
 4261TIP3   OH212659   6.243   4.092   2.373
 4261TIP3    H112660   6.266   4.142   2.294
 4261TIP3    H212661   6.159   4.051   2.352
 4262TIP3   OH212662   5.798   3.173   1.598
 4262TIP3    H112663   5.705   3.154   1.612
 4262TIP3    H212664   5.809   3.263   1.629
 4263TIP3   OH212665   5.747   4.176   2.742
 4263TIP3    H112666   5.762   4.144   2.831
 4263TIP3    H212667   5.702   4.260   2.754
 4264TIP3   OH212668   5.872   3.415   1.707
 4264TIP3    H112669   5.965   3.421   1.726
 4264TIP3    H212670   5.852   3.495   1.659
 4265TIP3   OH212671   5.035   3.876   2.420
 4265TIP3    H112672   5.072   3.849   2.336
 4265TIP3    H212673   5.074   3.816   2.484
 4266TIP3   OH212674   5.483   4.006   1.565
 4266TIP3    H112675   5.440   4.091   1.569
 4266TIP3    H212676   5.433   3.951   1.624
 4267TIP3   OH212677   4.914   3.798   3.035
 4267TIP3    H112678   4.938   3.786   3.127
 4267TIP3    H212679   4.846   3.732   3.019
 4268TIP3   OH212680   5.637   3.927   3.029
 4268TIP3    H112681   5.583   3.852   3.004
 4268TIP3    H212682   5.726   3.891   3.034
 4269TIP3   OH212683   5.902   4.439   2.637
 4269TIP3    H112684   5.807   4.429   2.648
 4269TIP3    H212685   5.929   4.488   2.715
 4270TIP3   OH212686   6.311   3.505   1.542
 4270TIP3    H112687   6.251   3.458   1.484
 4270TIP3    H212688   6.311   3.595   1.508
 4271TIP3   OH212689   6.529   4.362   2.624
 4271TIP3    H112690   6.434   4.359   2.620
 4271TIP3    H212691   6.557   4.333   2.537
 4272TIP3   OH212692   6.013   4.324   1.452
 4272TIP3    H112693   5.985   4.261   1.519
 4272TIP3    H212694   6.022   4.272   1.372
 4273TIP3   OH212695   6.007   3.953   2.290
 4273TIP3    H112696   5.915   3.930   2.307
 4273TIP3    H212697   6.043   3.875   2.247
 4274TIP3   OH212698   5.133   4.181   2.040
 4274TIP3    H112699   5.134   4.263   1.990
 4274TIP3    H212700   5.040   4.166   2.059
 4275TIP3   OH212701   4.697   3.488   1.749
 4275TIP3    H112702   4.744   3.569   1.767
 4275TIP3    H212703   4.621   3.490   1.807
 4276TIP3   OH212704   5.274   3.949   1.991
 4276TIP3    H112705   5.239   4.037   2.005
 4276TIP3    H212706   5.240   3.897   2.063
 4277TIP3   OH212707   5.406   4.527   2.515
 4277TIP3    H112708   5.444   4.598   2.464
 4277TIP3    H212709   5.479   4.490   2.564
 4278TIP3   OH212710   5.055   4.421   1.898
 4278TIP3    H112711   4.970   4.426   1.942
 4278TIP3    H212712   5.087   4.511   1.900
 4279TIP3   OH212713   5.795   4.158   2.475
 4279TIP3    H112714   5.782   4.160   2.570
 4279TIP3    H212715   5.874   4.106   2.462
 4280TIP3   OH212716   5.766   4.050   1.357
 4280TIP3    H112717   5.820   4.026   1.432
 4280TIP3    H212718   5.677   4.028   1.383
 4281TIP3   OH212719   6.040   4.694   2.523
 4281TIP3    H112720   5.965   4.636   2.519
 4281TIP3    H212721   6.026   4.757   2.452
 4282TIP3   OH212722   6.106   4.535   1.169
 4282TIP3    H112723   6.150   4.614   1.136
 4282TIP3    H212724   6.024   4.568   1.208
 4283TIP3   OH212725   5.126   3.301   3.043
 4283TIP3    H112726   5.032   3.309   3.056
 4283TIP3    H212727   5.156   3.244   3.114
 4284TIP3   OH212728   5.929   3.980   1.569
 4284TIP3    H112729   5.915   3.920   1.643
 4284TIP3    H212730   6.024   3.984   1.559
 4285TIP3   OH212731   4.846   4.388   2.674
 4285TIP3    H112732   4.895   4.312   2.707
 4285TIP3    H212733   4.868   4.459   2.733
 4286TIP3   OH212734   5.135   4.030   1.355
 4286TIP3    H112735   5.147   3.940   1.326
 4286TIP3    H212736   5.116   4.023   1.449
 4287TIP3   OH212737   5.082   4.039   1.626
 4287TIP3    H112738   5.147   4.011   1.690
 4287TIP3    H212739   5.083   4.135   1.632
 4288TIP3   OH212740   4.814   3.735   1.830
 4288TIP3    H112741   4.749   3.774   1.889
 4288TIP3    H212742   4.828   3.801   1.762
 4289TIP3   OH212743   5.970   3.361   2.718
 4289TIP3    H112744   6.038   3.408   2.766
 4289TIP3    H212745   5.949   3.286   2.773
 4290TIP3   OH212746   5.846   3.121   1.884
 4290TIP3    H112747   5.830   3.145   1.793
 4290TIP3    H212748   5.883   3.200   1.924
 4291TIP3   OH212749   5.343   4.238   1.574
 4291TIP3    H112750   5.258   4.259   1.613
 4291TIP3    H212751   5.362   4.312   1.515
 4292TIP3   OH212752   5.536   3.299   1.991
 4292TIP3    H112753   5.597   3.370   1.973
 4292TIP3    H212754   5.537   3.291   2.086
 4293TIP3   OH212755   5.806   3.619   2.799
 4293TIP3    H112756   5.818   3.678   2.874
 4293TIP3    H212757   5.858   3.542   2.821
 4294TIP3   OH212758   5.679   3.029   2.093
 4294TIP3    H112759   5.669   3.103   2.153
 4294TIP3    H212760   5.737   3.063   2.024
 4295TIP3   OH212761   5.087   4.312   1.644
 4295TIP3    H112762   5.058   4.379   1.581
 4295TIP3    H212763   5.071   4.352   1.729
 4296TIP3   OH212764   5.191   3.026   1.882
 4296TIP3    H112765   5.184   3.114   1.918
 4296TIP3    H212766   5.284   3.004   1.889
 4297TIP3   OH212767   6.442   3.514   2.776
 4297TIP3    H112768   6.347   3.517   2.789
 4297TIP3    H212769   6.453   3.478   2.688
 4298TIP3   OH212770   6.094   3.710   2.166
 4298TIP3    H112771   6.017   3.655   2.180
 4298TIP3    H212772   6.165   3.666   2.213
 4299TIP3   OH212773   4.807   3.941   1.636
 4299TIP3    H112774   4.865   4.017   1.648
 4299TIP3    H212775   4.852   3.889   1.569
 4300TIP3   OH212776   4.750   3.219   1.767
 4300TIP3    H112777   4.751   3.314   1.764
 4300TIP3    H212778   4.664   3.194   1.732
 4301TIP3   OH212779   6.063   4.669   2.113
 4301TIP3    H112780   6.018   4.713   2.042
 4301TIP3    H212781   6.156   4.685   2.097
 4302TIP3   OH212782   5.139   2.935   2.643
 4302TIP3    H112783   5.107   2.904   2.558
 4302TIP3    H212784   5.128   2.859   2.700
 4303TIP3   OH212785   4.674   4.151   2.023
 4303TIP3    H112786   4.607   4.184   2.083
 4303TIP3    H212787   4.652   4.192   1.939
 4304TIP3   OH212788   4.835   4.694   3.095
 4304TIP3    H112789   4.918   4.696   3.141
 4304TIP3    H212790   4.810   4.602   3.093
 4305TIP3   OH212791   5.323   4.663   3.134
 4305TIP3    H112792   5.413   4.632   3.146
 4305TIP3    H212793   5.288   4.607   3.065
 4306TIP3   OH212794   5.297   4.234   1.268
 4306TIP3    H112795   5.238   4.169   1.306
 4306TIP3    H212796   5.372   4.183   1.236
 4307TIP3   OH212797   5.951   4.570   2.877
 4307TIP3    H112798   5.941   4.499   2.940
 4307TIP3    H212799   6.031   4.615   2.903
 4308TIP3   OH212800   5.735   4.277   1.179
 4308TIP3    H112801   5.776   4.214   1.238
 4308TIP3    H212802   5.791   4.277   1.101
 4309TIP3   OH212803   4.963   4.101   3.294
 4309TIP3    H112804   4.980   4.007   3.302
 4309TIP3    H212805   4.877   4.105   3.252
 4310TIP3   OH212806   4.945   3.754   1.487
 4310TIP3    H112807   4.994   3.722   1.562
 4310TIP3    H212808   5.010   3.760   1.416
 4311TIP3   OH212809   5.573   4.193   3.067
 4311TIP3    H112810   5.529   4.205   2.983
 4311TIP3    H212811   5.605   4.103   3.065
 4312TIP3   OH212812   5.452   3.950   1.296
 4312TIP3    H112813   5.452   3.967   1.390
 4312TIP3    H212814   5.448   3.855   1.289
 4313TIP3   OH212815   6.065   4.194   2.672
 4313TIP3    H112816   6.138   4.241   2.631
 4313TIP3    H212817   5.991   4.254   2.666
 4314TIP3   OH212818   5.090   3.830   3.277
 4314TIP3    H112819   5.170   3.784   3.253
 4314TIP3    H212820   5.109   3.867   3.364
 4315TIP3   OH212821   5.151   3.656   1.712
 4315TIP3    H112822   5.121   3.619   1.795
 4315TIP3    H212823   5.184   3.580   1.663
 4316TIP3   OH212824   5.418   3.717   2.932
 4316TIP3    H112825   5.346   3.779   2.943
 4316TIP3    H212826   5.468   3.751   2.858
 4317TIP3   OH212827   5.250   3.448   1.549
 4317TIP3    H112828   5.221   3.454   1.458
 4317TIP3    H212829   5.345   3.457   1.545
 4318TIP3   OH212830   5.935   4.126   3.067
 4318TIP3    H112831   6.016   4.099   3.026
 4318TIP3    H212832   5.927   4.070   3.144
 4319TIP3   OH212833   6.073   3.784   1.208
 4319TIP3    H112834   6.050   3.735   1.130
 4319TIP3    H212835   6.042   3.873   1.192
 4320TIP3   OH212836   5.543   3.508   3.062
 4320TIP3    H112837   5.542   3.429   3.008
 4320TIP3    H212838   5.499   3.574   3.010
 4321TIP3   OH212839   5.544   3.292   2.867
 4321TIP3    H112840   5.571   3.338   2.788
 4321TIP3    H212841   5.451   3.273   2.853
 4322TIP3   OH212842   5.568   3.823   2.733
 4322TIP3    H112843   5.655   3.841   2.697
 4322TIP3    H212844   5.514   3.894   2.700
 4323TIP3   OH212845   6.159   3.783   3.112
 4323TIP3    H112846   6.215   3.710   3.139
 4323TIP3    H212847   6.219   3.855   3.096
 4324TIP3   OH212848   6.198   4.052   2.859
 4324TIP3    H112849   6.136   4.102   2.805
 4324TIP3    H212850   6.283   4.071   2.821
 4325TIP3   OH212851   5.395   3.629   3.272
 4325TIP3    H112852   5.343   3.554   3.301
 4325TIP3    H212853   5.448   3.595   3.199
 4326TIP3   OH212854   5.674   3.059   2.938
 4326TIP3    H112855   5.629   3.141   2.916
 4326TIP3    H212856   5.606   2.992   2.927
 4327TIP3   OH212857   5.803   3.563   3.157
 4327TIP3    H112858   5.798   3.566   3.253
 4327TIP3    H212859   5.715   3.538   3.130
 4328TIP3   OH212860   6.037   3.500   3.007
 4328TIP3    H112861   5.964   3.515   3.067
 4328TIP3    H212862   6.111   3.481   3.065
 4329TIP3   OH212863   6.278   3.453   3.161
 4329TIP3    H112864   6.283   3.360   3.181
 4329TIP3    H212865   6.267   3.496   3.246
 4330TIP3   OH212866   5.257   3.400   3.350
 4330TIP3    H112867   5.269   3.313   3.313
 4330TIP3    H212868   5.293   3.394   3.439
 4331TIP3   OH212869   5.770   3.064   3.195
 4331TIP3    H112870   5.838   2.998   3.189
 4331TIP3    H212871   5.728   3.064   3.109
 4332TIP3   OH212872   5.830   3.283   3.358
 4332TIP3    H112873   5.812   3.215   3.293
 4332TIP3    H212874   5.756   3.343   3.351
 4333TIP3   OH212875   5.058   4.512   1.453
 4333TIP3    H112876   5.152   4.508   1.438
 4333TIP3    H212877   5.024   4.562   1.378
 4334TIP3   OH212878   4.538   3.894   1.670
 4334TIP3    H112879   4.630   3.918   1.660
 4334TIP3    H212880   4.531   3.807   1.631
 4335TIP3   OH212881   4.455   4.503   2.082
 4335TIP3    H112882   4.384   4.449   2.047
 4335TIP3    H212883   4.495   4.449   2.150
 4336TIP3   OH212884   4.592   4.357   2.272
 4336TIP3    H112885   4.572   4.285   2.333
 4336TIP3    H212886   4.638   4.422   2.326
 4337TIP3   OH212887   6.316   4.758   2.072
 4337TIP3    H112888   6.338   4.790   2.160
 4337TIP3    H212889   6.374   4.808   2.013
 4338TIP3   OH212890   6.344   4.776   2.354
 4338TIP3    H112891   6.300   4.692   2.348
 4338TIP3    H212892   6.419   4.760   2.412
 4339TIP3   OH212893   6.389   4.458   2.928
 4339TIP3    H112894   6.318   4.463   2.991
 4339TIP3    H212895   6.431   4.544   2.932
 4340TIP3   OH212896   6.210   3.969   1.548
 4340TIP3    H112897   6.276   4.033   1.520
 4340TIP3    H212898   6.248   3.929   1.626
 4341TIP3   OH212899   6.334   3.836   1.752
 4341TIP3    H112900   6.269   3.795   1.809
 4341TIP3    H212901   6.397   3.875   1.812
 4342TIP3   OH212902   6.388   4.228   2.182
 4342TIP3    H112903   6.441   4.165   2.133
 4342TIP3    H212904   6.378   4.302   2.122
 4343TIP3   OH212905   6.217   4.529   2.378
 4343TIP3    H112906   6.149   4.571   2.430
 4343TIP3    H212907   6.170   4.481   2.310
 4344TIP3   OH212908   6.270   3.745   1.397
 4344TIP3    H112909   6.202   3.746   1.330
 4344TIP3    H212910   6.248   3.818   1.455
 4345TIP3   OH212911   6.146   3.413   1.348
 4345TIP3    H112912   6.097   3.458   1.278
 4345TIP3    H212913   6.120   3.322   1.340
 4346TIP3   OH212914   6.149   3.691   1.899
 4346TIP3    H112915   6.156   3.596   1.893
 4346TIP3    H212916   6.135   3.709   1.992
 4347TIP3   OH212917   4.778   3.763   2.643
 4347TIP3    H112918   4.772   3.736   2.552
 4347TIP3    H212919   4.872   3.766   2.661
 4348TIP3   OH212920   6.440   4.118   2.752
 4348TIP3    H112921   6.510   4.052   2.744
 4348TIP3    H212922   6.466   4.188   2.692
 4349TIP3   OH212923   6.625   3.921   2.770
 4349TIP3    H112924   6.549   3.877   2.808
 4349TIP3    H212925   6.698   3.860   2.784
 4350TIP3   OH212926   6.088   3.148   1.335
 4350TIP3    H112927   6.161   3.122   1.391
 4350TIP3    H212928   6.015   3.094   1.364
 4351TIP3   OH212929   6.146   3.406   1.792
 4351TIP3    H112930   6.183   3.319   1.809
 4351TIP3    H212931   6.202   3.443   1.724
 4352TIP3   OH212932   6.310   3.584   2.288
 4352TIP3    H112933   6.392   3.608   2.247
 4352TIP3    H212934   6.316   3.619   2.377
 4353TIP3   OH212935   6.373   3.728   2.519
 4353TIP3    H112936   6.298   3.758   2.570
 4353TIP3    H212937   6.406   3.807   2.475
 4354TIP3   OH212938   4.991   3.448   3.315
 4354TIP3    H112939   5.086   3.449   3.317
 4354TIP3    H212940   4.966   3.368   3.360
 4355TIP3   OH212941   6.829   3.318   3.074
 4355TIP3    H112942   6.885   3.253   3.032
 4355TIP3    H212943   6.798   3.373   3.002
 4356TIP3   OH212944   6.254   3.156   1.831
 4356TIP3    H112945   6.302   3.144   1.912
 4356TIP3    H212946   6.193   3.083   1.828
 4357TIP3   OH212947   4.956   3.144   2.648
 4357TIP3    H112948   5.016   3.070   2.659
 4357TIP3    H212949   5.013   3.221   2.643
 4358TIP3   OH212950   4.758   3.419   2.723
 4358TIP3    H112951   4.805   3.413   2.639
 4358TIP3    H212952   4.781   3.506   2.757
 4359TIP3   OH212953   6.696   3.457   2.883
 4359TIP3    H112954   6.614   3.500   2.909
 4359TIP3    H212955   6.669   3.388   2.823
 4360TIP3   OH212956   6.335   3.096   1.460
 4360TIP3    H112957   6.375   3.023   1.413
 4360TIP3    H212958   6.401   3.165   1.457
 4361TIP3   OH212959   4.738   2.923   2.221
 4361TIP3    H112960   4.647   2.920   2.250
 4361TIP3    H212961   4.737   2.980   2.145
 4362TIP3   OH212962   5.901   4.624   1.728
 4362TIP3    H112963   5.952   4.612   1.648
 4362TIP3    H212964   5.949   4.693   1.776
 4363TIP3   OH212965   4.957   3.000   3.037
 4363TIP3    H112966   4.910   2.997   3.121
 4363TIP3    H212967   4.894   3.040   2.976
 4364TIP3   OH212968   4.999   4.428   3.117
 4364TIP3    H112969   4.909   4.402   3.097
 4364TIP3    H212970   5.009   4.411   3.210
 4365TIP3   OH212971   5.178   4.463   2.661
 4365TIP3    H112972   5.125   4.534   2.626
 4365TIP3    H212973   5.264   4.474   2.619
 4366TIP3   OH212974   5.629   4.707   2.807
 4366TIP3    H112975   5.668   4.711   2.894
 4366TIP3    H212976   5.689   4.755   2.751
 4367TIP3   OH212977   5.804   4.858   2.661
 4367TIP3    H112978   5.871   4.805   2.616
 4367TIP3    H212979   5.854   4.915   2.719
 4368TIP3   OH212980   6.596   3.219   2.758
 4368TIP3    H112981   6.506   3.219   2.725
 4368TIP3    H212982   6.626   3.129   2.746
 4369TIP3   OH212983   4.854   4.720   2.687
 4369TIP3    H112984   4.767   4.750   2.660
 4369TIP3    H212985   4.864   4.755   2.775
 4370TIP3   OH212986   5.089   4.699   2.543
 4370TIP3    H112987   5.006   4.710   2.589
 4370TIP3    H212988   5.071   4.731   2.454
 4371TIP3   OH212989   5.517   4.729   2.340
 4371TIP3    H112990   5.447   4.746   2.276
 4371TIP3    H212991   5.530   4.814   2.383
 4372TIP3   OH212992   5.784   4.668   2.391
 4372TIP3    H112993   5.690   4.682   2.374
 4372TIP3    H212994   5.827   4.744   2.351
 4373TIP3   OH212995   5.994   4.859   2.307
 4373TIP3    H112996   5.980   4.943   2.262
 4373TIP3    H212997   6.019   4.798   2.237
 4374TIP3   OH212998   4.770   4.512   2.431
 4374TIP3    H112999   4.790   4.489   2.521
 4374TIP3    H213000   4.838   4.469   2.379
 4375TIP3   OH213001   4.962   4.382   2.287
 4375TIP3    H113002   4.974   4.301   2.336
 4375TIP3    H213003   5.049   4.421   2.283
 4376TIP3   OH213004   5.228   4.478   2.291
 4376TIP3    H113005   5.256   4.387   2.278
 4376TIP3    H213006   5.266   4.504   2.375
 4377TIP3   OH213007   5.802   3.134   2.377
 4377TIP3    H113008   5.757   3.069   2.431
 4377TIP3    H213009   5.873   3.086   2.335
 4378TIP3   OH213010   6.325   3.013   2.280
 4378TIP3    H113011   6.361   3.066   2.209
 4378TIP3    H213012   6.231   3.032   2.279
 4379TIP3   OH213013   6.422   3.117   2.045
 4379TIP3    H113014   6.493   3.065   2.007
 4379TIP3    H213015   6.451   3.208   2.033
 4380TIP3   OH213016   5.049   2.841   2.394
 4380TIP3    H113017   4.958   2.812   2.396
 4380TIP3    H213018   5.100   2.760   2.391
 4381TIP3   OH213019   4.836   2.716   2.042
 4381TIP3    H113020   4.865   2.772   1.970
 4381TIP3    H213021   4.806   2.777   2.109
 4382TIP3   OH213022   5.495   2.877   2.274
 4382TIP3    H113023   5.552   2.928   2.216
 4382TIP3    H213024   5.509   2.914   2.361
 4383TIP3   OH213025   6.043   3.020   2.259
 4383TIP3    H113026   6.036   2.987   2.170
 4383TIP3    H213027   6.028   2.943   2.314
 4384TIP3   OH213028   6.068   2.944   1.821
 4384TIP3    H113029   5.985   2.990   1.833
 4384TIP3    H213030   6.056   2.861   1.867
 4385TIP3   OH213031   4.553   4.284   1.820
 4385TIP3    H113032   4.470   4.250   1.788
 4385TIP3    H213033   4.545   4.379   1.812
 4386TIP3   OH213034   4.955   2.874   1.805
 4386TIP3    H113035   5.001   2.811   1.749
 4386TIP3    H213036   5.024   2.928   1.842
 4387TIP3   OH213037   5.469   3.050   1.906
 4387TIP3    H113038   5.525   2.999   1.965
 4387TIP3    H213039   5.486   3.141   1.929
 4388TIP3   OH213040   5.327   4.473   1.401
 4388TIP3    H113041   5.414   4.498   1.369
 4388TIP3    H213042   5.302   4.399   1.345
 4389TIP3   OH213043   6.044   4.590   1.493
 4389TIP3    H113044   6.037   4.495   1.485
 4389TIP3    H213045   5.996   4.625   1.418
 4390TIP3   OH213046   5.259   3.120   3.283
 4390TIP3    H113047   5.221   3.054   3.342
 4390TIP3    H213048   5.351   3.125   3.309
 4391TIP3   OH213049   5.504   3.120   3.404
 4391TIP3    H113050   5.590   3.104   3.364
 4391TIP3    H213051   5.495   3.050   3.468
 4392TIP3   OH213052   4.629   4.312   1.462
 4392TIP3    H113053   4.622   4.339   1.553
 4392TIP3    H213054   4.716   4.272   1.455
 4393TIP3   OH213055   6.332   3.179   3.193
 4393TIP3    H113056   6.349   3.152   3.283
 4393TIP3    H213057   6.418   3.179   3.151
 4394TIP3   OH213058   6.269   4.738   2.684
 4394TIP3    H113059   6.193   4.703   2.636
 4394TIP3    H213060   6.253   4.832   2.688
 4395TIP3   OH213061   7.535   4.108   1.450
 4395TIP3    H113062   7.511   4.199   1.433
 4395TIP3    H213063   7.459   4.058   1.420
 4396TIP3   OH213064   7.536   4.106   1.832
 4396TIP3    H113065   7.567   4.080   1.919
 4396TIP3    H213066   7.494   4.027   1.797
 4397TIP3   OH213067   6.838   4.003   2.196
 4397TIP3    H113068   6.865   3.936   2.259
 4397TIP3    H213069   6.911   4.064   2.193
 4398TIP3   OH213070   7.779   4.409   1.515
 4398TIP3    H113071   7.766   4.340   1.581
 4398TIP3    H213072   7.807   4.485   1.566
 4399TIP3   OH213073   6.808   4.411   1.921
 4399TIP3    H113074   6.796   4.316   1.925
 4399TIP3    H213075   6.903   4.423   1.918
 4400TIP3   OH213076   6.512   3.617   1.706
 4400TIP3    H113077   6.468   3.701   1.724
 4400TIP3    H213078   6.443   3.561   1.672
 4401TIP3   OH213079   6.575   3.902   1.877
 4401TIP3    H113080   6.620   3.827   1.915
 4401TIP3    H213081   6.634   3.934   1.809
 4402TIP3   OH213082   7.428   4.869   1.530
 4402TIP3    H113083   7.474   4.801   1.481
 4402TIP3    H213084   7.423   4.835   1.619
 4403TIP3   OH213085   7.338   4.333   1.879
 4403TIP3    H113086   7.371   4.256   1.832
 4403TIP3    H213087   7.417   4.381   1.905
 4404TIP3   OH213088   8.341   3.658   1.874
 4404TIP3    H113089   8.373   3.736   1.920
 4404TIP3    H213090   8.370   3.670   1.784
 4405TIP3   OH213091   7.746   3.834   1.912
 4405TIP3    H113092   7.789   3.752   1.935
 4405TIP3    H213093   7.716   3.821   1.822
 4406TIP3   OH213094   7.082   3.494   1.875
 4406TIP3    H113095   7.065   3.568   1.817
 4406TIP3    H213096   7.036   3.421   1.835
 4407TIP3   OH213097   7.781   3.585   1.500
 4407TIP3    H113098   7.848   3.569   1.567
 4407TIP3    H213099   7.830   3.621   1.426
 4408TIP3   OH213100   6.721   3.696   1.983
 4408TIP3    H113101   6.800   3.679   2.034
 4408TIP3    H213102   6.730   3.642   1.905
 4409TIP3   OH213103   7.161   3.893   1.775
 4409TIP3    H113104   7.253   3.870   1.790
 4409TIP3    H213105   7.121   3.811   1.745
 4410TIP3   OH213106   8.417   3.862   2.048
 4410TIP3    H113107   8.336   3.908   2.028
 4410TIP3    H213108   8.436   3.885   2.139
 4411TIP3   OH213109   7.079   3.479   2.312
 4411TIP3    H113110   7.022   3.516   2.244
 4411TIP3    H213111   7.031   3.494   2.394
 4412TIP3   OH213112   7.427   4.330   1.321
 4412TIP3    H113113   7.386   4.309   1.237
 4412TIP3    H213114   7.387   4.413   1.347
 4413TIP3   OH213115   7.187   4.255   2.108
 4413TIP3    H113116   7.126   4.317   2.147
 4413TIP3    H213117   7.229   4.304   2.037
 4414TIP3   OH213118   7.990   3.588   1.673
 4414TIP3    H113119   7.981   3.539   1.754
 4414TIP3    H213120   8.044   3.664   1.696
 4415TIP3   OH213121   6.955   3.594   2.096
 4415TIP3    H113122   7.013   3.666   2.122
 4415TIP3    H213123   7.000   3.552   2.022
 4416TIP3   OH213124   7.012   4.448   2.205
 4416TIP3    H113125   6.992   4.533   2.166
 4416TIP3    H213126   6.937   4.429   2.262
 4417TIP3   OH213127   6.413   4.140   1.441
 4417TIP3    H113128   6.368   4.168   1.361
 4417TIP3    H213129   6.443   4.221   1.481
 4418TIP3   OH213130   7.848   4.653   1.681
 4418TIP3    H113131   7.761   4.643   1.721
 4418TIP3    H213132   7.843   4.738   1.636
 4419TIP3   OH213133   8.140   3.555   2.043
 4419TIP3    H113134   8.053   3.584   2.014
 4419TIP3    H213135   8.199   3.586   1.974
 4420TIP3   OH213136   7.436   3.197   2.026
 4420TIP3    H113137   7.426   3.103   2.042
 4420TIP3    H213138   7.362   3.237   2.071
 4421TIP3   OH213139   7.555   4.699   1.354
 4421TIP3    H113140   7.600   4.616   1.335
 4421TIP3    H213141   7.611   4.766   1.316
 4422TIP3   OH213142   7.694   4.482   1.264
 4422TIP3    H113143   7.657   4.405   1.221
 4422TIP3    H213144   7.730   4.449   1.346
 4423TIP3   OH213145   8.076   4.566   2.023
 4423TIP3    H113146   8.065   4.489   1.967
 4423TIP3    H213147   8.059   4.641   1.965
 4424TIP3   OH213148   7.365   3.959   1.279
 4424TIP3    H113149   7.288   4.011   1.261
 4424TIP3    H213150   7.414   3.958   1.197
 4425TIP3   OH213151   7.329   3.744   0.997
 4425TIP3    H113152   7.391   3.796   1.049
 4425TIP3    H213153   7.383   3.681   0.951
 4426TIP3   OH213154   8.271   4.206   1.868
 4426TIP3    H113155   8.189   4.254   1.877
 4426TIP3    H213156   8.301   4.225   1.780
 4427TIP3   OH213157   7.715   4.041   1.257
 4427TIP3    H113158   7.660   4.066   1.331
 4427TIP3    H213159   7.799   4.016   1.297
 4428TIP3   OH213160   7.948   4.084   2.165
 4428TIP3    H113161   7.948   4.166   2.215
 4428TIP3    H213162   7.864   4.085   2.119
 4429TIP3   OH213163   6.948   4.038   1.669
 4429TIP3    H113164   6.907   3.983   1.603
 4429TIP3    H213165   7.024   3.988   1.699
 4430TIP3   OH213166   7.078   4.451   1.818
 4430TIP3    H113167   7.056   4.409   1.735
 4430TIP3    H213168   7.167   4.420   1.838
 4431TIP3   OH213169   7.087   4.011   2.023
 4431TIP3    H113170   7.118   3.992   1.935
 4431TIP3    H213171   7.127   4.096   2.044
 4432TIP3   OH213172   7.609   4.649   1.802
 4432TIP3    H113173   7.595   4.728   1.854
 4432TIP3    H213174   7.594   4.577   1.864
 4433TIP3   OH213175   7.218   4.568   2.348
 4433TIP3    H113176   7.163   4.630   2.395
 4433TIP3    H213177   7.157   4.514   2.299
 4434TIP3   OH213178   7.558   3.902   1.079
 4434TIP3    H113179   7.614   3.958   1.132
 4434TIP3    H213180   7.581   3.923   0.989
 4435TIP3   OH213181   6.972   4.126   2.448
 4435TIP3    H113182   6.981   4.211   2.493
 4435TIP3    H213183   6.880   4.104   2.459
 4436TIP3   OH213184   7.298   4.582   1.354
 4436TIP3    H113185   7.377   4.633   1.372
 4436TIP3    H213186   7.237   4.644   1.315
 4437TIP3   OH213187   7.014   4.736   2.435
 4437TIP3    H113188   6.980   4.735   2.345
 4437TIP3    H213189   6.938   4.715   2.489
 4438TIP3   OH213190   8.069   3.143   1.127
 4438TIP3    H113191   7.991   3.161   1.179
 4438TIP3    H213192   8.085   3.224   1.078
 4439TIP3   OH213193   6.813   3.882   1.471
 4439TIP3    H113194   6.749   3.927   1.417
 4439TIP3    H213195   6.773   3.798   1.491
 4440TIP3   OH213196   7.867   4.508   0.675
 4440TIP3    H113197   7.873   4.602   0.662
 4440TIP3    H213198   7.957   4.477   0.664
 4441TIP3   OH213199   6.595   4.265   2.381
 4441TIP3    H113200   6.529   4.244   2.315
 4441TIP3    H213201   6.631   4.180   2.407
 4442TIP3   OH213202   6.450   4.461   2.015
 4442TIP3    H113203   6.545   4.455   2.007
 4442TIP3    H213204   6.435   4.539   2.068
 4443TIP3   OH213205   8.312   4.909   2.072
 4443TIP3    H113206   8.313   4.814   2.083
 4443TIP3    H213207   8.232   4.937   2.115
 4444TIP3   OH213208   7.418   4.698   2.207
 4444TIP3    H113209   7.420   4.789   2.236
 4444TIP3    H213210   7.349   4.657   2.259
 4445TIP3   OH213211   7.176   4.827   1.158
 4445TIP3    H113212   7.140   4.803   1.073
 4445TIP3    H213213   7.145   4.916   1.172
 4446TIP3   OH213214   6.617   4.673   1.542
 4446TIP3    H113215   6.667   4.667   1.624
 4446TIP3    H213216   6.556   4.600   1.547
 4447TIP3   OH213217   7.390   4.732   0.798
 4447TIP3    H113218   7.444   4.661   0.763
 4447TIP3    H213219   7.416   4.738   0.890
 4448TIP3   OH213220   7.429   4.774   1.072
 4448TIP3    H113221   7.342   4.785   1.110
 4448TIP3    H213222   7.481   4.734   1.141
 4449TIP3   OH213223   8.203   4.041   2.344
 4449TIP3    H113224   8.123   4.056   2.293
 4449TIP3    H213225   8.220   3.948   2.335
 4450TIP3   OH213226   6.800   4.448   2.372
 4450TIP3    H113227   6.849   4.434   2.453
 4450TIP3    H213228   6.726   4.387   2.378
 4451TIP3   OH213229   7.196   3.274   2.155
 4451TIP3    H113230   7.110   3.241   2.128
 4451TIP3    H213231   7.177   3.356   2.200
 4452TIP3   OH213232   7.733   3.388   2.350
 4452TIP3    H113233   7.800   3.361   2.412
 4452TIP3    H213234   7.650   3.368   2.395
 4453TIP3   OH213235   7.971   3.818   2.268
 4453TIP3    H113236   7.924   3.814   2.351
 4453TIP3    H213237   7.948   3.904   2.232
 4454TIP3   OH213238   7.629   3.947   0.820
 4454TIP3    H113239   7.600   3.920   0.733
 4454TIP3    H213240   7.706   4.001   0.804
 4455TIP3   OH213241   7.341   3.322   1.126
 4455TIP3    H113242   7.314   3.323   1.218
 4455TIP3    H213243   7.307   3.240   1.092
 4456TIP3   OH213244   7.129   3.790   2.174
 4456TIP3    H113245   7.081   3.809   2.255
 4456TIP3    H213246   7.116   3.868   2.120
 4457TIP3   OH213247   7.013   3.673   1.685
 4457TIP3    H113248   6.922   3.650   1.706
 4457TIP3    H213249   7.028   3.634   1.599
 4458TIP3   OH213250   7.505   3.761   1.412
 4458TIP3    H113251   7.452   3.831   1.374
 4458TIP3    H213252   7.560   3.731   1.340
 4459TIP3   OH213253   7.680   4.038   2.503
 4459TIP3    H113254   7.656   3.967   2.563
 4459TIP3    H213255   7.773   4.054   2.522
 4460TIP3   OH213256   7.661   3.787   1.652
 4460TIP3    H113257   7.602   3.822   1.584
 4460TIP3    H213258   7.696   3.707   1.614
 4461TIP3   OH213259   6.950   3.817   2.383
 4461TIP3    H113260   6.973   3.883   2.450
 4461TIP3    H213261   6.938   3.736   2.433
 4462TIP3   OH213262   6.996   3.294   1.093
 4462TIP3    H113263   6.994   3.291   1.189
 4462TIP3    H213264   6.920   3.348   1.069
 4463TIP3   OH213265   6.544   3.340   1.960
 4463TIP3    H113266   6.616   3.372   2.015
 4463TIP3    H213267   6.588   3.307   1.881
 4464TIP3   OH213268   6.517   3.323   1.479
 4464TIP3    H113269   6.565   3.359   1.404
 4464TIP3    H213270   6.456   3.393   1.504
 4465TIP3   OH213271   7.673   4.033   2.078
 4465TIP3    H113272   7.705   3.965   2.018
 4465TIP3    H213273   7.643   3.985   2.155
 4466TIP3   OH213274   7.340   3.497   1.750
 4466TIP3    H113275   7.258   3.496   1.801
 4466TIP3    H213276   7.409   3.496   1.816
 4467TIP3   OH213277   6.776   3.552   1.755
 4467TIP3    H113278   6.684   3.560   1.730
 4467TIP3    H213279   6.799   3.462   1.734
 4468TIP3   OH213280   7.046   3.548   1.444
 4468TIP3    H113281   7.139   3.564   1.426
 4468TIP3    H213282   7.002   3.572   1.363
 4469TIP3   OH213283   7.831   3.572   1.951
 4469TIP3    H113284   7.800   3.586   2.041
 4469TIP3    H213285   7.769   3.511   1.913
 4470TIP3   OH213286   6.886   3.581   1.221
 4470TIP3    H113287   6.812   3.540   1.176
 4470TIP3    H213288   6.939   3.618   1.150
 4471TIP3   OH213289   8.004   5.262   2.168
 4471TIP3    H113290   8.000   5.284   2.075
 4471TIP3    H213291   8.079   5.311   2.202
 4472TIP3   OH213292   6.962   4.372   2.593
 4472TIP3    H113293   7.041   4.402   2.638
 4472TIP3    H213294   6.895   4.370   2.662
 4473TIP3   OH213295   7.426   3.823   1.846
 4473TIP3    H113296   7.499   3.786   1.796
 4473TIP3    H213297   7.435   3.783   1.933
 4474TIP3   OH213298   6.947   3.312   1.723
 4474TIP3    H113299   6.914   3.235   1.771
 4474TIP3    H213300   7.002   3.275   1.654
 4475TIP3   OH213301   7.401   3.721   2.138
 4475TIP3    H113302   7.313   3.757   2.150
 4475TIP3    H213303   7.458   3.781   2.186
 4476TIP3   OH213304   7.137   4.112   1.232
 4476TIP3    H113305   7.066   4.049   1.219
 4476TIP3    H213306   7.122   4.147   1.320
 4477TIP3   OH213307   8.038   4.349   1.859
 4477TIP3    H113308   8.063   4.397   1.780
 4477TIP3    H213309   7.955   4.307   1.837
 4478TIP3   OH213310   7.595   3.426   1.090
 4478TIP3    H113311   7.501   3.412   1.099
 4478TIP3    H213312   7.607   3.518   1.116
 4479TIP3   OH213313   7.539   4.432   2.228
 4479TIP3    H113314   7.559   4.409   2.319
 4479TIP3    H213315   7.499   4.519   2.235
 4480TIP3   OH213316   7.668   3.672   1.195
 4480TIP3    H113317   7.762   3.677   1.212
 4480TIP3    H213318   7.649   3.751   1.144
 4481TIP3   OH213319   6.831   4.132   1.907
 4481TIP3    H113320   6.868   4.106   1.823
 4481TIP3    H213321   6.870   4.071   1.971
 4482TIP3   OH213322   7.280   4.263   1.049
 4482TIP3    H113323   7.237   4.348   1.053
 4482TIP3    H213324   7.230   4.208   1.109
 4483TIP3   OH213325   6.710   4.053   2.520
 4483TIP3    H113326   6.731   4.042   2.613
 4483TIP3    H213327   6.641   3.989   2.503
 4484TIP3   OH213328   7.436   4.166   2.539
 4484TIP3    H113329   7.375   4.110   2.492
 4484TIP3    H213330   7.523   4.136   2.512
 4485TIP3   OH213331   7.697   4.691   2.125
 4485TIP3    H113332   7.602   4.688   2.135
 4485TIP3    H213333   7.728   4.741   2.200
 4486TIP3   OH213334   8.106   3.762   1.030
 4486TIP3    H113335   8.045   3.715   0.973
 4486TIP3    H213336   8.108   3.851   0.994
 4487TIP3   OH213337   8.325   4.618   2.111
 4487TIP3    H113338   8.230   4.615   2.108
 4487TIP3    H213339   8.353   4.589   2.024
 4488TIP3   OH213340   7.808   4.580   0.941
 4488TIP3    H113341   7.785   4.507   0.999
 4488TIP3    H213342   7.823   4.538   0.856
 4489TIP3   OH213343   7.803   4.208   1.779
 4489TIP3    H113344   7.711   4.186   1.794
 4489TIP3    H213345   7.839   4.132   1.734
 4490TIP3   OH213346   6.930   4.438   1.529
 4490TIP3    H113347   6.933   4.519   1.478
 4490TIP3    H213348   6.836   4.423   1.543
 4491TIP3   OH213349   6.492   3.745   1.234
 4491TIP3    H113350   6.541   3.825   1.254
 4491TIP3    H213351   6.417   3.747   1.294
 4492TIP3   OH213352   7.069   4.204   1.477
 4492TIP3    H113353   7.037   4.293   1.492
 4492TIP3    H213354   7.036   4.153   1.550
 4493TIP3   OH213355   7.202   4.783   2.001
 4493TIP3    H113356   7.241   4.855   1.951
 4493TIP3    H213357   7.275   4.747   2.051
 4494TIP3   OH213358   6.850   4.679   1.386
 4494TIP3    H113359   6.765   4.684   1.430
 4494TIP3    H213360   6.883   4.769   1.387
 4495TIP3   OH213361   7.590   4.415   1.961
 4495TIP3    H113362   7.579   4.416   2.056
 4495TIP3    H213363   7.670   4.364   1.946
 4496TIP3   OH213364   7.562   4.300   0.847
 4496TIP3    H113365   7.617   4.280   0.923
 4496TIP3    H213366   7.472   4.284   0.878
 4497TIP3   OH213367   7.836   4.950   2.008
 4497TIP3    H113368   7.760   4.893   2.003
 4497TIP3    H213369   7.823   5.015   1.939
 4498TIP3   OH213370   7.899   4.781   0.680
 4498TIP3    H113371   7.923   4.808   0.591
 4498TIP3    H213372   7.827   4.838   0.704
 4499TIP3   OH213373   6.922   3.559   2.530
 4499TIP3    H113374   6.827   3.567   2.543
 4499TIP3    H213375   6.951   3.501   2.600
 4500TIP3   OH213376   7.725   4.241   1.061
 4500TIP3    H113377   7.713   4.177   1.132
 4500TIP3    H213378   7.819   4.242   1.046
 4501TIP3   OH213379   6.641   4.645   2.161
 4501TIP3    H113380   6.691   4.569   2.191
 4501TIP3    H213381   6.664   4.714   2.222
 4502TIP3   OH213382   6.929   4.283   0.840
 4502TIP3    H113383   6.947   4.193   0.816
 4502TIP3    H213384   6.911   4.280   0.934
 4503TIP3   OH213385   6.878   4.294   1.113
 4503TIP3    H113386   6.947   4.267   1.174
 4503TIP3    H213387   6.877   4.390   1.118
 4504TIP3   OH213388   6.609   3.990   1.317
 4504TIP3    H113389   6.545   4.032   1.376
 4504TIP3    H213390   6.627   4.057   1.251
 4505TIP3   OH213391   7.760   3.624   2.210
 4505TIP3    H113392   7.839   3.663   2.248
 4505TIP3    H213393   7.745   3.545   2.262
 4506TIP3   OH213394   7.639   3.379   1.372
 4506TIP3    H113395   7.627   3.401   1.280
 4506TIP3    H213396   7.679   3.457   1.411
 4507TIP3   OH213397   7.138   4.494   1.060
 4507TIP3    H113398   7.053   4.515   1.098
 4507TIP3    H213399   7.160   4.570   1.005
 4508TIP3   OH213400   7.330   3.557   1.477
 4508TIP3    H113401   7.393   3.626   1.458
 4508TIP3    H213402   7.334   3.547   1.572
 4509TIP3   OH213403   7.599   3.875   2.286
 4509TIP3    H113404   7.616   3.929   2.363
 4509TIP3    H213405   7.652   3.796   2.298
 4510TIP3   OH213406   7.475   3.286   1.579
 4510TIP3    H113407   7.468   3.358   1.641
 4510TIP3    H213408   7.533   3.319   1.510
 4511TIP3   OH213409   6.880   4.566   1.132
 4511TIP3    H113410   6.859   4.634   1.068
 4511TIP3    H213411   6.867   4.608   1.217
 4512TIP3   OH213412   6.988   3.283   1.368
 4512TIP3    H113413   6.981   3.371   1.405
 4512TIP3    H213414   7.080   3.260   1.376
 4513TIP3   OH213415   8.238   3.775   2.264
 4513TIP3    H113416   8.142   3.775   2.274
 4513TIP3    H213417   8.254   3.733   2.180
 4514TIP3   OH213418   7.889   3.968   1.654
 4514TIP3    H113419   7.814   3.910   1.666
 4514TIP3    H213420   7.961   3.924   1.699
 4515TIP3   OH213421   6.602   4.199   1.121
 4515TIP3    H113422   6.658   4.276   1.134
 4515TIP3    H213423   6.651   4.146   1.057
 4516TIP3   OH213424   6.546   3.475   1.252
 4516TIP3    H113425   6.548   3.571   1.250
 4516TIP3    H213426   6.458   3.452   1.223
 4517TIP3   OH213427   7.859   4.926   1.600
 4517TIP3    H113428   7.813   4.970   1.529
 4517TIP3    H213429   7.952   4.942   1.583
 4518TIP3   OH213430   6.934   3.191   2.130
 4518TIP3    H113431   6.903   3.161   2.045
 4518TIP3    H213432   6.924   3.116   2.188
 4519TIP3   OH213433   6.472   4.409   1.512
 4519TIP3    H113434   6.403   4.440   1.570
 4519TIP3    H213435   6.451   4.447   1.427
 4520TIP3   OH213436   6.631   4.950   2.582
 4520TIP3    H113437   6.715   4.953   2.628
 4520TIP3    H213438   6.608   4.857   2.580
 4521TIP3   OH213439   7.113   4.917   2.625
 4521TIP3    H113440   7.207   4.901   2.634
 4521TIP3    H213441   7.086   4.861   2.552
 4522TIP3   OH213442   7.090   4.490   0.754
 4522TIP3    H113443   7.034   4.423   0.793
 4522TIP3    H213444   7.170   4.443   0.730
 4523TIP3   OH213445   7.753   4.822   2.360
 4523TIP3    H113446   7.742   4.755   2.427
 4523TIP3    H213447   7.827   4.875   2.390
 4524TIP3   OH213448   7.528   4.530   0.671
 4524TIP3    H113449   7.579   4.474   0.729
 4524TIP3    H213450   7.579   4.534   0.590
 4525TIP3   OH213451   6.760   4.358   2.781
 4525TIP3    H113452   6.778   4.265   2.788
 4525TIP3    H213453   6.674   4.363   2.739
 4526TIP3   OH213454   6.740   4.009   0.974
 4526TIP3    H113455   6.790   3.978   1.050
 4526TIP3    H213456   6.805   4.015   0.904
 4527TIP3   OH213457   7.369   4.443   2.554
 4527TIP3    H113458   7.326   4.460   2.470
 4527TIP3    H213459   7.399   4.352   2.548
 4528TIP3   OH213460   7.242   4.206   0.781
 4528TIP3    H113461   7.248   4.224   0.875
 4528TIP3    H213462   7.243   4.111   0.775
 4529TIP3   OH213463   7.861   4.453   2.161
 4529TIP3    H113464   7.935   4.496   2.118
 4529TIP3    H213465   7.789   4.515   2.150
 4530TIP3   OH213466   6.882   4.094   2.765
 4530TIP3    H113467   6.953   4.033   2.745
 4530TIP3    H213468   6.903   4.128   2.852
 4531TIP3   OH213469   6.944   3.912   1.197
 4531TIP3    H113470   6.918   3.876   1.282
 4531TIP3    H213471   6.981   3.838   1.149
 4532TIP3   OH213472   7.214   3.980   2.424
 4532TIP3    H113473   7.138   4.037   2.429
 4532TIP3    H213474   7.263   4.011   2.348
 4533TIP3   OH213475   7.047   3.705   1.037
 4533TIP3    H113476   7.019   3.710   0.945
 4533TIP3    H213477   7.143   3.713   1.033
 4534TIP3   OH213478   7.732   4.379   2.561
 4534TIP3    H113479   7.811   4.357   2.512
 4534TIP3    H213480   7.728   4.313   2.630
 4535TIP3   OH213481   7.870   4.038   0.694
 4535TIP3    H113482   7.843   3.988   0.618
 4535TIP3    H213483   7.838   4.127   0.676
 4536TIP3   OH213484   7.337   3.766   2.550
 4536TIP3    H113485   7.337   3.686   2.497
 4536TIP3    H213486   7.295   3.832   2.495
 4537TIP3   OH213487   7.339   3.551   2.357
 4537TIP3    H113488   7.368   3.594   2.276
 4537TIP3    H213489   7.247   3.530   2.341
 4538TIP3   OH213490   7.369   4.090   2.230
 4538TIP3    H113491   7.452   4.097   2.182
 4538TIP3    H213492   7.312   4.155   2.189
 4539TIP3   OH213493   7.953   4.054   2.615
 4539TIP3    H113494   7.999   3.971   2.621
 4539TIP3    H213495   8.019   4.115   2.579
 4540TIP3   OH213496   7.992   4.310   2.348
 4540TIP3    H113497   7.932   4.360   2.292
 4540TIP3    H213498   8.078   4.327   2.311
 4541TIP3   OH213499   7.215   3.877   2.781
 4541TIP3    H113500   7.147   3.813   2.797
 4541TIP3    H213501   7.250   3.854   2.695
 4542TIP3   OH213502   7.470   3.317   2.424
 4542TIP3    H113503   7.424   3.398   2.403
 4542TIP3    H213504   7.403   3.249   2.414
 4543TIP3   OH213505   7.595   3.820   2.643
 4543TIP3    H113506   7.588   3.811   2.738
 4543TIP3    H213507   7.509   3.797   2.610
 4544TIP3   OH213508   7.838   3.770   2.499
 4544TIP3    H113509   7.763   3.772   2.558
 4544TIP3    H213510   7.910   3.739   2.554
 4545TIP3   OH213511   8.068   3.710   2.651
 4545TIP3    H113512   8.080   3.616   2.667
 4545TIP3    H213513   8.064   3.749   2.738
 4546TIP3   OH213514   7.056   3.657   2.835
 4546TIP3    H113515   7.060   3.569   2.799
 4546TIP3    H213516   7.090   3.648   2.924
 4547TIP3   OH213517   7.568   3.324   2.681
 4547TIP3    H113518   7.635   3.257   2.678
 4547TIP3    H213519   7.526   3.321   2.595
 4548TIP3   OH213520   7.631   3.541   2.841
 4548TIP3    H113521   7.611   3.471   2.779
 4548TIP3    H213522   7.556   3.600   2.836
 4549TIP3   OH213523   6.857   4.766   0.951
 4549TIP3    H113524   6.950   4.773   0.930
 4549TIP3    H213525   6.812   4.805   0.876
 4550TIP3   OH213526   6.334   4.153   1.152
 4550TIP3    H113527   6.427   4.175   1.145
 4550TIP3    H213528   6.328   4.064   1.117
 4551TIP3   OH213529   6.249   4.761   1.571
 4551TIP3    H113530   6.180   4.703   1.536
 4551TIP3    H213531   6.292   4.708   1.638
 4552TIP3   OH213532   6.386   4.616   1.761
 4552TIP3    H113533   6.371   4.542   1.820
 4552TIP3    H213534   6.434   4.679   1.814
 4553TIP3   OH213535   8.111   5.016   1.559
 4553TIP3    H113536   8.136   5.048   1.646
 4553TIP3    H213537   8.169   5.062   1.499
 4554TIP3   OH213538   8.140   5.034   1.842
 4554TIP3    H113539   8.096   4.949   1.835
 4554TIP3    H213540   8.216   5.017   1.898
 4555TIP3   OH213541   8.186   4.714   2.415
 4555TIP3    H113542   8.113   4.720   2.476
 4555TIP3    H213543   8.227   4.800   2.417
 4556TIP3   OH213544   8.004   4.225   1.035
 4556TIP3    H113545   8.068   4.290   1.004
 4556TIP3    H213546   8.045   4.187   1.113
 4557TIP3   OH213547   8.130   4.094   1.240
 4557TIP3    H113548   8.065   4.052   1.296
 4557TIP3    H213549   8.193   4.133   1.301
 4558TIP3   OH213550   8.185   4.485   1.669
 4558TIP3    H113551   8.236   4.421   1.620
 4558TIP3    H213552   8.177   4.560   1.610
 4559TIP3   OH213553   8.014   4.785   1.866
 4559TIP3    H113554   7.946   4.828   1.917
 4559TIP3    H213555   7.967   4.738   1.797
 4560TIP3   OH213556   8.067   4.003   0.884
 4560TIP3    H113557   7.999   4.003   0.817
 4560TIP3    H213558   8.043   4.077   0.941
 4561TIP3   OH213559   7.936   3.674   0.840
 4561TIP3    H113560   7.900   3.713   0.760
 4561TIP3    H213561   7.913   3.581   0.833
 4562TIP3   OH213562   7.944   3.949   1.386
 4562TIP3    H113563   7.953   3.854   1.379
 4562TIP3    H213564   7.931   3.965   1.480
 4563TIP3   OH213565   6.573   4.021   2.129
 4563TIP3    H113566   6.569   3.993   2.037
 4563TIP3    H213567   6.667   4.024   2.148
 4564TIP3   OH213568   8.235   4.374   2.240
 4564TIP3    H113569   8.305   4.309   2.232
 4564TIP3    H213570   8.260   4.443   2.180
 4565TIP3   OH213571   8.420   4.178   2.260
 4565TIP3    H113572   8.345   4.132   2.297
 4565TIP3    H213573   8.494   4.118   2.272
 4566TIP3   OH213574   7.881   3.410   0.831
 4566TIP3    H113575   7.959   3.379   0.877
 4566TIP3    H213576   7.813   3.347   0.853
 4567TIP3   OH213577   7.942   3.663   1.278
 4567TIP3    H113578   7.979   3.577   1.296
 4567TIP3    H213579   7.998   3.700   1.210
 4568TIP3   OH213580   8.104   3.843   1.775
 4568TIP3    H113581   8.187   3.865   1.732
 4568TIP3    H213582   8.114   3.875   1.865
 4569TIP3   OH213583   8.169   3.986   2.007
 4569TIP3    H113584   8.093   4.017   2.055
 4569TIP3    H213585   8.203   4.064   1.962
 4570TIP3   OH213586   6.790   3.707   2.804
 4570TIP3    H113587   6.885   3.704   2.806
 4570TIP3    H213588   6.762   3.626   2.847
 4571TIP3   OH213589   8.624   3.574   2.563
 4571TIP3    H113590   8.681   3.508   2.524
 4571TIP3    H213591   8.597   3.628   2.488
 4572TIP3   OH213592   8.049   3.414   1.319
 4572TIP3    H113593   8.099   3.401   1.399
 4572TIP3    H213594   7.989   3.339   1.316
 4573TIP3   OH213595   6.752   3.401   2.133
 4573TIP3    H113596   6.811   3.327   2.146
 4573TIP3    H213597   6.810   3.477   2.130
 4574TIP3   OH213598   6.554   3.676   2.209
 4574TIP3    H113599   6.602   3.670   2.126
 4574TIP3    H213600   6.579   3.761   2.245
 4575TIP3   OH213601   8.491   3.715   2.369
 4575TIP3    H113602   8.405   3.753   2.383
 4575TIP3    H213603   8.476   3.642   2.309
 4576TIP3   OH213604   8.132   3.351   0.947
 4576TIP3    H113605   8.170   3.279   0.897
 4576TIP3    H213606   8.197   3.421   0.943
 4577TIP3   OH213607   6.534   3.177   1.707
 4577TIP3    H113608   6.444   3.176   1.738
 4577TIP3    H213609   6.533   3.236   1.632
 4578TIP3   OH213610   7.697   4.883   1.218
 4578TIP3    H113611   7.742   4.865   1.135
 4578TIP3    H213612   7.749   4.950   1.261
 4579TIP3   OH213613   6.753   3.258   2.524
 4579TIP3    H113614   6.707   3.254   2.608
 4579TIP3    H213615   6.690   3.298   2.464
 4580TIP3   OH213616   6.795   4.684   2.603
 4580TIP3    H113617   6.704   4.658   2.584
 4580TIP3    H213618   6.805   4.668   2.697
 4581TIP3   OH213619   6.974   4.719   2.147
 4581TIP3    H113620   6.922   4.792   2.112
 4581TIP3    H213621   7.060   4.730   2.106
 4582TIP3   OH213622   7.422   4.964   2.288
 4582TIP3    H113623   7.460   4.964   2.376
 4582TIP3    H213624   7.485   5.013   2.235
 4583TIP3   OH213625   7.600   5.115   2.146
 4583TIP3    H113626   7.669   5.063   2.104
 4583TIP3    H213627   7.647   5.173   2.206
 4584TIP3   OH213628   8.390   3.474   2.247
 4584TIP3    H113629   8.301   3.469   2.212
 4584TIP3    H213630   8.425   3.385   2.236
 4585TIP3   OH213631   6.649   4.979   2.172
 4585TIP3    H113632   6.562   5.009   2.148
 4585TIP3    H213633   6.662   5.011   2.261
 4586TIP3   OH213634   6.885   4.955   2.029
 4586TIP3    H113635   6.802   4.967   2.076
 4586TIP3    H213636   6.866   4.986   1.940
 4587TIP3   OH213637   7.312   4.986   1.828
 4587TIP3    H113638   7.244   5.003   1.763
 4587TIP3    H213639   7.325   5.069   1.872
 4588TIP3   OH213640   7.580   4.924   1.878
 4588TIP3    H113641   7.487   4.939   1.861
 4588TIP3    H213642   7.625   4.998   1.838
 4589TIP3   OH213643   7.789   5.115   1.793
 4589TIP3    H113644   7.775   5.199   1.749
 4589TIP3    H213645   7.815   5.055   1.723
 4590TIP3   OH213646   6.565   4.769   1.918
 4590TIP3    H113647   6.587   4.746   2.008
 4590TIP3    H213648   6.633   4.726   1.866
 4591TIP3   OH213649   6.757   4.639   1.774
 4591TIP3    H113650   6.770   4.557   1.823
 4591TIP3    H213651   6.845   4.678   1.769
 4592TIP3   OH213652   7.024   4.736   1.779
 4592TIP3    H113653   7.052   4.646   1.762
 4592TIP3    H213654   7.065   4.759   1.862
 4593TIP3   OH213655   7.595   3.390   1.861
 4593TIP3    H113656   7.553   3.323   1.916
 4593TIP3    H213657   7.670   3.345   1.821
 4594TIP3   OH213658   8.120   3.271   1.768
 4594TIP3    H113659   8.159   3.322   1.697
 4594TIP3    H213660   8.026   3.292   1.764
 4595TIP3   OH213661   8.217   3.375   1.533
 4595TIP3    H113662   8.287   3.321   1.496
 4595TIP3    H213663   8.248   3.465   1.520
 4596TIP3   OH213664   6.846   3.098   1.881
 4596TIP3    H113665   6.755   3.069   1.883
 4596TIP3    H213666   6.897   3.017   1.878
 4597TIP3   OH213667   6.629   2.972   1.527
 4597TIP3    H113668   6.661   3.029   1.457
 4597TIP3    H213669   6.602   3.033   1.596
 4598TIP3   OH213670   7.289   3.135   1.762
 4598TIP3    H113671   7.346   3.183   1.702
 4598TIP3    H213672   7.309   3.170   1.848
 4599TIP3   OH213673   7.835   3.278   1.747
 4599TIP3    H113674   7.836   3.244   1.657
 4599TIP3    H213675   7.822   3.200   1.801
 4600TIP3   OH213676   7.864   3.200   1.308
 4600TIP3    H113677   7.780   3.245   1.319
 4600TIP3    H213678   7.853   3.117   1.354
 4601TIP3   OH213679   6.345   4.537   1.312
 4601TIP3    H113680   6.261   4.506   1.277
 4601TIP3    H213681   6.344   4.631   1.299
 4602TIP3   OH213682   6.751   3.132   1.291
 4602TIP3    H113683   6.798   3.069   1.236
 4602TIP3    H213684   6.820   3.186   1.329
 4603TIP3   OH213685   7.265   3.306   1.393
 4603TIP3    H113686   7.322   3.257   1.452
 4603TIP3    H213687   7.281   3.398   1.414
 4604TIP3   OH213688   7.126   4.726   0.897
 4604TIP3    H113689   7.199   4.772   0.855
 4604TIP3    H213690   7.104   4.656   0.836
 4605TIP3   OH213691   7.839   4.845   0.986
 4605TIP3    H113692   7.835   4.750   0.975
 4605TIP3    H213693   7.793   4.879   0.909
 4606TIP3   OH213694   7.056   3.381   2.773
 4606TIP3    H113695   7.018   3.312   2.828
 4606TIP3    H213696   7.148   3.383   2.798
 4607TIP3   OH213697   7.304   3.377   2.893
 4607TIP3    H113698   7.388   3.354   2.852
 4607TIP3    H213699   7.289   3.309   2.958
 4608TIP3   OH213700   8.130   3.439   2.680
 4608TIP3    H113701   8.147   3.408   2.769
 4608TIP3    H213702   8.215   3.436   2.636
 4609TIP3   OH213703   8.066   4.994   2.170
 4609TIP3    H113704   7.990   4.960   2.123
 4609TIP3    H213705   8.049   5.088   2.176
 4610TIP3   OH213706   8.636   4.257   1.681
 4610TIP3    H113707   8.664   4.191   1.744
 4610TIP3    H213708   8.703   4.325   1.686
 4611TIP3   OH213709   8.598   4.669   1.415
 4611TIP3    H113710   8.591   4.573   1.417
 4611TIP3    H213711   8.691   4.687   1.400
 4612TIP3   OH213712   8.306   3.875   1.194
 4612TIP3    H113713   8.259   3.958   1.209
 4612TIP3    H213714   8.240   3.817   1.157
 4613TIP3   OH213715   8.373   4.161   1.366
 4613TIP3    H113716   8.417   4.084   1.402
 4613TIP3    H213717   8.423   4.182   1.287
 4614TIP3   OH213718   9.123   5.068   1.027
 4614TIP3    H113719   9.197   5.087   0.969
 4614TIP3    H213720   9.159   5.077   1.116
 4615TIP3   OH213721   9.078   4.595   1.369
 4615TIP3    H113722   9.083   4.546   1.286
 4615TIP3    H213723   9.169   4.601   1.398
 4616TIP3   OH213724   8.863   3.758   1.374
 4616TIP3    H113725   8.862   3.820   1.301
 4616TIP3    H213726   8.840   3.674   1.335
 4617TIP3   OH213727   8.516   3.953   1.469
 4617TIP3    H113728   8.594   3.933   1.521
 4617TIP3    H213729   8.525   3.899   1.391
 4618TIP3   OH213730   8.920   4.168   1.254
 4618TIP3    H113731   9.013   4.153   1.266
 4618TIP3    H213732   8.885   4.084   1.224
 4619TIP3   OH213733   8.867   3.735   1.809
 4619TIP3    H113734   8.811   3.768   1.739
 4619TIP3    H213735   8.817   3.751   1.889
 4620TIP3   OH213736   8.980   4.507   1.614
 4620TIP3    H113737   8.917   4.567   1.654
 4620TIP3    H213738   9.012   4.553   1.536
 4621TIP3   OH213739   8.744   3.854   1.591
 4621TIP3    H113740   8.810   3.920   1.614
 4621TIP3    H213741   8.782   3.809   1.516
 4622TIP3   OH213742   8.806   4.705   1.693
 4622TIP3    H113743   8.786   4.789   1.652
 4622TIP3    H213744   8.731   4.687   1.750
 4623TIP3   OH213745   8.207   4.395   0.931
 4623TIP3    H113746   8.163   4.415   0.848
 4623TIP3    H213747   8.236   4.480   0.964
 4624TIP3   OH213748   8.721   4.312   1.142
 4624TIP3    H113749   8.680   4.254   1.077
 4624TIP3    H213750   8.794   4.261   1.178
 4625TIP3   OH213751   8.845   4.723   1.295
 4625TIP3    H113752   8.827   4.679   1.211
 4625TIP3    H213753   8.926   4.682   1.326
 4626TIP3   OH213754   8.896   4.265   1.515
 4626TIP3    H113755   8.900   4.254   1.420
 4626TIP3    H213756   8.919   4.357   1.529
 4627TIP3   OH213757   9.011   4.827   1.837
 4627TIP3    H113758   8.955   4.888   1.884
 4627TIP3    H213759   8.951   4.773   1.786
 4628TIP3   OH213760   8.766   4.385   1.935
 4628TIP3    H113761   8.774   4.469   1.980
 4628TIP3    H213762   8.674   4.360   1.948
 4629TIP3   OH213763   9.079   4.862   0.855
 4629TIP3    H113764   9.106   4.919   0.927
 4629TIP3    H213765   8.998   4.901   0.822
 4630TIP3   OH213766   8.809   4.994   1.922
 4630TIP3    H113767   8.776   4.992   1.832
 4630TIP3    H213768   8.733   4.972   1.976
 4631TIP3   OH213769   8.607   4.137   0.961
 4631TIP3    H113770   8.540   4.180   0.908
 4631TIP3    H213771   8.573   4.049   0.975
 4632TIP3   OH213772   8.391   4.521   1.869
 4632TIP3    H113773   8.326   4.501   1.801
 4632TIP3    H213774   8.426   4.435   1.893
 4633TIP3   OH213775   8.246   4.715   1.506
 4633TIP3    H113776   8.341   4.711   1.493
 4633TIP3    H213777   8.232   4.796   1.555
 4634TIP3   OH213778   9.200   4.955   1.688
 4634TIP3    H113779   9.208   5.044   1.722
 4634TIP3    H213780   9.135   4.914   1.744
 4635TIP3   OH213781   8.415   4.931   1.027
 4635TIP3    H113782   8.461   4.923   1.111
 4635TIP3    H213783   8.356   4.856   1.026
 4636TIP3   OH213784   8.594   4.704   1.861
 4636TIP3    H113785   8.644   4.690   1.941
 4636TIP3    H213786   8.521   4.643   1.866
 4637TIP3   OH213787   8.988   3.550   1.651
 4637TIP3    H113788   8.911   3.505   1.616
 4637TIP3    H213789   8.953   3.618   1.707
 4638TIP3   OH213790   8.928   4.046   1.661
 4638TIP3    H113791   8.872   4.057   1.738
 4638TIP3    H213792   8.907   4.121   1.606
 4639TIP3   OH213793   8.806   3.933   1.171
 4639TIP3    H113794   8.720   3.902   1.199
 4639TIP3    H213795   8.816   3.901   1.081
 4640TIP3   OH213796   8.756   4.073   1.873
 4640TIP3    H113797   8.760   4.134   1.947
 4640TIP3    H213798   8.742   3.987   1.914
 4641TIP3   OH213799   8.771   3.572   0.578
 4641TIP3    H113800   8.757   3.546   0.669
 4641TIP3    H213801   8.686   3.607   0.550
 4642TIP3   OH213802   8.341   3.597   1.448
 4642TIP3    H113803   8.413   3.629   1.503
 4642TIP3    H213804   8.384   3.563   1.370
 4643TIP3   OH213805   8.312   3.581   0.968
 4643TIP3    H113806   8.358   3.615   0.891
 4643TIP3    H213807   8.251   3.650   0.992
 4644TIP3   OH213808   8.571   3.809   1.244
 4644TIP3    H113809   8.480   3.813   1.216
 4644TIP3    H213810   8.599   3.720   1.223
 4645TIP3   OH213811   8.806   3.837   0.918
 4645TIP3    H113812   8.892   3.818   0.879
 4645TIP3    H213813   8.747   3.846   0.843
 4646TIP3   OH213814   8.659   3.848   0.695
 4646TIP3    H113815   8.594   3.797   0.647
 4646TIP3    H213816   8.727   3.866   0.630
 4647TIP3   OH213817   8.758   4.628   2.081
 4647TIP3    H113818   8.837   4.658   2.126
 4647TIP3    H213819   8.691   4.625   2.149
 4648TIP3   OH213820   8.739   3.572   1.204
 4648TIP3    H113821   8.708   3.497   1.255
 4648TIP3    H213822   8.812   3.537   1.153
 4649TIP3   OH213823   8.887   4.394   0.712
 4649TIP3    H113824   8.841   4.310   0.713
 4649TIP3    H213825   8.914   4.407   0.803
 4650TIP3   OH213826   9.277   4.678   1.736
 4650TIP3    H113827   9.325   4.666   1.818
 4650TIP3    H213828   9.260   4.772   1.733
 4651TIP3   OH213829   8.636   4.397   1.397
 4651TIP3    H113830   8.658   4.367   1.309
 4651TIP3    H213831   8.653   4.321   1.453
 4652TIP3   OH213832   8.508   4.308   2.007
 4652TIP3    H113833   8.528   4.297   2.100
 4652TIP3    H213834   8.437   4.246   1.990
 4653TIP3   OH213835   9.201   4.386   2.049
 4653TIP3    H113836   9.118   4.355   2.011
 4653TIP3    H213837   9.262   4.314   2.035
 4654TIP3   OH213838   8.725   4.694   1.017
 4654TIP3    H113839   8.726   4.776   0.966
 4654TIP3    H213840   8.633   4.670   1.021
 4655TIP3   OH213841   8.288   4.003   0.720
 4655TIP3    H113842   8.337   4.082   0.740
 4655TIP3    H213843   8.214   4.004   0.781
 4656TIP3   OH213844   8.898   4.478   0.996
 4656TIP3    H113845   8.846   4.558   0.987
 4656TIP3    H213846   8.840   4.417   1.043
 4657TIP3   OH213847   8.998   5.037   1.488
 4657TIP3    H113848   9.033   5.109   1.435
 4657TIP3    H213849   9.073   5.006   1.539
 4658TIP3   OH213850   8.652   4.934   0.877
 4658TIP3    H113851   8.566   4.940   0.919
 4658TIP3    H213852   8.685   5.024   0.875
 4659TIP3   OH213853   8.716   3.820   2.021
 4659TIP3    H113854   8.621   3.816   2.029
 4659TIP3    H213855   8.748   3.758   2.086
 4660TIP3   OH213856   8.437   4.902   1.648
 4660TIP3    H113857   8.486   4.825   1.677
 4660TIP3    H213858   8.462   4.971   1.710
 4661TIP3   OH213859   8.638   4.547   0.671
 4661TIP3    H113860   8.725   4.507   0.670
 4661TIP3    H213861   8.653   4.638   0.647
 4662TIP3   OH213862   8.403   4.243   0.814
 4662TIP3    H113863   8.338   4.289   0.868
 4662TIP3    H213864   8.423   4.305   0.743
 4663TIP3   OH213865   8.615   4.820   0.624
 4663TIP3    H113866   8.670   4.879   0.573
 4663TIP3    H213867   8.623   4.852   0.714
 4664TIP3   OH213868   8.782   3.551   0.856
 4664TIP3    H113869   8.751   3.624   0.909
 4664TIP3    H213870   8.867   3.579   0.822
 4665TIP3   OH213871   8.383   4.477   0.619
 4665TIP3    H113872   8.455   4.529   0.655
 4665TIP3    H213873   8.426   4.404   0.574
 4666TIP3   OH213874   8.345   3.734   0.747
 4666TIP3    H113875   8.341   3.829   0.741
 4666TIP3    H213876   8.270   3.704   0.696
 4667TIP3   OH213877   8.721   3.452   1.619
 4667TIP3    H113878   8.697   3.417   1.533
 4667TIP3    H213879   8.722   3.376   1.677
 4668TIP3   OH213880   8.271   4.670   1.000
 4668TIP3    H113881   8.198   4.699   1.055
 4668TIP3    H213882   8.252   4.705   0.913
 4669TIP3   OH213883   8.427   5.207   2.069
 4669TIP3    H113884   8.510   5.209   2.116
 4669TIP3    H213885   8.403   5.115   2.066
 4670TIP3   OH213886   8.909   5.178   2.108
 4670TIP3    H113887   9.001   5.156   2.125
 4670TIP3    H213888   8.883   5.117   2.039
 4671TIP3   OH213889   8.555   4.614   2.267
 4671TIP3    H113890   8.573   4.521   2.275
 4671TIP3    H213891   8.470   4.619   2.225
 4672TIP3   OH213892   8.509   4.255   0.537
 4672TIP3    H113893   8.568   4.238   0.610
 4672TIP3    H213894   8.562   4.242   0.459
 4673TIP3   OH213895   9.153   4.694   2.043
 4673TIP3    H113896   9.118   4.719   1.957
 4673TIP3    H213897   9.163   4.599   2.037
 4674TIP3   OH213898   8.682   4.346   2.250
 4674TIP3    H113899   8.756   4.289   2.232
 4674TIP3    H213900   8.701   4.383   2.337
 4675TIP3   OH213901   8.740   4.159   0.690
 4675TIP3    H113902   8.718   4.118   0.774
 4675TIP3    H213903   8.771   4.087   0.635
 4676TIP3   OH213904   9.008   4.269   1.891
 4676TIP3    H113905   8.928   4.307   1.927
 4676TIP3    H213906   8.987   4.248   1.800
 4677TIP3   OH213907   8.848   3.949   0.526
 4677TIP3    H113908   8.820   3.943   0.435
 4677TIP3    H213909   8.940   3.976   0.521
 4678TIP3   OH213910   9.093   4.027   2.059
 4678TIP3    H113911   9.156   3.956   2.053
 4678TIP3    H213912   9.079   4.054   1.968
 4679TIP3   OH213913   9.129   3.826   1.820
 4679TIP3    H113914   9.172   3.742   1.807
 4679TIP3    H213915   9.041   3.803   1.851
 4680TIP3   OH213916   9.210   4.359   1.658
 4680TIP3    H113917   9.268   4.434   1.672
 4680TIP3    H213918   9.122   4.397   1.660
 4681TIP3   OH213919   8.962   4.162   2.255
 4681TIP3    H113920   8.919   4.083   2.287
 4681TIP3    H213921   9.016   4.131   2.182
 4682TIP3   OH213922   8.854   3.917   2.326
 4682TIP3    H113923   8.861   3.832   2.281
 4682TIP3    H213924   8.886   3.900   2.414
 4683TIP3   OH213925   8.124   4.398   0.663
 4683TIP3    H113926   8.210   4.437   0.648
 4683TIP3    H213927   8.124   4.318   0.611
 4684TIP3   OH213928   8.042   5.020   1.059
 4684TIP3    H113929   7.977   4.960   1.021
 4684TIP3    H213930   8.088   4.967   1.124
 4685TIP3   OH213931   8.180   4.875   1.247
 4685TIP3    H113932   8.166   4.798   1.303
 4685TIP3    H213933   8.230   4.936   1.302
 4686TIP3   OH213934   8.370   4.278   1.616
 4686TIP3    H113935   8.363   4.248   1.526
 4686TIP3    H213936   8.464   4.279   1.634
 4687TIP3   OH213937   8.587   3.966   2.297
 4687TIP3    H113938   8.682   3.960   2.292
 4687TIP3    H213939   8.560   3.883   2.335
 4688TIP3   OH213940   8.544   3.661   1.626
 4688TIP3    H113941   8.600   3.583   1.634
 4688TIP3    H213942   8.605   3.734   1.621
 4689TIP3   OH213943   8.349   3.935   1.694
 4689TIP3    H113944   8.396   3.922   1.612
 4689TIP3    H213945   8.380   4.019   1.727
 4690TIP3   OH213946   8.330   3.433   1.195
 4690TIP3    H113947   8.239   3.433   1.223
 4690TIP3    H213948   8.331   3.492   1.119
 4691TIP3   OH213949   8.545   3.530   2.014
 4691TIP3    H113950   8.499   3.515   2.096
 4691TIP3    H213951   8.477   3.558   1.953
 4692TIP3   OH213952   8.591   4.940   2.090
 4692TIP3    H113953   8.501   4.915   2.071
 4692TIP3    H213954   8.602   4.924   2.184
 4693TIP3   OH213955   8.771   4.976   1.634
 4693TIP3    H113956   8.718   5.047   1.599
 4693TIP3    H213957   8.856   4.986   1.591
 4694TIP3   OH213958   9.232   5.225   1.769
 4694TIP3    H113959   9.250   5.217   1.863
 4694TIP3    H213960   9.308   5.271   1.734
 4695TIP3   OH213961   8.446   5.234   1.660
 4695TIP3    H113962   8.359   5.265   1.633
 4695TIP3    H213963   8.456   5.266   1.750
 4696TIP3   OH213964   8.683   5.212   1.517
 4696TIP3    H113965   8.599   5.223   1.563
 4696TIP3    H213966   8.665   5.243   1.428
 4697TIP3   OH213967   9.093   5.243   1.311
 4697TIP3    H113968   9.024   5.256   1.246
 4697TIP3    H213969   9.104   5.329   1.351
 4698TIP3   OH213970   9.356   5.204   1.356
 4698TIP3    H113971   9.262   5.197   1.344
 4698TIP3    H213972   9.380   5.287   1.315
 4699TIP3   OH213973   8.361   5.025   1.406
 4699TIP3    H113974   8.383   5.001   1.496
 4699TIP3    H213975   8.428   4.984   1.353
 4700TIP3   OH213976   8.551   4.897   1.262
 4700TIP3    H113977   8.565   4.815   1.309
 4700TIP3    H213978   8.639   4.935   1.255
 4701TIP3   OH213979   8.815   4.995   1.263
 4701TIP3    H113980   8.837   4.903   1.250
 4701TIP3    H213981   8.858   5.018   1.346
 4702TIP3   OH213982   8.635   3.364   1.363
 4702TIP3    H113983   8.542   3.339   1.365
 4702TIP3    H213984   8.682   3.280   1.368
 4703TIP3   OH213985   8.425   3.228   1.010
 4703TIP3    H113986   8.456   3.286   0.941
 4703TIP3    H213987   8.399   3.287   1.081
 4704TIP3   OH213988   8.143   4.798   0.803
 4704TIP3    H113989   8.061   4.761   0.771
 4704TIP3    H213990   8.141   4.890   0.776
 4705TIP3   OH213991   8.543   3.388   0.788
 4705TIP3    H113992   8.582   3.325   0.727
 4705TIP3    H213993   8.617   3.437   0.823
 4706TIP3   OH213994   8.826   3.640   2.237
 4706TIP3    H113995   8.799   3.571   2.298
 4706TIP3    H213996   8.921   3.632   2.233
 4707TIP3   OH213997   9.064   3.654   2.384
 4707TIP3    H113998   9.107   3.623   2.304
 4707TIP3    H213999   9.055   3.575   2.438
 4708TIP3   OH214000   8.235   4.818   0.506
 4708TIP3    H114001   8.241   4.879   0.580
 4708TIP3    H214002   8.325   4.807   0.477
 4709TIP3   OH214003   9.782   4.895   3.147
 4709TIP3    H114004   9.755   4.985   3.127
 4709TIP3    H214005   9.712   4.841   3.111
 4710TIP3   OH214006   9.797   4.893   3.518
 4710TIP3    H114007   9.822   4.860   3.604
 4710TIP3    H214008   9.757   4.818   3.474
 4711TIP3   OH214009   0.272   5.174   3.221
 4711TIP3    H114010   0.220   5.115   3.277
 4711TIP3    H214011   0.245   5.262   3.249
 4712TIP3   OH214012   9.702   5.646   3.217
 4712TIP3    H114013   9.726   5.580   3.152
 4712TIP3    H214014   9.663   5.596   3.289
 4713TIP3   OH214015   9.582   5.067   3.543
 4713TIP3    H114016   9.658   5.016   3.514
 4713TIP3    H214017   9.619   5.147   3.580
 4714TIP3   OH214018   0.802   4.443   3.570
 4714TIP3    H114019   0.832   4.525   3.607
 4714TIP3    H214020   0.811   4.454   3.475
 4715TIP3   OH214021   0.191   4.620   3.606
 4715TIP3    H114022   0.244   4.543   3.626
 4715TIP3    H214023   0.171   4.612   3.513
 4716TIP3   OH214024   9.367   4.276   3.573
 4716TIP3    H114025   9.335   4.357   3.533
 4716TIP3    H214026   9.334   4.207   3.517
 4717TIP3   OH214027   9.415   4.688   3.484
 4717TIP3    H114028   9.507   4.661   3.486
 4717TIP3    H214029   9.370   4.616   3.440
 4718TIP3   OH214030   0.876   4.653   3.740
 4718TIP3    H114031   0.794   4.697   3.717
 4718TIP3    H214032   0.887   4.670   3.834
 4719TIP3   OH214033   9.673   5.110   3.013
 4719TIP3    H114034   9.669   5.092   2.919
 4719TIP3    H214035   9.695   5.203   3.017
 4720TIP3   OH214036   0.308   5.453   3.386
 4720TIP3    H114037   0.222   5.432   3.421
 4720TIP3    H214038   0.293   5.529   3.329
 4721TIP3   OH214039   0.589   4.343   3.731
 4721TIP3    H114040   0.502   4.366   3.698
 4721TIP3    H214041   0.649   4.372   3.662
 4722TIP3   OH214042   9.687   3.980   3.714
 4722TIP3    H114043   9.685   3.885   3.730
 4722TIP3    H214044   9.619   4.015   3.771
 4723TIP3   OH214045   0.536   5.352   3.708
 4723TIP3    H114046   0.516   5.272   3.659
 4723TIP3    H214047   0.503   5.423   3.653
 4724TIP3   OH214048   9.620   4.746   2.970
 4724TIP3    H114049   9.543   4.799   2.946
 4724TIP3    H214050   9.672   4.743   2.890
 4725TIP3   OH214051   9.581   4.532   2.695
 4725TIP3    H114052   9.644   4.584   2.744
 4725TIP3    H214053   9.635   4.473   2.641
 4726TIP3   OH214054   0.723   4.998   3.560
 4726TIP3    H114055   0.638   5.042   3.565
 4726TIP3    H214056   0.751   5.010   3.470
 4727TIP3   OH214057   0.168   4.826   2.952
 4727TIP3    H114058   0.117   4.853   3.028
 4727TIP3    H214059   0.251   4.795   2.989
 4728TIP3   OH214060   0.399   4.872   3.854
 4728TIP3    H114061   0.397   4.953   3.906
 4728TIP3    H214062   0.317   4.873   3.805
 4729TIP3   OH214063   9.345   4.787   3.726
 4729TIP3    H114064   9.378   4.756   3.642
 4729TIP3    H214065   9.382   4.874   3.735
 4730TIP3   OH214066   0.063   5.436   3.492
 4730TIP3    H114067   0.051   5.510   3.550
 4730TIP3    H214068   0.048   5.359   3.547
 4731TIP3   OH214069   0.008   4.694   2.771
 4731TIP3    H114070   0.067   4.747   2.824
 4731TIP3    H214071   0.033   4.713   2.680
 4732TIP3   OH214072   9.528   5.418   3.061
 4732TIP3    H114073   9.616   5.395   3.029
 4732TIP3    H214074   9.490   5.470   2.990
 4733TIP3   OH214075   0.524   3.934   2.818
 4733TIP3    H114076   0.445   3.949   2.869
 4733TIP3    H214077   0.537   4.015   2.769
 4734TIP3   OH214078   0.321   5.297   2.358
 4734TIP3    H114079   0.328   5.393   2.350
 4734TIP3    H214080   0.411   5.266   2.350
 4735TIP3   OH214081   9.437   5.599   2.865
 4735TIP3    H114082   9.450   5.569   2.775
 4735TIP3    H214083   9.476   5.687   2.866
 4736TIP3   OH214084   9.648   5.504   2.507
 4736TIP3    H114085   9.694   5.444   2.449
 4736TIP3    H214086   9.689   5.491   2.593
 4737TIP3   OH214087   0.655   4.829   4.033
 4737TIP3    H114088   0.577   4.843   3.979
 4737TIP3    H214089   0.674   4.735   4.024
 4738TIP3   OH214090   9.441   4.066   3.849
 4738TIP3    H114091   9.373   4.031   3.791
 4738TIP3    H214092   9.449   4.158   3.824
 4739TIP3   OH214093   0.187   4.174   4.039
 4739TIP3    H114094   0.256   4.149   4.101
 4739TIP3    H214095   0.106   4.155   4.086
 4740TIP3   OH214096   0.423   4.606   3.958
 4740TIP3    H114097   0.375   4.601   4.041
 4740TIP3    H214098   0.401   4.691   3.922
 4741TIP3   OH214099   0.080   4.735   2.511
 4741TIP3    H114100   0.053   4.707   2.424
 4741TIP3    H214101   0.159   4.787   2.496
 4742TIP3   OH214102   9.599   4.111   2.809
 4742TIP3    H114103   9.576   4.115   2.901
 4742TIP3    H214104   9.542   4.043   2.773
 4743TIP3   OH214105   9.364   4.562   3.872
 4743TIP3    H114106   9.328   4.599   3.952
 4743TIP3    H214107   9.361   4.634   3.809
 4744TIP3   OH214108   9.259   4.448   3.381
 4744TIP3    H114109   9.166   4.468   3.367
 4744TIP3    H214110   9.287   4.408   3.299
 4745TIP3   OH214111   9.755   4.544   3.101
 4745TIP3    H114112   9.707   4.615   3.059
 4745TIP3    H214113   9.820   4.517   3.036
 4746TIP3   OH214114   0.136   4.824   4.192
 4746TIP3    H114115   0.111   4.754   4.251
 4746TIP3    H214116   0.229   4.840   4.211
 4747TIP3   OH214117   0.121   4.570   3.339
 4747TIP3    H114118   0.062   4.595   3.268
 4747TIP3    H214119   0.182   4.508   3.299
 4748TIP3   OH214120   9.312   4.089   2.815
 4748TIP3    H114121   9.289   4.059   2.903
 4748TIP3    H214122   9.228   4.108   2.774
 4749TIP3   OH214123   0.120   4.821   3.769
 4749TIP3    H114124   0.154   4.755   3.709
 4749TIP3    H214125   0.096   4.772   3.848
 4750TIP3   OH214126   9.605   4.288   3.434
 4750TIP3    H114127   9.529   4.290   3.492
 4750TIP3    H214128   9.680   4.282   3.493
 4751TIP3   OH214129   9.302   4.335   3.132
 4751TIP3    H114130   9.397   4.348   3.126
 4751TIP3    H214131   9.268   4.369   3.049
 4752TIP3   OH214132   0.292   4.365   3.654
 4752TIP3    H114133   0.240   4.372   3.734
 4752TIP3    H214134   0.243   4.304   3.599
 4753TIP3   OH214135   9.123   4.388   2.905
 4753TIP3    H114136   9.097   4.309   2.859
 4753TIP3    H214137   9.193   4.425   2.851
 4754TIP3   OH214138   0.453   6.056   3.860
 4754TIP3    H114139   0.451   6.078   3.767
 4754TIP3    H214140   0.529   6.103   3.895
 4755TIP3   OH214141   9.683   4.608   3.530
 4755TIP3    H114142   9.754   4.580   3.473
 4755TIP3    H214143   9.703   4.568   3.615
 4756TIP3   OH214144   9.237   4.100   3.412
 4756TIP3    H114145   9.171   4.032   3.429
 4756TIP3    H214146   9.277   4.073   3.329
 4757TIP3   OH214147   9.653   4.502   3.841
 4757TIP3    H114148   9.569   4.547   3.839
 4757TIP3    H214149   9.714   4.566   3.878
 4758TIP3   OH214150   9.393   4.894   2.907
 4758TIP3    H114151   9.317   4.836   2.904
 4758TIP3    H214152   9.389   4.934   2.994
 4759TIP3   OH214153   0.485   5.137   3.550
 4759TIP3    H114154   0.508   5.182   3.469
 4759TIP3    H214155   0.404   5.090   3.530
 4760TIP3   OH214156   0.053   4.213   2.779
 4760TIP3    H114157  -0.042   4.202   2.789
 4760TIP3    H214158   0.069   4.304   2.804
 4761TIP3   OH214159   9.784   5.239   3.921
 4761TIP3    H114160   9.810   5.204   4.007
 4761TIP3    H214161   9.702   5.285   3.938
 4762TIP3   OH214162   0.122   4.457   2.873
 4762TIP3    H114163   0.203   4.462   2.924
 4762TIP3    H214164   0.114   4.543   2.832
 4763TIP3   OH214165   9.541   5.040   2.730
 4763TIP3    H114166   9.503   5.127   2.742
 4763TIP3    H214167   9.495   4.985   2.793
 4764TIP3   OH214168   9.700   4.957   4.235
 4764TIP3    H114169   9.642   4.890   4.198
 4764TIP3    H214170   9.788   4.931   4.207
 4765TIP3   OH214171   0.156   5.499   3.806
 4765TIP3    H114172   0.069   5.462   3.820
 4765TIP3    H214173   0.178   5.540   3.890
 4766TIP3   OH214174   0.576   4.550   2.699
 4766TIP3    H114175   0.503   4.504   2.659
 4766TIP3    H214176   0.567   4.641   2.670
 4767TIP3   OH214177   0.783   5.420   3.788
 4767TIP3    H114178   0.689   5.414   3.805
 4767TIP3    H214179   0.802   5.348   3.728
 4768TIP3   OH214180   0.275   5.365   2.636
 4768TIP3    H114181   0.208   5.329   2.694
 4768TIP3    H214182   0.271   5.310   2.557
 4769TIP3   OH214183   0.256   4.993   3.479
 4769TIP3    H114184   0.163   4.970   3.486
 4769TIP3    H214185   0.295   4.921   3.428
 4770TIP3   OH214186   9.362   4.990   3.154
 4770TIP3    H114187   9.375   5.083   3.169
 4770TIP3    H214188   9.325   4.957   3.237
 4771TIP3   OH214189   0.053   5.211   3.653
 4771TIP3    H114190   0.035   5.208   3.747
 4771TIP3    H214191   0.120   5.144   3.639
 4772TIP3   OH214192   0.013   5.098   2.532
 4772TIP3    H114193   0.072   5.070   2.602
 4772TIP3    H214194  -0.074   5.078   2.565
 4773TIP3   OH214195   0.294   5.734   3.697
 4773TIP3    H114196   0.222   5.672   3.706
 4773TIP3    H214197   0.265   5.796   3.630
 4774TIP3   OH214198   0.355   5.575   2.350
 4774TIP3    H114199   0.398   5.647   2.303
 4774TIP3    H214200   0.276   5.614   2.387
 4775TIP3   OH214201   0.177   5.011   2.734
 4775TIP3    H114202   0.162   4.963   2.816
 4775TIP3    H214203   0.272   5.023   2.730
 4776TIP3   OH214204   9.237   5.052   2.558
 4776TIP3    H114205   9.258   4.969   2.515
 4776TIP3    H214206   9.249   5.034   2.651
 4777TIP3   OH214207   0.200   4.421   3.912
 4777TIP3    H114208   0.288   4.453   3.931
 4777TIP3    H214209   0.195   4.337   3.959
 4778TIP3   OH214210   0.102   4.184   3.066
 4778TIP3    H114211   0.084   4.194   2.972
 4778TIP3    H214212   0.162   4.256   3.086
 4779TIP3   OH214213   9.397   5.264   2.758
 4779TIP3    H114214   9.317   5.299   2.798
 4779TIP3    H214215   9.424   5.331   2.695
 4780TIP3   OH214216   9.576   4.349   3.167
 4780TIP3    H114217   9.643   4.413   3.142
 4780TIP3    H214218   9.590   4.335   3.260
 4781TIP3   OH214219   0.047   4.663   3.976
 4781TIP3    H114220   0.073   4.713   4.054
 4781TIP3    H214221   0.101   4.584   3.980
 4782TIP3   OH214222   9.738   4.076   3.267
 4782TIP3    H114223   9.732   4.143   3.334
 4782TIP3    H214224   9.796   4.112   3.201
 4783TIP3   OH214225   9.276   4.058   3.089
 4783TIP3    H114226   9.262   4.150   3.110
 4783TIP3    H214227   9.371   4.050   3.083
 4784TIP3   OH214228   0.689   4.562   3.951
 4784TIP3    H114229   0.594   4.563   3.962
 4784TIP3    H214230   0.703   4.520   3.866
 4785TIP3   OH214231   0.339   4.762   3.347
 4785TIP3    H114232   0.272   4.693   3.342
 4785TIP3    H214233   0.414   4.719   3.387
 4786TIP3   OH214234   0.312   5.721   3.290
 4786TIP3    H114235   0.267   5.770   3.221
 4786TIP3    H214236   0.405   5.729   3.269
 4787TIP3   OH214237   9.378   5.272   2.455
 4787TIP3    H114238   9.330   5.199   2.494
 4787TIP3    H214239   9.439   5.230   2.394
 4788TIP3   OH214240   0.208   5.613   4.052
 4788TIP3    H114241   0.203   5.541   4.114
 4788TIP3    H214242   0.285   5.663   4.080
 4789TIP3   OH214243  -0.017   5.322   2.356
 4789TIP3    H114244   0.019   5.258   2.417
 4789TIP3    H214245   0.044   5.322   2.282
 4790TIP3   OH214246   9.635   5.236   4.260
 4790TIP3    H114247   9.590   5.264   4.181
 4790TIP3    H214248   9.647   5.142   4.249
 4791TIP3   OH214249   9.508   4.985   2.465
 4791TIP3    H114250   9.515   5.005   2.559
 4791TIP3    H214251   9.509   4.890   2.461
 4792TIP3   OH214252   0.315   5.238   3.854
 4792TIP3    H114253   0.383   5.287   3.808
 4792TIP3    H214254   0.236   5.290   3.842
 4793TIP3   OH214255   9.195   4.701   2.888
 4793TIP3    H114256   9.184   4.654   2.970
 4793TIP3    H214257   9.236   4.638   2.829
 4794TIP3   OH214258   9.537   4.773   4.107
 4794TIP3    H114259   9.456   4.823   4.113
 4794TIP3    H214260   9.574   4.796   4.022
 4795TIP3   OH214261   9.309   4.496   2.743
 4795TIP3    H114262   9.278   4.498   2.652
 4795TIP3    H214263   9.404   4.500   2.736
 4796TIP3   OH214264   0.184   5.160   4.248
 4796TIP3    H114265   0.266   5.141   4.202
 4796TIP3    H214266   0.182   5.097   4.320
 4797TIP3   OH214267   0.318   4.829   2.385
 4797TIP3    H114268   0.298   4.779   2.306
 4797TIP3    H214269   0.287   4.917   2.367
 4798TIP3   OH214270   9.601   4.538   4.253
 4798TIP3    H114271   9.590   4.464   4.193
 4798TIP3    H214272   9.571   4.614   4.203
 4799TIP3   OH214273   9.581   4.331   4.041
 4799TIP3    H114274   9.625   4.378   3.970
 4799TIP3    H214275   9.487   4.343   4.024
 4800TIP3   OH214276   9.620   4.893   3.878
 4800TIP3    H114277   9.710   4.879   3.846
 4800TIP3    H214278   9.603   4.986   3.861
 4801TIP3   OH214279   0.405   4.844   4.305
 4801TIP3    H114280   0.449   4.759   4.311
 4801TIP3    H214281   0.471   4.902   4.268
 4802TIP3   OH214282   0.445   5.098   4.041
 4802TIP3    H114283   0.385   5.147   3.985
 4802TIP3    H214284   0.532   5.113   4.003
 4803TIP3   OH214285   9.724   4.104   4.115
 4803TIP3    H114286   9.675   4.183   4.092
 4803TIP3    H214287   9.659   4.034   4.108
 4804TIP3   OH214288   0.051   4.609   4.336
 4804TIP3    H114289   0.044   4.603   4.432
 4804TIP3    H214290  -0.035   4.582   4.304
 4805TIP3   OH214291   0.292   4.561   4.191
 4805TIP3    H114292   0.216   4.560   4.250
 4805TIP3    H214293   0.365   4.529   4.245
 4806TIP3   OH214294   0.518   4.497   4.341
 4806TIP3    H114295   0.532   4.404   4.357
 4806TIP3    H214296   0.516   4.537   4.428
 4807TIP3   OH214297   0.020   4.112   4.372
 4807TIP3    H114298   0.088   4.045   4.370
 4807TIP3    H214299  -0.020   4.108   4.285
 4808TIP3   OH214300   0.084   4.328   4.532
 4808TIP3    H114301   0.063   4.258   4.470
 4808TIP3    H214302   0.011   4.390   4.523
 4809TIP3   OH214303   0.572   5.793   3.248
 4809TIP3    H114304   0.597   5.834   3.331
 4809TIP3    H214305   0.608   5.850   3.181
 4810TIP3   OH214306   0.610   5.810   3.542
 4810TIP3    H114307   0.562   5.729   3.528
 4810TIP3    H214308   0.611   5.821   3.637
 4811TIP3   OH214309   0.637   5.502   4.102
 4811TIP3    H114310   0.567   5.507   4.167
 4811TIP3    H214311   0.680   5.587   4.107
 4812TIP3   OH214312   0.460   5.014   2.726
 4812TIP3    H114313   0.528   5.076   2.699
 4812TIP3    H214314   0.495   4.973   2.805
 4813TIP3   OH214315   0.580   4.881   2.933
 4813TIP3    H114316   0.516   4.830   2.983
 4813TIP3    H214317   0.639   4.917   2.998
 4814TIP3   OH214318   0.643   5.272   3.368
 4814TIP3    H114319   0.687   5.202   3.319
 4814TIP3    H214320   0.627   5.340   3.303
 4815TIP3   OH214321   0.476   5.574   3.557
 4815TIP3    H114322   0.408   5.616   3.610
 4815TIP3    H214323   0.428   5.529   3.487
 4816TIP3   OH214324   0.518   4.795   2.570
 4816TIP3    H114325   0.448   4.794   2.506
 4816TIP3    H214326   0.494   4.865   2.631
 4817TIP3   OH214327   0.384   4.460   2.527
 4817TIP3    H114328   0.345   4.501   2.450
 4817TIP3    H214329   0.362   4.368   2.520
 4818TIP3   OH214330   0.404   4.725   3.079
 4818TIP3    H114331   0.398   4.629   3.079
 4818TIP3    H214332   0.387   4.750   3.170
 4819TIP3   OH214333   0.688   5.161   3.932
 4819TIP3    H114334   0.756   5.095   3.925
 4819TIP3    H214335   0.710   5.225   3.864
 4820TIP3   OH214336   0.872   4.966   3.951
 4820TIP3    H114337   0.797   4.919   3.986
 4820TIP3    H214338   0.946   4.906   3.963
 4821TIP3   OH214339   0.338   4.191   2.508
 4821TIP3    H114340   0.413   4.170   2.564
 4821TIP3    H214341   0.267   4.138   2.543
 4822TIP3   OH214342   0.555   4.657   3.472
 4822TIP3    H114343   0.639   4.665   3.426
 4822TIP3    H214344   0.577   4.676   3.563
 4823TIP3   OH214345   0.630   4.779   3.709
 4823TIP3    H114346   0.547   4.806   3.747
 4823TIP3    H214347   0.659   4.854   3.657
 4824TIP3   OH214348   1.073   4.361   4.250
 4824TIP3    H114349   1.132   4.297   4.211
 4824TIP3    H214350   1.047   4.417   4.177
 4825TIP3   OH214351   0.944   4.504   4.056
 4825TIP3    H114352   0.859   4.543   4.076
 4825TIP3    H214353   0.923   4.430   3.999
 4826TIP3   OH214354   0.585   4.142   2.635
 4826TIP3    H114355   0.626   4.069   2.590
 4826TIP3    H214356   0.651   4.211   2.635
 4827TIP3   OH214357   0.122   5.719   2.894
 4827TIP3    H114358   0.105   5.628   2.868
 4827TIP3    H214359   0.211   5.717   2.929
 4828TIP3   OH214360   9.686   5.759   3.978
 4828TIP3    H114361   9.727   5.748   4.063
 4828TIP3    H214362   9.753   5.802   3.924
 4829TIP3   OH214363   0.060   5.914   3.826
 4829TIP3    H114364   0.122   5.849   3.793
 4829TIP3    H214365   0.110   5.964   3.891
 4830TIP3   OH214366   0.843   4.264   3.936
 4830TIP3    H114367   0.754   4.262   3.900
 4830TIP3    H214368   0.875   4.174   3.925
 4831TIP3   OH214369   9.578   5.866   3.512
 4831TIP3    H114370   9.523   5.825   3.445
 4831TIP3    H214371   9.552   5.824   3.594
 4832TIP3   OH214372   0.037   5.717   3.564
 4832TIP3    H114373  -0.053   5.737   3.539
 4832TIP3    H214374   0.090   5.783   3.518
 4833TIP3   OH214375   0.243   5.906   3.479
 4833TIP3    H114376   0.230   5.988   3.430
 4833TIP3    H214377   0.268   5.842   3.412
 4834TIP3   OH214378   0.039   4.176   3.547
 4834TIP3    H114379   0.007   4.104   3.600
 4834TIP3    H214380   0.120   4.143   3.507
 4835TIP3   OH214381   0.568   4.059   3.461
 4835TIP3    H114382   0.620   4.105   3.395
 4835TIP3    H214383   0.484   4.104   3.462
 4836TIP3   OH214384   0.689   4.167   3.245
 4836TIP3    H114385   0.749   4.123   3.184
 4836TIP3    H214386   0.682   4.256   3.211
 4837TIP3   OH214387   9.549   3.926   3.454
 4837TIP3    H114388   9.601   3.973   3.388
 4837TIP3    H214389   9.582   3.958   3.537
 4838TIP3   OH214390   0.269   4.068   3.444
 4838TIP3    H114391   0.299   4.048   3.355
 4838TIP3    H214392   0.263   3.983   3.487
 4839TIP3   OH214393   0.308   3.971   2.979
 4839TIP3    H114394   0.250   4.040   3.011
 4839TIP3    H214395   0.295   3.898   3.040
 4840TIP3   OH214396   9.543   4.095   3.080
 4840TIP3    H114397   9.604   4.054   3.142
 4840TIP3    H214398   9.552   4.189   3.096
 4841TIP3   OH214399   9.390   5.517   2.604
 4841TIP3    H114400   9.479   5.522   2.567
 4841TIP3    H214401   9.338   5.477   2.534
 4842TIP3   OH214402   0.314   5.633   2.658
 4842TIP3    H114403   0.301   5.538   2.659
 4842TIP3    H214404   0.252   5.665   2.592
 4843TIP3   OH214405   9.552   4.140   4.567
 4843TIP3    H114406   9.635   4.136   4.520
 4843TIP3    H214407   9.566   4.086   4.645
 4844TIP3   OH214408   0.582   4.227   4.370
 4844TIP3    H114409   0.599   4.196   4.459
 4844TIP3    H214410   0.667   4.224   4.327
 4845TIP3   OH214411   0.533   5.796   3.832
 4845TIP3    H114412   0.453   5.749   3.808
 4845TIP3    H214413   0.502   5.883   3.858
 4846TIP3   OH214414   1.782   5.153   2.631
 4846TIP3    H114415   1.758   5.243   2.611
 4846TIP3    H214416   1.710   5.101   2.595
 4847TIP3   OH214417   1.778   5.154   3.012
 4847TIP3    H114418   1.814   5.123   3.095
 4847TIP3    H214419   1.743   5.075   2.970
 4848TIP3   OH214420   1.086   5.051   3.378
 4848TIP3    H114421   1.111   4.981   3.437
 4848TIP3    H214422   1.169   5.093   3.354
 4849TIP3   OH214423   2.022   5.458   2.691
 4849TIP3    H114424   2.018   5.382   2.749
 4849TIP3    H214425   2.059   5.527   2.746
 4850TIP3   OH214426   1.061   5.456   3.107
 4850TIP3    H114427   1.048   5.362   3.107
 4850TIP3    H214428   1.155   5.468   3.089
 4851TIP3   OH214429   0.762   4.670   2.888
 4851TIP3    H114430   0.707   4.748   2.894
 4851TIP3    H214431   0.700   4.600   2.867
 4852TIP3   OH214432   0.827   4.951   3.058
 4852TIP3    H114433   0.869   4.872   3.094
 4852TIP3    H214434   0.871   4.965   2.974
 4853TIP3   OH214435   1.678   5.914   2.708
 4853TIP3    H114436   1.721   5.848   2.654
 4853TIP3    H214437   1.674   5.875   2.796
 4854TIP3   OH214438   1.586   5.379   3.057
 4854TIP3    H114439   1.617   5.300   3.013
 4854TIP3    H214440   1.667   5.426   3.080
 4855TIP3   OH214441   2.596   4.700   3.053
 4855TIP3    H114442   2.624   4.779   3.099
 4855TIP3    H214443   2.621   4.715   2.962
 4856TIP3   OH214444   1.992   4.879   3.089
 4856TIP3    H114445   2.038   4.798   3.112
 4856TIP3    H214446   1.965   4.866   2.999
 4857TIP3   OH214447   1.329   4.540   3.052
 4857TIP3    H114448   1.313   4.613   2.993
 4857TIP3    H214449   1.286   4.465   3.011
 4858TIP3   OH214450   2.031   4.631   2.676
 4858TIP3    H114451   2.098   4.615   2.742
 4858TIP3    H214452   2.079   4.666   2.601
 4859TIP3   OH214453   0.968   4.740   3.161
 4859TIP3    H114454   1.049   4.720   3.209
 4859TIP3    H214455   0.973   4.685   3.083
 4860TIP3   OH214456   1.407   4.937   2.958
 4860TIP3    H114457   1.500   4.915   2.968
 4860TIP3    H214458   1.368   4.857   2.923
 4861TIP3   OH214459   2.666   4.904   3.229
 4861TIP3    H114460   2.586   4.952   3.209
 4861TIP3    H214461   2.696   4.940   3.313
 4862TIP3   OH214462   1.327   4.524   3.489
 4862TIP3    H114463   1.270   4.558   3.420
 4862TIP3    H214464   1.279   4.539   3.570
 4863TIP3   OH214465   1.673   5.372   2.500
 4863TIP3    H114466   1.637   5.350   2.414
 4863TIP3    H214467   1.632   5.456   2.522
 4864TIP3   OH214468   1.438   5.300   3.283
 4864TIP3    H114469   1.380   5.365   3.324
 4864TIP3    H214470   1.481   5.347   3.212
 4865TIP3   OH214471   2.238   4.633   2.850
 4865TIP3    H114472   2.233   4.582   2.932
 4865TIP3    H214473   2.293   4.708   2.872
 4866TIP3   OH214474   1.203   4.639   3.272
 4866TIP3    H114475   1.263   4.709   3.297
 4866TIP3    H214476   1.246   4.595   3.199
 4867TIP3   OH214477   1.263   5.488   3.394
 4867TIP3    H114478   1.224   5.565   3.351
 4867TIP3    H214479   1.189   5.442   3.433
 4868TIP3   OH214480   0.663   5.182   2.616
 4868TIP3    H114481   0.614   5.205   2.537
 4868TIP3    H214482   0.688   5.267   2.654
 4869TIP3   OH214483   2.095   5.700   2.861
 4869TIP3    H114484   2.007   5.688   2.897
 4869TIP3    H214485   2.090   5.782   2.813
 4870TIP3   OH214486   2.389   4.597   3.218
 4870TIP3    H114487   2.303   4.628   3.190
 4870TIP3    H214488   2.449   4.630   3.151
 4871TIP3   OH214489   1.685   4.241   3.203
 4871TIP3    H114490   1.675   4.147   3.219
 4871TIP3    H214491   1.611   4.280   3.248
 4872TIP3   OH214492   1.801   5.745   2.529
 4872TIP3    H114493   1.845   5.662   2.513
 4872TIP3    H214494   1.859   5.811   2.491
 4873TIP3   OH214495   1.940   5.529   2.439
 4873TIP3    H114496   1.916   5.450   2.391
 4873TIP3    H214497   1.975   5.496   2.522
 4874TIP3   OH214498   2.322   5.612   3.199
 4874TIP3    H114499   2.315   5.533   3.145
 4874TIP3    H214500   2.313   5.684   3.136
 4875TIP3   OH214501   1.616   5.006   2.457
 4875TIP3    H114502   1.537   5.056   2.434
 4875TIP3    H214503   1.665   5.001   2.375
 4876TIP3   OH214504   1.578   4.789   2.175
 4876TIP3    H114505   1.642   4.840   2.224
 4876TIP3    H214506   1.630   4.724   2.127
 4877TIP3   OH214507   2.510   5.234   3.029
 4877TIP3    H114508   2.437   5.293   3.047
 4877TIP3    H214509   2.546   5.265   2.946
 4878TIP3   OH214510   1.961   5.087   2.433
 4878TIP3    H114511   1.910   5.111   2.510
 4878TIP3    H214512   2.046   5.060   2.469
 4879TIP3   OH214513   2.196   5.127   3.342
 4879TIP3    H114514   2.199   5.209   3.392
 4879TIP3    H214515   2.113   5.131   3.296
 4880TIP3   OH214516   1.196   5.084   2.846
 4880TIP3    H114517   1.153   5.029   2.781
 4880TIP3    H214518   1.271   5.033   2.876
 4881TIP3   OH214519   1.323   5.491   2.997
 4881TIP3    H114520   1.302   5.453   2.912
 4881TIP3    H214521   1.412   5.461   3.016
 4882TIP3   OH214522   1.331   5.057   3.203
 4882TIP3    H114523   1.361   5.031   3.116
 4882TIP3    H214524   1.376   5.140   3.220
 4883TIP3   OH214525   1.853   5.696   2.979
 4883TIP3    H114526   1.845   5.771   3.037
 4883TIP3    H214527   1.843   5.620   3.037
 4884TIP3   OH214528   1.473   5.614   3.522
 4884TIP3    H114529   1.419   5.676   3.571
 4884TIP3    H214530   1.409   5.558   3.478
 4885TIP3   OH214531   1.804   4.948   2.255
 4885TIP3    H114532   1.862   5.002   2.309
 4885TIP3    H214533   1.829   4.969   2.165
 4886TIP3   OH214534   1.221   5.181   3.624
 4886TIP3    H114535   1.225   5.264   3.671
 4886TIP3    H214536   1.129   5.154   3.632
 4887TIP3   OH214537   1.544   5.629   2.535
 4887TIP3    H114538   1.626   5.677   2.548
 4887TIP3    H214539   1.487   5.692   2.491
 4888TIP3   OH214540   1.273   5.791   3.601
 4888TIP3    H114541   1.246   5.790   3.509
 4888TIP3    H214542   1.194   5.769   3.650
 4889TIP3   OH214543   2.319   4.188   2.304
 4889TIP3    H114544   2.239   4.205   2.355
 4889TIP3    H214545   2.333   4.269   2.255
 4890TIP3   OH214546   1.059   4.928   2.653
 4890TIP3    H114547   0.996   4.971   2.595
 4890TIP3    H214548   1.024   4.841   2.668
 4891TIP3   OH214549   2.121   5.555   1.852
 4891TIP3    H114550   2.128   5.649   1.838
 4891TIP3    H214551   2.210   5.522   1.840
 4892TIP3   OH214552   0.839   5.331   3.541
 4892TIP3    H114553   0.777   5.294   3.479
 4892TIP3    H214554   0.890   5.256   3.572
 4893TIP3   OH214555   0.714   5.516   3.236
 4893TIP3    H114556   0.784   5.507   3.171
 4893TIP3    H214557   0.674   5.601   3.215
 4894TIP3   OH214558   2.554   5.950   3.243
 4894TIP3    H114559   2.566   5.855   3.253
 4894TIP3    H214560   2.475   5.970   3.294
 4895TIP3   OH214561   1.668   5.745   3.382
 4895TIP3    H114562   1.667   5.836   3.413
 4895TIP3    H214563   1.600   5.701   3.433
 4896TIP3   OH214564   1.425   5.871   2.333
 4896TIP3    H114565   1.382   5.851   2.250
 4896TIP3    H214566   1.396   5.959   2.355
 4897TIP3   OH214567   0.866   5.719   2.719
 4897TIP3    H114568   0.914   5.709   2.801
 4897TIP3    H214569   0.812   5.641   2.713
 4898TIP3   OH214570   1.631   5.769   1.975
 4898TIP3    H114571   1.688   5.702   1.937
 4898TIP3    H214572   1.664   5.780   2.064
 4899TIP3   OH214573   1.678   5.820   2.247
 4899TIP3    H114574   1.592   5.828   2.288
 4899TIP3    H214575   1.732   5.777   2.313
 4900TIP3   OH214576   2.450   5.083   3.518
 4900TIP3    H114577   2.374   5.098   3.462
 4900TIP3    H214578   2.469   4.990   3.510
 4901TIP3   OH214579   1.445   4.319   3.330
 4901TIP3    H114580   1.360   4.284   3.304
 4901TIP3    H214581   1.425   4.401   3.376
 4902TIP3   OH214582   1.982   4.432   3.527
 4902TIP3    H114583   2.049   4.406   3.589
 4902TIP3    H214584   1.899   4.413   3.571
 4903TIP3   OH214585   2.217   4.860   3.442
 4903TIP3    H114586   2.173   4.858   3.527
 4903TIP3    H214587   2.199   4.948   3.408
 4904TIP3   OH214588   1.877   4.995   1.998
 4904TIP3    H114589   1.846   4.967   1.912
 4904TIP3    H214590   1.961   5.038   1.979
 4905TIP3   OH214591   1.591   4.367   2.303
 4905TIP3    H114592   1.562   4.368   2.394
 4905TIP3    H214593   1.556   4.285   2.267
 4906TIP3   OH214594   1.378   4.835   3.351
 4906TIP3    H114595   1.330   4.854   3.432
 4906TIP3    H214596   1.365   4.913   3.297
 4907TIP3   OH214597   1.260   4.719   2.862
 4907TIP3    H114598   1.170   4.694   2.882
 4907TIP3    H214599   1.277   4.680   2.777
 4908TIP3   OH214600   1.754   4.806   2.588
 4908TIP3    H114601   1.702   4.876   2.549
 4908TIP3    H214602   1.811   4.776   2.517
 4909TIP3   OH214603   1.929   5.085   3.682
 4909TIP3    H114604   1.906   5.012   3.740
 4909TIP3    H214605   2.023   5.099   3.698
 4910TIP3   OH214606   1.911   4.832   2.827
 4910TIP3    H114607   1.852   4.866   2.759
 4910TIP3    H214608   1.947   4.752   2.790
 4911TIP3   OH214609   1.195   4.863   3.561
 4911TIP3    H114610   1.233   4.920   3.628
 4911TIP3    H214611   1.184   4.779   3.605
 4912TIP3   OH214612   1.246   4.340   2.270
 4912TIP3    H114613   1.242   4.337   2.365
 4912TIP3    H214614   1.169   4.391   2.244
 4913TIP3   OH214615   0.805   4.396   3.121
 4913TIP3    H114616   0.871   4.416   3.188
 4913TIP3    H214617   0.851   4.338   3.059
 4914TIP3   OH214618   0.772   4.367   2.655
 4914TIP3    H114619   0.820   4.402   2.579
 4914TIP3    H214620   0.709   4.435   2.677
 4915TIP3   OH214621   1.918   5.078   3.254
 4915TIP3    H114622   1.952   5.011   3.195
 4915TIP3    H214623   1.892   5.030   3.333
 4916TIP3   OH214624   1.589   4.543   2.927
 4916TIP3    H114625   1.507   4.540   2.978
 4916TIP3    H214626   1.658   4.540   2.993
 4917TIP3   OH214627   1.024   4.597   2.932
 4917TIP3    H114628   0.931   4.606   2.908
 4917TIP3    H214629   1.045   4.506   2.913
 4918TIP3   OH214630   1.295   4.594   2.621
 4918TIP3    H114631   1.388   4.608   2.602
 4918TIP3    H214632   1.250   4.617   2.539
 4919TIP3   OH214633   2.080   4.618   3.130
 4919TIP3    H114634   2.046   4.631   3.219
 4919TIP3    H214635   2.019   4.557   3.089
 4920TIP3   OH214636   1.134   4.628   2.398
 4920TIP3    H114637   1.060   4.584   2.355
 4920TIP3    H214638   1.186   4.663   2.326
 4921TIP3   OH214639   2.284   6.349   3.362
 4921TIP3    H114640   2.217   6.340   3.294
 4921TIP3    H214641   2.363   6.372   3.314
 4922TIP3   OH214642   1.210   5.425   3.765
 4922TIP3    H114643   1.289   5.450   3.813
 4922TIP3    H214644   1.142   5.420   3.833
 4923TIP3   OH214645   1.674   4.868   3.023
 4923TIP3    H114646   1.745   4.832   2.970
 4923TIP3    H214647   1.684   4.827   3.108
 4924TIP3   OH214648   1.199   4.355   2.902
 4924TIP3    H114649   1.164   4.279   2.947
 4924TIP3    H214650   1.250   4.319   2.829
 4925TIP3   OH214651   1.651   4.765   3.315
 4925TIP3    H114652   1.563   4.801   3.327
 4925TIP3    H214653   1.708   4.824   3.363
 4926TIP3   OH214654   1.383   5.159   2.408
 4926TIP3    H114655   1.315   5.093   2.396
 4926TIP3    H214656   1.369   5.192   2.497
 4927TIP3   OH214657   2.286   5.396   3.037
 4927TIP3    H114658   2.314   5.441   2.957
 4927TIP3    H214659   2.205   5.352   3.013
 4928TIP3   OH214660   1.844   4.472   2.267
 4928TIP3    H114661   1.750   4.457   2.277
 4928TIP3    H214662   1.857   4.563   2.293
 4929TIP3   OH214663   1.786   5.475   3.404
 4929TIP3    H114664   1.812   5.449   3.493
 4929TIP3    H214665   1.748   5.563   3.416
 4930TIP3   OH214666   1.920   4.718   2.372
 4930TIP3    H114667   2.014   4.720   2.388
 4930TIP3    H214668   1.903   4.796   2.318
 4931TIP3   OH214669   1.083   5.184   3.083
 4931TIP3    H114670   1.115   5.156   2.997
 4931TIP3    H214671   1.113   5.117   3.144
 4932TIP3   OH214672   1.529   5.308   2.227
 4932TIP3    H114673   1.485   5.393   2.233
 4932TIP3    H214674   1.479   5.251   2.286
 4933TIP3   OH214675   0.945   5.122   3.699
 4933TIP3    H114676   0.976   5.095   3.785
 4933TIP3    H214677   0.889   5.050   3.670
 4934TIP3   OH214678   1.686   5.212   3.715
 4934TIP3    H114679   1.626   5.155   3.667
 4934TIP3    H214680   1.773   5.181   3.691
 4935TIP3   OH214681   1.946   5.748   3.298
 4935TIP3    H114682   1.852   5.734   3.308
 4935TIP3    H214683   1.973   5.791   3.379
 4936TIP3   OH214684   2.328   4.783   2.227
 4936TIP3    H114685   2.276   4.761   2.149
 4936TIP3    H214686   2.378   4.861   2.201
 4937TIP3   OH214687   2.572   5.673   3.282
 4937TIP3    H114688   2.478   5.659   3.279
 4937TIP3    H214689   2.604   5.636   3.200
 4938TIP3   OH214690   2.053   5.625   2.115
 4938TIP3    H114691   2.037   5.554   2.178
 4938TIP3    H214692   2.070   5.580   2.033
 4939TIP3   OH214693   2.051   5.254   2.957
 4939TIP3    H114694   1.959   5.230   2.969
 4939TIP3    H214695   2.090   5.178   2.913
 4940TIP3   OH214696   1.177   5.487   2.714
 4940TIP3    H114697   1.183   5.564   2.657
 4940TIP3    H214698   1.086   5.460   2.710
 4941TIP3   OH214699   0.741   4.789   2.412
 4941TIP3    H114700   0.789   4.869   2.431
 4941TIP3    H214701   0.666   4.791   2.471
 4942TIP3   OH214702   1.316   5.251   2.654
 4942TIP3    H114703   1.286   5.339   2.674
 4942TIP3    H214704   1.284   5.197   2.726
 4943TIP3   OH214705   1.449   5.826   3.180
 4943TIP3    H114706   1.486   5.897   3.128
 4943TIP3    H214707   1.523   5.788   3.227
 4944TIP3   OH214708   1.098   5.724   2.562
 4944TIP3    H114709   1.013   5.730   2.606
 4944TIP3    H214710   1.132   5.814   2.562
 4945TIP3   OH214711   1.841   5.463   3.136
 4945TIP3    H114712   1.830   5.458   3.231
 4945TIP3    H214713   1.917   5.407   3.117
 4946TIP3   OH214714   1.812   5.353   2.023
 4946TIP3    H114715   1.868   5.331   2.097
 4946TIP3    H214716   1.724   5.325   2.050
 4947TIP3   OH214717   2.080   6.009   3.195
 4947TIP3    H114718   2.013   5.941   3.190
 4947TIP3    H214719   2.068   6.061   3.116
 4948TIP3   OH214720   2.151   5.832   1.839
 4948TIP3    H114721   2.194   5.901   1.788
 4948TIP3    H214722   2.071   5.873   1.872
 4949TIP3   OH214723   1.169   4.606   3.705
 4949TIP3    H114724   1.074   4.611   3.716
 4949TIP3    H214725   1.198   4.546   3.774
 4950TIP3   OH214726   1.973   5.290   2.240
 4950TIP3    H114727   1.961   5.222   2.307
 4950TIP3    H214728   2.067   5.288   2.222
 4951TIP3   OH214729   1.176   5.333   2.019
 4951TIP3    H114730   1.193   5.244   1.988
 4951TIP3    H214731   1.158   5.322   2.113
 4952TIP3   OH214732   1.124   5.341   2.293
 4952TIP3    H114733   1.197   5.309   2.346
 4952TIP3    H214734   1.130   5.436   2.299
 4953TIP3   OH214735   0.860   5.035   2.493
 4953TIP3    H114736   0.794   5.075   2.550
 4953TIP3    H214737   0.876   5.101   2.426
 4954TIP3   OH214738   2.005   4.671   3.389
 4954TIP3    H114739   2.086   4.709   3.422
 4954TIP3    H214740   1.993   4.591   3.441
 4955TIP3   OH214741   1.887   4.425   2.549
 4955TIP3    H114742   1.876   4.445   2.456
 4955TIP3    H214743   1.928   4.503   2.586
 4956TIP3   OH214744   1.387   5.539   2.240
 4956TIP3    H114745   1.302   5.565   2.276
 4956TIP3    H214746   1.408   5.606   2.175
 4957TIP3   OH214747   1.579   4.601   2.654
 4957TIP3    H114748   1.642   4.670   2.633
 4957TIP3    H214749   1.582   4.592   2.749
 4958TIP3   OH214750   1.847   4.919   3.463
 4958TIP3    H114751   1.868   4.970   3.541
 4958TIP3    H214752   1.901   4.840   3.470
 4959TIP3   OH214753   1.724   4.331   2.755
 4959TIP3    H114754   1.717   4.403   2.817
 4959TIP3    H214755   1.782   4.363   2.686
 4960TIP3   OH214756   1.131   5.615   2.306
 4960TIP3    H114757   1.102   5.681   2.244
 4960TIP3    H214758   1.116   5.655   2.392
 4961TIP3   OH214759   1.236   4.327   2.546
 4961TIP3    H114760   1.229   4.415   2.582
 4961TIP3    H214761   1.329   4.305   2.552
 4962TIP3   OH214762   2.485   4.817   3.445
 4962TIP3    H114763   2.389   4.814   3.448
 4962TIP3    H214764   2.506   4.788   3.356
 4963TIP3   OH214765   2.138   5.014   2.834
 4963TIP3    H114766   2.065   4.953   2.841
 4963TIP3    H214767   2.211   4.970   2.878
 4964TIP3   OH214768   0.854   5.244   2.297
 4964TIP3    H114769   0.918   5.314   2.310
 4964TIP3    H214770   0.893   5.187   2.232
 4965TIP3   OH214771   0.798   4.520   2.427
 4965TIP3    H114772   0.796   4.615   2.427
 4965TIP3    H214773   0.708   4.494   2.406
 4966TIP3   OH214774   2.106   5.973   2.778
 4966TIP3    H114775   2.062   6.017   2.706
 4966TIP3    H214776   2.199   5.988   2.761
 4967TIP3   OH214777   1.183   4.235   3.306
 4967TIP3    H114778   1.152   4.205   3.221
 4967TIP3    H214779   1.173   4.160   3.364
 4968TIP3   OH214780   0.723   5.471   2.692
 4968TIP3    H114781   0.641   5.488   2.738
 4968TIP3    H214782   0.706   5.498   2.601
 4969TIP3   OH214783   0.884   5.989   3.769
 4969TIP3    H114784   0.969   6.002   3.811
 4969TIP3    H214785   0.848   5.911   3.812
 4970TIP3   OH214786   1.362   5.965   3.801
 4970TIP3    H114787   1.454   5.947   3.821
 4970TIP3    H214788   1.345   5.912   3.723
 4971TIP3   OH214789   1.342   5.535   1.933
 4971TIP3    H114790   1.285   5.468   1.970
 4971TIP3    H214791   1.417   5.487   1.900
 4972TIP3   OH214792   1.998   5.870   3.542
 4972TIP3    H114793   1.985   5.798   3.604
 4972TIP3    H214794   2.081   5.909   3.567
 4973TIP3   OH214795   1.779   5.578   1.842
 4973TIP3    H114796   1.821   5.516   1.902
 4973TIP3    H214797   1.835   5.578   1.764
 4974TIP3   OH214798   1.010   5.404   3.959
 4974TIP3    H114799   1.029   5.310   3.965
 4974TIP3    H214800   0.924   5.407   3.917
 4975TIP3   OH214801   0.988   5.055   2.152
 4975TIP3    H114802   1.038   5.020   2.225
 4975TIP3    H214803   1.051   5.061   2.080
 4976TIP3   OH214804   1.617   5.486   3.732
 4976TIP3    H114805   1.579   5.501   3.645
 4976TIP3    H214806   1.650   5.396   3.728
 4977TIP3   OH214807   1.491   5.250   1.960
 4977TIP3    H114808   1.497   5.267   2.054
 4977TIP3    H214809   1.493   5.155   1.952
 4978TIP3   OH214810   2.109   5.499   3.338
 4978TIP3    H114811   2.185   5.538   3.295
 4978TIP3    H214812   2.038   5.561   3.321
 4979TIP3   OH214813   1.131   5.140   3.939
 4979TIP3    H114814   1.200   5.077   3.919
 4979TIP3    H214815   1.153   5.172   4.026
 4980TIP3   OH214816   1.195   4.957   2.375
 4980TIP3    H114817   1.168   4.917   2.458
 4980TIP3    H214818   1.231   4.884   2.324
 4981TIP3   OH214819   1.460   5.025   3.601
 4981TIP3    H114820   1.386   5.085   3.604
 4981TIP3    H214821   1.512   5.055   3.526
 4982TIP3   OH214822   1.296   4.752   2.213
 4982TIP3    H114823   1.268   4.754   2.121
 4982TIP3    H214824   1.391   4.757   2.209
 4983TIP3   OH214825   1.982   5.425   3.736
 4983TIP3    H114826   2.061   5.402   3.687
 4983TIP3    H214827   1.977   5.359   3.805
 4984TIP3   OH214828   2.109   5.087   1.874
 4984TIP3    H114829   2.094   5.035   1.795
 4984TIP3    H214830   2.080   5.175   1.852
 4985TIP3   OH214831   1.583   4.810   3.728
 4985TIP3    H114832   1.587   4.730   3.676
 4985TIP3    H214833   1.542   4.875   3.671
 4986TIP3   OH214834   1.587   4.598   3.535
 4986TIP3    H114835   1.617   4.637   3.453
 4986TIP3    H214836   1.496   4.574   3.518
 4987TIP3   OH214837   1.617   5.134   3.409
 4987TIP3    H114838   1.700   5.136   3.361
 4987TIP3    H214839   1.563   5.200   3.364
 4988TIP3   OH214840   2.202   5.100   3.791
 4988TIP3    H114841   2.245   5.016   3.801
 4988TIP3    H214842   2.270   5.157   3.754
 4989TIP3   OH214843   2.243   5.356   3.525
 4989TIP3    H114844   2.185   5.406   3.467
 4989TIP3    H214845   2.331   5.370   3.489
 4990TIP3   OH214846   1.460   4.924   3.956
 4990TIP3    H114847   1.394   4.856   3.973
 4990TIP3    H214848   1.498   4.899   3.872
 4991TIP3   OH214849   1.719   4.361   3.601
 4991TIP3    H114850   1.673   4.443   3.580
 4991TIP3    H214851   1.653   4.293   3.590
 4992TIP3   OH214852   1.843   4.867   3.821
 4992TIP3    H114853   1.839   4.854   3.915
 4992TIP3    H214854   1.757   4.841   3.789
 4993TIP3   OH214855   2.087   4.818   3.676
 4993TIP3    H114856   2.012   4.816   3.736
 4993TIP3    H214857   2.161   4.786   3.729
 4994TIP3   OH214858   2.312   4.753   3.827
 4994TIP3    H114859   2.327   4.660   3.844
 4994TIP3    H214860   2.311   4.794   3.914
 4995TIP3   OH214861   1.305   4.702   4.012
 4995TIP3    H114862   1.309   4.614   3.974
 4995TIP3    H214863   1.341   4.691   4.101
 4996TIP3   OH214864   1.816   4.370   3.857
 4996TIP3    H114865   1.883   4.302   3.856
 4996TIP3    H214866   1.775   4.365   3.771
 4997TIP3   OH214867   1.879   4.586   4.018
 4997TIP3    H114868   1.859   4.515   3.956
 4997TIP3    H214869   1.804   4.644   4.012
 4998TIP3   OH214870   1.103   5.818   2.118
 4998TIP3    H114871   1.197   5.810   2.103
 4998TIP3    H214872   1.070   5.864   2.041
 4999TIP3   OH214873   0.583   5.196   2.334
 4999TIP3    H114874   0.675   5.219   2.322
 4999TIP3    H214875   0.575   5.109   2.295
 5000TIP3   OH214876   0.492   5.813   2.749
 5000TIP3    H114877   0.429   5.754   2.708
 5000TIP3    H214878   0.538   5.758   2.813
 5001TIP3   OH214879   0.626   5.669   2.935
 5001TIP3    H114880   0.615   5.585   2.980
 5001TIP3    H214881   0.683   5.720   2.992
 5002TIP3   OH214882   2.357   6.069   2.736
 5002TIP3    H114883   2.390   6.098   2.821
 5002TIP3    H214884   2.422   6.099   2.673
 5003TIP3   OH214885   2.390   6.078   3.024
 5003TIP3    H114886   2.344   5.995   3.012
 5003TIP3    H214887   2.470   6.056   3.071
 5004TIP3   OH214888   2.428   5.767   3.586
 5004TIP3    H114889   2.363   5.766   3.656
 5004TIP3    H214890   2.476   5.848   3.599
 5005TIP3   OH214891   2.248   5.277   2.209
 5005TIP3    H114892   2.319   5.333   2.178
 5005TIP3    H214893   2.283   5.238   2.290
 5006TIP3   OH214894   2.365   5.159   2.420
 5006TIP3    H114895   2.315   5.094   2.469
 5006TIP3    H214896   2.448   5.166   2.466
 5007TIP3   OH214897   2.428   5.527   2.841
 5007TIP3    H114898   2.483   5.461   2.798
 5007TIP3    H214899   2.424   5.599   2.778
 5008TIP3   OH214900   2.263   5.832   3.038
 5008TIP3    H114901   2.190   5.861   3.092
 5008TIP3    H214902   2.222   5.781   2.969
 5009TIP3   OH214903   2.316   5.051   2.056
 5009TIP3    H114904   2.243   5.052   1.993
 5009TIP3    H214905   2.292   5.119   2.120
 5010TIP3   OH214906   2.174   4.717   2.009
 5010TIP3    H114907   2.147   4.757   1.927
 5010TIP3    H214908   2.153   4.625   2.000
 5011TIP3   OH214909   2.187   4.990   2.560
 5011TIP3    H114910   2.204   4.896   2.551
 5011TIP3    H214911   2.180   5.003   2.655
 5012TIP3   OH214912   0.822   5.069   3.305
 5012TIP3    H114913   0.817   5.037   3.215
 5012TIP3    H214914   0.916   5.070   3.324
 5013TIP3   OH214915   2.490   5.415   3.414
 5013TIP3    H114916   2.562   5.352   3.414
 5013TIP3    H214917   2.515   5.480   3.348
 5014TIP3   OH214918   2.675   5.228   3.485
 5014TIP3    H114919   2.596   5.175   3.496
 5014TIP3    H214920   2.743   5.165   3.464
 5015TIP3   OH214921   2.130   4.448   1.995
 5015TIP3    H114922   2.206   4.425   2.048
 5015TIP3    H214923   2.060   4.393   2.029
 5016TIP3   OH214924   2.194   4.709   2.453
 5016TIP3    H114925   2.233   4.623   2.469
 5016TIP3    H214926   2.244   4.744   2.380
 5017TIP3   OH214927   2.354   4.887   2.952
 5017TIP3    H114928   2.436   4.910   2.908
 5017TIP3    H214929   2.364   4.920   3.041
 5018TIP3   OH214930   2.418   5.028   3.186
 5018TIP3    H114931   2.341   5.062   3.231
 5018TIP3    H214932   2.451   5.102   3.134
 5019TIP3   OH214933   1.040   4.757   3.989
 5019TIP3    H114934   1.135   4.750   3.985
 5019TIP3    H214935   1.012   4.673   4.025
 5020TIP3   OH214936   2.873   4.618   3.739
 5020TIP3    H114937   2.930   4.554   3.697
 5020TIP3    H214938   2.842   4.673   3.667
 5021TIP3   OH214939   2.297   4.457   2.498
 5021TIP3    H114940   2.347   4.445   2.578
 5021TIP3    H214941   2.237   4.383   2.494
 5022TIP3   OH214942   1.002   4.444   3.315
 5022TIP3    H114943   1.061   4.369   3.324
 5022TIP3    H214944   1.060   4.520   3.308
 5023TIP3   OH214945   0.810   4.719   3.390
 5023TIP3    H114946   0.847   4.700   3.304
 5023TIP3    H214947   0.841   4.807   3.411
 5024TIP3   OH214948   2.738   4.756   3.549
 5024TIP3    H114949   2.655   4.799   3.566
 5024TIP3    H214950   2.717   4.686   3.487
 5025TIP3   OH214951   2.370   4.390   2.118
 5025TIP3    H114952   2.416   4.319   2.075
 5025TIP3    H214953   2.437   4.458   2.130
 5026TIP3   OH214954   0.785   4.221   2.881
 5026TIP3    H114955   0.699   4.239   2.920
 5026TIP3    H214956   0.790   4.279   2.805
 5027TIP3   OH214957   1.944   5.930   2.392
 5027TIP3    H114958   1.991   5.911   2.310
 5027TIP3    H214959   2.000   5.992   2.438
 5028TIP3   OH214960   1.003   4.305   3.703
 5028TIP3    H114961   0.954   4.299   3.785
 5028TIP3    H214962   0.941   4.343   3.641
 5029TIP3   OH214963   1.217   5.767   3.328
 5029TIP3    H114964   1.173   5.843   3.289
 5029TIP3    H214965   1.304   5.767   3.286
 5030TIP3   OH214966   1.668   6.010   3.468
 5030TIP3    H114967   1.710   6.008   3.554
 5030TIP3    H214968   1.731   6.056   3.412
 5031TIP3   OH214969   1.844   6.158   3.321
 5031TIP3    H114970   1.908   6.106   3.274
 5031TIP3    H214971   1.896   6.213   3.380
 5032TIP3   OH214972   2.639   4.520   3.422
 5032TIP3    H114973   2.550   4.519   3.388
 5032TIP3    H214974   2.671   4.430   3.411
 5033TIP3   OH214975   0.892   6.015   3.345
 5033TIP3    H114976   0.804   6.047   3.327
 5033TIP3    H214977   0.914   6.051   3.430
 5034TIP3   OH214978   1.131   5.998   3.206
 5034TIP3    H114979   1.047   6.012   3.251
 5034TIP3    H214980   1.117   6.031   3.118
 5035TIP3   OH214981   1.558   6.029   3.007
 5035TIP3    H114982   1.494   6.047   2.938
 5035TIP3    H214983   1.574   6.115   3.047
 5036TIP3   OH214984   1.828   5.973   3.059
 5036TIP3    H114985   1.736   5.984   3.036
 5036TIP3    H214986   1.873   6.042   3.010
 5037TIP3   OH214987   2.037   6.160   2.969
 5037TIP3    H114988   2.023   6.243   2.923
 5037TIP3    H214989   2.064   6.099   2.900
 5038TIP3   OH214990   0.815   5.812   3.090
 5038TIP3    H114991   0.856   5.834   3.174
 5038TIP3    H214992   0.884   5.769   3.040
 5039TIP3   OH214993   1.007   5.683   2.953
 5039TIP3    H114994   1.025   5.599   2.996
 5039TIP3    H214995   1.094   5.723   2.943
 5040TIP3   OH214996   1.271   5.779   2.956
 5040TIP3    H114997   1.301   5.691   2.934
 5040TIP3    H214998   1.315   5.801   3.038
 5041TIP3   OH214999   1.844   4.434   3.039
 5041TIP3    H115000   1.802   4.367   3.093
 5041TIP3    H215001   1.917   4.390   2.997
 5042TIP3   OH215002   2.368   4.317   2.947
 5042TIP3    H115003   2.407   4.366   2.875
 5042TIP3    H215004   2.275   4.336   2.941
 5043TIP3   OH215005   2.468   4.416   2.710
 5043TIP3    H115006   2.536   4.361   2.672
 5043TIP3    H215007   2.498   4.506   2.696
 5044TIP3   OH215008   1.094   4.143   3.058
 5044TIP3    H115009   1.003   4.111   3.059
 5044TIP3    H215010   1.147   4.063   3.055
 5045TIP3   OH215011   0.875   4.017   2.702
 5045TIP3    H115012   0.908   4.074   2.633
 5045TIP3    H215013   0.847   4.076   2.772
 5046TIP3   OH215014   1.538   4.179   2.938
 5046TIP3    H115015   1.595   4.227   2.878
 5046TIP3    H215016   1.558   4.215   3.025
 5047TIP3   OH215017   2.084   4.323   2.924
 5047TIP3    H115018   2.084   4.290   2.834
 5047TIP3    H215019   2.071   4.244   2.977
 5048TIP3   OH215020   2.112   4.244   2.485
 5048TIP3    H115021   2.028   4.289   2.495
 5048TIP3    H215022   2.100   4.160   2.530
 5049TIP3   OH215023   0.598   5.583   2.482
 5049TIP3    H115024   0.515   5.544   2.454
 5049TIP3    H215025   0.585   5.677   2.470
 5050TIP3   OH215026   1.000   4.176   2.467
 5050TIP3    H115027   1.047   4.113   2.412
 5050TIP3    H215028   1.069   4.230   2.505
 5051TIP3   OH215029   1.513   4.351   2.570
 5051TIP3    H115030   1.570   4.301   2.628
 5051TIP3    H215031   1.531   4.442   2.591
 5052TIP3   OH215032   1.372   5.774   2.064
 5052TIP3    H115033   1.459   5.798   2.033
 5052TIP3    H215034   1.346   5.700   2.009
 5053TIP3   OH215035   2.086   5.890   2.159
 5053TIP3    H115036   2.080   5.795   2.149
 5053TIP3    H215037   2.044   5.925   2.080
 5054TIP3   OH215038   1.304   4.427   3.953
 5054TIP3    H115039   1.268   4.356   4.006
 5054TIP3    H215040   1.397   4.429   3.975
 5055TIP3   OH215041   1.553   4.422   4.069
 5055TIP3    H115042   1.636   4.400   4.027
 5055TIP3    H215043   1.539   4.354   4.135
 5056TIP3   OH215044   0.677   5.615   2.125
 5056TIP3    H115045   0.672   5.634   2.219
 5056TIP3    H215046   0.762   5.573   2.114
 5057TIP3   OH215047   2.378   4.483   3.857
 5057TIP3    H115048   2.395   4.453   3.946
 5057TIP3    H215049   2.464   4.480   3.814
 5058TIP3   OH215050   2.309   6.038   3.354
 5058TIP3    H115051   2.237   6.002   3.304
 5058TIP3    H215052   2.311   6.131   3.332
 5059TIP3   OH215053   3.577   5.411   2.119
 5059TIP3    H115054   3.554   5.501   2.097
 5059TIP3    H215055   3.505   5.359   2.083
 5060TIP3   OH215056   3.573   5.412   2.500
 5060TIP3    H115057   3.611   5.378   2.581
 5060TIP3    H215058   3.540   5.335   2.454
 5061TIP3   OH215059   2.881   5.306   2.862
 5061TIP3    H115060   2.907   5.242   2.928
 5061TIP3    H215061   2.950   5.371   2.862
 5062TIP3   OH215062   3.822   5.714   2.177
 5062TIP3    H115063   3.812   5.637   2.233
 5062TIP3    H215064   3.851   5.784   2.236
 5063TIP3   OH215065   2.851   5.712   2.588
 5063TIP3    H115066   2.840   5.617   2.588
 5063TIP3    H215067   2.946   5.725   2.583
 5064TIP3   OH215068   2.623   5.202   2.540
 5064TIP3    H115069   2.666   5.125   2.577
 5064TIP3    H215070   2.668   5.219   2.458
 5065TIP3   OH215071   3.474   6.172   2.194
 5065TIP3    H115072   3.518   6.104   2.143
 5065TIP3    H215073   3.467   6.135   2.282
 5066TIP3   OH215074   3.382   5.636   2.542
 5066TIP3    H115075   3.413   5.556   2.500
 5066TIP3    H215076   3.463   5.683   2.566
 5067TIP3   OH215077   4.397   4.955   2.543
 5067TIP3    H115078   4.422   5.037   2.585
 5067TIP3    H215079   4.402   4.973   2.449
 5068TIP3   OH215080   3.782   5.131   2.582
 5068TIP3    H115081   3.830   5.049   2.597
 5068TIP3    H215082   3.770   5.134   2.487
 5069TIP3   OH215083   3.126   4.802   2.539
 5069TIP3    H115084   3.097   4.868   2.476
 5069TIP3    H215085   3.098   4.719   2.501
 5070TIP3   OH215086   3.834   4.892   2.159
 5070TIP3    H115087   3.901   4.868   2.223
 5070TIP3    H215088   3.876   4.959   2.105
 5071TIP3   OH215089   2.757   4.985   2.639
 5071TIP3    H115090   2.843   4.969   2.679
 5071TIP3    H215091   2.760   4.937   2.557
 5072TIP3   OH215092   3.202   5.189   2.438
 5072TIP3    H115093   3.293   5.166   2.451
 5072TIP3    H215094   3.160   5.108   2.409
 5073TIP3   OH215095   4.466   5.166   2.713
 5073TIP3    H115096   4.385   5.210   2.689
 5073TIP3    H215097   4.478   5.187   2.805
 5074TIP3   OH215098   3.123   4.780   2.976
 5074TIP3    H115099   3.068   4.817   2.906
 5074TIP3    H215100   3.075   4.799   3.056
 5075TIP3   OH215101   3.475   5.634   1.983
 5075TIP3    H115102   3.431   5.605   1.904
 5075TIP3    H215103   3.430   5.716   2.007
 5076TIP3   OH215104   3.232   5.556   2.771
 5076TIP3    H115105   3.170   5.616   2.812
 5076TIP3    H215106   3.273   5.607   2.701
 5077TIP3   OH215107   4.037   4.877   2.340
 5077TIP3    H115108   4.023   4.848   2.430
 5077TIP3    H215109   4.083   4.960   2.349
 5078TIP3   OH215110   2.997   4.895   2.758
 5078TIP3    H115111   3.053   4.968   2.785
 5078TIP3    H215112   3.043   4.856   2.684
 5079TIP3   OH215113   3.057   5.748   2.871
 5079TIP3    H115114   3.029   5.832   2.833
 5079TIP3    H215115   2.986   5.725   2.931
 5080TIP3   OH215116   2.455   5.439   2.104
 5080TIP3    H115117   2.415   5.465   2.020
 5080TIP3    H215118   2.488   5.521   2.141
 5081TIP3   OH215119   3.894   5.957   2.348
 5081TIP3    H115120   3.807   5.944   2.386
 5081TIP3    H215121   3.887   6.039   2.300
 5082TIP3   OH215122   4.184   4.857   2.706
 5082TIP3    H115123   4.097   4.882   2.678
 5082TIP3    H215124   4.242   4.887   2.636
 5083TIP3   OH215125   3.486   4.500   2.697
 5083TIP3    H115126   3.470   4.406   2.701
 5083TIP3    H215127   3.409   4.539   2.737
 5084TIP3   OH215128   3.600   6.001   2.017
 5084TIP3    H115129   3.644   5.918   2.001
 5084TIP3    H215130   3.657   6.067   1.978
 5085TIP3   OH215131   3.739   5.785   1.925
 5085TIP3    H115132   3.700   5.707   1.886
 5085TIP3    H215133   3.775   5.754   2.009
 5086TIP3   OH215134   4.121   5.868   2.685
 5086TIP3    H115135   4.109   5.790   2.631
 5086TIP3    H215136   4.105   5.941   2.625
 5087TIP3   OH215137   3.412   5.264   1.943
 5087TIP3    H115138   3.332   5.312   1.921
 5087TIP3    H215139   3.461   5.261   1.861
 5088TIP3   OH215140   3.373   5.048   1.658
 5088TIP3    H115141   3.436   5.096   1.712
 5088TIP3    H215142   3.427   4.982   1.614
 5089TIP3   OH215143   4.316   5.509   2.533
 5089TIP3    H115144   4.232   5.555   2.540
 5089TIP3    H215145   4.345   5.527   2.444
 5090TIP3   OH215146   3.755   5.349   1.919
 5090TIP3    H115147   3.710   5.370   2.001
 5090TIP3    H215148   3.829   5.293   1.945
 5091TIP3   OH215149   3.993   5.385   2.827
 5091TIP3    H115150   3.990   5.467   2.875
 5091TIP3    H215151   3.909   5.382   2.781
 5092TIP3   OH215152   2.993   5.340   2.329
 5092TIP3    H115153   2.947   5.282   2.268
 5092TIP3    H215154   3.066   5.287   2.361
 5093TIP3   OH215155   3.125   5.756   2.480
 5093TIP3    H115156   3.099   5.709   2.401
 5093TIP3    H215157   3.212   5.722   2.501
 5094TIP3   OH215158   3.133   5.311   2.686
 5094TIP3    H115159   3.163   5.290   2.597
 5094TIP3    H215160   3.172   5.396   2.706
 5095TIP3   OH215161   3.652   5.951   2.466
 5095TIP3    H115162   3.641   6.027   2.523
 5095TIP3    H215163   3.640   5.876   2.524
 5096TIP3   OH215164   3.262   5.874   3.008
 5096TIP3    H115165   3.206   5.932   3.058
 5096TIP3    H215166   3.201   5.816   2.962
 5097TIP3   OH215167   3.604   5.202   1.744
 5097TIP3    H115168   3.660   5.257   1.799
 5097TIP3    H215169   3.629   5.224   1.655
 5098TIP3   OH215170   3.342   5.883   2.017
 5098TIP3    H115171   3.422   5.933   2.036
 5098TIP3    H215172   3.282   5.947   1.980
 5099TIP3   OH215173   3.056   6.043   3.098
 5099TIP3    H115174   3.026   6.036   3.008
 5099TIP3    H215175   2.980   6.020   3.151
 5100TIP3   OH215176   4.112   4.443   1.788
 5100TIP3    H115177   4.035   4.458   1.844
 5100TIP3    H215178   4.131   4.528   1.749
 5101TIP3   OH215179   2.857   5.172   2.140
 5101TIP3    H115180   2.785   5.208   2.088
 5101TIP3    H215181   2.826   5.087   2.169
 5102TIP3   OH215182   3.916   5.811   1.337
 5102TIP3    H115183   3.922   5.906   1.325
 5102TIP3    H215184   4.006   5.780   1.326
 5103TIP3   OH215185   2.640   5.573   3.039
 5103TIP3    H115186   2.579   5.542   2.971
 5103TIP3    H215187   2.670   5.493   3.083
 5104TIP3   OH215188   2.494   5.763   2.678
 5104TIP3    H115189   2.587   5.744   2.665
 5104TIP3    H215190   2.493   5.839   2.737
 5105TIP3   OH215191   4.355   6.210   2.733
 5105TIP3    H115192   4.358   6.115   2.744
 5105TIP3    H215193   4.275   6.237   2.778
 5106TIP3   OH215194   3.461   6.001   2.869
 5106TIP3    H115195   3.463   6.091   2.900
 5106TIP3    H215196   3.392   5.959   2.920
 5107TIP3   OH215197   3.222   6.129   1.819
 5107TIP3    H115198   3.178   6.108   1.737
 5107TIP3    H215199   3.191   6.216   1.842
 5108TIP3   OH215200   2.662   5.975   2.207
 5108TIP3    H115201   2.710   5.968   2.289
 5108TIP3    H215202   2.609   5.895   2.204
 5109TIP3   OH215203   3.428   6.027   1.462
 5109TIP3    H115204   3.484   5.959   1.425
 5109TIP3    H215205   3.459   6.038   1.552
 5110TIP3   OH215206   3.474   6.075   1.733
 5110TIP3    H115207   3.387   6.085   1.774
 5110TIP3    H215208   3.527   6.033   1.801
 5111TIP3   OH215209   4.247   5.342   3.006
 5111TIP3    H115210   4.167   5.357   2.955
 5111TIP3    H215211   4.264   5.249   2.998
 5112TIP3   OH215212   2.853   5.741   3.057
 5112TIP3    H115213   2.906   5.693   3.121
 5112TIP3    H215214   2.777   5.685   3.043
 5113TIP3   OH215215   3.241   4.574   2.818
 5113TIP3    H115216   3.155   4.543   2.790
 5113TIP3    H215217   3.223   4.658   2.861
 5114TIP3   OH215218   3.777   4.689   3.014
 5114TIP3    H115219   3.843   4.662   3.077
 5114TIP3    H215220   3.693   4.670   3.056
 5115TIP3   OH215221   4.019   5.121   2.934
 5115TIP3    H115222   3.968   5.116   3.015
 5115TIP3    H215223   3.992   5.204   2.894
 5116TIP3   OH215224   3.673   5.249   1.484
 5116TIP3    H115225   3.643   5.222   1.397
 5116TIP3    H215226   3.754   5.296   1.467
 5117TIP3   OH215227   3.389   4.623   1.790
 5117TIP3    H115228   3.360   4.626   1.881
 5117TIP3    H215229   3.352   4.542   1.755
 5118TIP3   OH215230   3.172   5.092   2.840
 5118TIP3    H115231   3.124   5.113   2.920
 5118TIP3    H215232   3.159   5.169   2.784
 5119TIP3   OH215233   3.043   4.965   2.341
 5119TIP3    H115234   2.949   4.949   2.340
 5119TIP3    H215235   3.075   4.927   2.259
 5120TIP3   OH215236   3.549   5.062   2.073
 5120TIP3    H115237   3.498   5.133   2.035
 5120TIP3    H215238   3.613   5.040   2.006
 5121TIP3   OH215239   3.726   5.341   3.169
 5121TIP3    H115240   3.700   5.269   3.226
 5121TIP3    H215241   3.820   5.353   3.186
 5122TIP3   OH215242   3.699   5.085   2.316
 5122TIP3    H115243   3.647   5.121   2.244
 5122TIP3    H215244   3.741   5.007   2.278
 5123TIP3   OH215245   2.995   5.127   3.051
 5123TIP3    H115246   3.009   5.202   3.109
 5123TIP3    H215247   2.991   5.052   3.109
 5124TIP3   OH215248   3.041   4.595   1.757
 5124TIP3    H115249   3.039   4.593   1.853
 5124TIP3    H215250   2.967   4.651   1.733
 5125TIP3   OH215251   2.598   4.635   2.627
 5125TIP3    H115252   2.661   4.671   2.690
 5125TIP3    H215253   2.638   4.652   2.542
 5126TIP3   OH215254   3.722   5.335   2.742
 5126TIP3    H115255   3.749   5.266   2.682
 5126TIP3    H215256   3.689   5.289   2.819
 5127TIP3   OH215257   3.384   4.793   2.413
 5127TIP3    H115258   3.301   4.797   2.460
 5127TIP3    H215259   3.451   4.803   2.481
 5128TIP3   OH215260   3.098   4.846   2.104
 5128TIP3    H115261   3.187   4.870   2.078
 5128TIP3    H215262   3.043   4.873   2.030
 5129TIP3   OH215263   3.882   4.870   2.618
 5129TIP3    H115264   3.845   4.887   2.705
 5129TIP3    H215265   3.817   4.814   2.575
 5130TIP3   OH215266   2.935   4.883   1.885
 5130TIP3    H115267   2.858   4.844   1.845
 5130TIP3    H215268   2.985   4.918   1.811
 5131TIP3   OH215269   4.048   6.565   2.831
 5131TIP3    H115270   4.045   6.584   2.737
 5131TIP3    H215271   4.126   6.610   2.862
 5132TIP3   OH215272   3.472   5.122   2.506
 5132TIP3    H115273   3.547   5.094   2.455
 5132TIP3    H215274   3.485   5.083   2.593
 5133TIP3   OH215275   3.043   4.589   2.398
 5133TIP3    H115276   2.975   4.531   2.432
 5133TIP3    H215277   3.024   4.594   2.304
 5134TIP3   OH215278   3.445   5.020   2.807
 5134TIP3    H115279   3.357   5.058   2.814
 5134TIP3    H215280   3.502   5.083   2.850
 5135TIP3   OH215281   3.179   5.415   1.894
 5135TIP3    H115282   3.112   5.348   1.883
 5135TIP3    H215283   3.166   5.448   1.983
 5136TIP3   OH215284   4.083   5.650   2.523
 5136TIP3    H115285   4.106   5.698   2.443
 5136TIP3    H215286   3.999   5.608   2.503
 5137TIP3   OH215287   3.640   4.735   1.742
 5137TIP3    H115288   3.548   4.720   1.764
 5137TIP3    H215289   3.659   4.822   1.779
 5138TIP3   OH215290   3.592   5.738   2.891
 5138TIP3    H115291   3.598   5.703   2.980
 5138TIP3    H215292   3.542   5.820   2.902
 5139TIP3   OH215293   3.729   4.977   1.851
 5139TIP3    H115294   3.816   5.003   1.883
 5139TIP3    H215295   3.697   5.055   1.805
 5140TIP3   OH215296   2.880   5.439   2.570
 5140TIP3    H115297   2.911   5.407   2.486
 5140TIP3    H215298   2.911   5.375   2.634
 5141TIP3   OH215299   3.323   5.563   1.713
 5141TIP3    H115300   3.280   5.648   1.719
 5141TIP3    H215301   3.274   5.507   1.772
 5142TIP3   OH215302   2.702   5.373   3.209
 5142TIP3    H115303   2.797   5.381   3.212
 5142TIP3    H215304   2.687   5.285   3.174
 5143TIP3   OH215305   3.482   5.469   3.204
 5143TIP3    H115306   3.417   5.413   3.162
 5143TIP3    H215307   3.566   5.435   3.174
 5144TIP3   OH215308   3.743   6.004   2.784
 5144TIP3    H115309   3.649   5.988   2.796
 5144TIP3    H215310   3.770   6.048   2.864
 5145TIP3   OH215311   4.175   5.059   1.661
 5145TIP3    H115312   4.095   5.017   1.631
 5145TIP3    H215313   4.160   5.152   1.647
 5146TIP3   OH215314   4.370   5.921   2.773
 5146TIP3    H115315   4.274   5.917   2.770
 5146TIP3    H215316   4.399   5.891   2.687
 5147TIP3   OH215317   3.851   5.881   1.603
 5147TIP3    H115318   3.829   5.813   1.667
 5147TIP3    H215319   3.865   5.833   1.521
 5148TIP3   OH215320   3.844   5.518   2.450
 5148TIP3    H115321   3.751   5.496   2.459
 5148TIP3    H215322   3.885   5.438   2.416
 5149TIP3   OH215323   2.974   5.741   2.195
 5149TIP3    H115324   2.976   5.820   2.141
 5149TIP3    H215325   2.881   5.719   2.203
 5150TIP3   OH215326   2.533   5.057   1.892
 5150TIP3    H115327   2.585   5.132   1.921
 5150TIP3    H215328   2.462   5.051   1.956
 5151TIP3   OH215329   3.115   5.508   2.140
 5151TIP3    H115330   3.081   5.595   2.160
 5151TIP3    H215331   3.082   5.452   2.210
 5152TIP3   OH215332   3.246   6.085   2.666
 5152TIP3    H115333   3.287   6.154   2.614
 5152TIP3    H215334   3.319   6.045   2.714
 5153TIP3   OH215335   2.893   5.981   2.047
 5153TIP3    H115336   2.809   5.986   2.094
 5153TIP3    H215337   2.927   6.071   2.049
 5154TIP3   OH215338   3.638   5.719   2.623
 5154TIP3    H115339   3.629   5.717   2.718
 5154TIP3    H215340   3.711   5.660   2.604
 5155TIP3   OH215341   3.608   5.608   1.509
 5155TIP3    H115342   3.663   5.585   1.584
 5155TIP3    H215343   3.519   5.584   1.536
 5156TIP3   OH215344   3.881   6.254   2.676
 5156TIP3    H115345   3.807   6.193   2.672
 5156TIP3    H215346   3.865   6.315   2.603
 5157TIP3   OH215347   3.947   6.088   1.325
 5157TIP3    H115348   3.989   6.157   1.274
 5157TIP3    H215349   3.867   6.129   1.359
 5158TIP3   OH215350   2.969   4.859   3.195
 5158TIP3    H115351   2.874   4.867   3.206
 5158TIP3    H215352   2.997   4.800   3.266
 5159TIP3   OH215353   3.770   5.541   1.723
 5159TIP3    H115354   3.755   5.479   1.794
 5159TIP3    H215355   3.865   5.541   1.711
 5160TIP3   OH215356   2.681   5.948   2.828
 5160TIP3    H115357   2.729   5.867   2.846
 5160TIP3    H215358   2.719   6.012   2.888
 5161TIP3   OH215359   2.973   5.589   1.506
 5161TIP3    H115360   2.989   5.499   1.476
 5161TIP3    H215361   2.955   5.580   1.600
 5162TIP3   OH215362   2.920   5.597   1.778
 5162TIP3    H115363   2.989   5.564   1.835
 5162TIP3    H215364   2.926   5.692   1.787
 5163TIP3   OH215365   2.656   5.292   1.982
 5163TIP3    H115366   2.592   5.331   2.042
 5163TIP3    H215367   2.673   5.361   1.917
 5164TIP3   OH215368   3.803   4.927   2.876
 5164TIP3    H115369   3.884   4.963   2.913
 5164TIP3    H215370   3.788   4.847   2.926
 5165TIP3   OH215371   3.692   4.683   2.036
 5165TIP3    H115372   3.676   4.708   1.945
 5165TIP3    H215373   3.733   4.760   2.076
 5166TIP3   OH215374   3.183   5.796   1.725
 5166TIP3    H115375   3.099   5.820   1.763
 5166TIP3    H215376   3.204   5.867   1.664
 5167TIP3   OH215377   3.382   4.854   2.139
 5167TIP3    H115378   3.443   4.926   2.122
 5167TIP3    H215379   3.381   4.847   2.235
 5168TIP3   OH215380   3.644   5.177   2.947
 5168TIP3    H115381   3.661   5.229   3.026
 5168TIP3    H215382   3.696   5.098   2.959
 5169TIP3   OH215383   3.521   4.587   2.242
 5169TIP3    H115384   3.506   4.661   2.301
 5169TIP3    H215385   3.579   4.623   2.174
 5170TIP3   OH215386   2.927   5.872   1.794
 5170TIP3    H115387   2.898   5.938   1.731
 5170TIP3    H215388   2.912   5.911   1.879
 5171TIP3   OH215389   3.030   4.584   2.033
 5171TIP3    H115390   3.017   4.672   2.068
 5171TIP3    H215391   3.123   4.567   2.043
 5172TIP3   OH215392   4.283   5.074   2.926
 5172TIP3    H115393   4.189   5.076   2.939
 5172TIP3    H215394   4.295   5.036   2.839
 5173TIP3   OH215395   3.930   5.278   2.354
 5173TIP3    H115396   3.875   5.226   2.296
 5173TIP3    H215397   4.011   5.227   2.364
 5174TIP3   OH215398   2.649   5.503   1.782
 5174TIP3    H115399   2.715   5.571   1.796
 5174TIP3    H215400   2.689   5.444   1.719
 5175TIP3   OH215401   2.582   4.777   1.868
 5175TIP3    H115402   2.601   4.866   1.897
 5175TIP3    H215403   2.535   4.738   1.942
 5176TIP3   OH215404   3.903   6.230   2.265
 5176TIP3    H115405   3.858   6.274   2.193
 5176TIP3    H215406   3.996   6.244   2.247
 5177TIP3   OH215407   2.977   4.494   2.794
 5177TIP3    H115408   2.947   4.466   2.708
 5177TIP3    H215409   2.967   4.417   2.850
 5178TIP3   OH215410   2.521   5.724   2.176
 5178TIP3    H115411   2.445   5.746   2.229
 5178TIP3    H215412   2.498   5.755   2.088
 5179TIP3   OH215413   2.677   6.247   3.242
 5179TIP3    H115414   2.762   6.250   3.287
 5179TIP3    H215415   2.656   6.154   3.236
 5180TIP3   OH215416   3.156   6.222   3.285
 5180TIP3    H115417   3.247   6.198   3.300
 5180TIP3    H215418   3.128   6.164   3.214
 5181TIP3   OH215419   3.137   5.792   1.419
 5181TIP3    H115420   3.079   5.726   1.457
 5181TIP3    H215421   3.214   5.742   1.389
 5182TIP3   OH215422   3.794   6.127   3.026
 5182TIP3    H115423   3.784   6.057   3.090
 5182TIP3    H215424   3.872   6.174   3.054
 5183TIP3   OH215425   3.575   5.834   1.329
 5183TIP3    H115426   3.617   5.772   1.389
 5183TIP3    H215427   3.632   5.835   1.252
 5184TIP3   OH215428   2.798   5.675   3.453
 5184TIP3    H115429   2.854   5.599   3.435
 5184TIP3    H215430   2.721   5.661   3.399
 5185TIP3   OH215431   2.784   5.313   1.637
 5185TIP3    H115432   2.830   5.276   1.713
 5185TIP3    H215433   2.850   5.318   1.569
 5186TIP3   OH215434   3.412   5.743   3.216
 5186TIP3    H115435   3.365   5.753   3.133
 5186TIP3    H215436   3.442   5.652   3.215
 5187TIP3   OH215437   3.289   5.507   1.445
 5187TIP3    H115438   3.293   5.524   1.539
 5187TIP3    H215439   3.288   5.412   1.438
 5188TIP3   OH215440   3.908   5.754   2.827
 5188TIP3    H115441   3.979   5.799   2.781
 5188TIP3    H215442   3.831   5.809   2.814
 5189TIP3   OH215443   2.992   5.212   1.864
 5189TIP3    H115444   2.960   5.176   1.947
 5189TIP3    H215445   3.025   5.137   1.816
 5190TIP3   OH215446   3.272   5.280   3.098
 5190TIP3    H115447   3.194   5.331   3.120
 5190TIP3    H215448   3.304   5.317   3.016
 5191TIP3   OH215449   3.092   5.009   1.696
 5191TIP3    H115450   3.064   5.013   1.605
 5191TIP3    H215451   3.188   5.016   1.693
 5192TIP3   OH215452   3.781   5.683   3.226
 5192TIP3    H115453   3.855   5.656   3.172
 5192TIP3    H215454   3.771   5.615   3.292
 5193TIP3   OH215455   3.909   5.342   1.359
 5193TIP3    H115456   3.888   5.293   1.280
 5193TIP3    H215457   3.879   5.431   1.341
 5194TIP3   OH215458   3.388   5.062   3.211
 5194TIP3    H115459   3.384   4.985   3.155
 5194TIP3    H215460   3.346   5.131   3.161
 5195TIP3   OH215461   3.383   4.850   3.020
 5195TIP3    H115462   3.412   4.895   2.940
 5195TIP3    H215463   3.291   4.830   3.004
 5196TIP3   OH215464   3.417   5.397   2.895
 5196TIP3    H115465   3.495   5.398   2.840
 5196TIP3    H215466   3.357   5.458   2.852
 5197TIP3   OH215467   3.998   5.356   3.279
 5197TIP3    H115468   4.042   5.272   3.285
 5197TIP3    H215469   4.063   5.415   3.241
 5198TIP3   OH215470   4.038   5.613   3.015
 5198TIP3    H115471   3.977   5.661   2.958
 5198TIP3    H215472   4.124   5.628   2.976
 5199TIP3   OH215473   3.273   5.173   3.452
 5199TIP3    H115474   3.189   5.129   3.461
 5199TIP3    H215475   3.298   5.161   3.361
 5200TIP3   OH215476   3.515   4.618   3.089
 5200TIP3    H115477   3.470   4.699   3.066
 5200TIP3    H215478   3.449   4.550   3.077
 5201TIP3   OH215479   3.640   5.122   3.307
 5201TIP3    H115480   3.629   5.111   3.402
 5201TIP3    H215481   3.556   5.098   3.270
 5202TIP3   OH215482   3.883   5.073   3.163
 5202TIP3    H115483   3.807   5.074   3.221
 5202TIP3    H215484   3.954   5.041   3.218
 5203TIP3   OH215485   4.114   5.011   3.314
 5203TIP3    H115486   4.124   4.917   3.331
 5203TIP3    H215487   4.108   5.050   3.402
 5204TIP3   OH215488   3.091   4.960   3.502
 5204TIP3    H115489   3.106   4.874   3.461
 5204TIP3    H215490   3.131   4.952   3.589
 5205TIP3   OH215491   3.611   4.624   3.346
 5205TIP3    H115492   3.679   4.556   3.341
 5205TIP3    H215493   3.571   4.623   3.259
 5206TIP3   OH215494   3.676   4.840   3.506
 5206TIP3    H115495   3.655   4.772   3.442
 5206TIP3    H215496   3.603   4.901   3.501
 5207TIP3   OH215497   2.899   6.074   1.604
 5207TIP3    H115498   2.993   6.066   1.589
 5207TIP3    H215499   2.866   6.121   1.527
 5208TIP3   OH215500   2.380   5.454   1.819
 5208TIP3    H115501   2.472   5.477   1.808
 5208TIP3    H215502   2.372   5.366   1.782
 5209TIP3   OH215503   2.290   6.063   2.237
 5209TIP3    H115504   2.224   6.003   2.201
 5209TIP3    H215505   2.336   6.010   2.302
 5210TIP3   OH215506   2.425   5.920   2.427
 5210TIP3    H115507   2.418   5.841   2.481
 5210TIP3    H215508   2.480   5.979   2.479
 5211TIP3   OH215509   4.155   6.321   2.222
 5211TIP3    H115510   4.184   6.350   2.309
 5211TIP3    H215511   4.218   6.360   2.162
 5212TIP3   OH215512   4.186   6.335   2.506
 5212TIP3    H115513   4.139   6.252   2.498
 5212TIP3    H215514   4.261   6.315   2.562
 5213TIP3   OH215515   4.231   6.016   3.078
 5213TIP3    H115516   4.158   6.021   3.141
 5213TIP3    H215517   4.272   6.102   3.083
 5214TIP3   OH215518   4.049   5.528   1.701
 5214TIP3    H115519   4.118   5.588   1.674
 5214TIP3    H215520   4.083   5.486   1.780
 5215TIP3   OH215521   4.170   5.391   1.905
 5215TIP3    H115522   4.111   5.328   1.947
 5215TIP3    H215523   4.223   5.424   1.977
 5216TIP3   OH215524   4.231   5.787   2.333
 5216TIP3    H115525   4.281   5.720   2.286
 5216TIP3    H215526   4.219   5.858   2.270
 5217TIP3   OH215527   4.059   6.089   2.527
 5217TIP3    H115528   3.990   6.126   2.581
 5217TIP3    H215529   4.013   6.039   2.459
 5218TIP3   OH215530   4.112   5.311   1.543
 5218TIP3    H115531   4.041   5.310   1.479
 5218TIP3    H215532   4.087   5.377   1.607
 5219TIP3   OH215533   3.972   4.972   1.498
 5219TIP3    H115534   3.931   5.012   1.421
 5219TIP3    H215535   3.952   4.878   1.490
 5220TIP3   OH215536   2.618   5.328   2.789
 5220TIP3    H115537   2.614   5.295   2.700
 5220TIP3    H215538   2.711   5.328   2.811
 5221TIP3   OH215539   4.280   5.675   2.904
 5221TIP3    H115540   4.350   5.610   2.896
 5221TIP3    H215541   4.304   5.743   2.840
 5222TIP3   OH215542   4.465   5.479   2.924
 5222TIP3    H115543   4.389   5.433   2.959
 5222TIP3    H215544   4.538   5.418   2.936
 5223TIP3   OH215545   3.933   4.700   1.478
 5223TIP3    H115546   4.006   4.683   1.538
 5223TIP3    H215547   3.859   4.654   1.518
 5224TIP3   OH215548   4.157   5.133   2.439
 5224TIP3    H115549   4.237   5.161   2.396
 5224TIP3    H215550   4.160   5.174   2.525
 5225TIP3   OH215551   4.217   5.287   2.671
 5225TIP3    H115552   4.138   5.317   2.717
 5225TIP3    H215553   4.248   5.365   2.625
 5226TIP3   OH215554   2.826   5.002   3.456
 5226TIP3    H115555   2.922   5.007   3.460
 5226TIP3    H215556   2.804   4.923   3.507
 5227TIP3   OH215557   4.668   4.874   3.224
 5227TIP3    H115558   4.725   4.809   3.182
 5227TIP3    H215559   4.638   4.930   3.152
 5228TIP3   OH215560   4.120   4.685   1.966
 5228TIP3    H115561   4.142   4.705   2.057
 5228TIP3    H215562   4.038   4.635   1.972
 5229TIP3   OH215563   2.796   4.705   2.808
 5229TIP3    H115564   2.855   4.629   2.811
 5229TIP3    H215565   2.854   4.780   2.797
 5230TIP3   OH215566   2.599   4.975   2.871
 5230TIP3    H115567   2.647   4.968   2.788
 5230TIP3    H215568   2.624   5.061   2.906
 5231TIP3   OH215569   4.537   5.015   3.032
 5231TIP3    H115570   4.454   5.058   3.054
 5231TIP3    H215571   4.512   4.944   2.973
 5232TIP3   OH215572   4.177   4.656   1.607
 5232TIP3    H115573   4.221   4.582   1.563
 5232TIP3    H215574   4.243   4.725   1.610
 5233TIP3   OH215575   2.566   4.486   2.329
 5233TIP3    H115576   2.489   4.490   2.386
 5233TIP3    H215577   2.595   4.577   2.322
 5234TIP3   OH215578   3.741   6.186   1.878
 5234TIP3    H115579   3.788   6.168   1.797
 5234TIP3    H215580   3.795   6.249   1.925
 5235TIP3   OH215581   2.797   4.558   3.188
 5235TIP3    H115582   2.750   4.557   3.271
 5235TIP3    H215583   2.736   4.598   3.126
 5236TIP3   OH215584   2.837   5.997   3.271
 5236TIP3    H115585   2.757   5.953   3.243
 5236TIP3    H215586   2.865   5.950   3.349
 5237TIP3   OH215587   3.016   6.023   2.813
 5237TIP3    H115588   2.969   6.097   2.774
 5237TIP3    H215589   3.103   6.027   2.773
 5238TIP3   OH215590   3.466   6.268   2.954
 5238TIP3    H115591   3.507   6.265   3.041
 5238TIP3    H215592   3.529   6.315   2.900
 5239TIP3   OH215593   3.644   6.416   2.810
 5239TIP3    H115594   3.710   6.363   2.765
 5239TIP3    H215595   3.695   6.472   2.869
 5240TIP3   OH215596   4.436   4.777   2.908
 5240TIP3    H115597   4.347   4.778   2.874
 5240TIP3    H215598   4.466   4.687   2.897
 5241TIP3   OH215599   2.693   6.281   2.834
 5241TIP3    H115600   2.606   6.314   2.811
 5241TIP3    H215601   2.703   6.303   2.926
 5242TIP3   OH215602   2.931   6.259   2.693
 5242TIP3    H115603   2.847   6.270   2.738
 5242TIP3    H215604   2.914   6.288   2.604
 5243TIP3   OH215605   3.357   6.288   2.491
 5243TIP3    H115606   3.288   6.304   2.426
 5243TIP3    H215607   3.370   6.372   2.534
 5244TIP3   OH215608   3.625   6.229   2.544
 5244TIP3    H115609   3.532   6.240   2.524
 5244TIP3    H215610   3.669   6.301   2.500
 5245TIP3   OH215611   3.836   6.418   2.457
 5245TIP3    H115612   3.821   6.501   2.410
 5245TIP3    H215613   3.860   6.356   2.388
 5246TIP3   OH215614   2.608   6.068   2.585
 5246TIP3    H115615   2.632   6.045   2.675
 5246TIP3    H215616   2.676   6.027   2.531
 5247TIP3   OH215617   2.801   5.942   2.440
 5247TIP3    H115618   2.814   5.858   2.485
 5247TIP3    H215619   2.890   5.978   2.433
 5248TIP3   OH215620   3.069   6.035   2.442
 5248TIP3    H115621   3.096   5.945   2.425
 5248TIP3    H215622   3.110   6.058   2.525
 5249TIP3   OH215623   3.645   4.693   2.532
 5249TIP3    H115624   3.598   4.626   2.581
 5249TIP3    H215625   3.714   4.646   2.485
 5250TIP3   OH215626   4.164   4.572   2.435
 5250TIP3    H115627   4.203   4.623   2.364
 5250TIP3    H215628   4.071   4.594   2.432
 5251TIP3   OH215629   4.268   4.673   2.204
 5251TIP3    H115630   4.333   4.624   2.155
 5251TIP3    H215631   4.291   4.765   2.189
 5252TIP3   OH215632   2.885   4.398   2.550
 5252TIP3    H115633   2.795   4.365   2.551
 5252TIP3    H215634   2.939   4.319   2.541
 5253TIP3   OH215635   2.674   4.272   2.190
 5253TIP3    H115636   2.710   4.325   2.119
 5253TIP3    H215637   2.640   4.336   2.252
 5254TIP3   OH215638   3.349   4.424   2.426
 5254TIP3    H115639   3.393   4.482   2.365
 5254TIP3    H215640   3.337   4.476   2.506
 5255TIP3   OH215641   3.883   4.578   2.413
 5255TIP3    H115642   3.875   4.552   2.321
 5255TIP3    H215643   3.866   4.498   2.463
 5256TIP3   OH215644   3.905   4.499   1.970
 5256TIP3    H115645   3.825   4.549   1.985
 5256TIP3    H215646   3.891   4.417   2.017
 5257TIP3   OH215647   2.392   5.842   1.971
 5257TIP3    H115648   2.310   5.805   1.937
 5257TIP3    H215649   2.384   5.936   1.957
 5258TIP3   OH215650   2.792   4.430   1.961
 5258TIP3    H115651   2.842   4.373   1.903
 5258TIP3    H215652   2.857   4.490   1.997
 5259TIP3   OH215653   3.310   4.606   2.055
 5259TIP3    H115654   3.365   4.558   2.116
 5259TIP3    H215655   3.324   4.698   2.078
 5260TIP3   OH215656   3.168   6.031   1.551
 5260TIP3    H115657   3.255   6.055   1.520
 5260TIP3    H215658   3.142   5.957   1.496
 5261TIP3   OH215659   3.883   6.147   1.645
 5261TIP3    H115660   3.877   6.052   1.636
 5261TIP3    H215661   3.840   6.182   1.567
 5262TIP3   OH215662   3.100   4.676   3.434
 5262TIP3    H115663   3.064   4.610   3.494
 5262TIP3    H215664   3.192   4.683   3.459
 5263TIP3   OH215665   3.347   4.679   3.556
 5263TIP3    H115666   3.430   4.659   3.513
 5263TIP3    H215667   3.335   4.609   3.620
 5264TIP3   OH215668   2.473   5.870   1.613
 5264TIP3    H115669   2.471   5.891   1.706
 5264TIP3    H215670   2.558   5.828   1.600
 5265TIP3   OH215671   4.174   4.739   3.344
 5265TIP3    H115672   4.191   4.710   3.433
 5265TIP3    H215673   4.260   4.737   3.301
 5266TIP3   OH215674   4.110   6.296   2.835
 5266TIP3    H115675   4.035   6.260   2.787
 5266TIP3    H215676   4.092   6.390   2.840
 5267TIP3   OH215677   5.376   5.667   1.600
 5267TIP3    H115678   5.352   5.758   1.582
 5267TIP3    H215679   5.301   5.616   1.570
 5268TIP3   OH215680   5.380   5.663   1.981
 5268TIP3    H115681   5.408   5.637   2.069
 5268TIP3    H215682   5.334   5.586   1.947
 5269TIP3   OH215683   4.680   5.561   2.346
 5269TIP3    H115684   4.707   5.493   2.408
 5269TIP3    H215685   4.754   5.621   2.341
 5270TIP3   OH215686   5.621   5.965   1.665
 5270TIP3    H115687   5.605   5.898   1.731
 5270TIP3    H215688   5.647   6.043   1.715
 5271TIP3   OH215689   4.649   5.971   2.074
 5271TIP3    H115690   4.637   5.876   2.076
 5271TIP3    H215691   4.744   5.983   2.068
 5272TIP3   OH215692   4.351   5.179   1.866
 5272TIP3    H115693   4.302   5.261   1.870
 5272TIP3    H215694   4.284   5.111   1.859
 5273TIP3   OH215695   4.420   5.464   2.033
 5273TIP3    H115696   4.462   5.386   2.067
 5273TIP3    H215697   4.463   5.481   1.949
 5274TIP3   OH215698   5.269   6.428   1.679
 5274TIP3    H115699   5.315   6.360   1.630
 5274TIP3    H215700   5.262   6.393   1.768
 5275TIP3   OH215701   5.179   5.891   2.029
 5275TIP3    H115702   5.210   5.815   1.981
 5275TIP3    H215703   5.258   5.938   2.055
 5276TIP3   OH215704   6.189   5.214   2.028
 5276TIP3    H115705   6.216   5.294   2.074
 5276TIP3    H215706   6.207   5.232   1.936
 5277TIP3   OH215707   5.590   5.392   2.062
 5277TIP3    H115708   5.630   5.308   2.084
 5277TIP3    H215709   5.557   5.380   1.973
 5278TIP3   OH215710   4.925   5.053   2.025
 5278TIP3    H115711   4.904   5.127   1.967
 5278TIP3    H215712   4.879   4.978   1.986
 5279TIP3   OH215713   5.622   5.143   1.652
 5279TIP3    H115714   5.691   5.127   1.717
 5279TIP3    H215715   5.668   5.180   1.577
 5280TIP3   OH215716   4.561   5.253   2.134
 5280TIP3    H115717   4.641   5.234   2.183
 5280TIP3    H215718   4.567   5.198   2.056
 5281TIP3   OH215719   5.001   5.451   1.925
 5281TIP3    H115720   5.092   5.427   1.941
 5281TIP3    H215721   4.960   5.369   1.895
 5282TIP3   OH215722   6.260   5.421   2.199
 5282TIP3    H115723   6.179   5.466   2.178
 5282TIP3    H215724   6.278   5.445   2.290
 5283TIP3   OH215725   4.920   5.037   2.463
 5283TIP3    H115726   4.863   5.072   2.395
 5283TIP3    H215727   4.872   5.052   2.545
 5284TIP3   OH215728   5.270   5.889   1.469
 5284TIP3    H115729   5.227   5.866   1.387
 5284TIP3    H215730   5.229   5.972   1.496
 5285TIP3   OH215731   5.029   5.814   2.260
 5285TIP3    H115732   4.966   5.875   2.297
 5285TIP3    H215733   5.069   5.862   2.187
 5286TIP3   OH215734   5.833   5.144   1.823
 5286TIP3    H115735   5.815   5.099   1.905
 5286TIP3    H215736   5.883   5.222   1.849
 5287TIP3   OH215737   4.797   5.152   2.246
 5287TIP3    H115738   4.855   5.224   2.271
 5287TIP3    H215739   4.842   5.110   2.172
 5288TIP3   OH215740   4.853   6.005   2.357
 5288TIP3    H115741   4.832   6.089   2.315
 5288TIP3    H215742   4.778   5.987   2.413
 5289TIP3   OH215743   4.255   5.696   1.591
 5289TIP3    H115744   4.209   5.721   1.510
 5289TIP3    H215745   4.284   5.779   1.629
 5290TIP3   OH215746   5.689   6.212   1.832
 5290TIP3    H115747   5.603   6.201   1.872
 5290TIP3    H215748   5.684   6.295   1.786
 5291TIP3   OH215749   5.981   5.112   2.192
 5291TIP3    H115750   5.893   5.141   2.166
 5291TIP3    H215751   6.039   5.143   2.123
 5292TIP3   OH215752   5.279   4.755   2.179
 5292TIP3    H115753   5.266   4.661   2.192
 5292TIP3    H215754   5.204   4.796   2.222
 5293TIP3   OH215755   5.398   6.257   1.505
 5293TIP3    H115756   5.443   6.174   1.486
 5293TIP3    H215757   5.454   6.324   1.467
 5294TIP3   OH215758   5.536   6.040   1.413
 5294TIP3    H115759   5.493   5.964   1.373
 5294TIP3    H215760   5.572   6.006   1.495
 5295TIP3   OH215761   5.916   6.124   2.173
 5295TIP3    H115762   5.905   6.047   2.117
 5295TIP3    H215763   5.899   6.199   2.115
 5296TIP3   OH215764   5.207   5.517   1.430
 5296TIP3    H115765   5.127   5.567   1.413
 5296TIP3    H215766   5.254   5.517   1.346
 5297TIP3   OH215767   5.170   5.302   1.147
 5297TIP3    H115768   5.232   5.353   1.199
 5297TIP3    H215769   5.225   5.239   1.101
 5298TIP3   OH215770   6.111   5.762   2.017
 5298TIP3    H115771   6.029   5.811   2.027
 5298TIP3    H215772   6.142   5.785   1.930
 5299TIP3   OH215773   5.556   5.598   1.408
 5299TIP3    H115774   5.500   5.625   1.480
 5299TIP3    H215775   5.639   5.575   1.449
 5300TIP3   OH215776   5.789   5.642   2.314
 5300TIP3    H115777   5.789   5.723   2.364
 5300TIP3    H215778   5.704   5.642   2.269
 5301TIP3   OH215779   4.789   5.596   1.818
 5301TIP3    H115780   4.746   5.541   1.753
 5301TIP3    H215781   4.864   5.545   1.848
 5302TIP3   OH215782   4.919   6.009   1.969
 5302TIP3    H115783   4.895   5.967   1.886
 5302TIP3    H215784   5.007   5.977   1.987
 5303TIP3   OH215785   4.933   5.567   2.176
 5303TIP3    H115786   4.958   5.550   2.085
 5303TIP3    H215787   4.968   5.654   2.195
 5304TIP3   OH215788   5.451   6.207   1.953
 5304TIP3    H115789   5.436   6.286   2.005
 5304TIP3    H215790   5.435   6.135   2.014
 5305TIP3   OH215791   5.059   6.127   2.498
 5305TIP3    H115792   5.003   6.189   2.546
 5305TIP3    H215793   4.998   6.072   2.449
 5306TIP3   OH215794   5.401   5.458   1.229
 5306TIP3    H115795   5.454   5.516   1.282
 5306TIP3    H215796   5.423   5.480   1.138
 5307TIP3   OH215797   4.814   5.684   2.599
 5307TIP3    H115798   4.821   5.769   2.644
 5307TIP3    H215799   4.722   5.661   2.608
 5308TIP3   OH215800   5.140   6.139   1.507
 5308TIP3    H115801   5.216   6.193   1.524
 5308TIP3    H215802   5.078   6.198   1.463
 5309TIP3   OH215803   4.855   6.296   2.586
 5309TIP3    H115804   4.823   6.293   2.495
 5309TIP3    H215805   4.778   6.274   2.639
 5310TIP3   OH215806   5.909   4.699   1.276
 5310TIP3    H115807   5.831   4.716   1.329
 5310TIP3    H215808   5.926   4.783   1.232
 5311TIP3   OH215809   4.654   5.439   1.621
 5311TIP3    H115810   4.590   5.486   1.567
 5311TIP3    H215811   4.611   5.357   1.644
 5312TIP3   OH215812   5.711   6.067   0.825
 5312TIP3    H115813   5.716   6.162   0.814
 5312TIP3    H215814   5.802   6.037   0.816
 5313TIP3   OH215815   4.436   5.823   2.532
 5313TIP3    H115816   4.371   5.803   2.465
 5313TIP3    H215817   4.472   5.737   2.556
 5314TIP3   OH215818   4.290   6.021   2.163
 5314TIP3    H115819   4.385   6.008   2.154
 5314TIP3    H215820   4.281   6.097   2.220
 5315TIP3   OH215821   6.152   6.467   2.221
 5315TIP3    H115822   6.154   6.372   2.234
 5315TIP3    H215823   6.072   6.495   2.265
 5316TIP3   OH215824   5.259   6.256   2.358
 5316TIP3    H115825   5.260   6.347   2.387
 5316TIP3    H215826   5.189   6.215   2.409
 5317TIP3   OH215827   5.019   6.383   1.307
 5317TIP3    H115828   4.977   6.362   1.224
 5317TIP3    H215829   4.988   6.471   1.328
 5318TIP3   OH215830   4.458   6.232   1.693
 5318TIP3    H115831   4.506   6.225   1.775
 5318TIP3    H215832   4.402   6.155   1.692
 5319TIP3   OH215833   5.225   6.287   0.952
 5319TIP3    H115834   5.280   6.219   0.912
 5319TIP3    H215835   5.257   6.294   1.041
 5320TIP3   OH215836   5.272   6.332   1.223
 5320TIP3    H115837   5.184   6.342   1.259
 5320TIP3    H215838   5.322   6.291   1.293
 5321TIP3   OH215839   6.044   5.599   2.494
 5321TIP3    H115840   5.963   5.615   2.446
 5321TIP3    H215841   6.060   5.505   2.485
 5322TIP3   OH215842   4.640   6.007   2.525
 5322TIP3    H115843   4.690   5.990   2.604
 5322TIP3    H215844   4.567   5.945   2.528
 5323TIP3   OH215845   5.038   4.833   2.304
 5323TIP3    H115846   4.953   4.798   2.277
 5323TIP3    H215847   5.017   4.914   2.350
 5324TIP3   OH215848   5.572   4.946   2.501
 5324TIP3    H115849   5.638   4.919   2.564
 5324TIP3    H215850   5.488   4.927   2.543
 5325TIP3   OH215851   5.814   5.378   2.420
 5325TIP3    H115852   5.765   5.372   2.502
 5325TIP3    H215853   5.788   5.462   2.383
 5326TIP3   OH215854   5.472   5.503   0.970
 5326TIP3    H115855   5.439   5.478   0.884
 5326TIP3    H215856   5.549   5.557   0.952
 5327TIP3   OH215857   5.183   4.878   1.276
 5327TIP3    H115858   5.154   4.881   1.367
 5327TIP3    H215859   5.146   4.797   1.241
 5328TIP3   OH215860   4.973   5.347   2.326
 5328TIP3    H115861   4.922   5.365   2.405
 5328TIP3    H215862   4.960   5.425   2.271
 5329TIP3   OH215863   4.853   5.231   1.836
 5329TIP3    H115864   4.763   5.208   1.857
 5329TIP3    H215865   4.868   5.192   1.749
 5330TIP3   OH215866   5.347   5.320   1.563
 5330TIP3    H115867   5.292   5.389   1.526
 5330TIP3    H215868   5.400   5.289   1.490
 5331TIP3   OH215869   5.521   5.596   2.653
 5331TIP3    H115870   5.497   5.525   2.713
 5331TIP3    H215871   5.613   5.613   2.673
 5332TIP3   OH215872   5.503   5.346   1.802
 5332TIP3    H115873   5.443   5.381   1.736
 5332TIP3    H215874   5.536   5.265   1.763
 5333TIP3   OH215875   4.792   5.375   2.533
 5333TIP3    H115876   4.813   5.439   2.601
 5333TIP3    H215877   4.777   5.293   2.581
 5334TIP3   OH215878   4.836   4.852   1.244
 5334TIP3    H115879   4.834   4.847   1.339
 5334TIP3    H215880   4.761   4.907   1.221
 5335TIP3   OH215881   4.388   4.894   2.115
 5335TIP3    H115882   4.463   4.924   2.166
 5335TIP3    H215883   4.425   4.866   2.031
 5336TIP3   OH215884   4.368   4.876   1.625
 5336TIP3    H115885   4.417   4.915   1.552
 5336TIP3    H215886   4.304   4.943   1.649
 5337TIP3   OH215887   5.516   5.591   2.228
 5337TIP3    H115888   5.548   5.523   2.169
 5337TIP3    H215889   5.485   5.544   2.305
 5338TIP3   OH215890   5.182   5.053   1.901
 5338TIP3    H115891   5.098   5.052   1.947
 5338TIP3    H215892   5.247   5.056   1.970
 5339TIP3   OH215893   4.615   5.111   1.903
 5339TIP3    H115894   4.522   5.123   1.880
 5339TIP3    H215895   4.633   5.020   1.883
 5340TIP3   OH215896   4.888   5.106   1.594
 5340TIP3    H115897   4.980   5.124   1.572
 5340TIP3    H215898   4.840   5.129   1.514
 5341TIP3   OH215899   5.672   5.128   2.099
 5341TIP3    H115900   5.644   5.143   2.190
 5341TIP3    H215901   5.607   5.068   2.063
 5342TIP3   OH215902   4.728   5.137   1.373
 5342TIP3    H115903   4.651   5.098   1.332
 5342TIP3    H215904   4.779   5.173   1.300
 5343TIP3   OH215905   5.845   6.820   2.318
 5343TIP3    H115906   5.840   6.841   2.225
 5343TIP3    H215907   5.921   6.868   2.350
 5344TIP3   OH215908   4.803   5.931   2.744
 5344TIP3    H115909   4.882   5.960   2.789
 5344TIP3    H215910   4.736   5.926   2.813
 5345TIP3   OH215911   5.267   5.381   1.998
 5345TIP3    H115912   5.339   5.341   1.949
 5345TIP3    H215913   5.273   5.342   2.085
 5346TIP3   OH215914   4.793   4.867   1.876
 5346TIP3    H115915   4.754   4.793   1.922
 5346TIP3    H215916   4.838   4.829   1.801
 5347TIP3   OH215917   5.243   5.280   2.286
 5347TIP3    H115918   5.154   5.314   2.299
 5347TIP3    H215919   5.298   5.340   2.336
 5348TIP3   OH215920   4.979   5.669   1.384
 5348TIP3    H115921   4.908   5.606   1.370
 5348TIP3    H215922   4.962   5.704   1.472
 5349TIP3   OH215923   5.879   5.906   2.009
 5349TIP3    H115924   5.903   5.955   1.931
 5349TIP3    H215925   5.795   5.865   1.988
 5350TIP3   OH215926   5.436   4.984   1.241
 5350TIP3    H115927   5.342   4.968   1.250
 5350TIP3    H215928   5.447   5.076   1.266
 5351TIP3   OH215929   5.382   5.991   2.378
 5351TIP3    H115930   5.399   5.965   2.469
 5351TIP3    H215931   5.340   6.077   2.386
 5352TIP3   OH215932   5.509   5.230   1.344
 5352TIP3    H115933   5.602   5.238   1.362
 5352TIP3    H215934   5.487   5.309   1.295
 5353TIP3   OH215935   4.678   5.697   2.058
 5353TIP3    H115936   4.709   5.665   1.974
 5353TIP3    H215937   4.702   5.628   2.120
 5354TIP3   OH215938   5.122   5.821   1.203
 5354TIP3    H115939   5.079   5.906   1.206
 5354TIP3    H215940   5.070   5.766   1.262
 5355TIP3   OH215941   4.551   5.611   2.671
 5355TIP3    H115942   4.570   5.597   2.764
 5355TIP3    H215943   4.482   5.548   2.652
 5356TIP3   OH215944   5.277   5.725   2.688
 5356TIP3    H115945   5.215   5.668   2.643
 5356TIP3    H215946   5.363   5.694   2.660
 5357TIP3   OH215947   5.539   6.250   2.275
 5357TIP3    H115948   5.444   6.245   2.285
 5357TIP3    H215949   5.568   6.301   2.351
 5358TIP3   OH215950   5.950   5.318   1.178
 5358TIP3    H115951   5.888   5.272   1.120
 5358TIP3    H215952   5.951   5.408   1.145
 5359TIP3   OH215953   6.165   6.175   2.261
 5359TIP3    H115954   6.070   6.172   2.257
 5359TIP3    H215955   6.194   6.147   2.174
 5360TIP3   OH215956   5.652   6.137   1.090
 5360TIP3    H115957   5.623   6.069   1.151
 5360TIP3    H215958   5.662   6.092   1.007
 5361TIP3   OH215959   5.644   5.766   1.930
 5361TIP3    H115960   5.552   5.744   1.945
 5361TIP3    H215961   5.680   5.690   1.884
 5362TIP3   OH215962   4.771   5.997   1.681
 5362TIP3    H115963   4.773   6.076   1.628
 5362TIP3    H215964   4.677   5.978   1.692
 5363TIP3   OH215965   4.334   5.303   1.385
 5363TIP3    H115966   4.381   5.384   1.405
 5363TIP3    H215967   4.259   5.304   1.444
 5364TIP3   OH215968   4.912   5.764   1.629
 5364TIP3    H115969   4.878   5.852   1.644
 5364TIP3    H215970   4.876   5.711   1.700
 5365TIP3   OH215971   5.043   6.341   2.152
 5365TIP3    H115972   5.081   6.412   2.100
 5365TIP3    H215973   5.117   6.305   2.201
 5366TIP3   OH215974   4.692   6.236   1.536
 5366TIP3    H115975   4.607   6.242   1.579
 5366TIP3    H215976   4.725   6.326   1.536
 5367TIP3   OH215977   5.432   5.972   2.111
 5367TIP3    H115978   5.421   5.974   2.206
 5367TIP3    H215979   5.511   5.920   2.096
 5368TIP3   OH215980   5.405   5.859   0.994
 5368TIP3    H115981   5.456   5.838   1.072
 5368TIP3    H215982   5.314   5.843   1.020
 5369TIP3   OH215983   5.677   6.509   2.159
 5369TIP3    H115984   5.601   6.452   2.154
 5369TIP3    H215985   5.664   6.573   2.089
 5370TIP3   OH215986   5.742   6.342   0.816
 5370TIP3    H115987   5.767   6.399   0.743
 5370TIP3    H215988   5.666   6.385   0.855
 5371TIP3   OH215989   4.762   5.117   2.679
 5371TIP3    H115990   4.667   5.124   2.690
 5371TIP3    H215991   4.790   5.059   2.750
 5372TIP3   OH215992   5.566   5.797   1.210
 5372TIP3    H115993   5.554   5.735   1.282
 5372TIP3    H215994   5.661   5.799   1.196
 5373TIP3   OH215995   4.481   6.204   2.313
 5373TIP3    H115996   4.529   6.125   2.338
 5373TIP3    H215997   4.510   6.271   2.375
 5374TIP3   OH215998   4.773   5.843   0.993
 5374TIP3    H115999   4.785   5.752   0.964
 5374TIP3    H216000   4.752   5.836   1.086
 5375TIP3   OH216001   4.718   5.854   1.265
 5375TIP3    H116002   4.787   5.827   1.326
 5375TIP3    H216003   4.719   5.949   1.268
 5376TIP3   OH216004   4.453   5.549   1.467
 5376TIP3    H116005   4.387   5.588   1.525
 5376TIP3    H216006   4.467   5.616   1.400
 5377TIP3   OH216007   5.604   5.179   2.358
 5377TIP3    H116008   5.679   5.220   2.401
 5377TIP3    H216009   5.585   5.102   2.411
 5378TIP3   OH216010   5.484   4.935   1.522
 5378TIP3    H116011   5.466   4.957   1.431
 5378TIP3    H216012   5.520   5.015   1.560
 5379TIP3   OH216013   4.982   6.053   1.214
 5379TIP3    H116014   4.896   6.078   1.249
 5379TIP3    H216015   5.000   6.118   1.146
 5380TIP3   OH216016   5.174   5.113   1.628
 5380TIP3    H116017   5.235   5.184   1.609
 5380TIP3    H216018   5.174   5.105   1.723
 5381TIP3   OH216019   5.441   5.433   2.436
 5381TIP3    H116020   5.456   5.489   2.512
 5381TIP3    H216021   5.494   5.355   2.451
 5382TIP3   OH216022   5.317   4.845   1.731
 5382TIP3    H116023   5.303   4.920   1.788
 5382TIP3    H216024   5.375   4.878   1.662
 5383TIP3   OH216025   4.723   6.127   1.279
 5383TIP3    H116026   4.697   6.194   1.216
 5383TIP3    H216027   4.709   6.168   1.365
 5384TIP3   OH216028   4.829   4.840   1.519
 5384TIP3    H116029   4.820   4.928   1.555
 5384TIP3    H216030   4.923   4.820   1.527
 5385TIP3   OH216031   6.078   5.330   2.413
 5385TIP3    H116032   5.984   5.332   2.425
 5385TIP3    H216033   6.091   5.292   2.326
 5386TIP3   OH216034   5.731   5.524   1.803
 5386TIP3    H116035   5.654   5.469   1.816
 5386TIP3    H216036   5.801   5.480   1.851
 5387TIP3   OH216037   4.445   5.757   1.273
 5387TIP3    H116038   4.503   5.832   1.282
 5387TIP3    H216039   4.487   5.702   1.206
 5388TIP3   OH216040   4.389   5.033   1.393
 5388TIP3    H116041   4.389   5.128   1.398
 5388TIP3    H216042   4.296   5.009   1.396
 5389TIP3   OH216043   5.700   6.483   1.751
 5389TIP3    H116044   5.654   6.528   1.680
 5389TIP3    H216045   5.793   6.499   1.733
 5390TIP3   OH216046   4.778   4.748   2.279
 5390TIP3    H116047   4.744   4.720   2.194
 5390TIP3    H216048   4.765   4.673   2.337
 5391TIP3   OH216049   4.315   5.974   1.662
 5391TIP3    H116050   4.242   6.000   1.718
 5391TIP3    H216051   4.293   6.009   1.576
 5392TIP3   OH216052   4.470   6.508   2.734
 5392TIP3    H116053   4.556   6.508   2.778
 5392TIP3    H216054   4.446   6.416   2.729
 5393TIP3   OH216055   4.955   6.476   2.774
 5393TIP3    H116056   5.048   6.455   2.784
 5393TIP3    H216057   4.926   6.420   2.702
 5394TIP3   OH216058   4.934   6.050   0.911
 5394TIP3    H116059   4.875   5.981   0.943
 5394TIP3    H216060   5.006   6.002   0.869
 5395TIP3   OH216061   5.592   6.382   2.511
 5395TIP3    H116062   5.582   6.313   2.577
 5395TIP3    H216063   5.668   6.432   2.540
 5396TIP3   OH216064   5.369   6.090   0.818
 5396TIP3    H116065   5.418   6.030   0.874
 5396TIP3    H216066   5.424   6.100   0.740
 5397TIP3   OH216067   4.600   5.916   2.931
 5397TIP3    H116068   4.619   5.823   2.939
 5397TIP3    H216069   4.514   5.920   2.888
 5398TIP3   OH216070   4.580   5.568   1.123
 5398TIP3    H116071   4.630   5.537   1.199
 5398TIP3    H216072   4.644   5.575   1.053
 5399TIP3   OH216073   5.209   6.001   2.704
 5399TIP3    H116074   5.166   6.017   2.620
 5399TIP3    H216075   5.240   5.910   2.699
 5400TIP3   OH216076   5.090   5.763   0.933
 5400TIP3    H116077   5.089   5.782   1.027
 5400TIP3    H216078   5.083   5.668   0.927
 5401TIP3   OH216079   5.702   6.010   2.311
 5401TIP3    H116080   5.776   6.055   2.268
 5401TIP3    H216081   5.628   6.071   2.301
 5402TIP3   OH216082   4.723   5.653   2.915
 5402TIP3    H116083   4.791   5.589   2.896
 5402TIP3    H216084   4.744   5.685   3.003
 5403TIP3   OH216085   4.788   5.470   1.349
 5403TIP3    H116086   4.757   5.434   1.432
 5403TIP3    H216087   4.822   5.394   1.301
 5404TIP3   OH216088   5.057   5.540   2.576
 5404TIP3    H116089   4.979   5.594   2.581
 5404TIP3    H216090   5.103   5.570   2.498
 5405TIP3   OH216091   4.887   5.262   1.187
 5405TIP3    H116092   4.858   5.270   1.096
 5405TIP3    H216093   4.983   5.271   1.182
 5406TIP3   OH216094   5.573   5.937   2.711
 5406TIP3    H116095   5.653   5.916   2.663
 5406TIP3    H216096   5.568   5.872   2.781
 5407TIP3   OH216097   5.709   5.596   0.847
 5407TIP3    H116098   5.689   5.549   0.767
 5407TIP3    H216099   5.680   5.686   0.830
 5408TIP3   OH216100   5.181   5.324   2.698
 5408TIP3    H116101   5.177   5.245   2.645
 5408TIP3    H216102   5.137   5.390   2.645
 5409TIP3   OH216103   5.180   5.109   2.506
 5409TIP3    H116104   5.208   5.151   2.425
 5409TIP3    H216105   5.088   5.087   2.492
 5410TIP3   OH216106   5.211   5.648   2.380
 5410TIP3    H116107   5.292   5.656   2.330
 5410TIP3    H216108   5.152   5.712   2.340
 5411TIP3   OH216109   5.793   5.612   2.764
 5411TIP3    H116110   5.842   5.530   2.771
 5411TIP3    H216111   5.857   5.676   2.733
 5412TIP3   OH216112   5.833   5.867   2.497
 5412TIP3    H116113   5.773   5.917   2.442
 5412TIP3    H216114   5.920   5.885   2.461
 5413TIP3   OH216115   5.058   5.434   2.930
 5413TIP3    H116116   4.988   5.372   2.948
 5413TIP3    H216117   5.090   5.410   2.843
 5414TIP3   OH216118   5.311   4.874   2.575
 5414TIP3    H116119   5.265   4.956   2.553
 5414TIP3    H216120   5.244   4.806   2.565
 5415TIP3   OH216121   5.437   5.377   2.794
 5415TIP3    H116122   5.423   5.370   2.888
 5415TIP3    H216123   5.352   5.355   2.756
 5416TIP3   OH216124   5.677   5.325   2.647
 5416TIP3    H116125   5.602   5.330   2.706
 5416TIP3    H216126   5.749   5.297   2.703
 5417TIP3   OH216127   5.907   5.268   2.800
 5417TIP3    H116128   5.920   5.175   2.818
 5417TIP3    H216129   5.905   5.309   2.887
 5418TIP3   OH216130   4.898   5.215   2.984
 5418TIP3    H116131   4.901   5.126   2.949
 5418TIP3    H216132   4.930   5.207   3.074
 5419TIP3   OH216133   5.412   4.883   2.830
 5419TIP3    H116134   5.475   4.812   2.827
 5419TIP3    H216135   5.367   4.880   2.745
 5420TIP3   OH216136   5.472   5.099   2.993
 5420TIP3    H116137   5.453   5.030   2.929
 5420TIP3    H216138   5.397   5.158   2.987
 5421TIP3   OH216139   4.693   6.327   1.087
 5421TIP3    H116140   4.786   6.330   1.066
 5421TIP3    H216141   4.650   6.355   1.007
 5422TIP3   OH216142   4.175   5.710   1.307
 5422TIP3    H116143   4.267   5.734   1.297
 5422TIP3    H216144   4.168   5.623   1.268
 5423TIP3   OH216145   4.087   6.319   1.724
 5423TIP3    H116146   4.021   6.260   1.686
 5423TIP3    H216147   4.132   6.266   1.789
 5424TIP3   OH216148   4.224   6.175   1.913
 5424TIP3    H116149   4.212   6.098   1.969
 5424TIP3    H216150   4.275   6.236   1.966
 5425TIP3   OH216151   5.953   6.572   1.710
 5425TIP3    H116152   5.978   6.606   1.795
 5425TIP3    H216153   6.010   6.618   1.647
 5426TIP3   OH216154   5.981   6.592   1.993
 5426TIP3    H116155   5.936   6.508   1.985
 5426TIP3    H216156   6.057   6.573   2.049
 5427TIP3   OH216157   6.026   6.273   2.564
 5427TIP3    H116158   5.954   6.278   2.627
 5427TIP3    H216159   6.068   6.358   2.568
 5428TIP3   OH216160   5.846   5.783   1.185
 5428TIP3    H116161   5.909   5.848   1.154
 5428TIP3    H216162   5.887   5.745   1.263
 5429TIP3   OH216163   5.972   5.650   1.390
 5429TIP3    H116164   5.905   5.609   1.445
 5429TIP3    H216165   6.032   5.692   1.452
 5430TIP3   OH216166   6.027   6.042   1.820
 5430TIP3    H116167   6.078   5.980   1.768
 5430TIP3    H216168   6.017   6.119   1.763
 5431TIP3   OH216169   5.855   6.343   2.016
 5431TIP3    H116170   5.787   6.386   2.067
 5431TIP3    H216171   5.808   6.296   1.947
 5432TIP3   OH216172   5.906   5.558   1.035
 5432TIP3    H116173   5.839   5.559   0.966
 5432TIP3    H216174   5.885   5.633   1.090
 5433TIP3   OH216175   5.782   5.226   0.987
 5433TIP3    H116176   5.740   5.275   0.916
 5433TIP3    H216177   5.755   5.135   0.973
 5434TIP3   OH216178   5.787   5.506   1.537
 5434TIP3    H116179   5.793   5.411   1.530
 5434TIP3    H216180   5.772   5.523   1.630
 5435TIP3   OH216181   4.414   5.581   2.280
 5435TIP3    H116182   4.408   5.551   2.190
 5435TIP3    H216183   4.508   5.582   2.299
 5436TIP3   OH216184   6.076   5.932   2.390
 5436TIP3    H116185   6.147   5.868   2.382
 5436TIP3    H216186   6.101   6.002   2.331
 5437TIP3   OH216187   6.261   5.735   2.407
 5437TIP3    H116188   6.186   5.690   2.445
 5437TIP3    H216189   6.334   5.675   2.420
 5438TIP3   OH216190   5.727   4.957   0.967
 5438TIP3    H116191   5.794   4.936   1.031
 5438TIP3    H216192   5.649   4.911   0.997
 5439TIP3   OH216193   5.784   5.221   1.430
 5439TIP3    H116194   5.820   5.134   1.446
 5439TIP3    H216195   5.839   5.258   1.361
 5440TIP3   OH216196   5.947   5.398   1.926
 5440TIP3    H116197   6.029   5.422   1.884
 5440TIP3    H216198   5.953   5.433   2.015
 5441TIP3   OH216199   6.010   5.543   2.156
 5441TIP3    H116200   5.934   5.574   2.205
 5441TIP3    H216201   6.043   5.621   2.112
 5442TIP3   OH216202   4.631   5.267   2.958
 5442TIP3    H116203   4.727   5.263   2.958
 5442TIP3    H216204   4.604   5.184   2.998
 5443TIP3   OH216205   6.463   5.129   2.710
 5443TIP3    H116206   6.521   5.065   2.669
 5443TIP3    H216207   6.435   5.186   2.639
 5444TIP3   OH216208   5.893   4.970   1.467
 5444TIP3    H116209   5.940   4.959   1.549
 5444TIP3    H216210   5.830   4.898   1.465
 5445TIP3   OH216211   4.597   4.959   2.284
 5445TIP3    H116212   4.656   4.885   2.296
 5445TIP3    H216213   4.654   5.035   2.282
 5446TIP3   OH216214   4.399   5.234   2.363
 5446TIP3    H116215   4.439   5.222   2.277
 5446TIP3    H216216   4.424   5.323   2.389
 5447TIP3   OH216217   6.333   5.271   2.519
 5447TIP3    H116218   6.252   5.315   2.545
 5447TIP3    H216219   6.306   5.202   2.460
 5448TIP3   OH216220   5.974   4.909   1.100
 5448TIP3    H116221   6.019   4.841   1.050
 5448TIP3    H216222   6.033   4.984   1.097
 5449TIP3   OH216223   4.376   4.734   1.858
 5449TIP3    H116224   4.286   4.726   1.891
 5449TIP3    H216225   4.369   4.794   1.784
 5450TIP3   OH216226   5.541   6.439   1.368
 5450TIP3    H116227   5.584   6.422   1.284
 5450TIP3    H216228   5.591   6.510   1.408
 5451TIP3   OH216229   4.596   4.815   2.675
 5451TIP3    H116230   4.548   4.810   2.758
 5451TIP3    H216231   4.533   4.855   2.614
 5452TIP3   OH216232   4.635   6.247   2.755
 5452TIP3    H116233   4.546   6.217   2.733
 5452TIP3    H216234   4.647   6.221   2.846
 5453TIP3   OH216235   4.815   6.279   2.298
 5453TIP3    H116236   4.764   6.351   2.262
 5453TIP3    H216237   4.901   6.288   2.257
 5454TIP3   OH216238   5.263   6.522   2.440
 5454TIP3    H116239   5.302   6.521   2.527
 5454TIP3    H216240   5.325   6.571   2.386
 5455TIP3   OH216241   5.441   6.673   2.297
 5455TIP3    H116242   5.508   6.621   2.253
 5455TIP3    H216243   5.490   6.729   2.357
 5456TIP3   OH216244   6.233   5.033   2.395
 5456TIP3    H116245   6.143   5.032   2.362
 5456TIP3    H216246   6.263   4.943   2.384
 5457TIP3   OH216247   4.490   6.537   2.322
 5457TIP3    H116248   4.403   6.569   2.296
 5457TIP3    H216249   4.499   6.562   2.414
 5458TIP3   OH216250   4.727   6.514   2.180
 5458TIP3    H116251   4.643   6.526   2.225
 5458TIP3    H216252   4.710   6.544   2.091
 5459TIP3   OH216253   5.153   6.543   1.978
 5459TIP3    H116254   5.086   6.559   1.912
 5459TIP3    H216255   5.166   6.628   2.020
 5460TIP3   OH216256   5.421   6.483   2.029
 5460TIP3    H116257   5.328   6.496   2.011
 5460TIP3    H216258   5.465   6.556   1.986
 5461TIP3   OH216259   5.632   6.674   1.943
 5461TIP3    H116260   5.616   6.757   1.898
 5461TIP3    H216261   5.656   6.613   1.873
 5462TIP3   OH216262   4.405   6.326   2.071
 5462TIP3    H116263   4.428   6.302   2.161
 5462TIP3    H216264   4.472   6.285   2.017
 5463TIP3   OH216265   4.597   6.198   1.926
 5463TIP3    H116266   4.610   6.116   1.973
 5463TIP3    H216267   4.685   6.236   1.919
 5464TIP3   OH216268   4.864   6.293   1.929
 5464TIP3    H116269   4.892   6.203   1.912
 5464TIP3    H216270   4.905   6.316   2.012
 5465TIP3   OH216271   5.441   4.949   2.018
 5465TIP3    H116272   5.394   4.884   2.070
 5465TIP3    H216273   5.509   4.900   1.972
 5466TIP3   OH216274   5.962   4.828   1.918
 5466TIP3    H116275   5.998   4.881   1.847
 5466TIP3    H216276   5.868   4.846   1.916
 5467TIP3   OH216277   6.060   4.931   1.682
 5467TIP3    H116278   6.130   4.878   1.644
 5467TIP3    H216279   6.088   5.021   1.670
 5468TIP3   OH216280   4.687   4.657   2.031
 5468TIP3    H116281   4.595   4.629   2.032
 5468TIP3    H216282   4.737   4.575   2.027
 5469TIP3   OH216283   4.471   4.532   1.679
 5469TIP3    H116284   4.498   4.590   1.608
 5469TIP3    H216285   4.440   4.591   1.748
 5470TIP3   OH216286   5.133   4.690   1.910
 5470TIP3    H116287   5.190   4.742   1.854
 5470TIP3    H216288   5.143   4.728   1.997
 5471TIP3   OH216289   5.682   4.835   1.896
 5471TIP3    H116290   5.671   4.803   1.807
 5471TIP3    H216291   5.666   4.758   1.951
 5472TIP3   OH216292   5.706   4.758   1.458
 5472TIP3    H116293   5.623   4.805   1.469
 5472TIP3    H216294   5.693   4.675   1.504
 5473TIP3   OH216295   4.188   6.099   1.460
 5473TIP3    H116296   4.106   6.063   1.425
 5473TIP3    H216297   4.181   6.193   1.443
 5474TIP3   OH216298   4.592   4.690   1.438
 5474TIP3    H116299   4.640   4.627   1.385
 5474TIP3    H216300   4.659   4.744   1.479
 5475TIP3   OH216301   5.107   4.864   1.543
 5475TIP3    H116302   5.162   4.814   1.604
 5475TIP3    H216303   5.124   4.955   1.565
 5476TIP3   OH216304   4.965   6.290   1.041
 5476TIP3    H116305   5.047   6.321   1.004
 5476TIP3    H216306   4.938   6.218   0.983
 5477TIP3   OH216307   5.679   6.404   1.133
 5477TIP3    H116308   5.674   6.310   1.121
 5477TIP3    H216309   5.636   6.441   1.056
 5478TIP3   OH216310   4.897   4.938   2.924
 5478TIP3    H116311   4.859   4.870   2.979
 5478TIP3    H216312   4.989   4.941   2.950
 5479TIP3   OH216313   5.147   4.935   3.043
 5479TIP3    H116314   5.228   4.906   3.001
 5479TIP3    H216315   5.128   4.868   3.109
 5480TIP3   OH216316   4.267   6.121   1.099
 5480TIP3    H116317   4.268   6.151   1.190
 5480TIP3    H216318   4.353   6.081   1.086
 5481TIP3   OH216319   5.973   4.997   2.833
 5481TIP3    H116320   5.997   4.966   2.921
 5481TIP3    H216321   6.055   4.996   2.784
 5482TIP3   OH216322   5.906   6.552   2.321
 5482TIP3    H116323   5.831   6.517   2.273
 5482TIP3    H216324   5.889   6.646   2.326
 5483TIP3   OH216325   7.165   5.921   1.095
 5483TIP3    H116326   7.144   6.012   1.074
 5483TIP3    H216327   7.099   5.870   1.048
 5484TIP3   OH216328   7.154   5.919   1.474
 5484TIP3    H116329   7.201   5.889   1.552
 5484TIP3    H216330   7.172   5.852   1.408
 5485TIP3   OH216331   6.485   5.817   1.825
 5485TIP3    H116332   6.506   5.749   1.889
 5485TIP3    H216333   6.538   5.892   1.851
 5486TIP3   OH216334   7.418   6.222   1.152
 5486TIP3    H116335   7.405   6.155   1.220
 5486TIP3    H216336   7.444   6.300   1.201
 5487TIP3   OH216337   6.446   6.227   1.562
 5487TIP3    H116338   6.435   6.132   1.565
 5487TIP3    H216339   6.540   6.241   1.552
 5488TIP3   OH216340   6.150   5.434   1.342
 5488TIP3    H116341   6.104   5.517   1.359
 5488TIP3    H216342   6.083   5.376   1.307
 5489TIP3   OH216343   6.212   5.721   1.516
 5489TIP3    H116344   6.257   5.645   1.553
 5489TIP3    H216345   6.260   5.739   1.435
 5490TIP3   OH216346   7.065   6.686   1.167
 5490TIP3    H116347   7.109   6.617   1.117
 5490TIP3    H216348   7.056   6.650   1.256
 5491TIP3   OH216349   6.975   6.144   1.518
 5491TIP3    H116350   7.013   6.066   1.477
 5491TIP3    H216351   7.051   6.197   1.543
 5492TIP3   OH216352   7.986   5.470   1.514
 5492TIP3    H116353   8.013   5.550   1.559
 5492TIP3    H216354   8.005   5.487   1.422
 5493TIP3   OH216355   7.380   5.648   1.546
 5493TIP3    H116356   7.425   5.567   1.570
 5493TIP3    H216357   7.347   5.632   1.458
 5494TIP3   OH216358   7.419   5.412   1.146
 5494TIP3    H116359   7.492   5.390   1.205
 5494TIP3    H216360   7.461   5.439   1.065
 5495TIP3   OH216361   6.354   5.514   1.624
 5495TIP3    H116362   6.432   5.494   1.676
 5495TIP3    H216363   6.362   5.458   1.547
 5496TIP3   OH216364   8.056   5.677   1.686
 5496TIP3    H116365   7.976   5.723   1.664
 5496TIP3    H216366   8.074   5.702   1.777
 5497TIP3   OH216367   6.714   5.292   1.950
 5497TIP3    H116368   6.653   5.328   1.886
 5497TIP3    H216369   6.671   5.306   2.035
 5498TIP3   OH216370   7.060   6.138   0.963
 5498TIP3    H116371   7.032   6.122   0.873
 5498TIP3    H216372   7.022   6.224   0.985
 5499TIP3   OH216373   6.820   6.068   1.748
 5499TIP3    H116374   6.757   6.131   1.785
 5499TIP3    H216375   6.862   6.116   1.677
 5500TIP3   OH216376   7.633   5.400   1.312
 5500TIP3    H116377   7.623   5.353   1.395
 5500TIP3    H216378   7.683   5.479   1.334
 5501TIP3   OH216379   6.584   5.403   1.734
 5501TIP3    H116380   6.645   5.474   1.755
 5501TIP3    H216381   6.621   5.362   1.656
 5502TIP3   OH216382   6.648   6.263   1.844
 5502TIP3    H116383   6.628   6.347   1.802
 5502TIP3    H216384   6.573   6.245   1.900
 5503TIP3   OH216385   6.049   5.953   1.078
 5503TIP3    H116386   6.007   5.975   0.995
 5503TIP3    H216387   6.077   6.037   1.114
 5504TIP3   OH216388   7.486   6.468   1.320
 5504TIP3    H116389   7.399   6.457   1.358
 5504TIP3    H216390   7.481   6.551   1.272
 5505TIP3   OH216391   7.778   5.369   1.679
 5505TIP3    H116392   7.691   5.399   1.652
 5505TIP3    H216393   7.836   5.399   1.610
 5506TIP3   OH216394   7.072   5.011   1.663
 5506TIP3    H116395   7.064   4.917   1.680
 5506TIP3    H216396   6.998   5.050   1.709
 5507TIP3   OH216397   7.189   6.512   0.994
 5507TIP3    H116398   7.233   6.430   0.973
 5507TIP3    H216399   7.245   6.580   0.957
 5508TIP3   OH216400   7.328   6.301   0.901
 5508TIP3    H116401   7.319   6.229   0.839
 5508TIP3    H216402   7.363   6.260   0.981
 5509TIP3   OH216403   7.713   6.381   1.660
 5509TIP3    H116404   7.703   6.304   1.604
 5509TIP3    H216405   7.696   6.456   1.602
 5510TIP3   OH216406   7.005   5.778   0.916
 5510TIP3    H116407   6.925   5.828   0.898
 5510TIP3    H216408   7.047   5.767   0.831
 5511TIP3   OH216409   6.970   5.556   0.666
 5511TIP3    H116410   7.053   5.592   0.696
 5511TIP3    H216411   6.994   5.490   0.602
 5512TIP3   OH216412   7.907   6.018   1.504
 5512TIP3    H116413   7.826   6.068   1.513
 5512TIP3    H216414   7.939   6.040   1.416
 5513TIP3   OH216415   7.349   5.851   0.901
 5513TIP3    H116416   7.298   5.881   0.977
 5513TIP3    H216417   7.435   5.830   0.937
 5514TIP3   OH216418   7.585   5.899   1.802
 5514TIP3    H116419   7.586   5.979   1.854
 5514TIP3    H216420   7.502   5.902   1.755
 5515TIP3   OH216421   6.582   5.838   1.313
 5515TIP3    H116422   6.519   5.805   1.249
 5515TIP3    H216423   6.663   5.793   1.291
 5516TIP3   OH216424   6.713   6.261   1.456
 5516TIP3    H116425   6.693   6.229   1.368
 5516TIP3    H216426   6.802   6.230   1.473
 5517TIP3   OH216427   6.752   5.827   1.643
 5517TIP3    H116428   6.747   5.864   1.555
 5517TIP3    H216429   6.772   5.902   1.700
 5518TIP3   OH216430   7.247   6.463   1.441
 5518TIP3    H116431   7.231   6.543   1.492
 5518TIP3    H216432   7.230   6.392   1.503
 5519TIP3   OH216433   6.855   6.382   1.985
 5519TIP3    H116434   6.800   6.445   2.032
 5519TIP3    H216435   6.793   6.329   1.936
 5520TIP3   OH216436   7.203   5.718   0.714
 5520TIP3    H116437   7.254   5.761   0.782
 5520TIP3    H216438   7.227   5.762   0.633
 5521TIP3   OH216439   6.605   5.943   2.080
 5521TIP3    H116440   6.618   6.026   2.125
 5521TIP3    H216441   6.515   5.918   2.100
 5522TIP3   OH216442   6.930   6.394   1.005
 5522TIP3    H116443   7.007   6.449   1.017
 5522TIP3    H216444   6.867   6.450   0.959
 5523TIP3   OH216445   6.651   6.551   2.073
 5523TIP3    H116446   6.619   6.550   1.983
 5523TIP3    H216447   6.575   6.529   2.126
 5524TIP3   OH216448   7.698   4.948   0.772
 5524TIP3    H116449   7.619   4.964   0.825
 5524TIP3    H216450   7.711   5.030   0.725
 5525TIP3   OH216451   6.444   5.702   1.120
 5525TIP3    H116452   6.384   5.745   1.059
 5525TIP3    H216453   6.412   5.612   1.126
 5526TIP3   OH216454   6.232   6.079   2.019
 5526TIP3    H116455   6.166   6.060   1.952
 5526TIP3    H216456   6.267   5.993   2.043
 5527TIP3   OH216457   6.087   6.273   1.657
 5527TIP3    H116458   6.182   6.272   1.643
 5527TIP3    H216459   6.071   6.354   1.705
 5528TIP3   OH216460   7.949   6.723   1.709
 5528TIP3    H116461   7.950   6.628   1.720
 5528TIP3    H216462   7.869   6.751   1.753
 5529TIP3   OH216463   7.055   6.512   1.845
 5529TIP3    H116464   7.057   6.603   1.874
 5529TIP3    H216465   6.986   6.471   1.896
 5530TIP3   OH216466   6.792   6.646   0.804
 5530TIP3    H116467   6.778   6.635   0.710
 5530TIP3    H216468   6.779   6.739   0.820
 5531TIP3   OH216469   6.254   6.489   1.179
 5531TIP3    H116470   6.302   6.481   1.261
 5531TIP3    H216471   6.192   6.417   1.180
 5532TIP3   OH216472   7.045   6.559   0.750
 5532TIP3    H116473   6.955   6.574   0.778
 5532TIP3    H216474   7.086   6.515   0.825
 5533TIP3   OH216475   7.840   5.855   1.981
 5533TIP3    H116476   7.760   5.871   1.932
 5533TIP3    H216477   7.856   5.761   1.972
 5534TIP3   OH216478   6.436   6.262   2.010
 5534TIP3    H116479   6.486   6.247   2.091
 5534TIP3    H216480   6.363   6.201   2.016
 5535TIP3   OH216481   6.831   5.095   1.791
 5535TIP3    H116482   6.747   5.058   1.764
 5535TIP3    H216483   6.808   5.169   1.847
 5536TIP3   OH216484   7.370   5.201   1.987
 5536TIP3    H116485   7.437   5.176   2.050
 5536TIP3    H216486   7.287   5.183   2.032
 5537TIP3   OH216487   7.608   5.633   1.905
 5537TIP3    H116488   7.561   5.628   1.988
 5537TIP3    H216489   7.585   5.719   1.870
 5538TIP3   OH216490   6.757   5.602   1.802
 5538TIP3    H116491   6.714   5.622   1.884
 5538TIP3    H216492   6.752   5.683   1.751
 5539TIP3   OH216493   7.140   5.580   1.049
 5539TIP3    H116494   7.095   5.652   1.005
 5539TIP3    H216495   7.201   5.546   0.984
 5540TIP3   OH216496   7.317   5.852   2.139
 5540TIP3    H116497   7.293   5.781   2.199
 5540TIP3    H216498   7.409   5.871   2.159
 5541TIP3   OH216499   7.299   5.611   1.283
 5541TIP3    H116500   7.241   5.639   1.212
 5541TIP3    H216501   7.338   5.530   1.250
 5542TIP3   OH216502   6.588   5.630   2.021
 5542TIP3    H116503   6.611   5.696   2.086
 5542TIP3    H216504   6.575   5.549   2.071
 5543TIP3   OH216505   6.631   5.125   0.730
 5543TIP3    H116506   6.634   5.117   0.826
 5543TIP3    H216507   6.556   5.183   0.713
 5544TIP3   OH216508   6.182   5.152   1.597
 5544TIP3    H116509   6.251   5.187   1.654
 5544TIP3    H216510   6.228   5.128   1.516
 5545TIP3   OH216511   6.156   5.138   1.113
 5545TIP3    H116512   6.195   5.180   1.037
 5545TIP3    H216513   6.092   5.203   1.145
 5546TIP3   OH216514   7.308   5.847   1.712
 5546TIP3    H116515   7.341   5.777   1.655
 5546TIP3    H216516   7.279   5.802   1.791
 5547TIP3   OH216517   6.414   5.357   1.417
 5547TIP3    H116518   6.330   5.367   1.371
 5547TIP3    H216519   6.457   5.284   1.373
 5548TIP3   OH216520   6.681   5.366   1.085
 5548TIP3    H116521   6.772   5.383   1.062
 5548TIP3    H216522   6.631   5.388   1.006
 5549TIP3   OH216523   7.474   5.389   1.589
 5549TIP3    H116524   7.440   5.401   1.678
 5549TIP3    H216525   7.414   5.328   1.547
 5550TIP3   OH216526   6.519   5.395   0.863
 5550TIP3    H116527   6.451   5.355   0.808
 5550TIP3    H216528   6.579   5.436   0.801
 5551TIP3   OH216529   7.641   7.077   1.805
 5551TIP3    H116530   7.639   7.098   1.712
 5551TIP3    H216531   7.719   7.123   1.837
 5552TIP3   OH216532   6.600   6.185   2.231
 5552TIP3    H116533   6.679   6.215   2.275
 5552TIP3    H216534   6.533   6.183   2.300
 5553TIP3   OH216535   6.586   5.134   1.352
 5553TIP3    H116536   6.560   5.059   1.405
 5553TIP3    H216537   6.649   5.099   1.289
 5554TIP3   OH216538   7.030   5.526   1.780
 5554TIP3    H116539   6.948   5.574   1.792
 5554TIP3    H216540   7.097   5.585   1.813
 5555TIP3   OH216541   6.766   5.921   0.878
 5555TIP3    H116542   6.695   5.860   0.862
 5555TIP3    H216543   6.750   5.954   0.967
 5556TIP3   OH216544   7.677   6.164   1.497
 5556TIP3    H116545   7.702   6.213   1.418
 5556TIP3    H216546   7.594   6.122   1.474
 5557TIP3   OH216547   7.173   6.244   1.868
 5557TIP3    H116548   7.198   6.225   1.958
 5557TIP3    H216549   7.136   6.333   1.872
 5558TIP3   OH216550   7.305   5.485   0.857
 5558TIP3    H116551   7.400   5.485   0.855
 5558TIP3    H216552   7.279   5.531   0.777
 5559TIP3   OH216553   6.475   5.952   1.550
 5559TIP3    H116554   6.505   5.914   1.467
 5559TIP3    H216555   6.490   5.882   1.614
 5560TIP3   OH216556   6.922   6.086   0.727
 5560TIP3    H116557   6.877   6.170   0.720
 5560TIP3    H216558   6.862   6.031   0.777
 5561TIP3   OH216559   6.349   5.865   2.157
 5561TIP3    H116560   6.370   5.856   2.250
 5561TIP3    H216561   6.278   5.802   2.142
 5562TIP3   OH216562   7.075   5.982   2.175
 5562TIP3    H116563   7.014   5.923   2.130
 5562TIP3    H216564   7.162   5.951   2.150
 5563TIP3   OH216565   7.334   6.502   1.765
 5563TIP3    H116566   7.239   6.502   1.773
 5563TIP3    H216567   7.364   6.555   1.839
 5564TIP3   OH216568   7.709   5.592   0.710
 5564TIP3    H116569   7.739   5.523   0.651
 5564TIP3    H216570   7.708   5.671   0.656
 5565TIP3   OH216571   7.962   6.432   1.749
 5565TIP3    H116572   7.866   6.430   1.745
 5565TIP3    H216573   7.991   6.404   1.662
 5566TIP3   OH216574   7.445   6.024   1.418
 5566TIP3    H116575   7.352   6.007   1.431
 5566TIP3    H216576   7.478   5.947   1.372
 5567TIP3   OH216577   6.568   6.254   1.169
 5567TIP3    H116578   6.574   6.333   1.115
 5567TIP3    H216579   6.474   6.237   1.177
 5568TIP3   OH216580   6.134   5.556   0.875
 5568TIP3    H116581   6.179   5.639   0.889
 5568TIP3    H216582   6.056   5.561   0.930
 5569TIP3   OH216583   6.705   6.016   1.125
 5569TIP3    H116584   6.682   6.109   1.127
 5569TIP3    H216585   6.656   5.978   1.199
 5570TIP3   OH216586   6.839   6.597   1.638
 5570TIP3    H116587   6.876   6.669   1.587
 5570TIP3    H216588   6.914   6.562   1.687
 5571TIP3   OH216589   6.490   6.491   1.027
 5571TIP3    H116590   6.404   6.499   1.068
 5571TIP3    H216591   6.524   6.581   1.026
 5572TIP3   OH216592   7.227   6.229   1.600
 5572TIP3    H116593   7.215   6.229   1.695
 5572TIP3    H216594   7.311   6.184   1.586
 5573TIP3   OH216595   7.143   6.199   0.544
 5573TIP3    H116596   7.185   6.158   0.619
 5573TIP3    H216597   7.072   6.139   0.520
 5574TIP3   OH216598   7.472   6.766   1.645
 5574TIP3    H116599   7.396   6.710   1.639
 5574TIP3    H216600   7.461   6.830   1.575
 5575TIP3   OH216601   6.560   5.371   2.167
 5575TIP3    H116602   6.466   5.380   2.180
 5575TIP3    H216603   6.589   5.316   2.240
 5576TIP3   OH216604   7.342   6.073   0.727
 5576TIP3    H116605   7.341   5.996   0.785
 5576TIP3    H216606   7.431   6.076   0.693
 5577TIP3   OH216607   6.278   6.460   1.798
 5577TIP3    H116608   6.327   6.383   1.828
 5577TIP3    H216609   6.304   6.530   1.858
 5578TIP3   OH216610   6.513   6.065   0.487
 5578TIP3    H116611   6.572   5.993   0.466
 5578TIP3    H216612   6.524   6.080   0.580
 5579TIP3   OH216613   6.517   6.110   0.757
 5579TIP3    H116614   6.591   6.083   0.813
 5579TIP3    H216615   6.517   6.205   0.760
 5580TIP3   OH216616   6.248   5.806   0.955
 5580TIP3    H116617   6.182   5.847   1.011
 5580TIP3    H216618   6.265   5.871   0.886
 5581TIP3   OH216619   7.397   5.436   1.846
 5581TIP3    H116620   7.474   5.478   1.885
 5581TIP3    H216621   7.382   5.359   1.900
 5582TIP3   OH216622   7.270   5.197   1.011
 5582TIP3    H116623   7.221   5.189   0.929
 5582TIP3    H216624   7.304   5.286   1.010
 5583TIP3   OH216625   6.775   6.309   0.694
 5583TIP3    H116626   6.689   6.339   0.725
 5583TIP3    H216627   6.784   6.346   0.606
 5584TIP3   OH216628   6.983   5.396   1.177
 5584TIP3    H116629   7.020   5.454   1.110
 5584TIP3    H216630   7.027   5.312   1.164
 5585TIP3   OH216631   7.238   5.688   1.921
 5585TIP3    H116632   7.252   5.743   1.998
 5585TIP3    H216633   7.291   5.610   1.937
 5586TIP3   OH216634   7.126   5.116   1.223
 5586TIP3    H116635   7.172   5.154   1.298
 5586TIP3    H216636   7.182   5.138   1.148
 5587TIP3   OH216637   6.518   6.378   0.773
 5587TIP3    H116638   6.496   6.445   0.707
 5587TIP3    H216639   6.506   6.423   0.857
 5588TIP3   OH216640   6.616   5.098   1.006
 5588TIP3    H116641   6.608   5.186   1.042
 5588TIP3    H216642   6.706   5.072   1.024
 5589TIP3   OH216643   7.874   5.588   1.900
 5589TIP3    H116644   7.778   5.587   1.911
 5589TIP3    H216645   7.889   5.550   1.814
 5590TIP3   OH216646   7.526   5.784   1.294
 5590TIP3    H116647   7.452   5.724   1.301
 5590TIP3    H216648   7.598   5.738   1.337
 5591TIP3   OH216649   6.235   6.025   0.768
 5591TIP3    H116650   6.297   6.098   0.775
 5591TIP3    H216651   6.278   5.964   0.707
 5592TIP3   OH216652   6.179   5.284   0.887
 5592TIP3    H116653   6.191   5.379   0.887
 5592TIP3    H216654   6.091   5.271   0.852
 5593TIP3   OH216655   7.495   6.740   1.239
 5593TIP3    H116656   7.447   6.785   1.170
 5593TIP3    H216657   7.587   6.758   1.220
 5594TIP3   OH216658   6.572   5.007   1.767
 5594TIP3    H116659   6.541   4.977   1.682
 5594TIP3    H216660   6.562   4.932   1.825
 5595TIP3   OH216661   6.109   6.224   1.148
 5595TIP3    H116662   6.038   6.256   1.204
 5595TIP3    H216663   6.090   6.263   1.062
 5596TIP3   OH216664   6.267   6.765   2.221
 5596TIP3    H116665   6.352   6.766   2.266
 5596TIP3    H216666   6.243   6.673   2.217
 5597TIP3   OH216667   6.751   6.733   2.261
 5597TIP3    H116668   6.844   6.713   2.272
 5597TIP3    H216669   6.723   6.676   2.189
 5598TIP3   OH216670   7.389   6.637   1.998
 5598TIP3    H116671   7.379   6.569   2.064
 5598TIP3    H216672   7.464   6.689   2.027
 5599TIP3   OH216673   6.396   6.173   2.417
 5599TIP3    H116674   6.414   6.080   2.428
 5599TIP3    H216675   6.310   6.177   2.376
 5600TIP3   OH216676   6.370   5.825   0.647
 5600TIP3    H116677   6.423   5.794   0.720
 5600TIP3    H216678   6.429   5.827   0.572
 5601TIP3   OH216679   7.007   6.259   2.191
 5601TIP3    H116680   6.963   6.275   2.107
 5601TIP3    H216681   7.037   6.168   2.185
 5602TIP3   OH216682   6.964   6.007   0.461
 5602TIP3    H116683   6.915   6.032   0.539
 5602TIP3    H216684   6.902   5.958   0.408
 5603TIP3   OH216685   7.497   6.268   1.796
 5603TIP3    H116686   7.573   6.310   1.754
 5603TIP3    H216687   7.426   6.332   1.787
 5604TIP3   OH216688   6.520   5.906   2.401
 5604TIP3    H116689   6.592   5.844   2.385
 5604TIP3    H216690   6.538   5.942   2.488
 5605TIP3   OH216691   6.577   5.724   0.840
 5605TIP3    H116692   6.553   5.676   0.918
 5605TIP3    H216693   6.621   5.660   0.784
 5606TIP3   OH216694   6.852   5.793   2.058
 5606TIP3    H116695   6.776   5.851   2.064
 5606TIP3    H216696   6.902   5.826   1.983
 5607TIP3   OH216697   6.694   5.520   0.697
 5607TIP3    H116698   6.664   5.510   0.607
 5607TIP3    H216699   6.789   5.529   0.690
 5608TIP3   OH216700   7.368   6.193   2.197
 5608TIP3    H116701   7.450   6.173   2.151
 5608TIP3    H216702   7.364   6.129   2.268
 5609TIP3   OH216703   6.974   5.581   2.187
 5609TIP3    H116704   6.975   5.501   2.135
 5609TIP3    H216705   6.931   5.646   2.132
 5610TIP3   OH216706   6.975   5.364   1.996
 5610TIP3    H116707   7.004   5.407   1.916
 5610TIP3    H216708   6.883   5.343   1.981
 5611TIP3   OH216709   7.005   5.902   1.863
 5611TIP3    H116710   7.090   5.912   1.820
 5611TIP3    H216711   6.950   5.969   1.824
 5612TIP3   OH216712   7.588   5.869   2.250
 5612TIP3    H116713   7.635   5.787   2.263
 5612TIP3    H216714   7.655   5.930   2.217
 5613TIP3   OH216715   7.629   6.124   1.982
 5613TIP3    H116716   7.569   6.174   1.927
 5613TIP3    H216717   7.716   6.142   1.946
 5614TIP3   OH216718   6.850   5.693   2.414
 5614TIP3    H116719   6.782   5.629   2.434
 5614TIP3    H216720   6.887   5.664   2.331
 5615TIP3   OH216721   7.108   5.130   2.061
 5615TIP3    H116722   7.062   5.211   2.041
 5615TIP3    H216723   7.041   5.062   2.052
 5616TIP3   OH216724   7.234   5.635   2.281
 5616TIP3    H116725   7.228   5.625   2.376
 5616TIP3    H216726   7.147   5.611   2.249
 5617TIP3   OH216727   7.474   5.582   2.135
 5617TIP3    H116728   7.400   5.586   2.195
 5617TIP3    H216729   7.547   5.553   2.190
 5618TIP3   OH216730   7.706   5.524   2.286
 5618TIP3    H116731   7.716   5.431   2.304
 5618TIP3    H216732   7.699   5.564   2.372
 5619TIP3   OH216733   6.693   5.471   2.471
 5619TIP3    H116734   6.698   5.382   2.438
 5619TIP3    H216735   6.726   5.465   2.561
 5620TIP3   OH216736   7.205   5.139   2.317
 5620TIP3    H116737   7.272   5.070   2.315
 5620TIP3    H216738   7.164   5.134   2.231
 5621TIP3   OH216739   7.268   5.355   2.479
 5621TIP3    H116740   7.248   5.286   2.416
 5621TIP3    H216741   7.193   5.415   2.474
 5622TIP3   OH216742   6.484   6.572   0.582
 5622TIP3    H116743   6.549   6.630   0.543
 5622TIP3    H216744   6.402   6.594   0.537
 5623TIP3   OH216745   5.970   5.963   0.802
 5623TIP3    H116746   6.060   5.992   0.786
 5623TIP3    H216747   5.964   5.879   0.758
 5624TIP3   OH216748   5.882   6.576   1.211
 5624TIP3    H116749   5.817   6.518   1.172
 5624TIP3    H216750   5.928   6.521   1.274
 5625TIP3   OH216751   6.023   6.430   1.397
 5625TIP3    H116752   6.006   6.356   1.455
 5625TIP3    H216753   6.072   6.493   1.450
 5626TIP3   OH216754   7.742   6.840   1.198
 5626TIP3    H116755   7.772   6.867   1.285
 5626TIP3    H216756   7.811   6.869   1.139
 5627TIP3   OH216757   7.778   6.849   1.480
 5627TIP3    H116758   7.733   6.766   1.472
 5627TIP3    H216759   7.855   6.830   1.534
 5628TIP3   OH216760   7.823   6.528   2.052
 5628TIP3    H116761   7.751   6.534   2.114
 5628TIP3    H216762   7.864   6.614   2.054
 5629TIP3   OH216763   7.615   6.050   0.684
 5629TIP3    H116764   7.677   6.108   0.641
 5629TIP3    H216765   7.669   5.996   0.742
 5630TIP3   OH216766   7.771   5.907   0.871
 5630TIP3    H116767   7.703   5.867   0.925
 5630TIP3    H216768   7.831   5.948   0.933
 5631TIP3   OH216769   7.823   6.299   1.306
 5631TIP3    H116770   7.873   6.235   1.256
 5631TIP3    H216771   7.813   6.374   1.247
 5632TIP3   OH216772   7.652   6.600   1.502
 5632TIP3    H116773   7.583   6.642   1.553
 5632TIP3    H216774   7.605   6.552   1.433
 5633TIP3   OH216775   7.585   5.765   1.024
 5633TIP3    H116776   7.587   5.670   1.013
 5633TIP3    H216777   7.571   5.778   1.118
 5634TIP3   OH216778   6.214   5.834   1.768
 5634TIP3    H116779   6.205   5.806   1.676
 5634TIP3    H216780   6.309   5.836   1.782
 5635TIP3   OH216781   7.872   6.189   1.877
 5635TIP3    H116782   7.943   6.124   1.869
 5635TIP3    H216783   7.897   6.258   1.817
 5636TIP3   OH216784   8.057   5.992   1.897
 5636TIP3    H116785   7.981   5.947   1.934
 5636TIP3    H216786   8.130   5.931   1.909
 5637TIP3   OH216787   7.512   5.234   0.495
 5637TIP3    H116788   7.586   5.196   0.541
 5637TIP3    H216789   7.436   5.183   0.523
 5638TIP3   OH216790   7.580   5.481   0.925
 5638TIP3    H116791   7.624   5.396   0.933
 5638TIP3    H216792   7.625   5.524   0.853
 5639TIP3   OH216793   7.743   5.657   1.412
 5639TIP3    H116794   7.825   5.680   1.369
 5639TIP3    H216795   7.752   5.691   1.501
 5640TIP3   OH216796   7.807   5.800   1.644
 5640TIP3    H116797   7.731   5.831   1.692
 5640TIP3    H216798   7.840   5.877   1.598
 5641TIP3   OH216799   6.427   5.521   2.440
 5641TIP3    H116800   6.522   5.520   2.443
 5641TIP3    H216801   6.400   5.440   2.483
 5642TIP3   OH216802   8.262   5.389   2.198
 5642TIP3    H116803   8.318   5.324   2.157
 5642TIP3    H216804   8.232   5.444   2.125
 5643TIP3   OH216805   7.691   5.226   0.952
 5643TIP3    H116806   7.736   5.214   1.036
 5643TIP3    H216807   7.626   5.157   0.949
 5644TIP3   OH216808   6.384   5.212   1.777
 5644TIP3    H116809   6.445   5.139   1.785
 5644TIP3    H216810   6.441   5.289   1.771
 5645TIP3   OH216811   6.191   5.490   1.848
 5645TIP3    H116812   6.236   5.486   1.763
 5645TIP3    H216813   6.212   5.577   1.882
 5646TIP3   OH216814   8.129   5.528   2.006
 5646TIP3    H116815   8.046   5.570   2.030
 5646TIP3    H216816   8.103   5.457   1.947
 5647TIP3   OH216817   7.753   5.161   0.612
 5647TIP3    H116818   7.823   5.123   0.559
 5647TIP3    H216819   7.769   5.255   0.610
 5648TIP3   OH216820   6.169   4.985   1.340
 5648TIP3    H116821   6.080   4.990   1.376
 5648TIP3    H216822   6.169   5.050   1.270
 5649TIP3   OH216823   7.341   6.696   0.867
 5649TIP3    H116824   7.357   6.667   0.777
 5649TIP3    H216825   7.398   6.772   0.879
 5650TIP3   OH216826   6.390   5.072   2.161
 5650TIP3    H116827   6.344   5.068   2.245
 5650TIP3    H216828   6.327   5.112   2.101
 5651TIP3   OH216829   6.431   6.500   2.241
 5651TIP3    H116830   6.341   6.473   2.222
 5651TIP3    H216831   6.443   6.480   2.334
 5652TIP3   OH216832   6.612   6.534   1.784
 5652TIP3    H116833   6.559   6.605   1.749
 5652TIP3    H216834   6.698   6.545   1.743
 5653TIP3   OH216835   7.059   6.778   1.925
 5653TIP3    H116836   7.097   6.777   2.013
 5653TIP3    H216837   7.122   6.828   1.872
 5654TIP3   OH216838   7.237   6.929   1.784
 5654TIP3    H116839   7.305   6.877   1.740
 5654TIP3    H216840   7.286   6.986   1.844
 5655TIP3   OH216841   8.029   5.290   1.882
 5655TIP3    H116842   7.939   5.288   1.849
 5655TIP3    H216843   8.060   5.200   1.872
 5656TIP3   OH216844   6.286   6.791   1.811
 5656TIP3    H116845   6.200   6.823   1.783
 5656TIP3    H216846   6.295   6.823   1.901
 5657TIP3   OH216847   6.523   6.769   1.667
 5657TIP3    H116848   6.439   6.781   1.713
 5657TIP3    H216849   6.506   6.801   1.578
 5658TIP3   OH216850   6.949   6.799   1.466
 5658TIP3    H116851   6.881   6.815   1.400
 5658TIP3    H216852   6.962   6.885   1.507
 5659TIP3   OH216853   7.217   6.739   1.517
 5659TIP3    H116854   7.124   6.752   1.499
 5659TIP3    H216855   7.261   6.811   1.473
 5660TIP3   OH216856   7.430   6.932   1.430
 5660TIP3    H116857   7.411   7.014   1.384
 5660TIP3    H216858   7.452   6.870   1.360
 5661TIP3   OH216859   6.201   6.582   1.556
 5661TIP3    H116860   6.224   6.559   1.646
 5661TIP3    H216861   6.269   6.542   1.503
 5662TIP3   OH216862   6.393   6.455   1.413
 5662TIP3    H116863   6.407   6.373   1.460
 5662TIP3    H216864   6.480   6.494   1.405
 5663TIP3   OH216865   6.659   6.551   1.415
 5663TIP3    H116866   6.689   6.462   1.397
 5663TIP3    H216867   6.699   6.574   1.499
 5664TIP3   OH216868   7.224   5.194   1.474
 5664TIP3    H116869   7.187   5.139   1.542
 5664TIP3    H216870   7.310   5.157   1.456
 5665TIP3   OH216871   7.757   5.090   1.408
 5665TIP3    H116872   7.795   5.138   1.335
 5665TIP3    H216873   7.663   5.107   1.401
 5666TIP3   OH216874   7.855   5.188   1.172
 5666TIP3    H116875   7.924   5.135   1.133
 5666TIP3    H216876   7.884   5.279   1.159
 5667TIP3   OH216877   6.484   4.913   1.521
 5667TIP3    H116878   6.392   4.885   1.523
 5667TIP3    H216879   6.534   4.832   1.516
 5668TIP3   OH216880   6.257   4.785   1.167
 5668TIP3    H116881   6.302   4.846   1.109
 5668TIP3    H216882   6.227   4.839   1.240
 5669TIP3   OH216883   6.928   4.949   1.403
 5669TIP3    H116884   6.977   4.996   1.335
 5669TIP3    H216885   6.964   4.981   1.486
 5670TIP3   OH216886   7.471   5.092   1.385
 5670TIP3    H116887   7.474   5.062   1.295
 5670TIP3    H216888   7.459   5.013   1.437
 5671TIP3   OH216889   7.498   5.018   0.950
 5671TIP3    H116890   7.412   5.060   0.948
 5671TIP3    H216891   7.483   4.934   0.994
 5672TIP3   OH216892   5.983   6.359   0.949
 5672TIP3    H116893   5.901   6.324   0.915
 5672TIP3    H216894   5.982   6.452   0.924
 5673TIP3   OH216895   6.424   4.907   0.909
 5673TIP3    H116896   6.518   4.916   0.898
 5673TIP3    H216897   6.398   4.985   0.958
 5674TIP3   OH216898   6.878   5.114   1.069
 5674TIP3    H116899   6.952   5.053   1.067
 5674TIP3    H216900   6.903   5.184   1.009
 5675TIP3   OH216901   6.693   5.195   2.410
 5675TIP3    H116902   6.655   5.127   2.465
 5675TIP3    H216903   6.786   5.197   2.435
 5676TIP3   OH216904   6.941   5.190   2.529
 5676TIP3    H116905   7.026   5.168   2.490
 5676TIP3    H216906   6.926   5.123   2.595
 5677TIP3   OH216907   6.058   6.366   0.584
 5677TIP3    H116908   6.049   6.417   0.665
 5677TIP3    H216909   6.150   6.340   0.583
 5678TIP3   OH216910   7.766   5.252   2.317
 5678TIP3    H116911   7.782   5.223   2.407
 5678TIP3    H216912   7.852   5.249   2.275
 5679TIP3   OH216913   7.702   6.809   1.808
 5679TIP3    H116914   7.627   6.773   1.761
 5679TIP3    H216915   7.685   6.903   1.813
 5680TIP3   OH216916   8.938   6.165   0.967
 5680TIP3    H116917   8.996   6.172   1.042
 5680TIP3    H216918   8.913   6.073   0.964
 5681TIP3   OH216919   8.270   6.075   1.323
 5681TIP3    H116920   8.300   6.008   1.384
 5681TIP3    H216921   8.348   6.128   1.306
 5682TIP3   OH216922   8.235   6.474   1.060
 5682TIP3    H116923   8.227   6.379   1.056
 5682TIP3    H216924   8.330   6.489   1.063
 5683TIP3   OH216925   7.934   5.683   0.833
 5683TIP3    H116926   7.906   5.774   0.845
 5683TIP3    H216927   7.854   5.637   0.808
 5684TIP3   OH216928   8.015   5.976   1.000
 5684TIP3    H116929   8.057   5.898   1.037
 5684TIP3    H216930   8.076   6.006   0.933
 5685TIP3   OH216931   8.763   6.402   1.004
 5685TIP3    H116932   8.793   6.316   0.976
 5685TIP3    H216933   8.843   6.449   1.029
 5686TIP3   OH216934   9.194   5.928   1.040
 5686TIP3    H116935   9.196   5.834   1.058
 5686TIP3    H216936   9.157   5.935   0.952
 5687TIP3   OH216937   8.504   5.558   1.012
 5687TIP3    H116938   8.485   5.637   0.963
 5687TIP3    H216939   8.460   5.488   0.963
 5688TIP3   OH216940   8.152   5.762   1.103
 5688TIP3    H116941   8.233   5.749   1.152
 5688TIP3    H216942   8.162   5.709   1.025
 5689TIP3   OH216943   8.611   5.972   0.919
 5689TIP3    H116944   8.704   5.947   0.921
 5689TIP3    H216945   8.566   5.897   0.882
 5690TIP3   OH216946   8.513   5.552   1.438
 5690TIP3    H116947   8.456   5.587   1.369
 5690TIP3    H216948   8.464   5.567   1.519
 5691TIP3   OH216949   8.623   6.327   1.235
 5691TIP3    H116950   8.559   6.388   1.273
 5691TIP3    H216951   8.666   6.377   1.166
 5692TIP3   OH216952   8.384   5.668   1.225
 5692TIP3    H116953   8.444   5.739   1.247
 5692TIP3    H216954   8.426   5.622   1.153
 5693TIP3   OH216955   8.445   6.520   1.328
 5693TIP3    H116956   8.424   6.605   1.291
 5693TIP3    H216957   8.371   6.499   1.385
 5694TIP3   OH216958   8.869   5.270   1.156
 5694TIP3    H116959   8.855   5.175   1.159
 5694TIP3    H216960   8.789   5.307   1.194
 5695TIP3   OH216961   8.346   6.056   0.826
 5695TIP3    H116962   8.334   6.118   0.754
 5695TIP3    H216963   8.440   6.041   0.829
 5696TIP3   OH216964   8.521   6.526   0.932
 5696TIP3    H116965   8.476   6.451   0.893
 5696TIP3    H216966   8.606   6.492   0.960
 5697TIP3   OH216967   8.518   6.083   1.157
 5697TIP3    H116968   8.547   6.057   1.069
 5697TIP3    H216969   8.560   6.167   1.172
 5698TIP3   OH216970   8.650   6.637   1.476
 5698TIP3    H116971   8.595   6.701   1.520
 5698TIP3    H216972   8.589   6.584   1.425
 5699TIP3   OH216973   8.408   6.196   1.576
 5699TIP3    H116974   8.415   6.281   1.620
 5699TIP3    H216975   8.315   6.175   1.579
 5700TIP3   OH216976   8.447   6.808   1.559
 5700TIP3    H116977   8.414   6.808   1.469
 5700TIP3    H216978   8.371   6.786   1.612
 5701TIP3   OH216979   8.028   6.337   1.505
 5701TIP3    H116980   7.964   6.317   1.437
 5701TIP3    H216981   8.064   6.251   1.529
 5702TIP3   OH216982   7.885   6.529   1.144
 5702TIP3    H116983   7.978   6.521   1.125
 5702TIP3    H216984   7.878   6.608   1.198
 5703TIP3   OH216985   8.849   6.767   1.333
 5703TIP3    H116986   8.853   6.858   1.362
 5703TIP3    H216987   8.781   6.727   1.386
 5704TIP3   OH216988   8.234   6.518   1.497
 5704TIP3    H116989   8.283   6.503   1.578
 5704TIP3    H216990   8.160   6.458   1.502
 5705TIP3   OH216991   8.628   5.344   1.280
 5705TIP3    H116992   8.543   5.310   1.252
 5705TIP3    H216993   8.609   5.428   1.322
 5706TIP3   OH216994   9.153   5.461   1.479
 5706TIP3    H116995   9.203   5.441   1.558
 5706TIP3    H216996   9.062   5.443   1.503
 5707TIP3   OH216997   8.565   5.860   1.300
 5707TIP3    H116998   8.515   5.877   1.380
 5707TIP3    H216999   8.551   5.938   1.246
 5708TIP3   OH217000   8.428   5.754   0.856
 5708TIP3    H117001   8.343   5.715   0.838
 5708TIP3    H217002   8.468   5.767   0.770
 5709TIP3   OH217003   9.116   6.109   1.627
 5709TIP3    H117004   9.088   6.040   1.687
 5709TIP3    H217005   9.209   6.123   1.646
 5710TIP3   OH217006   8.386   5.888   1.508
 5710TIP3    H117007   8.405   5.954   1.574
 5710TIP3    H217008   8.372   5.807   1.557
 5711TIP3   OH217009   7.977   5.411   1.087
 5711TIP3    H117010   8.050   5.442   1.140
 5711TIP3    H217011   8.017   5.377   1.007
 5712TIP3   OH217012   8.103   5.464   0.590
 5712TIP3    H117013   8.121   5.555   0.566
 5712TIP3    H217014   8.008   5.459   0.594
 5713TIP3   OH217015   9.080   6.112   1.201
 5713TIP3    H117016   9.136   6.057   1.145
 5713TIP3    H217017   9.064   6.058   1.278
 5714TIP3   OH217018   8.765   5.494   0.939
 5714TIP3    H117019   8.678   5.527   0.962
 5714TIP3    H217020   8.820   5.573   0.934
 5715TIP3   OH217021   8.192   5.607   0.867
 5715TIP3    H117022   8.097   5.615   0.858
 5715TIP3    H217023   8.209   5.514   0.852
 5716TIP3   OH217024   9.169   5.659   1.075
 5716TIP3    H117025   9.174   5.665   1.171
 5716TIP3    H217026   9.130   5.573   1.058
 5717TIP3   OH217027   8.395   6.443   1.718
 5717TIP3    H117028   8.474   6.473   1.763
 5717TIP3    H217029   8.328   6.441   1.787
 5718TIP3   OH217030   8.878   5.889   0.970
 5718TIP3    H117031   8.912   5.819   0.913
 5718TIP3    H217032   8.881   5.852   1.058
 5719TIP3   OH217033   8.385   5.378   0.845
 5719TIP3    H117034   8.350   5.302   0.892
 5719TIP3    H217035   8.462   5.344   0.798
 5720TIP3   OH217036   8.836   5.794   1.262
 5720TIP3    H117037   8.747   5.826   1.272
 5720TIP3    H217038   8.890   5.856   1.311
 5721TIP3   OH217039   8.972   6.505   1.354
 5721TIP3    H117040   8.981   6.485   1.447
 5721TIP3    H217041   8.935   6.593   1.353
 5722TIP3   OH217042   8.267   6.201   1.038
 5722TIP3    H117043   8.285   6.159   0.954
 5722TIP3    H217044   8.300   6.139   1.103
 5723TIP3   OH217045   8.143   6.124   1.644
 5723TIP3    H117046   8.164   6.113   1.737
 5723TIP3    H217047   8.074   6.060   1.627
 5724TIP3   OH217048   8.869   6.237   1.662
 5724TIP3    H117049   8.805   6.182   1.616
 5724TIP3    H217050   8.954   6.206   1.632
 5725TIP3   OH217051   9.137   6.769   1.245
 5725TIP3    H117052   9.042   6.758   1.244
 5725TIP3    H217053   9.156   6.816   1.326
 5726TIP3   OH217054   8.634   6.848   1.131
 5726TIP3    H117055   8.663   6.933   1.099
 5726TIP3    H217056   8.710   6.812   1.176
 5727TIP3   OH217057   9.009   6.471   1.083
 5727TIP3    H117058   9.007   6.486   1.177
 5727TIP3    H217059   9.101   6.454   1.063
 5728TIP3   OH217060   8.355   5.631   1.655
 5728TIP3    H117061   8.260   5.637   1.665
 5728TIP3    H217062   8.383   5.570   1.724
 5729TIP3   OH217063   8.068   6.719   1.290
 5729TIP3    H117064   8.119   6.640   1.307
 5729TIP3    H217065   8.103   6.784   1.351
 5730TIP3   OH217066   9.221   5.697   1.359
 5730TIP3    H117067   9.252   5.744   1.436
 5730TIP3    H217068   9.184   5.616   1.394
 5731TIP3   OH217069   9.033   5.943   1.411
 5731TIP3    H117070   9.045   6.004   1.484
 5731TIP3    H217071   9.094   5.872   1.429
 5732TIP3   OH217072   8.366   5.263   1.253
 5732TIP3    H117073   8.336   5.232   1.168
 5732TIP3    H217074   8.357   5.187   1.311
 5733TIP3   OH217075   8.063   7.021   1.708
 5733TIP3    H117076   8.148   7.023   1.753
 5733TIP3    H217077   8.040   6.928   1.704
 5734TIP3   OH217078   8.546   6.988   1.751
 5734TIP3    H117079   8.640   6.972   1.758
 5734TIP3    H217080   8.518   6.933   1.677
 5735TIP3   OH217081   9.189   6.890   1.489
 5735TIP3    H117082   9.163   6.819   1.549
 5735TIP3    H217083   9.263   6.932   1.532
 5736TIP3   OH217084   8.193   6.428   1.905
 5736TIP3    H117085   8.211   6.335   1.910
 5736TIP3    H217086   8.107   6.434   1.863
 5737TIP3   OH217087   8.803   6.514   1.677
 5737TIP3    H117088   8.759   6.533   1.594
 5737TIP3    H217089   8.830   6.422   1.670
 5738TIP3   OH217090   8.313   6.164   1.890
 5738TIP3    H117091   8.386   6.106   1.867
 5738TIP3    H217092   8.336   6.198   1.977
 5739TIP3   OH217093   8.650   6.054   1.550
 5739TIP3    H117094   8.571   6.107   1.554
 5739TIP3    H217095   8.696   6.083   1.471
 5740TIP3   OH217096   9.161   6.452   1.693
 5740TIP3    H117097   9.229   6.423   1.632
 5740TIP3    H217098   9.157   6.383   1.759
 5741TIP3   OH217099   8.773   5.838   1.673
 5741TIP3    H117100   8.770   5.758   1.620
 5741TIP3    H217101   8.730   5.904   1.619
 5742TIP3   OH217102   8.772   5.623   1.480
 5742TIP3    H117103   8.799   5.667   1.399
 5742TIP3    H217104   8.681   5.600   1.466
 5743TIP3   OH217105   8.807   6.162   1.353
 5743TIP3    H117106   8.887   6.167   1.302
 5743TIP3    H217107   8.748   6.225   1.313
 5744TIP3   OH217108   9.394   6.129   1.733
 5744TIP3    H117109   9.423   6.044   1.765
 5744TIP3    H217110   9.474   6.180   1.726
 5745TIP3   OH217111   8.649   5.947   1.905
 5745TIP3    H117112   8.580   5.883   1.920
 5745TIP3    H217113   8.683   5.926   1.818
 5746TIP3   OH217114   8.901   5.388   1.544
 5746TIP3    H117115   8.853   5.469   1.525
 5746TIP3    H217116   8.835   5.319   1.534
 5747TIP3   OH217117   9.031   5.891   1.765
 5747TIP3    H117118   9.023   5.881   1.859
 5747TIP3    H217119   8.945   5.869   1.730
 5748TIP3   OH217120   9.262   5.811   1.613
 5748TIP3    H117121   9.186   5.834   1.667
 5748TIP3    H217122   9.332   5.798   1.677
 5749TIP3   OH217123   9.477   5.764   1.794
 5749TIP3    H117124   9.527   5.693   1.834
 5749TIP3    H217125   9.472   5.831   1.862
 5750TIP3   OH217126   8.489   5.728   1.959
 5750TIP3    H117127   8.493   5.640   1.922
 5750TIP3    H217128   8.523   5.719   2.048
 5751TIP3   OH217129   9.006   5.399   1.799
 5751TIP3    H117130   9.066   5.324   1.798
 5751TIP3    H217131   8.959   5.393   1.716
 5752TIP3   OH217132   9.067   5.615   1.962
 5752TIP3    H117133   9.045   5.544   1.901
 5752TIP3    H217134   8.991   5.673   1.960
 5753TIP3   OH217135   7.809   6.695   0.906
 5753TIP3    H117136   7.794   6.617   0.959
 5753TIP3    H217137   7.858   6.755   0.962
 5754TIP3   OH217138   8.006   6.091   1.253
 5754TIP3    H117139   8.002   6.063   1.162
 5754TIP3    H217140   8.100   6.095   1.273
 5755TIP3   OH217141   8.223   5.779   1.930
 5755TIP3    H117142   8.319   5.775   1.930
 5755TIP3    H217143   8.196   5.697   1.971
 5756TIP3   OH217144   8.185   5.472   1.260
 5756TIP3    H117145   8.245   5.398   1.270
 5756TIP3    H217146   8.242   5.548   1.256
 5757TIP3   OH217147   7.988   5.747   1.333
 5757TIP3    H117148   8.034   5.738   1.249
 5757TIP3    H217149   8.012   5.834   1.364
 5758TIP3   OH217150   7.963   5.256   0.830
 5758TIP3    H117151   7.873   5.248   0.862
 5758TIP3    H217152   7.957   5.317   0.757
 5759TIP3   OH217153   8.188   5.331   1.649
 5759TIP3    H117154   8.140   5.324   1.732
 5759TIP3    H217155   8.124   5.368   1.587
 5760TIP3   OH217156   8.228   6.756   1.728
 5760TIP3    H117157   8.138   6.729   1.707
 5760TIP3    H217158   8.238   6.739   1.821
 5761TIP3   OH217159   8.404   6.790   1.272
 5761TIP3    H117160   8.351   6.861   1.233
 5761TIP3    H217161   8.491   6.801   1.232
 5762TIP3   OH217162   8.852   7.032   1.415
 5762TIP3    H117163   8.893   7.040   1.501
 5762TIP3    H217164   8.912   7.078   1.355
 5763TIP3   OH217165   9.024   7.172   1.259
 5763TIP3    H117166   9.105   7.150   1.214
 5763TIP3    H217167   9.052   7.227   1.333
 5764TIP3   OH217168   8.084   7.048   1.299
 5764TIP3    H117169   7.997   7.079   1.272
 5764TIP3    H217170   8.094   7.081   1.388
 5765TIP3   OH217171   8.315   7.031   1.149
 5765TIP3    H117172   8.235   7.043   1.201
 5765TIP3    H217173   8.286   7.042   1.059
 5766TIP3   OH217174   7.986   6.855   1.060
 5766TIP3    H117175   8.011   6.830   1.149
 5766TIP3    H217176   8.052   6.812   1.004
 5767TIP3   OH217177   8.181   6.725   0.931
 5767TIP3    H117178   8.195   6.635   0.960
 5767TIP3    H217179   8.268   6.761   0.920
 5768TIP3   OH217180   8.442   6.797   0.922
 5768TIP3    H117181   8.471   6.706   0.920
 5768TIP3    H217182   8.497   6.839   0.988
 5769TIP3   OH217183   9.059   5.416   0.983
 5769TIP3    H117184   8.984   5.390   1.036
 5769TIP3    H217185   9.061   5.352   0.912
 5770TIP3   OH217186   8.280   5.169   1.005
 5770TIP3    H117187   8.188   5.141   1.005
 5770TIP3    H217188   8.330   5.088   1.001
 5771TIP3   OH217189   8.096   5.040   0.685
 5771TIP3    H117190   8.055   5.061   0.601
 5771TIP3    H217191   8.056   5.101   0.747
 5772TIP3   OH217192   8.718   5.208   0.890
 5772TIP3    H117193   8.752   5.270   0.825
 5772TIP3    H217194   8.733   5.251   0.974
 5773TIP3   OH217195   8.488   5.452   1.899
 5773TIP3    H117196   8.451   5.383   1.953
 5773TIP3    H217197   8.581   5.454   1.923
 5774TIP3   OH217198   8.737   5.447   2.018
 5774TIP3    H117199   8.821   5.422   1.979
 5774TIP3    H217200   8.720   5.381   2.084
 5775TIP3   OH217201   9.746   7.002   2.838
 5775TIP3    H117202   9.774   6.958   2.919
 5775TIP3    H217203   9.745   7.095   2.861
 5776TIP3   OH217204   0.439   6.257   3.204
 5776TIP3    H117205   0.465   6.338   3.247
 5776TIP3    H217206   0.459   6.271   3.111
 5777TIP3   OH217207   9.705   6.406   3.238
 5777TIP3    H117208   9.726   6.313   3.249
 5777TIP3    H217209   9.691   6.417   3.144
 5778TIP3   OH217210   9.664   6.194   2.831
 5778TIP3    H117211   9.731   6.174   2.897
 5778TIP3    H217212   9.715   6.219   2.754
 5779TIP3   OH217213   0.511   6.462   3.381
 5779TIP3    H117214   0.432   6.510   3.354
 5779TIP3    H217215   0.535   6.500   3.465
 5780TIP3   OH217216   0.067   6.194   3.019
 5780TIP3    H117217   0.111   6.114   3.048
 5780TIP3    H217218   0.132   6.263   3.029
 5781TIP3   OH217219   0.229   6.159   3.360
 5781TIP3    H117220   0.168   6.232   3.357
 5781TIP3    H217221   0.296   6.180   3.295
 5782TIP3   OH217222   0.180   7.175   3.356
 5782TIP3    H117223   0.145   7.094   3.319
 5782TIP3    H217224   0.156   7.242   3.292
 5783TIP3   OH217225   0.378   6.795   3.192
 5783TIP3    H117226   0.295   6.841   3.204
 5783TIP3    H217227   0.407   6.821   3.105
 5784TIP3   OH217228   9.602   6.588   2.565
 5784TIP3    H117229   9.547   6.643   2.620
 5784TIP3    H217230   9.689   6.593   2.606
 5785TIP3   OH217231   0.062   6.700   3.476
 5785TIP3    H117232   0.057   6.768   3.543
 5785TIP3    H217233  -0.026   6.699   3.437
 5786TIP3   OH217234   0.159   5.744   2.452
 5786TIP3    H117235   0.079   5.759   2.502
 5786TIP3    H217236   0.173   5.826   2.404
 5787TIP3   OH217237   0.415   7.503   3.394
 5787TIP3    H117238   0.417   7.409   3.412
 5787TIP3    H217239   0.325   7.529   3.413
 5788TIP3   OH217240   0.298   6.643   3.662
 5788TIP3    H117241   0.212   6.657   3.623
 5788TIP3    H217242   0.307   6.548   3.667
 5789TIP3   OH217243   0.075   6.406   3.553
 5789TIP3    H117244   0.044   6.392   3.643
 5789TIP3    H217245   0.032   6.486   3.524
 5790TIP3   OH217246   9.562   6.396   2.988
 5790TIP3    H117247   9.481   6.420   2.942
 5790TIP3    H217248   9.590   6.316   2.943
 5791TIP3   OH217249   0.153   6.937   3.190
 5791TIP3    H117250   0.176   6.992   3.115
 5791TIP3    H217251   0.057   6.937   3.190
 5792TIP3   OH217252   9.444   6.036   2.424
 5792TIP3    H117253   9.366   6.084   2.397
 5792TIP3    H217254   9.511   6.104   2.433
 5793TIP3   OH217255   9.587   6.262   2.486
 5793TIP3    H117256   9.670   6.274   2.533
 5793TIP3    H217257   9.548   6.350   2.485
 5794TIP3   OH217258   0.201   6.364   2.360
 5794TIP3    H117259   0.138   6.314   2.308
 5794TIP3    H217260   0.199   6.452   2.322
 5795TIP3   OH217261   0.426   7.223   3.439
 5795TIP3    H117262   0.330   7.218   3.436
 5795TIP3    H217263   0.454   7.192   3.352
 5796TIP3   OH217264   9.696   6.817   3.085
 5796TIP3    H117265   9.616   6.782   3.126
 5796TIP3    H217266   9.739   6.741   3.047
 5797TIP3   OH217267   9.543   5.968   2.689
 5797TIP3    H117268   9.505   5.997   2.606
 5797TIP3    H217269   9.559   6.048   2.738
 5798TIP3   OH217270   0.337   6.369   3.593
 5798TIP3    H117271   0.241   6.369   3.588
 5798TIP3    H217272   0.366   6.355   3.502
 5799TIP3   OH217273   9.780   6.573   2.984
 5799TIP3    H117274   9.709   6.510   2.979
 5799TIP3    H217275   9.852   6.525   3.025
 5800TIP3   OH217276   0.019   7.477   2.928
 5800TIP3    H117277  -0.067   7.494   2.891
 5800TIP3    H217278   0.069   7.557   2.911
 5801TIP3   OH217279   0.066   6.658   3.910
 5801TIP3    H117280   0.096   6.584   3.964
 5801TIP3    H217281   0.120   6.731   3.940
 5802TIP3   OH217282   0.087   6.909   3.654
 5802TIP3    H117283   0.028   6.970   3.609
 5802TIP3    H217284   0.174   6.930   3.620
 5803TIP3   OH217285   9.781   6.387   3.802
 5803TIP3    H117286   9.703   6.374   3.856
 5803TIP3    H217287   9.854   6.367   3.861
 5804TIP3   OH217288   0.162   6.308   3.986
 5804TIP3    H117289   0.174   6.215   4.005
 5804TIP3    H217290   0.148   6.348   4.072
 5805TIP3   OH217291   0.205   7.711   2.886
 5805TIP3    H117292   0.240   7.679   2.969
 5805TIP3    H217293   0.264   7.675   2.819
 5806TIP3   OH217294   0.233   7.625   3.151
 5806TIP3    H117295   0.195   7.538   3.165
 5806TIP3    H217296   0.302   7.632   3.218
 5807TIP3   OH217297   0.271   7.324   3.730
 5807TIP3    H117298   0.221   7.318   3.811
 5807TIP3    H217299   0.319   7.407   3.738
 5808TIP3   OH217300   0.132   6.814   2.363
 5808TIP3    H117301   0.206   6.874   2.366
 5808TIP3    H217302   0.134   6.769   2.447
 5809TIP3   OH217303   0.227   6.686   2.580
 5809TIP3    H117304   0.161   6.646   2.636
 5809TIP3    H217305   0.288   6.727   2.641
 5810TIP3   OH217306   0.266   7.088   2.990
 5810TIP3    H117307   0.322   7.022   2.949
 5810TIP3    H217308   0.272   7.164   2.932
 5811TIP3   OH217309   0.082   7.374   3.182
 5811TIP3    H117310   0.021   7.434   3.225
 5811TIP3    H217311   0.065   7.387   3.088
 5812TIP3   OH217312   0.140   6.596   2.210
 5812TIP3    H117313   0.061   6.599   2.156
 5812TIP3    H217314   0.133   6.673   2.266
 5813TIP3   OH217315   9.821   6.270   2.182
 5813TIP3    H117316   9.744   6.315   2.149
 5813TIP3    H217317   9.803   6.177   2.167
 5814TIP3   OH217318   0.042   6.546   2.718
 5814TIP3    H117319   0.042   6.451   2.707
 5814TIP3    H217320   0.026   6.560   2.811
 5815TIP3   OH217321   0.331   6.980   3.565
 5815TIP3    H117322   0.398   6.912   3.559
 5815TIP3    H217323   0.355   7.045   3.500
 5816TIP3   OH217324   0.511   6.782   3.587
 5816TIP3    H117325   0.435   6.735   3.621
 5816TIP3    H217326   0.584   6.721   3.599
 5817TIP3   OH217327   9.787   5.996   2.141
 5817TIP3    H117328   9.852   5.977   2.208
 5817TIP3    H217329   9.707   5.954   2.172
 5818TIP3   OH217330   0.039   6.267   2.616
 5818TIP3    H117331   0.074   6.179   2.629
 5818TIP3    H217332   0.090   6.302   2.543
 5819TIP3   OH217333   0.198   6.446   3.098
 5819TIP3    H117334   0.281   6.469   3.057
 5819TIP3    H217335   0.204   6.481   3.187
 5820TIP3   OH217336   0.267   6.583   3.329
 5820TIP3    H117337   0.194   6.618   3.380
 5820TIP3    H217338   0.304   6.659   3.284
 5821TIP3   OH217339   0.715   6.177   3.887
 5821TIP3    H117340   0.772   6.113   3.843
 5821TIP3    H217341   0.684   6.234   3.817
 5822TIP3   OH217342   0.140   6.014   2.650
 5822TIP3    H117343   0.187   5.994   2.730
 5822TIP3    H217344   0.079   5.941   2.639
 5823TIP3   OH217345   0.585   6.316   3.698
 5823TIP3    H117346   0.502   6.359   3.721
 5823TIP3    H217347   0.559   6.248   3.636
 5824TIP3   OH217348   0.226   5.954   2.279
 5824TIP3    H117349   0.262   5.881   2.229
 5824TIP3    H217350   0.292   6.023   2.271
 5825TIP3   OH217351   0.479   6.078   3.570
 5825TIP3    H117352   0.386   6.084   3.546
 5825TIP3    H217353   0.502   5.987   3.552
 5826TIP3   OH217354   9.544   5.976   3.231
 5826TIP3    H117355   9.505   5.889   3.244
 5826TIP3    H217356   9.616   5.961   3.170
 5827TIP3   OH217357   0.212   5.899   3.109
 5827TIP3    H117358   0.251   5.927   3.026
 5827TIP3    H217359   0.120   5.883   3.088
 5828TIP3   OH217360   0.311   5.983   2.867
 5828TIP3    H117361   0.373   5.923   2.825
 5828TIP3    H217362   0.343   6.070   2.846
 5829TIP3   OH217363   9.735   5.869   3.064
 5829TIP3    H117364   9.758   5.836   2.977
 5829TIP3    H217365   9.727   5.791   3.118
 5830TIP3   OH217366   9.757   5.806   2.630
 5830TIP3    H117367   9.674   5.850   2.646
 5830TIP3    H217368   9.761   5.736   2.696
 5831TIP3   OH217369   0.220   6.040   4.012
 5831TIP3    H117370   0.236   6.007   4.100
 5831TIP3    H217371   0.305   6.035   3.968
 5832TIP3   OH217372   0.160   7.589   3.437
 5832TIP3    H117373   0.084   7.542   3.470
 5832TIP3    H217374   0.166   7.667   3.493
 5833TIP3   OH217375   1.420   6.966   2.265
 5833TIP3    H117376   1.397   7.058   2.248
 5833TIP3    H217377   1.345   6.917   2.232
 5834TIP3   OH217378   1.420   6.965   2.645
 5834TIP3    H117379   1.452   6.939   2.731
 5834TIP3    H217380   1.379   6.887   2.609
 5835TIP3   OH217381   0.721   6.864   3.014
 5835TIP3    H117382   0.751   6.797   3.075
 5835TIP3    H217383   0.799   6.917   2.997
 5836TIP3   OH217384   1.665   7.268   2.326
 5836TIP3    H117385   1.652   7.203   2.396
 5836TIP3    H217386   1.692   7.347   2.373
 5837TIP3   OH217387   0.695   7.267   2.740
 5837TIP3    H117388   0.684   7.172   2.741
 5837TIP3    H217389   0.790   7.280   2.731
 5838TIP3   OH217390   0.400   6.474   2.523
 5838TIP3    H117391   0.353   6.556   2.543
 5838TIP3    H217392   0.333   6.418   2.484
 5839TIP3   OH217393   0.465   6.765   2.698
 5839TIP3    H117394   0.511   6.688   2.731
 5839TIP3    H217395   0.516   6.791   2.621
 5840TIP3   OH217396   1.313   7.729   2.343
 5840TIP3    H117397   1.358   7.662   2.291
 5840TIP3    H217398   1.316   7.696   2.433
 5841TIP3   OH217399   1.223   7.192   2.695
 5841TIP3    H117400   1.257   7.116   2.647
 5841TIP3    H217401   1.302   7.241   2.720
 5842TIP3   OH217402   2.233   6.514   2.690
 5842TIP3    H117403   2.261   6.594   2.734
 5842TIP3    H217404   2.255   6.528   2.598
 5843TIP3   OH217405   1.631   6.692   2.727
 5843TIP3    H117406   1.676   6.610   2.748
 5843TIP3    H217407   1.602   6.681   2.636
 5844TIP3   OH217408   0.967   6.353   2.690
 5844TIP3    H117409   0.951   6.427   2.631
 5844TIP3    H217410   0.923   6.279   2.649
 5845TIP3   OH217411   1.666   6.445   2.314
 5845TIP3    H117412   1.733   6.429   2.380
 5845TIP3    H217413   1.715   6.480   2.239
 5846TIP3   OH217414   0.606   6.553   2.798
 5846TIP3    H117415   0.687   6.536   2.846
 5846TIP3    H217416   0.614   6.500   2.719
 5847TIP3   OH217417   1.045   6.751   2.593
 5847TIP3    H117418   1.138   6.729   2.604
 5847TIP3    H217419   1.005   6.671   2.559
 5848TIP3   OH217420   2.304   6.720   2.865
 5848TIP3    H117421   2.224   6.767   2.842
 5848TIP3    H217422   2.327   6.753   2.952
 5849TIP3   OH217423   0.963   6.338   3.127
 5849TIP3    H117424   0.908   6.373   3.057
 5849TIP3    H217425   0.915   6.357   3.208
 5850TIP3   OH217426   1.311   7.188   2.134
 5850TIP3    H117427   1.273   7.169   2.049
 5850TIP3    H217428   1.272   7.271   2.161
 5851TIP3   OH217429   1.073   7.114   2.921
 5851TIP3    H117430   1.012   7.178   2.959
 5851TIP3    H217431   1.117   7.161   2.851
 5852TIP3   OH217432   1.875   6.448   2.486
 5852TIP3    H117433   1.872   6.395   2.565
 5852TIP3    H217434   1.930   6.523   2.510
 5853TIP3   OH217435   0.840   6.452   2.910
 5853TIP3    H117436   0.898   6.524   2.934
 5853TIP3    H217437   0.883   6.410   2.835
 5854TIP3   OH217438   0.898   7.308   3.019
 5854TIP3    H117439   0.878   7.391   2.977
 5854TIP3    H217440   0.823   7.290   3.076
 5855TIP3   OH217441   0.338   7.005   2.271
 5855TIP3    H117442   0.333   7.029   2.179
 5855TIP3    H217443   0.358   7.087   2.316
 5856TIP3   OH217444   1.724   7.493   2.479
 5856TIP3    H117445   1.640   7.496   2.525
 5856TIP3    H217446   1.742   7.584   2.457
 5857TIP3   OH217447   2.026   6.415   2.857
 5857TIP3    H117448   1.939   6.442   2.826
 5857TIP3    H217449   2.086   6.445   2.788
 5858TIP3   OH217450   1.322   6.056   2.839
 5858TIP3    H117451   1.314   5.962   2.854
 5858TIP3    H217452   1.247   6.094   2.885
 5859TIP3   OH217453   1.438   7.558   2.162
 5859TIP3    H117454   1.485   7.476   2.148
 5859TIP3    H217455   1.496   7.626   2.129
 5860TIP3   OH217456   1.580   7.341   2.076
 5860TIP3    H117457   1.544   7.263   2.035
 5860TIP3    H217458   1.616   7.311   2.159
 5861TIP3   OH217459   1.956   7.433   2.827
 5861TIP3    H117460   1.950   7.352   2.777
 5861TIP3    H217461   1.927   7.501   2.766
 5862TIP3   OH217462   1.252   6.817   2.093
 5862TIP3    H117463   1.174   6.869   2.076
 5862TIP3    H217464   1.300   6.819   2.011
 5863TIP3   OH217465   1.216   6.602   1.813
 5863TIP3    H117466   1.277   6.654   1.865
 5863TIP3    H217467   1.271   6.539   1.766
 5864TIP3   OH217468   2.155   7.063   2.681
 5864TIP3    H117469   2.074   7.113   2.689
 5864TIP3    H217470   2.188   7.084   2.594
 5865TIP3   OH217471   1.600   6.899   2.071
 5865TIP3    H117472   1.546   6.925   2.145
 5865TIP3    H217473   1.684   6.875   2.111
 5866TIP3   OH217474   1.833   6.943   2.979
 5866TIP3    H117475   1.834   7.025   3.028
 5866TIP3    H217476   1.751   6.945   2.930
 5867TIP3   OH217477   0.833   6.898   2.484
 5867TIP3    H117478   0.790   6.842   2.419
 5867TIP3    H217479   0.908   6.847   2.513
 5868TIP3   OH217480   0.961   7.305   2.634
 5868TIP3    H117481   0.942   7.268   2.548
 5868TIP3    H217482   1.050   7.276   2.654
 5869TIP3   OH217483   0.968   6.872   2.838
 5869TIP3    H117484   1.000   6.849   2.751
 5869TIP3    H217485   1.011   6.955   2.858
 5870TIP3   OH217486   1.491   7.508   2.615
 5870TIP3    H117487   1.482   7.590   2.664
 5870TIP3    H217488   1.479   7.440   2.681
 5871TIP3   OH217489   1.104   7.427   3.164
 5871TIP3    H117490   1.048   7.490   3.209
 5871TIP3    H217491   1.043   7.373   3.114
 5872TIP3   OH217492   1.444   6.761   1.892
 5872TIP3    H117493   1.499   6.817   1.946
 5872TIP3    H217494   1.467   6.783   1.802
 5873TIP3   OH217495   0.860   6.984   3.266
 5873TIP3    H117496   0.868   7.070   3.309
 5873TIP3    H217497   0.767   6.964   3.270
 5874TIP3   OH217498   1.182   7.445   2.175
 5874TIP3    H117499   1.264   7.492   2.186
 5874TIP3    H217500   1.124   7.507   2.131
 5875TIP3   OH217501   0.900   7.597   3.247
 5875TIP3    H117502   0.868   7.595   3.157
 5875TIP3    H217503   0.824   7.575   3.300
 5876TIP3   OH217504   1.956   6.003   1.941
 5876TIP3    H117505   1.877   6.020   1.992
 5876TIP3    H217506   1.970   6.084   1.891
 5877TIP3   OH217507   0.699   6.738   2.291
 5877TIP3    H117508   0.641   6.786   2.231
 5877TIP3    H217509   0.658   6.652   2.300
 5878TIP3   OH217510   1.757   7.368   1.489
 5878TIP3    H117511   1.760   7.462   1.473
 5878TIP3    H217512   1.847   7.338   1.477
 5879TIP3   OH217513   0.481   7.125   3.195
 5879TIP3    H117514   0.417   7.102   3.127
 5879TIP3    H217515   0.518   7.041   3.222
 5880TIP3   OH217516   0.344   7.319   2.840
 5880TIP3    H117517   0.430   7.297   2.803
 5880TIP3    H217518   0.362   7.393   2.898
 5881TIP3   OH217519   2.210   7.767   2.905
 5881TIP3    H117520   2.199   7.672   2.904
 5881TIP3    H217521   2.122   7.800   2.925
 5882TIP3   OH217522   1.303   7.558   3.020
 5882TIP3    H117523   1.305   7.649   3.049
 5882TIP3    H217524   1.235   7.517   3.073
 5883TIP3   OH217525   1.063   7.684   1.985
 5883TIP3    H117526   1.046   7.670   1.892
 5883TIP3    H217527   1.035   7.774   2.002
 5884TIP3   OH217528   0.513   7.507   2.363
 5884TIP3    H117529   0.571   7.525   2.438
 5884TIP3    H217530   0.463   7.431   2.390
 5885TIP3   OH217531   1.313   7.607   1.611
 5885TIP3    H117532   1.358   7.540   1.559
 5885TIP3    H217533   1.349   7.596   1.699
 5886TIP3   OH217534   1.321   7.636   1.895
 5886TIP3    H117535   1.233   7.639   1.933
 5886TIP3    H217536   1.375   7.597   1.963
 5887TIP3   OH217537   2.088   6.898   3.159
 5887TIP3    H117538   2.010   6.916   3.107
 5887TIP3    H217539   2.105   6.805   3.148
 5888TIP3   OH217540   0.685   7.309   3.187
 5888TIP3    H117541   0.736   7.292   3.267
 5888TIP3    H217542   0.613   7.246   3.192
 5889TIP3   OH217543   1.082   6.131   2.969
 5889TIP3    H117544   0.996   6.100   2.940
 5889TIP3    H217545   1.063   6.215   3.012
 5890TIP3   OH217546   1.618   6.248   3.164
 5890TIP3    H117547   1.685   6.217   3.224
 5890TIP3    H217548   1.535   6.227   3.208
 5891TIP3   OH217549   1.859   6.678   3.083
 5891TIP3    H117550   1.809   6.675   3.164
 5891TIP3    H217551   1.836   6.763   3.044
 5892TIP3   OH217552   1.513   6.806   1.632
 5892TIP3    H117553   1.486   6.776   1.546
 5892TIP3    H217554   1.593   6.857   1.616
 5893TIP3   OH217555   1.225   6.183   1.939
 5893TIP3    H117556   1.199   6.183   2.031
 5893TIP3    H217557   1.193   6.100   1.904
 5894TIP3   OH217558   1.014   6.649   2.987
 5894TIP3    H117559   0.967   6.670   3.068
 5894TIP3    H217560   1.002   6.727   2.932
 5895TIP3   OH217561   0.899   6.531   2.500
 5895TIP3    H117562   0.808   6.509   2.519
 5895TIP3    H217563   0.915   6.494   2.414
 5896TIP3   OH217564   1.391   6.620   2.226
 5896TIP3    H117565   1.338   6.690   2.188
 5896TIP3    H217566   1.446   6.590   2.154
 5897TIP3   OH217567   1.567   6.897   3.316
 5897TIP3    H117568   1.543   6.826   3.376
 5897TIP3    H217569   1.659   6.915   3.335
 5898TIP3   OH217570   1.546   6.647   2.466
 5898TIP3    H117571   1.488   6.682   2.398
 5898TIP3    H217572   1.581   6.566   2.428
 5899TIP3   OH217573   0.834   6.678   3.198
 5899TIP3    H117574   0.866   6.742   3.261
 5899TIP3    H217575   0.825   6.597   3.248
 5900TIP3   OH217576   0.880   6.151   1.908
 5900TIP3    H117577   0.880   6.147   2.003
 5900TIP3    H217578   0.805   6.207   1.886
 5901TIP3   OH217579   0.429   6.203   2.777
 5901TIP3    H117580   0.506   6.232   2.826
 5901TIP3    H217581   0.464   6.169   2.695
 5902TIP3   OH217582   0.404   6.180   2.294
 5902TIP3    H117583   0.451   6.215   2.217
 5902TIP3    H217584   0.345   6.251   2.319
 5903TIP3   OH217585   1.557   6.891   2.892
 5903TIP3    H117586   1.590   6.824   2.833
 5903TIP3    H217587   1.528   6.843   2.969
 5904TIP3   OH217588   1.226   6.357   2.564
 5904TIP3    H117589   1.145   6.354   2.615
 5904TIP3    H217590   1.296   6.356   2.630
 5905TIP3   OH217591   0.661   6.409   2.572
 5905TIP3    H117592   0.570   6.418   2.546
 5905TIP3    H217593   0.686   6.320   2.547
 5906TIP3   OH217594   0.932   6.408   2.259
 5906TIP3    H117595   1.025   6.423   2.239
 5906TIP3    H217596   0.886   6.431   2.178
 5907TIP3   OH217597   1.718   6.431   2.768
 5907TIP3    H117598   1.683   6.445   2.856
 5907TIP3    H217599   1.658   6.370   2.726
 5908TIP3   OH217600   0.772   6.440   2.038
 5908TIP3    H117601   0.697   6.400   1.995
 5908TIP3    H217602   0.824   6.475   1.965
 5909TIP3   OH217603   1.889   8.123   2.983
 5909TIP3    H117604   1.885   8.131   2.888
 5909TIP3    H217605   1.969   8.170   3.008
 5910TIP3   OH217606   0.846   7.232   3.409
 5910TIP3    H117607   0.928   7.261   3.450
 5910TIP3    H217608   0.782   7.231   3.480
 5911TIP3   OH217609   1.312   6.681   2.659
 5911TIP3    H117610   1.384   6.646   2.606
 5911TIP3    H217611   1.324   6.641   2.745
 5912TIP3   OH217612   0.835   6.170   2.537
 5912TIP3    H117613   0.801   6.093   2.582
 5912TIP3    H217614   0.887   6.136   2.464
 5913TIP3   OH217615   1.286   6.578   2.956
 5913TIP3    H117616   1.199   6.617   2.964
 5913TIP3    H217617   1.344   6.639   3.002
 5914TIP3   OH217618   1.024   6.968   2.049
 5914TIP3    H117619   0.952   6.907   2.034
 5914TIP3    H217620   1.007   7.004   2.136
 5915TIP3   OH217621   1.924   7.209   2.674
 5915TIP3    H117622   1.950   7.257   2.596
 5915TIP3    H217623   1.841   7.168   2.651
 5916TIP3   OH217624   1.480   6.287   1.903
 5916TIP3    H117625   1.386   6.271   1.913
 5916TIP3    H217626   1.492   6.378   1.930
 5917TIP3   OH217627   1.417   7.286   3.046
 5917TIP3    H117628   1.449   7.272   3.135
 5917TIP3    H217629   1.389   7.377   3.045
 5918TIP3   OH217630   1.553   6.532   2.008
 5918TIP3    H117631   1.648   6.536   2.026
 5918TIP3    H217632   1.535   6.611   1.958
 5919TIP3   OH217633   0.717   6.992   2.720
 5919TIP3    H117634   0.751   6.967   2.634
 5919TIP3    H217635   0.758   6.930   2.781
 5920TIP3   OH217636   1.166   7.120   1.871
 5920TIP3    H117637   1.123   7.205   1.879
 5920TIP3    H217638   1.116   7.062   1.928
 5921TIP3   OH217639   0.595   6.917   3.337
 5921TIP3    H117640   0.616   6.901   3.429
 5921TIP3    H217641   0.531   6.849   3.315
 5922TIP3   OH217642   1.323   7.024   3.354
 5922TIP3    H117643   1.264   6.971   3.300
 5922TIP3    H217644   1.411   6.996   3.327
 5923TIP3   OH217645   1.584   7.540   2.949
 5923TIP3    H117646   1.488   7.548   2.947
 5923TIP3    H217647   1.612   7.599   3.018
 5924TIP3   OH217648   1.992   6.622   1.844
 5924TIP3    H117649   1.931   6.574   1.787
 5924TIP3    H217650   1.993   6.711   1.808
 5925TIP3   OH217651   2.207   7.467   2.926
 5925TIP3    H117652   2.112   7.472   2.918
 5925TIP3    H217653   2.238   7.444   2.839
 5926TIP3   OH217654   1.693   7.440   1.754
 5926TIP3    H117655   1.670   7.371   1.816
 5926TIP3    H217656   1.707   7.394   1.671
 5927TIP3   OH217657   1.689   7.066   2.597
 5927TIP3    H117658   1.596   7.046   2.607
 5927TIP3    H217659   1.725   6.991   2.549
 5928TIP3   OH217660   0.818   7.299   2.347
 5928TIP3    H117661   0.828   7.377   2.292
 5928TIP3    H217662   0.724   7.283   2.350
 5929TIP3   OH217663   0.397   6.591   2.110
 5929TIP3    H117664   0.432   6.680   2.098
 5929TIP3    H217665   0.308   6.605   2.142
 5930TIP3   OH217666   0.954   7.063   2.292
 5930TIP3    H117667   0.924   7.153   2.308
 5930TIP3    H217668   0.919   7.013   2.365
 5931TIP3   OH217669   1.088   7.642   2.815
 5931TIP3    H117670   1.125   7.714   2.763
 5931TIP3    H217671   1.163   7.606   2.863
 5932TIP3   OH217672   0.742   7.536   2.197
 5932TIP3    H117673   0.658   7.541   2.243
 5932TIP3    H217674   0.777   7.625   2.200
 5933TIP3   OH217675   1.475   7.274   2.776
 5933TIP3    H117676   1.466   7.271   2.871
 5933TIP3    H217677   1.556   7.227   2.757
 5934TIP3   OH217678   1.451   7.161   1.657
 5934TIP3    H117679   1.500   7.139   1.737
 5934TIP3    H217680   1.360   7.140   1.678
 5935TIP3   OH217681   1.712   7.831   2.842
 5935TIP3    H117682   1.665   7.751   2.817
 5935TIP3    H217683   1.716   7.883   2.762
 5936TIP3   OH217684   1.787   7.647   1.471
 5936TIP3    H117685   1.831   7.717   1.423
 5936TIP3    H217686   1.709   7.688   1.509
 5937TIP3   OH217687   0.807   6.419   3.344
 5937TIP3    H117688   0.712   6.426   3.357
 5937TIP3    H217689   0.837   6.361   3.414
 5938TIP3   OH217690   1.610   7.099   1.876
 5938TIP3    H117691   1.599   7.035   1.947
 5938TIP3    H217692   1.704   7.101   1.861
 5939TIP3   OH217693   0.520   7.502   2.978
 5939TIP3    H117694   0.575   7.428   3.004
 5939TIP3    H217695   0.550   7.575   3.032
 5940TIP3   OH217696   0.786   7.146   1.654
 5940TIP3    H117697   0.830   7.066   1.625
 5940TIP3    H217698   0.786   7.140   1.749
 5941TIP3   OH217699   0.789   7.160   1.923
 5941TIP3    H117700   0.842   7.132   1.998
 5941TIP3    H217701   0.779   7.255   1.936
 5942TIP3   OH217702   0.507   6.844   2.132
 5942TIP3    H117703   0.454   6.887   2.198
 5942TIP3    H217704   0.521   6.911   2.065
 5943TIP3   OH217705   1.643   6.486   3.027
 5943TIP3    H117706   1.725   6.522   3.060
 5943TIP3    H217707   1.630   6.406   3.077
 5944TIP3   OH217708   1.523   6.239   2.186
 5944TIP3    H117709   1.512   6.260   2.094
 5944TIP3    H217710   1.563   6.317   2.224
 5945TIP3   OH217711   1.029   7.350   1.903
 5945TIP3    H117712   0.941   7.381   1.927
 5945TIP3    H217713   1.055   7.407   1.830
 5946TIP3   OH217714   1.216   6.415   2.291
 5946TIP3    H117715   1.279   6.485   2.272
 5946TIP3    H217716   1.219   6.407   2.386
 5947TIP3   OH217717   1.483   6.733   3.100
 5947TIP3    H117718   1.505   6.786   3.176
 5947TIP3    H217719   1.538   6.655   3.109
 5948TIP3   OH217720   1.360   6.145   2.392
 5948TIP3    H117721   1.353   6.218   2.454
 5948TIP3    H217722   1.419   6.178   2.324
 5949TIP3   OH217723   0.763   7.437   1.944
 5949TIP3    H117724   0.757   7.516   1.889
 5949TIP3    H217725   0.753   7.470   2.033
 5950TIP3   OH217726   0.874   6.141   2.183
 5950TIP3    H117727   0.867   6.230   2.218
 5950TIP3    H217728   0.966   6.119   2.190
 5951TIP3   OH217729   2.126   6.630   3.082
 5951TIP3    H117730   2.030   6.631   3.088
 5951TIP3    H217731   2.145   6.597   2.994
 5952TIP3   OH217732   1.775   6.826   2.468
 5952TIP3    H117733   1.700   6.768   2.479
 5952TIP3    H217734   1.847   6.782   2.513
 5953TIP3   OH217735   0.518   7.069   1.986
 5953TIP3    H117736   0.514   7.162   1.963
 5953TIP3    H217737   0.555   7.027   1.908
 5954TIP3   OH217738   0.442   6.330   2.066
 5954TIP3    H117739   0.440   6.424   2.085
 5954TIP3    H217740   0.358   6.311   2.025
 5955TIP3   OH217741   1.751   7.777   2.425
 5955TIP3    H117742   1.728   7.830   2.349
 5955TIP3    H217743   1.840   7.804   2.447
 5956TIP3   OH217744   0.818   6.051   2.941
 5956TIP3    H117745   0.789   6.025   2.854
 5956TIP3    H217746   0.806   5.973   2.995
 5957TIP3   OH217747   0.353   7.271   2.326
 5957TIP3    H117748   0.292   7.329   2.374
 5957TIP3    H217749   0.364   7.314   2.241
 5958TIP3   OH217750   0.515   7.805   3.402
 5958TIP3    H117751   0.600   7.812   3.444
 5958TIP3    H217752   0.500   7.711   3.392
 5959TIP3   OH217753   0.997   7.777   3.440
 5959TIP3    H117754   1.091   7.762   3.449
 5959TIP3    H217755   0.972   7.721   3.366
 5960TIP3   OH217756   0.981   7.353   1.608
 5960TIP3    H117757   0.915   7.285   1.622
 5960TIP3    H217758   1.035   7.321   1.537
 5961TIP3   OH217759   1.631   7.686   3.179
 5961TIP3    H117760   1.626   7.615   3.243
 5961TIP3    H217761   1.710   7.734   3.203
 5962TIP3   OH217762   1.436   7.397   1.486
 5962TIP3    H117763   1.479   7.333   1.542
 5962TIP3    H217764   1.485   7.395   1.404
 5963TIP3   OH217765   0.648   7.215   3.600
 5963TIP3    H117766   0.668   7.122   3.602
 5963TIP3    H217767   0.565   7.221   3.553
 5964TIP3   OH217768   0.647   6.879   1.814
 5964TIP3    H117769   0.704   6.843   1.882
 5964TIP3    H217770   0.704   6.886   1.737
 5965TIP3   OH217771   1.252   7.301   3.369
 5965TIP3    H117772   1.214   7.320   3.283
 5965TIP3    H217773   1.285   7.211   3.361
 5966TIP3   OH217774   1.149   7.061   1.600
 5966TIP3    H117775   1.145   7.077   1.694
 5966TIP3    H217776   1.126   6.968   1.592
 5967TIP3   OH217777   1.748   7.315   2.974
 5967TIP3    H117778   1.822   7.356   2.929
 5967TIP3    H217779   1.677   7.378   2.965
 5968TIP3   OH217780   0.766   6.952   3.580
 5968TIP3    H117781   0.841   6.897   3.554
 5968TIP3    H217782   0.790   6.984   3.667
 5969TIP3   OH217783   0.834   6.769   2.013
 5969TIP3    H117784   0.804   6.732   2.096
 5969TIP3    H217785   0.870   6.694   1.965
 5970TIP3   OH217786   1.098   6.837   3.237
 5970TIP3    H117787   1.024   6.896   3.242
 5970TIP3    H217788   1.149   6.868   3.162
 5971TIP3   OH217789   0.934   6.562   1.852
 5971TIP3    H117790   0.905   6.570   1.762
 5971TIP3    H217791   1.029   6.572   1.848
 5972TIP3   OH217792   1.616   7.237   3.375
 5972TIP3    H117793   1.695   7.219   3.325
 5972TIP3    H217794   1.616   7.171   3.445
 5973TIP3   OH217795   1.752   6.898   1.511
 5973TIP3    H117796   1.735   6.850   1.430
 5973TIP3    H217797   1.723   6.987   1.493
 5974TIP3   OH217798   1.222   6.625   3.364
 5974TIP3    H117799   1.224   6.546   3.310
 5974TIP3    H217800   1.180   6.691   3.309
 5975TIP3   OH217801   1.224   6.410   3.172
 5975TIP3    H117802   1.253   6.454   3.092
 5975TIP3    H217803   1.132   6.389   3.155
 5976TIP3   OH217804   1.254   6.948   3.046
 5976TIP3    H117805   1.337   6.955   2.999
 5976TIP3    H217806   1.198   7.014   3.004
 5977TIP3   OH217807   1.835   6.917   3.426
 5977TIP3    H117808   1.886   6.836   3.435
 5977TIP3    H217809   1.898   6.982   3.394
 5978TIP3   OH217810   1.877   7.169   3.160
 5978TIP3    H117811   1.817   7.220   3.105
 5978TIP3    H217812   1.964   7.186   3.124
 5979TIP3   OH217813   1.101   6.737   3.595
 5979TIP3    H117814   1.032   6.672   3.611
 5979TIP3    H217815   1.135   6.715   3.508
 5980TIP3   OH217816   1.357   6.176   3.239
 5980TIP3    H117817   1.311   6.258   3.217
 5980TIP3    H217818   1.291   6.108   3.226
 5981TIP3   OH217819   1.483   6.678   3.457
 5981TIP3    H117820   1.475   6.669   3.552
 5981TIP3    H217821   1.396   6.655   3.424
 5982TIP3   OH217822   1.724   6.630   3.314
 5982TIP3    H117823   1.646   6.633   3.369
 5982TIP3    H217824   1.793   6.596   3.371
 5983TIP3   OH217825   1.978   6.565   3.468
 5983TIP3    H117826   1.965   6.472   3.487
 5983TIP3    H217827   1.953   6.609   3.550
 5984TIP3   OH217828   0.940   6.517   3.649
 5984TIP3    H117829   0.949   6.430   3.610
 5984TIP3    H217830   0.975   6.507   3.738
 5985TIP3   OH217831   1.451   6.182   3.497
 5985TIP3    H117832   1.519   6.115   3.494
 5985TIP3    H217833   1.412   6.180   3.409
 5986TIP3   OH217834   1.516   6.399   3.655
 5986TIP3    H117835   1.496   6.329   3.593
 5986TIP3    H217836   1.441   6.459   3.649
 5987TIP3   OH217837   0.296   7.460   2.558
 5987TIP3    H117838   0.252   7.403   2.620
 5987TIP3    H217839   0.334   7.530   2.611
 5988TIP3   OH217840   2.073   7.571   3.232
 5988TIP3    H117841   1.999   7.579   3.293
 5988TIP3    H217842   2.112   7.658   3.230
 5989TIP3   OH217843   1.890   7.085   1.848
 5989TIP3    H117844   1.955   7.149   1.818
 5989TIP3    H217845   1.930   7.046   1.926
 5990TIP3   OH217846   2.016   6.952   2.053
 5990TIP3    H117847   1.951   6.912   2.110
 5990TIP3    H217848   2.080   6.990   2.112
 5991TIP3   OH217849   2.072   7.344   2.484
 5991TIP3    H117850   2.122   7.283   2.431
 5991TIP3    H217851   2.058   7.420   2.428
 5992TIP3   OH217852   1.951   6.861   1.698
 5992TIP3    H117853   1.883   6.862   1.631
 5992TIP3    H217854   1.930   6.935   1.755
 5993TIP3   OH217855   1.822   6.532   1.654
 5993TIP3    H117856   1.785   6.573   1.576
 5993TIP3    H217857   1.799   6.439   1.645
 5994TIP3   OH217858   1.830   6.808   2.200
 5994TIP3    H117859   1.839   6.713   2.193
 5994TIP3    H217860   1.817   6.824   2.294
 5995TIP3   OH217861   0.458   6.887   2.944
 5995TIP3    H117862   0.453   6.855   2.854
 5995TIP3    H217863   0.552   6.889   2.963
 5996TIP3   OH217864   2.120   7.231   3.054
 5996TIP3    H117865   2.191   7.167   3.045
 5996TIP3    H217866   2.146   7.303   2.997
 5997TIP3   OH217867   2.305   7.035   3.076
 5997TIP3    H117868   2.229   6.989   3.114
 5997TIP3    H217869   2.378   6.973   3.087
 5998TIP3   OH217870   1.770   6.266   1.640
 5998TIP3    H117871   1.846   6.238   1.690
 5998TIP3    H217872   1.700   6.206   1.666
 5999TIP3   OH217873   1.828   6.522   2.092
 5999TIP3    H117874   1.864   6.436   2.110
 5999TIP3    H217875   1.884   6.558   2.024
 6000TIP3   OH217876   1.992   6.702   2.589
 6000TIP3    H117877   2.074   6.725   2.546
 6000TIP3    H217878   2.001   6.736   2.678
 6001TIP3   OH217879   2.056   6.845   2.823
 6001TIP3    H117880   1.978   6.877   2.868
 6001TIP3    H217881   2.089   6.922   2.775
 6002TIP3   OH217882   0.674   6.565   3.615
 6002TIP3    H117883   0.769   6.564   3.618
 6002TIP3    H217884   0.648   6.485   3.661
 6003TIP3   OH217885   1.935   6.272   2.133
 6003TIP3    H117886   1.984   6.259   2.213
 6003TIP3    H217887   1.875   6.198   2.129
 6004TIP3   OH217888   0.638   6.261   2.956
 6004TIP3    H117889   0.697   6.186   2.961
 6004TIP3    H217890   0.696   6.336   2.946
 6005TIP3   OH217891   0.443   6.534   3.024
 6005TIP3    H117892   0.488   6.526   2.940
 6005TIP3    H217893   0.469   6.620   3.057
 6006TIP3   OH217894   2.375   6.566   3.204
 6006TIP3    H117895   2.289   6.608   3.202
 6006TIP3    H217896   2.370   6.499   3.135
 6007TIP3   OH217897   2.018   6.211   1.760
 6007TIP3    H117898   2.056   6.137   1.713
 6007TIP3    H217899   2.084   6.280   1.756
 6008TIP3   OH217900   0.421   6.047   2.529
 6008TIP3    H117901   0.328   6.035   2.551
 6008TIP3    H217902   0.420   6.098   2.448
 6009TIP3   OH217903   1.583   7.743   2.031
 6009TIP3    H117904   1.631   7.727   1.950
 6009TIP3    H217905   1.637   7.805   2.079
 6010TIP3   OH217906   0.636   6.112   3.336
 6010TIP3    H117907   0.592   6.116   3.421
 6010TIP3    H217908   0.576   6.156   3.276
 6011TIP3   OH217909   0.686   7.546   3.418
 6011TIP3    H117910   0.597   7.516   3.398
 6011TIP3    H217911   0.697   7.527   3.511
 6012TIP3   OH217912   0.859   7.580   2.959
 6012TIP3    H117913   0.811   7.655   2.923
 6012TIP3    H217914   0.947   7.587   2.921
 6013TIP3   OH217915   1.308   7.824   3.103
 6013TIP3    H117916   1.348   7.824   3.190
 6013TIP3    H217917   1.370   7.871   3.048
 6014TIP3   OH217918   1.486   7.972   2.957
 6014TIP3    H117919   1.553   7.921   2.911
 6014TIP3    H217920   1.535   8.029   3.016
 6015TIP3   OH217921   2.273   6.327   3.068
 6015TIP3    H117922   2.188   6.327   3.025
 6015TIP3    H217923   2.308   6.240   3.052
 6016TIP3   OH217924   0.529   7.832   2.988
 6016TIP3    H117925   0.448   7.874   2.958
 6016TIP3    H217926   0.546   7.872   3.073
 6017TIP3   OH217927   0.770   7.813   2.844
 6017TIP3    H117928   0.686   7.826   2.888
 6017TIP3    H217929   0.756   7.845   2.755
 6018TIP3   OH217930   1.193   7.845   2.644
 6018TIP3    H117931   1.133   7.866   2.572
 6018TIP3    H217932   1.212   7.930   2.685
 6019TIP3   OH217933   1.463   7.777   2.690
 6019TIP3    H117934   1.372   7.801   2.669
 6019TIP3    H217935   1.515   7.849   2.655
 6020TIP3   OH217936   1.662   7.974   2.608
 6020TIP3    H117937   1.656   8.058   2.561
 6020TIP3    H217938   1.704   7.915   2.546
 6021TIP3   OH217939   0.451   7.621   2.733
 6021TIP3    H117940   0.476   7.603   2.823
 6021TIP3    H217941   0.519   7.579   2.680
 6022TIP3   OH217942   0.652   7.498   2.595
 6022TIP3    H117943   0.665   7.415   2.641
 6022TIP3    H217944   0.740   7.536   2.590
 6023TIP3   OH217945   0.912   7.594   2.595
 6023TIP3    H117946   0.945   7.507   2.574
 6023TIP3    H217947   0.956   7.619   2.676
 6024TIP3   OH217948   1.483   6.250   2.677
 6024TIP3    H117949   1.440   6.182   2.729
 6024TIP3    H217950   1.555   6.205   2.633
 6025TIP3   OH217951   2.005   6.137   2.586
 6025TIP3    H117952   2.043   6.183   2.511
 6025TIP3    H217953   1.911   6.150   2.576
 6026TIP3   OH217954   2.103   6.233   2.348
 6026TIP3    H117955   2.172   6.178   2.310
 6026TIP3    H217956   2.134   6.323   2.334
 6027TIP3   OH217957   0.730   5.958   2.697
 6027TIP3    H117958   0.638   5.930   2.697
 6027TIP3    H217959   0.780   5.876   2.692
 6028TIP3   OH217960   0.515   5.831   2.341
 6028TIP3    H117961   0.548   5.886   2.270
 6028TIP3    H217962   0.488   5.892   2.409
 6029TIP3   OH217963   1.175   5.995   2.576
 6029TIP3    H117964   1.231   6.041   2.514
 6029TIP3    H217965   1.200   6.030   2.661
 6030TIP3   OH217966   1.721   6.136   2.559
 6030TIP3    H117967   1.723   6.101   2.470
 6030TIP3    H217968   1.709   6.059   2.615
 6031TIP3   OH217969   1.750   6.060   2.122
 6031TIP3    H117970   1.665   6.102   2.131
 6031TIP3    H217971   1.740   5.976   2.167
 6032TIP3   OH217972   0.639   5.988   2.109
 6032TIP3    H117973   0.685   5.924   2.053
 6032TIP3    H217974   0.708   6.043   2.145
 6033TIP3   OH217975   1.150   6.165   2.206
 6033TIP3    H117976   1.207   6.114   2.263
 6033TIP3    H217977   1.169   6.256   2.229
 6034TIP3   OH217978   1.069   7.591   1.714
 6034TIP3    H117979   1.154   7.618   1.681
 6034TIP3    H217980   1.047   7.512   1.665
 6035TIP3   OH217981   1.725   7.706   1.797
 6035TIP3    H117982   1.719   7.611   1.786
 6035TIP3    H217983   1.681   7.742   1.720
 6036TIP3   OH217984   0.944   6.236   3.582
 6036TIP3    H117985   0.907   6.169   3.639
 6036TIP3    H217986   1.036   6.241   3.607
 6037TIP3   OH217987   1.190   6.235   3.705
 6037TIP3    H117988   1.274   6.216   3.663
 6037TIP3    H217989   1.179   6.167   3.771
 6038TIP3   OH217990   2.016   6.290   3.496
 6038TIP3    H117991   2.023   6.258   3.586
 6038TIP3    H217992   2.096   6.258   3.453
 6039TIP3   OH217993   1.948   7.853   2.988
 6039TIP3    H117994   1.875   7.819   2.936
 6039TIP3    H217995   1.935   7.948   2.988
 6040TIP3   OH217996   3.216   7.225   1.752
 6040TIP3    H117997   3.192   7.315   1.733
 6040TIP3    H217998   3.143   7.173   1.720
 6041TIP3   OH217999   3.217   7.223   2.133
 6041TIP3    H118000   3.248   7.193   2.218
 6041TIP3    H218001   3.177   7.145   2.093
 6042TIP3   OH218002   2.520   7.120   2.500
 6042TIP3    H118003   2.550   7.053   2.561
 6042TIP3    H218004   2.595   7.177   2.487
 6043TIP3   OH218005   3.460   7.525   1.815
 6043TIP3    H118006   3.447   7.454   1.877
 6043TIP3    H218007   3.490   7.599   1.868
 6044TIP3   OH218008   2.491   7.525   2.220
 6044TIP3    H118009   2.479   7.430   2.225
 6044TIP3    H218010   2.585   7.537   2.217
 6045TIP3   OH218011   2.192   6.733   2.009
 6045TIP3    H118012   2.148   6.816   2.024
 6045TIP3    H218013   2.125   6.677   1.970
 6046TIP3   OH218014   2.256   7.018   2.178
 6046TIP3    H118015   2.302   6.943   2.215
 6046TIP3    H218016   2.313   7.050   2.109
 6047TIP3   OH218017   3.111   7.987   1.830
 6047TIP3    H118018   3.156   7.919   1.780
 6047TIP3    H218019   3.101   7.950   1.918
 6048TIP3   OH218020   3.020   7.448   2.180
 6048TIP3    H118021   3.052   7.371   2.134
 6048TIP3    H218022   3.100   7.496   2.205
 6049TIP3   OH218023   4.029   6.772   2.177
 6049TIP3    H118024   4.057   6.852   2.220
 6049TIP3    H218025   4.052   6.785   2.085
 6050TIP3   OH218026   3.428   6.950   2.213
 6050TIP3    H118027   3.471   6.867   2.235
 6050TIP3    H218028   3.398   6.938   2.123
 6051TIP3   OH218029   2.764   6.610   2.177
 6051TIP3    H118030   2.747   6.683   2.117
 6051TIP3    H218031   2.719   6.536   2.136
 6052TIP3   OH218032   3.463   6.702   1.801
 6052TIP3    H118033   3.530   6.686   1.867
 6052TIP3    H218034   3.510   6.737   1.726
 6053TIP3   OH218035   2.402   6.811   2.285
 6053TIP3    H118036   2.482   6.793   2.334
 6053TIP3    H218037   2.411   6.757   2.205
 6054TIP3   OH218038   2.842   7.008   2.079
 6054TIP3    H118039   2.934   6.986   2.091
 6054TIP3    H218040   2.802   6.927   2.046
 6055TIP3   OH218041   4.102   6.978   2.349
 6055TIP3    H118042   4.021   7.023   2.326
 6055TIP3    H218043   4.115   6.998   2.441
 6056TIP3   OH218044   2.761   6.595   2.613
 6056TIP3    H118045   2.704   6.629   2.544
 6056TIP3    H218046   2.713   6.611   2.694
 6057TIP3   OH218047   3.109   7.445   1.622
 6057TIP3    H118048   3.068   7.422   1.538
 6057TIP3    H218049   3.068   7.528   1.646
 6058TIP3   OH218050   2.870   7.371   2.409
 6058TIP3    H118051   2.808   7.433   2.446
 6058TIP3    H218052   2.911   7.419   2.336
 6059TIP3   OH218053   3.671   6.705   1.973
 6059TIP3    H118054   3.666   6.651   2.052
 6059TIP3    H218055   3.726   6.779   1.998
 6060TIP3   OH218056   2.636   6.709   2.396
 6060TIP3    H118057   2.695   6.781   2.421
 6060TIP3    H218058   2.680   6.667   2.323
 6061TIP3   OH218059   2.694   7.562   2.506
 6061TIP3    H118060   2.677   7.648   2.467
 6061TIP3    H218061   2.618   7.544   2.561
 6062TIP3   OH218062   2.093   7.254   1.741
 6062TIP3    H118063   2.052   7.279   1.658
 6062TIP3    H218064   2.123   7.337   1.779
 6063TIP3   OH218065   3.530   7.771   1.984
 6063TIP3    H118066   3.443   7.759   2.022
 6063TIP3    H218067   3.525   7.853   1.936
 6064TIP3   OH218068   3.822   6.674   2.344
 6064TIP3    H118069   3.735   6.699   2.313
 6064TIP3    H218070   3.881   6.703   2.274
 6065TIP3   OH218071   3.118   6.312   2.327
 6065TIP3    H118072   3.110   6.218   2.343
 6065TIP3    H218073   3.043   6.350   2.372
 6066TIP3   OH218074   3.238   7.815   1.655
 6066TIP3    H118075   3.282   7.733   1.637
 6066TIP3    H218076   3.295   7.882   1.616
 6067TIP3   OH218077   3.375   7.599   1.563
 6067TIP3    H118078   3.341   7.522   1.519
 6067TIP3    H218079   3.411   7.566   1.645
 6068TIP3   OH218080   3.758   7.682   2.323
 6068TIP3    H118081   3.747   7.605   2.267
 6068TIP3    H218082   3.741   7.756   2.265
 6069TIP3   OH218083   3.049   7.077   1.580
 6069TIP3    H118084   2.970   7.126   1.561
 6069TIP3    H218085   3.096   7.073   1.497
 6070TIP3   OH218086   3.011   6.859   1.299
 6070TIP3    H118087   3.075   6.911   1.348
 6070TIP3    H218088   3.064   6.795   1.251
 6071TIP3   OH218089   3.952   7.321   2.169
 6071TIP3    H118090   3.870   7.370   2.176
 6071TIP3    H218091   3.984   7.340   2.081
 6072TIP3   OH218092   3.397   7.158   1.557
 6072TIP3    H118093   3.341   7.182   1.631
 6072TIP3    H218094   3.480   7.132   1.596
 6073TIP3   OH218095   3.630   7.200   2.465
 6073TIP3    H118096   3.629   7.283   2.513
 6073TIP3    H218097   3.546   7.199   2.419
 6074TIP3   OH218098   2.630   7.154   1.971
 6074TIP3    H118099   2.587   7.100   1.904
 6074TIP3    H218100   2.705   7.103   1.999
 6075TIP3   OH218101   2.761   7.567   2.118
 6075TIP3    H118102   2.737   7.526   2.035
 6075TIP3    H218103   2.849   7.534   2.137
 6076TIP3   OH218104   2.767   7.127   2.325
 6076TIP3    H118105   2.798   7.105   2.237
 6076TIP3    H218106   2.808   7.212   2.344
 6077TIP3   OH218107   3.290   7.765   2.103
 6077TIP3    H118108   3.277   7.843   2.157
 6077TIP3    H218109   3.276   7.692   2.163
 6078TIP3   OH218110   2.899   7.684   2.650
 6078TIP3    H118111   2.843   7.747   2.694
 6078TIP3    H218112   2.838   7.630   2.599
 6079TIP3   OH218113   3.239   7.018   1.379
 6079TIP3    H118114   3.295   7.074   1.432
 6079TIP3    H218115   3.263   7.039   1.289
 6080TIP3   OH218116   2.656   7.241   2.752
 6080TIP3    H118117   2.663   7.327   2.795
 6080TIP3    H218118   2.563   7.220   2.756
 6081TIP3   OH218119   2.981   7.697   1.656
 6081TIP3    H118120   3.058   7.750   1.674
 6081TIP3    H218121   2.919   7.759   1.616
 6082TIP3   OH218122   2.697   7.855   2.737
 6082TIP3    H118123   2.667   7.852   2.646
 6082TIP3    H218124   2.620   7.830   2.788
 6083TIP3   OH218125   3.752   6.259   1.428
 6083TIP3    H118126   3.673   6.276   1.479
 6083TIP3    H218127   3.766   6.340   1.378
 6084TIP3   OH218128   2.493   6.999   1.775
 6084TIP3    H118129   2.431   7.044   1.719
 6084TIP3    H218130   2.455   6.912   1.788
 6085TIP3   OH218131   3.554   7.626   0.976
 6085TIP3    H118132   3.560   7.720   0.962
 6085TIP3    H218133   3.644   7.594   0.964
 6086TIP3   OH218134   2.275   7.381   2.682
 6086TIP3    H118135   2.212   7.362   2.613
 6086TIP3    H218136   2.313   7.295   2.704
 6087TIP3   OH218137   2.131   7.582   2.326
 6087TIP3    H118138   2.226   7.586   2.313
 6087TIP3    H218139   2.111   7.656   2.383
 6088TIP3   OH218140   3.993   8.025   2.372
 6088TIP3    H118141   3.995   7.929   2.381
 6088TIP3    H218142   3.912   8.051   2.415
 6089TIP3   OH218143   3.100   7.813   2.510
 6089TIP3    H118144   3.101   7.904   2.538
 6089TIP3    H218145   3.029   7.772   2.559
 6090TIP3   OH218146   2.860   7.943   1.457
 6090TIP3    H118147   2.815   7.923   1.375
 6090TIP3    H218148   2.829   8.030   1.481
 6091TIP3   OH218149   2.299   7.790   1.843
 6091TIP3    H118150   2.348   7.783   1.925
 6091TIP3    H218151   2.238   7.716   1.845
 6092TIP3   OH218152   3.065   7.842   1.099
 6092TIP3    H118153   3.121   7.774   1.061
 6092TIP3    H218154   3.097   7.852   1.188
 6093TIP3   OH218155   3.112   7.890   1.370
 6093TIP3    H118156   3.025   7.900   1.409
 6093TIP3    H218157   3.164   7.848   1.438
 6094TIP3   OH218158   3.883   7.156   2.645
 6094TIP3    H118159   3.804   7.171   2.592
 6094TIP3    H218160   3.901   7.063   2.635
 6095TIP3   OH218161   2.482   7.562   2.674
 6095TIP3    H118162   2.531   7.546   2.755
 6095TIP3    H218163   2.407   7.502   2.680
 6096TIP3   OH218164   2.877   6.390   2.454
 6096TIP3    H118165   2.792   6.356   2.427
 6096TIP3    H218166   2.857   6.472   2.501
 6097TIP3   OH218167   3.415   6.505   2.652
 6097TIP3    H118168   3.482   6.475   2.712
 6097TIP3    H218169   3.332   6.483   2.695
 6098TIP3   OH218170   3.654   6.934   2.570
 6098TIP3    H118171   3.606   6.930   2.652
 6098TIP3    H218172   3.630   7.019   2.532
 6099TIP3   OH218173   3.314   7.064   1.122
 6099TIP3    H118174   3.279   7.037   1.037
 6099TIP3    H218175   3.395   7.111   1.101
 6100TIP3   OH218176   3.024   6.437   1.427
 6100TIP3    H118177   2.995   6.438   1.518
 6100TIP3    H218178   2.989   6.356   1.391
 6101TIP3   OH218179   2.811   6.906   2.475
 6101TIP3    H118180   2.762   6.925   2.555
 6101TIP3    H218181   2.798   6.984   2.420
 6102TIP3   OH218182   2.695   6.789   1.986
 6102TIP3    H118183   2.604   6.765   2.006
 6102TIP3    H218184   2.711   6.751   1.900
 6103TIP3   OH218185   3.187   6.877   1.713
 6103TIP3    H118186   3.134   6.947   1.674
 6103TIP3    H218187   3.242   6.846   1.641
 6104TIP3   OH218188   3.363   7.156   2.807
 6104TIP3    H118189   3.338   7.083   2.864
 6104TIP3    H218190   3.457   7.167   2.822
 6105TIP3   OH218191   3.344   6.904   1.952
 6105TIP3    H118192   3.284   6.937   1.884
 6105TIP3    H218193   3.380   6.823   1.915
 6106TIP3   OH218194   2.632   6.934   2.685
 6106TIP3    H118195   2.658   6.998   2.750
 6106TIP3    H218196   2.622   6.852   2.734
 6107TIP3   OH218197   2.679   6.411   1.394
 6107TIP3    H118198   2.675   6.407   1.489
 6107TIP3    H218199   2.603   6.463   1.369
 6108TIP3   OH218200   2.225   6.456   2.264
 6108TIP3    H118201   2.300   6.486   2.316
 6108TIP3    H218202   2.265   6.423   2.183
 6109TIP3   OH218203   2.198   6.439   1.781
 6109TIP3    H118204   2.245   6.472   1.705
 6109TIP3    H218205   2.137   6.509   1.805
 6110TIP3   OH218206   3.356   7.148   2.379
 6110TIP3    H118207   3.388   7.081   2.319
 6110TIP3    H218208   3.326   7.100   2.456
 6111TIP3   OH218209   3.023   6.616   2.052
 6111TIP3    H118210   2.941   6.611   2.102
 6111TIP3    H218211   3.092   6.610   2.117
 6112TIP3   OH218212   2.457   6.667   2.057
 6112TIP3    H118213   2.365   6.674   2.031
 6112TIP3    H218214   2.482   6.577   2.034
 6113TIP3   OH218215   2.728   6.665   1.745
 6113TIP3    H118216   2.821   6.679   1.725
 6113TIP3    H218217   2.683   6.688   1.663
 6114TIP3   OH218218   3.514   6.689   2.254
 6114TIP3    H118219   3.479   6.701   2.343
 6114TIP3    H218220   3.454   6.627   2.213
 6115TIP3   OH218221   2.567   6.698   1.522
 6115TIP3    H118222   2.495   6.654   1.477
 6115TIP3    H218223   2.620   6.734   1.451
 6116TIP3   OH218224   3.686   8.379   2.468
 6116TIP3    H118225   3.682   8.398   2.374
 6116TIP3    H218226   3.765   8.425   2.499
 6117TIP3   OH218227   2.643   7.486   2.896
 6117TIP3    H118228   2.722   7.518   2.940
 6117TIP3    H218229   2.576   7.488   2.965
 6118TIP3   OH218230   3.108   6.940   2.148
 6118TIP3    H118231   3.178   6.901   2.095
 6118TIP3    H218232   3.117   6.898   2.233
 6119TIP3   OH218233   2.630   6.427   2.024
 6119TIP3    H118234   2.597   6.350   2.070
 6119TIP3    H218235   2.684   6.392   1.954
 6120TIP3   OH218236   3.083   6.836   2.438
 6120TIP3    H118237   2.995   6.872   2.450
 6120TIP3    H218238   3.140   6.896   2.486
 6121TIP3   OH218239   2.818   7.229   1.533
 6121TIP3    H118240   2.749   7.164   1.520
 6121TIP3    H218241   2.803   7.262   1.621
 6122TIP3   OH218242   3.720   7.465   2.160
 6122TIP3    H118243   3.745   7.513   2.081
 6122TIP3    H218244   3.637   7.423   2.137
 6123TIP3   OH218245   3.277   6.542   1.392
 6123TIP3    H118246   3.183   6.525   1.401
 6123TIP3    H218247   3.288   6.634   1.417
 6124TIP3   OH218248   3.223   7.549   2.528
 6124TIP3    H118249   3.238   7.523   2.619
 6124TIP3    H218250   3.180   7.634   2.535
 6125TIP3   OH218251   3.349   6.789   1.496
 6125TIP3    H118252   3.444   6.793   1.512
 6125TIP3    H218253   3.331   6.867   1.444
 6126TIP3   OH218254   2.513   7.247   2.207
 6126TIP3    H118255   2.549   7.222   2.122
 6126TIP3    H218256   2.553   7.186   2.269
 6127TIP3   OH218257   2.963   7.379   1.353
 6127TIP3    H118258   2.919   7.464   1.357
 6127TIP3    H218259   2.912   7.323   1.411
 6128TIP3   OH218260   2.392   7.169   2.821
 6128TIP3    H118261   2.412   7.157   2.914
 6128TIP3    H218262   2.323   7.105   2.803
 6129TIP3   OH218263   3.118   7.282   2.840
 6129TIP3    H118264   3.057   7.228   2.790
 6129TIP3    H218265   3.205   7.251   2.814
 6130TIP3   OH218266   3.380   7.810   2.426
 6130TIP3    H118267   3.285   7.802   2.435
 6130TIP3    H218268   3.408   7.860   2.502
 6131TIP3   OH218269   3.788   6.879   1.331
 6131TIP3    H118270   3.728   6.831   1.274
 6131TIP3    H218271   3.790   6.967   1.294
 6132TIP3   OH218272   4.007   7.735   2.411
 6132TIP3    H118273   3.911   7.731   2.407
 6132TIP3    H218274   4.036   7.705   2.325
 6133TIP3   OH218275   3.488   7.696   1.240
 6133TIP3    H118276   3.466   7.626   1.301
 6133TIP3    H218277   3.503   7.651   1.156
 6134TIP3   OH218278   3.485   7.324   2.081
 6134TIP3    H118279   3.393   7.301   2.094
 6134TIP3    H218280   3.522   7.248   2.036
 6135TIP3   OH218281   2.612   7.554   1.830
 6135TIP3    H118282   2.614   7.635   1.778
 6135TIP3    H218283   2.518   7.538   1.845
 6136TIP3   OH218284   2.176   6.860   1.535
 6136TIP3    H118285   2.223   6.941   1.553
 6136TIP3    H218286   2.100   6.863   1.594
 6137TIP3   OH218287   2.752   7.321   1.779
 6137TIP3    H118288   2.718   7.409   1.793
 6137TIP3    H218289   2.717   7.269   1.851
 6138TIP3   OH218290   2.885   7.901   2.300
 6138TIP3    H118291   2.923   7.972   2.248
 6138TIP3    H218292   2.958   7.863   2.347
 6139TIP3   OH218293   2.532   7.794   1.686
 6139TIP3    H118294   2.447   7.799   1.731
 6139TIP3    H218295   2.565   7.884   1.686
 6140TIP3   OH218296   3.274   7.532   2.261
 6140TIP3    H118297   3.263   7.531   2.356
 6140TIP3    H218298   3.350   7.477   2.244
 6141TIP3   OH218299   3.244   7.423   1.145
 6141TIP3    H118300   3.299   7.401   1.221
 6141TIP3    H218301   3.155   7.398   1.172
 6142TIP3   OH218302   3.517   8.068   2.311
 6142TIP3    H118303   3.442   8.010   2.305
 6142TIP3    H218304   3.505   8.131   2.240
 6143TIP3   OH218305   3.584   7.902   0.963
 6143TIP3    H118306   3.628   7.970   0.910
 6143TIP3    H218307   3.505   7.945   0.995
 6144TIP3   OH218308   2.604   6.677   2.832
 6144TIP3    H118309   2.509   6.678   2.840
 6144TIP3    H218310   2.634   6.614   2.898
 6145TIP3   OH218311   3.407   7.359   1.362
 6145TIP3    H118312   3.394   7.293   1.431
 6145TIP3    H218313   3.501   7.358   1.346
 6146TIP3   OH218314   2.339   7.763   2.452
 6146TIP3    H118315   2.386   7.694   2.500
 6146TIP3    H218316   2.295   7.814   2.520
 6147TIP3   OH218317   2.611   7.404   1.143
 6147TIP3    H118318   2.626   7.315   1.112
 6147TIP3    H218319   2.593   7.394   1.237
 6148TIP3   OH218320   2.558   7.412   1.416
 6148TIP3    H118321   2.628   7.382   1.474
 6148TIP3    H218322   2.560   7.507   1.421
 6149TIP3   OH218323   2.291   7.106   1.618
 6149TIP3    H118324   2.227   7.148   1.676
 6149TIP3    H218325   2.308   7.172   1.550
 6150TIP3   OH218326   3.439   6.743   2.515
 6150TIP3    H118327   3.522   6.777   2.547
 6150TIP3    H218328   3.425   6.662   2.564
 6151TIP3   OH218329   3.320   6.495   1.673
 6151TIP3    H118330   3.308   6.515   1.581
 6151TIP3    H218331   3.360   6.574   1.710
 6152TIP3   OH218332   2.821   7.610   1.364
 6152TIP3    H118333   2.736   7.634   1.400
 6152TIP3    H218334   2.840   7.678   1.300
 6153TIP3   OH218335   3.012   6.672   1.779
 6153TIP3    H118336   3.075   6.741   1.758
 6153TIP3    H218337   3.015   6.663   1.874
 6154TIP3   OH218338   3.280   6.990   2.586
 6154TIP3    H118339   3.301   7.041   2.664
 6154TIP3    H218340   3.333   6.911   2.595
 6155TIP3   OH218341   3.157   6.402   1.879
 6155TIP3    H118342   3.150   6.475   1.940
 6155TIP3    H218343   3.215   6.434   1.810
 6156TIP3   OH218344   2.564   7.685   1.431
 6156TIP3    H118345   2.535   7.751   1.368
 6156TIP3    H218346   2.549   7.725   1.516
 6157TIP3   OH218347   2.669   6.398   1.670
 6157TIP3    H118348   2.663   6.487   1.705
 6157TIP3    H218349   2.761   6.375   1.676
 6158TIP3   OH218350   3.920   6.890   2.563
 6158TIP3    H118351   3.825   6.891   2.574
 6158TIP3    H218352   3.934   6.846   2.479
 6159TIP3   OH218353   3.571   7.084   1.955
 6159TIP3    H118354   3.496   7.026   1.965
 6159TIP3    H218355   3.643   7.039   2.000
 6160TIP3   OH218356   2.286   7.314   1.422
 6160TIP3    H118357   2.346   7.387   1.435
 6160TIP3    H218358   2.328   7.259   1.356
 6161TIP3   OH218359   2.228   6.591   1.557
 6161TIP3    H118360   2.230   6.686   1.553
 6161TIP3    H218361   2.146   6.566   1.514
 6162TIP3   OH218362   3.540   8.043   1.902
 6162TIP3    H118363   3.495   8.087   1.830
 6162TIP3    H218364   3.633   8.058   1.885
 6163TIP3   OH218365   2.613   6.307   2.432
 6163TIP3    H118366   2.585   6.276   2.346
 6163TIP3    H218367   2.605   6.231   2.489
 6164TIP3   OH218368   2.153   7.526   1.811
 6164TIP3    H118369   2.085   7.557   1.870
 6164TIP3    H218370   2.132   7.565   1.726
 6165TIP3   OH218371   2.308   8.067   2.884
 6165TIP3    H118372   2.394   8.056   2.926
 6165TIP3    H218373   2.276   7.978   2.871
 6166TIP3   OH218374   2.797   8.032   2.926
 6166TIP3    H118375   2.891   8.011   2.931
 6166TIP3    H218376   2.765   7.977   2.854
 6167TIP3   OH218377   2.775   7.607   1.056
 6167TIP3    H118378   2.718   7.539   1.094
 6167TIP3    H218379   2.851   7.558   1.023
 6168TIP3   OH218380   3.431   7.941   2.663
 6168TIP3    H118381   3.422   7.871   2.728
 6168TIP3    H218382   3.508   7.990   2.691
 6169TIP3   OH218383   3.212   7.649   0.966
 6169TIP3    H118384   3.255   7.588   1.025
 6169TIP3    H218385   3.267   7.650   0.887
 6170TIP3   OH218386   2.439   7.473   3.083
 6170TIP3    H118387   2.458   7.380   3.086
 6170TIP3    H218388   2.354   7.479   3.040
 6171TIP3   OH218389   2.422   7.126   1.275
 6171TIP3    H118390   2.473   7.093   1.349
 6171TIP3    H218391   2.485   7.132   1.203
 6172TIP3   OH218392   3.049   7.559   2.855
 6172TIP3    H118393   3.006   7.576   2.771
 6172TIP3    H218394   3.079   7.468   2.848
 6173TIP3   OH218395   2.927   7.322   1.084
 6173TIP3    H118396   2.931   7.338   1.178
 6173TIP3    H218397   2.927   7.227   1.076
 6174TIP3   OH218398   3.544   7.569   2.463
 6174TIP3    H118399   3.618   7.611   2.418
 6174TIP3    H218400   3.471   7.629   2.450
 6175TIP3   OH218401   2.561   7.206   3.067
 6175TIP3    H118402   2.638   7.156   3.040
 6175TIP3    H218403   2.585   7.241   3.153
 6176TIP3   OH218404   2.628   7.028   1.499
 6176TIP3    H118405   2.601   6.988   1.582
 6176TIP3    H218406   2.664   6.955   1.448
 6177TIP3   OH218407   2.896   7.097   2.727
 6177TIP3    H118408   2.819   7.153   2.730
 6177TIP3    H218409   2.945   7.127   2.650
 6178TIP3   OH218410   2.729   6.822   1.337
 6178TIP3    H118411   2.700   6.825   1.246
 6178TIP3    H218412   2.824   6.828   1.333
 6179TIP3   OH218413   3.416   7.496   2.862
 6179TIP3    H118414   3.491   7.471   2.808
 6179TIP3    H218415   3.411   7.427   2.929
 6180TIP3   OH218416   3.548   7.156   0.999
 6180TIP3    H118417   3.530   7.106   0.919
 6180TIP3    H218418   3.519   7.245   0.979
 6181TIP3   OH218419   3.018   6.881   2.852
 6181TIP3    H118420   3.020   6.802   2.799
 6181TIP3    H218421   2.976   6.947   2.796
 6182TIP3   OH218422   3.020   6.670   2.659
 6182TIP3    H118423   3.050   6.709   2.577
 6182TIP3    H218424   2.929   6.645   2.642
 6183TIP3   OH218425   3.051   7.207   2.533
 6183TIP3    H118426   3.132   7.210   2.484
 6183TIP3    H218427   2.994   7.271   2.490
 6184TIP3   OH218428   3.636   7.171   2.916
 6184TIP3    H118429   3.678   7.085   2.922
 6184TIP3    H218430   3.702   7.228   2.877
 6185TIP3   OH218431   3.673   7.428   2.651
 6185TIP3    H118432   3.614   7.477   2.594
 6185TIP3    H218433   3.760   7.443   2.614
 6186TIP3   OH218434   2.896   6.993   3.083
 6186TIP3    H118435   2.828   6.927   3.097
 6186TIP3    H218436   2.932   6.973   2.997
 6187TIP3   OH218437   3.152   6.433   2.725
 6187TIP3    H118438   3.105   6.514   2.704
 6187TIP3    H218439   3.087   6.364   2.714
 6188TIP3   OH218440   3.276   6.937   2.944
 6188TIP3    H118441   3.269   6.925   3.039
 6188TIP3    H218442   3.191   6.912   2.910
 6189TIP3   OH218443   3.521   6.891   2.802
 6189TIP3    H118444   3.445   6.887   2.859
 6189TIP3    H218445   3.593   6.856   2.854
 6190TIP3   OH218446   3.750   6.826   2.952
 6190TIP3    H118447   3.763   6.732   2.966
 6190TIP3    H218448   3.747   6.864   3.040
 6191TIP3   OH218449   2.736   6.773   3.137
 6191TIP3    H118450   2.741   6.686   3.098
 6191TIP3    H218451   2.772   6.762   3.225
 6192TIP3   OH218452   3.249   6.441   2.982
 6192TIP3    H118453   3.316   6.373   2.981
 6192TIP3    H218454   3.210   6.437   2.895
 6193TIP3   OH218455   3.314   6.656   3.141
 6193TIP3    H118456   3.295   6.586   3.079
 6193TIP3    H218457   3.238   6.715   3.134
 6194TIP3   OH218458   2.536   7.887   1.242
 6194TIP3    H118459   2.630   7.881   1.225
 6194TIP3    H218460   2.502   7.934   1.166
 6195TIP3   OH218461   2.017   7.265   1.460
 6195TIP3    H118462   2.109   7.289   1.448
 6195TIP3    H218463   2.009   7.179   1.419
 6196TIP3   OH218464   1.929   7.878   1.873
 6196TIP3    H118465   1.862   7.819   1.838
 6196TIP3    H218466   1.974   7.826   1.939
 6197TIP3   OH218467   2.066   7.736   2.064
 6197TIP3    H118468   2.055   7.662   2.123
 6197TIP3    H218469   2.115   7.801   2.115
 6198TIP3   OH218470   3.792   8.135   1.860
 6198TIP3    H118471   3.821   8.168   1.945
 6198TIP3    H218472   3.854   8.172   1.797
 6199TIP3   OH218473   3.822   8.151   2.145
 6199TIP3    H118474   3.777   8.067   2.135
 6199TIP3    H218475   3.900   8.130   2.196
 6200TIP3   OH218476   3.869   7.830   2.716
 6200TIP3    H118477   3.795   7.836   2.777
 6200TIP3    H218478   3.909   7.917   2.719
 6201TIP3   OH218479   3.685   7.342   1.336
 6201TIP3    H118480   3.751   7.405   1.304
 6201TIP3    H218481   3.726   7.303   1.413
 6202TIP3   OH218482   3.812   7.210   1.540
 6202TIP3    H118483   3.747   7.168   1.596
 6202TIP3    H218484   3.876   7.247   1.600
 6203TIP3   OH218485   3.867   7.600   1.969
 6203TIP3    H118486   3.918   7.535   1.921
 6203TIP3    H218487   3.859   7.674   1.909
 6204TIP3   OH218488   3.697   7.902   2.165
 6204TIP3    H118489   3.627   7.942   2.217
 6204TIP3    H218490   3.651   7.853   2.097
 6205TIP3   OH218491   3.747   7.118   1.186
 6205TIP3    H118492   3.680   7.118   1.118
 6205TIP3    H218493   3.724   7.192   1.242
 6206TIP3   OH218494   3.619   6.788   1.140
 6206TIP3    H118495   3.581   6.830   1.063
 6206TIP3    H218496   3.596   6.696   1.132
 6207TIP3   OH218497   3.626   7.064   1.687
 6207TIP3    H118498   3.635   6.969   1.678
 6207TIP3    H218499   3.613   7.078   1.781
 6208TIP3   OH218500   2.255   7.134   2.431
 6208TIP3    H118501   2.250   7.107   2.339
 6208TIP3    H218502   2.349   7.138   2.449
 6209TIP3   OH218503   3.917   7.489   2.542
 6209TIP3    H118504   3.987   7.424   2.535
 6209TIP3    H218505   3.940   7.557   2.478
 6210TIP3   OH218506   4.101   7.293   2.564
 6210TIP3    H118507   4.025   7.246   2.600
 6210TIP3    H218508   4.174   7.232   2.575
 6211TIP3   OH218509   3.565   6.523   1.127
 6211TIP3    H118510   3.640   6.494   1.179
 6211TIP3    H218511   3.494   6.465   1.152
 6212TIP3   OH218512   3.624   6.779   1.579
 6212TIP3    H118513   3.662   6.693   1.597
 6212TIP3    H218514   3.680   6.815   1.510
 6213TIP3   OH218515   3.788   6.959   2.076
 6213TIP3    H118516   3.870   6.982   2.033
 6213TIP3    H218517   3.797   6.991   2.165
 6214TIP3   OH218518   3.853   7.102   2.308
 6214TIP3    H118519   3.775   7.133   2.354
 6214TIP3    H218520   3.886   7.179   2.262
 6215TIP3   OH218521   2.467   6.816   3.109
 6215TIP3    H118522   2.562   6.815   3.105
 6215TIP3    H218523   2.444   6.736   3.157
 6216TIP3   OH218524   4.306   6.691   2.862
 6216TIP3    H118525   4.363   6.625   2.823
 6216TIP3    H218526   4.277   6.744   2.787
 6217TIP3   OH218527   3.730   6.529   1.620
 6217TIP3    H118528   3.780   6.516   1.700
 6217TIP3    H218529   3.671   6.454   1.616
 6218TIP3   OH218530   2.433   6.518   2.440
 6218TIP3    H118531   2.491   6.442   2.447
 6218TIP3    H218532   2.492   6.592   2.431
 6219TIP3   OH218533   2.236   6.793   2.510
 6219TIP3    H118534   2.283   6.782   2.427
 6219TIP3    H218535   2.261   6.880   2.540
 6220TIP3   OH218536   4.173   6.830   2.667
 6220TIP3    H118537   4.088   6.870   2.686
 6220TIP3    H218538   4.153   6.757   2.609
 6221TIP3   OH218539   3.815   6.467   1.248
 6221TIP3    H118540   3.853   6.395   1.199
 6221TIP3    H218541   3.880   6.537   1.243
 6222TIP3   OH218542   2.216   6.298   2.011
 6222TIP3    H118543   2.124   6.293   2.037
 6222TIP3    H218544   2.216   6.354   1.934
 6223TIP3   OH218545   3.378   8.000   1.516
 6223TIP3    H118546   3.424   7.981   1.434
 6223TIP3    H218547   3.433   8.064   1.561
 6224TIP3   OH218548   2.435   6.380   2.831
 6224TIP3    H118549   2.385   6.370   2.911
 6224TIP3    H218550   2.372   6.412   2.767
 6225TIP3   OH218551   2.481   7.800   2.908
 6225TIP3    H118552   2.390   7.780   2.886
 6225TIP3    H218553   2.487   7.783   3.002
 6226TIP3   OH218554   2.663   7.832   2.454
 6226TIP3    H118555   2.597   7.891   2.419
 6226TIP3    H218556   2.743   7.856   2.406
 6227TIP3   OH218557   3.104   8.080   2.590
 6227TIP3    H118558   3.144   8.080   2.677
 6227TIP3    H218559   3.166   8.129   2.536
 6228TIP3   OH218560   3.282   8.230   2.447
 6228TIP3    H118561   3.348   8.178   2.401
 6228TIP3    H218562   3.331   8.286   2.506
 6229TIP3   OH218563   4.073   6.589   2.546
 6229TIP3    H118564   3.983   6.584   2.514
 6229TIP3    H218565   4.107   6.500   2.536
 6230TIP3   OH218566   2.336   8.104   2.469
 6230TIP3    H118567   2.250   8.134   2.439
 6230TIP3    H218568   2.323   8.083   2.561
 6231TIP3   OH218569   2.571   8.075   2.330
 6231TIP3    H118570   2.489   8.086   2.378
 6231TIP3    H218571   2.550   8.102   2.240
 6232TIP3   OH218572   2.995   8.102   2.128
 6232TIP3    H118573   2.925   8.116   2.063
 6232TIP3    H218574   3.007   8.187   2.169
 6233TIP3   OH218575   3.262   8.041   2.181
 6233TIP3    H118576   3.169   8.054   2.162
 6233TIP3    H218577   3.307   8.113   2.136
 6234TIP3   OH218578   3.473   8.233   2.094
 6234TIP3    H118579   3.457   8.315   2.048
 6234TIP3    H218580   3.498   8.171   2.024
 6235TIP3   OH218581   2.248   7.884   2.212
 6235TIP3    H118582   2.261   7.867   2.306
 6235TIP3    H218583   2.319   7.838   2.169
 6236TIP3   OH218584   2.441   7.752   2.073
 6236TIP3    H118585   2.453   7.671   2.123
 6236TIP3    H218586   2.528   7.791   2.070
 6237TIP3   OH218587   2.707   7.851   2.078
 6237TIP3    H118588   2.734   7.761   2.062
 6237TIP3    H218589   2.745   7.875   2.162
 6238TIP3   OH218590   3.277   6.505   2.163
 6238TIP3    H118591   3.235   6.438   2.217
 6238TIP3    H218592   3.350   6.460   2.120
 6239TIP3   OH218593   3.802   6.392   2.072
 6239TIP3    H118594   3.839   6.439   1.997
 6239TIP3    H218595   3.708   6.405   2.064
 6240TIP3   OH218596   3.900   6.490   1.834
 6240TIP3    H118597   3.969   6.436   1.796
 6240TIP3    H218598   3.929   6.580   1.820
 6241TIP3   OH218599   2.527   6.213   2.183
 6241TIP3    H118600   2.436   6.184   2.184
 6241TIP3    H218601   2.578   6.132   2.180
 6242TIP3   OH218602   2.310   6.088   1.828
 6242TIP3    H118603   2.344   6.142   1.757
 6242TIP3    H218604   2.285   6.150   1.896
 6243TIP3   OH218605   2.970   6.253   2.062
 6243TIP3    H118606   3.029   6.299   2.002
 6243TIP3    H218607   2.995   6.284   2.149
 6244TIP3   OH218608   3.519   6.393   2.046
 6244TIP3    H118609   3.518   6.358   1.957
 6244TIP3    H218610   3.506   6.316   2.102
 6245TIP3   OH218611   3.546   6.316   1.609
 6245TIP3    H118612   3.461   6.359   1.618
 6245TIP3    H218613   3.536   6.233   1.655
 6246TIP3   OH218614   2.029   7.656   1.609
 6246TIP3    H118615   1.946   7.620   1.576
 6246TIP3    H218616   2.024   7.750   1.591
 6247TIP3   OH218617   2.433   6.247   1.592
 6247TIP3    H118618   2.479   6.183   1.537
 6247TIP3    H218619   2.503   6.300   1.629
 6248TIP3   OH218620   2.945   6.422   1.694
 6248TIP3    H118621   3.002   6.371   1.751
 6248TIP3    H218622   2.965   6.513   1.716
 6249TIP3   OH218623   2.805   7.845   1.188
 6249TIP3    H118624   2.892   7.869   1.157
 6249TIP3    H218625   2.779   7.771   1.133
 6250TIP3   OH218626   3.519   7.961   1.283
 6250TIP3    H118627   3.514   7.866   1.273
 6250TIP3    H218628   3.478   7.996   1.204
 6251TIP3   OH218629   2.734   6.499   3.079
 6251TIP3    H118630   2.697   6.427   3.130
 6251TIP3    H218631   2.828   6.497   3.100
 6252TIP3   OH218632   2.986   6.494   3.195
 6252TIP3    H118633   3.068   6.471   3.150
 6252TIP3    H218634   2.974   6.425   3.260
 6253TIP3   OH218635   2.110   7.684   1.250
 6253TIP3    H118636   2.107   7.709   1.343
 6253TIP3    H218637   2.196   7.643   1.239
 6254TIP3   OH218638   3.812   6.556   2.981
 6254TIP3    H118639   3.828   6.524   3.070
 6254TIP3    H218640   3.897   6.550   2.937
 6255TIP3   OH218641   3.745   8.110   2.474
 6255TIP3    H118642   3.671   8.074   2.424
 6255TIP3    H218643   3.730   8.204   2.476
 6256TIP3   OH218644   5.012   7.481   1.239
 6256TIP3    H118645   4.987   7.572   1.219
 6256TIP3    H218646   4.940   7.429   1.204
 6257TIP3   OH218647   5.014   7.481   1.619
 6257TIP3    H118648   5.044   7.448   1.704
 6257TIP3    H218649   4.973   7.405   1.578
 6258TIP3   OH218650   4.315   7.377   1.988
 6258TIP3    H118651   4.345   7.309   2.048
 6258TIP3    H218652   4.393   7.430   1.970
 6259TIP3   OH218653   5.256   7.782   1.300
 6259TIP3    H118654   5.243   7.712   1.363
 6259TIP3    H218655   5.286   7.856   1.353
 6260TIP3   OH218656   4.287   7.783   1.713
 6260TIP3    H118657   4.275   7.688   1.714
 6260TIP3    H218658   4.381   7.796   1.701
 6261TIP3   OH218659   3.988   6.990   1.495
 6261TIP3    H118660   3.943   7.073   1.509
 6261TIP3    H218661   3.922   6.932   1.457
 6262TIP3   OH218662   4.053   7.275   1.666
 6262TIP3    H118663   4.099   7.199   1.702
 6262TIP3    H218664   4.108   7.304   1.593
 6263TIP3   OH218665   4.907   8.242   1.317
 6263TIP3    H118666   4.951   8.175   1.265
 6263TIP3    H218667   4.900   8.204   1.405
 6264TIP3   OH218668   4.816   7.705   1.668
 6264TIP3    H118669   4.847   7.629   1.619
 6264TIP3    H218670   4.896   7.752   1.692
 6265TIP3   OH218671   5.827   7.028   1.664
 6265TIP3    H118672   5.855   7.109   1.706
 6265TIP3    H218673   5.847   7.041   1.571
 6266TIP3   OH218674   5.224   7.206   1.700
 6266TIP3    H118675   5.267   7.123   1.721
 6266TIP3    H218676   5.194   7.195   1.610
 6267TIP3   OH218677   4.560   6.867   1.663
 6267TIP3    H118678   4.543   6.940   1.604
 6267TIP3    H218679   4.516   6.792   1.623
 6268TIP3   OH218680   5.259   6.960   1.289
 6268TIP3    H118681   5.328   6.943   1.352
 6268TIP3    H218682   5.305   6.993   1.212
 6269TIP3   OH218683   4.198   7.067   1.771
 6269TIP3    H118684   4.278   7.050   1.820
 6269TIP3    H218685   4.207   7.014   1.692
 6270TIP3   OH218686   4.637   7.265   1.567
 6270TIP3    H118687   4.730   7.243   1.578
 6270TIP3    H218688   4.598   7.184   1.533
 6271TIP3   OH218689   5.899   7.235   1.837
 6271TIP3    H118690   5.818   7.280   1.811
 6271TIP3    H218691   5.910   7.257   1.929
 6272TIP3   OH218692   4.557   6.852   2.100
 6272TIP3    H118693   4.500   6.886   2.031
 6272TIP3    H218694   4.509   6.868   2.181
 6273TIP3   OH218695   4.905   7.702   1.108
 6273TIP3    H118696   4.866   7.680   1.024
 6273TIP3    H218697   4.863   7.784   1.134
 6274TIP3   OH218698   4.667   7.627   1.895
 6274TIP3    H118699   4.605   7.690   1.933
 6274TIP3    H218700   4.708   7.674   1.823
 6275TIP3   OH218701   5.469   6.960   1.460
 6275TIP3    H118702   5.462   6.908   1.540
 6275TIP3    H218703   5.523   7.035   1.485
 6276TIP3   OH218704   4.433   6.966   1.883
 6276TIP3    H118705   4.492   7.037   1.908
 6276TIP3    H218706   4.477   6.923   1.809
 6277TIP3   OH218707   4.491   7.821   1.995
 6277TIP3    H118708   4.470   7.903   1.951
 6277TIP3    H218709   4.415   7.802   2.050
 6278TIP3   OH218710   3.888   7.510   1.228
 6278TIP3    H118711   3.849   7.534   1.144
 6278TIP3    H218712   3.919   7.593   1.264
 6279TIP3   OH218713   5.327   8.027   1.471
 6279TIP3    H118714   5.239   8.016   1.509
 6279TIP3    H218715   5.322   8.109   1.423
 6280TIP3   OH218716   5.618   6.929   1.831
 6280TIP3    H118717   5.531   6.954   1.800
 6280TIP3    H218718   5.677   6.958   1.761
 6281TIP3   OH218719   4.915   6.569   1.815
 6281TIP3    H118720   4.904   6.474   1.829
 6281TIP3    H218721   4.840   6.608   1.859
 6282TIP3   OH218722   5.033   8.072   1.140
 6282TIP3    H118723   5.077   7.988   1.123
 6282TIP3    H218724   5.091   8.138   1.103
 6283TIP3   OH218725   5.173   7.856   1.048
 6283TIP3    H118726   5.135   7.778   1.006
 6283TIP3    H218727   5.208   7.823   1.131
 6284TIP3   OH218728   5.554   7.938   1.811
 6284TIP3    H118729   5.544   7.861   1.754
 6284TIP3    H218730   5.537   8.013   1.753
 6285TIP3   OH218731   4.845   7.335   1.069
 6285TIP3    H118732   4.766   7.384   1.047
 6285TIP3    H218733   4.892   7.327   0.986
 6286TIP3   OH218734   4.805   7.117   0.787
 6286TIP3    H118735   4.871   7.168   0.835
 6286TIP3    H218736   4.855   7.051   0.740
 6287TIP3   OH218737   5.748   7.578   1.656
 6287TIP3    H118738   5.667   7.627   1.662
 6287TIP3    H218739   5.781   7.597   1.568
 6288TIP3   OH218740   5.193   7.415   1.045
 6288TIP3    H118741   5.139   7.440   1.119
 6288TIP3    H218742   5.277   7.389   1.084
 6289TIP3   OH218743   5.426   7.456   1.952
 6289TIP3    H118744   5.426   7.540   1.999
 6289TIP3    H218745   5.342   7.454   1.905
 6290TIP3   OH218746   4.424   7.411   1.458
 6290TIP3    H118747   4.381   7.357   1.393
 6290TIP3    H218748   4.500   7.360   1.486
 6291TIP3   OH218749   4.553   7.819   1.607
 6291TIP3    H118750   4.531   7.783   1.521
 6291TIP3    H218751   4.642   7.788   1.624
 6292TIP3   OH218752   4.561   7.384   1.813
 6292TIP3    H118753   4.591   7.360   1.725
 6292TIP3    H218754   4.604   7.468   1.831
 6293TIP3   OH218755   5.086   8.022   1.590
 6293TIP3    H118756   5.073   8.100   1.644
 6293TIP3    H218757   5.072   7.949   1.650
 6294TIP3   OH218758   4.696   7.941   2.137
 6294TIP3    H118759   4.639   8.003   2.182
 6294TIP3    H218760   4.636   7.886   2.086
 6295TIP3   OH218761   5.033   7.274   0.869
 6295TIP3    H118762   5.091   7.331   0.920
 6295TIP3    H218763   5.053   7.295   0.778
 6296TIP3   OH218764   4.453   7.498   2.240
 6296TIP3    H118765   4.458   7.583   2.283
 6296TIP3    H218766   4.360   7.476   2.242
 6297TIP3   OH218767   4.775   7.955   1.150
 6297TIP3    H118768   4.853   8.008   1.160
 6297TIP3    H218769   4.716   8.009   1.097
 6298TIP3   OH218770   4.492   8.110   2.222
 6298TIP3    H118771   4.461   8.109   2.132
 6298TIP3    H218772   4.414   8.088   2.274
 6299TIP3   OH218773   5.550   6.515   0.916
 6299TIP3    H118774   5.469   6.533   0.964
 6299TIP3    H218775   5.564   6.594   0.863
 6300TIP3   OH218776   4.287   7.256   1.267
 6300TIP3    H118777   4.227   7.301   1.207
 6300TIP3    H218778   4.253   7.167   1.273
 6301TIP3   OH218779   4.072   7.638   2.169
 6301TIP3    H118780   4.009   7.617   2.100
 6301TIP3    H218781   4.109   7.553   2.194
 6302TIP3   OH218782   3.928   7.831   1.806
 6302TIP3    H118783   4.022   7.822   1.790
 6302TIP3    H218784   3.920   7.912   1.857
 6303TIP3   OH218785   5.790   8.283   1.860
 6303TIP3    H118786   5.791   8.187   1.867
 6303TIP3    H218787   5.708   8.308   1.902
 6304TIP3   OH218788   4.897   8.069   1.996
 6304TIP3    H118789   4.898   8.161   2.024
 6304TIP3    H218790   4.827   8.029   2.046
 6305TIP3   OH218791   4.655   8.197   0.942
 6305TIP3    H118792   4.614   8.177   0.858
 6305TIP3    H218793   4.627   8.286   0.963
 6306TIP3   OH218794   4.094   8.046   1.331
 6306TIP3    H118795   4.144   8.039   1.412
 6306TIP3    H218796   4.038   7.968   1.330
 6307TIP3   OH218797   4.853   8.090   0.605
 6307TIP3    H118798   4.918   8.040   0.555
 6307TIP3    H218799   4.892   8.101   0.692
 6308TIP3   OH218800   4.911   8.146   0.868
 6308TIP3    H118801   4.821   8.154   0.900
 6308TIP3    H218802   4.958   8.103   0.939
 6309TIP3   OH218803   5.679   7.413   2.131
 6309TIP3    H118804   5.601   7.429   2.078
 6309TIP3    H218805   5.697   7.319   2.121
 6310TIP3   OH218806   4.276   7.822   2.162
 6310TIP3    H118807   4.328   7.803   2.241
 6310TIP3    H218808   4.204   7.759   2.166
 6311TIP3   OH218809   4.674   6.646   1.941
 6311TIP3    H118810   4.589   6.612   1.914
 6311TIP3    H218811   4.654   6.728   1.986
 6312TIP3   OH218812   5.210   6.761   2.138
 6312TIP3    H118813   5.277   6.732   2.200
 6312TIP3    H218814   5.127   6.740   2.181
 6313TIP3   OH218815   5.451   7.191   2.057
 6313TIP3    H118816   5.402   7.187   2.139
 6313TIP3    H218817   5.426   7.275   2.018
 6314TIP3   OH218818   5.098   7.321   0.613
 6314TIP3    H118819   5.071   7.285   0.529
 6314TIP3    H218820   5.183   7.362   0.595
 6315TIP3   OH218821   4.822   6.704   0.907
 6315TIP3    H118822   4.778   6.680   0.988
 6315TIP3    H218823   4.815   6.626   0.852
 6316TIP3   OH218824   4.608   7.163   1.962
 6316TIP3    H118825   4.558   7.181   2.041
 6316TIP3    H218826   4.594   7.240   1.907
 6317TIP3   OH218827   4.491   7.046   1.473
 6317TIP3    H118828   4.401   7.022   1.492
 6317TIP3    H218829   4.508   7.009   1.387
 6318TIP3   OH218830   4.983   7.134   1.201
 6318TIP3    H118831   4.930   7.203   1.161
 6318TIP3    H218832   5.038   7.102   1.130
 6319TIP3   OH218833   5.159   7.412   2.294
 6319TIP3    H118834   5.134   7.340   2.351
 6319TIP3    H218835   5.253   7.424   2.309
 6320TIP3   OH218836   5.139   7.161   1.438
 6320TIP3    H118837   5.080   7.194   1.370
 6320TIP3    H218838   5.176   7.080   1.401
 6321TIP3   OH218839   4.428   7.190   2.171
 6321TIP3    H118840   4.456   7.253   2.237
 6321TIP3    H218841   4.416   7.108   2.219
 6322TIP3   OH218842   4.488   6.676   0.885
 6322TIP3    H118843   4.480   6.660   0.979
 6322TIP3    H218844   4.403   6.714   0.860
 6323TIP3   OH218845   4.022   6.713   1.751
 6323TIP3    H118846   4.097   6.744   1.802
 6323TIP3    H218847   4.060   6.680   1.670
 6324TIP3   OH218848   3.994   6.695   1.269
 6324TIP3    H118849   4.041   6.728   1.192
 6324TIP3    H218850   3.933   6.765   1.293
 6325TIP3   OH218851   5.154   7.405   1.867
 6325TIP3    H118852   5.185   7.337   1.806
 6325TIP3    H218853   5.122   7.356   1.942
 6326TIP3   OH218854   4.820   6.870   1.539
 6326TIP3    H118855   4.738   6.867   1.588
 6326TIP3    H218856   4.888   6.869   1.607
 6327TIP3   OH218857   4.253   6.923   1.545
 6327TIP3    H118858   4.161   6.931   1.518
 6327TIP3    H218859   4.278   6.834   1.521
 6328TIP3   OH218860   4.524   6.924   1.231
 6328TIP3    H118861   4.617   6.934   1.210
 6328TIP3    H218862   4.479   6.945   1.148
 6329TIP3   OH218863   5.310   6.944   1.742
 6329TIP3    H118864   5.275   6.958   1.830
 6329TIP3    H218865   5.249   6.883   1.700
 6330TIP3   OH218866   4.361   6.956   1.009
 6330TIP3    H118867   4.292   6.910   0.961
 6330TIP3    H218868   4.417   6.991   0.940
 6331TIP3   OH218869   5.482   8.635   1.955
 6331TIP3    H118870   5.477   8.653   1.861
 6331TIP3    H218871   5.559   8.684   1.984
 6332TIP3   OH218872   4.438   7.745   2.382
 6332TIP3    H118873   4.519   7.774   2.425
 6332TIP3    H218874   4.373   7.743   2.452
 6333TIP3   OH218875   4.904   7.196   1.634
 6333TIP3    H118876   4.973   7.159   1.580
 6333TIP3    H218877   4.915   7.154   1.720
 6334TIP3   OH218878   4.428   6.684   1.511
 6334TIP3    H118879   4.395   6.606   1.555
 6334TIP3    H218880   4.475   6.651   1.434
 6335TIP3   OH218881   4.879   7.092   1.926
 6335TIP3    H118882   4.791   7.128   1.937
 6335TIP3    H218883   4.936   7.153   1.974
 6336TIP3   OH218884   4.614   7.485   1.020
 6336TIP3    H118885   4.544   7.421   1.007
 6336TIP3    H218886   4.599   7.519   1.108
 6337TIP3   OH218887   5.516   7.721   1.647
 6337TIP3    H118888   5.542   7.769   1.568
 6337TIP3    H218889   5.433   7.679   1.624
 6338TIP3   OH218890   5.074   6.799   0.881
 6338TIP3    H118891   4.980   6.781   0.886
 6338TIP3    H218892   5.082   6.892   0.902
 6339TIP3   OH218893   5.018   7.804   2.016
 6339TIP3    H118894   5.035   7.780   2.107
 6339TIP3    H218895   4.978   7.891   2.021
 6340TIP3   OH218896   5.145   7.047   0.988
 6340TIP3    H118897   5.240   7.050   0.998
 6340TIP3    H218898   5.125   7.122   0.932
 6341TIP3   OH218899   4.309   7.505   1.694
 6341TIP3    H118900   4.344   7.481   1.608
 6341TIP3    H218901   4.348   7.443   1.755
 6342TIP3   OH218902   4.761   7.636   0.841
 6342TIP3    H118903   4.719   7.722   0.847
 6342TIP3    H218904   4.708   7.580   0.898
 6343TIP3   OH218905   4.186   7.428   2.309
 6343TIP3    H118906   4.208   7.413   2.401
 6343TIP3    H218907   4.120   7.362   2.289
 6344TIP3   OH218908   4.914   7.539   2.326
 6344TIP3    H118909   4.853   7.484   2.278
 6344TIP3    H218910   5.001   7.508   2.300
 6345TIP3   OH218911   5.177   8.064   1.914
 6345TIP3    H118912   5.081   8.059   1.921
 6345TIP3    H218913   5.204   8.117   1.989
 6346TIP3   OH218914   5.583   7.133   0.819
 6346TIP3    H118915   5.525   7.086   0.758
 6346TIP3    H218916   5.585   7.222   0.785
 6347TIP3   OH218917   5.804   7.992   1.898
 6347TIP3    H118918   5.708   7.987   1.893
 6347TIP3    H218919   5.833   7.962   1.812
 6348TIP3   OH218920   5.292   7.949   0.721
 6348TIP3    H118921   5.259   7.895   0.793
 6348TIP3    H218922   5.297   7.888   0.646
 6349TIP3   OH218923   5.281   7.580   1.569
 6349TIP3    H118924   5.189   7.558   1.581
 6349TIP3    H218925   5.318   7.504   1.523
 6350TIP3   OH218926   4.409   7.813   1.323
 6350TIP3    H118927   4.415   7.891   1.267
 6350TIP3    H218928   4.315   7.792   1.324
 6351TIP3   OH218929   3.971   7.117   1.022
 6351TIP3    H118930   4.020   7.197   1.040
 6351TIP3    H218931   3.896   7.120   1.081
 6352TIP3   OH218932   4.548   7.578   1.267
 6352TIP3    H118933   4.516   7.667   1.282
 6352TIP3    H218934   4.512   7.527   1.339
 6353TIP3   OH218935   4.680   8.156   1.789
 6353TIP3    H118936   4.716   8.227   1.736
 6353TIP3    H218937   4.755   8.119   1.835
 6354TIP3   OH218938   4.330   8.051   1.175
 6354TIP3    H118939   4.244   8.058   1.217
 6354TIP3    H218940   4.363   8.141   1.174
 6355TIP3   OH218941   5.069   7.788   1.748
 6355TIP3    H118942   5.060   7.786   1.843
 6355TIP3    H218943   5.146   7.734   1.729
 6356TIP3   OH218944   5.017   7.681   0.653
 6356TIP3    H118945   5.074   7.655   0.725
 6356TIP3    H218946   4.929   7.654   0.681
 6357TIP3   OH218947   5.313   8.326   1.797
 6357TIP3    H118948   5.238   8.268   1.790
 6357TIP3    H218949   5.302   8.389   1.726
 6358TIP3   OH218950   4.400   6.934   2.318
 6358TIP3    H118951   4.304   6.937   2.327
 6358TIP3    H218952   4.428   6.871   2.385
 6359TIP3   OH218953   5.201   7.615   0.851
 6359TIP3    H118954   5.188   7.549   0.919
 6359TIP3    H218955   5.295   7.614   0.834
 6360TIP3   OH218956   4.117   8.018   1.950
 6360TIP3    H118957   4.166   7.940   1.974
 6360TIP3    H218958   4.150   8.087   2.009
 6361TIP3   OH218959   4.404   7.660   0.630
 6361TIP3    H118960   4.422   7.572   0.597
 6361TIP3    H218961   4.385   7.647   0.723
 6362TIP3   OH218962   4.353   7.668   0.907
 6362TIP3    H118963   4.429   7.641   0.959
 6362TIP3    H218964   4.356   7.763   0.907
 6363TIP3   OH218965   4.088   7.362   1.104
 6363TIP3    H118966   4.024   7.405   1.161
 6363TIP3    H218967   4.107   7.427   1.036
 6364TIP3   OH218968   5.235   7.000   2.002
 6364TIP3    H118969   5.318   7.033   2.034
 6364TIP3    H218970   5.221   6.919   2.051
 6365TIP3   OH218971   5.114   6.751   1.160
 6365TIP3    H118972   5.099   6.768   1.067
 6365TIP3    H218973   5.153   6.832   1.193
 6366TIP3   OH218974   4.622   7.866   0.860
 6366TIP3    H118975   4.536   7.899   0.888
 6366TIP3    H218976   4.629   7.893   0.768
 6367TIP3   OH218977   4.808   6.927   1.265
 6367TIP3    H118978   4.871   6.996   1.243
 6367TIP3    H218979   4.812   6.920   1.360
 6368TIP3   OH218980   5.076   7.247   2.073
 6368TIP3    H118981   5.097   7.298   2.151
 6368TIP3    H218982   5.129   7.168   2.082
 6369TIP3   OH218983   4.954   6.658   1.367
 6369TIP3    H118984   4.941   6.735   1.423
 6369TIP3    H218985   5.011   6.690   1.297
 6370TIP3   OH218986   4.360   7.942   0.915
 6370TIP3    H118987   4.332   8.008   0.852
 6370TIP3    H218988   4.347   7.984   1.001
 6371TIP3   OH218989   4.463   6.652   1.162
 6371TIP3    H118990   4.458   6.743   1.191
 6371TIP3    H218991   4.556   6.631   1.166
 6372TIP3   OH218992   5.717   7.146   2.050
 6372TIP3    H118993   5.622   7.147   2.062
 6372TIP3    H218994   5.730   7.105   1.965
 6373TIP3   OH218995   5.367   7.340   1.443
 6373TIP3    H118996   5.292   7.282   1.451
 6373TIP3    H218997   5.438   7.294   1.487
 6374TIP3   OH218998   4.082   7.570   0.908
 6374TIP3    H118999   4.145   7.642   0.920
 6374TIP3    H219000   4.122   7.514   0.842
 6375TIP3   OH219001   4.022   6.846   1.046
 6375TIP3    H119002   4.027   6.942   1.040
 6375TIP3    H219003   3.942   6.823   0.998
 6376TIP3   OH219004   5.336   8.299   1.389
 6376TIP3    H119005   5.290   8.343   1.318
 6376TIP3    H219006   5.429   8.315   1.372
 6377TIP3   OH219007   4.410   6.564   1.918
 6377TIP3    H119008   4.381   6.534   1.832
 6377TIP3    H219009   4.402   6.488   1.975
 6378TIP3   OH219010   3.952   7.788   1.300
 6378TIP3    H119011   3.877   7.816   1.351
 6378TIP3    H219012   3.935   7.822   1.212
 6379TIP3   OH219013   4.108   8.322   2.373
 6379TIP3    H119014   4.193   8.323   2.416
 6379TIP3    H219015   4.085   8.230   2.366
 6380TIP3   OH219016   4.591   8.288   2.414
 6380TIP3    H119017   4.685   8.271   2.420
 6380TIP3    H219018   4.562   8.234   2.341
 6381TIP3   OH219019   4.585   7.861   0.575
 6381TIP3    H119020   4.520   7.793   0.588
 6381TIP3    H219021   4.623   7.841   0.489
 6382TIP3   OH219022   5.225   8.199   2.151
 6382TIP3    H119023   5.218   8.128   2.215
 6382TIP3    H219024   5.304   8.247   2.177
 6383TIP3   OH219025   4.236   7.729   2.570
 6383TIP3    H119026   4.256   7.636   2.573
 6383TIP3    H219027   4.152   7.735   2.526
 6384TIP3   OH219028   4.217   7.382   0.761
 6384TIP3    H119029   4.269   7.349   0.833
 6384TIP3    H219030   4.280   7.393   0.689
 6385TIP3   OH219031   4.845   7.815   2.342
 6385TIP3    H119032   4.804   7.832   2.257
 6385TIP3    H219033   4.876   7.724   2.335
 6386TIP3   OH219034   4.724   7.568   0.573
 6386TIP3    H119035   4.722   7.589   0.666
 6386TIP3    H219036   4.721   7.472   0.571
 6387TIP3   OH219037   5.340   7.826   1.951
 6387TIP3    H119038   5.414   7.867   1.905
 6387TIP3    H219039   5.267   7.887   1.937
 6388TIP3   OH219040   4.357   7.466   2.553
 6388TIP3    H119041   4.430   7.409   2.527
 6388TIP3    H219042   4.382   7.498   2.639
 6389TIP3   OH219043   4.424   7.284   0.987
 6389TIP3    H119044   4.399   7.240   1.068
 6389TIP3    H219045   4.461   7.214   0.932
 6390TIP3   OH219046   4.692   7.353   2.213
 6390TIP3    H119047   4.615   7.409   2.216
 6390TIP3    H219048   4.741   7.383   2.136
 6391TIP3   OH219049   4.525   7.080   0.827
 6391TIP3    H119050   4.496   7.080   0.736
 6391TIP3    H219051   4.620   7.084   0.822
 6392TIP3   OH219052   5.212   7.753   2.349
 6392TIP3    H119053   5.287   7.728   2.295
 6392TIP3    H219054   5.207   7.684   2.416
 6393TIP3   OH219055   5.340   7.422   0.526
 6393TIP3    H119056   5.374   7.395   0.440
 6393TIP3    H219057   5.316   7.513   0.514
 6394TIP3   OH219058   4.814   7.138   2.338
 6394TIP3    H119059   4.816   7.059   2.285
 6394TIP3    H219060   4.772   7.204   2.283
 6395TIP3   OH219061   4.817   6.925   2.146
 6395TIP3    H119062   4.846   6.966   2.064
 6395TIP3    H219063   4.726   6.902   2.130
 6396TIP3   OH219064   4.847   7.464   2.020
 6396TIP3    H119065   4.929   7.468   1.971
 6396TIP3    H219066   4.790   7.528   1.977
 6397TIP3   OH219067   5.431   7.428   2.403
 6397TIP3    H119068   5.474   7.343   2.408
 6397TIP3    H219069   5.497   7.486   2.364
 6398TIP3   OH219070   5.469   7.684   2.138
 6398TIP3    H119071   5.410   7.734   2.082
 6398TIP3    H219072   5.556   7.700   2.101
 6399TIP3   OH219073   4.692   7.250   2.569
 6399TIP3    H119074   4.625   7.183   2.584
 6399TIP3    H219075   4.728   7.229   2.483
 6400TIP3   OH219076   4.949   6.690   2.212
 6400TIP3    H119077   4.902   6.771   2.190
 6400TIP3    H219078   4.883   6.621   2.201
 6401TIP3   OH219079   5.073   7.193   2.431
 6401TIP3    H119080   5.065   7.182   2.526
 6401TIP3    H219081   4.987   7.169   2.396
 6402TIP3   OH219082   5.317   7.146   2.289
 6402TIP3    H119083   5.241   7.144   2.346
 6402TIP3    H219084   5.389   7.113   2.342
 6403TIP3   OH219085   5.548   7.083   2.438
 6403TIP3    H119086   5.559   6.989   2.454
 6403TIP3    H219087   5.543   7.121   2.526
 6404TIP3   OH219088   4.534   7.030   2.624
 6404TIP3    H119089   4.537   6.943   2.585
 6404TIP3    H219090   4.570   7.019   2.712
 6405TIP3   OH219091   5.046   6.698   2.468
 6405TIP3    H119092   5.112   6.628   2.466
 6405TIP3    H219093   5.005   6.694   2.382
 6406TIP3   OH219094   5.110   6.913   2.628
 6406TIP3    H119095   5.090   6.843   2.566
 6406TIP3    H219096   5.034   6.972   2.622
 6407TIP3   OH219097   4.328   8.142   0.725
 6407TIP3    H119098   4.422   8.142   0.710
 6407TIP3    H219099   4.290   8.177   0.645
 6408TIP3   OH219100   3.814   7.522   0.948
 6408TIP3    H119101   3.905   7.547   0.934
 6408TIP3    H219102   3.806   7.435   0.907
 6409TIP3   OH219103   3.722   8.134   1.361
 6409TIP3    H119104   3.657   8.074   1.324
 6409TIP3    H219105   3.769   8.081   1.426
 6410TIP3   OH219106   3.860   7.991   1.549
 6410TIP3    H119107   3.850   7.913   1.604
 6410TIP3    H219108   3.913   8.051   1.602
 6411TIP3   OH219109   5.587   8.392   1.348
 6411TIP3    H119110   5.623   8.428   1.429
 6411TIP3    H219111   5.648   8.421   1.280
 6412TIP3   OH219112   5.618   8.409   1.635
 6412TIP3    H119113   5.572   8.326   1.620
 6412TIP3    H219114   5.698   8.384   1.681
 6413TIP3   OH219115   5.667   8.088   2.204
 6413TIP3    H119116   5.592   8.092   2.264
 6413TIP3    H219117   5.706   8.175   2.208
 6414TIP3   OH219118   5.479   7.599   0.830
 6414TIP3    H119119   5.549   7.656   0.799
 6414TIP3    H219120   5.515   7.556   0.908
 6415TIP3   OH219121   5.608   7.465   1.027
 6415TIP3    H119122   5.545   7.423   1.085
 6415TIP3    H219123   5.674   7.501   1.086
 6416TIP3   OH219124   5.663   7.855   1.457
 6416TIP3    H119125   5.713   7.791   1.407
 6416TIP3    H219126   5.659   7.932   1.400
 6417TIP3   OH219127   5.493   8.158   1.653
 6417TIP3    H119128   5.422   8.200   1.702
 6417TIP3    H219129   5.449   8.110   1.583
 6418TIP3   OH219130   5.545   7.372   0.691
 6418TIP3    H119131   5.470   7.367   0.632
 6418TIP3    H219132   5.528   7.449   0.746
 6419TIP3   OH219133   5.415   7.053   0.617
 6419TIP3    H119134   5.363   7.076   0.540
 6419TIP3    H219135   5.396   6.960   0.632
 6420TIP3   OH219136   5.422   7.320   1.174
 6420TIP3    H119137   5.430   7.226   1.164
 6420TIP3    H219138   5.409   7.334   1.268
 6421TIP3   OH219139   4.051   7.394   1.917
 6421TIP3    H119140   4.046   7.365   1.826
 6421TIP3    H219141   4.145   7.397   1.936
 6422TIP3   OH219142   5.713   7.746   2.029
 6422TIP3    H119143   5.783   7.681   2.020
 6422TIP3    H219144   5.734   7.813   1.964
 6423TIP3   OH219145   5.897   7.550   2.051
 6423TIP3    H119146   5.821   7.503   2.086
 6423TIP3    H219147   5.970   7.489   2.062
 6424TIP3   OH219148   5.350   6.795   0.636
 6424TIP3    H119149   5.429   6.749   0.665
 6424TIP3    H219150   5.280   6.730   0.646
 6425TIP3   OH219151   5.423   7.037   1.066
 6425TIP3    H119152   5.459   6.950   1.084
 6425TIP3    H219153   5.477   7.071   0.995
 6426TIP3   OH219154   5.584   7.214   1.563
 6426TIP3    H119155   5.666   7.238   1.520
 6426TIP3    H219156   5.593   7.248   1.652
 6427TIP3   OH219157   5.649   7.358   1.795
 6427TIP3    H119158   5.571   7.389   1.841
 6427TIP3    H219159   5.682   7.435   1.748
 6428TIP3   OH219160   4.268   7.082   2.599
 6428TIP3    H119161   4.364   7.076   2.595
 6428TIP3    H219162   4.241   6.998   2.635
 6429TIP3   OH219163   6.103   6.948   2.348
 6429TIP3    H119164   6.159   6.882   2.308
 6429TIP3    H219165   6.073   7.002   2.275
 6430TIP3   OH219166   5.526   6.786   1.108
 6430TIP3    H119167   5.575   6.771   1.188
 6430TIP3    H219168   5.466   6.712   1.102
 6431TIP3   OH219169   4.230   6.774   1.927
 6431TIP3    H119170   4.287   6.699   1.934
 6431TIP3    H219171   4.289   6.849   1.918
 6432TIP3   OH219172   4.032   7.050   1.996
 6432TIP3    H119173   4.078   7.038   1.913
 6432TIP3    H219174   4.061   7.136   2.027
 6433TIP3   OH219175   5.969   7.086   2.155
 6433TIP3    H119176   5.885   7.127   2.174
 6433TIP3    H219177   5.948   7.014   2.096
 6434TIP3   OH219178   5.619   6.719   0.739
 6434TIP3    H119179   5.659   6.650   0.686
 6434TIP3    H219180   5.676   6.795   0.727
 6435TIP3   OH219181   4.012   6.555   1.500
 6435TIP3    H119182   3.920   6.549   1.524
 6435TIP3    H219183   4.013   6.610   1.421
 6436TIP3   OH219184   5.181   8.253   1.007
 6436TIP3    H119185   5.223   8.236   0.922
 6436TIP3    H219186   5.232   8.324   1.046
 6437TIP3   OH219187   4.233   6.636   2.315
 6437TIP3    H119188   4.183   6.625   2.396
 6437TIP3    H219189   4.169   6.670   2.252
 6438TIP3   OH219190   4.272   8.060   2.391
 6438TIP3    H119191   4.184   8.030   2.370
 6438TIP3    H219192   4.283   8.038   2.484
 6439TIP3   OH219193   4.452   8.094   1.935
 6439TIP3    H119194   4.402   8.166   1.898
 6439TIP3    H219195   4.538   8.102   1.894
 6440TIP3   OH219196   4.900   8.336   2.078
 6440TIP3    H119197   4.941   8.338   2.164
 6440TIP3    H219198   4.961   8.384   2.022
 6441TIP3   OH219199   5.077   8.486   1.934
 6441TIP3    H119200   5.143   8.437   1.887
 6441TIP3    H219201   5.127   8.543   1.993
 6442TIP3   OH219202   5.869   6.847   2.033
 6442TIP3    H119203   5.779   6.845   1.999
 6442TIP3    H219204   5.901   6.757   2.022
 6443TIP3   OH219205   4.126   8.349   1.961
 6443TIP3    H119206   4.041   8.382   1.933
 6443TIP3    H219207   4.136   8.381   2.050
 6444TIP3   OH219208   4.363   8.327   1.817
 6444TIP3    H119209   4.279   8.340   1.862
 6444TIP3    H219210   4.348   8.359   1.728
 6445TIP3   OH219211   4.789   8.356   1.616
 6445TIP3    H119212   4.724   8.373   1.548
 6445TIP3    H219213   4.803   8.442   1.657
 6446TIP3   OH219214   5.058   8.298   1.669
 6446TIP3    H119215   4.965   8.311   1.649
 6446TIP3    H219216   5.103   8.368   1.621
 6447TIP3   OH219217   5.270   8.489   1.580
 6447TIP3    H119218   5.253   8.572   1.535
 6447TIP3    H219219   5.294   8.428   1.510
 6448TIP3   OH219220   4.041   8.139   1.708
 6448TIP3    H119221   4.065   8.117   1.798
 6448TIP3    H219222   4.109   8.099   1.654
 6449TIP3   OH219223   4.234   8.013   1.564
 6449TIP3    H119224   4.249   7.930   1.609
 6449TIP3    H219225   4.321   8.051   1.555
 6450TIP3   OH219226   4.499   8.107   1.566
 6450TIP3    H119227   4.530   8.019   1.546
 6450TIP3    H219228   4.542   8.129   1.649
 6451TIP3   OH219229   5.077   6.764   1.656
 6451TIP3    H119230   5.032   6.696   1.706
 6451TIP3    H219231   5.144   6.718   1.606
 6452TIP3   OH219232   5.599   6.649   1.560
 6452TIP3    H119233   5.636   6.696   1.486
 6452TIP3    H219234   5.505   6.661   1.552
 6453TIP3   OH219235   5.697   6.745   1.323
 6453TIP3    H119236   5.765   6.692   1.282
 6453TIP3    H219237   5.725   6.836   1.308
 6454TIP3   OH219238   4.323   6.470   1.670
 6454TIP3    H119239   4.232   6.441   1.671
 6454TIP3    H219240   4.374   6.389   1.666
 6455TIP3   OH219241   4.108   6.344   1.315
 6455TIP3    H119242   4.141   6.398   1.243
 6455TIP3    H219243   4.082   6.407   1.382
 6456TIP3   OH219244   4.768   6.506   1.550
 6456TIP3    H119245   4.824   6.553   1.488
 6456TIP3    H219246   4.790   6.543   1.636
 6457TIP3   OH219247   5.318   6.650   1.533
 6457TIP3    H119248   5.310   6.619   1.443
 6457TIP3    H219249   5.302   6.572   1.586
 6458TIP3   OH219250   5.344   6.573   1.098
 6458TIP3    H119251   5.258   6.615   1.098
 6458TIP3    H219252   5.330   6.489   1.142
 6459TIP3   OH219253   3.824   7.914   1.099
 6459TIP3    H119254   3.743   7.877   1.064
 6459TIP3    H219255   3.818   8.008   1.080
 6460TIP3   OH219256   4.230   6.501   1.080
 6460TIP3    H119257   4.276   6.439   1.023
 6460TIP3    H219258   4.300   6.555   1.117
 6461TIP3   OH219259   4.738   6.675   1.184
 6461TIP3    H119260   4.801   6.627   1.238
 6461TIP3    H219261   4.760   6.767   1.198
 6462TIP3   OH219262   4.596   8.117   0.669
 6462TIP3    H119263   4.686   8.135   0.643
 6462TIP3    H219264   4.576   8.032   0.628
 6463TIP3   OH219265   5.317   8.216   0.767
 6463TIP3    H119266   5.307   8.122   0.755
 6463TIP3    H219267   5.273   8.255   0.692
 6464TIP3   OH219268   4.533   6.755   2.564
 6464TIP3    H119269   4.497   6.683   2.617
 6464TIP3    H219270   4.626   6.757   2.587
 6465TIP3   OH219271   4.783   6.751   2.681
 6465TIP3    H119272   4.865   6.726   2.638
 6465TIP3    H219273   4.768   6.683   2.747
 6466TIP3   OH219274   3.905   7.932   0.739
 6466TIP3    H119275   3.910   7.964   0.829
 6466TIP3    H219276   3.991   7.893   0.722
 6467TIP3   OH219277   5.608   6.811   2.468
 6467TIP3    H119278   5.624   6.780   2.557
 6467TIP3    H219279   5.693   6.807   2.425
 6468TIP3   OH219280   5.541   8.366   1.962
 6468TIP3    H119281   5.468   8.330   1.910
 6468TIP3    H219282   5.526   8.460   1.963
 6469TIP3   OH219283   6.811   7.733   1.100
 6469TIP3    H119284   6.836   7.699   1.186
 6469TIP3    H219285   6.764   7.661   1.059
 6470TIP3   OH219286   6.111   7.635   1.478
 6470TIP3    H119287   6.146   7.567   1.536
 6470TIP3    H219288   6.187   7.686   1.453
 6471TIP3   OH219289   6.086   8.036   1.211
 6471TIP3    H119290   6.074   7.941   1.210
 6471TIP3    H219291   6.176   8.049   1.182
 6472TIP3   OH219292   5.785   7.246   0.982
 6472TIP3    H119293   5.740   7.329   0.995
 6472TIP3    H219294   5.718   7.189   0.944
 6473TIP3   OH219295   5.850   7.532   1.150
 6473TIP3    H119296   5.896   7.457   1.186
 6473TIP3    H219297   5.910   7.569   1.086
 6474TIP3   OH219298   6.613   7.961   1.168
 6474TIP3    H119299   6.628   7.894   1.101
 6474TIP3    H219300   6.697   8.003   1.179
 6475TIP3   OH219301   7.625   7.280   1.157
 6475TIP3    H119302   7.652   7.359   1.203
 6475TIP3    H219303   7.658   7.292   1.068
 6476TIP3   OH219304   7.020   7.461   1.196
 6476TIP3    H119305   7.060   7.375   1.205
 6476TIP3    H219306   6.995   7.467   1.104
 6477TIP3   OH219307   6.359   7.123   1.151
 6477TIP3    H119308   6.341   7.196   1.091
 6477TIP3    H219309   6.314   7.048   1.111
 6478TIP3   OH219310   7.009   7.198   0.846
 6478TIP3    H119311   7.083   7.174   0.903
 6478TIP3    H219312   7.049   7.212   0.760
 6479TIP3   OH219313   5.994   7.323   1.259
 6479TIP3    H119314   6.075   7.306   1.307
 6479TIP3    H219315   6.001   7.272   1.179
 6480TIP3   OH219316   6.440   7.522   1.056
 6480TIP3    H119317   6.530   7.494   1.068
 6480TIP3    H219318   6.395   7.446   1.019
 6481TIP3   OH219319   7.692   7.491   1.320
 6481TIP3    H119320   7.607   7.533   1.308
 6481TIP3    H219321   7.714   7.508   1.412
 6482TIP3   OH219322   6.354   7.109   1.588
 6482TIP3    H119323   6.297   7.143   1.518
 6482TIP3    H219324   6.304   7.125   1.668
 6483TIP3   OH219325   6.463   7.884   1.386
 6483TIP3    H119326   6.399   7.947   1.419
 6483TIP3    H219327   6.501   7.926   1.309
 6484TIP3   OH219328   7.268   7.228   0.967
 6484TIP3    H119329   7.267   7.167   1.042
 6484TIP3    H219330   7.314   7.305   1.000
 6485TIP3   OH219331   6.230   7.223   1.370
 6485TIP3    H119332   6.289   7.294   1.393
 6485TIP3    H219333   6.272   7.180   1.295
 6486TIP3   OH219334   6.289   8.076   1.486
 6486TIP3    H119335   6.265   8.148   1.428
 6486TIP3    H219336   6.211   8.061   1.540
 6487TIP3   OH219337   5.678   7.758   0.732
 6487TIP3    H119338   5.629   7.796   0.659
 6487TIP3    H219339   5.702   7.833   0.786
 6488TIP3   OH219340   7.137   8.307   0.970
 6488TIP3    H119341   7.054   8.276   1.006
 6488TIP3    H219342   7.120   8.320   0.876
 6489TIP3   OH219343   7.410   7.191   1.322
 6489TIP3    H119344   7.322   7.205   1.288
 6489TIP3    H219345   7.468   7.214   1.249
 6490TIP3   OH219346   6.713   6.826   1.304
 6490TIP3    H119347   6.699   6.732   1.314
 6490TIP3    H219348   6.637   6.866   1.347
 6491TIP3   OH219349   7.503   7.872   1.150
 6491TIP3    H119350   7.420   7.878   1.101
 6491TIP3    H219351   7.566   7.840   1.086
 6492TIP3   OH219352   7.224   7.728   1.431
 6492TIP3    H119353   7.192   7.793   1.494
 6492TIP3    H219354   7.148   7.710   1.375
 6493TIP3   OH219355   6.197   7.645   0.968
 6493TIP3    H119356   6.170   7.610   0.883
 6493TIP3    H219357   6.291   7.629   0.972
 6494TIP3   OH219358   6.340   8.063   1.107
 6494TIP3    H119359   6.327   8.057   1.013
 6494TIP3    H219360   6.431   8.039   1.121
 6495TIP3   OH219361   6.360   7.640   1.301
 6495TIP3    H119362   6.384   7.618   1.210
 6495TIP3    H219363   6.398   7.726   1.315
 6496TIP3   OH219364   6.889   8.274   1.073
 6496TIP3    H119365   6.865   8.352   1.122
 6496TIP3    H219366   6.871   8.201   1.133
 6497TIP3   OH219367   6.492   8.196   1.626
 6497TIP3    H119368   6.435   8.260   1.668
 6497TIP3    H219369   6.433   8.142   1.573
 6498TIP3   OH219370   6.250   7.751   1.730
 6498TIP3    H119371   6.255   7.838   1.770
 6498TIP3    H219372   6.156   7.732   1.726
 6499TIP3   OH219373   6.289   8.369   1.709
 6499TIP3    H119374   6.260   8.367   1.618
 6499TIP3    H219375   6.211   8.344   1.760
 6500TIP3   OH219376   6.085   7.500   0.755
 6500TIP3    H119377   6.034   7.553   0.694
 6500TIP3    H219378   6.024   7.433   0.786
 6501TIP3   OH219379   5.868   7.895   1.656
 6501TIP3    H119380   5.806   7.877   1.586
 6501TIP3    H219381   5.905   7.809   1.678
 6502TIP3   OH219382   5.726   8.082   1.299
 6502TIP3    H119383   5.818   8.077   1.275
 6502TIP3    H219384   5.717   8.168   1.342
 6503TIP3   OH219385   7.578   8.541   1.343
 6503TIP3    H119386   7.551   8.452   1.323
 6503TIP3    H219387   7.504   8.579   1.391
 6504TIP3   OH219388   6.697   8.321   1.485
 6504TIP3    H119389   6.696   8.414   1.510
 6504TIP3    H219390   6.623   8.283   1.532
 6505TIP3   OH219391   5.882   8.300   0.815
 6505TIP3    H119392   5.954   8.301   0.878
 6505TIP3    H219393   5.830   8.224   0.841
 6506TIP3   OH219394   7.466   7.673   1.606
 6506TIP3    H119395   7.381   7.663   1.564
 6506TIP3    H219396   7.499   7.584   1.617
 6507TIP3   OH219397   6.072   8.079   1.651
 6507TIP3    H119398   6.124   8.057   1.729
 6507TIP3    H219399   6.000   8.017   1.652
 6508TIP3   OH219400   6.471   6.903   1.428
 6508TIP3    H119401   6.386   6.869   1.401
 6508TIP3    H219402   6.451   6.985   1.472
 6509TIP3   OH219403   7.006   7.018   1.625
 6509TIP3    H119404   7.073   6.989   1.687
 6509TIP3    H219405   6.923   6.997   1.667
 6510TIP3   OH219406   7.251   7.459   1.550
 6510TIP3    H119407   7.202   7.442   1.630
 6510TIP3    H219408   7.199   7.524   1.503
 6511TIP3   OH219409   6.407   7.419   1.449
 6511TIP3    H119410   6.355   7.437   1.528
 6511TIP3    H219411   6.393   7.496   1.393
 6512TIP3   OH219412   6.292   7.298   0.958
 6512TIP3    H119413   6.200   7.284   0.979
 6512TIP3    H219414   6.302   7.264   0.869
 6513TIP3   OH219415   6.958   7.668   1.780
 6513TIP3    H119416   6.929   7.598   1.837
 6513TIP3    H219417   7.051   7.679   1.800
 6514TIP3   OH219418   6.926   7.443   0.935
 6514TIP3    H119419   6.904   7.491   0.855
 6514TIP3    H219420   6.945   7.354   0.906
 6515TIP3   OH219421   6.228   7.447   1.658
 6515TIP3    H119422   6.246   7.512   1.725
 6515TIP3    H219423   6.213   7.365   1.706
 6516TIP3   OH219424   5.816   6.970   1.241
 6516TIP3    H119425   5.894   6.999   1.287
 6516TIP3    H219426   5.848   6.939   1.156
 6517TIP3   OH219427   5.794   6.956   0.759
 6517TIP3    H119428   5.840   6.989   0.681
 6517TIP3    H219429   5.730   7.025   0.779
 6518TIP3   OH219430   6.966   7.662   1.364
 6518TIP3    H119431   6.987   7.596   1.298
 6518TIP3    H219432   6.922   7.613   1.433
 6519TIP3   OH219433   6.620   7.115   1.033
 6519TIP3    H119434   6.535   7.119   1.077
 6519TIP3    H219435   6.684   7.127   1.103
 6520TIP3   OH219436   6.048   7.180   1.032
 6520TIP3    H119437   5.956   7.189   1.005
 6520TIP3    H219438   6.072   7.091   1.007
 6521TIP3   OH219439   6.321   7.181   0.704
 6521TIP3    H119440   6.416   7.191   0.718
 6521TIP3    H219441   6.302   7.238   0.631
 6522TIP3   OH219442   7.110   7.198   1.234
 6522TIP3    H119443   7.069   7.214   1.320
 6522TIP3    H219444   7.049   7.141   1.188
 6523TIP3   OH219445   7.274   8.887   1.443
 6523TIP3    H119446   7.274   8.908   1.350
 6523TIP3    H219447   7.344   8.941   1.480
 6524TIP3   OH219448   6.235   8.000   1.868
 6524TIP3    H119449   6.314   8.032   1.912
 6524TIP3    H219450   6.169   7.998   1.938
 6525TIP3   OH219451   6.701   7.449   1.123
 6525TIP3    H119452   6.777   7.428   1.069
 6525TIP3    H219453   6.717   7.403   1.205
 6526TIP3   OH219454   6.228   6.940   0.998
 6526TIP3    H119455   6.190   6.863   1.041
 6526TIP3    H219456   6.274   6.905   0.922
 6527TIP3   OH219457   6.676   7.346   1.415
 6527TIP3    H119458   6.587   7.382   1.421
 6527TIP3    H219459   6.730   7.410   1.460
 6528TIP3   OH219460   6.844   8.070   1.507
 6528TIP3    H119461   6.821   8.029   1.591
 6528TIP3    H219462   6.786   8.146   1.501
 6529TIP3   OH219463   6.099   7.759   1.190
 6529TIP3    H119464   6.126   7.740   1.101
 6529TIP3    H219465   6.143   7.693   1.244
 6530TIP3   OH219466   5.982   7.682   1.796
 6530TIP3    H119467   6.001   7.667   1.889
 6530TIP3    H219468   5.914   7.618   1.775
 6531TIP3   OH219469   6.711   7.795   1.813
 6531TIP3    H119470   6.647   7.742   1.766
 6531TIP3    H219471   6.796   7.763   1.784
 6532TIP3   OH219472   6.982   8.329   1.398
 6532TIP3    H119473   6.888   8.311   1.402
 6532TIP3    H219474   7.001   8.377   1.478
 6533TIP3   OH219475   7.078   7.827   1.095
 6533TIP3    H119476   6.984   7.814   1.080
 6533TIP3    H219477   7.120   7.763   1.038
 6534TIP3   OH219478   5.755   7.369   0.513
 6534TIP3    H119479   5.797   7.452   0.536
 6534TIP3    H219480   5.677   7.366   0.568
 6535TIP3   OH219481   6.476   8.411   1.279
 6535TIP3    H119482   6.506   8.481   1.222
 6535TIP3    H219483   6.555   8.376   1.319
 6536TIP3   OH219484   6.872   8.043   1.233
 6536TIP3    H119485   6.867   8.038   1.328
 6536TIP3    H219486   6.941   7.981   1.209
 6537TIP3   OH219487   7.110   8.584   1.283
 6537TIP3    H119488   7.037   8.524   1.274
 6537TIP3    H219489   7.099   8.646   1.211
 6538TIP3   OH219490   6.195   7.190   1.805
 6538TIP3    H119491   6.100   7.194   1.814
 6538TIP3    H219492   6.222   7.128   1.872
 6539TIP3   OH219493   5.912   8.278   1.439
 6539TIP3    H119494   5.960   8.197   1.450
 6539TIP3    H219495   5.955   8.340   1.498
 6540TIP3   OH219496   5.875   7.596   0.603
 6540TIP3    H119497   5.818   7.650   0.657
 6540TIP3    H219498   5.914   7.657   0.540
 6541TIP3   OH219499   7.031   7.257   1.493
 6541TIP3    H119500   7.116   7.284   1.528
 6541TIP3    H219501   7.011   7.175   1.538
 6542TIP3   OH219502   6.586   7.197   0.766
 6542TIP3    H119503   6.660   7.244   0.727
 6542TIP3    H219504   6.608   7.190   0.859
 6543TIP3   OH219505   6.871   7.503   1.559
 6543TIP3    H119506   6.890   7.553   1.638
 6543TIP3    H219507   6.921   7.422   1.569
 6544TIP3   OH219508   6.762   6.933   0.857
 6544TIP3    H119509   6.725   6.995   0.921
 6544TIP3    H219510   6.842   6.975   0.827
 6545TIP3   OH219511   6.251   6.909   0.660
 6545TIP3    H119512   6.245   7.001   0.685
 6545TIP3    H219513   6.338   6.882   0.689
 6546TIP3   OH219514   7.514   7.403   1.535
 6546TIP3    H119515   7.420   7.409   1.550
 6546TIP3    H219516   7.523   7.349   1.457
 6547TIP3   OH219517   7.169   7.606   0.960
 6547TIP3    H119518   7.094   7.559   0.925
 6547TIP3    H219519   7.238   7.540   0.968
 6548TIP3   OH219520   5.821   7.105   0.523
 6548TIP3    H119521   5.798   7.197   0.518
 6548TIP3    H219522   5.754   7.060   0.471
 6549TIP3   OH219523   6.208   6.821   1.404
 6549TIP3    H119524   6.179   6.792   1.318
 6549TIP3    H219525   6.197   6.745   1.461
 6550TIP3   OH219526   5.733   8.064   0.828
 6550TIP3    H119527   5.647   8.105   0.839
 6550TIP3    H219528   5.740   8.048   0.734
 6551TIP3   OH219529   5.903   8.578   1.860
 6551TIP3    H119530   5.989   8.576   1.902
 6551TIP3    H219531   5.878   8.486   1.852
 6552TIP3   OH219532   6.391   8.542   1.902
 6552TIP3    H119533   6.485   8.522   1.901
 6552TIP3    H219534   6.354   8.491   1.830
 6553TIP3   OH219535   7.023   8.457   1.640
 6553TIP3    H119536   7.015   8.386   1.704
 6553TIP3    H219537   7.100   8.506   1.668
 6554TIP3   OH219538   6.033   7.986   2.056
 6554TIP3    H119539   6.052   7.893   2.059
 6554TIP3    H219540   5.948   7.992   2.012
 6555TIP3   OH219541   6.642   8.072   1.829
 6555TIP3    H119542   6.597   8.090   1.746
 6555TIP3    H219543   6.670   7.980   1.821
 6556TIP3   OH219544   7.154   8.089   1.427
 6556TIP3    H119545   7.162   8.158   1.361
 6556TIP3    H219546   7.062   8.090   1.453
 6557TIP3   OH219547   6.152   7.724   2.041
 6557TIP3    H119548   6.224   7.667   2.013
 6557TIP3    H219549   6.178   7.755   2.128
 6558TIP3   OH219550   6.491   7.612   1.703
 6558TIP3    H119551   6.411   7.664   1.706
 6558TIP3    H219552   6.536   7.642   1.623
 6559TIP3   OH219553   7.008   8.009   1.840
 6559TIP3    H119554   7.086   7.984   1.790
 6559TIP3    H219555   6.998   7.940   1.905
 6560TIP3   OH219556   6.612   7.395   1.824
 6560TIP3    H119557   6.611   7.315   1.771
 6560TIP3    H219558   6.570   7.461   1.769
 6561TIP3   OH219559   6.613   7.181   1.633
 6561TIP3    H119560   6.641   7.223   1.551
 6561TIP3    H219561   6.521   7.158   1.617
 6562TIP3   OH219562   6.647   7.728   1.509
 6562TIP3    H119563   6.720   7.723   1.448
 6562TIP3    H219564   6.584   7.787   1.467
 6563TIP3   OH219565   7.226   7.683   1.888
 6563TIP3    H119566   7.266   7.597   1.902
 6563TIP3    H219567   7.299   7.739   1.862
 6564TIP3   OH219568   7.272   7.953   1.632
 6564TIP3    H119569   7.228   8.006   1.566
 6564TIP3    H219570   7.338   7.904   1.583
 6565TIP3   OH219571   6.490   7.506   2.057
 6565TIP3    H119572   6.422   7.441   2.072
 6565TIP3    H219573   6.524   7.486   1.970
 6566TIP3   OH219574   6.745   6.946   1.698
 6566TIP3    H119575   6.698   7.027   1.677
 6566TIP3    H219576   6.679   6.877   1.687
 6567TIP3   OH219577   6.869   7.451   1.917
 6567TIP3    H119578   6.860   7.438   2.012
 6567TIP3    H219579   6.783   7.428   1.881
 6568TIP3   OH219580   7.114   7.400   1.774
 6568TIP3    H119581   7.037   7.399   1.830
 6568TIP3    H219582   7.185   7.367   1.829
 6569TIP3   OH219583   7.345   7.339   1.924
 6569TIP3    H119584   7.355   7.245   1.940
 6569TIP3    H219585   7.338   7.378   2.011
 6570TIP3   OH219586   6.331   7.286   2.110
 6570TIP3    H119587   6.333   7.199   2.071
 6570TIP3    H219588   6.365   7.274   2.198
 6571TIP3   OH219589   6.842   6.954   1.955
 6571TIP3    H119590   6.908   6.885   1.952
 6571TIP3    H219591   6.800   6.950   1.869
 6572TIP3   OH219592   6.907   7.171   2.114
 6572TIP3    H119593   6.887   7.100   2.053
 6572TIP3    H219594   6.831   7.229   2.109
 6573TIP3   OH219595   5.512   8.397   0.847
 6573TIP3    H119596   5.449   8.334   0.810
 6573TIP3    H219597   5.557   8.348   0.915
 6574TIP3   OH219598   5.642   8.260   1.042
 6574TIP3    H119599   5.650   8.173   1.081
 6574TIP3    H219600   5.705   8.313   1.090
 6575TIP3   OH219601   7.424   8.667   1.119
 6575TIP3    H119602   7.375   8.585   1.109
 6575TIP3    H219603   7.503   8.642   1.166
 6576TIP3   OH219604   7.465   8.337   1.681
 6576TIP3    H119605   7.390   8.342   1.740
 6576TIP3    H219606   7.505   8.424   1.685
 6577TIP3   OH219607   7.304   8.418   1.154
 6577TIP3    H119608   7.233   8.453   1.208
 6577TIP3    H219609   7.261   8.369   1.085
 6578TIP3   OH219610   5.847   7.648   1.404
 6578TIP3    H119611   5.842   7.622   1.312
 6578TIP3    H219612   5.941   7.653   1.422
 6579TIP3   OH219613   7.650   7.842   1.499
 6579TIP3    H119614   7.595   7.783   1.551
 6579TIP3    H219615   7.740   7.818   1.521
 6580TIP3   OH219616   7.394   7.462   1.050
 6580TIP3    H119617   7.467   7.505   1.005
 6580TIP3    H219618   7.397   7.496   1.139
 6581TIP3   OH219619   7.444   7.621   1.283
 6581TIP3    H119620   7.364   7.632   1.333
 6581TIP3    H219621   7.448   7.699   1.227
 6582TIP3   OH219622   6.065   7.339   2.086
 6582TIP3    H119623   6.160   7.332   2.081
 6582TIP3    H219624   6.037   7.255   2.122
 6583TIP3   OH219625   7.897   7.203   1.834
 6583TIP3    H119626   7.955   7.138   1.795
 6583TIP3    H219627   7.871   7.259   1.761
 6584TIP3   OH219628   6.027   7.031   1.415
 6584TIP3    H119629   6.086   6.956   1.421
 6584TIP3    H219630   6.085   7.106   1.405
 6585TIP3   OH219631   5.830   7.306   1.485
 6585TIP3    H119632   5.874   7.293   1.401
 6585TIP3    H219633   5.854   7.395   1.511
 6586TIP3   OH219634   7.767   7.345   1.639
 6586TIP3    H119635   7.682   7.383   1.661
 6586TIP3    H219636   7.747   7.271   1.583
 6587TIP3   OH219637   5.808   6.818   0.991
 6587TIP3    H119638   5.715   6.806   1.008
 6587TIP3    H219639   5.811   6.869   0.910
 6588TIP3   OH219640   6.029   6.890   1.801
 6588TIP3    H119641   5.979   6.882   1.882
 6588TIP3    H219642   5.966   6.927   1.738
 6589TIP3   OH219643   6.068   8.318   1.881
 6589TIP3    H119644   5.982   8.288   1.853
 6589TIP3    H219645   6.075   8.293   1.973
 6590TIP3   OH219646   6.248   8.355   1.427
 6590TIP3    H119647   6.198   8.425   1.387
 6590TIP3    H219648   6.333   8.359   1.383
 6591TIP3   OH219649   6.697   8.592   1.565
 6591TIP3    H119650   6.737   8.595   1.652
 6591TIP3    H219651   6.757   8.641   1.509
 6592TIP3   OH219652   6.875   8.742   1.422
 6592TIP3    H119653   6.941   8.688   1.379
 6592TIP3    H219654   6.924   8.799   1.481
 6593TIP3   OH219655   7.665   7.103   1.519
 6593TIP3    H119656   7.574   7.096   1.487
 6593TIP3    H219657   7.699   7.014   1.511
 6594TIP3   OH219658   5.923   8.609   1.446
 6594TIP3    H119659   5.838   8.642   1.416
 6594TIP3    H219660   5.926   8.630   1.539
 6595TIP3   OH219661   6.163   8.586   1.306
 6595TIP3    H119662   6.077   8.599   1.347
 6595TIP3    H219663   6.149   8.613   1.215
 6596TIP3   OH219664   6.592   8.614   1.104
 6596TIP3    H119665   6.519   8.619   1.043
 6596TIP3    H219666   6.598   8.702   1.142
 6597TIP3   OH219667   6.855   8.555   1.155
 6597TIP3    H119668   6.761   8.557   1.138
 6597TIP3    H219669   6.888   8.634   1.113
 6598TIP3   OH219670   7.070   8.754   1.060
 6598TIP3    H119671   7.023   8.826   1.018
 6598TIP3    H219672   7.093   8.696   0.988
 6599TIP3   OH219673   5.836   8.394   1.195
 6599TIP3    H119674   5.862   8.372   1.285
 6599TIP3    H219675   5.905   8.357   1.140
 6600TIP3   OH219676   6.031   8.274   1.050
 6600TIP3    H119677   6.050   8.187   1.086
 6600TIP3    H219678   6.118   8.312   1.034
 6601TIP3   OH219679   6.296   8.365   1.041
 6601TIP3    H119680   6.325   8.286   0.995
 6601TIP3    H219681   6.339   8.361   1.126
 6602TIP3   OH219682   6.880   7.019   1.148
 6602TIP3    H119683   6.831   6.950   1.192
 6602TIP3    H219684   6.947   6.973   1.097
 6603TIP3   OH219685   7.390   6.919   1.062
 6603TIP3    H119686   7.429   6.946   0.979
 6603TIP3    H219687   7.296   6.918   1.045
 6604TIP3   OH219688   7.513   6.966   0.817
 6604TIP3    H119689   7.607   6.947   0.817
 6604TIP3    H219690   7.507   7.060   0.802
 6605TIP3   OH219691   6.120   6.728   1.158
 6605TIP3    H119692   6.028   6.701   1.155
 6605TIP3    H219693   6.169   6.646   1.151
 6606TIP3   OH219694   5.924   6.600   0.806
 6606TIP3    H119695   5.945   6.653   0.730
 6606TIP3    H219696   5.880   6.661   0.866
 6607TIP3   OH219697   6.561   6.758   1.044
 6607TIP3    H119698   6.613   6.806   0.979
 6607TIP3    H219699   6.578   6.803   1.127
 6608TIP3   OH219700   7.113   6.905   1.017
 6608TIP3    H119701   7.116   6.871   0.928
 6608TIP3    H219702   7.096   6.827   1.071
 6609TIP3   OH219703   6.021   6.755   0.587
 6609TIP3    H119704   6.057   6.697   0.520
 6609TIP3    H219705   6.095   6.812   0.611
 6610TIP3   OH219706   6.512   6.919   0.731
 6610TIP3    H119707   6.592   6.883   0.771
 6610TIP3    H219708   6.533   7.010   0.714
 6611TIP3   OH219709   6.329   7.011   2.051
 6611TIP3    H119710   6.293   6.940   2.104
 6611TIP3    H219711   6.422   7.013   2.074
 6612TIP3   OH219712   6.579   7.007   2.168
 6612TIP3    H119713   6.661   6.982   2.126
 6612TIP3    H219714   6.563   6.939   2.233
 6613TIP3   OH219715   7.404   7.068   1.955
 6613TIP3    H119716   7.420   7.037   2.044
 6613TIP3    H219717   7.490   7.063   1.912
 6614TIP3   OH219718   7.336   8.622   1.447
 6614TIP3    H119719   7.262   8.587   1.397
 6614TIP3    H219720   7.322   8.716   1.449
 6615TIP3   OH219721   8.149   7.370   1.081
 6615TIP3    H119722   8.085   7.382   1.010
 6615TIP3    H219723   8.100   7.388   1.161
 6616TIP3   OH219724   8.052   8.003   1.222
 6616TIP3    H119725   8.052   8.086   1.270
 6616TIP3    H219726   7.983   8.013   1.156
 6617TIP3   OH219727   7.874   8.269   1.136
 6617TIP3    H119728   7.922   8.293   1.215
 6617TIP3    H219729   7.789   8.311   1.145
 6618TIP3   OH219730   8.805   7.274   1.099
 6618TIP3    H119731   8.870   7.247   1.164
 6618TIP3    H219732   8.721   7.250   1.138
 6619TIP3   OH219733   7.975   7.702   1.171
 6619TIP3    H119734   8.044   7.764   1.194
 6619TIP3    H219735   8.004   7.619   1.209
 6620TIP3   OH219736   8.033   8.239   1.363
 6620TIP3    H119737   8.099   8.308   1.362
 6620TIP3    H219738   7.976   8.261   1.437
 6621TIP3   OH219739   7.996   7.442   1.297
 6621TIP3    H119740   7.901   7.448   1.305
 6621TIP3    H219741   8.021   7.379   1.365
 6622TIP3   OH219742   7.976   7.082   0.889
 6622TIP3    H119743   7.975   7.039   0.803
 6622TIP3    H219744   7.985   7.010   0.951
 6623TIP3   OH219745   7.682   8.817   1.393
 6623TIP3    H119746   7.775   8.821   1.369
 6623TIP3    H219747   7.650   8.737   1.352
 6624TIP3   OH219748   7.831   8.238   1.553
 6624TIP3    H119749   7.864   8.148   1.552
 6624TIP3    H219750   7.736   8.229   1.548
 6625TIP3   OH219751   7.934   7.979   1.536
 6625TIP3    H119752   8.004   7.935   1.488
 6625TIP3    H219753   7.976   8.009   1.617
 6626TIP3   OH219754   8.274   7.852   1.178
 6626TIP3    H119755   8.207   7.914   1.205
 6626TIP3    H219756   8.280   7.860   1.083
 6627TIP3   OH219757   8.398   7.648   1.314
 6627TIP3    H119758   8.405   7.570   1.259
 6627TIP3    H219759   8.362   7.716   1.256
 6628TIP3   OH219760   8.407   7.439   1.117
 6628TIP3    H119761   8.434   7.467   1.030
 6628TIP3    H219762   8.317   7.410   1.107
 6629TIP3   OH219763   8.282   7.762   1.541
 6629TIP3    H119764   8.214   7.697   1.557
 6629TIP3    H219765   8.318   7.739   1.456
 6630TIP3   OH219766   8.539   7.201   1.186
 6630TIP3    H119767   8.499   7.286   1.166
 6630TIP3    H219768   8.468   7.138   1.174
 6631TIP3   OH219769   8.642   7.736   1.427
 6631TIP3    H119770   8.627   7.701   1.514
 6631TIP3    H219771   8.565   7.712   1.377
 6632TIP3   OH219772   8.119   7.546   1.598
 6632TIP3    H119773   8.127   7.460   1.556
 6632TIP3    H219774   8.157   7.533   1.685
 6633TIP3   OH219775   8.635   7.207   1.443
 6633TIP3    H119776   8.703   7.140   1.439
 6633TIP3    H219777   8.597   7.207   1.355
 6634TIP3   OH219778   8.691   7.419   1.607
 6634TIP3    H119779   8.678   7.352   1.540
 6634TIP3    H219780   8.617   7.479   1.597
 6635TIP3   OH219781   7.850   7.606   1.571
 6635TIP3    H119782   7.945   7.603   1.565
 6635TIP3    H219783   7.825   7.523   1.610
 6636TIP3   OH219784   7.857   7.321   0.945
 6636TIP3    H119785   7.904   7.238   0.953
 6636TIP3    H219786   7.899   7.364   0.870
 6637TIP3   OH219787   7.644   7.581   0.969
 6637TIP3    H119788   7.692   7.499   0.960
 6637TIP3    H219789   7.712   7.648   0.974
 6638TIP3   OH219790   7.827   7.148   1.290
 6638TIP3    H119791   7.778   7.137   1.372
 6638TIP3    H219792   7.761   7.180   1.228
 6639TIP3   OH219793   7.853   8.555   1.410
 6639TIP3    H119794   7.772   8.551   1.360
 6639TIP3    H219795   7.827   8.531   1.499
 6640TIP3   OH219796   8.125   7.266   1.536
 6640TIP3    H119797   8.090   7.196   1.591
 6640TIP3    H219798   8.218   7.270   1.558
 6641TIP3   OH219799   8.373   7.264   1.653
 6641TIP3    H119800   8.457   7.243   1.611
 6641TIP3    H219801   8.361   7.195   1.718
 6642TIP3   OH219802   9.142   7.301   1.464
 6642TIP3    H119803   9.193   7.305   1.545
 6642TIP3    H219804   9.202   7.334   1.397
 6643TIP3   OH219805   0.354   7.993   3.534
 6643TIP3    H119806   0.408   7.926   3.491
 6643TIP3    H219807   0.317   8.044   3.462
 6644TIP3   OH219808   0.219   8.129   3.332
 6644TIP3    H119809   0.130   8.159   3.348
 6644TIP3    H219810   0.208   8.053   3.274
 6645TIP3   OH219811   0.124   7.891   3.200
 6645TIP3    H119812   0.030   7.889   3.184
 6645TIP3    H219813   0.151   7.799   3.193
 6646TIP3   OH219814   1.863   8.333   2.323
 6646TIP3    H119815   1.900   8.408   2.368
 6646TIP3    H219816   1.889   8.344   2.232
 6647TIP3   OH219817   1.277   8.509   2.361
 6647TIP3    H119818   1.317   8.425   2.383
 6647TIP3    H219819   1.235   8.494   2.276
 6648TIP3   OH219820   1.304   8.253   1.952
 6648TIP3    H119821   1.367   8.237   2.022
 6648TIP3    H219822   1.357   8.285   1.879
 6649TIP3   OH219823   1.954   8.536   2.497
 6649TIP3    H119824   1.876   8.580   2.462
 6649TIP3    H219825   1.938   8.530   2.591
 6650TIP3   OH219826   0.605   8.146   2.769
 6650TIP3    H119827   0.555   8.180   2.695
 6650TIP3    H219828   0.553   8.170   2.846
 6651TIP3   OH219829   1.508   8.262   2.124
 6651TIP3    H119830   1.512   8.205   2.201
 6651TIP3    H219831   1.563   8.337   2.147
 6652TIP3   OH219832   0.489   8.251   2.547
 6652TIP3    H119833   0.532   8.335   2.564
 6652TIP3    H219834   0.492   8.241   2.452
 6653TIP3   OH219835   1.664   8.237   2.497
 6653TIP3    H119836   1.577   8.256   2.463
 6653TIP3    H219837   1.723   8.262   2.426
 6654TIP3   OH219838   0.955   7.872   2.472
 6654TIP3    H119839   0.952   7.778   2.490
 6654TIP3    H219840   0.883   7.909   2.522
 6655TIP3   OH219841   1.495   8.756   2.605
 6655TIP3    H119842   1.512   8.837   2.557
 6655TIP3    H219843   1.407   8.730   2.578
 6656TIP3   OH219844   1.598   7.818   1.580
 6656TIP3    H119845   1.514   7.834   1.623
 6656TIP3    H219846   1.613   7.896   1.527
 6657TIP3   OH219847   1.731   8.726   2.776
 6657TIP3    H119848   1.645   8.719   2.735
 6657TIP3    H219849   1.760   8.636   2.788
 6658TIP3   OH219850   0.718   7.948   2.607
 6658TIP3    H119851   0.633   7.916   2.579
 6658TIP3    H219852   0.699   8.028   2.656
 6659TIP3   OH219853   1.256   8.063   2.800
 6659TIP3    H119854   1.325   8.034   2.859
 6659TIP3    H219855   1.175   8.041   2.846
 6660TIP3   OH219856   1.501   8.483   2.723
 6660TIP3    H119857   1.452   8.475   2.805
 6660TIP3    H219858   1.470   8.565   2.685
 6661TIP3   OH219859   0.644   8.474   2.603
 6661TIP3    H119860   0.597   8.488   2.685
 6661TIP3    H219861   0.624   8.551   2.550
 6662TIP3   OH219862   1.210   8.701   2.962
 6662TIP3    H119863   1.203   8.618   3.009
 6662TIP3    H219864   1.300   8.729   2.974
 6663TIP3   OH219865   1.189   8.449   2.105
 6663TIP3    H119866   1.096   8.452   2.081
 6663TIP3    H219867   1.218   8.363   2.075
 6664TIP3   OH219868   0.470   8.493   2.858
 6664TIP3    H119869   0.450   8.533   2.943
 6664TIP3    H219870   0.456   8.399   2.872
 6665TIP3   OH219871   1.238   8.697   2.546
 6665TIP3    H119872   1.247   8.631   2.477
 6665TIP3    H219873   1.171   8.661   2.605
 6666TIP3   OH219874   0.904   8.186   2.202
 6666TIP3    H119875   0.812   8.160   2.202
 6666TIP3    H219876   0.934   8.166   2.291
 6667TIP3   OH219877   1.350   8.247   2.408
 6667TIP3    H119878   1.316   8.259   2.497
 6667TIP3    H219879   1.293   8.180   2.370
 6668TIP3   OH219880   0.961   8.504   2.280
 6668TIP3    H119881   0.998   8.417   2.261
 6668TIP3    H219882   0.947   8.503   2.374
 6669TIP3   OH219883   0.920   8.385   2.595
 6669TIP3    H119884   0.835   8.430   2.590
 6669TIP3    H219885   0.978   8.450   2.635
 6670TIP3   OH219886   0.950   8.706   3.076
 6670TIP3    H119887   0.888   8.747   3.015
 6670TIP3    H219888   1.027   8.687   3.023
 6671TIP3   OH219889   0.450   8.233   2.987
 6671TIP3    H119890   0.356   8.224   3.000
 6671TIP3    H219891   0.489   8.169   3.047
 6672TIP3   OH219892   1.276   8.306   2.669
 6672TIP3    H119893   1.363   8.335   2.697
 6672TIP3    H219894   1.262   8.223   2.715
 6673TIP3   OH219895   1.143   8.073   1.808
 6673TIP3    H119896   1.146   8.098   1.716
 6673TIP3    H219897   1.199   8.136   1.853
 6674TIP3   OH219898   1.113   8.545   2.736
 6674TIP3    H119899   1.144   8.593   2.813
 6674TIP3    H219900   1.165   8.465   2.736
 6675TIP3   OH219901   1.007   7.971   2.042
 6675TIP3    H119902   0.982   8.050   2.089
 6675TIP3    H219903   1.051   8.003   1.963
 6676TIP3   OH219904   1.767   8.449   2.706
 6676TIP3    H119905   1.673   8.451   2.726
 6676TIP3    H219906   1.775   8.391   2.630
 6677TIP3   OH219907   1.403   8.631   2.088
 6677TIP3    H119908   1.338   8.568   2.119
 6677TIP3    H219909   1.483   8.608   2.136
 6678TIP3   OH219910   0.458   7.855   2.584
 6678TIP3    H119911   0.429   7.814   2.503
 6678TIP3    H219912   0.452   7.785   2.649
 6679TIP3   OH219913   0.428   8.753   3.186
 6679TIP3    H119914   0.462   8.669   3.217
 6679TIP3    H219915   0.427   8.808   3.265
 6680TIP3   OH219916   0.747   8.591   2.839
 6680TIP3    H119917   0.657   8.615   2.860
 6680TIP3    H219918   0.752   8.600   2.744
 6681TIP3   OH219919   0.862   8.415   3.013
 6681TIP3    H119920   0.870   8.334   2.962
 6681TIP3    H219921   0.824   8.478   2.952
 6682TIP3   OH219922   0.864   8.221   2.812
 6682TIP3    H119923   0.892   8.266   2.733
 6682TIP3    H219924   0.772   8.199   2.796
 6683TIP3   OH219925   1.468   8.729   3.051
 6683TIP3    H119926   1.527   8.656   3.072
 6683TIP3    H219927   1.515   8.807   3.078
 6684TIP3   OH219928   0.717   8.560   3.225
 6684TIP3    H119929   0.666   8.480   3.235
 6684TIP3    H219930   0.773   8.544   3.149
 6685TIP3   OH219931   0.995   7.989   2.878
 6685TIP3    H119932   0.950   8.070   2.855
 6685TIP3    H219933   0.929   7.921   2.864
 6686TIP3   OH219934   1.127   8.472   3.091
 6686TIP3    H119935   1.124   8.471   3.187
 6686TIP3    H219936   1.038   8.454   3.063
 6687TIP3   OH219937   1.366   8.438   2.951
 6687TIP3    H119938   1.289   8.431   3.007
 6687TIP3    H219939   1.439   8.412   3.007
 6688TIP3   OH219940   1.598   8.387   3.103
 6688TIP3    H119941   1.607   8.293   3.118
 6688TIP3    H219942   1.589   8.425   3.191
 6689TIP3   OH219943   0.584   8.329   3.287
 6689TIP3    H119944   0.588   8.242   3.247
 6689TIP3    H219945   0.619   8.317   3.375
 6690TIP3   OH219946   1.089   7.996   3.134
 6690TIP3    H119947   1.158   7.931   3.131
 6690TIP3    H219948   1.050   7.994   3.047
 6691TIP3   OH219949   1.154   8.212   3.294
 6691TIP3    H119950   1.134   8.143   3.231
 6691TIP3    H219951   1.079   8.272   3.287
 6692TIP3   OH219952   1.462   8.614   1.825
 6692TIP3    H119953   1.488   8.522   1.822
 6692TIP3    H219954   1.454   8.634   1.918
 6693TIP3   OH219955   1.958   8.874   2.719
 6693TIP3    H119956   1.872   8.841   2.744
 6693TIP3    H219957   2.017   8.798   2.729
 6694TIP3   OH219958   1.464   8.334   1.748
 6694TIP3    H119959   1.506   8.251   1.771
 6694TIP3    H219960   1.467   8.337   1.652
 6695TIP3   OH219961   1.626   8.518   2.214
 6695TIP3    H119962   1.708   8.541   2.171
 6695TIP3    H219963   1.638   8.544   2.305
 6696TIP3   OH219964   1.703   8.645   2.444
 6696TIP3    H119965   1.630   8.670   2.500
 6696TIP3    H219966   1.751   8.726   2.428
 6697TIP3   OH219967   0.321   8.395   3.274
 6697TIP3    H119968   0.415   8.379   3.267
 6697TIP3    H219969   0.284   8.310   3.296
 6698TIP3   OH219970   2.149   8.251   3.011
 6698TIP3    H119971   2.204   8.184   2.972
 6698TIP3    H219972   2.119   8.303   2.936
 6699TIP3   OH219973   1.570   8.086   1.779
 6699TIP3    H119974   1.620   8.071   1.859
 6699TIP3    H219975   1.512   8.010   1.772
 6700TIP3   OH219976   0.280   8.075   2.572
 6700TIP3    H119977   0.334   8.001   2.598
 6700TIP3    H219978   0.339   8.150   2.577
 6701TIP3   OH219979   2.016   8.390   2.814
 6701TIP3    H119980   1.927   8.421   2.826
 6701TIP3    H219981   2.008   8.315   2.755
 6702TIP3   OH219982   1.679   8.014   1.398
 6702TIP3    H119983   1.709   7.947   1.337
 6702TIP3    H219984   1.738   8.088   1.382
 6703TIP3   OH219985   0.285   7.985   2.994
 6703TIP3    H119986   0.232   7.955   3.068
 6703TIP3    H219987   0.239   7.954   2.916
 6704TIP3   OH219988   1.907   8.137   2.709
 6704TIP3    H119989   1.822   8.139   2.665
 6704TIP3    H219990   1.949   8.057   2.678
 6705TIP3   OH219991   1.140   8.063   2.339
 6705TIP3    H119992   1.083   7.994   2.374
 6705TIP3    H219993   1.191   8.019   2.270
 6706TIP3   OH219994   1.650   7.949   2.224
 6706TIP3    H119995   1.684   7.998   2.149
 6706TIP3    H219996   1.555   7.959   2.218
 6707TIP3   OH219997   1.744   8.050   1.986
 6707TIP3    H119998   1.814   7.996   1.948
 6707TIP3    H219999   1.773   8.140   1.971
 6708TIP3   OH220000   0.813   7.803   2.215
 6708TIP3    H120001   0.860   7.851   2.147
 6708TIP3    H220002   0.845   7.841   2.297
 6709TIP3   OH220003   1.367   7.948   2.193
 6709TIP3    H120004   1.359   7.911   2.105
 6709TIP3    H220005   1.349   7.874   2.252
 6710TIP3   OH220006   1.389   7.875   1.764
 6710TIP3    H120007   1.298   7.905   1.758
 6710TIP3    H220008   1.382   7.790   1.808
 6711TIP3   OH220009   0.580   8.053   3.223
 6711TIP3    H120010   0.542   7.987   3.281
 6711TIP3    H220011   0.672   8.057   3.248
 6712TIP3   OH220012   0.826   8.051   3.344
 6712TIP3    H120013   0.910   8.033   3.301
 6712TIP3    H220014   0.816   7.981   3.408
 6713TIP3   OH220015   1.651   8.115   3.131
 6713TIP3    H120016   1.669   8.081   3.218
 6713TIP3    H220017   1.735   8.109   3.085
 6714TIP3   OH220018   1.823   8.552   1.645
 6714TIP3    H120019   1.791   8.639   1.671
 6714TIP3    H220020   1.759   8.491   1.680
 6715TIP3   OH220021   3.666   8.584   1.812
 6715TIP3    H120022   3.697   8.663   1.855
 6715TIP3    H220023   3.688   8.596   1.720
 6716TIP3   OH220024   3.065   8.767   1.844
 6716TIP3    H120025   3.108   8.684   1.868
 6716TIP3    H220026   3.029   8.750   1.757
 6717TIP3   OH220027   2.402   8.424   1.812
 6717TIP3    H120028   2.385   8.498   1.754
 6717TIP3    H220029   2.357   8.351   1.771
 6718TIP3   OH220030   3.100   8.513   1.439
 6718TIP3    H120031   3.169   8.498   1.504
 6718TIP3    H220032   3.146   8.549   1.363
 6719TIP3   OH220033   2.031   8.611   1.930
 6719TIP3    H120034   2.116   8.597   1.972
 6719TIP3    H220035   2.042   8.575   1.842
 6720TIP3   OH220036   2.488   8.827   1.714
 6720TIP3    H120037   2.574   8.791   1.734
 6720TIP3    H220038   2.439   8.754   1.677
 6721TIP3   OH220039   3.750   8.785   1.989
 6721TIP3    H120040   3.672   8.830   1.954
 6721TIP3    H220041   3.756   8.815   2.079
 6722TIP3   OH220042   2.400   8.413   2.252
 6722TIP3    H120043   2.339   8.440   2.183
 6722TIP3    H220044   2.349   8.421   2.333
 6723TIP3   OH220045   3.309   8.520   1.609
 6723TIP3    H120046   3.309   8.465   1.688
 6723TIP3    H220047   3.360   8.597   1.634
 6724TIP3   OH220048   2.275   8.518   2.032
 6724TIP3    H120049   2.334   8.591   2.051
 6724TIP3    H220050   2.315   8.473   1.958
 6725TIP3   OH220051   3.459   8.488   1.981
 6725TIP3    H120052   3.372   8.512   1.950
 6725TIP3    H220053   3.518   8.517   1.912
 6726TIP3   OH220054   2.757   8.126   1.966
 6726TIP3    H120055   2.745   8.032   1.980
 6726TIP3    H220056   2.681   8.166   2.009
 6727TIP3   OH220057   2.641   8.680   0.991
 6727TIP3    H120058   2.732   8.709   1.000
 6727TIP3    H220059   2.639   8.638   0.905
 6728TIP3   OH220060   3.293   9.012   2.088
 6728TIP3    H120061   3.308   9.095   2.043
 6728TIP3    H220062   3.205   8.985   2.061
 6729TIP3   OH220063   3.389   8.074   1.065
 6729TIP3    H120064   3.310   8.091   1.116
 6729TIP3    H220065   3.403   8.155   1.015
 6730TIP3   OH220066   3.516   8.972   2.275
 6730TIP3    H120067   3.438   8.969   2.220
 6730TIP3    H220068   3.545   8.881   2.280
 6731TIP3   OH220069   2.515   8.205   2.090
 6731TIP3    H120070   2.429   8.170   2.065
 6731TIP3    H220071   2.495   8.286   2.136
 6732TIP3   OH220072   3.051   8.321   2.288
 6732TIP3    H120073   3.117   8.290   2.349
 6732TIP3    H220074   2.967   8.299   2.329
 6733TIP3   OH220075   3.294   8.737   2.208
 6733TIP3    H120076   3.247   8.733   2.292
 6733TIP3    H220077   3.264   8.818   2.168
 6734TIP3   OH220078   2.662   8.250   1.063
 6734TIP3    H120079   2.634   8.254   1.154
 6734TIP3    H220080   2.627   8.167   1.030
 6735TIP3   OH220081   2.442   8.729   2.101
 6735TIP3    H120082   2.381   8.736   2.175
 6735TIP3    H220083   2.421   8.803   2.045
 6736TIP3   OH220084   2.332   8.606   1.629
 6736TIP3    H120085   2.240   8.581   1.643
 6736TIP3    H220086   2.354   8.569   1.544
 6737TIP3   OH220087   2.835   8.694   1.352
 6737TIP3    H120088   2.755   8.741   1.329
 6737TIP3    H220089   2.877   8.675   1.268
 6738TIP3   OH220090   3.003   8.956   2.448
 6738TIP3    H120091   2.997   8.875   2.497
 6738TIP3    H220092   3.093   8.986   2.461
 6739TIP3   OH220093   2.972   8.707   1.589
 6739TIP3    H120094   2.912   8.728   1.517
 6739TIP3    H220095   3.019   8.629   1.559
 6740TIP3   OH220096   2.281   8.746   2.345
 6740TIP3    H120097   2.238   8.789   2.419
 6740TIP3    H220098   2.257   8.654   2.352
 6741TIP3   OH220099   2.307   8.217   1.020
 6741TIP3    H120100   2.313   8.228   1.114
 6741TIP3    H220101   2.213   8.213   1.002
 6742TIP3   OH220102   1.860   8.278   1.896
 6742TIP3    H120103   1.935   8.302   1.950
 6742TIP3    H220104   1.898   8.234   1.820
 6743TIP3   OH220105   1.827   8.265   1.410
 6743TIP3    H120106   1.881   8.297   1.338
 6743TIP3    H220107   1.773   8.341   1.435
 6744TIP3   OH220108   3.037   8.951   2.039
 6744TIP3    H120109   3.042   8.891   1.965
 6744TIP3    H220110   2.967   8.916   2.094
 6745TIP3   OH220111   2.660   8.422   1.688
 6745TIP3    H120112   2.577   8.424   1.735
 6745TIP3    H220113   2.727   8.432   1.756
 6746TIP3   OH220114   2.092   8.485   1.689
 6746TIP3    H120115   2.000   8.487   1.662
 6746TIP3    H220116   2.120   8.395   1.673
 6747TIP3   OH220117   2.382   8.475   1.399
 6747TIP3    H120118   2.473   8.495   1.376
 6747TIP3    H220119   2.332   8.501   1.322
 6748TIP3   OH220120   3.147   8.505   1.894
 6748TIP3    H120121   3.110   8.516   1.982
 6748TIP3    H220122   3.090   8.441   1.851
 6749TIP3   OH220123   2.236   8.512   1.179
 6749TIP3    H120124   2.156   8.477   1.138
 6749TIP3    H220125   2.280   8.559   1.109
 6750TIP3   OH220126   2.740   8.736   1.777
 6750TIP3    H120127   2.820   8.714   1.730
 6750TIP3    H220128   2.761   8.718   1.869
 6751TIP3   OH220129   2.266   8.243   1.663
 6751TIP3    H120130   2.233   8.165   1.708
 6751TIP3    H220131   2.320   8.208   1.592
 6752TIP3   OH220132   2.719   8.644   2.082
 6752TIP3    H120133   2.633   8.685   2.073
 6752TIP3    H220134   2.773   8.711   2.123
 6753TIP3   OH220135   2.912   8.365   1.032
 6753TIP3    H120136   2.819   8.344   1.039
 6753TIP3    H220137   2.917   8.458   1.050
 6754TIP3   OH220138   2.986   8.624   1.119
 6754TIP3    H120139   3.075   8.608   1.150
 6754TIP3    H220140   2.993   8.705   1.068
 6755TIP3   OH220141   2.742   8.963   2.568
 6755TIP3    H120142   2.680   9.009   2.511
 6755TIP3    H220143   2.816   8.942   2.511
 6756TIP3   OH220144   3.422   8.684   0.974
 6756TIP3    H120145   3.362   8.642   0.912
 6756TIP3    H220146   3.429   8.774   0.943
 6757TIP3   OH220147   2.235   8.488   2.471
 6757TIP3    H120148   2.139   8.487   2.475
 6757TIP3    H220149   2.261   8.416   2.529
 6758TIP3   OH220150   3.071   8.563   2.156
 6758TIP3    H120151   3.159   8.589   2.182
 6758TIP3    H220152   3.057   8.480   2.202
 6759TIP3   OH220153   2.958   8.308   1.310
 6759TIP3    H120154   2.944   8.330   1.218
 6759TIP3    H220155   2.996   8.387   1.348
 6760TIP3   OH220156   2.663   8.483   1.416
 6760TIP3    H120157   2.726   8.553   1.399
 6760TIP3    H220158   2.659   8.477   1.511
 6761TIP3   OH220159   2.908   8.801   2.224
 6761TIP3    H120160   2.939   8.848   2.301
 6761TIP3    H220161   2.960   8.720   2.223
 6762TIP3   OH220162   2.794   8.216   1.518
 6762TIP3    H120163   2.780   8.292   1.575
 6762TIP3    H220164   2.852   8.249   1.450
 6763TIP3   OH220165   2.307   8.216   1.303
 6763TIP3    H120166   2.306   8.304   1.340
 6763TIP3    H220167   2.399   8.188   1.309
 6764TIP3   OH220168   3.561   8.707   2.203
 6764TIP3    H120169   3.466   8.701   2.214
 6764TIP3    H220170   3.578   8.666   2.118
 6765TIP3   OH220171   3.199   8.884   1.576
 6765TIP3    H120172   3.130   8.823   1.601
 6765TIP3    H220173   3.275   8.858   1.628
 6766TIP3   OH220174   2.252   8.122   2.069
 6766TIP3    H120175   2.222   8.090   1.984
 6766TIP3    H220176   2.242   8.047   2.128
 6767TIP3   OH220177   2.224   9.015   2.695
 6767TIP3    H120178   2.247   8.925   2.674
 6767TIP3    H220179   2.134   9.009   2.729
 6768TIP3   OH220180   2.540   8.859   2.324
 6768TIP3    H120181   2.448   8.839   2.338
 6768TIP3    H220182   2.554   8.846   2.231
 6769TIP3   OH220183   2.369   8.614   0.968
 6769TIP3    H120184   2.362   8.631   0.874
 6769TIP3    H220185   2.458   8.641   0.990
 6770TIP3   OH220186   2.658   8.674   2.499
 6770TIP3    H120187   2.662   8.593   2.448
 6770TIP3    H220188   2.622   8.739   2.438
 6771TIP3   OH220189   2.659   8.480   2.299
 6771TIP3    H120190   2.688   8.523   2.219
 6771TIP3    H220191   2.568   8.457   2.283
 6772TIP3   OH220192   3.281   8.992   2.549
 6772TIP3    H120193   3.295   8.899   2.564
 6772TIP3    H220194   3.366   9.024   2.520
 6773TIP3   OH220195   2.520   8.810   2.717
 6773TIP3    H120196   2.468   8.729   2.718
 6773TIP3    H220197   2.573   8.805   2.638
 6774TIP3   OH220198   2.791   8.246   2.362
 6774TIP3    H120199   2.744   8.327   2.341
 6774TIP3    H220200   2.725   8.177   2.352
 6775TIP3   OH220201   2.922   8.727   2.577
 6775TIP3    H120202   2.914   8.725   2.673
 6775TIP3    H220203   2.834   8.708   2.546
 6776TIP3   OH220204   3.166   8.707   2.444
 6776TIP3    H120205   3.087   8.689   2.494
 6776TIP3    H220206   3.237   8.668   2.495
 6777TIP3   OH220207   3.392   8.641   2.592
 6777TIP3    H120208   3.402   8.547   2.606
 6777TIP3    H220209   3.386   8.678   2.680
 6778TIP3   OH220210   2.376   8.586   2.778
 6778TIP3    H120211   2.371   8.502   2.733
 6778TIP3    H220212   2.417   8.566   2.862
 6779TIP3   OH220213   2.888   8.255   2.618
 6779TIP3    H120214   2.953   8.186   2.615
 6779TIP3    H220215   2.845   8.251   2.532
 6780TIP3   OH220216   2.953   8.469   2.779
 6780TIP3    H120217   2.933   8.399   2.717
 6780TIP3    H220218   2.878   8.529   2.773
 6781TIP3   OH220219   3.256   8.607   0.770
 6781TIP3    H120220   3.218   8.625   0.684
 6781TIP3    H220221   3.238   8.515   0.786
 6782TIP3   OH220222   3.291   8.859   1.323
 6782TIP3    H120223   3.293   8.763   1.329
 6782TIP3    H220224   3.269   8.887   1.412
 6783TIP3   OH220225   3.728   9.132   2.213
 6783TIP3    H120226   3.653   9.076   2.234
 6783TIP3    H220227   3.802   9.071   2.212
 6784TIP3   OH220228   3.199   8.346   0.779
 6784TIP3    H120229   3.277   8.308   0.820
 6784TIP3    H220230   3.132   8.279   0.789
 6785TIP3   OH220231   3.254   8.584   1.215
 6785TIP3    H120232   3.292   8.498   1.231
 6785TIP3    H220233   3.311   8.624   1.149
 6786TIP3   OH220234   3.423   8.770   1.703
 6786TIP3    H120235   3.503   8.795   1.658
 6786TIP3    H220236   3.435   8.801   1.793
 6787TIP3   OH220237   3.498   8.896   1.934
 6787TIP3    H120238   3.422   8.925   1.985
 6787TIP3    H220239   3.548   8.976   1.918
 6788TIP3   OH220240   2.113   8.652   2.763
 6788TIP3    H120241   2.205   8.633   2.747
 6788TIP3    H220242   2.075   8.568   2.789
 6789TIP3   OH220243   3.941   8.503   2.498
 6789TIP3    H120244   3.999   8.438   2.459
 6789TIP3    H220245   3.915   8.559   2.425
 6790TIP3   OH220246   3.369   8.341   1.256
 6790TIP3    H120247   3.418   8.329   1.337
 6790TIP3    H220248   3.309   8.267   1.253
 6791TIP3   OH220249   2.067   8.328   2.077
 6791TIP3    H120250   2.127   8.254   2.087
 6791TIP3    H220251   2.125   8.404   2.067
 6792TIP3   OH220252   1.873   8.616   2.152
 6792TIP3    H120253   1.918   8.602   2.069
 6792TIP3    H220254   1.892   8.707   2.174
 6793TIP3   OH220255   3.811   8.647   2.304
 6793TIP3    H120256   3.724   8.683   2.317
 6793TIP3    H220257   3.797   8.572   2.245
 6794TIP3   OH220258   3.452   8.281   0.883
 6794TIP3    H120259   3.489   8.207   0.836
 6794TIP3    H220260   3.520   8.348   0.879
 6795TIP3   OH220261   1.848   8.123   1.647
 6795TIP3    H120262   1.757   8.109   1.671
 6795TIP3    H220263   1.845   8.172   1.565
 6796TIP3   OH220264   2.079   8.224   2.475
 6796TIP3    H120265   2.047   8.150   2.528
 6796TIP3    H220266   2.012   8.237   2.409
 6797TIP3   OH220267   3.709   8.404   2.184
 6797TIP3    H120268   3.620   8.399   2.149
 6797TIP3    H220269   3.744   8.315   2.174
 6798TIP3   OH220270   2.922   8.323   1.808
 6798TIP3    H120271   2.873   8.256   1.856
 6798TIP3    H220272   2.987   8.274   1.758
 6799TIP3   OH220273   3.440   8.207   1.710
 6799TIP3    H120274   3.477   8.254   1.635
 6799TIP3    H220275   3.346   8.218   1.701
 6800TIP3   OH220276   3.537   8.305   1.472
 6800TIP3    H120277   3.606   8.250   1.434
 6800TIP3    H220278   3.567   8.395   1.458
 6801TIP3   OH220279   2.165   8.028   1.819
 6801TIP3    H120280   2.074   7.999   1.821
 6801TIP3    H220281   2.216   7.948   1.816
 6802TIP3   OH220282   1.958   7.896   1.468
 6802TIP3    H120283   1.989   7.952   1.396
 6802TIP3    H220284   1.918   7.956   1.530
 6803TIP3   OH220285   2.608   8.065   1.698
 6803TIP3    H120286   2.667   8.113   1.640
 6803TIP3    H220287   2.626   8.100   1.785
 6804TIP3   OH220288   3.160   8.207   1.682
 6804TIP3    H120289   3.153   8.173   1.593
 6804TIP3    H220290   3.144   8.131   1.738
 6805TIP3   OH220291   3.183   8.131   1.246
 6805TIP3    H120292   3.098   8.174   1.256
 6805TIP3    H220293   3.172   8.047   1.291
 6806TIP3   OH220294   2.071   8.060   1.244
 6806TIP3    H120295   2.112   7.998   1.183
 6806TIP3    H220296   2.144   8.111   1.278
 6807TIP3   OH220297   2.585   8.236   1.329
 6807TIP3    H120298   2.640   8.185   1.389
 6807TIP3    H220299   2.603   8.327   1.351
 6808TIP3   OH220300   2.372   8.322   2.722
 6808TIP3    H120301   2.335   8.242   2.761
 6808TIP3    H220302   2.466   8.316   2.741
 6809TIP3   OH220303   2.626   8.312   2.836
 6809TIP3    H120304   2.705   8.284   2.789
 6809TIP3    H220305   2.609   8.242   2.899
 6810TIP3   OH220306   3.449   8.370   2.618
 6810TIP3    H120307   3.465   8.338   2.706
 6810TIP3    H220308   3.534   8.365   2.574
 6811TIP3   OH220309   3.627   8.817   1.131
 6811TIP3    H120310   3.586   8.889   1.178
 6811TIP3    H220311   3.555   8.756   1.114
 6812TIP3   OH220312   5.463   8.841   1.300
 6812TIP3    H120313   5.494   8.922   1.341
 6812TIP3    H220314   5.483   8.852   1.207
 6813TIP3   OH220315   4.859   9.021   1.332
 6813TIP3    H120316   4.903   8.940   1.355
 6813TIP3    H220317   4.824   9.005   1.244
 6814TIP3   OH220318   4.198   8.680   1.300
 6814TIP3    H120319   4.183   8.755   1.241
 6814TIP3    H220320   4.153   8.607   1.257
 6815TIP3   OH220321   4.896   8.772   0.927
 6815TIP3    H120322   4.969   8.756   0.987
 6815TIP3    H220323   4.938   8.806   0.847
 6816TIP3   OH220324   3.825   8.865   1.418
 6816TIP3    H120325   3.911   8.855   1.460
 6816TIP3    H220326   3.838   8.831   1.330
 6817TIP3   OH220327   4.283   9.083   1.197
 6817TIP3    H120328   4.369   9.049   1.220
 6817TIP3    H220329   4.236   9.007   1.162
 6818TIP3   OH220330   5.547   9.045   1.474
 6818TIP3    H120331   5.470   9.089   1.438
 6818TIP3    H220332   5.544   9.063   1.568
 6819TIP3   OH220333   4.194   8.667   1.738
 6819TIP3    H120334   4.136   8.697   1.668
 6819TIP3    H220335   4.144   8.684   1.818
 6820TIP3   OH220336   5.104   8.776   1.099
 6820TIP3    H120337   5.108   8.719   1.176
 6820TIP3    H220338   5.157   8.852   1.122
 6821TIP3   OH220339   4.068   8.773   1.519
 6821TIP3    H120340   4.123   8.849   1.539
 6821TIP3    H220341   4.111   8.731   1.445
 6822TIP3   OH220342   5.255   8.745   1.470
 6822TIP3    H120343   5.167   8.767   1.438
 6822TIP3    H220344   5.313   8.773   1.399
 6823TIP3   OH220345   4.552   8.383   1.452
 6823TIP3    H120346   4.541   8.289   1.464
 6823TIP3    H220347   4.477   8.422   1.496
 6824TIP3   OH220348   8.360   0.030   1.571
 6824TIP3    H120349   8.367   0.117   1.531
 6824TIP3    H220350   8.271   0.001   1.550
 6825TIP3   OH220351   5.181   8.345   0.561
 6825TIP3    H120352   5.102   8.341   0.615
 6825TIP3    H220353   5.186   8.437   0.534
 6826TIP3   OH220354   5.313   9.231   1.760
 6826TIP3    H120355   5.231   9.227   1.710
 6826TIP3    H220356   5.342   9.140   1.766
 6827TIP3   OH220357   4.312   8.459   1.579
 6827TIP3    H120358   4.226   8.427   1.552
 6827TIP3    H220359   4.293   8.543   1.622
 6828TIP3   OH220360   4.847   8.576   1.773
 6828TIP3    H120361   4.914   8.549   1.835
 6828TIP3    H220362   4.764   8.555   1.817
 6829TIP3   OH220363   5.091   8.990   1.695
 6829TIP3    H120364   5.047   8.981   1.780
 6829TIP3    H220365   5.063   9.076   1.663
 6830TIP3   OH220366   4.402   8.494   0.545
 6830TIP3    H120367   4.459   8.543   0.603
 6830TIP3    H220368   4.457   8.423   0.511
 6831TIP3   OH220369   4.236   8.980   1.576
 6831TIP3    H120370   4.203   8.995   1.665
 6831TIP3    H220371   4.228   9.065   1.533
 6832TIP3   OH220372   4.129   8.860   1.111
 6832TIP3    H120373   4.039   8.834   1.129
 6832TIP3    H220374   4.146   8.825   1.023
 6833TIP3   OH220375   4.628   8.956   0.834
 6833TIP3    H120376   4.546   8.998   0.807
 6833TIP3    H220377   4.670   8.929   0.753
 6834TIP3   OH220378   4.983   9.182   1.844
 6834TIP3    H120379   4.951   9.111   1.900
 6834TIP3    H220380   4.926   9.256   1.865
 6835TIP3   OH220381   4.768   8.964   1.073
 6835TIP3    H120382   4.709   8.985   1.000
 6835TIP3    H220383   4.817   8.887   1.043
 6836TIP3   OH220384   4.048   9.005   1.830
 6836TIP3    H120385   4.041   9.044   1.917
 6836TIP3    H220386   4.037   8.911   1.844
 6837TIP3   OH220387   4.084   8.496   0.512
 6837TIP3    H120388   4.132   8.489   0.594
 6837TIP3    H220389   3.993   8.480   0.536
 6838TIP3   OH220390   3.658   8.529   1.385
 6838TIP3    H120391   3.731   8.560   1.439
 6838TIP3    H220392   3.700   8.492   1.307
 6839TIP3   OH220393   3.633   8.506   0.902
 6839TIP3    H120394   3.686   8.540   0.830
 6839TIP3    H220395   3.576   8.578   0.927
 6840TIP3   OH220396   4.833   9.208   1.524
 6840TIP3    H120397   4.840   9.148   1.450
 6840TIP3    H220398   4.765   9.170   1.580
 6841TIP3   OH220399   4.458   8.680   1.175
 6841TIP3    H120400   4.376   8.681   1.223
 6841TIP3    H220401   4.526   8.689   1.242
 6842TIP3   OH220402   3.890   8.741   1.178
 6842TIP3    H120403   3.798   8.745   1.151
 6842TIP3    H220404   3.918   8.652   1.158
 6843TIP3   OH220405   4.160   8.737   0.868
 6843TIP3    H120406   4.254   8.748   0.853
 6843TIP3    H220407   4.119   8.773   0.789
 6844TIP3   OH220408   4.947   8.761   1.382
 6844TIP3    H120409   4.908   8.772   1.469
 6844TIP3    H220410   4.890   8.698   1.337
 6845TIP3   OH220411   3.995   8.773   0.635
 6845TIP3    H120412   3.916   8.728   0.604
 6845TIP3    H220413   4.057   8.767   0.562
 6846TIP3   OH220414   4.536   8.995   1.263
 6846TIP3    H120415   4.615   8.972   1.214
 6846TIP3    H220416   4.558   8.974   1.354
 6847TIP3   OH220417   4.063   8.501   1.146
 6847TIP3    H120418   4.034   8.421   1.190
 6847TIP3    H220419   4.117   8.470   1.073
 6848TIP3   OH220420   4.514   8.900   1.567
 6848TIP3    H120421   4.429   8.942   1.557
 6848TIP3    H220422   4.569   8.966   1.608
 6849TIP3   OH220423   7.726   0.016   2.045
 6849TIP3    H120424   7.693   0.105   2.035
 6849TIP3    H220425   7.680  -0.019   2.121
 6850TIP3   OH220426   4.033   8.745   1.955
 6850TIP3    H120427   3.938   8.745   1.964
 6850TIP3    H220428   4.063   8.683   2.021
 6851TIP3   OH220429   4.867   8.819   1.643
 6851TIP3    H120430   4.953   8.847   1.673
 6851TIP3    H220431   4.852   8.736   1.689
 6852TIP3   OH220432   4.735   8.579   0.788
 6852TIP3    H120433   4.735   8.603   0.695
 6852TIP3    H220434   4.790   8.645   0.830
 6853TIP3   OH220435   4.443   8.745   0.902
 6853TIP3    H120436   4.519   8.799   0.880
 6853TIP3    H220437   4.448   8.734   0.997
 6854TIP3   OH220438   4.703   9.055   1.704
 6854TIP3    H120439   4.730   9.097   1.786
 6854TIP3    H220440   4.755   8.974   1.700
 6855TIP3   OH220441   4.596   8.473   1.005
 6855TIP3    H120442   4.580   8.549   1.061
 6855TIP3    H220443   4.648   8.508   0.932
 6856TIP3   OH220444   4.101   8.469   0.796
 6856TIP3    H120445   4.100   8.559   0.828
 6856TIP3    H220446   4.192   8.441   0.806
 6857TIP3   OH220447   5.358   8.963   1.686
 6857TIP3    H120448   5.264   8.961   1.702
 6857TIP3    H220449   5.369   8.917   1.603
 6858TIP3   OH220450   4.989   9.144   1.074
 6858TIP3    H120451   4.923   9.077   1.088
 6858TIP3    H220452   5.065   9.114   1.123
 6859TIP3   OH220453   3.667   8.669   0.675
 6859TIP3    H120454   3.659   8.764   0.684
 6859TIP3    H220455   3.579   8.640   0.651
 6860TIP3   OH220456   4.048   8.379   1.555
 6860TIP3    H120457   4.019   8.349   1.469
 6860TIP3    H220458   4.039   8.302   1.612
 6861TIP3   OH220459   7.300   0.027   2.159
 6861TIP3    H120460   7.341  -0.053   2.191
 6861TIP3    H220461   7.287   0.080   2.238
 6862TIP3   OH220462   4.324   9.081   1.820
 6862TIP3    H120463   4.245   9.135   1.831
 6862TIP3    H220464   4.363   9.113   1.739
 6863TIP3   OH220465   4.454   8.918   1.988
 6863TIP3    H120466   4.466   8.840   1.933
 6863TIP3    H220467   4.410   8.981   1.930
 6864TIP3   OH220468   4.456   8.730   1.777
 6864TIP3    H120469   4.484   8.776   1.698
 6864TIP3    H220470   4.364   8.711   1.763
 6865TIP3   OH220471   8.390   0.028   2.088
 6865TIP3    H120472   8.384  -0.067   2.076
 6865TIP3    H220473   8.451   0.057   2.021
 6866TIP3   OH220474   4.312   9.075   2.190
 6866TIP3    H120475   4.257   9.002   2.217
 6866TIP3    H220476   4.360   9.043   2.114
 6867TIP3   OH220477   4.587   8.501   1.851
 6867TIP3    H120478   4.542   8.582   1.825
 6867TIP3    H220479   4.522   8.432   1.838
 6868TIP3   OH220480   4.721   8.993   2.061
 6868TIP3    H120481   4.714   8.990   2.156
 6868TIP3    H220482   4.633   8.975   2.029
 6869TIP3   OH220483   4.954   8.917   1.931
 6869TIP3    H120484   4.879   8.922   1.990
 6869TIP3    H220485   5.029   8.898   1.988
 6870TIP3   OH220486   5.192   8.898   2.078
 6870TIP3    H120487   5.201   8.804   2.093
 6870TIP3    H220488   5.185   8.936   2.166
 6871TIP3   OH220489   4.170   8.846   2.261
 6871TIP3    H120490   4.175   8.761   2.218
 6871TIP3    H220491   4.205   8.831   2.349
 6872TIP3   OH220492   4.682   8.510   2.107
 6872TIP3    H120493   4.749   8.442   2.103
 6872TIP3    H220494   4.641   8.508   2.020
 6873TIP3   OH220495   4.746   8.725   2.267
 6873TIP3    H120496   4.727   8.655   2.204
 6873TIP3    H220497   4.672   8.785   2.260
 6874TIP3   OH220498   5.111   9.119   0.832
 6874TIP3    H120499   5.109   9.024   0.821
 6874TIP3    H220500   5.077   9.133   0.920
 6875TIP3   OH220501   8.793   0.145   1.692
 6875TIP3    H120502   8.716   0.095   1.719
 6875TIP3    H220503   8.866   0.083   1.698
 6876TIP3   OH220504   5.071   8.857   0.727
 6876TIP3    H120505   5.097   8.766   0.740
 6876TIP3    H220506   5.079   8.871   0.633
 6877TIP3   OH220507   5.219   9.029   1.190
 6877TIP3    H120508   5.299   9.053   1.144
 6877TIP3    H220509   5.233   9.059   1.280
 6878TIP3   OH220510   5.297   9.156   1.420
 6878TIP3    H120511   5.221   9.183   1.472
 6878TIP3    H220512   5.344   9.238   1.403
 6879TIP3   OH220513   3.901   8.907   2.240
 6879TIP3    H120514   3.996   8.898   2.231
 6879TIP3    H220515   3.872   8.823   2.274
 6880TIP3   OH220516   5.740   8.763   1.985
 6880TIP3    H120517   5.797   8.696   1.946
 6880TIP3    H220518   5.711   8.817   1.911
 6881TIP3   OH220519   5.149   8.600   0.754
 6881TIP3    H120520   5.206   8.583   0.829
 6881TIP3    H220521   5.090   8.525   0.750
 6882TIP3   OH220522   3.863   8.584   1.568
 6882TIP3    H120523   3.925   8.511   1.573
 6882TIP3    H220524   3.918   8.661   1.554
 6883TIP3   OH220525   3.668   8.872   1.640
 6883TIP3    H120526   3.713   8.856   1.557
 6883TIP3    H220527   3.691   8.961   1.664
 6884TIP3   OH220528   5.608   8.903   1.791
 6884TIP3    H120529   5.521   8.941   1.805
 6884TIP3    H220530   5.592   8.829   1.732
 6885TIP3   OH220531   3.650   8.369   1.135
 6885TIP3    H120532   3.558   8.363   1.161
 6885TIP3    H220533   3.649   8.423   1.056
 6886TIP3   OH220534   3.869   8.450   1.952
 6886TIP3    H120535   3.818   8.441   2.032
 6886TIP3    H220536   3.807   8.484   1.888
 6887TIP3   OH220537   5.505   8.661   1.671
 6887TIP3    H120538   5.416   8.656   1.635
 6887TIP3    H220539   5.539   8.572   1.662
 6888TIP3   OH220540   4.718   8.580   1.296
 6888TIP3    H120541   4.670   8.511   1.342
 6888TIP3    H220542   4.782   8.534   1.242
 6889TIP3   OH220543   5.235   8.467   1.200
 6889TIP3    H120544   5.273   8.513   1.125
 6889TIP3    H220545   5.141   8.476   1.189
 6890TIP3   OH220546   5.332   8.565   0.964
 6890TIP3    H120547   5.400   8.511   0.924
 6890TIP3    H220548   5.359   8.655   0.944
 6891TIP3   OH220549   3.960   8.285   1.308
 6891TIP3    H120550   3.869   8.256   1.308
 6891TIP3    H220551   4.011   8.204   1.304
 6892TIP3   OH220552   3.744   8.158   0.952
 6892TIP3    H120553   3.780   8.212   0.881
 6892TIP3    H220554   3.720   8.221   1.020
 6893TIP3   OH220555   4.404   8.321   1.189
 6893TIP3    H120556   4.456   8.366   1.123
 6893TIP3    H220557   4.431   8.360   1.272
 6894TIP3   OH220558   4.955   8.464   1.169
 6894TIP3    H120559   4.947   8.434   1.079
 6894TIP3    H220560   4.939   8.385   1.222
 6895TIP3   OH220561   4.979   8.383   0.739
 6895TIP3    H120562   4.894   8.423   0.718
 6895TIP3    H220563   4.956   8.303   0.786
 6896TIP3   OH220564   3.869   8.319   0.720
 6896TIP3    H120565   3.909   8.252   0.665
 6896TIP3    H220566   3.943   8.368   0.756
 6897TIP3   OH220567   4.367   8.485   0.850
 6897TIP3    H120568   4.442   8.443   0.890
 6897TIP3    H220569   4.390   8.578   0.848
 6898TIP3   OH220570   4.169   8.568   2.201
 6898TIP3    H120571   4.135   8.496   2.254
 6898TIP3    H220572   4.262   8.571   2.222
 6899TIP3   OH220573   4.419   8.566   2.318
 6899TIP3    H120574   4.501   8.544   2.273
 6899TIP3    H220575   4.407   8.496   2.382
 6900TIP3   OH220576   5.245   8.626   2.105
 6900TIP3    H120577   5.262   8.595   2.194
 6900TIP3    H220578   5.330   8.621   2.061
 6901TIP3   OH220579   5.623   9.124   0.887
 6901TIP3    H120580   5.704   9.114   0.936
 6901TIP3    H220581   5.632   9.063   0.813
 6902TIP3   OH220582   5.989   8.930   1.224
 6902TIP3    H120583   5.931   8.951   1.151
 6902TIP3    H220584   5.935   8.944   1.302
 6903TIP3   OH220585   5.868   9.031   0.994
 6903TIP3    H120586   5.928   9.099   1.023
 6903TIP3    H220587   5.896   9.011   0.904
 6904TIP3   OH220588   6.361   8.626   0.964
 6904TIP3    H120589   6.327   8.538   0.981
 6904TIP3    H220590   6.283   8.682   0.969
 6905TIP3   OH220591   6.105   8.714   1.069
 6905TIP3    H120592   6.019   8.682   1.043
 6905TIP3    H220593   6.087   8.801   1.106
 6906TIP3   OH220594   6.643   8.839   1.260
 6906TIP3    H120595   6.707   8.805   1.322
 6906TIP3    H220596   6.558   8.816   1.299
 6907TIP3   OH220597   0.367   0.032   1.187
 6907TIP3    H120598   0.321   0.013   1.269
 6907TIP3    H220599   0.305   0.084   1.136
 6908TIP3   OH220600   9.291  -0.001   1.068
 6908TIP3    H120601   9.245   0.014   1.151
 6908TIP3    H220602   9.305   0.087   1.033
 6909TIP3   OH220603   0.072   0.229   1.413
 6909TIP3    H120604   0.062   0.146   1.459
 6909TIP3    H220605   0.162   0.255   1.431
 6910TIP3   OH220606   9.137   0.025   1.321
 6910TIP3    H120607   9.096   0.066   1.398
 6910TIP3    H220608   9.113  -0.067   1.328
 6911TIP3   OH220609   5.464   8.785   0.874
 6911TIP3    H120610   5.532   8.813   0.935
 6911TIP3    H220611   5.512   8.740   0.804
 6912TIP3   OH220612   6.306   9.150   1.081
 6912TIP3    H120613   6.231   9.191   1.036
 6912TIP3    H220614   6.368   9.222   1.095
 6913TIP3   OH220615   9.614   0.269   1.506
 6913TIP3    H120616   9.565   0.242   1.428
 6913TIP3    H220617   9.700   0.230   1.495
 6914TIP3   OH220618   5.827   9.003   1.441
 6914TIP3    H120619   5.731   9.005   1.450
 6914TIP3    H220620   5.856   8.938   1.506
 6915TIP3   OH220621   6.660   9.095   1.147
 6915TIP3    H120622   6.755   9.097   1.159
 6915TIP3    H220623   6.635   9.006   1.170
 6916TIP3   OH220624   9.765   0.078   1.197
 6916TIP3    H120625   9.809   0.120   1.271
 6916TIP3    H220626   9.815  -0.003   1.182
 6917TIP3   OH220627   7.169   9.205   1.155
 6917TIP3    H120628   7.081   9.228   1.182
 6917TIP3    H220629   7.170   9.218   1.060
 6918TIP3   OH220630   5.840   8.636   1.047
 6918TIP3    H120631   5.812   8.608   0.960
 6918TIP3    H220632   5.834   8.557   1.101
 6919TIP3   OH220633   9.094   0.285   1.644
 6919TIP3    H120634   9.127   0.201   1.676
 6919TIP3    H220635   9.082   0.338   1.723
 6920TIP3   OH220636   9.403   0.128   1.308
 6920TIP3    H120637   9.309   0.115   1.315
 6920TIP3    H220638   9.421   0.127   1.214
 6921TIP3   OH220639   6.256   9.186   1.473
 6921TIP3    H120640   6.260   9.103   1.426
 6921TIP3    H220641   6.214   9.246   1.411
 6922TIP3   OH220642   6.248   8.987   1.283
 6922TIP3    H120643   6.279   9.036   1.207
 6922TIP3    H220644   6.157   8.964   1.262
 6923TIP3   OH220645   0.348   0.270   1.520
 6923TIP3    H120646   0.353   0.176   1.539
 6923TIP3    H220647   0.433   0.291   1.481
 6924TIP3   OH220648   9.382   0.084   1.688
 6924TIP3    H120649   9.322   0.011   1.699
 6924TIP3    H220650   9.427   0.067   1.606
 6925TIP3   OH220651   6.386   8.758   1.337
 6925TIP3    H120652   6.338   8.838   1.316
 6925TIP3    H220653   6.323   8.688   1.322
 6926TIP3   OH220654   9.778   0.013   1.553
 6926TIP3    H120655   9.770   0.003   1.647
 6926TIP3    H220656   9.694  -0.016   1.518
 6927TIP3   OH220657   6.763   9.223   1.417
 6927TIP3    H120658   6.681   9.200   1.462
 6927TIP3    H220659   6.832   9.183   1.470
 6928TIP3   OH220660   6.979   9.151   1.569
 6928TIP3    H120661   6.992   9.058   1.585
 6928TIP3    H220662   6.979   9.190   1.657
 6929TIP3   OH220663   5.966   9.102   1.747
 6929TIP3    H120664   5.968   9.015   1.706
 6929TIP3    H220665   6.002   9.088   1.835
 6930TIP3   OH220666   6.479   8.767   1.594
 6930TIP3    H120667   6.545   8.697   1.589
 6930TIP3    H220668   6.437   8.766   1.508
 6931TIP3   OH220669   6.543   8.982   1.754
 6931TIP3    H120670   6.524   8.913   1.691
 6931TIP3    H220671   6.468   9.041   1.748
 6932TIP3   OH220672   5.700   9.165   1.730
 6932TIP3    H120673   5.794   9.153   1.719
 6932TIP3    H220674   5.668   9.081   1.762
 6933TIP3   OH220675   7.518   9.026   1.455
 6933TIP3    H120676   7.568   8.945   1.447
 6933TIP3    H220677   7.479   9.039   1.368
 6934TIP3   OH220678   5.663   8.845   1.056
 6934TIP3    H120679   5.717   8.767   1.060
 6934TIP3    H220680   5.725   8.916   1.039
 6935TIP3   OH220681   5.468   9.126   1.124
 6935TIP3    H120682   5.509   9.112   1.038
 6935TIP3    H220683   5.487   9.217   1.145
 6936TIP3   OH220684   5.666   8.710   1.442
 6936TIP3    H120685   5.613   8.698   1.521
 6936TIP3    H220686   5.605   8.741   1.376
 6937TIP3   OH220687   7.318   8.915   1.171
 6937TIP3    H120688   7.229   8.919   1.135
 6937TIP3    H220689   7.351   8.829   1.145
 6938TIP3   OH220690   5.746   8.543   0.810
 6938TIP3    H120691   5.659   8.509   0.793
 6938TIP3    H220692   5.805   8.469   0.792
 6939TIP3   OH220693   5.964   8.829   1.691
 6939TIP3    H120694   5.930   8.755   1.741
 6939TIP3    H220695   6.058   8.829   1.710
 6940TIP3   OH220696   6.217   8.824   1.806
 6940TIP3    H120697   6.296   8.799   1.759
 6940TIP3    H220698   6.202   8.754   1.869
 6941TIP3   OH220699   7.041   8.882   1.593
 6941TIP3    H120700   7.059   8.851   1.681
 6941TIP3    H220701   7.125   8.876   1.547
 6942TIP3   OH220702   1.779   0.223   6.064
 6942TIP3    H120703   1.839   0.170   6.116
 6942TIP3    H220704   1.789   0.312   6.099
 6943TIP3   OH220705   1.399   0.648   6.082
 6943TIP3    H120706   1.441   0.579   6.031
 6943TIP3    H220707   1.428   0.632   6.172
 6944TIP3   OH220708   1.816   0.445   6.235
 6944TIP3    H120709   1.735   0.449   6.286
 6944TIP3    H220710   1.825   0.533   6.197
 6945TIP3   OH220711   1.538   0.488   5.906
 6945TIP3    H120712   1.578   0.404   5.882
 6945TIP3    H220713   1.599   0.553   5.872
 6946TIP3   OH220714   1.646   0.247   5.815
 6946TIP3    H120715   1.682   0.189   5.748
 6946TIP3    H220716   1.709   0.242   5.887
 6947TIP3   OH220717   2.081   0.355   6.577
 6947TIP3    H120718   2.042   0.278   6.537
 6947TIP3    H220719   2.050   0.428   6.525
 6948TIP3   OH220720   2.275   0.007   6.426
 6948TIP3    H120721   2.181   0.021   6.439
 6948TIP3    H220722   2.289   0.023   6.333
 6949TIP3   OH220723   1.856   0.302   5.231
 6949TIP3    H120724   1.860   0.397   5.216
 6949TIP3    H220725   1.946   0.272   5.217
 6950TIP3   OH220726   2.297   0.699   6.628
 6950TIP3    H120727   2.300   0.604   6.639
 6950TIP3    H220728   2.217   0.726   6.673
 6951TIP3   OH220729   1.167   0.624   5.705
 6951TIP3    H120730   1.123   0.608   5.621
 6951TIP3    H220731   1.136   0.710   5.733
 6952TIP3   OH220732   1.372   0.516   5.359
 6952TIP3    H120733   1.431   0.452   5.318
 6952TIP3    H220734   1.405   0.525   5.448
 6953TIP3   OH220735   1.422   0.569   5.630
 6953TIP3    H120736   1.335   0.577   5.669
 6953TIP3    H220737   1.482   0.570   5.704
 6954TIP3   OH220738   1.986   1.053   6.724
 6954TIP3    H120739   1.984   1.072   6.630
 6954TIP3    H220740   2.064   1.098   6.756
 6955TIP3   OH220741   2.017   0.133   6.411
 6955TIP3    H120742   2.066   0.182   6.345
 6955TIP3    H220743   1.925   0.148   6.389
 6956TIP3   OH220744   2.321   0.416   6.665
 6956TIP3    H120745   2.225   0.409   6.667
 6956TIP3    H220746   2.346   0.383   6.579
 6957TIP3   OH220747   1.795   0.360   5.494
 6957TIP3    H120748   1.764   0.282   5.541
 6957TIP3    H220749   1.803   0.331   5.403
 6958TIP3   OH220750   1.574   0.108   5.395
 6958TIP3    H120751   1.602   0.074   5.480
 6958TIP3    H220752   1.479   0.102   5.397
 6959TIP3   OH220753   1.828   0.739   6.559
 6959TIP3    H120754   1.745   0.691   6.555
 6959TIP3    H220755   1.818   0.810   6.496
 6960TIP3   OH220756   1.887   0.580   5.218
 6960TIP3    H120757   1.929   0.650   5.169
 6960TIP3    H220758   1.805   0.618   5.250
 6961TIP3   OH220759   1.721   0.036   5.645
 6961TIP3    H120760   1.707  -0.053   5.679
 6961TIP3    H220761   1.811   0.035   5.613
 6962TIP3   OH220762   1.845   0.708   6.153
 6962TIP3    H120763   1.799   0.755   6.083
 6962TIP3    H220764   1.937   0.730   6.141
 6963TIP3   OH220765   1.808   0.590   6.887
 6963TIP3    H120766   1.719   0.580   6.921
 6963TIP3    H220767   1.844   0.664   6.936
 6964TIP3   OH220768   1.532   0.337   5.228
 6964TIP3    H120769   1.566   0.264   5.279
 6964TIP3    H220770   1.578   0.332   5.145
 6965TIP3   OH220771   8.425   9.077   5.234
 6965TIP3    H120772   8.393   9.024   5.161
 6965TIP3    H220773   8.381   9.161   5.224
 6966TIP3   OH220774   2.092   0.809   6.115
 6966TIP3    H120775   2.127   0.846   6.196
 6966TIP3    H220776   2.159   0.826   6.050
 6967TIP3   OH220777   2.126   0.825   6.402
 6967TIP3    H120778   2.084   0.740   6.391
 6967TIP3    H220779   2.204   0.806   6.454
 6968TIP3   OH220780   2.188   0.500   6.963
 6968TIP3    H120781   2.110   0.500   7.019
 6968TIP3    H220782   2.222   0.589   6.969
 6969TIP3   OH220783   1.992   0.018   5.596
 6969TIP3    H120784   2.059   0.079   5.566
 6969TIP3    H220785   2.032  -0.027   5.670
 6970TIP3   OH220786   8.648   9.127   5.806
 6970TIP3    H120787   8.580   9.139   5.872
 6970TIP3    H220788   8.727   9.163   5.846
 6971TIP3   OH220789   2.162   0.269   6.221
 6971TIP3    H120790   2.221   0.207   6.179
 6971TIP3    H220791   2.169   0.348   6.169
 6972TIP3   OH220792   2.002   0.573   6.422
 6972TIP3    H120793   1.938   0.620   6.475
 6972TIP3    H220794   1.949   0.530   6.354
 6973TIP3   OH220795   8.589   9.035   5.441
 6973TIP3    H120796   8.529   9.042   5.367
 6973TIP3    H220797   8.561   9.104   5.501
 6974TIP3   OH220798   2.227   0.170   6.800
 6974TIP3    H120799   2.288   0.097   6.788
 6974TIP3    H220800   2.243   0.228   6.727
 6975TIP3   OH220801   8.927   9.193   6.817
 6975TIP3    H120802   8.865   9.123   6.839
 6975TIP3    H220803   9.013   9.154   6.834
 6976TIP3   OH220804   1.681   0.669   5.771
 6976TIP3    H120805   1.729   0.656   5.689
 6976TIP3    H220806   1.730   0.737   5.816
 6977TIP3   OH220807   1.580   0.925   6.683
 6977TIP3    H120808   1.632   0.845   6.670
 6977TIP3    H220809   1.624   0.970   6.755
 6978TIP3   OH220810   1.334   0.787   6.370
 6978TIP3    H120811   1.244   0.782   6.340
 6978TIP3    H220812   1.338   0.867   6.422
 6979TIP3   OH220813   1.583   0.709   6.428
 6979TIP3    H120814   1.493   0.734   6.406
 6979TIP3    H220815   1.636   0.783   6.399
 6980TIP3   OH220816   1.774   0.905   6.346
 6980TIP3    H120817   1.759   0.990   6.305
 6980TIP3    H220818   1.803   0.849   6.274
 6981TIP3   OH220819   1.112   0.497   5.430
 6981TIP3    H120820   1.203   0.525   5.415
 6981TIP3    H220821   1.101   0.420   5.375
 6982TIP3   OH220822   1.815   0.629   5.537
 6982TIP3    H120823   1.812   0.534   5.523
 6982TIP3    H220824   1.778   0.666   5.458
 6983TIP3   OH220825   2.053   0.784   6.732
 6983TIP3    H120826   1.978   0.741   6.691
 6983TIP3    H220827   2.030   0.877   6.731
 6984TIP3   OH220828   3.317   0.153   5.495
 6984TIP3    H120829   3.293   0.244   5.479
 6984TIP3    H220830   3.244   0.103   5.459
 6985TIP3   OH220831   3.319   0.152   5.874
 6985TIP3    H120832   3.350   0.119   5.958
 6985TIP3    H220833   3.274   0.077   5.834
 6986TIP3   OH220834   2.617   0.052   6.236
 6986TIP3    H120835   2.649  -0.013   6.299
 6986TIP3    H220836   2.687   0.116   6.230
 6987TIP3   OH220837   3.561   0.457   5.556
 6987TIP3    H120838   3.546   0.386   5.619
 6987TIP3    H220839   3.588   0.532   5.610
 6988TIP3   OH220840   2.594   0.448   5.975
 6988TIP3    H120841   2.583   0.353   5.973
 6988TIP3    H220842   2.689   0.461   5.965
 6989TIP3   OH220843   8.818   8.893   5.757
 6989TIP3    H120844   8.786   8.981   5.775
 6989TIP3    H220845   8.746   8.850   5.712
 6990TIP3   OH220846   8.893   9.184   5.912
 6990TIP3    H120847   8.938   9.112   5.956
 6990TIP3    H220848   8.960   9.223   5.855
 6991TIP3   OH220849   3.209   0.916   5.569
 6991TIP3    H120850   3.257   0.845   5.527
 6991TIP3    H220851   3.197   0.887   5.660
 6992TIP3   OH220852   3.120   0.377   5.923
 6992TIP3    H120853   3.152   0.301   5.876
 6992TIP3    H220854   3.199   0.426   5.948
 6993TIP3   OH220855   0.262   9.126   5.956
 6993TIP3    H120856   0.295   9.040   5.981
 6993TIP3    H220857   0.231   9.114   5.866
 6994TIP3   OH220858   9.039   8.980   6.026
 6994TIP3    H120859   9.112   8.958   6.083
 6994TIP3    H220860   9.053   8.927   5.947
 6995TIP3   OH220861   9.476   9.179   5.825
 6995TIP3    H120862   9.566   9.150   5.839
 6995TIP3    H220863   9.430   9.101   5.793
 6996TIP3   OH220864   0.910   9.125   6.112
 6996TIP3    H120865   0.847   9.191   6.083
 6996TIP3    H220866   0.957   9.168   6.184
 6997TIP3   OH220867   3.212   0.376   5.368
 6997TIP3    H120868   3.177   0.350   5.283
 6997TIP3    H220869   3.170   0.460   5.386
 6998TIP3   OH220870   2.974   0.297   6.158
 6998TIP3    H120871   2.910   0.358   6.194
 6998TIP3    H220872   3.013   0.344   6.084
 6999TIP3   OH220873   9.277   8.886   6.127
 6999TIP3    H120874   9.340   8.955   6.149
 6999TIP3    H220875   9.313   8.846   6.048
 7000TIP3   OH220876   2.796   0.492   6.248
 7000TIP3    H120877   2.775   0.575   6.206
 7000TIP3    H220878   2.721   0.473   6.305
 7001TIP3   OH220879   2.195   0.188   5.481
 7001TIP3    H120880   2.135   0.217   5.412
 7001TIP3    H220881   2.222   0.269   5.524
 7002TIP3   OH220882   3.631   0.699   5.724
 7002TIP3    H120883   3.545   0.689   5.764
 7002TIP3    H220884   3.626   0.784   5.679
 7003TIP3   OH220885   3.339   0.742   5.398
 7003TIP3    H120886   3.386   0.661   5.378
 7003TIP3    H220887   3.394   0.811   5.361
 7004TIP3   OH220888   3.477   0.527   5.304
 7004TIP3    H120889   3.445   0.448   5.261
 7004TIP3    H220890   3.513   0.496   5.388
 7005TIP3   OH220891   3.858   0.611   6.066
 7005TIP3    H120892   3.846   0.535   6.009
 7005TIP3    H220893   3.839   0.687   6.010
 7006TIP3   OH220894   3.146   0.012   5.326
 7006TIP3    H120895   3.062   0.043   5.293
 7006TIP3    H220896   3.200   0.001   5.248
 7007TIP3   OH220897   9.649   9.027   5.041
 7007TIP3    H120898   9.721   9.078   5.075
 7007TIP3    H220899   9.684   8.938   5.032
 7008TIP3   OH220900   4.050   0.247   5.912
 7008TIP3    H120901   3.968   0.296   5.920
 7008TIP3    H220902   4.082   0.268   5.824
 7009TIP3   OH220903   3.501   0.091   5.300
 7009TIP3    H120904   3.445   0.114   5.375
 7009TIP3    H220905   3.583   0.062   5.340
 7010TIP3   OH220906   3.728   0.135   6.200
 7010TIP3    H120907   3.728   0.218   6.249
 7010TIP3    H220908   3.644   0.136   6.153
 7011TIP3   OH220909   2.733   0.085   5.711
 7011TIP3    H120910   2.687   0.029   5.648
 7011TIP3    H220911   2.806   0.031   5.742
 7012TIP3   OH220912   2.860   0.494   5.861
 7012TIP3    H120913   2.839   0.447   5.780
 7012TIP3    H220914   2.949   0.465   5.884
 7013TIP3   OH220915   2.872   0.053   6.070
 7013TIP3    H120916   2.899   0.031   5.981
 7013TIP3    H220917   2.911   0.139   6.087
 7014TIP3   OH220918   3.393   0.694   5.845
 7014TIP3    H120919   3.376   0.774   5.894
 7014TIP3    H220920   3.376   0.624   5.908
 7015TIP3   OH220921   2.999   0.613   6.393
 7015TIP3    H120922   2.943   0.676   6.438
 7015TIP3    H220923   2.938   0.559   6.342
 7016TIP3   OH220924   0.056   9.199   5.125
 7016TIP3    H120925   0.129   9.233   5.177
 7016TIP3    H220926   0.085   9.209   5.034
 7017TIP3   OH220927   2.737   0.179   6.490
 7017TIP3    H120928   2.747   0.262   6.537
 7017TIP3    H220929   2.647   0.153   6.506
 7018TIP3   OH220930   3.077   0.631   5.381
 7018TIP3    H120931   3.157   0.673   5.413
 7018TIP3    H220932   3.014   0.702   5.370
 7019TIP3   OH220933   2.796   0.783   6.478
 7019TIP3    H120934   2.764   0.783   6.388
 7019TIP3    H220935   2.719   0.760   6.530
 7020TIP3   OH220936   9.122   9.173   5.523
 7020TIP3    H120937   9.051   9.200   5.464
 7020TIP3    H220938   9.109   9.079   5.534
 7021TIP3   OH220939   3.650   0.558   4.717
 7021TIP3    H120940   3.655   0.653   4.706
 7021TIP3    H220941   3.740   0.527   4.702
 7022TIP3   OH220942   2.379   0.311   6.423
 7022TIP3    H120943   2.311   0.290   6.357
 7022TIP3    H220944   2.411   0.225   6.451
 7023TIP3   OH220945   2.233   0.500   6.069
 7023TIP3    H120946   2.325   0.499   6.042
 7023TIP3    H220947   2.222   0.586   6.111
 7024TIP3   OH220948   4.094   0.955   6.116
 7024TIP3    H120949   4.093   0.860   6.127
 7024TIP3    H220950   4.013   0.984   6.158
 7025TIP3   OH220951   3.201   0.742   6.252
 7025TIP3    H120952   3.202   0.834   6.280
 7025TIP3    H220953   3.130   0.702   6.302
 7026TIP3   OH220954   2.959   0.872   5.199
 7026TIP3    H120955   2.916   0.864   5.113
 7026TIP3    H220956   2.923   0.952   5.236
 7027TIP3   OH220957   3.164   0.769   4.843
 7027TIP3    H120958   3.222   0.704   4.804
 7027TIP3    H220959   3.198   0.782   4.931
 7028TIP3   OH220960   3.212   0.818   5.114
 7028TIP3    H120961   3.126   0.832   5.153
 7028TIP3    H220962   3.266   0.784   5.185
 7029TIP3   OH220963   3.986   0.080   6.404
 7029TIP3    H120964   3.913   0.124   6.360
 7029TIP3    H220965   4.003   0.002   6.352
 7030TIP3   OH220966   2.583   0.493   6.416
 7030TIP3    H120967   2.631   0.478   6.497
 7030TIP3    H220968   2.508   0.433   6.420
 7031TIP3   OH220969   0.399   9.190   6.405
 7031TIP3    H120970   0.427   9.102   6.381
 7031TIP3    H220971   0.406   9.241   6.325
 7032TIP3   OH220972   3.411   0.001   4.866
 7032TIP3    H120973   3.379  -0.041   4.786
 7032TIP3    H220974   3.492   0.045   4.840
 7033TIP3   OH220975   9.454   9.075   6.224
 7033TIP3    H120976   9.395   9.091   6.298
 7033TIP3    H220977   9.439   9.148   6.165
 7034TIP3   OH220978   9.315   8.983   5.722
 7034TIP3    H120979   9.241   8.931   5.756
 7034TIP3    H220980   9.340   8.938   5.641
 7035TIP3   OH220981   0.024   9.053   5.448
 7035TIP3    H120982  -0.033   9.123   5.418
 7035TIP3    H220983   0.073   9.027   5.370
 7036TIP3   OH220984   3.459   0.127   6.508
 7036TIP3    H120985   3.472   0.221   6.518
 7036TIP3    H220986   3.544   0.088   6.530
 7037TIP3   OH220987   0.181   9.076   5.692
 7037TIP3    H120988   0.123   9.110   5.624
 7037TIP3    H220989   0.215   8.994   5.655
 7038TIP3   OH220990   9.271   9.115   6.421
 7038TIP3    H120991   9.277   9.174   6.496
 7038TIP3    H220992   9.225   9.039   6.455
 7039TIP3   OH220993   3.463   0.083   6.127
 7039TIP3    H120994   3.488   0.011   6.068
 7039TIP3    H220995   3.420   0.039   6.201
 7040TIP3   OH220996   9.086   8.835   5.798
 7040TIP3    H120997   8.995   8.853   5.775
 7040TIP3    H220998   9.098   8.742   5.777
 7041TIP3   OH220999   9.375   8.855   5.486
 7041TIP3    H121000   9.462   8.830   5.455
 7041TIP3    H221001   9.318   8.847   5.409
 7042TIP3   OH221002   9.187   8.875   5.262
 7042TIP3    H121003   9.132   8.820   5.206
 7042TIP3    H221004   9.253   8.911   5.203
 7043TIP3   OH221005   3.786   1.307   6.211
 7043TIP3    H121006   3.781   1.330   6.118
 7043TIP3    H221007   3.862   1.356   6.244
 7044TIP3   OH221008   2.744   0.417   6.637
 7044TIP3    H121009   2.824   0.447   6.681
 7044TIP3    H221010   2.677   0.416   6.705
 7045TIP3   OH221011   9.745   9.112   5.898
 7045TIP3    H121012   9.801   9.060   5.841
 7045TIP3    H221013   9.739   9.061   5.979
 7046TIP3   OH221014   9.722   8.999   6.192
 7046TIP3    H121015   9.633   9.034   6.198
 7046TIP3    H221016   9.774   9.056   6.248
 7047TIP3   OH221017   2.886   0.190   5.262
 7047TIP3    H121018   2.840   0.106   5.255
 7047TIP3    H221019   2.891   0.207   5.356
 7048TIP3   OH221020   3.821   0.392   5.902
 7048TIP3    H121021   3.845   0.442   5.824
 7048TIP3    H221022   3.737   0.351   5.880
 7049TIP3   OH221023   3.325   0.483   6.271
 7049TIP3    H121024   3.332   0.457   6.363
 7049TIP3    H221025   3.281   0.568   6.274
 7050TIP3   OH221026   2.613   0.171   5.948
 7050TIP3    H121027   2.652   0.147   5.865
 7050TIP3    H221028   2.651   0.110   6.011
 7051TIP3   OH221029   3.071   0.308   5.098
 7051TIP3    H121030   3.026   0.392   5.103
 7051TIP3    H221031   3.018   0.249   5.152
 7052TIP3   OH221032   2.490   0.100   6.569
 7052TIP3    H121033   2.503   0.082   6.662
 7052TIP3    H221034   2.417   0.045   6.543
 7053TIP3   OH221035   3.205   0.217   6.590
 7053TIP3    H121036   3.126   0.176   6.554
 7053TIP3    H221037   3.276   0.180   6.537
 7054TIP3   OH221038   3.481   0.736   6.170
 7054TIP3    H121039   3.386   0.732   6.178
 7054TIP3    H221040   3.509   0.788   6.245
 7055TIP3   OH221041   0.665   9.001   5.025
 7055TIP3    H121042   0.583   8.973   4.984
 7055TIP3    H221043   0.665   9.096   5.017
 7056TIP3   OH221044   4.106   0.660   6.155
 7056TIP3    H121045   4.011   0.660   6.150
 7056TIP3    H221046   4.135   0.635   6.068
 7057TIP3   OH221047   3.594   0.624   4.985
 7057TIP3    H121048   3.562   0.557   5.046
 7057TIP3    H221049   3.600   0.579   4.901
 7058TIP3   OH221050   3.586   0.252   5.825
 7058TIP3    H121051   3.493   0.232   5.837
 7058TIP3    H221052   3.621   0.177   5.778
 7059TIP3   OH221053   2.703   0.484   5.561
 7059TIP3    H121054   2.704   0.572   5.523
 7059TIP3    H221055   2.617   0.477   5.602
 7060TIP3   OH221056   8.806   9.024   5.276
 7060TIP3    H121057   8.855   9.104   5.295
 7060TIP3    H221058   8.732   9.027   5.337
 7061TIP3   OH221059   2.854   0.253   5.521
 7061TIP3    H121060   2.813   0.338   5.538
 7061TIP3    H221061   2.822   0.197   5.591
 7062TIP3   OH221062   2.985   0.828   6.047
 7062TIP3    H121063   3.018   0.899   5.993
 7062TIP3    H221064   3.061   0.796   6.094
 7063TIP3   OH221065   2.622   0.728   5.429
 7063TIP3    H121066   2.549   0.755   5.484
 7063TIP3    H221067   2.675   0.807   5.418
 7064TIP3   OH221068   3.372   0.460   6.004
 7064TIP3    H121069   3.363   0.463   6.099
 7064TIP3    H221070   3.451   0.408   5.988
 7065TIP3   OH221071   3.345   0.354   4.889
 7065TIP3    H121072   3.401   0.331   4.963
 7065TIP3    H221073   3.258   0.322   4.914
 7066TIP3   OH221074   3.618   0.996   6.050
 7066TIP3    H121075   3.540   0.941   6.045
 7066TIP3    H221076   3.606   1.062   5.982
 7067TIP3   OH221077   3.684   0.833   4.706
 7067TIP3    H121078   3.715   0.898   4.643
 7067TIP3    H221079   3.605   0.871   4.743
 7068TIP3   OH221080   3.507   0.291   5.105
 7068TIP3    H121081   3.490   0.223   5.170
 7068TIP3    H221082   3.601   0.287   5.090
 7069TIP3   OH221083   2.421   0.690   6.212
 7069TIP3    H121084   2.473   0.612   6.233
 7069TIP3    H221085   2.456   0.759   6.269
 7070TIP3   OH221086   2.383   0.028   5.360
 7070TIP3    H121087   2.320   0.075   5.415
 7070TIP3    H221088   2.436   0.098   5.319
 7071TIP3   OH221089   2.891   0.523   5.099
 7071TIP3    H121090   2.834   0.586   5.145
 7071TIP3    H221091   2.950   0.578   5.047
 7072TIP3   OH221092   9.668   8.836   5.519
 7072TIP3    H121093   9.710   8.919   5.497
 7072TIP3    H221094   9.627   8.852   5.605
 7073TIP3   OH221095   0.108   9.146   6.350
 7073TIP3    H121096   0.123   9.222   6.407
 7073TIP3    H221097   0.192   9.101   6.346
 7074TIP3   OH221098   2.649   0.589   5.182
 7074TIP3    H121099   2.622   0.651   5.115
 7074TIP3    H221100   2.630   0.634   5.265
 7075TIP3   OH221101   0.405   9.255   5.696
 7075TIP3    H121102   0.333   9.193   5.707
 7075TIP3    H221103   0.479   9.213   5.741
 7076TIP3   OH221104   8.838   8.738   5.286
 7076TIP3    H121105   8.890   8.819   5.283
 7076TIP3    H221106   8.753   8.765   5.321
 7077TIP3   OH221107   3.642   0.970   5.643
 7077TIP3    H121108   3.595   1.014   5.572
 7077TIP3    H221109   3.734   0.987   5.626
 7078TIP3   OH221110   2.248   0.442   5.562
 7078TIP3    H121111   2.209   0.496   5.631
 7078TIP3    H221112   2.248   0.498   5.484
 7079TIP3   OH221113   2.411   0.995   6.628
 7079TIP3    H121114   2.496   0.996   6.671
 7079TIP3    H221115   2.387   0.903   6.623
 7080TIP3   OH221116   2.895   0.962   6.669
 7080TIP3    H121117   2.989   0.947   6.676
 7080TIP3    H221118   2.866   0.907   6.597
 7081TIP3   OH221119   2.885   0.534   4.795
 7081TIP3    H121120   2.866   0.460   4.852
 7081TIP3    H221121   2.955   0.503   4.737
 7082TIP3   OH221122   3.532   0.869   6.407
 7082TIP3    H121123   3.527   0.799   6.472
 7082TIP3    H221124   3.608   0.921   6.434
 7083TIP3   OH221125   3.311   0.579   4.708
 7083TIP3    H121126   3.356   0.517   4.765
 7083TIP3    H221127   3.365   0.582   4.628
 7084TIP3   OH221128   2.546   0.407   6.823
 7084TIP3    H121129   2.557   0.314   6.838
 7084TIP3    H221130   2.460   0.415   6.782
 7085TIP3   OH221131   3.153   0.492   6.597
 7085TIP3    H121132   3.105   0.506   6.515
 7085TIP3    H221133   3.177   0.399   6.594
 7086TIP3   OH221134   3.017   0.256   4.833
 7086TIP3    H121135   3.038   0.262   4.926
 7086TIP3    H221136   3.015   0.162   4.815
 7087TIP3   OH221137   3.644   0.498   6.206
 7087TIP3    H121138   3.716   0.544   6.161
 7087TIP3    H221139   3.569   0.557   6.197
 7088TIP3   OH221140   2.657   0.125   6.814
 7088TIP3    H121141   2.736   0.077   6.789
 7088TIP3    H221142   2.679   0.164   6.899
 7089TIP3   OH221143   9.276   9.200   5.257
 7089TIP3    H121144   9.240   9.149   5.330
 7089TIP3    H221145   9.296   9.134   5.190
 7090TIP3   OH221146   2.995   0.098   6.464
 7090TIP3    H121147   2.905   0.132   6.469
 7090TIP3    H221148   3.011   0.091   6.370
 7091TIP3   OH221149   9.363   8.999   5.083
 7091TIP3    H121150   9.333   8.996   4.992
 7091TIP3    H221151   9.458   9.001   5.077
 7092TIP3   OH221152   3.507   0.391   6.590
 7092TIP3    H121153   3.597   0.414   6.567
 7092TIP3    H221154   3.514   0.354   6.679
 7093TIP3   OH221155   3.653   0.086   4.740
 7093TIP3    H121156   3.631   0.036   4.661
 7093TIP3    H221157   3.621   0.174   4.723
 7094TIP3   OH221158   9.613   9.108   6.588
 7094TIP3    H121159   9.624   9.028   6.536
 7094TIP3    H221160   9.610   9.178   6.523
 7095TIP3   OH221161   3.186   0.144   6.251
 7095TIP3    H121162   3.251   0.160   6.182
 7095TIP3    H221163   3.116   0.207   6.233
 7096TIP3   OH221164   3.736   0.112   6.669
 7096TIP3    H121165   3.764   0.023   6.647
 7096TIP3    H221166   3.798   0.168   6.621
 7097TIP3   OH221167   3.778   0.353   6.387
 7097TIP3    H121168   3.714   0.403   6.336
 7097TIP3    H221169   3.863   0.377   6.349
 7098TIP3   OH221170   9.507   9.179   6.826
 7098TIP3    H121171   9.438   9.113   6.831
 7098TIP3    H221172   9.552   9.160   6.744
 7099TIP3   OH221173   0.189   9.209   6.744
 7099TIP3    H121174   0.106   9.208   6.792
 7099TIP3    H221175   0.164   9.222   6.653
 7100TIP3   OH221176   2.635   0.794   4.974
 7100TIP3    H121177   2.729   0.804   4.965
 7100TIP3    H221178   2.598   0.853   4.909
 7101TIP3   OH221179   2.111   0.196   5.190
 7101TIP3    H121180   2.206   0.207   5.193
 7101TIP3    H221181   2.098   0.108   5.155
 7102TIP3   OH221182   2.007   0.805   5.624
 7102TIP3    H121183   1.950   0.737   5.589
 7102TIP3    H221184   2.071   0.758   5.678
 7103TIP3   OH221185   2.161   0.655   5.799
 7103TIP3    H121186   2.161   0.591   5.870
 7103TIP3    H221187   2.216   0.727   5.832
 7104TIP3   OH221188   3.894   1.060   5.602
 7104TIP3    H121189   3.916   1.093   5.689
 7104TIP3    H221190   3.950   1.111   5.542
 7105TIP3   OH221191   3.921   1.079   5.884
 7105TIP3    H121192   3.878   0.994   5.879
 7105TIP3    H221193   3.998   1.064   5.939
 7106TIP3   OH221194   3.969   0.758   6.460
 7106TIP3    H121195   3.895   0.766   6.520
 7106TIP3    H221196   4.010   0.844   6.460
 7107TIP3   OH221197   3.790   0.271   5.078
 7107TIP3    H121198   3.857   0.334   5.054
 7107TIP3    H221199   3.824   0.228   5.157
 7108TIP3   OH221200   3.915   0.136   5.281
 7108TIP3    H121201   3.848   0.096   5.337
 7108TIP3    H221202   3.976   0.177   5.342
 7109TIP3   OH221203   3.968   0.530   5.713
 7109TIP3    H121204   4.018   0.467   5.662
 7109TIP3    H221205   3.956   0.605   5.654
 7110TIP3   OH221206   3.796   0.830   5.910
 7110TIP3    H121207   3.728   0.875   5.960
 7110TIP3    H221208   3.748   0.784   5.840
 7111TIP3   OH221209   3.846   0.040   4.931
 7111TIP3    H121210   3.781   0.044   4.861
 7111TIP3    H221211   3.825   0.114   4.989
 7112TIP3   OH221212   0.454   8.936   4.877
 7112TIP3    H121213   0.420   9.006   4.822
 7112TIP3    H221214   0.376   8.889   4.908
 7113TIP3   OH221215   0.464   9.241   5.430
 7113TIP3    H121216   0.453   9.149   5.407
 7113TIP3    H221217   0.450   9.245   5.525
 7114TIP3   OH221218   2.353   0.074   6.164
 7114TIP3    H121219   2.352   0.044   6.073
 7114TIP3    H221220   2.446   0.073   6.188
 7115TIP3   OH221221   4.022   0.415   6.283
 7115TIP3    H121222   4.093   0.353   6.268
 7115TIP3    H221223   4.040   0.487   6.223
 7116TIP3   OH221224   4.204   0.209   6.296
 7116TIP3    H121225   4.137   0.164   6.348
 7116TIP3    H221226   4.287   0.177   6.331
 7117TIP3   OH221227   0.454   8.995   5.322
 7117TIP3    H121228   0.497   8.929   5.378
 7117TIP3    H221229   0.492   8.981   5.236
 7118TIP3   OH221230   0.626   9.156   5.824
 7118TIP3    H121231   0.711   9.166   5.782
 7118TIP3    H221232   0.641   9.179   5.915
 7119TIP3   OH221233   3.952   0.041   6.067
 7119TIP3    H121234   3.870   0.079   6.099
 7119TIP3    H221235   3.989   0.109   6.010
 7120TIP3   OH221236   8.894   8.953   6.261
 7120TIP3    H121237   8.931   8.958   6.173
 7120TIP3    H221238   8.888   9.044   6.290
 7121TIP3   OH221239   3.477   0.927   5.258
 7121TIP3    H121240   3.528   0.914   5.178
 7121TIP3    H221241   3.524   0.995   5.305
 7122TIP3   OH221242   2.576   0.731   6.647
 7122TIP3    H121243   2.487   0.705   6.625
 7122TIP3    H221244   2.585   0.711   6.740
 7123TIP3   OH221245   2.757   0.765   6.191
 7123TIP3    H121246   2.703   0.835   6.155
 7123TIP3    H221247   2.842   0.777   6.150
 7124TIP3   OH221248   3.204   1.008   6.331
 7124TIP3    H121249   3.242   1.011   6.419
 7124TIP3    H221250   3.265   1.059   6.277
 7125TIP3   OH221251   3.382   1.160   6.191
 7125TIP3    H121252   3.450   1.110   6.145
 7125TIP3    H221253   3.430   1.218   6.250
 7126TIP3   OH221254   2.432   1.024   6.218
 7126TIP3    H121255   2.346   1.053   6.187
 7126TIP3    H221256   2.437   1.056   6.308
 7127TIP3   OH221257   2.670   1.000   6.073
 7127TIP3    H121258   2.586   1.013   6.118
 7127TIP3    H221259   2.653   1.029   5.983
 7128TIP3   OH221260   3.095   1.030   5.870
 7128TIP3    H121261   3.023   1.043   5.809
 7128TIP3    H221262   3.108   1.116   5.911
 7129TIP3   OH221263   3.362   0.969   5.921
 7129TIP3    H121264   3.269   0.984   5.905
 7129TIP3    H221265   3.406   1.045   5.881
 7130TIP3   OH221266   3.572   1.161   5.837
 7130TIP3    H121267   3.557   1.245   5.793
 7130TIP3    H221268   3.596   1.101   5.766
 7131TIP3   OH221269   2.328   0.804   5.969
 7131TIP3    H121270   2.370   0.783   6.053
 7131TIP3    H221271   2.395   0.786   5.903
 7132TIP3   OH221272   2.533   0.685   5.839
 7132TIP3    H121273   2.563   0.605   5.882
 7132TIP3    H221274   2.612   0.727   5.807
 7133TIP3   OH221275   2.813   0.780   5.814
 7133TIP3    H121276   2.836   0.687   5.810
 7133TIP3    H221277   2.842   0.807   5.901
 7134TIP3   OH221278   2.138   0.582   5.339
 7134TIP3    H121279   2.051   0.557   5.309
 7134TIP3    H221280   2.134   0.676   5.353
 7135TIP3   OH221281   2.906   0.773   4.931
 7135TIP3    H121282   2.993   0.800   4.903
 7135TIP3    H221283   2.881   0.703   4.871
 7136TIP3   OH221284   3.623   0.892   5.026
 7136TIP3    H121285   3.616   0.797   5.017
 7136TIP3    H221286   3.580   0.926   4.948
 7137TIP3   OH221287   2.213   0.614   4.993
 7137TIP3    H121288   2.195   0.642   5.082
 7137TIP3    H221289   2.297   0.569   4.998
 7138TIP3   OH221290   3.847   1.039   6.213
 7138TIP3    H121291   3.771   1.006   6.166
 7138TIP3    H221292   3.832   1.134   6.218
 7139TIP3   OH221293   5.113   0.410   4.982
 7139TIP3    H121294   5.089   0.501   4.965
 7139TIP3    H221295   5.039   0.360   4.948
 7140TIP3   OH221296   5.113   0.408   5.360
 7140TIP3    H121297   5.146   0.379   5.445
 7140TIP3    H221298   5.069   0.331   5.324
 7141TIP3   OH221299   4.415   0.309   5.725
 7141TIP3    H121300   4.450   0.245   5.788
 7141TIP3    H221301   4.488   0.370   5.711
 7142TIP3   OH221302   5.356   0.713   5.044
 7142TIP3    H121303   5.343   0.643   5.108
 7142TIP3    H221304   5.385   0.788   5.096
 7143TIP3   OH221305   4.385   0.712   5.451
 7143TIP3    H121306   4.375   0.617   5.454
 7143TIP3    H221307   4.480   0.726   5.449
 7144TIP3   OH221308   0.818   9.153   5.242
 7144TIP3    H121309   0.778   9.238   5.259
 7144TIP3    H221310   0.749   9.101   5.200
 7145TIP3   OH221311   4.156   0.203   5.408
 7145TIP3    H121312   4.202   0.128   5.446
 7145TIP3    H221313   4.214   0.235   5.340
 7146TIP3   OH221314   5.002   1.171   5.057
 7146TIP3    H121315   5.051   1.102   5.012
 7146TIP3    H221316   5.000   1.142   5.149
 7147TIP3   OH221317   4.916   0.634   5.411
 7147TIP3    H121318   4.949   0.558   5.362
 7147TIP3    H221319   4.994   0.683   5.435
 7148TIP3   OH221320   5.323   0.141   5.444
 7148TIP3    H121321   5.362   0.056   5.466
 7148TIP3    H221322   5.295   0.131   5.353
 7149TIP3   OH221323   1.033   9.232   5.515
 7149TIP3    H121324   1.110   9.212   5.569
 7149TIP3    H221325   1.046   9.183   5.434
 7150TIP3   OH221326   4.738   0.196   5.312
 7150TIP3    H121327   4.829   0.168   5.325
 7150TIP3    H221328   4.693   0.118   5.280
 7151TIP3   OH221329   5.968   0.143   5.588
 7151TIP3    H121330   5.903   0.203   5.552
 7151TIP3    H221331   6.013   0.193   5.656
 7152TIP3   OH221332   5.005   0.631   4.853
 7152TIP3    H121333   4.968   0.607   4.768
 7152TIP3    H221334   4.965   0.716   4.874
 7153TIP3   OH221335   4.770   0.554   5.645
 7153TIP3    H121336   4.706   0.616   5.680
 7153TIP3    H221337   4.811   0.600   5.572
 7154TIP3   OH221338   1.272   9.143   5.612
 7154TIP3    H121339   1.334   9.211   5.637
 7154TIP3    H221340   1.312   9.101   5.536
 7155TIP3   OH221341   4.590   0.749   5.734
 7155TIP3    H121342   4.572   0.834   5.694
 7155TIP3    H221343   4.515   0.731   5.790
 7156TIP3   OH221344   3.996   0.445   4.966
 7156TIP3    H121345   3.931   0.472   4.901
 7156TIP3    H221346   4.021   0.527   5.009
 7157TIP3   OH221347   5.426   0.956   5.211
 7157TIP3    H121348   5.339   0.946   5.250
 7157TIP3    H221349   5.422   1.040   5.166
 7158TIP3   OH221350   5.134   1.000   4.884
 7158TIP3    H121351   5.179   0.918   4.864
 7158TIP3    H221352   5.189   1.068   4.846
 7159TIP3   OH221353   5.272   0.784   4.792
 7159TIP3    H121354   5.242   0.706   4.747
 7159TIP3    H221355   5.307   0.752   4.876
 7160TIP3   OH221356   5.653   0.868   5.553
 7160TIP3    H121357   5.642   0.792   5.495
 7160TIP3    H221358   5.635   0.944   5.497
 7161TIP3   OH221359   4.945   0.264   4.809
 7161TIP3    H121360   4.865   0.311   4.786
 7161TIP3    H221361   4.993   0.255   4.727
 7162TIP3   OH221362   4.903   0.046   4.535
 7162TIP3    H121363   4.975   0.096   4.575
 7162TIP3    H221364   4.947  -0.020   4.483
 7163TIP3   OH221365   5.847   0.503   5.400
 7163TIP3    H121366   5.765   0.553   5.406
 7163TIP3    H221367   5.880   0.522   5.313
 7164TIP3   OH221368   5.294   0.345   4.786
 7164TIP3    H121369   5.239   0.369   4.861
 7164TIP3    H221370   5.377   0.317   4.825
 7165TIP3   OH221371   5.522   0.391   5.687
 7165TIP3    H121372   5.524   0.473   5.736
 7165TIP3    H221373   5.440   0.395   5.638
 7166TIP3   OH221374   4.528   0.341   5.199
 7166TIP3    H121375   4.484   0.285   5.135
 7166TIP3    H221376   4.601   0.288   5.230
 7167TIP3   OH221377   4.658   0.754   5.347
 7167TIP3    H121378   4.636   0.707   5.267
 7167TIP3    H221379   4.745   0.723   5.370
 7168TIP3   OH221380   4.666   0.310   5.558
 7168TIP3    H121381   4.694   0.287   5.469
 7168TIP3    H221382   4.707   0.395   5.575
 7169TIP3   OH221383   5.186   0.951   5.331
 7169TIP3    H121384   5.173   1.031   5.381
 7169TIP3    H221385   5.171   0.881   5.395
 7170TIP3   OH221386   4.796   0.869   5.878
 7170TIP3    H121387   4.742   0.932   5.925
 7170TIP3    H221388   4.733   0.816   5.829
 7171TIP3   OH221389   5.136   0.199   4.611
 7171TIP3    H121390   5.194   0.253   4.664
 7171TIP3    H221391   5.160   0.220   4.521
 7172TIP3   OH221392   4.535   0.433   5.981
 7172TIP3    H121393   4.544   0.516   6.026
 7172TIP3    H221394   4.442   0.411   5.990
 7173TIP3   OH221395   4.874   0.887   4.874
 7173TIP3    H121396   4.955   0.932   4.900
 7173TIP3    H221397   4.813   0.957   4.854
 7174TIP3   OH221398   4.592   1.038   5.964
 7174TIP3    H121399   4.559   1.038   5.874
 7174TIP3    H221400   4.516   1.016   6.018
 7175TIP3   OH221401   4.388   0.190   5.007
 7175TIP3    H121402   4.317   0.218   4.949
 7175TIP3    H221403   4.371   0.097   5.022
 7176TIP3   OH221404   5.450   0.813   4.206
 7176TIP3    H121405   5.456   0.907   4.191
 7176TIP3    H221406   5.540   0.781   4.194
 7177TIP3   OH221407   4.171   0.569   5.911
 7177TIP3    H121408   4.106   0.551   5.843
 7177TIP3    H221409   4.205   0.483   5.935
 7178TIP3   OH221410   4.027   0.763   5.547
 7178TIP3    H121411   4.122   0.759   5.537
 7178TIP3    H221412   4.012   0.843   5.598
 7179TIP3   OH221413   5.891   1.212   5.603
 7179TIP3    H121414   5.890   1.117   5.614
 7179TIP3    H221415   5.810   1.242   5.645
 7180TIP3   OH221416   4.996   1.000   5.737
 7180TIP3    H121417   4.998   1.091   5.766
 7180TIP3    H221418   4.927   0.960   5.789
 7181TIP3   OH221419   4.751   1.126   4.686
 7181TIP3    H121420   4.712   1.117   4.599
 7181TIP3    H221421   4.727   1.215   4.713
 7182TIP3   OH221422   4.197   0.977   5.072
 7182TIP3    H121423   4.246   0.970   5.154
 7182TIP3    H221424   4.129   0.910   5.078
 7183TIP3   OH221425   4.960   1.024   4.330
 7183TIP3    H121426   5.018   0.959   4.291
 7183TIP3    H221427   4.995   1.038   4.418
 7184TIP3   OH221428   5.006   1.076   4.601
 7184TIP3    H121429   4.921   1.085   4.645
 7184TIP3    H221430   5.064   1.041   4.669
 7185TIP3   OH221431   5.785   0.330   5.879
 7185TIP3    H121432   5.715   0.383   5.843
 7185TIP3    H221433   5.767   0.241   5.848
 7186TIP3   OH221434   4.378   0.750   5.901
 7186TIP3    H121435   4.426   0.737   5.983
 7186TIP3    H221436   4.304   0.690   5.908
 7187TIP3   OH221437   5.461   0.206   5.891
 7187TIP3    H121438   5.485   0.117   5.862
 7187TIP3    H221439   5.467   0.259   5.811
 7188TIP3   OH221440   5.213   0.248   4.354
 7188TIP3    H121441   5.174   0.225   4.270
 7188TIP3    H221442   5.291   0.299   4.330
 7189TIP3   OH221443   4.715   0.091   5.710
 7189TIP3    H121444   4.657   0.109   5.784
 7189TIP3    H221445   4.702   0.165   5.651
 7190TIP3   OH221446   1.310   9.239   5.208
 7190TIP3    H121447   1.237   9.188   5.242
 7190TIP3    H221448   1.336   9.193   5.128
 7191TIP3   OH221449   5.088   0.068   4.941
 7191TIP3    H121450   5.035   0.138   4.903
 7191TIP3    H221451   5.135   0.031   4.866
 7192TIP3   OH221452   5.267   0.394   5.990
 7192TIP3    H121453   5.243   0.350   6.072
 7192TIP3    H221454   5.362   0.387   5.986
 7193TIP3   OH221455   5.244   0.093   5.180
 7193TIP3    H121456   5.186   0.126   5.112
 7193TIP3    H221457   5.278   0.011   5.145
 7194TIP3   OH221458   4.533   0.132   5.908
 7194TIP3    H121459   4.544   0.192   5.982
 7194TIP3    H221460   4.491   0.054   5.946
 7195TIP3   OH221461   5.256   0.343   5.610
 7195TIP3    H121462   5.282   0.270   5.553
 7195TIP3    H221463   5.217   0.301   5.686
 7196TIP3   OH221464   1.082   9.091   5.286
 7196TIP3    H121465   0.991   9.111   5.262
 7196TIP3    H221466   1.089   8.996   5.276
 7197TIP3   OH221467   1.370   9.108   4.973
 7197TIP3    H121468   1.459   9.088   4.942
 7197TIP3    H221469   1.315   9.101   4.895
 7198TIP3   OH221470   1.189   9.127   4.748
 7198TIP3    H121471   1.131   9.078   4.690
 7198TIP3    H221472   1.253   9.167   4.689
 7199TIP3   OH221473   5.583   1.563   5.698
 7199TIP3    H121474   5.578   1.588   5.606
 7199TIP3    H221475   5.657   1.613   5.733
 7200TIP3   OH221476   4.538   0.673   6.126
 7200TIP3    H121477   4.620   0.702   6.167
 7200TIP3    H221478   4.473   0.677   6.196
 7201TIP3   OH221479   5.006   0.129   5.382
 7201TIP3    H121480   5.066   0.079   5.326
 7201TIP3    H221481   5.002   0.079   5.464
 7202TIP3   OH221482   4.983   0.014   5.688
 7202TIP3    H121483   4.896   0.053   5.686
 7202TIP3    H221484   5.036   0.076   5.739
 7203TIP3   OH221485   4.711   0.415   4.758
 7203TIP3    H121486   4.644   0.347   4.751
 7203TIP3    H221487   4.698   0.452   4.846
 7204TIP3   OH221488   5.617   0.649   5.389
 7204TIP3    H121489   5.643   0.698   5.311
 7204TIP3    H221490   5.533   0.609   5.366
 7205TIP3   OH221491   5.116   0.734   5.758
 7205TIP3    H121492   5.138   0.712   5.848
 7205TIP3    H221493   5.078   0.822   5.763
 7206TIP3   OH221494   1.968   9.194   4.723
 7206TIP3    H121495   2.063   9.201   4.733
 7206TIP3    H221496   1.945   9.266   4.665
 7207TIP3   OH221497   4.410   0.434   5.436
 7207TIP3    H121498   4.447   0.409   5.351
 7207TIP3    H221499   4.447   0.370   5.498
 7208TIP3   OH221500   4.863   0.565   4.585
 7208TIP3    H121501   4.815   0.647   4.587
 7208TIP3    H221502   4.814   0.507   4.643
 7209TIP3   OH221503   4.280   0.356   6.054
 7209TIP3    H121504   4.303   0.340   6.146
 7209TIP3    H221505   4.209   0.293   6.037
 7210TIP3   OH221506   5.014   0.480   6.072
 7210TIP3    H121507   4.942   0.432   6.030
 7210TIP3    H221508   5.092   0.453   6.023
 7211TIP3   OH221509   5.276   0.989   5.657
 7211TIP3    H121510   5.180   0.990   5.665
 7211TIP3    H221511   5.307   1.042   5.730
 7212TIP3   OH221512   5.685   0.062   4.559
 7212TIP3    H121513   5.628   0.011   4.501
 7212TIP3    H221514   5.686   0.150   4.521
 7213TIP3   OH221515   5.902   0.917   5.642
 7213TIP3    H121516   5.806   0.917   5.636
 7213TIP3    H221517   5.932   0.892   5.554
 7214TIP3   OH221518   5.381   0.883   4.469
 7214TIP3    H121519   5.364   0.812   4.531
 7214TIP3    H221520   5.399   0.838   4.386
 7215TIP3   OH221521   5.382   0.510   5.312
 7215TIP3    H121522   5.289   0.489   5.323
 7215TIP3    H221523   5.417   0.434   5.265
 7216TIP3   OH221524   4.505   0.738   5.056
 7216TIP3    H121525   4.509   0.820   5.006
 7216TIP3    H221526   4.412   0.730   5.081
 7217TIP3   OH221527   4.063   0.051   4.761
 7217TIP3    H121528   4.115   0.127   4.789
 7217TIP3    H221529   3.992   0.046   4.825
 7218TIP3   OH221530   4.648   0.507   5.005
 7218TIP3    H121531   4.612   0.594   5.022
 7218TIP3    H221532   4.617   0.453   5.078
 7219TIP3   OH221533   4.780   1.085   5.531
 7219TIP3    H121534   4.817   1.158   5.481
 7219TIP3    H221535   4.854   1.050   5.581
 7220TIP3   OH221536   4.427   0.980   4.908
 7220TIP3    H121537   4.343   0.984   4.955
 7220TIP3    H221538   4.461   1.069   4.912
 7221TIP3   OH221539   5.167   0.717   5.491
 7221TIP3    H121540   5.158   0.718   5.586
 7221TIP3    H221541   5.248   0.667   5.476
 7222TIP3   OH221542   5.140   0.608   4.377
 7222TIP3    H121543   5.197   0.587   4.450
 7222TIP3    H221544   5.052   0.582   4.407
 7223TIP3   OH221545   5.414   1.251   5.537
 7223TIP3    H121546   5.336   1.197   5.531
 7223TIP3    H221547   5.403   1.318   5.469
 7224TIP3   OH221548   5.480   1.089   4.192
 7224TIP3    H121549   5.521   1.156   4.137
 7224TIP3    H221550   5.400   1.131   4.225
 7225TIP3   OH221551   5.303   0.545   4.592
 7225TIP3    H121552   5.289   0.479   4.660
 7225TIP3    H221553   5.397   0.544   4.576
 7226TIP3   OH221554   4.218   0.947   5.691
 7226TIP3    H121555   4.270   0.873   5.724
 7226TIP3    H221556   4.243   1.020   5.748
 7227TIP3   OH221557   4.184   0.287   4.846
 7227TIP3    H121558   4.121   0.333   4.901
 7227TIP3    H221559   4.232   0.357   4.802
 7228TIP3   OH221560   4.700   0.784   4.574
 7228TIP3    H121561   4.625   0.812   4.626
 7228TIP3    H221562   4.742   0.865   4.546
 7229TIP3   OH221563   1.664   9.092   5.005
 7229TIP3    H121564   1.705   9.176   4.984
 7229TIP3    H221565   1.624   9.106   5.091
 7230TIP3   OH221566   5.169   0.166   5.849
 7230TIP3    H121567   5.180   0.248   5.898
 7230TIP3    H221568   5.256   0.127   5.848
 7231TIP3   OH221569   4.442   0.853   4.656
 7231TIP3    H121570   4.422   0.925   4.595
 7231TIP3    H221571   4.436   0.893   4.742
 7232TIP3   OH221572   5.468   0.273   5.183
 7232TIP3    H121573   5.396   0.211   5.194
 7232TIP3    H221574   5.542   0.232   5.228
 7233TIP3   OH221575   5.437   1.226   5.129
 7233TIP3    H121576   5.392   1.270   5.057
 7233TIP3    H221577   5.530   1.244   5.114
 7234TIP3   OH221578   4.044   0.710   5.038
 7234TIP3    H121579   3.983   0.744   5.103
 7234TIP3    H221580   4.021   0.755   4.957
 7235TIP3   OH221581   4.208   1.253   6.114
 7235TIP3    H121582   4.293   1.256   6.159
 7235TIP3    H221583   4.186   1.160   6.110
 7236TIP3   OH221584   4.690   1.219   6.156
 7236TIP3    H121585   4.784   1.206   6.166
 7236TIP3    H221586   4.665   1.163   6.083
 7237TIP3   OH221587   4.677   0.791   4.281
 7237TIP3    H121588   4.673   0.728   4.353
 7237TIP3    H221589   4.749   0.760   4.226
 7238TIP3   OH221590   5.332   1.124   5.889
 7238TIP3    H121591   5.320   1.058   5.957
 7238TIP3    H221592   5.405   1.177   5.919
 7239TIP3   OH221593   5.108   0.837   4.194
 7239TIP3    H121594   5.157   0.778   4.252
 7239TIP3    H221595   5.160   0.839   4.113
 7240TIP3   OH221596   4.336   0.660   6.312
 7240TIP3    H121597   4.354   0.566   6.317
 7240TIP3    H221598   4.251   0.665   6.269
 7241TIP3   OH221599   4.373   0.382   4.535
 7241TIP3    H121600   4.383   0.308   4.595
 7241TIP3    H221601   4.405   0.349   4.451
 7242TIP3   OH221602   4.946   0.748   6.085
 7242TIP3    H121603   4.904   0.760   6.000
 7242TIP3    H221604   4.978   0.657   6.083
 7243TIP3   OH221605   4.807   0.512   4.322
 7243TIP3    H121606   4.830   0.523   4.415
 7243TIP3    H221607   4.815   0.418   4.306
 7244TIP3   OH221608   5.439   0.755   5.693
 7244TIP3    H121609   5.513   0.798   5.649
 7244TIP3    H221610   5.366   0.816   5.683
 7245TIP3   OH221611   4.455   0.386   6.299
 7245TIP3    H121612   4.535   0.342   6.271
 7245TIP3    H221613   4.477   0.423   6.385
 7246TIP3   OH221614   4.518   0.217   4.730
 7246TIP3    H121615   4.499   0.174   4.814
 7246TIP3    H221616   4.557   0.148   4.676
 7247TIP3   OH221617   4.797   0.355   5.950
 7247TIP3    H121618   4.707   0.389   5.955
 7247TIP3    H221619   4.815   0.351   5.856
 7248TIP3   OH221620   4.626   0.018   4.571
 7248TIP3    H121621   4.599   0.006   4.480
 7248TIP3    H221622   4.721   0.017   4.568
 7249TIP3   OH221623   5.311   0.688   6.097
 7249TIP3    H121624   5.383   0.657   6.043
 7249TIP3    H221625   5.300   0.620   6.164
 7250TIP3   OH221626   5.445   0.342   4.227
 7250TIP3    H121627   5.426   0.294   4.146
 7250TIP3    H221628   5.416   0.431   4.210
 7251TIP3   OH221629   4.868   0.122   6.074
 7251TIP3    H121630   4.891   0.048   6.018
 7251TIP3    H221631   4.870   0.198   6.016
 7252TIP3   OH221632   4.977   0.391   5.726
 7252TIP3    H121633   5.050   0.418   5.671
 7252TIP3    H221634   4.909   0.457   5.712
 7253TIP3   OH221635   5.527   0.371   6.153
 7253TIP3    H121636   5.564   0.284   6.139
 7253TIP3    H221637   5.591   0.432   6.116
 7254TIP3   OH221638   5.573   0.607   5.872
 7254TIP3    H121639   5.509   0.658   5.823
 7254TIP3    H221640   5.658   0.633   5.835
 7255TIP3   OH221641   4.767   0.195   6.313
 7255TIP3    H121642   4.698   0.129   6.311
 7255TIP3    H221643   4.817   0.180   6.232
 7256TIP3   OH221644   5.209   0.235   6.192
 7256TIP3    H121645   5.173   0.217   6.279
 7256TIP3    H221646   5.228   0.149   6.155
 7257TIP3   OH221647   4.427   1.059   4.458
 7257TIP3    H121648   4.523   1.062   4.450
 7257TIP3    H221649   4.396   1.120   4.392
 7258TIP3   OH221650   3.907   0.452   4.674
 7258TIP3    H121651   4.003   0.457   4.680
 7258TIP3    H221652   3.889   0.364   4.641
 7259TIP3   OH221653   3.827   1.063   5.102
 7259TIP3    H121654   3.759   1.007   5.065
 7259TIP3    H221655   3.871   1.009   5.168
 7260TIP3   OH221656   3.967   0.915   5.289
 7260TIP3    H121657   3.948   0.844   5.350
 7260TIP3    H221658   4.014   0.980   5.341
 7261TIP3   OH221659   5.689   1.318   5.089
 7261TIP3    H121660   5.712   1.351   5.175
 7261TIP3    H221661   5.747   1.365   5.029
 7262TIP3   OH221662   5.717   1.336   5.371
 7262TIP3    H121663   5.675   1.250   5.366
 7262TIP3    H221664   5.794   1.322   5.426
 7263TIP3   OH221665   5.766   1.014   5.948
 7263TIP3    H121666   5.691   1.022   6.007
 7263TIP3    H221667   5.806   1.101   5.947
 7264TIP3   OH221668   5.582   0.528   4.564
 7264TIP3    H121669   5.647   0.592   4.534
 7264TIP3    H221670   5.622   0.489   4.642
 7265TIP3   OH221671   5.708   0.395   4.768
 7265TIP3    H121672   5.644   0.354   4.826
 7265TIP3    H221673   5.773   0.433   4.827
 7266TIP3   OH221674   5.763   0.786   5.199
 7266TIP3    H121675   5.814   0.723   5.148
 7266TIP3    H221676   5.754   0.862   5.140
 7267TIP3   OH221677   5.592   1.086   5.397
 7267TIP3    H121678   5.524   1.132   5.447
 7267TIP3    H221679   5.544   1.040   5.328
 7268TIP3   OH221680   5.641   0.301   4.414
 7268TIP3    H121681   5.575   0.307   4.345
 7268TIP3    H221682   5.623   0.375   4.472
 7269TIP3   OH221683   2.259   9.208   4.360
 7269TIP3    H121684   2.216   9.281   4.314
 7269TIP3    H221685   2.217   9.130   4.325
 7270TIP3   OH221686   5.523   0.252   4.918
 7270TIP3    H121687   5.532   0.157   4.914
 7270TIP3    H221688   5.508   0.271   5.011
 7271TIP3   OH221689   4.151   0.319   5.661
 7271TIP3    H121690   4.146   0.293   5.569
 7271TIP3    H221691   4.245   0.325   5.679
 7272TIP3   OH221692   5.813   0.677   5.768
 7272TIP3    H121693   5.885   0.615   5.757
 7272TIP3    H221694   5.834   0.749   5.708
 7273TIP3   OH221695   5.997   0.478   5.785
 7273TIP3    H121696   5.938   0.423   5.835
 7273TIP3    H221697   6.085   0.457   5.819
 7274TIP3   OH221698   2.239   9.209   4.762
 7274TIP3    H121699   2.283   9.173   4.838
 7274TIP3    H221700   2.310   9.241   4.706
 7275TIP3   OH221701   5.688   0.174   5.309
 7275TIP3    H121702   5.773   0.183   5.267
 7275TIP3    H221703   5.704   0.198   5.401
 7276TIP3   OH221704   5.745   0.297   5.552
 7276TIP3    H121705   5.665   0.336   5.587
 7276TIP3    H221706   5.782   0.366   5.496
 7277TIP3   OH221707   4.146  -0.017   5.744
 7277TIP3    H121708   4.189  -0.032   5.659
 7277TIP3    H221709   4.161   0.076   5.762
 7278TIP3   OH221710   5.271   1.185   4.743
 7278TIP3    H121711   5.323   1.171   4.664
 7278TIP3    H221712   5.320   1.250   4.793
 7279TIP3   OH221713   4.373   0.984   6.132
 7279TIP3    H121714   4.282   0.960   6.116
 7279TIP3    H221715   4.384   0.974   6.227
 7280TIP3   OH221716   4.553   1.021   5.675
 7280TIP3    H121717   4.501   1.093   5.641
 7280TIP3    H221718   4.639   1.032   5.635
 7281TIP3   OH221719   4.999   1.266   5.817
 7281TIP3    H121720   5.037   1.266   5.905
 7281TIP3    H221721   5.062   1.315   5.764
 7282TIP3   OH221722   5.179   1.416   5.677
 7282TIP3    H121723   5.249   1.366   5.634
 7282TIP3    H221724   5.225   1.475   5.737
 7283TIP3   OH221725   4.226   1.278   5.705
 7283TIP3    H121726   4.140   1.309   5.678
 7283TIP3    H221727   4.240   1.317   5.790
 7284TIP3   OH221728   4.461   1.255   5.559
 7284TIP3    H121729   4.378   1.268   5.605
 7284TIP3    H221730   4.445   1.290   5.471
 7285TIP3   OH221731   4.889   1.288   5.357
 7285TIP3    H121732   4.821   1.308   5.292
 7285TIP3    H221733   4.904   1.371   5.402
 7286TIP3   OH221734   5.158   1.225   5.406
 7286TIP3    H121735   5.065   1.242   5.391
 7286TIP3    H221736   5.203   1.301   5.370
 7287TIP3   OH221737   5.365   1.416   5.324
 7287TIP3    H121738   5.352   1.501   5.281
 7287TIP3    H221739   5.392   1.358   5.253
 7288TIP3   OH221740   4.143   1.070   5.447
 7288TIP3    H121741   4.163   1.048   5.538
 7288TIP3    H221742   4.212   1.029   5.396
 7289TIP3   OH221743   4.336   0.941   5.303
 7289TIP3    H121744   4.348   0.860   5.353
 7289TIP3    H221745   4.423   0.980   5.300
 7290TIP3   OH221746   4.601   1.035   5.309
 7290TIP3    H121747   4.631   0.945   5.297
 7290TIP3    H221748   4.641   1.063   5.391
 7291TIP3   OH221749   3.928   0.846   4.835
 7291TIP3    H121750   3.843   0.813   4.804
 7291TIP3    H221751   3.924   0.940   4.818
 7292TIP3   OH221752   4.700   1.034   4.414
 7292TIP3    H121753   4.789   1.057   4.387
 7292TIP3    H221754   4.677   0.958   4.360
 7293TIP3   OH221755   5.417   1.149   4.512
 7293TIP3    H121756   5.409   1.054   4.502
 7293TIP3    H221757   5.375   1.184   4.433
 7294TIP3   OH221758   4.012   0.873   4.474
 7294TIP3    H121759   3.986   0.916   4.555
 7294TIP3    H221760   4.094   0.828   4.496
 7295TIP3   OH221761   5.644   1.296   5.700
 7295TIP3    H121762   5.567   1.263   5.653
 7295TIP3    H221763   5.629   1.391   5.705
 7296TIP3   OH221764   6.910   0.671   4.469
 7296TIP3    H121765   6.886   0.761   4.449
 7296TIP3    H221766   6.838   0.618   4.435
 7297TIP3   OH221767   6.910   0.666   4.847
 7297TIP3    H121768   6.940   0.633   4.931
 7297TIP3    H221769   6.867   0.592   4.805
 7298TIP3   OH221770   6.211   0.569   5.217
 7298TIP3    H121771   6.249   0.503   5.275
 7298TIP3    H221772   6.286   0.620   5.187
 7299TIP3   OH221773   7.153   0.970   4.530
 7299TIP3    H121774   7.137   0.899   4.592
 7299TIP3    H221775   7.182   1.043   4.585
 7300TIP3   OH221776   6.182   0.968   4.940
 7300TIP3    H121777   6.171   0.873   4.942
 7300TIP3    H221778   6.277   0.982   4.933
 7301TIP3   OH221779   5.877   0.164   4.732
 7301TIP3    H121780   5.836   0.249   4.746
 7301TIP3    H221781   5.817   0.118   4.673
 7302TIP3   OH221782   5.950   0.458   4.894
 7302TIP3    H121783   5.998   0.384   4.931
 7302TIP3    H221784   6.008   0.491   4.825
 7303TIP3   OH221785   6.805   1.433   4.546
 7303TIP3    H121786   6.849   1.364   4.497
 7303TIP3    H221787   6.795   1.397   4.634
 7304TIP3   OH221788   6.711   0.891   4.899
 7304TIP3    H121789   6.742   0.815   4.850
 7304TIP3    H221790   6.791   0.939   4.922
 7305TIP3   OH221791   7.121   0.401   4.929
 7305TIP3    H121792   7.156   0.315   4.955
 7305TIP3    H221793   7.093   0.389   4.839
 7306TIP3   OH221794   6.097   0.250   5.003
 7306TIP3    H121795   6.174   0.228   5.055
 7306TIP3    H221796   6.108   0.200   4.922
 7307TIP3   OH221797   6.533   0.453   4.803
 7307TIP3    H121798   6.624   0.426   4.811
 7307TIP3    H221799   6.488   0.375   4.770
 7308TIP3   OH221800   7.762   0.395   5.091
 7308TIP3    H121801   7.707   0.467   5.061
 7308TIP3    H221802   7.818   0.434   5.158
 7309TIP3   OH221803   6.804   0.891   4.338
 7309TIP3    H121804   6.761   0.861   4.259
 7309TIP3    H221805   6.760   0.974   4.360
 7310TIP3   OH221806   6.567   0.811   5.131
 7310TIP3    H121807   6.503   0.874   5.166
 7310TIP3    H221808   6.607   0.857   5.057
 7311TIP3   OH221809   6.337   0.161   5.097
 7311TIP3    H121810   6.401   0.227   5.122
 7311TIP3    H221811   6.374   0.117   5.021
 7312TIP3   OH221812   6.387   1.006   5.221
 7312TIP3    H121813   6.368   1.090   5.180
 7312TIP3    H221814   6.312   0.988   5.278
 7313TIP3   OH221815   5.783   0.698   4.458
 7313TIP3    H121816   5.745   0.722   4.373
 7313TIP3    H221817   5.815   0.780   4.495
 7314TIP3   OH221818   7.222   1.213   4.700
 7314TIP3    H121819   7.135   1.202   4.738
 7314TIP3    H221820   7.217   1.297   4.653
 7315TIP3   OH221821   6.929   1.259   4.371
 7315TIP3    H121822   6.973   1.176   4.354
 7315TIP3    H221823   6.985   1.325   4.331
 7316TIP3   OH221824   7.068   1.044   4.279
 7316TIP3    H121825   7.029   0.967   4.238
 7316TIP3    H221826   7.105   1.010   4.361
 7317TIP3   OH221827   7.449   1.125   5.039
 7317TIP3    H121828   7.439   1.048   4.982
 7317TIP3    H221829   7.433   1.200   4.981
 7318TIP3   OH221830   6.739   0.540   4.283
 7318TIP3    H121831   6.658   0.585   4.261
 7318TIP3    H221832   6.785   0.531   4.200
 7319TIP3   OH221833   6.703   0.306   4.020
 7319TIP3    H121834   6.769   0.353   4.071
 7319TIP3    H221835   6.753   0.244   3.967
 7320TIP3   OH221836   7.643   0.759   4.882
 7320TIP3    H121837   7.561   0.809   4.890
 7320TIP3    H221838   7.676   0.781   4.795
 7321TIP3   OH221839   7.089   0.603   4.273
 7321TIP3    H121840   7.034   0.627   4.348
 7321TIP3    H221841   7.172   0.576   4.313
 7322TIP3   OH221842   7.319   0.649   5.176
 7322TIP3    H121843   7.321   0.730   5.227
 7322TIP3    H221844   7.237   0.653   5.127
 7323TIP3   OH221845   6.323   0.599   4.687
 7323TIP3    H121846   6.277   0.544   4.623
 7323TIP3    H221847   6.396   0.545   4.717
 7324TIP3   OH221848   6.451   1.009   4.835
 7324TIP3    H121849   6.430   0.968   4.751
 7324TIP3    H221850   6.539   0.977   4.855
 7325TIP3   OH221851   6.456   0.569   5.045
 7325TIP3    H121852   6.485   0.542   4.958
 7325TIP3    H221853   6.502   0.651   5.061
 7326TIP3   OH221854   6.982   1.208   4.819
 7326TIP3    H121855   6.969   1.287   4.872
 7326TIP3    H221856   6.968   1.136   4.880
 7327TIP3   OH221857   6.592   1.127   5.364
 7327TIP3    H121858   6.537   1.189   5.411
 7327TIP3    H221859   6.530   1.073   5.315
 7328TIP3   OH221860   6.935   0.455   4.098
 7328TIP3    H121861   6.991   0.511   4.153
 7328TIP3    H221862   6.959   0.477   4.008
 7329TIP3   OH221863   6.334   0.687   5.473
 7329TIP3    H121864   6.342   0.771   5.517
 7329TIP3    H221865   6.240   0.669   5.472
 7330TIP3   OH221866   6.671   1.141   4.373
 7330TIP3    H121867   6.750   1.192   4.390
 7330TIP3    H221868   6.611   1.203   4.331
 7331TIP3   OH221869   6.388   1.295   5.451
 7331TIP3    H121870   6.355   1.294   5.361
 7331TIP3    H221871   6.312   1.272   5.505
 7332TIP3   OH221872   6.181   0.450   4.497
 7332TIP3    H121873   6.116   0.483   4.435
 7332TIP3    H221874   6.165   0.355   4.500
 7333TIP3   OH221875   7.246   1.069   3.693
 7333TIP3    H121876   7.252   1.163   3.677
 7333TIP3    H221877   7.336   1.037   3.681
 7334TIP3   OH221878   5.965   0.828   5.397
 7334TIP3    H121879   5.902   0.809   5.328
 7334TIP3    H221880   6.001   0.742   5.421
 7335TIP3   OH221881   5.824   1.018   5.036
 7335TIP3    H121882   5.919   1.012   5.022
 7335TIP3    H221883   5.812   1.099   5.086
 7336TIP3   OH221884   7.685   1.468   5.087
 7336TIP3    H121885   7.687   1.373   5.100
 7336TIP3    H221886   7.605   1.496   5.131
 7337TIP3   OH221887   6.791   1.257   5.223
 7337TIP3    H121888   6.794   1.348   5.253
 7337TIP3    H221889   6.723   1.216   5.276
 7338TIP3   OH221890   6.552   1.386   4.172
 7338TIP3    H121891   6.507   1.364   4.091
 7338TIP3    H221892   6.519   1.473   4.195
 7339TIP3   OH221893   5.991   1.234   4.560
 7339TIP3    H121894   6.040   1.226   4.642
 7339TIP3    H221895   5.933   1.157   4.560
 7340TIP3   OH221896   6.757   1.285   3.815
 7340TIP3    H121897   6.813   1.218   3.777
 7340TIP3    H221898   6.789   1.294   3.905
 7341TIP3   OH221899   6.804   1.334   4.087
 7341TIP3    H121900   6.717   1.343   4.126
 7341TIP3    H221901   6.856   1.290   4.154
 7342TIP3   OH221902   7.578   0.594   5.377
 7342TIP3    H121903   7.507   0.631   5.325
 7342TIP3    H221904   7.599   0.512   5.333
 7343TIP3   OH221905   6.174   1.007   5.388
 7343TIP3    H121906   6.222   0.994   5.470
 7343TIP3    H221907   6.100   0.947   5.394
 7344TIP3   OH221908   7.245   0.463   5.372
 7344TIP3    H121909   7.290   0.380   5.356
 7344TIP3    H221910   7.267   0.517   5.297
 7345TIP3   OH221911   7.010   0.502   3.840
 7345TIP3    H121912   6.970   0.480   3.755
 7345TIP3    H221913   7.085   0.557   3.817
 7346TIP3   OH221914   6.512   0.349   5.194
 7346TIP3    H121915   6.454   0.367   5.268
 7346TIP3    H221916   6.499   0.423   5.135
 7347TIP3   OH221917   6.375   0.255   4.700
 7347TIP3    H121918   6.299   0.206   4.731
 7347TIP3    H221919   6.399   0.213   4.617
 7348TIP3   OH221920   6.867   0.343   4.436
 7348TIP3    H121921   6.814   0.407   4.389
 7348TIP3    H221922   6.915   0.296   4.368
 7349TIP3   OH221923   7.063   0.652   5.485
 7349TIP3    H121924   7.040   0.603   5.564
 7349TIP3    H221925   7.157   0.642   5.477
 7350TIP3   OH221926   7.038   0.351   4.662
 7350TIP3    H121927   6.978   0.394   4.601
 7350TIP3    H221928   7.061   0.269   4.619
 7351TIP3   OH221929   6.332   0.388   5.393
 7351TIP3    H121930   6.337   0.449   5.466
 7351TIP3    H221931   6.288   0.311   5.429
 7352TIP3   OH221932   7.051   0.599   5.098
 7352TIP3    H121933   7.079   0.528   5.039
 7352TIP3    H221934   7.020   0.555   5.176
 7353TIP3   OH221935   6.143   0.109   4.774
 7353TIP3    H121936   6.052   0.126   4.751
 7353TIP3    H221937   6.157   0.017   4.751
 7354TIP3   OH221938   6.426   0.127   4.466
 7354TIP3    H121939   6.519   0.111   4.448
 7354TIP3    H221940   6.383   0.118   4.381
 7355TIP3   OH221941   6.244   0.148   4.233
 7355TIP3    H121942   6.192   0.090   4.177
 7355TIP3    H221943   6.309   0.186   4.174
 7356TIP3   OH221944   7.379   1.821   5.185
 7356TIP3    H121945   7.376   1.844   5.092
 7356TIP3    H221946   7.455   1.867   5.219
 7357TIP3   OH221947   6.335   0.928   5.614
 7357TIP3    H121948   6.416   0.959   5.654
 7357TIP3    H221949   6.269   0.936   5.683
 7358TIP3   OH221950   6.804   0.386   4.866
 7358TIP3    H121951   6.861   0.341   4.804
 7358TIP3    H221952   6.802   0.329   4.943
 7359TIP3   OH221953   6.776   0.260   5.192
 7359TIP3    H121954   6.693   0.304   5.175
 7359TIP3    H221955   6.832   0.328   5.231
 7360TIP3   OH221956   6.496   0.680   4.244
 7360TIP3    H121957   6.432   0.610   4.234
 7360TIP3    H221958   6.487   0.709   4.335
 7361TIP3   OH221959   7.413   0.906   4.876
 7361TIP3    H121960   7.438   0.956   4.798
 7361TIP3    H221961   7.330   0.865   4.854
 7362TIP3   OH221962   6.913   0.991   5.245
 7362TIP3    H121963   6.936   0.968   5.335
 7362TIP3    H221964   6.874   1.078   5.252
 7363TIP3   OH221965   7.040   0.199   4.160
 7363TIP3    H121966   7.124   0.205   4.206
 7363TIP3    H221967   7.017   0.290   4.140
 7364TIP3   OH221968   6.207   0.689   4.922
 7364TIP3    H121969   6.240   0.668   4.835
 7364TIP3    H221970   6.248   0.626   4.980
 7365TIP3   OH221971   6.654   0.822   4.070
 7365TIP3    H121972   6.612   0.909   4.074
 7365TIP3    H221973   6.599   0.767   4.126
 7366TIP3   OH221974   6.074   0.616   5.540
 7366TIP3    H121975   6.099   0.601   5.631
 7366TIP3    H221976   6.004   0.553   5.524
 7367TIP3   OH221977   6.808   0.735   5.559
 7367TIP3    H121978   6.740   0.684   5.515
 7367TIP3    H221979   6.889   0.710   5.515
 7368TIP3   OH221980   7.072   1.251   5.141
 7368TIP3    H121981   6.976   1.247   5.151
 7368TIP3    H221982   7.102   1.301   5.217
 7369TIP3   OH221983   7.482   0.316   4.045
 7369TIP3    H121984   7.427   0.265   3.985
 7369TIP3    H221985   7.482   0.404   4.008
 7370TIP3   OH221986   7.698   1.175   5.129
 7370TIP3    H121987   7.602   1.174   5.123
 7370TIP3    H221988   7.728   1.148   5.042
 7371TIP3   OH221989   7.180   1.139   3.957
 7371TIP3    H121990   7.158   1.068   4.017
 7371TIP3    H221991   7.195   1.096   3.873
 7372TIP3   OH221992   7.178   0.766   4.799
 7372TIP3    H121993   7.085   0.744   4.810
 7372TIP3    H221994   7.215   0.690   4.753
 7373TIP3   OH221995   6.303   0.999   4.550
 7373TIP3    H121996   6.308   1.078   4.495
 7373TIP3    H221997   6.210   0.979   4.556
 7374TIP3   OH221998   5.869   0.300   4.253
 7374TIP3    H121999   5.918   0.380   4.269
 7374TIP3    H222000   5.793   0.306   4.312
 7375TIP3   OH222001   6.445   0.765   4.496
 7375TIP3    H122002   6.410   0.852   4.513
 7375TIP3    H222003   6.411   0.711   4.567
 7376TIP3   OH222004   6.576   1.342   5.018
 7376TIP3    H122005   6.615   1.413   4.967
 7376TIP3    H222006   6.649   1.305   5.068
 7377TIP3   OH222007   6.223   1.239   4.401
 7377TIP3    H122008   6.139   1.243   4.447
 7377TIP3    H222009   6.256   1.329   4.402
 7378TIP3   OH222010   6.965   0.974   4.977
 7378TIP3    H122011   6.954   0.974   5.072
 7378TIP3    H222012   7.043   0.921   4.961
 7379TIP3   OH222013   6.936   0.866   3.862
 7379TIP3    H122014   6.990   0.844   3.937
 7379TIP3    H222015   6.847   0.840   3.888
 7380TIP3   OH222016   7.210   1.509   5.025
 7380TIP3    H122017   7.134   1.452   5.021
 7380TIP3    H222018   7.196   1.573   4.956
 7381TIP3   OH222019   7.276   1.345   3.679
 7381TIP3    H122020   7.324   1.413   3.632
 7381TIP3    H222021   7.196   1.388   3.709
 7382TIP3   OH222022   7.099   0.801   4.076
 7382TIP3    H122023   7.085   0.737   4.146
 7382TIP3    H222024   7.194   0.800   4.062
 7383TIP3   OH222025   6.014   1.204   5.178
 7383TIP3    H122026   6.067   1.129   5.207
 7383TIP3    H222027   6.040   1.276   5.236
 7384TIP3   OH222028   6.302   0.848   3.860
 7384TIP3    H122029   6.318   0.759   3.828
 7384TIP3    H222030   6.283   0.836   3.953
 7385TIP3   OH222031   6.249   0.854   4.134
 7385TIP3    H122032   6.324   0.822   4.184
 7385TIP3    H222033   6.255   0.949   4.140
 7386TIP3   OH222034   5.980   0.547   4.331
 7386TIP3    H122035   5.918   0.591   4.390
 7386TIP3    H222036   6.001   0.614   4.266
 7387TIP3   OH222037   6.513   1.054   4.080
 7387TIP3    H122038   6.428   1.079   4.117
 7387TIP3    H222039   6.531   1.119   4.013
 7388TIP3   OH222040   6.705   0.104   4.487
 7388TIP3    H122041   6.778   0.160   4.458
 7388TIP3    H222042   6.709   0.108   4.582
 7389TIP3   OH222043   6.965   0.422   5.339
 7389TIP3    H122044   6.976   0.504   5.388
 7389TIP3    H222045   7.052   0.384   5.334
 7390TIP3   OH222046   6.257   1.129   4.146
 7390TIP3    H122047   6.228   1.196   4.084
 7390TIP3    H222048   6.242   1.169   4.232
 7391TIP3   OH222049   7.266   0.528   4.672
 7391TIP3    H122050   7.193   0.467   4.678
 7391TIP3    H222051   7.339   0.484   4.716
 7392TIP3   OH222052   5.978   0.759   4.137
 7392TIP3    H122053   6.043   0.829   4.150
 7392TIP3    H222054   6.019   0.701   4.073
 7393TIP3   OH222055   5.898   0.011   4.256
 7393TIP3    H122056   5.944   0.095   4.260
 7393TIP3    H222057   5.812   0.029   4.295
 7394TIP3   OH222058   7.233   1.486   4.616
 7394TIP3    H122059   7.188   1.530   4.545
 7394TIP3    H222060   7.326   1.503   4.601
 7395TIP3   OH222061   5.847   0.973   4.528
 7395TIP3    H122062   5.775   1.002   4.583
 7395TIP3    H222063   5.828   1.009   4.441
 7396TIP3   OH222064   6.005   1.510   5.599
 7396TIP3    H122065   6.088   1.514   5.646
 7396TIP3    H222066   5.983   1.417   5.598
 7397TIP3   OH222067   6.486   1.477   5.642
 7397TIP3    H122068   6.580   1.461   5.653
 7397TIP3    H222069   6.461   1.420   5.569
 7398TIP3   OH222070   6.468   1.050   3.774
 7398TIP3    H122071   6.410   0.983   3.810
 7398TIP3    H222072   6.542   1.001   3.739
 7399TIP3   OH222073   7.127   1.382   5.377
 7399TIP3    H122074   7.116   1.315   5.444
 7399TIP3    H222075   7.201   1.434   5.406
 7400TIP3   OH222076   6.905   1.094   3.683
 7400TIP3    H122077   6.948   1.032   3.741
 7400TIP3    H222078   6.958   1.094   3.603
 7401TIP3   OH222079   6.131   0.918   5.799
 7401TIP3    H122080   6.148   0.824   5.806
 7401TIP3    H222081   6.046   0.924   5.756
 7402TIP3   OH222082   6.113   0.569   3.992
 7402TIP3    H122083   6.164   0.534   4.065
 7402TIP3    H222084   6.175   0.576   3.920
 7403TIP3   OH222085   6.742   1.004   5.572
 7403TIP3    H122086   6.702   1.017   5.486
 7403TIP3    H222087   6.774   0.913   5.570
 7404TIP3   OH222088   6.618   0.769   3.801
 7404TIP3    H122089   6.622   0.785   3.895
 7404TIP3    H222090   6.621   0.674   3.792
 7405TIP3   OH222091   7.235   1.012   5.178
 7405TIP3    H122092   7.309   1.056   5.134
 7405TIP3    H222093   7.162   1.072   5.168
 7406TIP3   OH222094   6.257   0.631   5.785
 7406TIP3    H122095   6.345   0.610   5.752
 7406TIP3    H222096   6.271   0.671   5.870
 7407TIP3   OH222097   6.318   0.471   4.217
 7407TIP3    H122098   6.297   0.428   4.300
 7407TIP3    H222099   6.355   0.401   4.163
 7408TIP3   OH222100   6.592   0.602   5.433
 7408TIP3    H122101   6.504   0.639   5.439
 7408TIP3    H222102   6.616   0.613   5.341
 7409TIP3   OH222103   6.420   0.272   4.058
 7409TIP3    H122104   6.394   0.267   3.966
 7409TIP3    H222105   6.516   0.271   4.056
 7410TIP3   OH222106   7.108   0.944   5.583
 7410TIP3    H122107   7.181   0.915   5.528
 7410TIP3    H222108   7.097   0.875   5.648
 7411TIP3   OH222109   7.242   0.598   3.714
 7411TIP3    H122110   7.222   0.551   3.633
 7411TIP3    H222111   7.214   0.688   3.697
 7412TIP3   OH222112   6.666   0.377   5.560
 7412TIP3    H122113   6.695   0.304   5.505
 7412TIP3    H222114   6.654   0.450   5.498
 7413TIP3   OH222115   6.770   0.647   5.214
 7413TIP3    H122116   6.847   0.669   5.161
 7413TIP3    H222117   6.707   0.716   5.194
 7414TIP3   OH222118   7.326   0.625   5.638
 7414TIP3    H122119   7.369   0.540   5.632
 7414TIP3    H222120   7.390   0.686   5.601
 7415TIP3   OH222121   7.369   0.866   5.360
 7415TIP3    H122122   7.307   0.918   5.308
 7415TIP3    H222123   7.455   0.889   5.324
 7416TIP3   OH222124   6.558   0.456   5.796
 7416TIP3    H122125   6.538   0.365   5.814
 7416TIP3    H222126   6.610   0.454   5.715
 7417TIP3   OH222127   7.004   0.481   5.674
 7417TIP3    H122128   6.978   0.455   5.762
 7417TIP3    H222129   7.035   0.401   5.633
 7418TIP3   OH222130   6.229   1.333   3.958
 7418TIP3    H122131   6.323   1.325   3.942
 7418TIP3    H222132   6.195   1.378   3.880
 7419TIP3   OH222133   5.709   0.709   4.176
 7419TIP3    H122134   5.801   0.734   4.163
 7419TIP3    H222135   5.702   0.622   4.137
 7420TIP3   OH222136   5.621   1.321   4.589
 7420TIP3    H122137   5.554   1.262   4.553
 7420TIP3    H222138   5.666   1.268   4.655
 7421TIP3   OH222139   5.758   1.176   4.778
 7421TIP3    H122140   5.745   1.101   4.835
 7421TIP3    H222141   5.808   1.238   4.831
 7422TIP3   OH222142   7.483   1.582   4.575
 7422TIP3    H122143   7.511   1.608   4.662
 7422TIP3    H222144   7.551   1.616   4.517
 7423TIP3   OH222145   7.514   1.592   4.858
 7423TIP3    H122146   7.470   1.508   4.853
 7423TIP3    H222147   7.591   1.576   4.913
 7424TIP3   OH222148   7.561   1.272   5.433
 7424TIP3    H122149   7.488   1.279   5.494
 7424TIP3    H222150   7.602   1.358   5.434
 7425TIP3   OH222151   7.380   0.784   4.051
 7425TIP3    H122152   7.444   0.848   4.021
 7425TIP3    H222153   7.420   0.744   4.128
 7426TIP3   OH222154   7.506   0.648   4.254
 7426TIP3    H122155   7.441   0.607   4.311
 7426TIP3    H222156   7.569   0.688   4.314
 7427TIP3   OH222157   7.559   1.043   4.685
 7427TIP3    H122158   7.611   0.979   4.637
 7427TIP3    H222159   7.550   1.118   4.626
 7428TIP3   OH222160   7.388   1.345   4.881
 7428TIP3    H122161   7.320   1.386   4.934
 7428TIP3    H222162   7.341   1.296   4.814
 7429TIP3   OH222163   7.438   0.557   3.901
 7429TIP3    H122164   7.372   0.562   3.832
 7429TIP3    H222165   7.419   0.631   3.959
 7430TIP3   OH222166   7.327   0.226   3.843
 7430TIP3    H122167   7.282   0.299   3.802
 7430TIP3    H222168   7.275   0.149   3.820
 7431TIP3   OH222169   7.319   0.510   4.403
 7431TIP3    H122170   7.308   0.416   4.390
 7431TIP3    H222171   7.307   0.522   4.498
 7432TIP3   OH222172   5.947   0.575   5.148
 7432TIP3    H122173   5.942   0.549   5.056
 7432TIP3    H222174   6.041   0.583   5.166
 7433TIP3   OH222175   7.614   0.928   5.256
 7433TIP3    H122176   7.685   0.865   5.242
 7433TIP3    H222177   7.636   1.000   5.197
 7434TIP3   OH222178   7.796   0.722   5.269
 7434TIP3    H122179   7.730   0.677   5.322
 7434TIP3    H222180   7.879   0.690   5.303
 7435TIP3   OH222181   7.310   0.248   4.272
 7435TIP3    H122182   7.351   0.183   4.330
 7435TIP3    H222183   7.376   0.263   4.203
 7436TIP3   OH222184   7.488   0.422   4.799
 7436TIP3    H122185   7.571   0.440   4.755
 7436TIP3    H222186   7.501   0.452   4.889
 7437TIP3   OH222187   7.541   0.555   5.038
 7437TIP3    H122188   7.460   0.594   5.071
 7437TIP3    H222189   7.579   0.622   4.982
 7438TIP3   OH222190   5.940   0.241   5.229
 7438TIP3    H122191   5.983   0.221   5.146
 7438TIP3    H222192   5.959   0.334   5.245
 7439TIP3   OH222193   7.068   1.444   4.232
 7439TIP3    H122194   7.115   1.425   4.151
 7439TIP3    H222195   7.127   1.500   4.282
 7440TIP3   OH222196   6.170   1.239   5.619
 7440TIP3    H122197   6.078   1.217   5.603
 7440TIP3    H222198   6.180   1.232   5.714
 7441TIP3   OH222199   6.348   1.278   5.163
 7441TIP3    H122200   6.297   1.352   5.128
 7441TIP3    H222201   6.434   1.288   5.123
 7442TIP3   OH222202   6.796   1.524   5.304
 7442TIP3    H122203   6.834   1.522   5.392
 7442TIP3    H222204   6.859   1.573   5.251
 7443TIP3   OH222205   6.975   1.674   5.162
 7443TIP3    H122206   7.044   1.621   5.121
 7443TIP3    H222207   7.022   1.731   5.223
 7444TIP3   OH222208   6.022   1.535   5.191
 7444TIP3    H122209   5.935   1.566   5.166
 7444TIP3    H222210   6.037   1.573   5.278
 7445TIP3   OH222211   6.258   1.514   5.046
 7445TIP3    H122212   6.175   1.526   5.092
 7445TIP3    H222213   6.241   1.546   4.958
 7446TIP3   OH222214   6.686   1.545   4.844
 7446TIP3    H122215   6.617   1.563   4.780
 7446TIP3    H222216   6.699   1.629   4.889
 7447TIP3   OH222217   6.954   1.483   4.895
 7447TIP3    H122218   6.861   1.497   4.877
 7447TIP3    H222219   6.998   1.558   4.857
 7448TIP3   OH222220   7.164   1.675   4.811
 7448TIP3    H122221   7.150   1.757   4.765
 7448TIP3    H222222   7.190   1.613   4.742
 7449TIP3   OH222223   5.939   1.327   4.935
 7449TIP3    H122224   5.960   1.305   5.025
 7449TIP3    H222225   6.007   1.285   4.883
 7450TIP3   OH222226   6.131   1.198   4.792
 7450TIP3    H122227   6.145   1.115   4.839
 7450TIP3    H222228   6.219   1.236   4.786
 7451TIP3   OH222229   6.398   1.294   4.795
 7451TIP3    H122230   6.426   1.204   4.779
 7451TIP3    H222231   6.438   1.318   4.878
 7452TIP3   OH222232   5.721   1.101   4.326
 7452TIP3    H122233   5.639   1.065   4.292
 7452TIP3    H222234   5.714   1.195   4.310
 7453TIP3   OH222235   6.497   1.290   3.903
 7453TIP3    H122236   6.585   1.312   3.873
 7453TIP3    H222237   6.471   1.215   3.849
 7454TIP3   OH222238   7.210   1.404   4.000
 7454TIP3    H122239   7.206   1.309   3.990
 7454TIP3    H222240   7.171   1.438   3.919
 7455TIP3   OH222241   5.802   1.126   3.965
 7455TIP3    H122242   5.801   1.151   4.058
 7455TIP3    H222243   5.888   1.085   3.953
 7456TIP3   OH222244   7.439   1.553   5.187
 7456TIP3    H122245   7.363   1.519   5.140
 7456TIP3    H222246   7.423   1.648   5.193
 7457TIP3   OH222247   8.706   0.925   3.948
 7457TIP3    H122248   8.685   1.018   3.939
 7457TIP3    H222249   8.626   0.880   3.921
 7458TIP3   OH222250   8.694   0.915   4.335
 7458TIP3    H122251   8.734   0.897   4.421
 7458TIP3    H222252   8.653   0.832   4.311
 7459TIP3   OH222253   8.006   0.822   4.700
 7459TIP3    H122254   8.039   0.758   4.763
 7459TIP3    H222255   8.081   0.880   4.683
 7460TIP3   OH222256   8.948   1.226   4.018
 7460TIP3    H122257   8.944   1.156   4.084
 7460TIP3    H222258   8.978   1.302   4.067
 7461TIP3   OH222259   7.977   1.225   4.427
 7461TIP3    H122260   7.967   1.130   4.429
 7461TIP3    H222261   8.072   1.238   4.420
 7462TIP3   OH222262   7.673   0.411   4.219
 7462TIP3    H122263   7.639   0.498   4.240
 7462TIP3    H222264   7.609   0.376   4.157
 7463TIP3   OH222265   7.747   0.716   4.381
 7463TIP3    H122266   7.795   0.643   4.419
 7463TIP3    H222267   7.806   0.752   4.315
 7464TIP3   OH222268   8.601   1.684   4.033
 7464TIP3    H122269   8.642   1.613   3.985
 7464TIP3    H222270   8.594   1.652   4.123
 7465TIP3   OH222271   8.508   1.147   4.385
 7465TIP3    H122272   8.541   1.069   4.340
 7465TIP3    H222273   8.587   1.197   4.407
 7466TIP3   OH222274   8.922   0.666   4.411
 7466TIP3    H122275   8.947   0.583   4.451
 7466TIP3    H222276   8.894   0.643   4.322
 7467TIP3   OH222277   7.891   0.508   4.486
 7467TIP3    H122278   7.969   0.489   4.539
 7467TIP3    H222279   7.906   0.459   4.405
 7468TIP3   OH222280   8.331   0.710   4.286
 7468TIP3    H122281   8.421   0.681   4.299
 7468TIP3    H222282   8.286   0.631   4.255
 7469TIP3   OH222283   8.613   1.160   3.810
 7469TIP3    H122284   8.558   1.123   3.741
 7469TIP3    H222285   8.561   1.234   3.845
 7470TIP3   OH222286   8.363   1.067   4.617
 7470TIP3    H122287   8.299   1.129   4.653
 7470TIP3    H222288   8.403   1.113   4.544
 7471TIP3   OH222289   8.126   0.417   4.579
 7471TIP3    H122290   8.188   0.480   4.615
 7471TIP3    H222291   8.176   0.367   4.515
 7472TIP3   OH222292   8.183   1.262   4.709
 7472TIP3    H122293   8.163   1.346   4.667
 7472TIP3    H222294   8.108   1.244   4.765
 7473TIP3   OH222295   7.580   0.953   3.944
 7473TIP3    H122296   7.541   0.977   3.860
 7473TIP3    H222297   7.611   1.036   3.981
 7474TIP3   OH222298   9.007   1.454   4.174
 7474TIP3    H122299   8.920   1.453   4.214
 7474TIP3    H222300   9.015   1.540   4.135
 7475TIP3   OH222301   8.723   1.504   3.861
 7475TIP3    H122302   8.779   1.429   3.844
 7475TIP3    H222303   8.774   1.579   3.830
 7476TIP3   OH222304   8.871   1.277   3.758
 7476TIP3    H122305   8.789   1.228   3.758
 7476TIP3    H222306   8.910   1.258   3.844
 7477TIP3   OH222307   8.531   0.779   3.786
 7477TIP3    H122308   8.451   0.827   3.765
 7477TIP3    H222309   8.576   0.769   3.702
 7478TIP3   OH222310   8.494   0.575   3.505
 7478TIP3    H122311   8.573   0.610   3.545
 7478TIP3    H222312   8.520   0.490   3.469
 7479TIP3   OH222313   8.896   0.854   3.771
 7479TIP3    H122314   8.826   0.880   3.831
 7479TIP3    H222315   8.975   0.854   3.825
 7480TIP3   OH222316   9.124   0.906   4.652
 7480TIP3    H122317   9.116   0.979   4.713
 7480TIP3    H222318   9.041   0.904   4.605
 7481TIP3   OH222319   8.120   0.855   4.173
 7481TIP3    H122320   8.075   0.800   4.109
 7481TIP3    H222321   8.193   0.801   4.203
 7482TIP3   OH222322   8.247   1.265   4.322
 7482TIP3    H122323   8.226   1.224   4.238
 7482TIP3    H222324   8.335   1.234   4.342
 7483TIP3   OH222325   8.255   0.825   4.530
 7483TIP3    H122326   8.286   0.800   4.442
 7483TIP3    H222327   8.300   0.907   4.549
 7484TIP3   OH222328   8.772   1.467   4.304
 7484TIP3    H122329   8.763   1.545   4.359
 7484TIP3    H222330   8.763   1.394   4.365
 7485TIP3   OH222331   8.389   1.384   4.851
 7485TIP3    H122332   8.333   1.446   4.898
 7485TIP3    H222333   8.327   1.329   4.802
 7486TIP3   OH222334   8.729   0.708   3.592
 7486TIP3    H122335   8.791   0.758   3.645
 7486TIP3    H222336   8.756   0.724   3.501
 7487TIP3   OH222337   8.126   0.947   4.954
 7487TIP3    H122338   8.136   1.030   5.002
 7487TIP3    H222339   8.034   0.924   4.964
 7488TIP3   OH222340   8.466   1.393   3.862
 7488TIP3    H122341   8.546   1.445   3.876
 7488TIP3    H222342   8.406   1.453   3.818
 7489TIP3   OH222343   8.184   1.552   4.938
 7489TIP3    H122344   8.152   1.550   4.848
 7489TIP3    H222345   8.107   1.530   4.991
 7490TIP3   OH222346   7.980   0.706   3.979
 7490TIP3    H122347   7.914   0.744   3.921
 7490TIP3    H222348   7.955   0.614   3.986
 7491TIP3   OH222349   7.763   1.083   4.884
 7491TIP3    H122350   7.700   1.064   4.815
 7491TIP3    H222351   7.798   0.998   4.910
 7492TIP3   OH222352   7.621   1.276   4.521
 7492TIP3    H122353   7.715   1.265   4.506
 7492TIP3    H222354   7.614   1.354   4.576
 7493TIP3   OH222355   8.587   1.513   4.710
 7493TIP3    H122356   8.590   1.604   4.740
 7493TIP3    H222357   8.519   1.472   4.763
 7494TIP3   OH222358   8.349   1.643   3.658
 7494TIP3    H122359   8.301   1.620   3.579
 7494TIP3    H222360   8.317   1.730   3.682
 7495TIP3   OH222361   7.786   1.490   4.047
 7495TIP3    H122362   7.835   1.482   4.129
 7495TIP3    H222363   7.732   1.412   4.044
 7496TIP3   OH222364   8.557   1.545   3.301
 7496TIP3    H122365   8.614   1.476   3.268
 7496TIP3    H222366   8.583   1.556   3.392
 7497TIP3   OH222367   8.600   1.591   3.574
 7497TIP3    H122368   8.511   1.601   3.610
 7497TIP3    H222369   8.650   1.552   3.645
 7498TIP3   OH222370   7.969   1.265   4.876
 7498TIP3    H122371   8.020   1.249   4.956
 7498TIP3    H222372   7.897   1.203   4.882
 7499TIP3   OH222373   8.798   0.756   3.327
 7499TIP3    H122374   8.776   0.732   3.237
 7499TIP3    H222375   8.845   0.840   3.319
 7500TIP3   OH222376   8.303   0.601   4.681
 7500TIP3    H122377   8.250   0.621   4.758
 7500TIP3    H222378   8.289   0.675   4.622
 7501TIP3   OH222379   8.172   0.512   4.184
 7501TIP3    H122380   8.098   0.463   4.220
 7501TIP3    H222381   8.194   0.467   4.103
 7502TIP3   OH222382   8.676   0.584   3.903
 7502TIP3    H122383   8.612   0.653   3.887
 7502TIP3    H222384   8.729   0.581   3.823
 7503TIP3   OH222385   8.874   0.887   4.964
 7503TIP3    H122386   8.841   0.845   5.044
 7503TIP3    H222387   8.965   0.909   4.984
 7504TIP3   OH222388   8.819   0.594   4.164
 7504TIP3    H122389   8.775   0.643   4.094
 7504TIP3    H222390   8.859   0.519   4.119
 7505TIP3   OH222391   8.118   0.647   4.882
 7505TIP3    H122392   8.144   0.701   4.956
 7505TIP3    H222393   8.093   0.563   4.920
 7506TIP3   OH222394   8.832   0.858   4.575
 7506TIP3    H122395   8.871   0.789   4.521
 7506TIP3    H222396   8.825   0.819   4.662
 7507TIP3   OH222397   7.941   0.366   4.259
 7507TIP3    H122398   7.850   0.381   4.234
 7507TIP3    H222399   7.961   0.278   4.226
 7508TIP3   OH222400   8.228   0.383   3.947
 7508TIP3    H122401   8.315   0.360   3.913
 7508TIP3    H222402   8.170   0.377   3.872
 7509TIP3   OH222403   8.044   0.400   3.726
 7509TIP3    H122404   7.988   0.346   3.671
 7509TIP3    H222405   8.108   0.437   3.665
 7510TIP3   OH222406   9.166   2.084   4.668
 7510TIP3    H122407   9.168   2.099   4.574
 7510TIP3    H222408   9.236   2.141   4.703
 7511TIP3   OH222409   8.130   1.188   5.098
 7511TIP3    H122410   8.212   1.216   5.140
 7511TIP3    H222411   8.066   1.189   5.169
 7512TIP3   OH222412   8.599   0.644   4.351
 7512TIP3    H122413   8.668   0.603   4.299
 7512TIP3    H222414   8.597   0.593   4.432
 7513TIP3   OH222415   8.572   0.523   4.662
 7513TIP3    H122416   8.484   0.562   4.660
 7513TIP3    H222417   8.624   0.583   4.715
 7514TIP3   OH222418   8.306   0.928   3.737
 7514TIP3    H122419   8.236   0.864   3.722
 7514TIP3    H222420   8.289   0.962   3.825
 7515TIP3   OH222421   8.717   1.249   4.732
 7515TIP3    H122422   8.728   1.224   4.824
 7515TIP3    H222423   8.672   1.334   4.736
 7516TIP3   OH222424   8.002   0.946   4.409
 7516TIP3    H122425   8.037   0.923   4.323
 7516TIP3    H222426   8.044   0.884   4.470
 7517TIP3   OH222427   8.450   1.079   3.558
 7517TIP3    H122428   8.407   1.164   3.561
 7517TIP3    H222429   8.398   1.023   3.615
 7518TIP3   OH222430   7.869   0.873   5.030
 7518TIP3    H122431   7.898   0.856   5.120
 7518TIP3    H222432   7.804   0.805   5.013
 7519TIP3   OH222433   8.612   0.991   5.044
 7519TIP3    H122434   8.537   0.947   5.005
 7519TIP3    H222435   8.687   0.961   4.993
 7520TIP3   OH222436   8.866   1.505   4.629
 7520TIP3    H122437   8.771   1.503   4.639
 7520TIP3    H222438   8.897   1.559   4.702
 7521TIP3   OH222439   8.991   1.367   3.421
 7521TIP3    H122440   8.971   1.350   3.513
 7521TIP3    H222441   8.917   1.329   3.373
 7522TIP3   OH222442   8.943   1.036   4.280
 7522TIP3    H122443   8.860   0.990   4.287
 7522TIP3    H222444   9.008   0.966   4.269
 7523TIP3   OH222445   8.101   1.254   4.035
 7523TIP3    H122446   8.104   1.334   3.982
 7523TIP3    H222447   8.007   1.234   4.042
 7524TIP3   OH222448   7.666   0.556   3.741
 7524TIP3    H122449   7.715   0.637   3.755
 7524TIP3    H222450   7.590   0.563   3.798
 7525TIP3   OH222451   8.243   1.021   3.983
 7525TIP3    H122452   8.207   1.109   3.998
 7525TIP3    H222453   8.207   0.968   4.053
 7526TIP3   OH222454   8.372   1.599   4.505
 7526TIP3    H122455   8.411   1.670   4.454
 7526TIP3    H222456   8.446   1.562   4.554
 7527TIP3   OH222457   8.022   1.495   3.893
 7527TIP3    H122458   7.935   1.500   3.934
 7527TIP3    H222459   8.053   1.585   3.891
 7528TIP3   OH222460   8.760   1.232   4.459
 7528TIP3    H122461   8.759   1.227   4.555
 7528TIP3    H222462   8.836   1.180   4.434
 7529TIP3   OH222463   8.726   1.128   3.351
 7529TIP3    H122464   8.780   1.095   3.422
 7529TIP3    H222465   8.637   1.103   3.375
 7530TIP3   OH222466   8.996   1.765   4.513
 7530TIP3    H122467   8.917   1.711   4.501
 7530TIP3    H222468   8.992   1.829   4.442
 7531TIP3   OH222469   8.898   1.037   3.551
 7531TIP3    H122470   8.883   0.979   3.626
 7531TIP3    H222471   8.970   1.093   3.578
 7532TIP3   OH222472   7.808   1.461   4.666
 7532TIP3    H122473   7.861   1.385   4.691
 7532TIP3    H222474   7.838   1.530   4.726
 7533TIP3   OH222475   8.131   1.090   3.348
 7533TIP3    H122476   8.116   1.000   3.319
 7533TIP3    H222477   8.091   1.093   3.435
 7534TIP3   OH222478   8.047   1.111   3.614
 7534TIP3    H122479   8.114   1.086   3.677
 7534TIP3    H222480   8.046   1.207   3.617
 7535TIP3   OH222481   7.778   0.805   3.818
 7535TIP3    H122482   7.715   0.848   3.877
 7535TIP3    H222483   7.795   0.871   3.750
 7536TIP3   OH222484   8.312   1.312   3.567
 7536TIP3    H122485   8.225   1.332   3.603
 7536TIP3    H222486   8.326   1.378   3.500
 7537TIP3   OH222487   8.525   0.364   3.982
 7537TIP3    H122488   8.566   0.448   3.961
 7537TIP3    H222489   8.481   0.379   4.065
 7538TIP3   OH222490   8.755   0.661   4.842
 7538TIP3    H122491   8.788   0.746   4.873
 7538TIP3    H222492   8.829   0.623   4.794
 7539TIP3   OH222493   8.055   1.382   3.635
 7539TIP3    H122494   8.028   1.448   3.571
 7539TIP3    H222495   8.038   1.424   3.720
 7540TIP3   OH222496   7.772   1.013   3.626
 7540TIP3    H122497   7.823   1.094   3.633
 7540TIP3    H222498   7.817   0.961   3.560
 7541TIP3   OH222499   7.692   0.267   3.746
 7541TIP3    H122500   7.736   0.352   3.746
 7541TIP3    H222501   7.604   0.286   3.781
 7542TIP3   OH222502   9.046   1.743   4.115
 7542TIP3    H122503   9.009   1.794   4.042
 7542TIP3    H222504   9.121   1.698   4.077
 7543TIP3   OH222505   7.647   1.232   4.017
 7543TIP3    H122506   7.570   1.258   4.068
 7543TIP3    H222507   7.631   1.265   3.929
 7544TIP3   OH222508   7.801   1.767   5.086
 7544TIP3    H122509   7.885   1.770   5.131
 7544TIP3    H222510   7.779   1.673   5.083
 7545TIP3   OH222511   8.282   1.733   5.128
 7545TIP3    H122512   8.376   1.717   5.139
 7545TIP3    H222513   8.257   1.677   5.055
 7546TIP3   OH222514   8.265   1.309   3.261
 7546TIP3    H122515   8.207   1.243   3.299
 7546TIP3    H222516   8.337   1.258   3.223
 7547TIP3   OH222517   8.921   1.639   4.865
 7547TIP3    H122518   8.910   1.570   4.931
 7547TIP3    H222519   8.994   1.691   4.897
 7548TIP3   OH222520   8.705   1.348   3.181
 7548TIP3    H122521   8.732   1.266   3.222
 7548TIP3    H222522   8.742   1.343   3.092
 7549TIP3   OH222523   7.928   1.173   5.286
 7549TIP3    H122524   7.947   1.080   5.292
 7549TIP3    H222525   7.843   1.178   5.243
 7550TIP3   OH222526   7.910   0.826   3.477
 7550TIP3    H122527   7.961   0.794   3.552
 7550TIP3    H222528   7.974   0.832   3.406
 7551TIP3   OH222529   8.538   1.259   5.059
 7551TIP3    H122530   8.497   1.271   4.974
 7551TIP3    H222531   8.572   1.169   5.057
 7552TIP3   OH222532   8.434   1.013   3.285
 7552TIP3    H122533   8.417   1.038   3.376
 7552TIP3    H222534   8.395   0.926   3.276
 7553TIP3   OH222535   9.037   1.274   4.662
 7553TIP3    H122536   9.086   1.311   4.589
 7553TIP3    H222537   8.956   1.324   4.664
 7554TIP3   OH222538   8.047   0.900   5.272
 7554TIP3    H122539   8.125   0.851   5.245
 7554TIP3    H222540   8.070   0.936   5.358
 7555TIP3   OH222541   8.118   0.726   3.703
 7555TIP3    H122542   8.091   0.689   3.787
 7555TIP3    H222543   8.152   0.652   3.653
 7556TIP3   OH222544   8.391   0.874   4.930
 7556TIP3    H122545   8.299   0.903   4.931
 7556TIP3    H222546   8.412   0.865   4.837
 7557TIP3   OH222547   8.217   0.520   3.546
 7557TIP3    H122548   8.186   0.528   3.456
 7557TIP3    H222549   8.312   0.530   3.539
 7558TIP3   OH222550   8.901   1.198   5.068
 7558TIP3    H122551   8.978   1.172   5.018
 7558TIP3    H222552   8.894   1.133   5.138
 7559TIP3   OH222553   8.422   0.613   5.025
 7559TIP3    H122554   8.501   0.571   5.059
 7559TIP3    H222555   8.454   0.696   4.988
 7560TIP3   OH222556   8.569   0.903   4.705
 7560TIP3    H122557   8.644   0.922   4.649
 7560TIP3    H222558   8.505   0.970   4.682
 7561TIP3   OH222559   9.122   0.878   5.115
 7561TIP3    H122560   9.168   0.794   5.111
 7561TIP3    H222561   9.189   0.943   5.094
 7562TIP3   OH222562   9.176   1.136   4.847
 7562TIP3    H122563   9.112   1.184   4.796
 7562TIP3    H222564   9.257   1.143   4.796
 7563TIP3   OH222565   8.364   0.706   5.281
 7563TIP3    H122566   8.292   0.643   5.290
 7563TIP3    H222567   8.403   0.686   5.196
 7564TIP3   OH222568   8.800   0.742   5.172
 7564TIP3    H122569   8.759   0.726   5.257
 7564TIP3    H222570   8.814   0.655   5.135
 7565TIP3   OH222571   8.024   1.589   3.460
 7565TIP3    H122572   8.109   1.599   3.418
 7565TIP3    H222573   7.960   1.595   3.389
 7566TIP3   OH222574   7.505   0.964   3.665
 7566TIP3    H122575   7.596   0.990   3.651
 7566TIP3    H222576   7.497   0.878   3.623
 7567TIP3   OH222577   7.412   1.576   4.078
 7567TIP3    H122578   7.352   1.513   4.038
 7567TIP3    H222579   7.461   1.524   4.142
 7568TIP3   OH222580   7.552   1.436   4.266
 7568TIP3    H122581   7.543   1.357   4.320
 7568TIP3    H222582   7.605   1.495   4.320
 7569TIP3   OH222583   9.161   1.550   4.396
 7569TIP3    H122584   9.096   1.614   4.426
 7569TIP3    H222585   9.120   1.508   4.321
 7570TIP3   OH222586   7.743   0.835   4.633
 7570TIP3    H122587   7.738   0.807   4.542
 7570TIP3    H222588   7.837   0.839   4.652
 7571TIP3   OH222589   7.730   0.502   4.711
 7571TIP3    H122590   7.780   0.494   4.629
 7571TIP3    H222591   7.753   0.588   4.744
 7572TIP3   OH222592   8.845   1.713   3.747
 7572TIP3    H122593   8.880   1.685   3.663
 7572TIP3    H222594   8.913   1.768   3.785
 7573TIP3   OH222595   7.964   1.501   5.106
 7573TIP3    H122596   7.874   1.473   5.089
 7573TIP3    H222597   7.977   1.484   5.200
 7574TIP3   OH222598   8.144   1.535   4.650
 7574TIP3    H122599   8.094   1.609   4.614
 7574TIP3    H222600   8.231   1.544   4.610
 7575TIP3   OH222601   8.591   1.780   4.791
 7575TIP3    H122602   8.630   1.779   4.879
 7575TIP3    H222603   8.654   1.828   4.738
 7576TIP3   OH222604   8.770   1.930   4.649
 7576TIP3    H122605   8.838   1.879   4.604
 7576TIP3    H222606   8.819   1.987   4.709
 7577TIP3   OH222607   7.818   1.793   4.676
 7577TIP3    H122608   7.731   1.826   4.653
 7577TIP3    H222609   7.832   1.825   4.765
 7578TIP3   OH222610   8.055   1.771   4.534
 7578TIP3    H122611   7.971   1.783   4.579
 7578TIP3    H222612   8.039   1.802   4.445
 7579TIP3   OH222613   8.481   1.801   4.331
 7579TIP3    H122614   8.414   1.820   4.266
 7579TIP3    H222615   8.496   1.885   4.375
 7580TIP3   OH222616   8.748   1.739   4.383
 7580TIP3    H122617   8.657   1.756   4.362
 7580TIP3    H222618   8.796   1.812   4.344
 7581TIP3   OH222619   8.951   1.926   4.300
 7581TIP3    H122620   8.937   2.011   4.258
 7581TIP3    H222621   8.987   1.870   4.230
 7582TIP3   OH222622   7.734   1.584   4.424
 7582TIP3    H122623   7.758   1.561   4.514
 7582TIP3    H222624   7.802   1.543   4.370
 7583TIP3   OH222625   7.926   1.456   4.280
 7583TIP3    H122626   7.940   1.373   4.325
 7583TIP3    H222627   8.014   1.494   4.273
 7584TIP3   OH222628   8.193   1.551   4.283
 7584TIP3    H122629   8.222   1.462   4.264
 7584TIP3    H222630   8.235   1.574   4.365
 7585TIP3   OH222631   7.511   1.357   3.823
 7585TIP3    H122632   7.431   1.320   3.785
 7585TIP3    H222633   7.517   1.445   3.785
 7586TIP3   OH222634   8.295   1.548   3.390
 7586TIP3    H122635   8.382   1.570   3.356
 7586TIP3    H222636   8.267   1.474   3.336
 7587TIP3   OH222637   8.939   1.630   3.512
 7587TIP3    H122638   8.983   1.552   3.478
 7587TIP3    H222639   8.919   1.681   3.434
 7588TIP3   OH222640   9.204   1.814   4.688
 7588TIP3    H122641   9.143   1.771   4.628
 7588TIP3    H222642   9.183   1.908   4.679
 7589TIP3   OH222643   1.157   1.712   5.644
 7589TIP3    H122644   1.133   1.803   5.627
 7589TIP3    H222645   1.082   1.662   5.613
 7590TIP3   OH222646   1.159   1.710   6.024
 7590TIP3    H122647   1.189   1.684   6.111
 7590TIP3    H222648   1.116   1.632   5.989
 7591TIP3   OH222649   0.498   1.643   6.399
 7591TIP3    H122650   0.531   1.564   6.443
 7591TIP3    H222651   0.577   1.690   6.373
 7592TIP3   OH222652   1.402   2.012   5.708
 7592TIP3    H122653   1.387   1.945   5.774
 7592TIP3    H222654   1.429   2.089   5.758
 7593TIP3   OH222655   0.426   2.009   6.114
 7593TIP3    H122656   0.419   1.914   6.118
 7593TIP3    H222657   0.520   2.026   6.111
 7594TIP3   OH222658   1.049   2.474   5.723
 7594TIP3    H122659   1.096   2.406   5.675
 7594TIP3    H222660   1.045   2.442   5.813
 7595TIP3   OH222661   0.960   1.935   6.076
 7595TIP3    H122662   0.993   1.860   6.025
 7595TIP3    H222663   1.038   1.984   6.100
 7596TIP3   OH222664   1.969   1.259   6.070
 7596TIP3    H122665   1.997   1.339   6.115
 7596TIP3    H222666   1.987   1.276   5.978
 7597TIP3   OH222667   1.371   1.437   6.105
 7597TIP3    H122668   1.413   1.354   6.125
 7597TIP3    H222669   1.338   1.426   6.016
 7598TIP3   OH222670   1.404   1.189   5.695
 7598TIP3    H122671   1.472   1.175   5.760
 7598TIP3    H222672   1.450   1.225   5.619
 7599TIP3   OH222673   0.796   1.506   5.970
 7599TIP3    H122674   0.887   1.482   5.987
 7599TIP3    H222675   0.754   1.424   5.943
 7600TIP3   OH222676   2.042   1.466   6.243
 7600TIP3    H122677   1.961   1.512   6.220
 7600TIP3    H222678   2.060   1.494   6.333
 7601TIP3   OH222679   1.048   1.932   5.515
 7601TIP3    H122680   1.011   1.914   5.429
 7601TIP3    H222681   1.009   2.016   5.541
 7602TIP3   OH222682   0.811   1.859   6.303
 7602TIP3    H122683   0.749   1.923   6.339
 7602TIP3    H222684   0.856   1.906   6.233
 7603TIP3   OH222685   1.612   1.193   5.867
 7603TIP3    H122686   1.606   1.144   5.949
 7603TIP3    H222687   1.666   1.269   5.889
 7604TIP3   OH222688   0.632   2.051   6.397
 7604TIP3    H122689   0.614   2.138   6.363
 7604TIP3    H222690   0.555   2.031   6.451
 7605TIP3   OH222691   0.072   1.752   5.623
 7605TIP3    H122692  -0.001   1.775   5.565
 7605TIP3    H222693   0.074   1.823   5.687
 7606TIP3   OH222694   1.471   2.257   5.875
 7606TIP3    H122695   1.384   2.247   5.914
 7606TIP3    H222696   1.466   2.341   5.829
 7607TIP3   OH222697   1.762   1.158   6.235
 7607TIP3    H122698   1.676   1.188   6.206
 7607TIP3    H222699   1.823   1.189   6.168
 7608TIP3   OH222700   1.179   2.302   5.551
 7608TIP3    H122701   1.225   2.220   5.530
 7608TIP3    H222702   1.232   2.370   5.510
 7609TIP3   OH222703   1.315   2.086   5.456
 7609TIP3    H122704   1.284   2.007   5.411
 7609TIP3    H222705   1.352   2.053   5.538
 7610TIP3   OH222706   1.698   2.169   6.217
 7610TIP3    H122707   1.688   2.093   6.160
 7610TIP3    H222708   1.680   2.244   6.160
 7611TIP3   OH222709   0.989   1.564   5.472
 7611TIP3    H122710   0.910   1.616   5.453
 7611TIP3    H222711   1.037   1.562   5.390
 7612TIP3   OH222712   0.951   1.344   5.197
 7612TIP3    H122713   1.015   1.398   5.244
 7612TIP3    H222714   1.004   1.283   5.145
 7613TIP3   OH222715   1.892   1.807   6.061
 7613TIP3    H122716   1.811   1.857   6.069
 7613TIP3    H222717   1.925   1.829   5.974
 7614TIP3   OH222718   1.338   1.644   5.451
 7614TIP3    H122719   1.282   1.670   5.525
 7614TIP3    H222720   1.421   1.620   5.491
 7615TIP3   OH222721   1.571   1.687   6.358
 7615TIP3    H122722   1.571   1.770   6.405
 7615TIP3    H222723   1.487   1.687   6.312
 7616TIP3   OH222724   0.581   1.655   5.875
 7616TIP3    H122725   0.540   1.605   5.805
 7616TIP3    H222726   0.656   1.603   5.901
 7617TIP3   OH222727   0.697   2.050   6.014
 7617TIP3    H122728   0.678   2.011   5.929
 7617TIP3    H222729   0.787   2.023   6.034
 7618TIP3   OH222730   0.701   1.632   6.194
 7618TIP3    H122731   0.739   1.602   6.112
 7618TIP3    H222732   0.752   1.709   6.218
 7619TIP3   OH222733   1.232   2.252   5.996
 7619TIP3    H122734   1.217   2.332   6.046
 7619TIP3    H222735   1.216   2.182   6.059
 7620TIP3   OH222736   0.846   2.157   6.543
 7620TIP3    H122737   0.789   2.219   6.588
 7620TIP3    H222738   0.788   2.106   6.487
 7621TIP3   OH222739   1.180   1.505   5.272
 7621TIP3    H122740   1.236   1.562   5.325
 7621TIP3    H222741   1.204   1.525   5.182
 7622TIP3   OH222742   0.599   1.738   6.646
 7622TIP3    H122743   0.597   1.824   6.688
 7622TIP3    H222744   0.514   1.729   6.603
 7623TIP3   OH222745   0.921   2.187   5.551
 7623TIP3    H122746   1.001   2.237   5.567
 7623TIP3    H222747   0.861   2.249   5.511
 7624TIP3   OH222748   0.631   2.294   6.618
 7624TIP3    H122749   0.606   2.337   6.536
 7624TIP3    H222750   0.575   2.336   6.684
 7625TIP3   OH222751   1.692   0.748   5.320
 7625TIP3    H122752   1.613   0.767   5.371
 7625TIP3    H222753   1.709   0.828   5.271
 7626TIP3   OH222754   0.473   1.514   5.665
 7626TIP3    H122755   0.404   1.564   5.622
 7626TIP3    H222756   0.432   1.429   5.684
 7627TIP3   OH222757   1.493   2.115   4.867
 7627TIP3    H122758   1.499   2.209   4.854
 7627TIP3    H222759   1.583   2.083   4.857
 7628TIP3   OH222760   0.063   2.064   6.219
 7628TIP3    H122761   0.150   2.032   6.195
 7628TIP3    H222762   0.080   2.145   6.267
 7629TIP3   OH222763   1.935   2.513   6.266
 7629TIP3    H122764   1.935   2.418   6.276
 7629TIP3    H222765   1.854   2.541   6.308
 7630TIP3   OH222766   1.043   2.291   6.397
 7630TIP3    H122767   1.051   2.382   6.424
 7630TIP3    H222768   0.973   2.256   6.452
 7631TIP3   OH222769   0.783   2.420   5.354
 7631TIP3    H122770   0.773   2.414   5.259
 7631TIP3    H222771   0.771   2.513   5.373
 7632TIP3   OH222772   0.240   2.277   5.737
 7632TIP3    H122773   0.292   2.273   5.817
 7632TIP3    H222774   0.181   2.202   5.743
 7633TIP3   OH222775   1.050   2.404   5.283
 7633TIP3    H122776   0.962   2.384   5.314
 7633TIP3    H222777   1.105   2.336   5.322
 7634TIP3   OH222778   1.824   1.643   6.539
 7634TIP3    H122779   1.746   1.662   6.486
 7634TIP3    H222780   1.841   1.550   6.526
 7635TIP3   OH222781   0.411   2.033   6.566
 7635TIP3    H122782   0.473   2.056   6.636
 7635TIP3    H222783   0.339   1.988   6.612
 7636TIP3   OH222784   1.347   0.987   6.558
 7636TIP3    H122785   1.433   0.965   6.595
 7636TIP3    H222786   1.289   0.994   6.633
 7637TIP3   OH222787   1.594   1.421   6.458
 7637TIP3    H122788   1.547   1.417   6.541
 7637TIP3    H222789   1.572   1.507   6.422
 7638TIP3   OH222790   1.255   1.550   5.016
 7638TIP3    H122791   1.220   1.524   4.930
 7638TIP3    H222792   1.332   1.603   4.995
 7639TIP3   OH222793   0.953   0.929   5.329
 7639TIP3    H122794   0.919   0.941   5.418
 7639TIP3    H222795   0.949   0.834   5.315
 7640TIP3   OH222796   0.803   1.435   6.353
 7640TIP3    H122797   0.727   1.413   6.409
 7640TIP3    H222798   0.768   1.497   6.289
 7641TIP3   OH222799   0.672   1.279   5.887
 7641TIP3    H122800   0.589   1.243   5.916
 7641TIP3    H222801   0.682   1.250   5.797
 7642TIP3   OH222802   1.133   1.371   5.605
 7642TIP3    H122803   1.078   1.439   5.567
 7642TIP3    H222804   1.185   1.338   5.531
 7643TIP3   OH222805   1.305   1.644   6.696
 7643TIP3    H122806   1.287   1.571   6.756
 7643TIP3    H222807   1.398   1.664   6.711
 7644TIP3   OH222808   1.285   1.392   5.845
 7644TIP3    H122809   1.226   1.428   5.778
 7644TIP3    H222810   1.319   1.311   5.806
 7645TIP3   OH222811   1.299   1.637   6.270
 7645TIP3    H122812   1.330   1.569   6.210
 7645TIP3    H222813   1.267   1.589   6.346
 7646TIP3   OH222814   0.973   1.113   5.940
 7646TIP3    H122815   0.884   1.120   5.975
 7646TIP3    H222816   1.030   1.116   6.016
 7647TIP3   OH222817   0.668   1.181   5.636
 7647TIP3    H122818   0.762   1.172   5.619
 7647TIP3    H222819   0.628   1.169   5.550
 7648TIP3   OH222820   1.455   1.174   6.147
 7648TIP3    H122821   1.424   1.190   6.236
 7648TIP3    H222822   1.392   1.113   6.110
 7649TIP3   OH222823   0.515   1.156   5.399
 7649TIP3    H122824   0.432   1.154   5.351
 7649TIP3    H222825   0.574   1.208   5.344
 7650TIP3   OH222826   1.628   2.865   6.361
 7650TIP3    H122827   1.622   2.887   6.268
 7650TIP3    H222828   1.703   2.916   6.394
 7651TIP3   OH222829   0.594   1.980   6.783
 7651TIP3    H122830   0.683   2.012   6.797
 7651TIP3    H222831   0.546   2.006   6.861
 7652TIP3   OH222832   1.053   1.430   6.043
 7652TIP3    H122833   1.122   1.390   5.990
 7652TIP3    H222834   1.061   1.388   6.128
 7653TIP3   OH222835   1.038   1.315   6.314
 7653TIP3    H122836   0.955   1.358   6.335
 7653TIP3    H222837   1.102   1.356   6.372
 7654TIP3   OH222838   0.757   1.716   5.424
 7654TIP3    H122839   0.686   1.653   5.412
 7654TIP3    H222840   0.744   1.751   5.512
 7655TIP3   OH222841   1.661   1.951   6.052
 7655TIP3    H122842   1.686   2.001   5.974
 7655TIP3    H222843   1.577   1.911   6.029
 7656TIP3   OH222844   1.213   1.028   5.288
 7656TIP3    H122845   1.118   1.019   5.293
 7656TIP3    H222846   1.229   1.121   5.307
 7657TIP3   OH222847   1.160   2.034   6.422
 7657TIP3    H122848   1.181   2.019   6.514
 7657TIP3    H222849   1.121   2.122   6.420
 7658TIP3   OH222850   1.291   1.275   5.386
 7658TIP3    H122851   1.385   1.283   5.404
 7658TIP3    H222852   1.270   1.354   5.336
 7659TIP3   OH222853   0.447   1.729   6.105
 7659TIP3    H122854   0.481   1.710   6.018
 7659TIP3    H222855   0.514   1.694   6.164
 7660TIP3   OH222856   0.906   1.863   5.244
 7660TIP3    H122857   0.863   1.948   5.250
 7660TIP3    H222858   0.856   1.806   5.302
 7661TIP3   OH222859   1.059   1.765   6.733
 7661TIP3    H122860   1.002   1.721   6.671
 7661TIP3    H222861   1.147   1.740   6.707
 7662TIP3   OH222862   1.321   2.290   6.320
 7662TIP3    H122863   1.225   2.290   6.328
 7662TIP3    H222864   1.350   2.343   6.394
 7663TIP3   OH222865   1.730   1.367   5.223
 7663TIP3    H122866   1.669   1.319   5.166
 7663TIP3    H222867   1.730   1.456   5.188
 7664TIP3   OH222868   1.948   2.221   6.305
 7664TIP3    H122869   1.852   2.219   6.301
 7664TIP3    H222870   1.977   2.193   6.218
 7665TIP3   OH222871   1.438   2.183   5.134
 7665TIP3    H122872   1.405   2.115   5.193
 7665TIP3    H222873   1.445   2.140   5.049
 7666TIP3   OH222874   1.426   1.812   5.974
 7666TIP3    H122875   1.333   1.790   5.988
 7666TIP3    H222876   1.461   1.736   5.928
 7667TIP3   OH222877   0.554   2.042   5.723
 7667TIP3    H122878   0.561   2.123   5.672
 7667TIP3    H222879   0.460   2.029   5.735
 7668TIP3   OH222880   0.692   1.809   5.669
 7668TIP3    H122881   0.660   1.898   5.685
 7668TIP3    H222882   0.663   1.759   5.746
 7669TIP3   OH222883   0.824   2.385   6.194
 7669TIP3    H122884   0.859   2.462   6.149
 7669TIP3    H222885   0.898   2.353   6.246
 7670TIP3   OH222886   0.472   2.283   5.576
 7670TIP3    H122887   0.388   2.291   5.623
 7670TIP3    H222888   0.508   2.372   5.578
 7671TIP3   OH222889   1.212   2.017   6.155
 7671TIP3    H122890   1.202   2.018   6.250
 7671TIP3    H222891   1.293   1.968   6.139
 7672TIP3   OH222892   1.185   1.907   5.038
 7672TIP3    H122893   1.239   1.884   5.115
 7672TIP3    H222894   1.095   1.895   5.068
 7673TIP3   OH222895   1.460   2.554   6.200
 7673TIP3    H122896   1.381   2.498   6.196
 7673TIP3    H222897   1.447   2.619   6.132
 7674TIP3   OH222898   1.525   2.391   4.855
 7674TIP3    H122899   1.568   2.459   4.802
 7674TIP3    H222900   1.445   2.432   4.888
 7675TIP3   OH222901   1.347   1.846   5.257
 7675TIP3    H122902   1.336   1.781   5.326
 7675TIP3    H222903   1.441   1.847   5.240
 7676TIP3   OH222904   0.256   2.239   6.359
 7676TIP3    H122905   0.321   2.174   6.383
 7676TIP3    H222906   0.282   2.319   6.406
 7677TIP3   OH222907   0.539   1.912   5.027
 7677TIP3    H122908   0.572   1.829   4.992
 7677TIP3    H222909   0.532   1.898   5.121
 7678TIP3   OH222910   0.498   1.899   5.308
 7678TIP3    H122911   0.573   1.869   5.360
 7678TIP3    H222912   0.500   1.994   5.316
 7679TIP3   OH222913   0.244   1.577   5.516
 7679TIP3    H122914   0.184   1.628   5.571
 7679TIP3    H222915   0.268   1.636   5.445
 7680TIP3   OH222916   1.384   1.222   6.405
 7680TIP3    H122917   1.462   1.264   6.441
 7680TIP3    H222918   1.369   1.146   6.461
 7681TIP3   OH222919   1.267   0.983   5.562
 7681TIP3    H122920   1.249   1.005   5.471
 7681TIP3    H222921   1.303   1.064   5.599
 7682TIP3   OH222922   0.758   2.085   5.258
 7682TIP3    H122923   0.682   2.129   5.297
 7682TIP3    H222924   0.790   2.147   5.192
 7683TIP3   OH222925   0.957   1.173   5.675
 7683TIP3    H122926   1.020   1.243   5.654
 7683TIP3    H222927   0.960   1.165   5.770
 7684TIP3   OH222928   1.226   1.478   6.476
 7684TIP3    H122929   1.236   1.534   6.553
 7684TIP3    H222930   1.280   1.401   6.495
 7685TIP3   OH222931   1.108   0.890   5.769
 7685TIP3    H122932   1.078   0.963   5.822
 7685TIP3    H222933   1.164   0.930   5.702
 7686TIP3   OH222934   0.496   2.171   5.321
 7686TIP3    H122935   0.479   2.241   5.258
 7686TIP3    H222936   0.488   2.214   5.407
 7687TIP3   OH222937   1.860   1.377   6.458
 7687TIP3    H122938   1.764   1.377   6.465
 7687TIP3    H222939   1.878   1.341   6.371
 7688TIP3   OH222940   1.513   1.570   5.847
 7688TIP3    H122941   1.437   1.514   5.859
 7688TIP3    H222942   1.583   1.526   5.893
 7689TIP3   OH222943   0.224   1.807   5.308
 7689TIP3    H122944   0.291   1.871   5.331
 7689TIP3    H222945   0.267   1.749   5.246
 7690TIP3   OH222946   1.482   2.529   5.794
 7690TIP3    H122947   1.436   2.573   5.723
 7690TIP3    H222948   1.575   2.546   5.776
 7691TIP3   OH222949   0.095   2.026   5.722
 7691TIP3    H122950   0.009   2.059   5.748
 7691TIP3    H222951   0.102   2.045   5.629
 7692TIP3   OH222952   0.275   2.560   6.759
 7692TIP3    H122953   0.345   2.567   6.823
 7692TIP3    H222954   0.230   2.479   6.780
 7693TIP3   OH222955   1.379   2.426   6.553
 7693TIP3    H122956   1.369   2.359   6.620
 7693TIP3    H222957   1.451   2.481   6.584
 7694TIP3   OH222958   1.142   2.134   4.841
 7694TIP3    H122959   1.187   2.097   4.917
 7694TIP3    H222960   1.209   2.140   4.773
 7695TIP3   OH222961   0.367   1.613   5.173
 7695TIP3    H122962   0.420   1.583   5.246
 7695TIP3    H222963   0.428   1.618   5.099
 7696TIP3   OH222964   0.988   2.043   6.749
 7696TIP3    H122965   0.952   2.067   6.663
 7696TIP3    H222966   1.020   1.953   6.737
 7697TIP3   OH222967   0.847   1.808   4.976
 7697TIP3    H122968   0.866   1.829   5.068
 7697TIP3    H222969   0.860   1.713   4.969
 7698TIP3   OH222970   1.484   2.057   6.355
 7698TIP3    H122971   1.558   2.100   6.311
 7698TIP3    H222972   1.411   2.119   6.345
 7699TIP3   OH222973   0.559   1.517   5.384
 7699TIP3    H122974   0.550   1.487   5.474
 7699TIP3    H222975   0.603   1.444   5.339
 7700TIP3   OH222976   0.823   1.581   6.621
 7700TIP3    H122977   0.757   1.650   6.625
 7700TIP3    H222978   0.875   1.602   6.544
 7701TIP3   OH222979   0.670   1.308   5.231
 7701TIP3    H122980   0.643   1.314   5.139
 7701TIP3    H222981   0.766   1.315   5.227
 7702TIP3   OH222982   1.350   1.979   6.755
 7702TIP3    H122983   1.429   1.965   6.703
 7702TIP3    H222984   1.354   1.912   6.823
 7703TIP3   OH222985   1.492   1.643   4.890
 7703TIP3    H122986   1.471   1.595   4.811
 7703TIP3    H222987   1.462   1.733   4.873
 7704TIP3   OH222988   0.993   1.385   6.730
 7704TIP3    H122989   0.945   1.312   6.689
 7704TIP3    H222990   0.938   1.462   6.714
 7705TIP3   OH222991   0.992   1.701   6.439
 7705TIP3    H122992   1.070   1.695   6.384
 7705TIP3    H222993   0.935   1.762   6.392
 7706TIP3   OH222994   1.577   1.659   6.809
 7706TIP3    H122995   1.625   1.576   6.808
 7706TIP3    H222996   1.638   1.723   6.772
 7707TIP3   OH222997   1.614   1.914   6.541
 7707TIP3    H122998   1.554   1.964   6.486
 7707TIP3    H222999   1.700   1.932   6.505
 7708TIP3   OH223000   1.241   1.424   6.840
 7708TIP3    H123001   1.227   1.432   6.934
 7708TIP3    H223002   1.154   1.408   6.804
 7709TIP3   OH223003   1.464   1.371   6.689
 7709TIP3    H123004   1.390   1.379   6.749
 7709TIP3    H223005   1.537   1.343   6.744
 7710TIP3   OH223006   1.688   1.314   6.845
 7710TIP3    H123007   1.703   1.221   6.860
 7710TIP3    H223008   1.686   1.353   6.933
 7711TIP3   OH223009   0.485   2.367   5.122
 7711TIP3    H123010   0.579   2.377   5.110
 7711TIP3    H223011   0.446   2.413   5.047
 7712TIP3   OH223012   9.760   1.726   5.361
 7712TIP3    H123013   9.845   1.770   5.353
 7712TIP3    H223014   9.777   1.638   5.328
 7713TIP3   OH223015   9.678   2.359   5.753
 7713TIP3    H123016   9.589   2.322   5.748
 7713TIP3    H223017   9.718   2.316   5.828
 7714TIP3   OH223018  -0.004   2.230   5.961
 7714TIP3    H123019   0.004   2.149   6.010
 7714TIP3    H223020   0.051   2.293   6.008
 7715TIP3   OH223021   1.734   2.620   5.752
 7715TIP3    H123022   1.759   2.654   5.838
 7715TIP3    H223023   1.794   2.663   5.691
 7716TIP3   OH223024   1.762   2.638   6.035
 7716TIP3    H123025   1.718   2.553   6.028
 7716TIP3    H223026   1.840   2.620   6.088
 7717TIP3   OH223027   1.811   2.316   6.610
 7717TIP3    H123028   1.736   2.324   6.670
 7717TIP3    H223029   1.851   2.403   6.611
 7718TIP3   OH223030   1.627   1.829   5.228
 7718TIP3    H123031   1.691   1.894   5.198
 7718TIP3    H223032   1.668   1.790   5.306
 7719TIP3   OH223033   1.754   1.695   5.432
 7719TIP3    H123034   1.688   1.655   5.489
 7719TIP3    H223035   1.817   1.735   5.492
 7720TIP3   OH223036   1.808   2.088   5.863
 7720TIP3    H123037   1.859   2.025   5.812
 7720TIP3    H223038   1.799   2.164   5.805
 7721TIP3   OH223039   1.637   2.388   6.060
 7721TIP3    H123040   1.569   2.433   6.110
 7721TIP3    H223041   1.590   2.342   5.990
 7722TIP3   OH223042   1.689   1.606   5.077
 7722TIP3    H123043   1.621   1.605   5.010
 7722TIP3    H223044   1.666   1.680   5.134
 7723TIP3   OH223045   1.563   1.276   5.031
 7723TIP3    H123046   1.520   1.320   4.957
 7723TIP3    H223047   1.538   1.184   5.022
 7724TIP3   OH223048   1.567   1.552   5.579
 7724TIP3    H123049   1.575   1.457   5.573
 7724TIP3    H223050   1.554   1.568   5.673
 7725TIP3   OH223051   1.857   1.977   6.434
 7725TIP3    H123052   1.928   1.913   6.425
 7725TIP3    H223053   1.879   2.047   6.373
 7726TIP3   OH223054   2.041   1.780   6.455
 7726TIP3    H123055   1.966   1.734   6.493
 7726TIP3    H223056   2.114   1.720   6.466
 7727TIP3   OH223057   1.505   1.012   5.020
 7727TIP3    H123058   1.579   0.981   5.072
 7727TIP3    H223059   1.434   0.952   5.042
 7728TIP3   OH223060   1.565   1.267   5.473
 7728TIP3    H123061   1.603   1.181   5.490
 7728TIP3    H223062   1.620   1.304   5.404
 7729TIP3   OH223063   1.729   1.446   5.969
 7729TIP3    H123064   1.811   1.469   5.926
 7729TIP3    H223065   1.737   1.480   6.058
 7730TIP3   OH223066   1.793   1.590   6.201
 7730TIP3    H123067   1.715   1.621   6.247
 7730TIP3    H223068   1.826   1.667   6.154
 7731TIP3   OH223069   2.248   1.178   6.755
 7731TIP3    H123070   2.304   1.112   6.714
 7731TIP3    H223071   2.217   1.232   6.682
 7732TIP3   OH223072   1.673   1.018   5.512
 7732TIP3    H123073   1.722   1.006   5.592
 7732TIP3    H223074   1.613   0.943   5.509
 7733TIP3   OH223075   2.113   1.316   6.563
 7733TIP3    H123076   2.029   1.359   6.579
 7733TIP3    H223077   2.093   1.245   6.503
 7734TIP3   OH223078   1.755   0.955   5.142
 7734TIP3    H123079   1.794   0.883   5.093
 7734TIP3    H223080   1.819   1.025   5.137
 7735TIP3   OH223081   1.325   2.484   5.414
 7735TIP3    H123082   1.367   2.469   5.329
 7735TIP3    H223083   1.376   2.553   5.456
 7736TIP3   OH223084   0.404   2.229   6.830
 7736TIP3    H123085   0.313   2.233   6.800
 7736TIP3    H223086   0.412   2.301   6.894
 7737TIP3   OH223087   0.593   2.321   6.330
 7737TIP3    H123088   0.547   2.398   6.297
 7737TIP3    H223089   0.682   2.329   6.293
 7738TIP3   OH223090   1.063   2.548   6.474
 7738TIP3    H123091   1.069   2.575   6.565
 7738TIP3    H223092   1.113   2.614   6.425
 7739TIP3   OH223093   1.223   2.724   6.338
 7739TIP3    H123094   1.291   2.669   6.299
 7739TIP3    H223095   1.271   2.781   6.399
 7740TIP3   OH223096   2.014   1.079   6.440
 7740TIP3    H123097   1.925   1.076   6.405
 7740TIP3    H223098   2.046   0.989   6.430
 7741TIP3   OH223099   0.266   2.575   6.368
 7741TIP3    H123100   0.180   2.611   6.348
 7741TIP3    H223101   0.285   2.606   6.457
 7742TIP3   OH223102   0.503   2.553   6.222
 7742TIP3    H123103   0.420   2.569   6.267
 7742TIP3    H223104   0.492   2.592   6.135
 7743TIP3   OH223105   0.936   2.591   6.020
 7743TIP3    H123106   0.866   2.610   5.957
 7743TIP3    H223107   0.948   2.673   6.068
 7744TIP3   OH223108   1.203   2.527   6.071
 7744TIP3    H123109   1.110   2.542   6.055
 7744TIP3    H223110   1.247   2.603   6.033
 7745TIP3   OH223111   1.414   2.720   5.987
 7745TIP3    H123112   1.398   2.803   5.942
 7745TIP3    H223113   1.437   2.659   5.917
 7746TIP3   OH223114   0.184   2.365   6.107
 7746TIP3    H123115   0.204   2.356   6.200
 7746TIP3    H223116   0.258   2.325   6.062
 7747TIP3   OH223117   0.382   2.241   5.966
 7747TIP3    H123118   0.397   2.160   6.014
 7747TIP3    H223119   0.468   2.283   5.962
 7748TIP3   OH223120   0.644   2.338   5.972
 7748TIP3    H123121   0.676   2.249   5.957
 7748TIP3    H223122   0.685   2.365   6.054
 7749TIP3   OH223123   1.230   0.989   6.062
 7749TIP3    H123124   1.180   0.908   6.070
 7749TIP3    H223125   1.303   0.966   6.004
 7750TIP3   OH223126   1.742   0.873   5.963
 7750TIP3    H123127   1.783   0.925   5.894
 7750TIP3    H223128   1.649   0.895   5.957
 7751TIP3   OH223129   1.836   0.983   5.731
 7751TIP3    H123130   1.902   0.926   5.693
 7751TIP3    H223131   1.868   1.071   5.715
 7752TIP3   OH223132   1.459   0.879   5.940
 7752TIP3    H123133   1.453   0.851   5.849
 7752TIP3    H223134   1.443   0.799   5.991
 7753TIP3   OH223135   1.486   0.807   5.500
 7753TIP3    H123136   1.404   0.854   5.511
 7753TIP3    H223137   1.471   0.721   5.540
 7754TIP3   OH223138   9.756   2.144   5.510
 7754TIP3    H123139   9.701   2.104   5.443
 7754TIP3    H223140   9.752   2.238   5.492
 7755TIP3   OH223141   0.868   0.934   5.591
 7755TIP3    H123142   0.924   0.872   5.637
 7755TIP3    H223143   0.899   1.020   5.619
 7756TIP3   OH223144   1.461   2.450   5.176
 7756TIP3    H123145   1.458   2.355   5.166
 7756TIP3    H223146   1.418   2.484   5.098
 7757TIP3   OH223147   0.053   2.169   5.146
 7757TIP3    H123148   0.044   2.212   5.232
 7757TIP3    H223149   0.141   2.133   5.146
 7758TIP3   OH223150   1.750   1.044   6.875
 7758TIP3    H123151   1.770   1.011   6.963
 7758TIP3    H223152   1.832   1.038   6.827
 7759TIP3   OH223153   1.688   2.597   6.365
 7759TIP3    H123154   1.612   2.562   6.317
 7759TIP3    H223155   1.673   2.691   6.369
 7760TIP3   OH223156   2.944   1.961   5.124
 7760TIP3    H123157   2.949   2.055   5.110
 7760TIP3    H223158   2.850   1.944   5.137
 7761TIP3   OH223159   2.989   1.940   5.496
 7761TIP3    H123160   2.987   1.948   5.592
 7761TIP3    H223161   2.906   1.897   5.474
 7762TIP3   OH223162   2.258   1.864   5.878
 7762TIP3    H123163   2.288   1.797   5.940
 7762TIP3    H223164   2.331   1.925   5.871
 7763TIP3   OH223165   3.196   2.266   5.194
 7763TIP3    H123166   3.183   2.203   5.264
 7763TIP3    H223167   3.220   2.348   5.238
 7764TIP3   OH223168   2.223   2.267   5.605
 7764TIP3    H123169   2.207   2.172   5.603
 7764TIP3    H223170   2.318   2.275   5.610
 7765TIP3   OH223171   1.932   1.479   5.387
 7765TIP3    H123172   1.887   1.561   5.403
 7765TIP3    H223173   1.865   1.421   5.352
 7766TIP3   OH223174   1.992   1.764   5.558
 7766TIP3    H123175   2.040   1.689   5.595
 7766TIP3    H223176   2.052   1.800   5.493
 7767TIP3   OH223177   2.851   2.730   5.211
 7767TIP3    H123178   2.898   2.664   5.160
 7767TIP3    H223179   2.820   2.683   5.289
 7768TIP3   OH223180   2.764   2.161   5.586
 7768TIP3    H123181   2.738   2.172   5.494
 7768TIP3    H223182   2.840   2.218   5.596
 7769TIP3   OH223183   3.768   1.516   5.557
 7769TIP3    H123184   3.794   1.595   5.604
 7769TIP3    H223185   3.784   1.536   5.465
 7770TIP3   OH223186   3.168   1.693   5.597
 7770TIP3    H123187   3.208   1.608   5.614
 7770TIP3    H223188   3.134   1.686   5.508
 7771TIP3   OH223189   2.496   1.352   5.559
 7771TIP3    H123190   2.478   1.420   5.495
 7771TIP3    H223191   2.457   1.273   5.522
 7772TIP3   OH223192   3.199   1.448   5.180
 7772TIP3    H123193   3.265   1.431   5.247
 7772TIP3    H223194   3.249   1.482   5.105
 7773TIP3   OH223195   2.138   1.555   5.663
 7773TIP3    H123196   2.218   1.537   5.713
 7773TIP3    H223197   2.145   1.500   5.586
 7774TIP3   OH223198   2.584   1.751   5.443
 7774TIP3    H123199   2.673   1.727   5.469
 7774TIP3    H223200   2.541   1.667   5.426
 7775TIP3   OH223201   3.836   1.722   5.731
 7775TIP3    H123202   3.757   1.769   5.708
 7775TIP3    H223203   3.858   1.752   5.819
 7776TIP3   OH223204   2.494   1.335   5.992
 7776TIP3    H123205   2.441   1.380   5.925
 7776TIP3    H223206   2.449   1.354   6.074
 7777TIP3   OH223207   2.853   2.190   4.992
 7777TIP3    H123208   2.806   2.180   4.909
 7777TIP3    H223209   2.823   2.274   5.026
 7778TIP3   OH223210   2.600   2.109   5.796
 7778TIP3    H123211   2.545   2.182   5.825
 7778TIP3    H223212   2.650   2.144   5.723
 7779TIP3   OH223213   3.409   1.446   5.353
 7779TIP3    H123214   3.393   1.402   5.437
 7779TIP3    H223215   3.460   1.524   5.377
 7780TIP3   OH223216   2.373   1.454   5.776
 7780TIP3    H123217   2.430   1.527   5.801
 7780TIP3    H223218   2.418   1.412   5.704
 7781TIP3   OH223219   2.430   2.312   5.884
 7781TIP3    H123220   2.411   2.398   5.847
 7781TIP3    H223221   2.355   2.292   5.940
 7782TIP3   OH223222   1.831   1.997   5.121
 7782TIP3    H123223   1.788   2.022   5.039
 7782TIP3    H223224   1.860   2.080   5.159
 7783TIP3   OH223225   3.273   2.514   5.357
 7783TIP3    H123226   3.189   2.502   5.402
 7783TIP3    H223227   3.265   2.598   5.312
 7784TIP3   OH223228   3.559   1.413   5.722
 7784TIP3    H123229   3.472   1.443   5.695
 7784TIP3    H223230   3.618   1.445   5.653
 7785TIP3   OH223231   2.865   1.059   5.717
 7785TIP3    H123232   2.846   0.965   5.714
 7785TIP3    H223233   2.785   1.099   5.751
 7786TIP3   OH223234   3.005   2.566   5.057
 7786TIP3    H123235   3.034   2.481   5.022
 7786TIP3    H223236   3.046   2.631   5.000
 7787TIP3   OH223237   3.119   2.340   4.937
 7787TIP3    H123238   3.060   2.270   4.910
 7787TIP3    H223239   3.153   2.311   5.022
 7788TIP3   OH223240   3.495   2.426   5.703
 7788TIP3    H123241   3.483   2.349   5.647
 7788TIP3    H223242   3.476   2.501   5.646
 7789TIP3   OH223243   2.751   1.811   4.930
 7789TIP3    H123244   2.705   1.894   4.920
 7789TIP3    H223245   2.826   1.817   4.871
 7790TIP3   OH223246   2.754   1.595   4.702
 7790TIP3    H123247   2.822   1.657   4.728
 7790TIP3    H223248   2.799   1.534   4.644
 7791TIP3   OH223249   3.688   2.062   5.546
 7791TIP3    H123250   3.607   2.113   5.555
 7791TIP3    H223251   3.721   2.086   5.460
 7792TIP3   OH223252   3.134   1.898   4.936
 7792TIP3    H123253   3.080   1.926   5.010
 7792TIP3    H223254   3.219   1.876   4.976
 7793TIP3   OH223255   3.368   1.944   5.845
 7793TIP3    H123256   3.367   2.027   5.892
 7793TIP3    H223257   3.283   1.942   5.801
 7794TIP3   OH223258   2.358   1.890   5.357
 7794TIP3    H123259   2.324   1.840   5.283
 7794TIP3    H223260   2.441   1.847   5.379
 7795TIP3   OH223261   2.508   1.871   5.700
 7795TIP3    H123262   2.539   1.862   5.610
 7795TIP3    H223263   2.543   1.955   5.729
 7796TIP3   OH223264   3.042   2.511   5.487
 7796TIP3    H123265   3.010   2.589   5.533
 7796TIP3    H223266   3.016   2.438   5.543
 7797TIP3   OH223267   2.636   2.426   6.032
 7797TIP3    H123268   2.580   2.490   6.075
 7797TIP3    H223269   2.576   2.374   5.979
 7798TIP3   OH223270   2.969   1.768   4.761
 7798TIP3    H123271   3.030   1.820   4.813
 7798TIP3    H223272   2.993   1.787   4.670
 7799TIP3   OH223273   2.392   1.984   6.132
 7799TIP3    H123274   2.400   2.070   6.174
 7799TIP3    H223275   2.299   1.964   6.137
 7800TIP3   OH223276   2.732   2.450   5.006
 7800TIP3    H123277   2.747   2.453   5.100
 7800TIP3    H223278   2.649   2.495   4.993
 7801TIP3   OH223279   2.433   2.597   6.114
 7801TIP3    H123280   2.402   2.598   6.024
 7801TIP3    H223281   2.356   2.574   6.167
 7802TIP3   OH223282   3.487   0.998   4.810
 7802TIP3    H123283   3.409   1.017   4.862
 7802TIP3    H223284   3.503   1.077   4.760
 7803TIP3   OH223285   2.233   1.735   5.142
 7803TIP3    H123286   2.170   1.790   5.097
 7803TIP3    H223287   2.183   1.659   5.172
 7804TIP3   OH223288   3.290   2.371   4.349
 7804TIP3    H123289   3.296   2.466   4.343
 7804TIP3    H223290   3.381   2.340   4.343
 7805TIP3   OH223291   2.013   2.126   6.062
 7805TIP3    H123292   1.949   2.107   5.994
 7805TIP3    H223293   2.049   2.040   6.085
 7806TIP3   OH223294   1.869   2.318   5.701
 7806TIP3    H123295   1.963   2.315   5.684
 7806TIP3    H223296   1.856   2.400   5.749
 7807TIP3   OH223297   3.730   2.770   5.752
 7807TIP3    H123298   3.731   2.674   5.762
 7807TIP3    H223299   3.650   2.798   5.795
 7808TIP3   OH223300   2.840   2.555   5.890
 7808TIP3    H123301   2.840   2.647   5.916
 7808TIP3    H223302   2.768   2.516   5.940
 7809TIP3   OH223303   2.592   2.693   4.830
 7809TIP3    H123304   2.547   2.675   4.748
 7809TIP3    H223305   2.562   2.780   4.856
 7810TIP3   OH223306   2.035   2.535   5.224
 7810TIP3    H123307   2.085   2.528   5.305
 7810TIP3    H223308   1.976   2.459   5.226
 7811TIP3   OH223309   2.803   2.588   4.479
 7811TIP3    H123310   2.860   2.519   4.445
 7811TIP3    H223311   2.830   2.598   4.570
 7812TIP3   OH223312   2.843   2.631   4.753
 7812TIP3    H123313   2.756   2.645   4.789
 7812TIP3    H223314   2.891   2.586   4.823
 7813TIP3   OH223315   3.621   1.900   6.025
 7813TIP3    H123316   3.542   1.918   5.974
 7813TIP3    H223317   3.636   1.806   6.015
 7814TIP3   OH223318   2.218   2.308   6.053
 7814TIP3    H123319   2.268   2.293   6.134
 7814TIP3    H223320   2.145   2.247   6.059
 7815TIP3   OH223321   2.619   1.124   5.832
 7815TIP3    H123322   2.560   1.085   5.768
 7815TIP3    H223323   2.570   1.197   5.869
 7816TIP3   OH223324   3.150   1.249   6.031
 7816TIP3    H123325   3.216   1.221   6.094
 7816TIP3    H223326   3.066   1.229   6.074
 7817TIP3   OH223327   3.391   1.679   5.949
 7817TIP3    H123328   3.343   1.675   6.031
 7817TIP3    H223329   3.367   1.764   5.911
 7818TIP3   OH223330   3.044   1.811   4.506
 7818TIP3    H123331   3.015   1.780   4.420
 7818TIP3    H223332   3.129   1.852   4.488
 7819TIP3   OH223333   2.763   1.181   4.811
 7819TIP3    H123334   2.731   1.179   4.901
 7819TIP3    H223335   2.725   1.104   4.770
 7820TIP3   OH223336   2.548   1.651   5.852
 7820TIP3    H123337   2.500   1.671   5.933
 7820TIP3    H223338   2.536   1.729   5.797
 7821TIP3   OH223339   2.428   1.528   5.363
 7821TIP3    H123340   2.339   1.511   5.394
 7821TIP3    H223341   2.431   1.488   5.276
 7822TIP3   OH223342   2.892   1.612   5.071
 7822TIP3    H123343   2.902   1.705   5.051
 7822TIP3    H223344   2.963   1.569   5.024
 7823TIP3   OH223345   3.099   1.899   6.184
 7823TIP3    H123346   3.076   1.827   6.243
 7823TIP3    H223347   3.192   1.915   6.201
 7824TIP3   OH223348   3.083   1.647   5.339
 7824TIP3    H123349   3.026   1.691   5.276
 7824TIP3    H223350   3.111   1.567   5.293
 7825TIP3   OH223351   2.369   1.678   6.064
 7825TIP3    H123352   2.394   1.744   6.129
 7825TIP3    H223353   2.358   1.597   6.115
 7826TIP3   OH223354   2.420   1.158   4.769
 7826TIP3    H123355   2.410   1.148   4.863
 7826TIP3    H223356   2.342   1.206   4.741
 7827TIP3   OH223357   1.961   1.203   5.640
 7827TIP3    H123358   2.038   1.228   5.691
 7827TIP3    H223359   1.997   1.159   5.563
 7828TIP3   OH223360   1.935   1.184   5.158
 7828TIP3    H123361   1.980   1.221   5.081
 7828TIP3    H223362   1.874   1.253   5.184
 7829TIP3   OH223363   3.098   1.895   5.764
 7829TIP3    H123364   3.125   1.830   5.700
 7829TIP3    H223365   3.063   1.844   5.837
 7830TIP3   OH223366   2.752   1.338   5.435
 7830TIP3    H123367   2.673   1.346   5.488
 7830TIP3    H223368   2.824   1.358   5.496
 7831TIP3   OH223369   2.194   1.409   5.434
 7831TIP3    H123370   2.101   1.419   5.411
 7831TIP3    H223371   2.212   1.317   5.418
 7832TIP3   OH223372   3.251   1.429   5.630
 7832TIP3    H123373   3.221   1.445   5.720
 7832TIP3    H223374   3.185   1.370   5.593
 7833TIP3   OH223375   2.302   1.438   4.908
 7833TIP3    H123376   2.227   1.395   4.865
 7833TIP3    H223377   2.357   1.467   4.835
 7834TIP3   OH223378   3.423   3.122   5.848
 7834TIP3    H123379   3.418   3.144   5.755
 7834TIP3    H223380   3.499   3.170   5.881
 7835TIP3   OH223381   2.379   2.231   6.274
 7835TIP3    H123382   2.459   2.262   6.317
 7835TIP3    H223383   2.313   2.233   6.344
 7836TIP3   OH223384   2.838   1.673   5.527
 7836TIP3    H123385   2.918   1.649   5.480
 7836TIP3    H223386   2.852   1.641   5.616
 7837TIP3   OH223387   2.371   1.168   5.392
 7837TIP3    H123388   2.364   1.106   5.464
 7837TIP3    H223389   2.431   1.127   5.330
 7838TIP3   OH223390   2.820   1.582   5.819
 7838TIP3    H123391   2.732   1.618   5.831
 7838TIP3    H223392   2.877   1.641   5.868
 7839TIP3   OH223393   2.549   1.988   4.914
 7839TIP3    H123394   2.485   1.917   4.907
 7839TIP3    H223395   2.538   2.021   5.003
 7840TIP3   OH223396   3.458   2.208   5.540
 7840TIP3    H123397   3.482   2.258   5.462
 7840TIP3    H223398   3.374   2.168   5.518
 7841TIP3   OH223399   3.017   1.286   4.774
 7841TIP3    H123400   2.923   1.271   4.780
 7841TIP3    H223401   3.027   1.379   4.792
 7842TIP3   OH223402   2.958   2.291   5.911
 7842TIP3    H123403   2.977   2.274   6.003
 7842TIP3    H223404   2.919   2.378   5.910
 7843TIP3   OH223405   3.085   1.535   4.878
 7843TIP3    H123406   3.179   1.535   4.893
 7843TIP3    H223407   3.070   1.609   4.820
 7844TIP3   OH223408   2.245   1.990   5.590
 7844TIP3    H123409   2.281   1.968   5.504
 7844TIP3    H223410   2.289   1.930   5.650
 7845TIP3   OH223411   2.699   2.125   4.732
 7845TIP3    H123412   2.659   2.212   4.731
 7845TIP3    H223413   2.645   2.074   4.792
 7846TIP3   OH223414   2.129   1.913   6.201
 7846TIP3    H123415   2.149   1.901   6.294
 7846TIP3    H223416   2.059   1.849   6.184
 7847TIP3   OH223417   2.856   2.025   6.220
 7847TIP3    H123418   2.795   1.973   6.169
 7847TIP3    H223419   2.942   1.996   6.193
 7848TIP3   OH223420   3.121   2.549   5.811
 7848TIP3    H123421   3.025   2.547   5.813
 7848TIP3    H223422   3.145   2.604   5.885
 7849TIP3   OH223423   3.744   2.478   5.792
 7849TIP3    H123424   3.649   2.476   5.787
 7849TIP3    H223425   3.773   2.450   5.705
 7850TIP3   OH223426   3.230   2.440   4.620
 7850TIP3    H123427   3.200   2.379   4.687
 7850TIP3    H223428   3.237   2.387   4.541
 7851TIP3   OH223429   3.227   2.068   5.458
 7851TIP3    H123430   3.137   2.041   5.475
 7851TIP3    H223431   3.267   1.994   5.413
 7852TIP3   OH223432   2.320   2.274   5.185
 7852TIP3    H123433   2.383   2.346   5.195
 7852TIP3    H223434   2.235   2.315   5.200
 7853TIP3   OH223435   1.914   1.605   4.919
 7853TIP3    H123436   1.957   1.689   4.935
 7853TIP3    H223437   1.836   1.607   4.974
 7854TIP3   OH223438   2.500   2.057   5.167
 7854TIP3    H123439   2.494   2.152   5.175
 7854TIP3    H223440   2.447   2.023   5.239
 7855TIP3   OH223441   2.621   2.644   5.684
 7855TIP3    H123442   2.655   2.714   5.629
 7855TIP3    H223443   2.698   2.605   5.725
 7856TIP3   OH223444   2.260   2.548   5.052
 7856TIP3    H123445   2.181   2.549   5.106
 7856TIP3    H223446   2.298   2.635   5.062
 7857TIP3   OH223447   3.015   2.276   5.642
 7857TIP3    H123448   3.003   2.275   5.737
 7857TIP3    H223449   3.093   2.223   5.627
 7858TIP3   OH223450   2.984   2.168   4.521
 7858TIP3    H123451   3.037   2.143   4.596
 7858TIP3    H223452   2.894   2.146   4.546
 7859TIP3   OH223453   3.255   2.811   5.688
 7859TIP3    H123454   3.178   2.755   5.682
 7859TIP3    H223455   3.243   2.876   5.619
 7860TIP3   OH223456   3.320   2.648   4.342
 7860TIP3    H123457   3.361   2.718   4.291
 7860TIP3    H223458   3.241   2.687   4.378
 7861TIP3   OH223459   2.341   1.421   6.211
 7861TIP3    H123460   2.245   1.425   6.220
 7861TIP3    H223461   2.369   1.358   6.278
 7862TIP3   OH223462   3.142   2.095   4.734
 7862TIP3    H123463   3.131   2.034   4.808
 7862TIP3    H223464   3.237   2.103   4.725
 7863TIP3   OH223465   2.058   2.506   5.842
 7863TIP3    H123466   2.109   2.430   5.871
 7863TIP3    H223467   2.087   2.578   5.898
 7864TIP3   OH223468   2.350   2.149   4.523
 7864TIP3    H123469   2.362   2.059   4.493
 7864TIP3    H223470   2.334   2.141   4.617
 7865TIP3   OH223471   2.301   2.155   4.797
 7865TIP3    H123472   2.359   2.137   4.871
 7865TIP3    H223473   2.294   2.251   4.794
 7866TIP3   OH223474   2.032   1.856   4.997
 7866TIP3    H123475   1.967   1.892   5.057
 7866TIP3    H223476   2.042   1.924   4.929
 7867TIP3   OH223477   3.180   1.483   5.888
 7867TIP3    H123478   3.257   1.523   5.929
 7867TIP3    H223479   3.163   1.405   5.941
 7868TIP3   OH223480   3.061   1.242   5.050
 7868TIP3    H123481   3.047   1.263   4.958
 7868TIP3    H223482   3.099   1.322   5.087
 7869TIP3   OH223483   2.556   2.352   4.737
 7869TIP3    H123484   2.472   2.373   4.778
 7869TIP3    H223485   2.580   2.431   4.688
 7870TIP3   OH223486   3.016   1.733   5.967
 7870TIP3    H123487   3.035   1.789   6.042
 7870TIP3    H223488   3.072   1.657   5.980
 7871TIP3   OH223489   2.900   1.157   5.257
 7871TIP3    H123490   2.887   1.230   5.317
 7871TIP3    H223491   2.961   1.190   5.192
 7872TIP3   OH223492   2.298   2.427   4.809
 7872TIP3    H123493   2.271   2.495   4.747
 7872TIP3    H223494   2.284   2.466   4.895
 7873TIP3   OH223495   2.404   1.131   5.041
 7873TIP3    H123496   2.379   1.215   5.079
 7873TIP3    H223497   2.497   1.123   5.057
 7874TIP3   OH223498   3.656   1.632   5.946
 7874TIP3    H123499   3.560   1.633   5.955
 7874TIP3    H223500   3.672   1.601   5.857
 7875TIP3   OH223501   3.311   1.825   5.332
 7875TIP3    H123502   3.233   1.773   5.352
 7875TIP3    H223503   3.382   1.782   5.380
 7876TIP3   OH223504   2.022   2.058   4.805
 7876TIP3    H123505   2.076   2.137   4.816
 7876TIP3    H223506   2.064   2.011   4.733
 7877TIP3   OH223507   1.967   1.336   4.934
 7877TIP3    H123508   1.965   1.431   4.932
 7877TIP3    H223509   1.884   1.309   4.894
 7878TIP3   OH223510   3.279   2.788   5.282
 7878TIP3    H123511   3.231   2.828   5.210
 7878TIP3    H223512   3.371   2.804   5.263
 7879TIP3   OH223513   1.889   2.271   5.192
 7879TIP3    H123514   1.817   2.303   5.245
 7879TIP3    H223515   1.874   2.309   5.106
 7880TIP3   OH223516   2.049   2.810   6.264
 7880TIP3    H123517   2.133   2.812   6.309
 7880TIP3    H223518   2.026   2.717   6.259
 7881TIP3   OH223519   2.532   2.776   6.308
 7881TIP3    H123520   2.626   2.762   6.313
 7881TIP3    H223521   2.504   2.721   6.234
 7882TIP3   OH223522   2.512   2.352   4.432
 7882TIP3    H123523   2.453   2.289   4.474
 7882TIP3    H223524   2.587   2.300   4.403
 7883TIP3   OH223525   3.167   2.688   6.045
 7883TIP3    H123526   3.160   2.617   6.109
 7883TIP3    H223527   3.245   2.737   6.071
 7884TIP3   OH223528   2.951   2.393   4.345
 7884TIP3    H123529   2.988   2.330   4.407
 7884TIP3    H223530   3.013   2.395   4.272
 7885TIP3   OH223531   2.177   2.217   6.463
 7885TIP3    H123532   2.196   2.124   6.465
 7885TIP3    H223533   2.092   2.224   6.420
 7886TIP3   OH223534   2.153   1.876   4.646
 7886TIP3    H123535   2.201   1.839   4.720
 7886TIP3    H223536   2.218   1.880   4.575
 7887TIP3   OH223537   2.786   2.303   6.235
 7887TIP3    H123538   2.745   2.323   6.151
 7887TIP3    H223539   2.816   2.212   6.226
 7888TIP3   OH223540   2.667   2.069   4.463
 7888TIP3    H123541   2.668   2.086   4.557
 7888TIP3    H223542   2.665   1.974   4.456
 7889TIP3   OH223543   3.281   2.313   5.842
 7889TIP3    H123544   3.355   2.357   5.799
 7889TIP3    H223545   3.207   2.373   5.831
 7890TIP3   OH223546   2.298   1.951   6.447
 7890TIP3    H123547   2.374   1.900   6.420
 7890TIP3    H223548   2.322   1.986   6.533
 7891TIP3   OH223549   2.431   1.728   4.928
 7891TIP3    H123550   2.348   1.729   4.975
 7891TIP3    H223551   2.411   1.683   4.846
 7892TIP3   OH223552   2.634   1.840   6.104
 7892TIP3    H123553   2.557   1.897   6.108
 7892TIP3    H223554   2.683   1.871   6.028
 7893TIP3   OH223555   2.467   1.561   4.714
 7893TIP3    H123556   2.432   1.563   4.625
 7893TIP3    H223557   2.562   1.565   4.702
 7894TIP3   OH223558   3.150   2.239   6.242
 7894TIP3    H123559   3.226   2.219   6.188
 7894TIP3    H223560   3.149   2.171   6.310
 7895TIP3   OH223561   3.280   1.902   4.379
 7895TIP3    H123562   3.260   1.848   4.302
 7895TIP3    H223563   3.249   1.989   4.356
 7896TIP3   OH223564   2.756   1.627   6.230
 7896TIP3    H123565   2.756   1.547   6.177
 7896TIP3    H223566   2.714   1.693   6.175
 7897TIP3   OH223567   2.755   1.412   6.038
 7897TIP3    H123568   2.786   1.453   5.957
 7897TIP3    H223569   2.665   1.385   6.019
 7898TIP3   OH223570   2.789   1.951   5.911
 7898TIP3    H123571   2.871   1.962   5.863
 7898TIP3    H223572   2.729   2.014   5.872
 7899TIP3   OH223573   3.371   1.916   6.296
 7899TIP3    H123574   3.419   1.833   6.299
 7899TIP3    H223575   3.434   1.978   6.259
 7900TIP3   OH223576   3.411   2.170   6.029
 7900TIP3    H123577   3.351   2.220   5.973
 7900TIP3    H223578   3.497   2.188   5.993
 7901TIP3   OH223579   2.634   1.737   6.463
 7901TIP3    H123580   2.567   1.671   6.477
 7901TIP3    H223581   2.669   1.718   6.376
 7902TIP3   OH223582   2.888   1.178   6.106
 7902TIP3    H123583   2.842   1.259   6.082
 7902TIP3    H223584   2.823   1.109   6.093
 7903TIP3   OH223585   3.015   1.680   6.323
 7903TIP3    H123586   3.006   1.671   6.418
 7903TIP3    H223587   2.929   1.657   6.288
 7904TIP3   OH223588   3.257   1.630   6.179
 7904TIP3    H123589   3.181   1.632   6.237
 7904TIP3    H223590   3.329   1.600   6.234
 7905TIP3   OH223591   3.487   1.571   6.332
 7905TIP3    H123592   3.498   1.477   6.348
 7905TIP3    H223593   3.482   1.610   6.419
 7906TIP3   OH223594   2.474   1.518   6.516
 7906TIP3    H123595   2.478   1.431   6.477
 7906TIP3    H223596   2.509   1.507   6.605
 7907TIP3   OH223597   2.987   1.184   6.362
 7907TIP3    H123598   3.052   1.115   6.358
 7907TIP3    H223599   2.944   1.182   6.276
 7908TIP3   OH223600   3.049   1.400   6.523
 7908TIP3    H123601   3.030   1.331   6.459
 7908TIP3    H223602   2.975   1.460   6.516
 7909TIP3   OH223603   2.272   2.629   4.619
 7909TIP3    H123604   2.367   2.626   4.604
 7909TIP3    H223605   2.238   2.678   4.544
 7910TIP3   OH223606   1.753   2.009   4.840
 7910TIP3    H123607   1.845   2.033   4.828
 7910TIP3    H223608   1.745   1.924   4.798
 7911TIP3   OH223609   1.665   2.623   5.253
 7911TIP3    H123610   1.598   2.564   5.216
 7911TIP3    H223611   1.710   2.569   5.318
 7912TIP3   OH223612   1.803   2.478   5.440
 7912TIP3    H123613   1.789   2.402   5.498
 7912TIP3    H223614   1.854   2.539   5.493
 7913TIP3   OH223615   3.532   2.876   5.238
 7913TIP3    H123616   3.554   2.907   5.327
 7913TIP3    H223617   3.590   2.925   5.181
 7914TIP3   OH223618   3.559   2.893   5.520
 7914TIP3    H123619   3.514   2.809   5.515
 7914TIP3    H223620   3.635   2.876   5.577
 7915TIP3   OH223621   3.606   2.573   6.096
 7915TIP3    H123622   3.533   2.580   6.156
 7915TIP3    H223623   3.647   2.660   6.098
 7916TIP3   OH223624   3.422   2.092   4.721
 7916TIP3    H123625   3.490   2.152   4.689
 7916TIP3    H223626   3.462   2.048   4.796
 7917TIP3   OH223627   3.549   1.953   4.920
 7917TIP3    H123628   3.483   1.913   4.977
 7917TIP3    H223629   3.612   1.992   4.979
 7918TIP3   OH223630   3.605   2.345   5.350
 7918TIP3    H123631   3.656   2.283   5.299
 7918TIP3    H223632   3.590   2.419   5.291
 7919TIP3   OH223633   3.432   2.645   5.546
 7919TIP3    H123634   3.363   2.688   5.596
 7919TIP3    H223635   3.386   2.599   5.475
 7920TIP3   OH223636   3.490   1.882   4.553
 7920TIP3    H123637   3.417   1.875   4.491
 7920TIP3    H223638   3.461   1.947   4.618
 7921TIP3   OH223639   3.290   1.540   4.531
 7921TIP3    H123640   3.347   1.591   4.472
 7921TIP3    H223641   3.308   1.449   4.509
 7922TIP3   OH223642   3.363   1.808   5.066
 7922TIP3    H123643   3.373   1.713   5.061
 7922TIP3    H223644   3.350   1.826   5.159
 7923TIP3   OH223645   1.993   1.879   5.811
 7923TIP3    H123646   1.987   1.853   5.719
 7923TIP3    H223647   2.087   1.884   5.828
 7924TIP3   OH223648   3.654   2.234   5.921
 7924TIP3    H123649   3.725   2.171   5.912
 7924TIP3    H223650   3.676   2.304   5.860
 7925TIP3   OH223651   3.837   2.037   5.941
 7925TIP3    H123652   3.762   1.991   5.980
 7925TIP3    H223653   3.910   1.976   5.952
 7926TIP3   OH223654   3.312   1.262   4.495
 7926TIP3    H123655   3.379   1.247   4.562
 7926TIP3    H223656   3.235   1.215   4.527
 7927TIP3   OH223657   3.358   1.519   4.962
 7927TIP3    H123658   3.399   1.434   4.979
 7927TIP3    H223659   3.406   1.555   4.888
 7928TIP3   OH223660   3.525   1.701   5.456
 7928TIP3    H123661   3.607   1.725   5.413
 7928TIP3    H223662   3.532   1.736   5.545
 7929TIP3   OH223663   3.588   1.845   5.687
 7929TIP3    H123664   3.512   1.877   5.735
 7929TIP3    H223665   3.621   1.923   5.641
 7930TIP3   OH223666   2.207   1.567   6.488
 7930TIP3    H123667   2.302   1.564   6.485
 7930TIP3    H223668   2.181   1.484   6.528
 7931TIP3   OH223669   4.043   1.434   6.242
 7931TIP3    H123670   4.100   1.370   6.200
 7931TIP3    H223671   4.012   1.489   6.169
 7932TIP3   OH223672   3.467   1.270   4.999
 7932TIP3    H123673   3.517   1.260   5.079
 7932TIP3    H223674   3.406   1.197   4.999
 7933TIP3   OH223675   2.170   1.258   5.814
 7933TIP3    H123676   2.223   1.180   5.827
 7933TIP3    H223677   2.233   1.330   5.810
 7934TIP3   OH223678   1.974   1.537   5.890
 7934TIP3    H123679   2.019   1.528   5.806
 7934TIP3    H223680   1.997   1.624   5.920
 7935TIP3   OH223681   3.910   1.574   6.050
 7935TIP3    H123682   3.827   1.617   6.072
 7935TIP3    H223683   3.885   1.503   5.990
 7936TIP3   OH223684   1.950   1.048   5.391
 7936TIP3    H123685   1.858   1.040   5.415
 7936TIP3    H223686   1.950   1.101   5.312
 7937TIP3   OH223687   3.113   2.746   4.889
 7937TIP3    H123688   3.167   2.732   4.812
 7937TIP3    H223689   3.163   2.809   4.942
 7938TIP3   OH223690   2.174   1.125   6.209
 7938TIP3    H123691   2.124   1.116   6.290
 7938TIP3    H223692   2.110   1.157   6.145
 7939TIP3   OH223693   2.214   2.543   6.283
 7939TIP3    H123694   2.123   2.518   6.263
 7939TIP3    H223695   2.222   2.531   6.378
 7940TIP3   OH223696   2.393   2.582   5.827
 7940TIP3    H123697   2.341   2.654   5.791
 7940TIP3    H223698   2.480   2.593   5.787
 7941TIP3   OH223699   2.841   2.823   5.969
 7941TIP3    H123700   2.880   2.825   6.056
 7941TIP3    H223701   2.902   2.873   5.914
 7942TIP3   OH223702   3.017   2.976   5.828
 7942TIP3    H123703   3.083   2.925   5.781
 7942TIP3    H223704   3.068   3.032   5.887
 7943TIP3   OH223705   3.810   1.336   5.925
 7943TIP3    H123706   3.720   1.337   5.892
 7943TIP3    H223707   3.840   1.246   5.913
 7944TIP3   OH223708   2.066   2.836   5.855
 7944TIP3    H123709   1.980   2.868   5.827
 7944TIP3    H223710   2.079   2.873   5.942
 7945TIP3   OH223711   2.303   2.816   5.711
 7945TIP3    H123712   2.219   2.828   5.755
 7945TIP3    H223713   2.288   2.846   5.622
 7946TIP3   OH223714   2.729   2.845   5.510
 7946TIP3    H123715   2.664   2.862   5.442
 7946TIP3    H223716   2.744   2.930   5.551
 7947TIP3   OH223717   2.997   2.787   5.563
 7947TIP3    H123718   2.904   2.797   5.541
 7947TIP3    H223719   3.040   2.859   5.515
 7948TIP3   OH223720   3.212   2.977   5.475
 7948TIP3    H123721   3.195   3.060   5.429
 7948TIP3    H223722   3.234   2.915   5.405
 7949TIP3   OH223723   1.983   2.627   5.599
 7949TIP3    H123724   2.006   2.606   5.689
 7949TIP3    H223725   2.053   2.588   5.546
 7950TIP3   OH223726   2.178   2.500   5.455
 7950TIP3    H123727   2.191   2.416   5.499
 7950TIP3    H223728   2.266   2.536   5.447
 7951TIP3   OH223729   2.443   2.593   5.451
 7951TIP3    H123730   2.494   2.531   5.400
 7951TIP3    H223731   2.491   2.601   5.534
 7952TIP3   OH223732   3.019   1.251   5.547
 7952TIP3    H123733   2.971   1.188   5.600
 7952TIP3    H223734   3.087   1.200   5.503
 7953TIP3   OH223735   3.540   1.130   5.448
 7953TIP3    H123736   3.577   1.183   5.377
 7953TIP3    H223737   3.447   1.150   5.446
 7954TIP3   OH223738   3.637   1.233   5.212
 7954TIP3    H123739   3.708   1.182   5.172
 7954TIP3    H223740   3.664   1.324   5.201
 7955TIP3   OH223741   2.043   0.833   5.200
 7955TIP3    H123742   2.076   0.893   5.133
 7955TIP3    H223743   2.024   0.890   5.275
 7956TIP3   OH223744   2.730   0.980   5.415
 7956TIP3    H123745   2.780   1.061   5.407
 7956TIP3    H223746   2.663   0.999   5.481
 7957TIP3   OH223747   3.260   1.138   5.426
 7957TIP3    H123748   3.250   1.106   5.337
 7957TIP3    H223749   3.243   1.061   5.481
 7958TIP3   OH223750   3.282   1.059   4.988
 7958TIP3    H123751   3.199   1.105   4.998
 7958TIP3    H223752   3.270   0.976   5.035
 7959TIP3   OH223753   1.766   2.402   4.990
 7959TIP3    H123754   1.683   2.366   4.957
 7959TIP3    H223755   1.760   2.496   4.972
 7960TIP3   OH223756   2.167   0.989   4.971
 7960TIP3    H123757   2.211   0.926   4.913
 7960TIP3    H223758   2.238   1.040   5.009
 7961TIP3   OH223759   2.680   1.173   5.085
 7961TIP3    H123760   2.733   1.111   5.136
 7961TIP3    H223761   2.705   1.259   5.119
 7962TIP3   OH223762   2.541   2.590   4.568
 7962TIP3    H123763   2.628   2.615   4.536
 7962TIP3    H223764   2.517   2.515   4.513
 7963TIP3   OH223765   3.263   2.707   4.660
 7963TIP3    H123766   3.255   2.612   4.652
 7963TIP3    H223767   3.214   2.741   4.585
 7964TIP3   OH223768   2.473   1.242   6.457
 7964TIP3    H123769   2.438   1.171   6.510
 7964TIP3    H223770   2.566   1.245   6.479
 7965TIP3   OH223771   2.723   1.239   6.574
 7965TIP3    H123772   2.805   1.216   6.530
 7965TIP3    H223773   2.709   1.169   6.638
 7966TIP3   OH223774   1.845   2.423   4.629
 7966TIP3    H123775   1.845   2.459   4.718
 7966TIP3    H223776   1.933   2.386   4.618
 7967TIP3   OH223777   3.548   1.298   6.360
 7967TIP3    H123778   3.566   1.269   6.450
 7967TIP3    H223779   3.634   1.296   6.317
 7968TIP3   OH223780   3.483   2.855   5.851
 7968TIP3    H123781   3.408   2.820   5.803
 7968TIP3    H223782   3.468   2.949   5.855
 7969TIP3   OH223783   4.751   2.224   4.615
 7969TIP3    H123784   4.729   2.316   4.601
 7969TIP3    H223785   4.672   2.176   4.589
 7970TIP3   OH223786   4.753   2.226   5.000
 7970TIP3    H123787   4.782   2.208   5.089
 7970TIP3    H223788   4.708   2.146   4.973
 7971TIP3   OH223789   4.055   2.123   5.364
 7971TIP3    H123790   4.082   2.055   5.426
 7971TIP3    H223791   4.128   2.184   5.361
 7972TIP3   OH223792   4.994   2.526   4.682
 7972TIP3    H123793   4.980   2.457   4.748
 7972TIP3    H223794   5.022   2.602   4.733
 7973TIP3   OH223795   4.021   2.526   5.088
 7973TIP3    H123796   4.011   2.431   5.091
 7973TIP3    H223797   4.116   2.540   5.092
 7974TIP3   OH223798   3.732   1.739   4.878
 7974TIP3    H123799   3.676   1.816   4.886
 7974TIP3    H223800   3.679   1.675   4.831
 7975TIP3   OH223801   3.787   2.020   5.046
 7975TIP3    H123802   3.834   1.945   5.083
 7975TIP3    H223803   3.847   2.055   4.980
 7976TIP3   OH223804   4.642   2.988   4.695
 7976TIP3    H123805   4.690   2.918   4.650
 7976TIP3    H223806   4.633   2.956   4.785
 7977TIP3   OH223807   4.554   2.452   5.027
 7977TIP3    H123808   4.596   2.373   4.994
 7977TIP3    H223809   4.624   2.500   5.072
 7978TIP3   OH223810   5.563   1.773   5.045
 7978TIP3    H123811   5.589   1.852   5.093
 7978TIP3    H223812   5.580   1.795   4.953
 7979TIP3   OH223813   4.953   1.943   5.081
 7979TIP3    H123814   5.002   1.863   5.101
 7979TIP3    H223815   4.930   1.934   4.988
 7980TIP3   OH223816   4.294   1.607   5.044
 7980TIP3    H123817   4.279   1.684   4.988
 7980TIP3    H223818   4.248   1.536   5.001
 7981TIP3   OH223819   4.997   1.700   4.667
 7981TIP3    H123820   5.064   1.684   4.734
 7981TIP3    H223821   5.045   1.738   4.593
 7982TIP3   OH223822   3.934   1.812   5.150
 7982TIP3    H123823   4.014   1.796   5.199
 7982TIP3    H223824   3.942   1.757   5.072
 7983TIP3   OH223825   4.379   2.011   4.934
 7983TIP3    H123826   4.470   1.989   4.954
 7983TIP3    H223827   4.338   1.927   4.915
 7984TIP3   OH223828   5.632   1.979   5.218
 7984TIP3    H123829   5.552   2.026   5.197
 7984TIP3    H223830   5.657   2.010   5.305
 7985TIP3   OH223831   4.293   1.595   5.480
 7985TIP3    H123832   4.237   1.634   5.412
 7985TIP3    H223833   4.246   1.612   5.562
 7986TIP3   OH223834   4.646   2.449   4.485
 7986TIP3    H123835   4.601   2.425   4.404
 7986TIP3    H223836   4.604   2.531   4.512
 7987TIP3   OH223837   4.379   2.361   5.276
 7987TIP3    H123838   4.325   2.431   5.313
 7987TIP3    H223839   4.466   2.399   5.268
 7988TIP3   OH223840   5.206   1.704   4.841
 7988TIP3    H123841   5.188   1.662   4.925
 7988TIP3    H223842   5.257   1.782   4.864
 7989TIP3   OH223843   4.169   1.711   5.263
 7989TIP3    H123844   4.225   1.784   5.290
 7989TIP3    H223845   4.217   1.669   5.192
 7990TIP3   OH223846   4.225   2.568   5.376
 7990TIP3    H123847   4.209   2.654   5.337
 7990TIP3    H223848   4.149   2.553   5.432
 7991TIP3   OH223849   3.628   2.255   4.608
 7991TIP3    H123850   3.581   2.280   4.529
 7991TIP3    H223851   3.657   2.338   4.646
 7992TIP3   OH223852   5.062   2.770   4.845
 7992TIP3    H123853   4.978   2.758   4.889
 7992TIP3    H223854   5.056   2.855   4.803
 7993TIP3   OH223855   5.356   1.667   5.208
 7993TIP3    H123856   5.270   1.702   5.184
 7993TIP3    H223857   5.414   1.701   5.140
 7994TIP3   OH223858   4.651   1.313   5.193
 7994TIP3    H123859   4.641   1.220   5.211
 7994TIP3    H223860   4.577   1.355   5.238
 7995TIP3   OH223861   4.773   2.815   4.522
 7995TIP3    H123862   4.818   2.733   4.503
 7995TIP3    H223863   4.828   2.883   4.483
 7996TIP3   OH223864   4.912   2.598   4.429
 7996TIP3    H123865   4.864   2.523   4.394
 7996TIP3    H223866   4.947   2.567   4.512
 7997TIP3   OH223867   5.271   2.684   5.188
 7997TIP3    H123868   5.275   2.605   5.134
 7997TIP3    H223869   5.273   2.756   5.126
 7998TIP3   OH223870   4.579   2.075   4.446
 7998TIP3    H123871   4.502   2.129   4.428
 7998TIP3    H223872   4.628   2.073   4.364
 7999TIP3   OH223873   4.554   1.839   4.187
 7999TIP3    H123874   4.615   1.901   4.228
 7999TIP3    H223875   4.608   1.790   4.125
 8000TIP3   OH223876   5.482   2.315   5.030
 8000TIP3    H123877   5.404   2.368   5.045
 8000TIP3    H223878   5.514   2.344   4.944
 8001TIP3   OH223879   4.931   2.157   4.423
 8001TIP3    H123880   4.874   2.183   4.496
 8001TIP3    H223881   5.014   2.133   4.464
 8002TIP3   OH223882   5.168   2.199   5.335
 8002TIP3    H123883   5.165   2.278   5.389
 8002TIP3    H223884   5.083   2.198   5.291
 8003TIP3   OH223885   4.163   2.152   4.836
 8003TIP3    H123886   4.128   2.096   4.766
 8003TIP3    H223887   4.241   2.107   4.866
 8004TIP3   OH223888   4.295   2.574   4.981
 8004TIP3    H123889   4.275   2.522   4.904
 8004TIP3    H223890   4.381   2.541   5.011
 8005TIP3   OH223891   4.300   2.121   5.184
 8005TIP3    H123892   4.335   2.110   5.096
 8005TIP3    H223893   4.332   2.207   5.212
 8006TIP3   OH223894   4.828   2.762   4.977
 8006TIP3    H123895   4.800   2.842   5.022
 8006TIP3    H223896   4.814   2.693   5.041
 8007TIP3   OH223897   4.433   2.701   5.532
 8007TIP3    H123898   4.364   2.761   5.560
 8007TIP3    H223899   4.388   2.635   5.479
 8008TIP3   OH223900   4.775   2.016   4.246
 8008TIP3    H123901   4.829   2.075   4.299
 8008TIP3    H223902   4.796   2.038   4.156
 8009TIP3   OH223903   4.186   2.240   5.622
 8009TIP3    H123904   4.195   2.328   5.659
 8009TIP3    H223905   4.092   2.220   5.628
 8010TIP3   OH223906   4.515   2.696   4.518
 8010TIP3    H123907   4.591   2.749   4.542
 8010TIP3    H223908   4.451   2.760   4.485
 8011TIP3   OH223909   4.221   2.861   5.602
 8011TIP3    H123910   4.191   2.856   5.511
 8011TIP3    H223911   4.145   2.835   5.654
 8012TIP3   OH223912   5.285   1.260   4.294
 8012TIP3    H123913   5.206   1.279   4.345
 8012TIP3    H223914   5.301   1.341   4.244
 8013TIP3   OH223915   4.029   1.982   4.625
 8013TIP3    H123916   3.971   2.042   4.578
 8013TIP3    H223917   3.971   1.920   4.668
 8014TIP3   OH223918   5.085   2.628   3.841
 8014TIP3    H123919   5.090   2.723   3.829
 8014TIP3    H223920   5.175   2.597   3.831
 8015TIP3   OH223921   3.809   2.383   5.549
 8015TIP3    H123922   3.744   2.363   5.481
 8015TIP3    H223923   3.844   2.297   5.573
 8016TIP3   OH223924   3.665   2.578   5.181
 8016TIP3    H123925   3.760   2.572   5.174
 8016TIP3    H223926   3.649   2.656   5.235
 8017TIP3   OH223927   5.528   3.031   5.237
 8017TIP3    H123928   5.535   2.936   5.246
 8017TIP3    H223929   5.447   3.054   5.282
 8018TIP3   OH223930   4.601   2.835   5.345
 8018TIP3    H123931   4.616   2.913   5.398
 8018TIP3    H223932   4.578   2.767   5.409
 8019TIP3   OH223933   4.392   2.945   4.322
 8019TIP3    H123934   4.348   2.923   4.239
 8019TIP3    H223935   4.358   3.031   4.345
 8020TIP3   OH223936   3.833   2.791   4.710
 8020TIP3    H123937   3.882   2.785   4.792
 8020TIP3    H223938   3.772   2.717   4.713
 8021TIP3   OH223939   4.598   2.843   3.966
 8021TIP3    H123940   4.654   2.776   3.928
 8021TIP3    H223941   4.629   2.853   4.055
 8022TIP3   OH223942   4.644   2.891   4.238
 8022TIP3    H123943   4.558   2.901   4.277
 8022TIP3    H223944   4.697   2.851   4.307
 8023TIP3   OH223945   5.417   2.155   5.514
 8023TIP3    H123946   5.340   2.175   5.461
 8023TIP3    H223947   5.430   2.061   5.502
 8024TIP3   OH223948   4.010   2.568   5.541
 8024TIP3    H123949   4.062   2.552   5.620
 8024TIP3    H223950   3.938   2.505   5.546
 8025TIP3   OH223951   4.412   1.391   5.321
 8025TIP3    H123952   4.325   1.359   5.296
 8025TIP3    H223953   4.394   1.473   5.367
 8026TIP3   OH223954   4.947   1.501   5.517
 8026TIP3    H123955   5.014   1.480   5.581
 8026TIP3    H223956   4.864   1.486   5.562
 8027TIP3   OH223957   5.186   1.935   5.434
 8027TIP3    H123958   5.139   1.929   5.517
 8027TIP3    H223959   5.164   2.022   5.400
 8028TIP3   OH223960   4.848   2.063   3.989
 8028TIP3    H123961   4.812   2.039   3.904
 8028TIP3    H223962   4.926   2.115   3.968
 8029TIP3   OH223963   4.514   1.452   4.291
 8029TIP3    H123964   4.526   1.447   4.386
 8029TIP3    H223965   4.508   1.361   4.262
 8030TIP3   OH223966   4.344   1.906   5.340
 8030TIP3    H123967   4.300   1.929   5.422
 8030TIP3    H223968   4.331   1.982   5.284
 8031TIP3   OH223969   4.228   1.789   4.859
 8031TIP3    H123970   4.138   1.763   4.876
 8031TIP3    H223971   4.240   1.774   4.765
 8032TIP3   OH223972   4.716   1.874   4.576
 8032TIP3    H123973   4.664   1.946   4.540
 8032TIP3    H223974   4.772   1.846   4.504
 8033TIP3   OH223975   4.914   2.144   5.667
 8033TIP3    H123976   4.879   2.078   5.727
 8033TIP3    H223977   5.003   2.161   5.698
 8034TIP3   OH223978   4.877   1.904   4.818
 8034TIP3    H123979   4.818   1.941   4.752
 8034TIP3    H223980   4.909   1.823   4.778
 8035TIP3   OH223981   4.161   1.934   5.549
 8035TIP3    H123982   4.196   2.001   5.608
 8035TIP3    H223983   4.153   1.856   5.604
 8036TIP3   OH223984   3.755   1.458   5.132
 8036TIP3    H123985   3.833   1.486   5.180
 8036TIP3    H223986   3.788   1.429   5.047
 8037TIP3   OH223987   4.913   2.163   5.236
 8037TIP3    H123988   4.922   2.076   5.198
 8037TIP3    H223989   4.855   2.150   5.311
 8038TIP3   OH223990   4.551   1.610   4.918
 8038TIP3    H123991   4.472   1.611   4.973
 8038TIP3    H223992   4.623   1.617   4.980
 8039TIP3   OH223993   3.990   1.666   4.916
 8039TIP3    H123994   3.898   1.684   4.896
 8039TIP3    H223995   4.001   1.573   4.898
 8040TIP3   OH223996   5.050   1.684   5.113
 8040TIP3    H123997   5.024   1.701   5.203
 8040TIP3    H223998   4.981   1.628   5.078
 8041TIP3   OH223999   5.219   3.380   5.335
 8041TIP3    H124000   5.217   3.404   5.242
 8041TIP3    H224001   5.296   3.426   5.370
 8042TIP3   OH224002   4.173   2.488   5.760
 8042TIP3    H124003   4.252   2.520   5.803
 8042TIP3    H224004   4.107   2.488   5.830
 8043TIP3   OH224005   4.639   1.936   5.011
 8043TIP3    H124006   4.717   1.906   4.965
 8043TIP3    H224007   4.651   1.904   5.101
 8044TIP3   OH224008   4.172   1.419   4.880
 8044TIP3    H124009   4.123   1.356   4.933
 8044TIP3    H224010   4.248   1.370   4.849
 8045TIP3   OH224011   4.617   1.836   5.308
 8045TIP3    H124012   4.530   1.875   5.319
 8045TIP3    H224013   4.675   1.895   5.355
 8046TIP3   OH224014   4.356   2.232   4.400
 8046TIP3    H124015   4.287   2.166   4.387
 8046TIP3    H224016   4.339   2.267   4.488
 8047TIP3   OH224017   5.253   2.463   5.024
 8047TIP3    H124018   5.278   2.514   4.947
 8047TIP3    H224019   5.169   2.424   5.002
 8048TIP3   OH224020   4.797   1.543   4.264
 8048TIP3    H124021   4.702   1.551   4.257
 8048TIP3    H224022   4.828   1.632   4.281
 8049TIP3   OH224023   4.886   1.786   4.356
 8049TIP3    H124024   4.979   1.796   4.377
 8049TIP3    H224025   4.863   1.866   4.309
 8050TIP3   OH224026   4.042   2.246   5.074
 8050TIP3    H124027   4.083   2.222   4.991
 8050TIP3    H224028   4.085   2.191   5.139
 8051TIP3   OH224029   4.497   2.381   4.219
 8051TIP3    H124030   4.453   2.466   4.223
 8051TIP3    H224031   4.447   2.325   4.278
 8052TIP3   OH224032   3.922   2.171   5.689
 8052TIP3    H124033   3.945   2.159   5.781
 8052TIP3    H224034   3.854   2.106   5.672
 8053TIP3   OH224035   5.322   1.879   4.196
 8053TIP3    H124036   5.261   1.831   4.139
 8053TIP3    H224037   5.322   1.968   4.161
 8054TIP3   OH224038   5.526   2.761   5.253
 8054TIP3    H124039   5.436   2.729   5.260
 8054TIP3    H224040   5.564   2.711   5.181
 8055TIP3   OH224041   5.027   2.696   4.109
 8055TIP3    H124042   4.995   2.629   4.170
 8055TIP3    H224043   5.034   2.650   4.025
 8056TIP3   OH224044   5.018   2.327   4.941
 8056TIP3    H124045   4.928   2.302   4.962
 8056TIP3    H224046   5.055   2.249   4.900
 8057TIP3   OH224047   4.142   2.552   4.689
 8057TIP3    H124048   4.146   2.635   4.643
 8057TIP3    H224049   4.050   2.541   4.713
 8058TIP3   OH224050   3.709   1.877   4.392
 8058TIP3    H124051   3.753   1.956   4.424
 8058TIP3    H224052   3.637   1.862   4.454
 8059TIP3   OH224053   4.284   2.321   4.644
 8059TIP3    H124054   4.251   2.410   4.657
 8059TIP3    H224055   4.252   2.272   4.719
 8060TIP3   OH224056   4.413   2.899   5.165
 8060TIP3    H124057   4.459   2.970   5.119
 8060TIP3    H224058   4.478   2.862   5.224
 8061TIP3   OH224059   4.064   2.797   4.551
 8061TIP3    H124060   3.980   2.800   4.596
 8061TIP3    H224061   4.096   2.887   4.553
 8062TIP3   OH224062   4.823   2.537   5.152
 8062TIP3    H124063   4.791   2.516   5.240
 8062TIP3    H224064   4.874   2.460   5.126
 8063TIP3   OH224065   4.777   2.423   4.011
 8063TIP3    H124066   4.831   2.400   4.087
 8063TIP3    H224067   4.688   2.400   4.037
 8064TIP3   OH224068   5.044   3.065   5.170
 8064TIP3    H124069   4.961   3.021   5.153
 8064TIP3    H224070   5.047   3.136   5.106
 8065TIP3   OH224071   5.118   2.904   3.829
 8065TIP3    H124072   5.157   2.972   3.774
 8065TIP3    H224073   5.038   2.945   3.864
 8066TIP3   OH224074   4.138   1.674   5.698
 8066TIP3    H124075   4.043   1.682   5.709
 8066TIP3    H224076   4.166   1.616   5.769
 8067TIP3   OH224077   4.939   2.356   4.225
 8067TIP3    H124078   4.926   2.293   4.297
 8067TIP3    H224079   5.034   2.358   4.213
 8068TIP3   OH224080   3.855   2.761   5.328
 8068TIP3    H124081   3.907   2.686   5.358
 8068TIP3    H224082   3.881   2.832   5.387
 8069TIP3   OH224083   4.144   2.405   4.009
 8069TIP3    H124084   4.160   2.316   3.979
 8069TIP3    H224085   4.127   2.396   4.103
 8070TIP3   OH224086   4.092   2.413   4.283
 8070TIP3    H124087   4.160   2.385   4.345
 8070TIP3    H224088   4.093   2.508   4.286
 8071TIP3   OH224089   3.832   2.117   4.489
 8071TIP3    H124090   3.764   2.153   4.546
 8071TIP3    H224091   3.841   2.182   4.419
 8072TIP3   OH224092   4.982   1.733   5.369
 8072TIP3    H124093   5.048   1.783   5.416
 8072TIP3    H224094   4.962   1.659   5.427
 8073TIP3   OH224095   4.854   1.495   4.539
 8073TIP3    H124096   4.839   1.519   4.448
 8073TIP3    H224097   4.893   1.573   4.579
 8074TIP3   OH224098   4.353   2.610   4.229
 8074TIP3    H124099   4.269   2.635   4.267
 8074TIP3    H224100   4.373   2.680   4.167
 8075TIP3   OH224101   4.542   1.669   4.647
 8075TIP3    H124102   4.600   1.742   4.624
 8075TIP3    H224103   4.545   1.664   4.742
 8076TIP3   OH224104   4.797   1.996   5.457
 8076TIP3    H124105   4.817   2.066   5.518
 8076TIP3    H224106   4.865   1.929   5.473
 8077TIP3   OH224107   4.693   1.401   4.747
 8077TIP3    H124108   4.689   1.470   4.813
 8077TIP3    H224109   4.751   1.436   4.679
 8078TIP3   OH224110   4.097   2.686   4.296
 8078TIP3    H124111   4.068   2.753   4.234
 8078TIP3    H224112   4.082   2.725   4.382
 8079TIP3   OH224113   4.217   1.455   4.496
 8079TIP3    H124114   4.167   1.450   4.578
 8079TIP3    H224115   4.301   1.416   4.518
 8080TIP3   OH224116   5.451   1.887   5.432
 8080TIP3    H124117   5.356   1.887   5.440
 8080TIP3    H224118   5.467   1.860   5.342
 8081TIP3   OH224119   5.106   2.083   4.819
 8081TIP3    H124120   5.029   2.028   4.835
 8081TIP3    H224121   5.177   2.040   4.867
 8082TIP3   OH224122   3.818   2.317   4.288
 8082TIP3    H124123   3.879   2.390   4.302
 8082TIP3    H224124   3.860   2.263   4.221
 8083TIP3   OH224125   5.074   3.043   4.767
 8083TIP3    H124126   5.029   3.087   4.695
 8083TIP3    H224127   5.167   3.059   4.751
 8084TIP3   OH224128   4.150   1.307   5.297
 8084TIP3    H124129   4.117   1.278   5.212
 8084TIP3    H224130   4.139   1.232   5.355
 8085TIP3   OH224131   3.686   2.528   4.677
 8085TIP3    H124132   3.618   2.558   4.737
 8085TIP3    H224133   3.663   2.567   4.593
 8086TIP3   OH224134   3.845   3.068   5.750
 8086TIP3    H124135   3.929   3.070   5.796
 8086TIP3    H224136   3.822   2.975   5.747
 8087TIP3   OH224137   4.327   3.034   5.795
 8087TIP3    H124138   4.421   3.020   5.800
 8087TIP3    H224139   4.298   2.980   5.721
 8088TIP3   OH224140   4.308   2.608   3.922
 8088TIP3    H124141   4.252   2.541   3.960
 8088TIP3    H224142   4.383   2.560   3.888
 8089TIP3   OH224143   4.745   2.651   3.832
 8089TIP3    H124144   4.789   2.589   3.889
 8089TIP3    H224145   4.799   2.653   3.753
 8090TIP3   OH224146   3.972   2.473   5.950
 8090TIP3    H124147   3.991   2.380   5.953
 8090TIP3    H224148   3.888   2.480   5.906
 8091TIP3   OH224149   3.950   2.132   4.135
 8091TIP3    H124150   3.999   2.102   4.212
 8091TIP3    H224151   4.015   2.136   4.065
 8092TIP3   OH224152   4.460   2.325   3.951
 8092TIP3    H124153   4.464   2.341   4.045
 8092TIP3    H224154   4.461   2.230   3.943
 8093TIP3   OH224155   5.078   2.611   5.373
 8093TIP3    H124156   5.139   2.635   5.303
 8093TIP3    H224157   4.997   2.587   5.327
 8094TIP3   OH224158   4.094   2.208   5.934
 8094TIP3    H124159   4.170   2.157   5.907
 8094TIP3    H224160   4.118   2.243   6.020
 8095TIP3   OH224161   4.164   2.035   4.373
 8095TIP3    H124162   4.128   2.004   4.456
 8095TIP3    H224163   4.174   1.956   4.320
 8096TIP3   OH224164   4.420   2.090   5.582
 8096TIP3    H124165   4.350   2.152   5.602
 8096TIP3    H224166   4.477   2.136   5.521
 8097TIP3   OH224167   4.980   2.503   5.735
 8097TIP3    H124168   5.003   2.455   5.655
 8097TIP3    H224169   4.935   2.438   5.789
 8098TIP3   OH224170   5.085   2.157   3.864
 8098TIP3    H124171   5.063   2.108   3.785
 8098TIP3    H224172   5.053   2.246   3.846
 8099TIP3   OH224173   4.550   1.884   5.718
 8099TIP3    H124174   4.554   1.805   5.664
 8099TIP3    H224175   4.510   1.950   5.661
 8100TIP3   OH224176   4.554   1.667   5.523
 8100TIP3    H124177   4.583   1.712   5.444
 8100TIP3    H224178   4.462   1.647   5.507
 8101TIP3   OH224179   5.169   2.172   5.785
 8101TIP3    H124180   5.220   2.091   5.790
 8101TIP3    H224181   5.229   2.237   5.748
 8102TIP3   OH224182   5.216   2.425   5.510
 8102TIP3    H124183   5.154   2.484   5.466
 8102TIP3    H224184   5.300   2.444   5.467
 8103TIP3   OH224185   4.430   1.994   5.947
 8103TIP3    H124186   4.361   1.930   5.964
 8103TIP3    H224187   4.465   1.970   5.862
 8104TIP3   OH224188   4.685   1.432   5.592
 8104TIP3    H124189   4.640   1.514   5.570
 8104TIP3    H224190   4.617   1.365   5.581
 8105TIP3   OH224191   4.812   1.935   5.813
 8105TIP3    H124192   4.802   1.924   5.907
 8105TIP3    H224193   4.726   1.914   5.776
 8106TIP3   OH224194   5.052   1.874   5.662
 8106TIP3    H124195   4.978   1.889   5.720
 8106TIP3    H224196   5.124   1.852   5.720
 8107TIP3   OH224197   5.282   1.827   5.818
 8107TIP3    H124198   5.293   1.733   5.836
 8107TIP3    H224199   5.278   1.867   5.905
 8108TIP3   OH224200   4.270   1.775   6.003
 8108TIP3    H124201   4.278   1.688   5.964
 8108TIP3    H224202   4.304   1.765   6.092
 8109TIP3   OH224203   4.781   1.440   5.848
 8109TIP3    H124204   4.849   1.372   5.845
 8109TIP3    H224205   4.741   1.437   5.761
 8110TIP3   OH224206   4.844   1.656   6.010
 8110TIP3    H124207   4.825   1.588   5.946
 8110TIP3    H224208   4.771   1.717   6.004
 8111TIP3   OH224209   4.069   2.888   4.107
 8111TIP3    H124210   4.164   2.882   4.093
 8111TIP3    H224211   4.036   2.935   4.031
 8112TIP3   OH224212   3.549   2.269   4.323
 8112TIP3    H124213   3.641   2.293   4.313
 8112TIP3    H224214   3.543   2.182   4.284
 8113TIP3   OH224215   3.465   2.879   4.738
 8113TIP3    H124216   3.397   2.821   4.702
 8113TIP3    H224217   3.508   2.826   4.805
 8114TIP3   OH224218   3.600   2.733   4.928
 8114TIP3    H124219   3.584   2.659   4.986
 8114TIP3    H224220   3.649   2.795   4.981
 8115TIP3   OH224221   5.326   3.133   4.726
 8115TIP3    H124222   5.349   3.163   4.814
 8115TIP3    H224223   5.385   3.181   4.668
 8116TIP3   OH224224   5.357   3.150   5.008
 8116TIP3    H124225   5.314   3.065   5.002
 8116TIP3    H224226   5.430   3.135   5.069
 8117TIP3   OH224227   5.221   2.342   4.203
 8117TIP3    H124228   5.285   2.408   4.177
 8117TIP3    H224229   5.258   2.302   4.281
 8118TIP3   OH224230   5.345   2.210   4.407
 8118TIP3    H124231   5.279   2.169   4.462
 8118TIP3    H224232   5.407   2.249   4.468
 8119TIP3   OH224233   5.397   2.600   4.834
 8119TIP3    H124234   5.452   2.539   4.786
 8119TIP3    H224235   5.388   2.675   4.775
 8120TIP3   OH224236   5.230   2.906   5.025
 8120TIP3    H124237   5.162   2.945   5.080
 8120TIP3    H224238   5.182   2.855   4.960
 8121TIP3   OH224239   5.282   2.121   4.050
 8121TIP3    H124240   5.213   2.120   3.983
 8121TIP3    H224241   5.257   2.193   4.108
 8122TIP3   OH224242   5.155   1.791   4.004
 8122TIP3    H124243   5.112   1.832   3.928
 8122TIP3    H224244   5.130   1.698   3.998
 8123TIP3   OH224245   5.161   2.065   4.553
 8123TIP3    H124246   5.168   1.970   4.547
 8123TIP3    H224247   5.146   2.082   4.646
 8124TIP3   OH224248   3.790   2.136   5.298
 8124TIP3    H124249   3.784   2.110   5.206
 8124TIP3    H224250   3.883   2.141   5.316
 8125TIP3   OH224251   5.450   2.496   5.390
 8125TIP3    H124252   5.522   2.434   5.402
 8125TIP3    H224253   5.490   2.582   5.404
 8126TIP3   OH224254   5.632   2.297   5.431
 8126TIP3    H124255   5.558   2.249   5.469
 8126TIP3    H224256   5.706   2.236   5.439
 8127TIP3   OH224257   5.097   1.526   3.998
 8127TIP3    H124258   5.174   1.495   4.046
 8127TIP3    H224259   5.029   1.463   4.018
 8128TIP3   OH224260   5.158   1.780   4.446
 8128TIP3    H124261   5.194   1.693   4.463
 8128TIP3    H224262   5.213   1.817   4.377
 8129TIP3   OH224263   5.320   1.957   4.942
 8129TIP3    H124264   5.403   1.981   4.900
 8129TIP3    H224265   5.327   1.993   5.031
 8130TIP3   OH224266   5.383   2.100   5.173
 8130TIP3    H124267   5.309   2.132   5.224
 8130TIP3    H224268   5.417   2.179   5.129
 8131TIP3   OH224269   4.003   1.822   5.970
 8131TIP3    H124270   4.098   1.821   5.972
 8131TIP3    H224271   3.977   1.741   6.014
 8132TIP3   OH224272   5.839   1.690   5.729
 8132TIP3    H124273   5.896   1.626   5.686
 8132TIP3    H224274   5.808   1.745   5.657
 8133TIP3   OH224275   5.265   1.530   4.485
 8133TIP3    H124276   5.313   1.519   4.566
 8133TIP3    H224277   5.205   1.456   4.482
 8134TIP3   OH224278   3.969   1.517   5.299
 8134TIP3    H124279   4.029   1.444   5.313
 8134TIP3    H224280   4.025   1.594   5.298
 8135TIP3   OH224281   3.770   1.792   5.377
 8135TIP3    H124282   3.816   1.787   5.293
 8135TIP3    H224283   3.791   1.879   5.411
 8136TIP3   OH224284   5.706   1.829   5.538
 8136TIP3    H124285   5.626   1.874   5.564
 8136TIP3    H224286   5.678   1.762   5.477
 8137TIP3   OH224287   5.347   1.467   4.114
 8137TIP3    H124288   5.385   1.395   4.063
 8137TIP3    H224289   5.412   1.537   4.109
 8138TIP3   OH224290   3.747   1.313   4.883
 8138TIP3    H124291   3.655   1.304   4.906
 8138TIP3    H224292   3.746   1.350   4.795
 8139TIP3   OH224293   4.910   3.000   4.381
 8139TIP3    H124294   4.960   2.986   4.301
 8139TIP3    H224295   4.961   3.064   4.430
 8140TIP3   OH224296   3.967   1.373   5.690
 8140TIP3    H124297   3.921   1.370   5.774
 8140TIP3    H224298   3.905   1.414   5.630
 8141TIP3   OH224299   4.009   2.799   5.772
 8141TIP3    H124300   3.918   2.774   5.752
 8141TIP3    H224301   4.017   2.786   5.866
 8142TIP3   OH224302   4.188   2.838   5.315
 8142TIP3    H124303   4.140   2.911   5.278
 8142TIP3    H224304   4.275   2.844   5.276
 8143TIP3   OH224305   4.635   3.091   5.460
 8143TIP3    H124306   4.678   3.087   5.546
 8143TIP3    H224307   4.698   3.135   5.404
 8144TIP3   OH224308   4.816   3.233   5.313
 8144TIP3    H124309   4.885   3.182   5.269
 8144TIP3    H224310   4.863   3.290   5.374
 8145TIP3   OH224311   5.607   1.593   5.412
 8145TIP3    H124312   5.517   1.595   5.379
 8145TIP3    H224313   5.635   1.502   5.400
 8146TIP3   OH224314   3.863   3.094   5.339
 8146TIP3    H124315   3.776   3.126   5.315
 8146TIP3    H224316   3.877   3.126   5.428
 8147TIP3   OH224317   4.100   3.073   5.197
 8147TIP3    H124318   4.017   3.084   5.243
 8147TIP3    H224319   4.082   3.104   5.108
 8148TIP3   OH224320   4.532   3.105   4.990
 8148TIP3    H124321   4.458   3.121   4.931
 8148TIP3    H224322   4.543   3.187   5.038
 8149TIP3   OH224323   4.798   3.042   5.044
 8149TIP3    H124324   4.704   3.054   5.031
 8149TIP3    H224325   4.838   3.120   5.004
 8150TIP3   OH224326   5.009   3.235   4.961
 8150TIP3    H124327   4.993   3.317   4.915
 8150TIP3    H224328   5.031   3.172   4.891
 8151TIP3   OH224329   3.781   2.885   5.085
 8151TIP3    H124330   3.801   2.862   5.176
 8151TIP3    H224331   3.850   2.843   5.034
 8152TIP3   OH224332   3.974   2.755   4.941
 8152TIP3    H124333   3.986   2.673   4.990
 8152TIP3    H224334   4.062   2.794   4.937
 8153TIP3   OH224335   4.240   2.850   4.946
 8153TIP3    H124336   4.267   2.759   4.934
 8153TIP3    H224337   4.282   2.877   5.028
 8154TIP3   OH224338   4.809   1.505   5.022
 8154TIP3    H124339   4.768   1.441   5.081
 8154TIP3    H224340   4.886   1.461   4.988
 8155TIP3   OH224341   5.335   1.385   4.933
 8155TIP3    H124342   5.373   1.439   4.864
 8155TIP3    H224343   5.242   1.409   4.934
 8156TIP3   OH224344   5.434   1.492   4.699
 8156TIP3    H124345   5.504   1.439   4.661
 8156TIP3    H224346   5.463   1.583   4.688
 8157TIP3   OH224347   4.063   1.219   5.045
 8157TIP3    H124348   3.971   1.192   5.045
 8157TIP3    H224349   4.112   1.136   5.042
 8158TIP3   OH224350   3.855   1.088   4.695
 8158TIP3    H124351   3.876   1.138   4.616
 8158TIP3    H224352   3.815   1.153   4.753
 8159TIP3   OH224353   4.501   1.255   4.927
 8159TIP3    H124354   4.564   1.302   4.871
 8159TIP3    H224355   4.520   1.286   5.015
 8160TIP3   OH224356   5.050   1.394   4.915
 8160TIP3    H124357   5.053   1.361   4.825
 8160TIP3    H224358   5.036   1.315   4.968
 8161TIP3   OH224359   5.079   1.317   4.475
 8161TIP3    H124360   4.995   1.363   4.487
 8161TIP3    H224361   5.068   1.234   4.522
 8162TIP3   OH224362   3.564   2.657   4.474
 8162TIP3    H124363   3.480   2.622   4.441
 8162TIP3    H224364   3.556   2.751   4.463
 8163TIP3   OH224365   3.984   1.208   4.475
 8163TIP3    H124366   4.026   1.180   4.393
 8163TIP3    H224367   4.002   1.302   4.479
 8164TIP3   OH224368   4.485   1.420   4.567
 8164TIP3    H124369   4.543   1.375   4.627
 8164TIP3    H224370   4.499   1.513   4.585
 8165TIP3   OH224371   4.338   2.847   4.055
 8165TIP3    H124372   4.425   2.871   4.024
 8165TIP3    H224373   4.312   2.773   4.000
 8166TIP3   OH224374   5.054   2.963   4.149
 8166TIP3    H124375   5.048   2.868   4.139
 8166TIP3    H224376   5.012   2.998   4.071
 8167TIP3   OH224377   4.270   1.495   5.939
 8167TIP3    H124378   4.233   1.428   5.996
 8167TIP3    H224379   4.363   1.499   5.964
 8168TIP3   OH224380   4.518   1.494   6.059
 8168TIP3    H124381   4.603   1.475   6.019
 8168TIP3    H224382   4.506   1.425   6.124
 8169TIP3   OH224383   3.641   2.681   4.116
 8169TIP3    H124384   3.637   2.708   4.207
 8169TIP3    H224385   3.729   2.644   4.106
 8170TIP3   OH224386   5.344   1.554   5.847
 8170TIP3    H124387   5.361   1.525   5.937
 8170TIP3    H224388   5.430   1.553   5.805
 8171TIP3   OH224389   5.277   3.112   5.332
 8171TIP3    H124390   5.200   3.079   5.286
 8171TIP3    H224391   5.263   3.206   5.339
 8172TIP3   OH224392   6.548   2.482   4.101
 8172TIP3    H124393   6.521   2.573   4.089
 8172TIP3    H224394   6.473   2.431   4.071
 8173TIP3   OH224395   6.545   2.476   4.485
 8173TIP3    H124396   6.578   2.459   4.574
 8173TIP3    H224397   6.504   2.393   4.459
 8174TIP3   OH224398   5.852   2.377   4.846
 8174TIP3    H124399   5.873   2.308   4.909
 8174TIP3    H224400   5.916   2.446   4.863
 8175TIP3   OH224401   6.791   2.778   4.170
 8175TIP3    H124402   6.776   2.716   4.242
 8175TIP3    H224403   6.818   2.859   4.214
 8176TIP3   OH224404   5.817   2.783   4.570
 8176TIP3    H124405   5.806   2.688   4.579
 8176TIP3    H224406   5.911   2.797   4.583
 8177TIP3   OH224407   5.524   1.993   4.360
 8177TIP3    H124408   5.477   2.075   4.378
 8177TIP3    H224409   5.457   1.934   4.325
 8178TIP3   OH224410   5.585   2.275   4.532
 8178TIP3    H124411   5.629   2.201   4.573
 8178TIP3    H224412   5.644   2.303   4.463
 8179TIP3   OH224413   6.435   3.243   4.180
 8179TIP3    H124414   6.483   3.173   4.136
 8179TIP3    H224415   6.432   3.216   4.272
 8180TIP3   OH224416   6.352   2.704   4.528
 8180TIP3    H124417   6.391   2.625   4.489
 8180TIP3    H224418   6.426   2.756   4.557
 8181TIP3   OH224419   7.357   2.032   4.525
 8181TIP3    H124420   7.385   2.107   4.577
 8181TIP3    H224421   7.405   2.041   4.442
 8182TIP3   OH224422   6.765   2.210   4.562
 8182TIP3    H124423   6.800   2.126   4.589
 8182TIP3    H224424   6.725   2.193   4.476
 8183TIP3   OH224425   6.094   1.870   4.527
 8183TIP3    H124426   6.073   1.943   4.469
 8183TIP3    H224427   6.049   1.795   4.488
 8184TIP3   OH224428   6.794   1.961   4.157
 8184TIP3    H124429   6.863   1.942   4.221
 8184TIP3    H224430   6.841   1.989   4.078
 8185TIP3   OH224431   5.732   2.070   4.637
 8185TIP3    H124432   5.811   2.052   4.688
 8185TIP3    H224433   5.741   2.014   4.560
 8186TIP3   OH224434   6.176   2.267   4.422
 8186TIP3    H124435   6.266   2.243   4.444
 8186TIP3    H224436   6.134   2.184   4.398
 8187TIP3   OH224437   7.426   2.236   4.700
 8187TIP3    H124438   7.343   2.281   4.686
 8187TIP3    H224439   7.450   2.258   4.790
 8188TIP3   OH224440   6.090   1.852   4.966
 8188TIP3    H124441   6.032   1.889   4.899
 8188TIP3    H224442   6.043   1.867   5.049
 8189TIP3   OH224443   6.425   2.698   3.976
 8189TIP3    H124444   6.406   2.691   3.883
 8189TIP3    H224445   6.395   2.785   4.000
 8190TIP3   OH224446   6.197   2.628   4.762
 8190TIP3    H124447   6.134   2.688   4.803
 8190TIP3    H224448   6.241   2.682   4.696
 8191TIP3   OH224449   7.013   1.972   4.323
 8191TIP3    H124450   6.993   1.906   4.389
 8191TIP3    H224451   7.050   2.045   4.373
 8192TIP3   OH224452   5.966   1.968   4.749
 8192TIP3    H124453   6.023   2.040   4.776
 8192TIP3    H224454   6.013   1.926   4.677
 8193TIP3   OH224455   6.021   2.821   4.856
 8193TIP3    H124456   6.002   2.908   4.822
 8193TIP3    H224457   5.948   2.801   4.915
 8194TIP3   OH224458   5.428   2.511   4.091
 8194TIP3    H124459   5.375   2.533   4.014
 8194TIP3    H224460   5.448   2.596   4.131
 8195TIP3   OH224461   6.858   3.025   4.331
 8195TIP3    H124462   6.772   3.016   4.373
 8195TIP3    H224463   6.855   3.111   4.289
 8196TIP3   OH224464   7.152   1.929   4.697
 8196TIP3    H124465   7.065   1.958   4.671
 8196TIP3    H224466   7.210   1.959   4.626
 8197TIP3   OH224467   6.447   1.571   4.680
 8197TIP3    H124468   6.438   1.477   4.696
 8197TIP3    H224469   6.372   1.610   4.725
 8198TIP3   OH224470   6.566   3.070   4.008
 8198TIP3    H124471   6.612   2.989   3.986
 8198TIP3    H224472   6.621   3.139   3.971
 8199TIP3   OH224473   6.702   2.853   3.918
 8199TIP3    H124474   6.682   2.774   3.868
 8199TIP3    H224475   6.739   2.820   4.000
 8200TIP3   OH224476   7.087   2.940   4.677
 8200TIP3    H124477   7.076   2.863   4.620
 8200TIP3    H224478   7.069   3.015   4.620
 8201TIP3   OH224479   6.382   2.334   3.928
 8201TIP3    H124480   6.309   2.388   3.897
 8201TIP3    H224481   6.437   2.321   3.851
 8202TIP3   OH224482   6.341   2.117   3.656
 8202TIP3    H124483   6.409   2.170   3.698
 8202TIP3    H224484   6.389   2.051   3.607
 8203TIP3   OH224485   7.280   2.570   4.514
 8203TIP3    H124486   7.201   2.623   4.527
 8203TIP3    H224487   7.315   2.600   4.430
 8204TIP3   OH224488   6.726   2.414   3.913
 8204TIP3    H124489   6.664   2.440   3.980
 8204TIP3    H224490   6.810   2.408   3.959
 8205TIP3   OH224491   6.959   2.458   4.818
 8205TIP3    H124492   6.962   2.537   4.871
 8205TIP3    H224493   6.874   2.462   4.774
 8206TIP3   OH224494   5.964   2.407   4.331
 8206TIP3    H124495   5.918   2.342   4.278
 8206TIP3    H224496   6.040   2.361   4.366
 8207TIP3   OH224497   6.096   2.829   4.472
 8207TIP3    H124498   6.070   2.772   4.399
 8207TIP3    H224499   6.184   2.800   4.494
 8208TIP3   OH224500   6.103   2.384   4.674
 8208TIP3    H124501   6.139   2.369   4.586
 8208TIP3    H224502   6.139   2.469   4.700
 8209TIP3   OH224503   6.621   3.021   4.456
 8209TIP3    H124504   6.606   3.102   4.504
 8209TIP3    H224505   6.605   2.952   4.521
 8210TIP3   OH224506   6.228   2.940   5.001
 8210TIP3    H124507   6.175   3.003   5.049
 8210TIP3    H224508   6.165   2.887   4.953
 8211TIP3   OH224509   6.568   2.276   3.732
 8211TIP3    H124510   6.627   2.332   3.783
 8211TIP3    H224511   6.590   2.295   3.641
 8212TIP3   OH224512   5.981   2.503   5.096
 8212TIP3    H124513   5.990   2.584   5.145
 8212TIP3    H224514   5.891   2.474   5.114
 8213TIP3   OH224515   6.307   2.956   4.008
 8213TIP3    H124516   6.386   3.006   4.028
 8213TIP3    H224517   6.247   3.020   3.970
 8214TIP3   OH224518   6.025   3.109   5.089
 8214TIP3    H124519   5.990   3.108   4.999
 8214TIP3    H224520   5.949   3.089   5.144
 8215TIP3   OH224521   7.082   1.518   3.782
 8215TIP3    H124522   7.002   1.534   3.831
 8215TIP3    H224523   7.094   1.596   3.728
 8216TIP3   OH224524   5.828   2.280   4.125
 8216TIP3    H124525   5.748   2.291   4.073
 8216TIP3    H224526   5.832   2.186   4.144
 8217TIP3   OH224527   6.883   2.884   3.330
 8217TIP3    H124528   6.888   2.979   3.315
 8217TIP3    H224529   6.972   2.853   3.318
 8218TIP3   OH224530   5.612   2.632   5.029
 8218TIP3    H124531   5.543   2.608   4.968
 8218TIP3    H224532   5.645   2.549   5.062
 8219TIP3   OH224533   5.461   2.835   4.667
 8219TIP3    H124534   5.557   2.831   4.664
 8219TIP3    H224535   5.442   2.911   4.723
 8220TIP3   OH224536   7.324   3.282   4.726
 8220TIP3    H124537   7.324   3.187   4.739
 8220TIP3    H224538   7.243   3.311   4.768
 8221TIP3   OH224539   6.428   3.071   4.860
 8221TIP3    H124540   6.431   3.162   4.890
 8221TIP3    H224541   6.360   3.030   4.913
 8222TIP3   OH224542   6.190   3.198   3.812
 8222TIP3    H124543   6.147   3.185   3.728
 8222TIP3    H224544   6.164   3.286   3.839
 8223TIP3   OH224545   5.629   3.047   4.195
 8223TIP3    H124546   5.678   3.042   4.277
 8223TIP3    H224547   5.559   2.982   4.205
 8224TIP3   OH224548   6.395   3.099   3.451
 8224TIP3    H124549   6.452   3.032   3.415
 8224TIP3    H224550   6.426   3.111   3.541
 8225TIP3   OH224551   6.441   3.147   3.723
 8225TIP3    H124552   6.354   3.159   3.762
 8225TIP3    H224553   6.495   3.115   3.795
 8226TIP3   OH224554   7.215   2.415   4.998
 8226TIP3    H124555   7.132   2.429   4.952
 8226TIP3    H224556   7.231   2.320   4.991
 8227TIP3   OH224557   5.812   2.819   5.027
 8227TIP3    H124558   5.856   2.809   5.111
 8227TIP3    H224559   5.737   2.760   5.032
 8228TIP3   OH224560   6.207   1.649   4.808
 8228TIP3    H124561   6.122   1.615   4.781
 8228TIP3    H224562   6.187   1.729   4.856
 8229TIP3   OH224563   6.743   1.761   5.004
 8229TIP3    H124564   6.811   1.735   5.066
 8229TIP3    H224565   6.661   1.742   5.049
 8230TIP3   OH224566   6.982   2.193   4.922
 8230TIP3    H124567   6.936   2.186   5.005
 8230TIP3    H224568   6.957   2.279   4.888
 8231TIP3   OH224569   6.645   2.322   3.478
 8231TIP3    H124570   6.607   2.295   3.394
 8231TIP3    H224571   6.725   2.369   3.453
 8232TIP3   OH224572   6.355   1.694   3.781
 8232TIP3    H124573   6.323   1.694   3.871
 8232TIP3    H224574   6.319   1.614   3.743
 8233TIP3   OH224575   6.140   2.164   4.827
 8233TIP3    H124576   6.092   2.182   4.909
 8233TIP3    H224577   6.126   2.243   4.774
 8234TIP3   OH224578   6.017   2.051   4.337
 8234TIP3    H124579   5.931   2.018   4.361
 8234TIP3    H224580   6.038   2.008   4.254
 8235TIP3   OH224581   6.518   2.137   4.067
 8235TIP3    H124582   6.463   2.205   4.027
 8235TIP3    H224583   6.571   2.104   3.995
 8236TIP3   OH224584   6.691   2.411   5.155
 8236TIP3    H124585   6.667   2.341   5.216
 8236TIP3    H224586   6.783   2.430   5.176
 8237TIP3   OH224587   6.671   2.161   4.304
 8237TIP3    H124588   6.609   2.193   4.238
 8237TIP3    H224589   6.705   2.080   4.268
 8238TIP3   OH224590   5.962   2.191   5.038
 8238TIP3    H124591   5.976   2.258   5.104
 8238TIP3    H224592   5.949   2.110   5.088
 8239TIP3   OH224593   6.010   1.670   3.746
 8239TIP3    H124594   6.004   1.664   3.842
 8239TIP3    H224595   5.933   1.719   3.720
 8240TIP3   OH224596   5.555   1.715   4.614
 8240TIP3    H124597   5.628   1.745   4.668
 8240TIP3    H224598   5.596   1.678   4.536
 8241TIP3   OH224599   5.529   1.697   4.136
 8241TIP3    H124600   5.574   1.731   4.058
 8241TIP3    H224601   5.466   1.766   4.158
 8242TIP3   OH224602   6.682   2.407   4.728
 8242TIP3    H124603   6.717   2.338   4.671
 8242TIP3    H224604   6.654   2.361   4.807
 8243TIP3   OH224605   6.352   1.876   4.405
 8243TIP3    H124606   6.270   1.870   4.454
 8243TIP3    H224607   6.420   1.868   4.472
 8244TIP3   OH224608   5.787   1.924   4.407
 8244TIP3    H124609   5.695   1.933   4.383
 8244TIP3    H224610   5.809   1.833   4.388
 8245TIP3   OH224611   6.057   1.928   4.097
 8245TIP3    H124612   6.150   1.936   4.075
 8245TIP3    H224613   6.011   1.946   4.015
 8246TIP3   OH224614   6.839   1.946   4.600
 8246TIP3    H124615   6.815   1.959   4.691
 8246TIP3    H224616   6.776   1.883   4.566
 8247TIP3   OH224617   5.895   1.959   3.876
 8247TIP3    H124618   5.829   1.911   3.826
 8247TIP3    H224619   5.949   2.001   3.809
 8248TIP3   OH224620   7.016   3.635   4.822
 8248TIP3    H124621   7.011   3.659   4.730
 8248TIP3    H224622   7.090   3.686   4.857
 8249TIP3   OH224623   5.962   2.741   5.258
 8249TIP3    H124624   6.040   2.775   5.302
 8249TIP3    H224625   5.901   2.722   5.329
 8250TIP3   OH224626   6.436   2.199   4.503
 8250TIP3    H124627   6.504   2.153   4.454
 8250TIP3    H224628   6.440   2.161   4.590
 8251TIP3   OH224629   5.961   1.684   4.377
 8251TIP3    H124630   5.925   1.609   4.425
 8251TIP3    H224631   6.012   1.646   4.307
 8252TIP3   OH224632   6.413   2.100   4.787
 8252TIP3    H124633   6.324   2.133   4.804
 8252TIP3    H224634   6.469   2.156   4.839
 8253TIP3   OH224635   6.153   2.481   3.875
 8253TIP3    H124636   6.102   2.399   3.870
 8253TIP3    H224637   6.133   2.517   3.961
 8254TIP3   OH224638   7.052   2.721   4.513
 8254TIP3    H124639   7.076   2.772   4.435
 8254TIP3    H224640   6.966   2.684   4.492
 8255TIP3   OH224641   6.607   1.799   3.752
 8255TIP3    H124642   6.513   1.779   3.755
 8255TIP3    H224643   6.612   1.893   3.768
 8256TIP3   OH224644   6.547   2.804   4.883
 8256TIP3    H124645   6.571   2.782   4.973
 8256TIP3    H224646   6.510   2.892   4.889
 8257TIP3   OH224647   6.682   2.052   3.852
 8257TIP3    H124648   6.777   2.052   3.849
 8257TIP3    H224649   6.656   2.124   3.795
 8258TIP3   OH224650   5.841   2.505   4.565
 8258TIP3    H124651   5.885   2.473   4.486
 8258TIP3    H224652   5.873   2.449   4.635
 8259TIP3   OH224653   6.299   2.641   3.705
 8259TIP3    H124654   6.253   2.724   3.708
 8259TIP3    H224655   6.247   2.583   3.761
 8260TIP3   OH224656   5.727   2.422   5.172
 8260TIP3    H124657   5.754   2.425   5.264
 8260TIP3    H224658   5.650   2.365   5.172
 8261TIP3   OH224659   6.448   2.541   5.192
 8261TIP3    H124660   6.387   2.482   5.148
 8261TIP3    H224661   6.534   2.509   5.166
 8262TIP3   OH224662   6.708   3.060   4.780
 8262TIP3    H124663   6.612   3.061   4.790
 8262TIP3    H224664   6.740   3.111   4.854
 8263TIP3   OH224665   7.110   2.131   3.688
 8263TIP3    H124666   7.053   2.089   3.624
 8263TIP3    H224667   7.120   2.221   3.657
 8264TIP3   OH224668   7.335   2.990   4.766
 8264TIP3    H124669   7.240   2.988   4.761
 8264TIP3    H224670   7.364   2.963   4.679
 8265TIP3   OH224671   6.819   2.954   3.593
 8265TIP3    H124672   6.795   2.883   3.653
 8265TIP3    H224673   6.833   2.910   3.509
 8266TIP3   OH224674   6.813   2.584   4.430
 8266TIP3    H124675   6.721   2.563   4.448
 8266TIP3    H224676   6.847   2.506   4.387
 8267TIP3   OH224677   5.922   2.806   4.169
 8267TIP3    H124678   5.940   2.887   4.121
 8267TIP3    H224679   5.840   2.822   4.215
 8268TIP3   OH224680   5.504   2.115   3.891
 8268TIP3    H124681   5.543   2.201   3.904
 8268TIP3    H224682   5.427   2.115   3.947
 8269TIP3   OH224683   6.028   2.560   4.111
 8269TIP3    H124684   6.029   2.655   4.125
 8269TIP3    H224685   6.051   2.523   4.196
 8270TIP3   OH224686   6.214   3.156   4.654
 8270TIP3    H124687   6.251   3.229   4.604
 8270TIP3    H224688   6.287   3.123   4.706
 8271TIP3   OH224689   5.864   3.053   4.039
 8271TIP3    H124690   5.778   3.060   4.082
 8271TIP3    H224691   5.899   3.142   4.040
 8272TIP3   OH224692   6.600   2.787   4.616
 8272TIP3    H124693   6.587   2.790   4.711
 8272TIP3    H224694   6.684   2.743   4.605
 8273TIP3   OH224695   6.574   2.678   3.498
 8273TIP3    H124696   6.627   2.656   3.575
 8273TIP3    H224697   6.485   2.656   3.524
 8274TIP3   OH224698   6.848   3.323   4.660
 8274TIP3    H124699   6.770   3.268   4.655
 8274TIP3    H224700   6.835   3.389   4.592
 8275TIP3   OH224701   6.912   3.160   3.316
 8275TIP3    H124702   6.952   3.228   3.261
 8275TIP3    H224703   6.833   3.201   3.351
 8276TIP3   OH224704   5.934   1.930   5.183
 8276TIP3    H124705   5.840   1.941   5.199
 8276TIP3    H224706   5.964   1.875   5.256
 8277TIP3   OH224707   6.735   2.619   3.720
 8277TIP3    H124708   6.725   2.548   3.784
 8277TIP3    H224709   6.829   2.618   3.698
 8278TIP3   OH224710   5.654   3.016   4.815
 8278TIP3    H124711   5.702   2.943   4.854
 8278TIP3    H224712   5.670   3.090   4.874
 8279TIP3   OH224713   5.944   2.659   3.504
 8279TIP3    H124714   5.958   2.577   3.458
 8279TIP3    H224715   5.919   2.634   3.593
 8280TIP3   OH224716   5.907   2.664   3.818
 8280TIP3    H124717   6.002   2.664   3.807
 8280TIP3    H224718   5.881   2.754   3.803
 8281TIP3   OH224719   5.651   2.414   3.978
 8281TIP3    H124720   5.571   2.428   4.029
 8281TIP3    H224721   5.633   2.456   3.894
 8282TIP3   OH224722   6.776   1.992   4.859
 8282TIP3    H124723   6.848   2.037   4.904
 8282TIP3    H224724   6.757   1.916   4.913
 8283TIP3   OH224725   6.646   1.752   4.028
 8283TIP3    H124726   6.634   1.769   3.935
 8283TIP3    H224727   6.685   1.833   4.062
 8284TIP3   OH224728   6.143   2.861   3.717
 8284TIP3    H124729   6.059   2.892   3.752
 8284TIP3    H224730   6.172   2.931   3.659
 8285TIP3   OH224731   6.342   1.931   4.133
 8285TIP3    H124732   6.406   1.999   4.114
 8285TIP3    H224733   6.344   1.921   4.228
 8286TIP3   OH224734   6.613   2.249   4.940
 8286TIP3    H124735   6.626   2.306   5.015
 8286TIP3    H224736   6.666   2.171   4.959
 8287TIP3   OH224737   6.486   1.659   4.234
 8287TIP3    H124738   6.480   1.733   4.295
 8287TIP3    H224739   6.543   1.691   4.164
 8288TIP3   OH224740   5.885   2.936   3.783
 8288TIP3    H124741   5.861   3.002   3.717
 8288TIP3    H224742   5.874   2.982   3.867
 8289TIP3   OH224743   5.997   1.655   4.023
 8289TIP3    H124744   5.990   1.743   4.059
 8289TIP3    H224745   6.090   1.633   4.029
 8290TIP3   OH224746   7.247   2.147   4.917
 8290TIP3    H124747   7.152   2.148   4.928
 8290TIP3    H224748   7.261   2.103   4.833
 8291TIP3   OH224749   6.896   2.339   4.303
 8291TIP3    H124750   6.816   2.289   4.322
 8291TIP3    H224751   6.962   2.300   4.360
 8292TIP3   OH224752   5.609   2.576   3.769
 8292TIP3    H124753   5.651   2.662   3.771
 8292TIP3    H224754   5.659   2.527   3.704
 8293TIP3   OH224755   5.556   1.845   3.911
 8293TIP3    H124756   5.555   1.941   3.906
 8293TIP3    H224757   5.476   1.819   3.866
 8294TIP3   OH224758   6.871   3.296   4.253
 8294TIP3    H124759   6.826   3.341   4.182
 8294TIP3    H224760   6.964   3.314   4.237
 8295TIP3   OH224761   5.945   1.564   4.784
 8295TIP3    H124762   5.914   1.534   4.699
 8295TIP3    H224763   5.935   1.489   4.842
 8296TIP3   OH224764   5.481   2.775   4.161
 8296TIP3    H124765   5.420   2.809   4.227
 8296TIP3    H224766   5.458   2.822   4.081
 8297TIP3   OH224767   5.641   3.323   5.236
 8297TIP3    H124768   5.725   3.325   5.282
 8297TIP3    H224769   5.617   3.231   5.233
 8298TIP3   OH224770   6.125   3.292   5.278
 8298TIP3    H124771   6.218   3.273   5.288
 8298TIP3    H224772   6.097   3.235   5.206
 8299TIP3   OH224773   6.105   2.865   3.408
 8299TIP3    H124774   6.051   2.796   3.448
 8299TIP3    H224775   6.179   2.817   3.370
 8300TIP3   OH224776   6.766   3.194   5.012
 8300TIP3    H124777   6.754   3.128   5.080
 8300TIP3    H224778   6.839   3.247   5.043
 8301TIP3   OH224779   6.541   2.906   3.318
 8301TIP3    H124780   6.589   2.848   3.376
 8301TIP3    H224781   6.594   2.910   3.238
 8302TIP3   OH224782   5.751   2.389   3.625
 8302TIP3    H124783   5.784   2.314   3.674
 8302TIP3    H224784   5.812   2.398   3.552
 8303TIP3   OH224785   6.382   2.818   5.207
 8303TIP3    H124786   6.338   2.834   5.124
 8303TIP3    H224787   6.410   2.727   5.202
 8304TIP3   OH224788   6.255   2.580   3.438
 8304TIP3    H124789   6.262   2.596   3.532
 8304TIP3    H224790   6.259   2.485   3.430
 8305TIP3   OH224791   6.871   2.826   4.811
 8305TIP3    H124792   6.946   2.870   4.771
 8305TIP3    H224793   6.800   2.890   4.805
 8306TIP3   OH224794   5.904   2.445   5.405
 8306TIP3    H124795   5.984   2.397   5.423
 8306TIP3    H224796   5.891   2.501   5.482
 8307TIP3   OH224797   6.226   2.354   5.079
 8307TIP3    H124798   6.149   2.410   5.084
 8307TIP3    H224799   6.273   2.385   5.001
 8308TIP3   OH224800   6.055   2.080   3.691
 8308TIP3    H124801   6.028   2.083   3.599
 8308TIP3    H224802   6.151   2.088   3.688
 8309TIP3   OH224803   6.741   2.751   5.214
 8309TIP3    H124804   6.825   2.733   5.170
 8309TIP3    H224805   6.737   2.687   5.285
 8310TIP3   OH224806   6.879   2.413   3.352
 8310TIP3    H124807   6.860   2.364   3.273
 8310TIP3    H224808   6.849   2.502   3.333
 8311TIP3   OH224809   6.349   2.140   5.203
 8311TIP3    H124810   6.348   2.061   5.150
 8311TIP3    H224811   6.305   2.206   5.150
 8312TIP3   OH224812   6.350   1.925   5.009
 8312TIP3    H124813   6.377   1.966   4.927
 8312TIP3    H224814   6.258   1.903   4.995
 8313TIP3   OH224815   6.379   2.460   4.880
 8313TIP3    H124816   6.464   2.473   4.837
 8313TIP3    H224817   6.323   2.527   4.842
 8314TIP3   OH224818   6.962   2.428   5.266
 8314TIP3    H124819   7.010   2.347   5.283
 8314TIP3    H224820   7.028   2.490   5.236
 8315TIP3   OH224821   7.003   2.681   4.997
 8315TIP3    H124822   6.943   2.732   4.943
 8315TIP3    H224823   7.090   2.701   4.961
 8316TIP3   OH224824   6.227   2.250   5.435
 8316TIP3    H124825   6.157   2.187   5.451
 8316TIP3    H224826   6.262   2.226   5.349
 8317TIP3   OH224827   6.481   1.690   5.077
 8317TIP3    H124828   6.435   1.771   5.057
 8317TIP3    H224829   6.414   1.622   5.068
 8318TIP3   OH224830   6.608   2.194   5.297
 8318TIP3    H124831   6.602   2.184   5.392
 8318TIP3    H224832   6.521   2.170   5.265
 8319TIP3   OH224833   6.847   2.138   5.150
 8319TIP3    H124834   6.773   2.145   5.210
 8319TIP3    H224835   6.921   2.111   5.205
 8320TIP3   OH224836   7.077   2.082   5.302
 8320TIP3    H124837   7.090   1.989   5.321
 8320TIP3    H224838   7.073   2.124   5.388
 8321TIP3   OH224839   6.066   2.031   5.489
 8321TIP3    H124840   6.073   1.942   5.453
 8321TIP3    H224841   6.100   2.023   5.578
 8322TIP3   OH224842   6.579   1.697   5.334
 8322TIP3    H124843   6.646   1.630   5.332
 8322TIP3    H224844   6.537   1.693   5.248
 8323TIP3   OH224845   6.642   1.915   5.495
 8323TIP3    H124846   6.622   1.845   5.433
 8323TIP3    H224847   6.567   1.974   5.490
 8324TIP3   OH224848   5.864   3.133   3.590
 8324TIP3    H124849   5.959   3.138   3.579
 8324TIP3    H224850   5.829   3.189   3.520
 8325TIP3   OH224851   5.343   2.521   3.815
 8325TIP3    H124852   5.433   2.547   3.795
 8325TIP3    H224853   5.334   2.436   3.771
 8326TIP3   OH224854   5.258   3.133   4.228
 8326TIP3    H124855   5.191   3.076   4.190
 8326TIP3    H224856   5.303   3.078   4.293
 8327TIP3   OH224857   5.401   2.985   4.413
 8327TIP3    H124858   5.382   2.915   4.476
 8327TIP3    H224859   5.447   3.051   4.464
 8328TIP3   OH224860   7.124   3.386   4.213
 8328TIP3    H124861   7.145   3.420   4.300
 8328TIP3    H224862   7.178   3.438   4.153
 8329TIP3   OH224863   7.151   3.406   4.494
 8329TIP3    H124864   7.108   3.321   4.489
 8329TIP3    H224865   7.226   3.392   4.553
 8330TIP3   OH224866   7.197   3.087   5.068
 8330TIP3    H124867   7.124   3.093   5.130
 8330TIP3    H224868   7.238   3.173   5.070
 8331TIP3   OH224869   7.013   2.602   3.687
 8331TIP3    H124870   7.077   2.666   3.655
 8331TIP3    H224871   7.056   2.562   3.763
 8332TIP3   OH224872   7.136   2.473   3.890
 8332TIP3    H124873   7.087   2.427   3.959
 8332TIP3    H224874   7.217   2.500   3.932
 8333TIP3   OH224875   7.195   2.857   4.321
 8333TIP3    H124876   7.249   2.797   4.270
 8333TIP3    H224877   7.186   2.935   4.266
 8334TIP3   OH224878   7.025   3.157   4.519
 8334TIP3    H124879   6.958   3.203   4.571
 8334TIP3    H224880   6.976   3.112   4.450
 8335TIP3   OH224881   7.077   2.376   3.539
 8335TIP3    H124882   7.010   2.373   3.471
 8335TIP3    H224883   7.054   2.452   3.593
 8336TIP3   OH224884   6.944   2.049   3.495
 8336TIP3    H124885   6.911   2.087   3.413
 8336TIP3    H224886   6.923   1.956   3.488
 8337TIP3   OH224887   7.017   2.283   4.072
 8337TIP3    H124888   6.955   2.225   4.027
 8337TIP3    H224889   6.967   2.319   4.146
 8338TIP3   OH224890   5.585   2.397   4.783
 8338TIP3    H124891   5.580   2.368   4.692
 8338TIP3    H224892   5.679   2.398   4.802
 8339TIP3   OH224893   7.246   2.747   4.892
 8339TIP3    H124894   7.317   2.683   4.885
 8339TIP3    H224895   7.273   2.819   4.835
 8340TIP3   OH224896   7.430   2.550   4.910
 8340TIP3    H124897   7.356   2.505   4.951
 8340TIP3    H224898   7.504   2.491   4.923
 8341TIP3   OH224899   6.892   1.784   3.487
 8341TIP3    H124900   6.968   1.748   3.533
 8341TIP3    H224901   6.823   1.720   3.502
 8342TIP3   OH224902   6.974   2.043   3.930
 8342TIP3    H124903   6.997   1.951   3.946
 8342TIP3    H224904   7.015   2.064   3.847
 8343TIP3   OH224905   7.116   2.218   4.425
 8343TIP3    H124906   7.201   2.244   4.392
 8343TIP3    H224907   7.115   2.245   4.516
 8344TIP3   OH224908   7.175   2.356   4.656
 8344TIP3    H124909   7.102   2.388   4.710
 8344TIP3    H224910   7.210   2.435   4.615
 8345TIP3   OH224911   5.798   2.077   5.451
 8345TIP3    H124912   5.893   2.079   5.456
 8345TIP3    H224913   5.773   1.998   5.498
 8346TIP3   OH224914   7.633   1.946   5.214
 8346TIP3    H124915   7.691   1.881   5.175
 8346TIP3    H224916   7.606   2.002   5.142
 8347TIP3   OH224917   7.051   1.789   3.978
 8347TIP3    H124918   7.109   1.770   4.052
 8347TIP3    H224919   6.995   1.712   3.971
 8348TIP3   OH224920   5.763   1.774   4.786
 8348TIP3    H124921   5.822   1.700   4.799
 8348TIP3    H224922   5.821   1.850   4.785
 8349TIP3   OH224923   5.565   2.048   4.863
 8349TIP3    H124924   5.614   2.046   4.781
 8349TIP3    H224925   5.586   2.133   4.902
 8350TIP3   OH224926   7.503   2.088   5.021
 8350TIP3    H124927   7.421   2.129   5.049
 8350TIP3    H224928   7.477   2.016   4.964
 8351TIP3   OH224929   7.146   1.724   3.602
 8351TIP3    H124930   7.180   1.649   3.554
 8351TIP3    H224931   7.212   1.792   3.591
 8352TIP3   OH224932   5.546   1.554   4.364
 8352TIP3    H124933   5.454   1.550   4.391
 8352TIP3    H224934   5.545   1.610   4.287
 8353TIP3   OH224935   6.709   3.252   3.870
 8353TIP3    H124936   6.758   3.242   3.789
 8353TIP3    H224937   6.754   3.323   3.916
 8354TIP3   OH224938   5.764   1.629   5.177
 8354TIP3    H124939   5.719   1.627   5.262
 8354TIP3    H224940   5.701   1.670   5.117
 8355TIP3   OH224941   5.807   3.058   5.255
 8355TIP3    H124942   5.717   3.032   5.239
 8355TIP3    H224943   5.825   3.032   5.345
 8356TIP3   OH224944   5.986   3.091   4.799
 8356TIP3    H124945   5.933   3.163   4.766
 8356TIP3    H224946   6.072   3.103   4.758
 8357TIP3   OH224947   6.433   3.336   4.940
 8357TIP3    H124948   6.470   3.336   5.029
 8357TIP3    H224949   6.496   3.387   4.889
 8358TIP3   OH224950   6.613   3.488   4.800
 8358TIP3    H124951   6.683   3.437   4.759
 8358TIP3    H224952   6.657   3.546   4.861
 8359TIP3   OH224953   7.403   1.848   4.898
 8359TIP3    H124954   7.312   1.842   4.869
 8359TIP3    H224955   7.436   1.758   4.890
 8360TIP3   OH224956   5.659   3.349   4.828
 8360TIP3    H124957   5.573   3.381   4.803
 8360TIP3    H224958   5.674   3.384   4.915
 8361TIP3   OH224959   5.895   3.326   4.682
 8361TIP3    H124960   5.813   3.339   4.729
 8361TIP3    H224961   5.879   3.362   4.595
 8362TIP3   OH224962   6.323   3.359   4.481
 8362TIP3    H124963   6.255   3.378   4.415
 8362TIP3    H224964   6.338   3.443   4.524
 8363TIP3   OH224965   6.591   3.295   4.529
 8363TIP3    H124966   6.498   3.312   4.515
 8363TIP3    H224967   6.635   3.373   4.493
 8364TIP3   OH224968   6.801   3.488   4.447
 8364TIP3    H124969   6.786   3.573   4.404
 8364TIP3    H224970   6.825   3.429   4.376
 8365TIP3   OH224971   5.576   3.140   4.571
 8365TIP3    H124972   5.598   3.119   4.662
 8365TIP3    H224973   5.645   3.099   4.520
 8366TIP3   OH224974   5.769   3.011   4.425
 8366TIP3    H124975   5.781   2.932   4.477
 8366TIP3    H224976   5.855   3.052   4.424
 8367TIP3   OH224977   6.032   3.106   4.434
 8367TIP3    H124978   6.064   3.016   4.425
 8367TIP3    H224979   6.072   3.137   4.515
 8368TIP3   OH224980   6.607   1.763   4.516
 8368TIP3    H124981   6.564   1.698   4.572
 8368TIP3    H224982   6.678   1.714   4.473
 8369TIP3   OH224983   7.134   1.649   4.420
 8369TIP3    H124984   7.168   1.700   4.347
 8369TIP3    H224985   7.039   1.660   4.414
 8370TIP3   OH224986   7.240   1.756   4.182
 8370TIP3    H124987   7.293   1.688   4.142
 8370TIP3    H224988   7.298   1.832   4.189
 8371TIP3   OH224989   5.856   1.472   4.535
 8371TIP3    H124990   5.765   1.442   4.536
 8371TIP3    H224991   5.908   1.391   4.532
 8372TIP3   OH224992   5.643   1.345   4.183
 8372TIP3    H124993   5.674   1.399   4.110
 8372TIP3    H224994   5.615   1.408   4.250
 8373TIP3   OH224995   6.300   1.510   4.415
 8373TIP3    H124996   6.360   1.557   4.357
 8373TIP3    H224997   6.321   1.543   4.502
 8374TIP3   OH224998   6.853   1.650   4.395
 8374TIP3    H124999   6.847   1.611   4.308
 8374TIP3    H225000   6.838   1.577   4.456
 8375TIP3   OH225001   6.874   1.574   3.963
 8375TIP3    H125002   6.787   1.613   3.969
 8375TIP3    H225003   6.866   1.490   4.008
 8376TIP3   OH225004   5.360   2.916   3.963
 8376TIP3    H125005   5.277   2.881   3.930
 8376TIP3    H225006   5.355   3.010   3.946
 8377TIP3   OH225007   5.762   1.503   3.947
 8377TIP3    H125008   5.807   1.440   3.890
 8377TIP3    H225009   5.832   1.556   3.983
 8378TIP3   OH225010   6.274   1.681   4.047
 8378TIP3    H125011   6.329   1.628   4.103
 8378TIP3    H225012   6.296   1.771   4.070
 8379TIP3   OH225013   6.136   3.102   3.545
 8379TIP3    H125014   6.221   3.129   3.512
 8379TIP3    H225015   6.110   3.029   3.488
 8380TIP3   OH225016   6.851   3.220   3.635
 8380TIP3    H125017   6.843   3.126   3.625
 8380TIP3    H225018   6.806   3.257   3.559
 8381TIP3   OH225019   6.068   1.753   5.425
 8381TIP3    H125020   6.029   1.686   5.482
 8381TIP3    H225021   6.160   1.756   5.451
 8382TIP3   OH225022   6.314   1.749   5.546
 8382TIP3    H125023   6.399   1.728   5.506
 8382TIP3    H225024   6.301   1.681   5.612
 8383TIP3   OH225025   5.436   2.935   3.603
 8383TIP3    H125026   5.434   2.975   3.689
 8383TIP3    H225027   5.525   2.899   3.595
 8384TIP3   OH225028   7.140   1.811   5.334
 8384TIP3    H125029   7.156   1.782   5.424
 8384TIP3    H225030   7.226   1.808   5.292
 8385TIP3   OH225031   7.078   3.368   4.823
 8385TIP3    H125032   7.001   3.333   4.777
 8385TIP3    H225033   7.061   3.462   4.829
 8386TIP3   OH225034   8.342   2.739   3.592
 8386TIP3    H125035   8.317   2.829   3.573
 8386TIP3    H225036   8.269   2.686   3.559
 8387TIP3   OH225037   8.341   2.738   3.974
 8387TIP3    H125038   8.374   2.710   4.059
 8387TIP3    H225039   8.303   2.659   3.936
 8388TIP3   OH225040   7.644   2.631   4.340
 8388TIP3    H125041   7.673   2.565   4.404
 8388TIP3    H225042   7.717   2.692   4.334
 8389TIP3   OH225043   8.588   3.039   3.655
 8389TIP3    H125044   8.572   2.968   3.717
 8389TIP3    H225045   8.613   3.113   3.710
 8390TIP3   OH225046   7.615   3.038   4.061
 8390TIP3    H125047   7.603   2.943   4.066
 8390TIP3    H225048   7.709   3.050   4.058
 8391TIP3   OH225049   7.382   2.522   4.010
 8391TIP3    H125050   7.440   2.457   4.050
 8391TIP3    H225051   7.439   2.574   3.954
 8392TIP3   OH225052   8.239   3.506   3.670
 8392TIP3    H125053   8.282   3.436   3.621
 8392TIP3    H225054   8.226   3.469   3.757
 8393TIP3   OH225055   8.146   2.963   4.020
 8393TIP3    H125056   8.179   2.885   3.975
 8393TIP3    H225057   8.224   3.011   4.045
 8394TIP3   OH225058   9.088   2.311   4.028
 8394TIP3    H125059   9.149   2.360   4.084
 8394TIP3    H225060   9.132   2.306   3.944
 8395TIP3   OH225061   8.552   2.465   4.052
 8395TIP3    H125062   8.596   2.384   4.076
 8395TIP3    H225063   8.523   2.451   3.962
 8396TIP3   OH225064   7.889   2.125   4.019
 8396TIP3    H125065   7.875   2.196   3.957
 8396TIP3    H225066   7.849   2.049   3.977
 8397TIP3   OH225067   8.589   2.217   3.642
 8397TIP3    H125068   8.656   2.200   3.707
 8397TIP3    H225069   8.637   2.252   3.567
 8398TIP3   OH225070   7.531   2.314   4.115
 8398TIP3    H125071   7.609   2.303   4.169
 8398TIP3    H225072   7.549   2.264   4.036
 8399TIP3   OH225073   7.968   2.522   3.918
 8399TIP3    H125074   8.061   2.501   3.931
 8399TIP3    H225075   7.930   2.440   3.887
 8400TIP3   OH225076   9.224   2.491   4.185
 8400TIP3    H125077   9.141   2.539   4.183
 8400TIP3    H225078   9.267   2.522   4.265
 8401TIP3   OH225079   7.886   2.109   4.453
 8401TIP3    H125080   7.828   2.144   4.385
 8401TIP3    H225081   7.839   2.124   4.535
 8402TIP3   OH225082   8.234   2.960   3.462
 8402TIP3    H125083   8.195   2.936   3.378
 8402TIP3    H225084   8.192   3.043   3.486
 8403TIP3   OH225085   7.994   2.885   4.248
 8403TIP3    H125086   7.933   2.947   4.287
 8403TIP3    H225087   8.037   2.934   4.178
 8404TIP3   OH225088   8.799   2.217   3.814
 8404TIP3    H125089   8.789   2.166   3.895
 8404TIP3    H225090   8.853   2.292   3.839
 8405TIP3   OH225091   7.759   2.225   4.236
 8405TIP3    H125092   7.818   2.295   4.264
 8405TIP3    H225093   7.806   2.181   4.165
 8406TIP3   OH225094   7.819   3.078   4.345
 8406TIP3    H125095   7.799   3.163   4.306
 8406TIP3    H225096   7.745   3.059   4.402
 8407TIP3   OH225097   7.217   2.769   3.581
 8407TIP3    H125098   7.177   2.793   3.498
 8407TIP3    H225099   7.247   2.852   3.618
 8408TIP3   OH225100   8.656   3.284   3.823
 8408TIP3    H125101   8.570   3.272   3.863
 8408TIP3    H225102   8.649   3.368   3.777
 8409TIP3   OH225103   8.926   2.177   4.196
 8409TIP3    H125104   8.839   2.204   4.168
 8409TIP3    H225105   8.985   2.217   4.132
 8410TIP3   OH225106   8.242   1.826   4.165
 8410TIP3    H125107   8.235   1.732   4.183
 8410TIP3    H225108   8.168   1.865   4.211
 8411TIP3   OH225109   8.363   3.331   3.495
 8411TIP3    H125110   8.406   3.247   3.477
 8411TIP3    H225111   8.420   3.396   3.455
 8412TIP3   OH225112   8.501   3.114   3.404
 8412TIP3    H125113   8.469   3.037   3.357
 8412TIP3    H225114   8.536   3.079   3.486
 8413TIP3   OH225115   8.881   3.197   4.161
 8413TIP3    H125116   8.868   3.119   4.107
 8413TIP3    H225117   8.864   3.270   4.102
 8414TIP3   OH225118   8.174   2.591   3.420
 8414TIP3    H125119   8.095   2.641   3.399
 8414TIP3    H225120   8.222   2.586   3.338
 8415TIP3   OH225121   8.136   2.374   3.139
 8415TIP3    H125122   8.201   2.425   3.188
 8415TIP3    H225123   8.187   2.309   3.091
 8416TIP3   OH225124   9.075   2.834   4.010
 8416TIP3    H125125   8.993   2.883   4.017
 8416TIP3    H225126   9.104   2.849   3.920
 8417TIP3   OH225127   8.522   2.673   3.397
 8417TIP3    H125128   8.467   2.697   3.471
 8417TIP3    H225129   8.605   2.645   3.436
 8418TIP3   OH225130   8.754   2.715   4.305
 8418TIP3    H125131   8.754   2.794   4.358
 8418TIP3    H225132   8.670   2.716   4.260
 8419TIP3   OH225133   7.755   2.669   3.812
 8419TIP3    H125134   7.713   2.614   3.746
 8419TIP3    H225135   7.831   2.618   3.840
 8420TIP3   OH225136   7.885   3.079   3.959
 8420TIP3    H125137   7.864   3.040   3.875
 8420TIP3    H225138   7.973   3.048   3.978
 8421TIP3   OH225139   7.888   2.645   4.161
 8421TIP3    H125140   7.924   2.620   4.076
 8421TIP3    H225141   7.933   2.726   4.184
 8422TIP3   OH225142   8.418   3.279   3.944
 8422TIP3    H125143   8.403   3.357   3.996
 8422TIP3    H225144   8.402   3.206   4.004
 8423TIP3   OH225145   8.025   3.198   4.488
 8423TIP3    H125146   7.970   3.260   4.535
 8423TIP3    H225147   7.963   3.144   4.439
 8424TIP3   OH225148   8.364   2.533   3.219
 8424TIP3    H125149   8.421   2.588   3.272
 8424TIP3    H225150   8.388   2.554   3.129
 8425TIP3   OH225151   7.779   2.757   4.588
 8425TIP3    H125152   7.788   2.842   4.633
 8425TIP3    H225153   7.687   2.735   4.599
 8426TIP3   OH225154   8.105   3.212   3.496
 8426TIP3    H125155   8.183   3.264   3.514
 8426TIP3    H225156   8.044   3.274   3.455
 8427TIP3   OH225157   7.821   3.366   4.575
 8427TIP3    H125158   7.788   3.365   4.486
 8427TIP3    H225159   7.745   3.345   4.630
 8428TIP3   OH225160   8.887   1.790   3.297
 8428TIP3    H125161   8.799   1.803   3.332
 8428TIP3    H225162   8.893   1.852   3.224
 8429TIP3   OH225163   7.616   2.513   3.620
 8429TIP3    H125164   7.557   2.562   3.562
 8429TIP3    H225165   7.584   2.423   3.616
 8430TIP3   OH225166   8.678   3.141   2.816
 8430TIP3    H125167   8.683   3.236   2.801
 8430TIP3    H225168   8.768   3.110   2.804
 8431TIP3   OH225169   7.402   2.896   4.523
 8431TIP3    H125170   7.337   2.874   4.456
 8431TIP3    H225171   7.438   2.811   4.549
 8432TIP3   OH225172   7.257   3.088   4.161
 8432TIP3    H125173   7.352   3.088   4.148
 8432TIP3    H225174   7.240   3.169   4.209
 8433TIP3   OH225175   9.110   3.543   4.204
 8433TIP3    H125176   9.120   3.449   4.217
 8433TIP3    H225177   9.033   3.566   4.255
 8434TIP3   OH225178   8.225   3.328   4.347
 8434TIP3    H125179   8.227   3.419   4.377
 8434TIP3    H225180   8.156   3.287   4.399
 8435TIP3   OH225181   7.986   3.457   3.297
 8435TIP3    H125182   7.941   3.437   3.214
 8435TIP3    H225183   7.955   3.544   3.320
 8436TIP3   OH225184   7.425   3.304   3.683
 8436TIP3    H125185   7.474   3.297   3.765
 8436TIP3    H225186   7.362   3.232   3.686
 8437TIP3   OH225187   8.191   3.357   2.939
 8437TIP3    H125188   8.247   3.289   2.901
 8437TIP3    H225189   8.223   3.367   3.028
 8438TIP3   OH225190   8.238   3.406   3.211
 8438TIP3    H125191   8.150   3.415   3.249
 8438TIP3    H225192   8.288   3.360   3.278
 8439TIP3   OH225193   9.018   2.676   4.476
 8439TIP3    H125194   8.934   2.686   4.431
 8439TIP3    H225195   9.036   2.582   4.472
 8440TIP3   OH225196   7.607   3.078   4.514
 8440TIP3    H125197   7.657   3.065   4.594
 8440TIP3    H225198   7.533   3.017   4.520
 8441TIP3   OH225199   8.001   1.903   4.296
 8441TIP3    H125200   7.915   1.872   4.268
 8441TIP3    H225201   7.983   1.985   4.342
 8442TIP3   OH225202   8.540   2.018   4.491
 8442TIP3    H125203   8.608   1.991   4.552
 8442TIP3    H225204   8.458   1.998   4.535
 8443TIP3   OH225205   8.773   2.447   4.406
 8443TIP3    H125206   8.730   2.443   4.491
 8443TIP3    H225207   8.754   2.535   4.373
 8444TIP3   OH225208   8.438   2.580   2.962
 8444TIP3    H125209   8.405   2.551   2.877
 8444TIP3    H225210   8.520   2.625   2.941
 8445TIP3   OH225211   8.152   1.952   3.268
 8445TIP3    H125212   8.119   1.951   3.358
 8445TIP3    H225213   8.115   1.874   3.227
 8446TIP3   OH225214   7.934   2.422   4.313
 8446TIP3    H125215   7.890   2.442   4.396
 8446TIP3    H225216   7.920   2.500   4.259
 8447TIP3   OH225217   7.819   2.302   3.827
 8447TIP3    H125218   7.726   2.283   3.837
 8447TIP3    H225219   7.841   2.267   3.741
 8448TIP3   OH225220   8.313   2.392   3.553
 8448TIP3    H125221   8.260   2.461   3.514
 8448TIP3    H225222   8.368   2.360   3.481
 8449TIP3   OH225223   8.488   2.669   4.644
 8449TIP3    H125224   8.464   2.598   4.703
 8449TIP3    H225225   8.581   2.685   4.662
 8450TIP3   OH225226   8.467   2.417   3.791
 8450TIP3    H125227   8.408   2.449   3.723
 8450TIP3    H225228   8.504   2.337   3.755
 8451TIP3   OH225229   7.754   2.446   4.526
 8451TIP3    H125230   7.787   2.511   4.589
 8451TIP3    H225231   7.748   2.365   4.576
 8452TIP3   OH225232   7.807   1.930   3.236
 8452TIP3    H125233   7.801   1.918   3.330
 8452TIP3    H225234   7.725   1.972   3.211
 8453TIP3   OH225235   7.327   1.957   3.627
 8453TIP3    H125236   7.370   1.987   3.546
 8453TIP3    H225237   7.261   2.023   3.644
 8454TIP3   OH225238   8.479   2.664   4.218
 8454TIP3    H125239   8.512   2.596   4.159
 8454TIP3    H225240   8.451   2.616   4.296
 8455TIP3   OH225241   8.149   2.133   3.893
 8455TIP3    H125242   8.070   2.125   3.947
 8455TIP3    H225243   8.221   2.124   3.955
 8456TIP3   OH225244   7.576   2.162   3.889
 8456TIP3    H125245   7.505   2.137   3.829
 8456TIP3    H225246   7.636   2.087   3.887
 8457TIP3   OH225247   7.853   2.184   3.585
 8457TIP3    H125248   7.947   2.192   3.565
 8457TIP3    H225249   7.810   2.203   3.501
 8458TIP3   OH225250   8.636   2.204   4.093
 8458TIP3    H125251   8.603   2.216   4.182
 8458TIP3    H225252   8.577   2.141   4.053
 8459TIP3   OH225253   7.690   2.217   3.361
 8459TIP3    H125254   7.621   2.168   3.316
 8459TIP3    H225255   7.745   2.250   3.291
 8460TIP3   OH225256   8.811   3.893   4.308
 8460TIP3    H125257   8.808   3.913   4.215
 8460TIP3    H225258   8.887   3.942   4.340
 8461TIP3   OH225259   7.770   3.002   4.735
 8461TIP3    H125260   7.849   3.032   4.778
 8461TIP3    H225261   7.703   3.001   4.804
 8462TIP3   OH225262   8.233   2.454   3.987
 8462TIP3    H125263   8.304   2.416   3.934
 8462TIP3    H225264   8.242   2.413   4.073
 8463TIP3   OH225265   7.753   1.946   3.864
 8463TIP3    H125266   7.722   1.868   3.910
 8463TIP3    H225267   7.804   1.912   3.791
 8464TIP3   OH225268   8.209   2.351   4.279
 8464TIP3    H125269   8.121   2.389   4.291
 8464TIP3    H225270   8.267   2.409   4.327
 8465TIP3   OH225271   7.943   2.743   3.373
 8465TIP3    H125272   7.874   2.679   3.359
 8465TIP3    H225273   7.928   2.777   3.461
 8466TIP3   OH225274   8.843   2.979   3.999
 8466TIP3    H125275   8.866   3.025   3.918
 8466TIP3    H225276   8.760   2.936   3.979
 8467TIP3   OH225277   8.403   2.058   3.231
 8467TIP3    H125278   8.310   2.039   3.241
 8467TIP3    H225279   8.412   2.149   3.258
 8468TIP3   OH225280   8.347   3.063   4.369
 8468TIP3    H125281   8.369   3.037   4.458
 8468TIP3    H225282   8.305   3.148   4.378
 8469TIP3   OH225283   8.475   2.304   3.337
 8469TIP3    H125284   8.570   2.307   3.351
 8469TIP3    H225285   8.457   2.380   3.282
 8470TIP3   OH225286   7.632   2.751   4.047
 8470TIP3    H125287   7.672   2.734   3.962
 8470TIP3    H225288   7.686   2.703   4.110
 8471TIP3   OH225289   8.088   2.893   3.192
 8471TIP3    H125290   8.044   2.978   3.197
 8471TIP3    H225291   8.038   2.837   3.251
 8472TIP3   OH225292   7.517   2.685   4.663
 8472TIP3    H125293   7.544   2.677   4.754
 8472TIP3    H225294   7.451   2.616   4.651
 8473TIP3   OH225295   8.245   2.797   4.678
 8473TIP3    H125296   8.186   2.740   4.629
 8473TIP3    H225297   8.333   2.767   4.655
 8474TIP3   OH225298   8.505   3.326   4.263
 8474TIP3    H125299   8.410   3.318   4.275
 8474TIP3    H225300   8.534   3.373   4.341
 8475TIP3   OH225301   8.908   2.385   3.181
 8475TIP3    H125302   8.849   2.337   3.123
 8475TIP3    H225303   8.935   2.461   3.131
 8476TIP3   OH225304   9.131   3.241   4.243
 8476TIP3    H125305   9.036   3.241   4.243
 8476TIP3    H225306   9.155   3.207   4.157
 8477TIP3   OH225307   8.614   3.210   3.081
 8477TIP3    H125308   8.593   3.138   3.141
 8477TIP3    H225309   8.630   3.167   2.997
 8478TIP3   OH225310   8.610   2.839   3.921
 8478TIP3    H125311   8.518   2.818   3.935
 8478TIP3    H225312   8.645   2.763   3.874
 8479TIP3   OH225313   7.737   3.069   3.671
 8479TIP3    H125314   7.741   3.149   3.619
 8479TIP3    H225315   7.643   3.052   3.682
 8480TIP3   OH225316   7.301   2.376   3.376
 8480TIP3    H125317   7.348   2.457   3.393
 8480TIP3    H225318   7.226   2.378   3.434
 8481TIP3   OH225319   7.877   2.835   3.619
 8481TIP3    H125320   7.844   2.923   3.633
 8481TIP3    H225321   7.843   2.784   3.692
 8482TIP3   OH225322   8.009   3.413   4.142
 8482TIP3    H125323   8.048   3.485   4.092
 8482TIP3    H225324   8.083   3.376   4.191
 8483TIP3   OH225325   7.658   3.309   3.526
 8483TIP3    H125326   7.573   3.314   3.570
 8483TIP3    H225327   7.691   3.399   3.526
 8484TIP3   OH225328   8.399   3.046   4.102
 8484TIP3    H125329   8.388   3.045   4.197
 8484TIP3    H225330   8.476   2.991   4.086
 8485TIP3   OH225331   8.370   2.937   2.986
 8485TIP3    H125332   8.424   2.915   3.062
 8485TIP3    H225333   8.281   2.911   3.012
 8486TIP3   OH225334   8.644   3.580   4.151
 8486TIP3    H125335   8.569   3.521   4.148
 8486TIP3    H225336   8.628   3.643   4.080
 8487TIP3   OH225337   8.708   3.417   2.803
 8487TIP3    H125338   8.746   3.481   2.743
 8487TIP3    H225339   8.629   3.459   2.837
 8488TIP3   OH225340   7.731   2.190   4.671
 8488TIP3    H125341   7.637   2.196   4.687
 8488TIP3    H225342   7.764   2.132   4.740
 8489TIP3   OH225343   8.530   2.875   3.204
 8489TIP3    H125344   8.518   2.807   3.271
 8489TIP3    H225345   8.624   2.873   3.186
 8490TIP3   OH225346   7.449   3.275   4.302
 8490TIP3    H125347   7.500   3.200   4.334
 8490TIP3    H225348   7.471   3.346   4.361
 8491TIP3   OH225349   7.737   2.918   2.983
 8491TIP3    H125350   7.752   2.829   2.952
 8491TIP3    H225351   7.718   2.908   3.077
 8492TIP3   OH225352   7.684   2.926   3.256
 8492TIP3    H125353   7.755   2.896   3.313
 8492TIP3    H225354   7.686   3.021   3.261
 8493TIP3   OH225355   7.417   2.622   3.458
 8493TIP3    H125356   7.352   2.663   3.515
 8493TIP3    H225357   7.434   2.687   3.390
 8494TIP3   OH225358   8.565   2.255   4.352
 8494TIP3    H125359   8.646   2.294   4.386
 8494TIP3    H225360   8.553   2.176   4.404
 8495TIP3   OH225361   8.444   2.011   3.513
 8495TIP3    H125362   8.431   2.031   3.421
 8495TIP3    H225363   8.484   2.090   3.550
 8496TIP3   OH225364   7.946   3.124   3.204
 8496TIP3    H125365   7.861   3.149   3.240
 8496TIP3    H225366   7.965   3.191   3.139
 8497TIP3   OH225367   8.136   2.188   3.620
 8497TIP3    H125368   8.200   2.257   3.600
 8497TIP3    H225369   8.142   2.179   3.715
 8498TIP3   OH225370   8.407   2.505   4.426
 8498TIP3    H125371   8.427   2.557   4.504
 8498TIP3    H225372   8.460   2.426   4.437
 8499TIP3   OH225373   8.282   1.916   3.720
 8499TIP3    H125374   8.280   1.988   3.783
 8499TIP3    H225375   8.340   1.948   3.650
 8500TIP3   OH225376   7.690   3.200   3.271
 8500TIP3    H125377   7.661   3.266   3.207
 8500TIP3    H225378   7.674   3.240   3.356
 8501TIP3   OH225379   7.793   1.913   3.513
 8501TIP3    H125380   7.794   2.003   3.545
 8501TIP3    H225381   7.884   1.885   3.516
 8502TIP3   OH225382   9.040   2.407   4.405
 8502TIP3    H125383   8.945   2.402   4.410
 8502TIP3    H225384   9.061   2.373   4.317
 8503TIP3   OH225385   8.687   2.604   3.791
 8503TIP3    H125386   8.615   2.543   3.803
 8503TIP3    H225387   8.761   2.564   3.836
 8504TIP3   OH225388   7.411   2.828   3.262
 8504TIP3    H125389   7.472   2.902   3.274
 8504TIP3    H225390   7.453   2.773   3.196
 8505TIP3   OH225391   7.349   2.105   3.402
 8505TIP3    H125392   7.351   2.200   3.393
 8505TIP3    H225393   7.278   2.076   3.344
 8506TIP3   OH225394   8.666   3.557   3.741
 8506TIP3    H125395   8.620   3.602   3.671
 8506TIP3    H225396   8.759   3.574   3.725
 8507TIP3   OH225397   7.732   1.826   4.271
 8507TIP3    H125398   7.709   1.792   4.185
 8507TIP3    H225399   7.729   1.749   4.329
 8508TIP3   OH225400   7.278   3.040   3.651
 8508TIP3    H125401   7.209   3.072   3.708
 8508TIP3    H225402   7.259   3.078   3.566
 8509TIP3   OH225403   7.438   3.580   4.722
 8509TIP3    H125404   7.522   3.583   4.769
 8509TIP3    H225405   7.414   3.488   4.721
 8510TIP3   OH225406   7.922   3.549   4.764
 8510TIP3    H125407   8.014   3.528   4.775
 8510TIP3    H225408   7.893   3.492   4.692
 8511TIP3   OH225409   7.901   3.121   2.896
 8511TIP3    H125410   7.844   3.054   2.933
 8511TIP3    H225411   7.976   3.073   2.863
 8512TIP3   OH225412   8.561   3.452   4.501
 8512TIP3    H125413   8.548   3.384   4.567
 8512TIP3    H225414   8.635   3.503   4.533
 8513TIP3   OH225415   8.337   3.164   2.807
 8513TIP3    H125416   8.382   3.102   2.864
 8513TIP3    H225417   8.389   3.165   2.726
 8514TIP3   OH225418   7.567   2.988   4.921
 8514TIP3    H125419   7.585   2.895   4.930
 8514TIP3    H225420   7.481   2.993   4.880
 8515TIP3   OH225421   7.547   2.640   3.116
 8515TIP3    H125422   7.599   2.607   3.189
 8515TIP3    H225423   7.609   2.646   3.043
 8516TIP3   OH225424   8.176   3.073   4.695
 8516TIP3    H125425   8.134   3.089   4.610
 8516TIP3    H225426   8.207   2.983   4.689
 8517TIP3   OH225427   8.052   2.836   2.924
 8517TIP3    H125428   8.056   2.852   3.018
 8517TIP3    H225429   8.053   2.741   2.916
 8518TIP3   OH225430   8.668   3.083   4.301
 8518TIP3    H125431   8.742   3.127   4.259
 8518TIP3    H225432   8.595   3.144   4.290
 8519TIP3   OH225433   7.689   2.721   4.905
 8519TIP3    H125434   7.763   2.664   4.884
 8519TIP3    H225435   7.709   2.756   4.991
 8520TIP3   OH225436   7.753   2.541   3.339
 8520TIP3    H125437   7.729   2.499   3.421
 8520TIP3    H225438   7.790   2.471   3.285
 8521TIP3   OH225439   8.018   2.607   4.562
 8521TIP3    H125440   7.945   2.668   4.568
 8521TIP3    H225441   8.070   2.639   4.488
 8522TIP3   OH225442   7.855   2.338   3.178
 8522TIP3    H125443   7.826   2.339   3.086
 8522TIP3    H225444   7.950   2.342   3.173
 8523TIP3   OH225445   8.540   3.009   4.701
 8523TIP3    H125446   8.621   2.988   4.654
 8523TIP3    H225447   8.535   2.944   4.771
 8524TIP3   OH225448   8.673   2.670   2.838
 8524TIP3    H125449   8.654   2.620   2.759
 8524TIP3    H225450   8.643   2.759   2.818
 8525TIP3   OH225451   8.142   2.396   4.692
 8525TIP3    H125452   8.146   2.316   4.639
 8525TIP3    H225453   8.101   2.460   4.635
 8526TIP3   OH225454   8.146   2.183   4.498
 8526TIP3    H125455   8.177   2.223   4.417
 8526TIP3    H225456   8.055   2.160   4.481
 8527TIP3   OH225457   8.174   2.719   4.372
 8527TIP3    H125458   8.258   2.724   4.326
 8527TIP3    H225459   8.120   2.785   4.329
 8528TIP3   OH225460   8.760   2.685   4.754
 8528TIP3    H125461   8.804   2.601   4.767
 8528TIP3    H225462   8.829   2.744   4.724
 8529TIP3   OH225463   8.799   2.940   4.488
 8529TIP3    H125464   8.740   2.990   4.431
 8529TIP3    H225465   8.886   2.955   4.451
 8530TIP3   OH225466   8.019   2.509   4.920
 8530TIP3    H125467   7.952   2.443   4.938
 8530TIP3    H225468   8.057   2.483   4.836
 8531TIP3   OH225469   8.278   1.947   4.565
 8531TIP3    H125470   8.232   2.028   4.544
 8531TIP3    H225471   8.211   1.879   4.555
 8532TIP3   OH225472   8.403   2.452   4.785
 8532TIP3    H125473   8.399   2.441   4.879
 8532TIP3    H225474   8.315   2.426   4.754
 8533TIP3   OH225475   8.645   2.401   4.640
 8533TIP3    H125476   8.570   2.401   4.700
 8533TIP3    H225477   8.719   2.370   4.693
 8534TIP3   OH225478   8.873   2.339   4.790
 8534TIP3    H125479   8.885   2.245   4.808
 8534TIP3    H225480   8.869   2.379   4.877
 8535TIP3   OH225481   7.862   2.287   4.976
 8535TIP3    H125482   7.869   2.199   4.940
 8535TIP3    H225483   7.898   2.279   5.065
 8536TIP3   OH225484   8.375   1.954   4.822
 8536TIP3    H125485   8.442   1.887   4.820
 8536TIP3    H225486   8.334   1.950   4.735
 8537TIP3   OH225487   8.438   2.171   4.982
 8537TIP3    H125488   8.419   2.101   4.920
 8537TIP3    H225489   8.363   2.230   4.976
 8538TIP3   OH225490   7.662   3.401   3.081
 8538TIP3    H125491   7.756   3.395   3.065
 8538TIP3    H225492   7.627   3.449   3.005
 8539TIP3   OH225493   7.143   2.779   3.301
 8539TIP3    H125494   7.234   2.803   3.287
 8539TIP3    H225495   7.134   2.693   3.260
 8540TIP3   OH225496   7.056   3.391   3.712
 8540TIP3    H125497   6.988   3.334   3.675
 8540TIP3    H225498   7.100   3.337   3.778
 8541TIP3   OH225499   7.194   3.246   3.901
 8541TIP3    H125500   7.177   3.172   3.960
 8541TIP3    H225501   7.242   3.309   3.954
 8542TIP3   OH225502   8.917   3.654   3.699
 8542TIP3    H125503   8.949   3.678   3.786
 8542TIP3    H225504   8.986   3.683   3.639
 8543TIP3   OH225505   8.950   3.663   3.983
 8543TIP3    H125506   8.902   3.581   3.976
 8543TIP3    H225507   9.024   3.642   4.040
 8544TIP3   OH225508   8.991   3.346   4.553
 8544TIP3    H125509   8.920   3.349   4.617
 8544TIP3    H225510   9.034   3.431   4.559
 8545TIP3   OH225511   8.805   2.859   3.174
 8545TIP3    H125512   8.871   2.924   3.148
 8545TIP3    H225513   8.844   2.816   3.250
 8546TIP3   OH225514   8.923   2.723   3.377
 8546TIP3    H125515   8.857   2.679   3.431
 8546TIP3    H225516   8.982   2.763   3.440
 8547TIP3   OH225517   8.990   3.109   3.804
 8547TIP3    H125518   9.035   3.052   3.742
 8547TIP3    H225519   8.977   3.191   3.756
 8548TIP3   OH225520   8.821   3.417   4.004
 8548TIP3    H125521   8.754   3.457   4.058
 8548TIP3    H225522   8.773   3.369   3.936
 8549TIP3   OH225523   8.878   2.641   3.018
 8549TIP3    H125524   8.805   2.634   2.956
 8549TIP3    H225525   8.851   2.710   3.079
 8550TIP3   OH225526   8.733   2.303   2.990
 8550TIP3    H125527   8.720   2.345   2.905
 8550TIP3    H225528   8.712   2.211   2.975
 8551TIP3   OH225529   8.750   2.577   3.526
 8551TIP3    H125530   8.759   2.482   3.518
 8551TIP3    H225531   8.734   2.591   3.620
 8552TIP3   OH225532   7.382   2.651   4.267
 8552TIP3    H125533   7.380   2.628   4.174
 8552TIP3    H225534   7.475   2.653   4.289
 8553TIP3   OH225535   9.044   3.003   4.379
 8553TIP3    H125536   9.115   2.939   4.373
 8553TIP3    H225537   9.070   3.074   4.321
 8554TIP3   OH225538   9.238   2.815   4.404
 8554TIP3    H125539   9.158   2.772   4.436
 8554TIP3    H225540   9.305   2.747   4.411
 8555TIP3   OH225541   8.687   2.037   2.967
 8555TIP3    H125542   8.761   2.004   3.018
 8555TIP3    H225543   8.614   1.980   2.990
 8556TIP3   OH225544   8.752   2.296   3.418
 8556TIP3    H125545   8.790   2.209   3.436
 8556TIP3    H225546   8.805   2.330   3.345
 8557TIP3   OH225547   8.902   2.491   3.906
 8557TIP3    H125548   8.983   2.519   3.864
 8557TIP3    H225549   8.921   2.496   4.000
 8558TIP3   OH225550   8.977   2.616   4.153
 8558TIP3    H125551   8.898   2.646   4.198
 8558TIP3    H225552   9.008   2.693   4.105
 8559TIP3   OH225553   7.597   2.336   4.942
 8559TIP3    H125554   7.692   2.335   4.945
 8559TIP3    H225555   7.570   2.256   4.986
 8560TIP3   OH225556   8.854   2.044   3.467
 8560TIP3    H125557   8.892   2.032   3.554
 8560TIP3    H225558   8.794   1.971   3.457
 8561TIP3   OH225559   7.550   2.038   4.299
 8561TIP3    H125560   7.601   1.957   4.293
 8561TIP3    H225561   7.612   2.107   4.278
 8562TIP3   OH225562   7.348   2.315   4.325
 8562TIP3    H125563   7.424   2.310   4.266
 8562TIP3    H225564   7.370   2.386   4.386
 8563TIP3   OH225565   9.284   2.334   4.524
 8563TIP3    H125566   9.208   2.387   4.547
 8563TIP3    H225567   9.252   2.273   4.457
 8564TIP3   OH225568   8.938   1.965   3.078
 8564TIP3    H125569   8.980   1.881   3.062
 8564TIP3    H225570   8.988   2.027   3.025
 8565TIP3   OH225571   7.328   1.838   3.869
 8565TIP3    H125572   7.238   1.804   3.869
 8565TIP3    H225573   7.337   1.879   3.783
 8566TIP3   OH225574   8.505   3.514   3.357
 8566TIP3    H125575   8.547   3.493   3.273
 8566TIP3    H225576   8.567   3.574   3.400
 8567TIP3   OH225577   7.561   1.892   4.667
 8567TIP3    H125578   7.515   1.883   4.751
 8567TIP3    H225579   7.494   1.924   4.606
 8568TIP3   OH225580   7.602   3.313   4.744
 8568TIP3    H125581   7.512   3.288   4.725
 8568TIP3    H225582   7.613   3.298   4.838
 8569TIP3   OH225583   7.782   3.349   4.288
 8569TIP3    H125584   7.729   3.421   4.253
 8569TIP3    H225585   7.867   3.360   4.246
 8570TIP3   OH225586   8.229   3.594   4.429
 8570TIP3    H125587   8.267   3.594   4.517
 8570TIP3    H225588   8.292   3.643   4.376
 8571TIP3   OH225589   8.408   3.745   4.286
 8571TIP3    H125590   8.476   3.690   4.246
 8571TIP3    H225591   8.456   3.801   4.347
 8572TIP3   OH225592   9.190   2.107   4.391
 8572TIP3    H125593   9.105   2.109   4.348
 8572TIP3    H225594   9.229   2.023   4.364
 8573TIP3   OH225595   7.456   3.606   4.314
 8573TIP3    H125596   7.369   3.638   4.287
 8573TIP3    H225597   7.468   3.640   4.403
 8574TIP3   OH225598   7.692   3.585   4.170
 8574TIP3    H125599   7.609   3.597   4.217
 8574TIP3    H225600   7.675   3.617   4.082
 8575TIP3   OH225601   8.120   3.616   3.968
 8575TIP3    H125602   8.050   3.633   3.904
 8575TIP3    H225603   8.133   3.701   4.011
 8576TIP3   OH225604   8.387   3.555   4.019
 8576TIP3    H125605   8.293   3.567   4.002
 8576TIP3    H225606   8.429   3.631   3.978
 8577TIP3   OH225607   8.602   3.748   3.935
 8577TIP3    H125608   8.583   3.828   3.887
 8577TIP3    H225609   8.623   3.684   3.866
 8578TIP3   OH225610   7.372   3.398   4.058
 8578TIP3    H125611   7.393   3.376   4.149
 8578TIP3    H225612   7.441   3.356   4.007
 8579TIP3   OH225613   7.565   3.269   3.915
 8579TIP3    H125614   7.578   3.187   3.962
 8579TIP3    H225615   7.652   3.308   3.910
 8580TIP3   OH225616   7.830   3.365   3.918
 8580TIP3    H125617   7.859   3.275   3.904
 8580TIP3    H225618   7.870   3.389   4.002
 8581TIP3   OH225619   8.400   2.019   4.000
 8581TIP3    H125620   8.360   1.952   4.055
 8581TIP3    H225621   8.474   1.976   3.959
 8582TIP3   OH225622   8.926   1.910   3.931
 8582TIP3    H125623   8.961   1.955   3.854
 8582TIP3    H225624   8.831   1.916   3.922
 8583TIP3   OH225625   9.018   2.002   3.692
 8583TIP3    H125626   9.099   1.956   3.669
 8583TIP3    H225627   9.039   2.094   3.681
 8584TIP3   OH225628   7.654   1.730   4.022
 8584TIP3    H125629   7.563   1.701   4.021
 8584TIP3    H225630   7.705   1.648   4.018
 8585TIP3   OH225631   7.426   1.597   3.671
 8585TIP3    H125632   7.473   1.637   3.597
 8585TIP3    H225633   7.414   1.669   3.733
 8586TIP3   OH225634   8.095   1.769   3.904
 8586TIP3    H125635   8.152   1.813   3.841
 8586TIP3    H225636   8.125   1.799   3.990
 8587TIP3   OH225637   8.640   1.907   3.889
 8587TIP3    H125638   8.650   1.872   3.800
 8587TIP3    H225639   8.629   1.830   3.944
 8588TIP3   OH225640   8.662   1.835   3.453
 8588TIP3    H125641   8.578   1.878   3.465
 8588TIP3    H225642   8.653   1.750   3.496
 8589TIP3   OH225643   7.155   3.172   3.450
 8589TIP3    H125644   7.072   3.137   3.416
 8589TIP3    H225645   7.149   3.267   3.434
 8590TIP3   OH225646   7.562   1.759   3.432
 8590TIP3    H125647   7.599   1.678   3.397
 8590TIP3    H225648   7.637   1.808   3.465
 8591TIP3   OH225649   8.069   1.939   3.533
 8591TIP3    H125650   8.124   1.883   3.586
 8591TIP3    H225651   8.094   2.028   3.558
 8592TIP3   OH225652   7.931   3.360   3.028
 8592TIP3    H125653   8.018   3.384   2.997
 8592TIP3    H225654   7.905   3.286   2.973
 8593TIP3   OH225655   8.644   3.475   3.123
 8593TIP3    H125656   8.640   3.380   3.113
 8593TIP3    H225657   8.603   3.510   3.044
 8594TIP3   OH225658   7.863   2.011   4.914
 8594TIP3    H125659   7.826   1.942   4.969
 8594TIP3    H225660   7.956   2.013   4.938
 8595TIP3   OH225661   8.111   2.006   5.032
 8595TIP3    H125662   8.195   1.985   4.992
 8595TIP3    H225663   8.097   1.939   5.099
 8596TIP3   OH225664   7.234   3.196   3.089
 8596TIP3    H125665   7.231   3.225   3.180
 8596TIP3    H225666   7.320   3.157   3.079
 8597TIP3   OH225667   8.934   2.068   4.822
 8597TIP3    H125668   8.953   2.038   4.911
 8597TIP3    H225669   9.019   2.067   4.778
 8598TIP3   OH225670   8.870   3.624   4.314
 8598TIP3    H125671   8.795   3.588   4.266
 8598TIP3    H225672   8.851   3.718   4.318
 8599TIP3   OH225673   9.092   2.504   3.352
 8599TIP3    H125674   9.030   2.577   3.352
 8599TIP3    H225675   9.049   2.436   3.300
 8600TIP3   OH225676   9.154   2.792   3.507
 8600TIP3    H125677   9.183   2.709   3.544
 8600TIP3    H225678   9.189   2.793   3.418
 8601TIP3   OH225679   9.005   3.031   3.091
 8601TIP3    H125680   8.990   3.033   2.997
 8601TIP3    H225681   9.040   3.118   3.111
 8602TIP3   OH225682   9.195   3.137   3.996
 8602TIP3    H125683   9.124   3.108   3.939
 8602TIP3    H225684   9.229   3.056   4.034
 8603TIP3   OH225685   9.058   3.347   3.647
 8603TIP3    H125686   9.153   3.348   3.635
 8603TIP3    H225687   9.040   3.426   3.698
 8604TIP3   OH225688   9.189   3.566   3.190
 8604TIP3    H125689   9.245   3.561   3.268
 8604TIP3    H225690   9.146   3.481   3.186
 8605TIP3   OH225691   9.339   3.362   4.029
 8605TIP3    H125692   9.378   3.331   4.111
 8605TIP3    H225693   9.276   3.293   4.006
 8606TIP3   OH225694   9.112   2.244   3.620
 8606TIP3    H125695   9.179   2.289   3.671
 8606TIP3    H225696   9.123   2.279   3.531
 8607TIP3   OH225697   9.296   2.935   4.152
 8607TIP3    H125698   9.319   2.906   4.241
 8607TIP3    H225699   9.230   2.871   4.123
 8608TIP3   OH225700   9.077   2.697   2.840
 8608TIP3    H125701   9.150   2.696   2.902
 8608TIP3    H225702   9.000   2.676   2.892
 8609TIP3   OH225703   9.237   3.537   3.796
 8609TIP3    H125704   9.277   3.461   3.838
 8609TIP3    H225705   9.268   3.612   3.846
 8610TIP3   OH225706   9.074   3.302   3.141
 8610TIP3    H125707   8.994   3.324   3.188
 8610TIP3    H225708   9.062   3.339   3.054
 8611TIP3   OH225709   9.228   3.830   4.214
 8611TIP3    H125710   9.318   3.817   4.245
 8611TIP3    H225711   9.193   3.742   4.204
 8612TIP3   OH225712   9.361   3.273   4.395
 8612TIP3    H125713   9.391   3.192   4.436
 8612TIP3    H225714   9.278   3.249   4.353
 8613TIP3   OH225715   8.936   3.041   2.782
 8613TIP3    H125716   9.031   3.038   2.789
 8613TIP3    H225717   8.912   2.962   2.733
 8614TIP3   OH225718   8.842   3.651   3.206
 8614TIP3    H125719   8.781   3.590   3.165
 8614TIP3    H225720   8.893   3.597   3.267
 8615TIP3   OH225721   8.978   3.504   3.395
 8615TIP3    H125722   8.971   3.426   3.450
 8615TIP3    H225723   9.036   3.563   3.443
 8616TIP3   OH225724   9.200   2.905   3.755
 8616TIP3    H125725   9.172   2.872   3.669
 8616TIP3    H225726   9.282   2.950   3.738
 8617TIP3   OH225727   9.376   2.585   4.415
 8617TIP3    H125728   9.465   2.618   4.426
 8617TIP3    H225729   9.372   2.509   4.474
 8618TIP3   OH225730   9.149   2.581   3.805
 8618TIP3    H125731   9.209   2.508   3.814
 8618TIP3    H225732   9.193   2.654   3.849
 8619TIP3   OH225733   9.101   2.117   3.321
 8619TIP3    H125734   9.007   2.102   3.335
 8619TIP3    H225735   9.108   2.138   3.228
 8620TIP3   OH225736   9.389   3.590   4.255
 8620TIP3    H125737   9.318   3.546   4.208
 8620TIP3    H225738   9.401   3.538   4.335
 8621TIP3   OH225739   9.240   3.857   3.803
 8621TIP3    H125740   9.159   3.899   3.775
 8621TIP3    H225741   9.260   3.897   3.887
 8622TIP3   OH225742   9.495   3.849   3.672
 8622TIP3    H125743   9.405   3.849   3.702
 8622TIP3    H225744   9.490   3.875   3.580
 8623TIP3   OH225745   9.168   3.651   3.546
 8623TIP3    H125746   9.194   3.633   3.637
 8623TIP3    H225747   9.241   3.619   3.493
 8624TIP3   OH225748   9.373   3.541   3.392
 8624TIP3    H125749   9.396   3.448   3.391
 8624TIP3    H225750   9.458   3.586   3.399
 8625TIP3   OH225751   8.949   3.428   2.939
 8625TIP3    H125752   8.867   3.392   2.904
 8625TIP3    H225753   8.945   3.522   2.917
 8626TIP3   OH225754   9.046   3.463   2.585
 8626TIP3    H125755   9.024   3.478   2.677
 8626TIP3    H225756   9.108   3.390   2.587
 8627TIP3   OH225757   0.795   3.526   5.281
 8627TIP3    H125758   0.771   3.617   5.264
 8627TIP3    H225759   0.719   3.476   5.251
 8628TIP3   OH225760   0.793   3.524   5.664
 8628TIP3    H125761   0.826   3.499   5.750
 8628TIP3    H225762   0.753   3.445   5.629
 8629TIP3   OH225763   0.094   3.422   6.023
 8629TIP3    H125764   0.118   3.352   6.084
 8629TIP3    H225765   0.169   3.481   6.024
 8630TIP3   OH225766   1.036   3.829   5.346
 8630TIP3    H125767   1.027   3.758   5.409
 8630TIP3    H225768   1.069   3.903   5.397
 8631TIP3   OH225769   0.075   3.828   5.753
 8631TIP3    H125770   0.058   3.734   5.757
 8631TIP3    H225771   0.171   3.835   5.751
 8632TIP3   OH225772   9.527   3.031   5.539
 8632TIP3    H125773   9.531   3.124   5.562
 8632TIP3    H225774   9.519   2.986   5.623
 8633TIP3   OH225775   9.639   3.316   5.703
 8633TIP3    H125776   9.687   3.246   5.746
 8633TIP3    H225777   9.701   3.353   5.640
 8634TIP3   OH225778   0.688   4.287   5.361
 8634TIP3    H125779   0.733   4.221   5.309
 8634TIP3    H225780   0.687   4.252   5.450
 8635TIP3   OH225781   0.599   3.751   5.709
 8635TIP3    H125782   0.631   3.673   5.664
 8635TIP3    H225783   0.678   3.799   5.735
 8636TIP3   OH225784   1.608   3.074   5.707
 8636TIP3    H125785   1.635   3.153   5.752
 8636TIP3    H225786   1.630   3.090   5.615
 8637TIP3   OH225787   1.006   3.252   5.743
 8637TIP3    H125788   1.049   3.170   5.766
 8637TIP3    H225789   0.976   3.239   5.653
 8638TIP3   OH225790   0.340   2.913   5.707
 8638TIP3    H125791   0.326   2.987   5.648
 8638TIP3    H225792   0.295   2.840   5.666
 8639TIP3   OH225793   1.040   3.003   5.330
 8639TIP3    H125794   1.107   2.986   5.397
 8639TIP3    H225795   1.089   3.038   5.256
 8640TIP3   OH225796  -0.019   3.110   5.810
 8640TIP3    H125797   0.055   3.098   5.869
 8640TIP3    H225798   0.001   3.055   5.734
 8641TIP3   OH225799   0.422   3.311   5.604
 8641TIP3    H125800   0.513   3.288   5.621
 8641TIP3    H225801   0.381   3.229   5.575
 8642TIP3   OH225802   1.679   3.280   5.880
 8642TIP3    H125803   1.597   3.325   5.859
 8642TIP3    H225804   1.699   3.308   5.969
 8643TIP3   OH225805   0.338   2.895   6.142
 8643TIP3    H125806   0.282   2.932   6.073
 8643TIP3    H225807   0.291   2.914   6.223
 8644TIP3   OH225808   0.686   3.748   5.151
 8644TIP3    H125809   0.647   3.726   5.067
 8644TIP3    H225810   0.646   3.831   5.176
 8645TIP3   OH225811   0.449   3.672   5.938
 8645TIP3    H125812   0.386   3.733   5.977
 8645TIP3    H225813   0.491   3.722   5.868
 8646TIP3   OH225814   1.249   3.007   5.503
 8646TIP3    H125815   1.242   2.955   5.584
 8646TIP3    H225816   1.303   3.082   5.527
 8647TIP3   OH225817   0.213   3.013   5.928
 8647TIP3    H125818   0.271   3.085   5.953
 8647TIP3    H225819   0.259   2.969   5.856
 8648TIP3   OH225820   0.274   3.864   6.034
 8648TIP3    H125821   0.255   3.950   5.996
 8648TIP3    H225822   0.200   3.845   6.091
 8649TIP3   OH225823   9.522   3.578   5.219
 8649TIP3    H125824   9.437   3.607   5.185
 8649TIP3    H225825   9.536   3.630   5.298
 8650TIP3   OH225826   1.106   4.071   5.512
 8650TIP3    H125827   1.019   4.061   5.550
 8650TIP3    H225828   1.102   4.156   5.467
 8651TIP3   OH225829   1.400   2.973   5.873
 8651TIP3    H125830   1.313   3.002   5.845
 8651TIP3    H225831   1.459   3.004   5.804
 8652TIP3   OH225832   0.695   2.615   5.855
 8652TIP3    H125833   0.687   2.522   5.873
 8652TIP3    H225834   0.623   2.655   5.902
 8653TIP3   OH225835   0.814   4.119   5.184
 8653TIP3    H125836   0.859   4.036   5.167
 8653TIP3    H225837   0.871   4.185   5.145
 8654TIP3   OH225838   0.953   3.901   5.093
 8654TIP3    H125839   0.919   3.823   5.050
 8654TIP3    H225840   0.989   3.869   5.176
 8655TIP3   OH225841   1.334   3.985   5.853
 8655TIP3    H125842   1.326   3.908   5.797
 8655TIP3    H225843   1.321   4.059   5.794
 8656TIP3   OH225844   0.625   3.377   5.110
 8656TIP3    H125845   0.548   3.429   5.090
 8656TIP3    H225846   0.675   3.376   5.028
 8657TIP3   OH225847   0.589   3.161   4.828
 8657TIP3    H125848   0.651   3.213   4.880
 8657TIP3    H225849   0.643   3.099   4.781
 8658TIP3   OH225850   1.529   3.620   5.696
 8658TIP3    H125851   1.448   3.671   5.705
 8658TIP3    H225852   1.562   3.642   5.609
 8659TIP3   OH225853   0.974   3.459   5.087
 8659TIP3    H125854   0.920   3.484   5.161
 8659TIP3    H225855   1.058   3.434   5.126
 8660TIP3   OH225856   1.208   3.502   5.995
 8660TIP3    H125857   1.209   3.583   6.045
 8660TIP3    H225858   1.124   3.504   5.950
 8661TIP3   OH225859   0.210   3.456   5.499
 8661TIP3    H125860   0.168   3.401   5.434
 8661TIP3    H225861   0.285   3.406   5.529
 8662TIP3   OH225862   0.343   3.873   5.645
 8662TIP3    H125863   0.318   3.826   5.566
 8662TIP3    H225864   0.430   3.839   5.667
 8663TIP3   OH225865   0.349   3.429   5.853
 8663TIP3    H125866   0.380   3.410   5.765
 8663TIP3    H225867   0.388   3.514   5.875
 8664TIP3   OH225868   0.865   4.068   5.633
 8664TIP3    H125869   0.856   4.145   5.687
 8664TIP3    H225870   0.854   3.994   5.693
 8665TIP3   OH225871   0.478   3.987   6.178
 8665TIP3    H125872   0.423   4.050   6.225
 8665TIP3    H225873   0.416   3.933   6.129
 8666TIP3   OH225874   0.817   3.321   4.909
 8666TIP3    H125875   0.873   3.377   4.962
 8666TIP3    H225876   0.841   3.342   4.819
 8667TIP3   OH225877   0.243   3.548   6.274
 8667TIP3    H125878   0.248   3.634   6.314
 8667TIP3    H225879   0.152   3.521   6.286
 8668TIP3   OH225880   0.558   3.999   5.185
 8668TIP3    H125881   0.637   4.050   5.202
 8668TIP3    H225882   0.496   4.062   5.148
 8669TIP3   OH225883   0.277   4.158   6.266
 8669TIP3    H125884   0.243   4.151   6.177
 8669TIP3    H225885   0.209   4.120   6.321
 8670TIP3   OH225886   1.332   2.562   4.958
 8670TIP3    H125887   1.252   2.577   5.008
 8670TIP3    H225888   1.345   2.643   4.908
 8671TIP3   OH225889   0.076   3.298   5.306
 8671TIP3    H125890   0.017   3.341   5.244
 8671TIP3    H225891   0.033   3.215   5.326
 8672TIP3   OH225892   1.132   3.928   4.507
 8672TIP3    H125893   1.137   4.022   4.492
 8672TIP3    H225894   1.221   3.897   4.494
 8673TIP3   OH225895   9.657   3.696   6.208
 8673TIP3    H125896   9.607   3.658   6.135
 8673TIP3    H225897   9.693   3.621   6.254
 8674TIP3   OH225898   1.566   4.327   5.900
 8674TIP3    H125899   1.571   4.232   5.911
 8674TIP3    H225900   1.487   4.353   5.946
 8675TIP3   OH225901   0.675   4.118   6.036
 8675TIP3    H125902   0.678   4.208   6.067
 8675TIP3    H225903   0.608   4.076   6.089
 8676TIP3   OH225904   0.436   4.245   4.987
 8676TIP3    H125905   0.395   4.225   4.903
 8676TIP3    H225906   0.407   4.333   5.008
 8677TIP3   OH225907   9.717   4.080   5.342
 8677TIP3    H125908   9.735   4.055   5.432
 8677TIP3    H225909   9.632   4.040   5.323
 8678TIP3   OH225910   0.642   4.143   4.629
 8678TIP3    H125911   0.699   4.076   4.591
 8678TIP3    H225912   0.675   4.154   4.718
 8679TIP3   OH225913   0.689   4.193   4.901
 8679TIP3    H125914   0.603   4.201   4.942
 8679TIP3    H225915   0.744   4.152   4.968
 8680TIP3   OH225916   1.460   3.457   6.176
 8680TIP3    H125917   1.382   3.473   6.123
 8680TIP3    H225918   1.478   3.363   6.166
 8681TIP3   OH225919   0.066   3.872   6.202
 8681TIP3    H125920   0.111   3.865   6.286
 8681TIP3    H225921  -0.005   3.807   6.207
 8682TIP3   OH225922   0.456   2.692   5.985
 8682TIP3    H125923   0.370   2.659   5.960
 8682TIP3    H225924   0.438   2.774   6.030
 8683TIP3   OH225925   0.995   2.806   6.181
 8683TIP3    H125926   1.060   2.779   6.246
 8683TIP3    H225927   0.910   2.785   6.221
 8684TIP3   OH225928   1.231   3.236   6.099
 8684TIP3    H125929   1.184   3.232   6.182
 8684TIP3    H225930   1.208   3.322   6.062
 8685TIP3   OH225931   0.890   3.366   4.651
 8685TIP3    H125932   0.858   3.338   4.565
 8685TIP3    H225933   0.971   3.414   4.631
 8686TIP3   OH225934   0.596   2.748   4.956
 8686TIP3    H125935   0.572   2.746   5.048
 8686TIP3    H225936   0.581   2.658   4.926
 8687TIP3   OH225937   0.390   3.208   6.004
 8687TIP3    H125938   0.340   3.227   6.084
 8687TIP3    H225939   0.377   3.286   5.950
 8688TIP3   OH225940   0.272   3.090   5.515
 8688TIP3    H125941   0.181   3.069   5.534
 8688TIP3    H225942   0.289   3.051   5.430
 8689TIP3   OH225943   0.764   3.178   5.242
 8689TIP3    H125944   0.711   3.248   5.204
 8689TIP3    H225945   0.820   3.148   5.170
 8690TIP3   OH225946   0.940   3.458   6.335
 8690TIP3    H125947   0.915   3.387   6.393
 8690TIP3    H225948   1.034   3.472   6.352
 8691TIP3   OH225949   0.922   3.205   5.482
 8691TIP3    H125950   0.862   3.239   5.415
 8691TIP3    H225951   0.956   3.125   5.444
 8692TIP3   OH225952   0.212   3.236   6.212
 8692TIP3    H125953   0.230   3.303   6.278
 8692TIP3    H225954   0.200   3.155   6.261
 8693TIP3   OH225955   0.259   2.709   4.926
 8693TIP3    H125956   0.255   2.708   5.021
 8693TIP3    H225957   0.185   2.762   4.898
 8694TIP3   OH225958   9.602   2.776   5.760
 8694TIP3    H125959   9.655   2.802   5.836
 8694TIP3    H225960   9.648   2.701   5.724
 8695TIP3   OH225961   9.590   2.768   5.326
 8695TIP3    H125962   9.625   2.784   5.238
 8695TIP3    H225963   9.539   2.847   5.347
 8696TIP3   OH225964   0.931   3.451   5.907
 8696TIP3    H125965   0.964   3.383   5.848
 8696TIP3    H225966   0.903   3.403   5.985
 8697TIP3   OH225967   0.598   2.917   5.581
 8697TIP3    H125968   0.519   2.914   5.634
 8697TIP3    H225969   0.670   2.913   5.644
 8698TIP3   OH225970   0.031   2.966   5.578
 8698TIP3    H125971  -0.059   2.958   5.547
 8698TIP3    H225972   0.069   2.879   5.567
 8699TIP3   OH225973   0.306   2.966   5.275
 8699TIP3    H125974   0.399   2.982   5.259
 8699TIP3    H225975   0.263   2.991   5.193
 8700TIP3   OH225976   1.092   2.991   5.783
 8700TIP3    H125977   1.060   3.004   5.872
 8700TIP3    H225978   1.030   2.930   5.743
 8701TIP3   OH225979   0.145   2.999   5.050
 8701TIP3    H125980   0.074   2.955   5.003
 8701TIP3    H225981   0.199   3.038   4.981
 8702TIP3   OH225982   1.263   4.682   5.998
 8702TIP3    H125983   1.262   4.701   5.904
 8702TIP3    H225984   1.342   4.725   6.031
 8703TIP3   OH225985   0.229   3.786   6.423
 8703TIP3    H125986   0.308   3.819   6.466
 8703TIP3    H225987   0.160   3.794   6.489
 8704TIP3   OH225988   0.685   3.242   5.677
 8704TIP3    H125989   0.757   3.204   5.627
 8704TIP3    H225990   0.692   3.202   5.763
 8705TIP3   OH225991   0.204   2.732   5.554
 8705TIP3    H125992   0.173   2.655   5.602
 8705TIP3    H225993   0.266   2.697   5.490
 8706TIP3   OH225994   0.662   3.141   5.965
 8706TIP3    H125995   0.573   3.175   5.980
 8706TIP3    H225996   0.718   3.198   6.016
 8707TIP3   OH225997   0.396   3.531   5.062
 8707TIP3    H125998   0.326   3.467   5.049
 8707TIP3    H225999   0.381   3.565   5.151
 8708TIP3   OH226000   1.299   3.768   5.689
 8708TIP3    H126001   1.324   3.816   5.610
 8708TIP3    H226002   1.216   3.727   5.666
 8709TIP3   OH226003   0.854   2.846   4.919
 8709TIP3    H126004   0.759   2.834   4.929
 8709TIP3    H226005   0.870   2.937   4.946
 8710TIP3   OH226006   0.797   3.849   6.059
 8710TIP3    H126007   0.821   3.825   6.148
 8710TIP3    H226008   0.759   3.937   6.068
 8711TIP3   OH226009   0.928   3.091   5.024
 8711TIP3    H126010   1.022   3.095   5.043
 8711TIP3    H226011   0.911   3.170   4.973
 8712TIP3   OH226012   0.093   3.553   5.736
 8712TIP3    H126013   0.132   3.523   5.655
 8712TIP3    H226014   0.124   3.491   5.802
 8713TIP3   OH226015   0.540   3.681   4.882
 8713TIP3    H126016   0.496   3.766   4.886
 8713TIP3    H226017   0.490   3.625   4.941
 8714TIP3   OH226018   9.792   3.476   6.352
 8714TIP3    H126019   9.803   3.465   6.446
 8714TIP3    H226020   9.704   3.442   6.334
 8715TIP3   OH226021   0.696   3.585   6.370
 8715TIP3    H126022   0.635   3.529   6.322
 8715TIP3    H226023   0.783   3.554   6.344
 8716TIP3   OH226024   0.956   4.111   5.955
 8716TIP3    H126025   0.861   4.106   5.966
 8716TIP3    H226026   0.986   4.161   6.031
 8717TIP3   OH226027   1.367   3.183   4.859
 8717TIP3    H126028   1.307   3.134   4.802
 8717TIP3    H226029   1.365   3.272   4.824
 8718TIP3   OH226030   1.583   4.036   5.944
 8718TIP3    H126031   1.488   4.033   5.938
 8718TIP3    H226032   1.613   4.008   5.857
 8719TIP3   OH226033   1.064   3.999   4.769
 8719TIP3    H126034   1.045   3.929   4.832
 8719TIP3    H226035   1.081   3.954   4.687
 8720TIP3   OH226036   1.062   3.627   5.609
 8720TIP3    H126037   0.970   3.604   5.624
 8720TIP3    H226038   1.099   3.551   5.565
 8721TIP3   OH226039   0.193   3.857   5.357
 8721TIP3    H126040   0.199   3.937   5.304
 8721TIP3    H226041   0.100   3.846   5.375
 8722TIP3   OH226042   9.553   3.166   5.072
 8722TIP3    H126043   9.622   3.233   5.075
 8722TIP3    H226044   9.484   3.200   5.129
 8723TIP3   OH226045   0.329   3.622   5.307
 8723TIP3    H126046   0.297   3.711   5.323
 8723TIP3    H226047   0.296   3.570   5.380
 8724TIP3   OH226048   0.463   4.204   5.830
 8724TIP3    H126049   0.505   4.273   5.779
 8724TIP3    H226050   0.534   4.164   5.880
 8725TIP3   OH226051   0.141   4.101   5.202
 8725TIP3    H126052   0.057   4.099   5.248
 8725TIP3    H226053   0.167   4.193   5.204
 8726TIP3   OH226054   0.851   3.834   5.791
 8726TIP3    H126055   0.840   3.833   5.886
 8726TIP3    H226056   0.930   3.782   5.775
 8727TIP3   OH226057   0.822   3.724   4.676
 8727TIP3    H126058   0.877   3.702   4.751
 8727TIP3    H226059   0.733   3.701   4.705
 8728TIP3   OH226060   1.094   4.371   5.841
 8728TIP3    H126061   1.019   4.312   5.835
 8728TIP3    H226062   1.082   4.433   5.770
 8729TIP3   OH226063   1.161   4.205   4.492
 8729TIP3    H126064   1.204   4.273   4.440
 8729TIP3    H226065   1.082   4.246   4.526
 8730TIP3   OH226066   0.189   2.977   6.364
 8730TIP3    H126067   0.097   2.988   6.388
 8730TIP3    H226068   0.224   2.916   6.429
 8731TIP3   OH226069   0.985   3.659   4.891
 8731TIP3    H126070   0.972   3.595   4.961
 8731TIP3    H226071   1.079   3.660   4.876
 8732TIP3   OH226072   9.731   4.085   5.984
 8732TIP3    H126073   9.759   3.993   5.989
 8732TIP3    H226074   9.736   4.115   6.075
 8733TIP3   OH226075   0.188   3.707   4.673
 8733TIP3    H126076   0.205   3.618   4.642
 8733TIP3    H226077   0.172   3.697   4.767
 8734TIP3   OH226078   0.139   3.713   4.946
 8734TIP3    H126079   0.209   3.686   5.005
 8734TIP3    H226080   0.140   3.809   4.951
 8735TIP3   OH226081   9.692   3.396   5.126
 8735TIP3    H126082   9.628   3.445   5.177
 8735TIP3    H226083   9.717   3.455   5.055
 8736TIP3   OH226084   1.019   3.042   6.042
 8736TIP3    H126085   1.098   3.080   6.079
 8736TIP3    H226086   1.004   2.963   6.093
 8737TIP3   OH226087   0.894   2.801   5.203
 8737TIP3    H126088   0.888   2.820   5.110
 8737TIP3    H226089   0.937   2.877   5.241
 8738TIP3   OH226090   0.398   3.911   4.893
 8738TIP3    H126091   0.313   3.936   4.929
 8738TIP3    H226092   0.419   3.981   4.831
 8739TIP3   OH226093   0.587   2.974   5.307
 8739TIP3    H126094   0.651   3.042   5.287
 8739TIP3    H226095   0.592   2.963   5.402
 8740TIP3   OH226096   0.860   3.293   6.116
 8740TIP3    H126097   0.878   3.346   6.194
 8740TIP3    H226098   0.912   3.214   6.129
 8741TIP3   OH226099   0.735   2.703   5.408
 8741TIP3    H126100   0.734   2.772   5.474
 8741TIP3    H226101   0.792   2.737   5.339
 8742TIP3   OH226102   0.140   3.985   4.955
 8742TIP3    H126103   0.111   4.054   4.894
 8742TIP3    H226104   0.137   4.027   5.041
 8743TIP3   OH226105   0.249   2.701   5.199
 8743TIP3    H126106   0.239   2.789   5.236
 8743TIP3    H226107   0.342   2.681   5.210
 8744TIP3   OH226108   1.497   3.191   6.095
 8744TIP3    H126109   1.402   3.191   6.104
 8744TIP3    H226110   1.513   3.155   6.008
 8745TIP3   OH226111   1.149   3.386   5.485
 8745TIP3    H126112   1.074   3.328   5.497
 8745TIP3    H226113   1.221   3.342   5.530
 8746TIP3   OH226114   9.676   3.625   4.943
 8746TIP3    H126115   9.746   3.688   4.960
 8746TIP3    H226116   9.712   3.566   4.876
 8747TIP3   OH226117   9.604   2.892   5.086
 8747TIP3    H126118   9.605   2.988   5.089
 8747TIP3    H226119   9.529   2.871   5.030
 8748TIP3   OH226120   1.118   4.345   5.431
 8748TIP3    H126121   1.074   4.389   5.359
 8748TIP3    H226122   1.211   4.362   5.416
 8749TIP3   OH226123   0.194   2.606   5.962
 8749TIP3    H126124   0.163   2.577   5.876
 8749TIP3    H226125   0.181   2.530   6.019
 8750TIP3   OH226126   9.554   3.799   5.374
 8750TIP3    H126127   9.468   3.841   5.369
 8750TIP3    H226128   9.599   3.826   5.294
 8751TIP3   OH226129   0.370   4.344   6.452
 8751TIP3    H126130   0.462   4.321   6.467
 8751TIP3    H226131   0.341   4.284   6.383
 8752TIP3   OH226132   0.353   3.910   4.586
 8752TIP3    H126133   0.297   3.841   4.623
 8752TIP3    H226134   0.428   3.862   4.552
 8753TIP3   OH226135   1.009   4.243   6.193
 8753TIP3    H126136   1.001   4.173   6.258
 8753TIP3    H226137   1.087   4.291   6.219
 8754TIP3   OH226138   0.789   3.952   4.495
 8754TIP3    H126139   0.835   3.892   4.554
 8754TIP3    H226140   0.843   3.954   4.416
 8755TIP3   OH226141   0.036   3.757   6.619
 8755TIP3    H126142   0.074   3.669   6.616
 8755TIP3    H226143  -0.057   3.744   6.603
 8756TIP3   OH226144   0.003   3.427   4.806
 8756TIP3    H126145   0.056   3.395   4.879
 8756TIP3    H226146   0.066   3.434   4.733
 8757TIP3   OH226147   0.628   3.860   6.384
 8757TIP3    H126148   0.587   3.876   6.299
 8757TIP3    H226149   0.659   3.770   6.379
 8758TIP3   OH226150   0.503   3.623   4.614
 8758TIP3    H126151   0.508   3.640   4.708
 8758TIP3    H226152   0.503   3.528   4.607
 8759TIP3   OH226153   1.120   3.872   5.991
 8759TIP3    H126154   1.196   3.913   5.948
 8759TIP3    H226155   1.049   3.935   5.979
 8760TIP3   OH226156   0.130   3.493   6.611
 8760TIP3    H126157   0.208   3.453   6.573
 8760TIP3    H226158   0.159   3.529   6.695
 8761TIP3   OH226159   0.205   3.330   5.027
 8761TIP3    H126160   0.179   3.294   5.112
 8761TIP3    H226161   0.242   3.256   4.979
 8762TIP3   OH226162   0.478   3.400   6.256
 8762TIP3    H126163   0.399   3.455   6.258
 8762TIP3    H226164   0.526   3.429   6.179
 8763TIP3   OH226165   0.307   3.123   4.867
 8763TIP3    H126166   0.279   3.130   4.776
 8763TIP3    H226167   0.403   3.130   4.863
 8764TIP3   OH226168   0.992   3.797   6.392
 8764TIP3    H126169   1.071   3.776   6.341
 8764TIP3    H226170   0.988   3.731   6.460
 8765TIP3   OH226171   1.126   3.458   4.529
 8765TIP3    H126172   1.109   3.409   4.449
 8765TIP3    H226173   1.097   3.547   4.509
 8766TIP3   OH226174   0.594   3.185   6.384
 8766TIP3    H126175   0.597   3.105   6.331
 8766TIP3    H226176   0.553   3.250   6.327
 8767TIP3   OH226177   0.595   2.976   6.192
 8767TIP3    H126178   0.627   3.012   6.109
 8767TIP3    H226179   0.505   2.950   6.174
 8768TIP3   OH226180   0.629   3.508   6.061
 8768TIP3    H126181   0.712   3.514   6.013
 8768TIP3    H226182   0.572   3.572   6.019
 8769TIP3   OH226183   1.212   3.474   6.446
 8769TIP3    H126184   1.256   3.389   6.451
 8769TIP3    H226185   1.278   3.533   6.409
 8770TIP3   OH226186   1.251   3.728   6.177
 8770TIP3    H126187   1.192   3.779   6.122
 8770TIP3    H226188   1.338   3.745   6.141
 8771TIP3   OH226189   0.470   3.296   6.612
 8771TIP3    H126190   0.406   3.227   6.626
 8771TIP3    H226191   0.510   3.276   6.527
 8772TIP3   OH226192   0.734   2.734   6.230
 8772TIP3    H126193   0.686   2.817   6.232
 8772TIP3    H226194   0.668   2.668   6.251
 8773TIP3   OH226195   0.854   3.242   6.474
 8773TIP3    H126196   0.852   3.223   6.567
 8773TIP3    H226197   0.768   3.215   6.442
 8774TIP3   OH226198   1.098   3.190   6.330
 8774TIP3    H126199   1.022   3.188   6.388
 8774TIP3    H226200   1.170   3.157   6.384
 8775TIP3   OH226201   1.330   3.129   6.481
 8775TIP3    H126202   1.339   3.035   6.497
 8775TIP3    H226203   1.323   3.167   6.569
 8776TIP3   OH226204   0.314   3.074   6.669
 8776TIP3    H126205   0.326   2.987   6.631
 8776TIP3    H226206   0.354   3.067   6.756
 8777TIP3   OH226207   0.891   2.959   6.645
 8777TIP3    H126208   0.849   2.873   6.636
 8777TIP3    H226209   0.818   3.019   6.661
 8778TIP3   OH226210   0.114   4.191   4.771
 8778TIP3    H126211   0.208   4.182   4.757
 8778TIP3    H226212   0.082   4.237   4.693
 8779TIP3   OH226213   9.406   3.587   4.928
 8779TIP3    H126214   9.497   3.601   4.956
 8779TIP3    H226215   9.398   3.492   4.920
 8780TIP3   OH226216   1.367   4.444   5.389
 8780TIP3    H126217   1.399   4.469   5.475
 8780TIP3    H226218   1.436   4.472   5.329
 8781TIP3   OH226219   1.400   4.452   5.673
 8781TIP3    H126220   1.357   4.367   5.668
 8781TIP3    H226221   1.480   4.436   5.723
 8782TIP3   OH226222   1.445   4.132   6.246
 8782TIP3    H126223   1.373   4.139   6.309
 8782TIP3    H226224   1.487   4.218   6.248
 8783TIP3   OH226225   1.264   3.645   4.866
 8783TIP3    H126226   1.330   3.708   4.835
 8783TIP3    H226227   1.304   3.605   4.943
 8784TIP3   OH226228   1.389   3.511   5.069
 8784TIP3    H126229   1.325   3.470   5.127
 8784TIP3    H226230   1.455   3.548   5.127
 8785TIP3   OH226231   1.441   3.901   5.495
 8785TIP3    H126232   1.496   3.838   5.449
 8785TIP3    H226233   1.437   3.977   5.437
 8786TIP3   OH226234   1.274   4.203   5.694
 8786TIP3    H126235   1.205   4.243   5.747
 8786TIP3    H226236   1.227   4.154   5.626
 8787TIP3   OH226237   1.324   3.421   4.715
 8787TIP3    H126238   1.256   3.421   4.648
 8787TIP3    H226239   1.302   3.495   4.772
 8788TIP3   OH226240   1.198   3.093   4.668
 8788TIP3    H126241   1.156   3.130   4.590
 8788TIP3    H226242   1.175   3.000   4.665
 8789TIP3   OH226243   1.203   3.366   5.217
 8789TIP3    H126244   1.213   3.271   5.210
 8789TIP3    H226245   1.190   3.382   5.311
 8790TIP3   OH226246   9.634   3.481   5.937
 8790TIP3    H126247   9.629   3.430   5.856
 8790TIP3    H226248   9.722   3.463   5.971
 8791TIP3   OH226249   1.495   3.792   6.070
 8791TIP3    H126250   1.565   3.728   6.063
 8791TIP3    H226251   1.521   3.863   6.011
 8792TIP3   OH226252   1.676   3.595   6.092
 8792TIP3    H126253   1.603   3.547   6.131
 8792TIP3    H226254   1.751   3.536   6.103
 8793TIP3   OH226255   1.141   2.830   4.665
 8793TIP3    H126256   1.221   2.799   4.707
 8793TIP3    H226257   1.076   2.763   4.684
 8794TIP3   OH226258   1.201   3.081   5.109
 8794TIP3    H126259   1.238   2.994   5.127
 8794TIP3    H226260   1.258   3.117   5.041
 8795TIP3   OH226261   1.365   3.261   5.605
 8795TIP3    H126262   1.448   3.284   5.563
 8795TIP3    H226263   1.374   3.294   5.694
 8796TIP3   OH226264   1.429   3.403   5.838
 8796TIP3    H126265   1.353   3.435   5.885
 8796TIP3    H226266   1.463   3.480   5.791
 8797TIP3   OH226267   0.041   3.104   6.644
 8797TIP3    H126268   0.132   3.128   6.625
 8797TIP3    H226269   0.049   3.036   6.711
 8798TIP3   OH226270   1.885   2.993   6.392
 8798TIP3    H126271   1.942   2.927   6.351
 8798TIP3    H226272   1.854   3.047   6.320
 8799TIP3   OH226273   1.308   2.832   5.150
 8799TIP3    H126274   1.357   2.818   5.230
 8799TIP3    H226275   1.249   2.757   5.144
 8800TIP3   OH226276   0.008   2.810   5.949
 8800TIP3    H126277   0.072   2.741   5.967
 8800TIP3    H226278   0.056   2.892   5.961
 8801TIP3   OH226279   9.645   3.104   6.061
 8801TIP3    H126280   9.670   3.091   5.969
 8801TIP3    H226281   9.612   3.193   6.065
 8802TIP3   OH226282   1.750   3.130   6.201
 8802TIP3    H126283   1.667   3.173   6.221
 8802TIP3    H226284   1.728   3.061   6.140
 8803TIP3   OH226285   1.392   2.769   4.776
 8803TIP3    H126286   1.429   2.696   4.727
 8803TIP3    H226287   1.459   2.837   4.771
 8804TIP3   OH226288   9.586   2.581   5.518
 8804TIP3    H126289   9.511   2.614   5.566
 8804TIP3    H226290   9.601   2.646   5.449
 8805TIP3   OH226291   0.954   4.303   5.045
 8805TIP3    H126292   1.003   4.286   4.965
 8805TIP3    H226293   1.009   4.365   5.093
 8806TIP3   OH226294   9.811   2.686   6.372
 8806TIP3    H126295   9.748   2.674   6.443
 8806TIP3    H226296   9.759   2.722   6.300
 8807TIP3   OH226297   0.085   4.069   6.439
 8807TIP3    H126298   0.002   4.113   6.421
 8807TIP3    H226299   0.088   4.059   6.534
 8808TIP3   OH226300   0.241   4.134   5.981
 8808TIP3    H126301   0.183   4.201   5.946
 8808TIP3    H226302   0.325   4.151   5.937
 8809TIP3   OH226303   0.682   4.384   6.119
 8809TIP3    H126304   0.721   4.381   6.206
 8809TIP3    H226305   0.746   4.431   6.066
 8810TIP3   OH226306   0.860   4.533   5.976
 8810TIP3    H126307   0.928   4.480   5.933
 8810TIP3    H226308   0.909   4.590   6.036
 8811TIP3   OH226309   1.651   2.893   6.076
 8811TIP3    H126310   1.561   2.891   6.043
 8811TIP3    H226311   1.682   2.803   6.065
 8812TIP3   OH226312   0.142   4.376   5.868
 8812TIP3    H126313   0.056   4.377   5.909
 8812TIP3    H226314   0.126   4.407   5.779
 8813TIP3   OH226315   0.572   4.405   5.659
 8813TIP3    H126316   0.507   4.424   5.591
 8813TIP3    H226317   0.587   4.488   5.703
 8814TIP3   OH226318   0.840   4.342   5.710
 8814TIP3    H126319   0.748   4.357   5.689
 8814TIP3    H226320   0.886   4.415   5.668
 8815TIP3   OH226321   1.046   4.533   5.623
 8815TIP3    H126322   1.034   4.616   5.578
 8815TIP3    H226323   1.075   4.473   5.554
 8816TIP3   OH226324   9.673   4.208   5.740
 8816TIP3    H126325   9.692   4.172   5.826
 8816TIP3    H226326   9.723   4.153   5.679
 8817TIP3   OH226327   0.024   4.040   5.593
 8817TIP3    H126328   0.034   3.962   5.648
 8817TIP3    H226329   0.112   4.078   5.590
 8818TIP3   OH226330   0.287   4.154   5.610
 8818TIP3    H126331   0.314   4.064   5.592
 8818TIP3    H226332   0.329   4.175   5.693
 8819TIP3   OH226333   0.853   2.806   5.686
 8819TIP3    H126334   0.813   2.741   5.744
 8819TIP3    H226335   0.929   2.762   5.649
 8820TIP3   OH226336   1.380   2.694   5.602
 8820TIP3    H126337   1.417   2.743   5.528
 8820TIP3    H226338   1.286   2.708   5.595
 8821TIP3   OH226339   1.478   2.792   5.364
 8821TIP3    H126340   1.547   2.738   5.326
 8821TIP3    H226341   1.508   2.882   5.351
 8822TIP3   OH226342   0.104   2.516   5.711
 8822TIP3    H126343   0.014   2.484   5.709
 8822TIP3    H226344   0.158   2.437   5.708
 8823TIP3   OH226345   9.705   2.385   5.366
 8823TIP3    H126346   9.720   2.440   5.289
 8823TIP3    H226347   9.666   2.443   5.431
 8824TIP3   OH226348   0.546   2.555   5.594
 8824TIP3    H126349   0.605   2.598   5.533
 8824TIP3    H226350   0.572   2.588   5.680
 8825TIP3   OH226351   1.096   2.693   5.575
 8825TIP3    H126352   1.098   2.657   5.486
 8825TIP3    H226353   1.082   2.617   5.631
 8826TIP3   OH226354   1.124   2.619   5.136
 8826TIP3    H126355   1.038   2.662   5.144
 8826TIP3    H226356   1.115   2.537   5.183
 8827TIP3   OH226357   0.011   2.552   5.120
 8827TIP3    H126358   0.058   2.489   5.065
 8827TIP3    H226359   0.079   2.605   5.160
 8828TIP3   OH226360   0.527   2.722   5.225
 8828TIP3    H126361   0.587   2.677   5.285
 8828TIP3    H226362   0.540   2.815   5.244
 8829TIP3   OH226363   0.383   4.148   4.719
 8829TIP3    H126364   0.470   4.172   4.687
 8829TIP3    H226365   0.357   4.074   4.663
 8830TIP3   OH226366   1.097   4.264   4.813
 8830TIP3    H126367   1.091   4.169   4.803
 8830TIP3    H226368   1.056   4.299   4.734
 8831TIP3   OH226369   0.336   2.796   6.610
 8831TIP3    H126370   0.300   2.728   6.666
 8831TIP3    H226371   0.431   2.783   6.616
 8832TIP3   OH226372   9.503   3.991   4.821
 8832TIP3    H126373   9.524   4.083   4.837
 8832TIP3    H226374   9.585   3.955   4.786
 8833TIP3   OH226375   1.390   2.858   6.511
 8833TIP3    H126376   1.406   2.828   6.600
 8833TIP3    H226377   1.476   2.853   6.468
 8834TIP3   OH226378   1.322   4.412   6.005
 8834TIP3    H126379   1.247   4.379   5.955
 8834TIP3    H226380   1.308   4.507   6.007
 8835TIP3   OH226381   2.592   3.783   4.766
 8835TIP3    H126382   2.568   3.874   4.751
 8835TIP3    H226383   2.516   3.733   4.735
 8836TIP3   OH226384   2.593   3.779   5.148
 8836TIP3    H126385   2.622   3.753   5.235
 8836TIP3    H226386   2.548   3.701   5.113
 8837TIP3   OH226387   1.893   3.679   5.516
 8837TIP3    H126388   1.923   3.612   5.577
 8837TIP3    H226389   1.966   3.741   5.510
 8838TIP3   OH226390   2.836   4.084   4.829
 8838TIP3    H126391   2.820   4.020   4.899
 8838TIP3    H226392   2.862   4.164   4.876
 8839TIP3   OH226393   1.856   4.083   5.235
 8839TIP3    H126394   1.851   3.988   5.239
 8839TIP3    H226395   1.947   4.103   5.256
 8840TIP3   OH226396   1.568   3.291   5.024
 8840TIP3    H126397   1.525   3.376   5.040
 8840TIP3    H226398   1.498   3.236   4.988
 8841TIP3   OH226399   1.629   3.576   5.194
 8841TIP3    H126400   1.676   3.502   5.232
 8841TIP3    H226401   1.691   3.613   5.131
 8842TIP3   OH226402   2.479   4.547   4.842
 8842TIP3    H126403   2.530   4.473   4.809
 8842TIP3    H226404   2.478   4.535   4.937
 8843TIP3   OH226405   2.393   4.006   5.195
 8843TIP3    H126406   2.429   3.930   5.148
 8843TIP3    H226407   2.470   4.057   5.220
 8844TIP3   OH226408   3.405   3.332   5.194
 8844TIP3    H126409   3.432   3.410   5.242
 8844TIP3    H226410   3.420   3.353   5.102
 8845TIP3   OH226411   2.804   3.510   5.229
 8845TIP3    H126412   2.844   3.426   5.252
 8845TIP3    H226413   2.771   3.497   5.141
 8846TIP3   OH226414   2.138   3.169   5.193
 8846TIP3    H126415   2.121   3.242   5.134
 8846TIP3    H226416   2.093   3.095   5.153
 8847TIP3   OH226417   2.837   3.260   4.820
 8847TIP3    H126418   2.906   3.243   4.884
 8847TIP3    H226419   2.883   3.296   4.744
 8848TIP3   OH226420   1.776   3.370   5.301
 8848TIP3    H126421   1.856   3.354   5.351
 8848TIP3    H226422   1.786   3.317   5.222
 8849TIP3   OH226423   2.217   3.568   5.093
 8849TIP3    H126424   2.308   3.545   5.108
 8849TIP3    H226425   2.176   3.486   5.062
 8850TIP3   OH226426   3.475   3.538   5.365
 8850TIP3    H126427   3.393   3.583   5.344
 8850TIP3    H226428   3.491   3.560   5.457
 8851TIP3   OH226429   2.134   3.154   5.630
 8851TIP3    H126430   2.078   3.189   5.561
 8851TIP3    H226431   2.086   3.171   5.711
 8852TIP3   OH226432   2.489   4.008   4.634
 8852TIP3    H126433   2.441   3.982   4.556
 8852TIP3    H226434   2.447   4.090   4.662
 8853TIP3   OH226435   2.242   3.931   5.426
 8853TIP3    H126436   2.178   3.991   5.464
 8853TIP3    H226437   2.283   3.981   5.355
 8854TIP3   OH226438   3.049   3.262   4.989
 8854TIP3    H126439   3.031   3.214   5.069
 8854TIP3    H226440   3.098   3.340   5.018
 8855TIP3   OH226441   2.010   3.268   5.413
 8855TIP3    H126442   2.067   3.340   5.439
 8855TIP3    H226443   2.056   3.226   5.340
 8856TIP3   OH226444   2.064   4.125   5.503
 8856TIP3    H126445   2.102   4.213   5.510
 8856TIP3    H226446   1.991   4.125   5.564
 8857TIP3   OH226447   1.467   3.813   4.758
 8857TIP3    H126448   1.427   3.839   4.675
 8857TIP3    H226449   1.498   3.895   4.797
 8858TIP3   OH226450   2.898   4.310   4.977
 8858TIP3    H126451   2.818   4.308   5.029
 8858TIP3    H226452   2.912   4.403   4.959
 8859TIP3   OH226453   3.196   3.231   5.360
 8859TIP3    H126454   3.108   3.258   5.332
 8859TIP3    H226455   3.254   3.261   5.290
 8860TIP3   OH226456   2.493   2.872   5.342
 8860TIP3    H126457   2.485   2.777   5.356
 8860TIP3    H226458   2.418   2.909   5.388
 8861TIP3   OH226459   2.613   4.371   4.669
 8861TIP3    H126460   2.662   4.290   4.651
 8861TIP3    H226461   2.668   4.441   4.633
 8862TIP3   OH226462   2.756   4.154   4.577
 8862TIP3    H126463   2.700   4.082   4.549
 8862TIP3    H226464   2.791   4.126   4.661
 8863TIP3   OH226465   2.422   3.635   4.597
 8863TIP3    H126466   2.343   3.684   4.578
 8863TIP3    H226467   2.467   3.627   4.513
 8864TIP3   OH226468   2.383   3.422   4.318
 8864TIP3    H126469   2.455   3.467   4.362
 8864TIP3    H226470   2.424   3.351   4.269
 8865TIP3   OH226471   3.330   3.878   5.184
 8865TIP3    H126472   3.246   3.924   5.193
 8865TIP3    H226473   3.360   3.901   5.096
 8866TIP3   OH226474   2.773   3.718   4.574
 8866TIP3    H126475   2.715   3.743   4.647
 8866TIP3    H226476   2.854   3.692   4.617
 8867TIP3   OH226477   3.005   3.758   5.482
 8867TIP3    H126478   3.005   3.837   5.535
 8867TIP3    H226479   2.921   3.760   5.436
 8868TIP3   OH226480   2.004   3.713   4.987
 8868TIP3    H126481   1.963   3.658   4.921
 8868TIP3    H226482   2.081   3.663   5.016
 8869TIP3   OH226483   2.137   4.133   5.131
 8869TIP3    H126484   2.114   4.081   5.053
 8869TIP3    H226485   2.223   4.100   5.156
 8870TIP3   OH226486   2.141   3.688   5.340
 8870TIP3    H126487   2.174   3.669   5.252
 8870TIP3    H226488   2.180   3.772   5.362
 8871TIP3   OH226489   2.673   4.318   5.119
 8871TIP3    H126490   2.657   4.407   5.150
 8871TIP3    H226491   2.641   4.263   5.191
 8872TIP3   OH226492   2.616   3.576   4.397
 8872TIP3    H126493   2.670   3.634   4.450
 8872TIP3    H226494   2.639   3.595   4.307
 8873TIP3   OH226495   2.029   3.798   5.769
 8873TIP3    H126496   2.039   3.885   5.809
 8873TIP3    H226497   1.935   3.779   5.774
 8874TIP3   OH226498   2.356   4.255   4.669
 8874TIP3    H126499   2.433   4.307   4.692
 8874TIP3    H226500   2.292   4.320   4.638
 8875TIP3   OH226501   3.125   2.816   4.445
 8875TIP3    H126502   3.046   2.831   4.497
 8875TIP3    H226503   3.139   2.898   4.398
 8876TIP3   OH226504   1.868   3.557   4.790
 8876TIP3    H126505   1.805   3.603   4.735
 8876TIP3    H226506   1.827   3.473   4.810
 8877TIP3   OH226507   2.926   4.184   3.991
 8877TIP3    H126508   2.930   4.279   3.979
 8877TIP3    H226509   3.017   4.155   3.981
 8878TIP3   OH226510   1.647   3.939   5.702
 8878TIP3    H126511   1.588   3.916   5.630
 8878TIP3    H226512   1.687   3.855   5.727
 8879TIP3   OH226513   1.508   4.135   5.335
 8879TIP3    H126514   1.602   4.122   5.319
 8879TIP3    H226515   1.505   4.212   5.392
 8880TIP3   OH226516   2.233   4.502   4.472
 8880TIP3    H126517   2.189   4.484   4.389
 8880TIP3    H226518   2.202   4.589   4.497
 8881TIP3   OH226519   1.672   4.348   4.860
 8881TIP3    H126520   1.723   4.343   4.941
 8881TIP3    H226521   1.615   4.271   4.864
 8882TIP3   OH226522   2.438   4.401   4.116
 8882TIP3    H126523   2.495   4.333   4.079
 8882TIP3    H226524   2.469   4.411   4.206
 8883TIP3   OH226525   2.485   4.448   4.388
 8883TIP3    H126526   2.398   4.458   4.428
 8883TIP3    H226527   2.539   4.412   4.459
 8884TIP3   OH226528   3.259   3.716   5.660
 8884TIP3    H126529   3.176   3.731   5.613
 8884TIP3    H226530   3.274   3.621   5.652
 8885TIP3   OH226531   1.854   4.123   5.685
 8885TIP3    H126532   1.907   4.116   5.764
 8885TIP3    H226533   1.784   4.059   5.698
 8886TIP3   OH226534   2.252   2.948   5.472
 8886TIP3    H126535   2.167   2.915   5.445
 8886TIP3    H226536   2.233   3.030   5.517
 8887TIP3   OH226537   2.787   3.063   5.668
 8887TIP3    H126538   2.854   3.036   5.730
 8887TIP3    H226539   2.704   3.043   5.711
 8888TIP3   OH226540   3.030   3.495   5.587
 8888TIP3    H126541   2.980   3.488   5.669
 8888TIP3    H226542   3.003   3.579   5.550
 8889TIP3   OH226543   2.694   3.619   4.140
 8889TIP3    H126544   2.655   3.596   4.056
 8889TIP3    H226545   2.760   3.685   4.118
 8890TIP3   OH226546   2.407   2.990   4.445
 8890TIP3    H126547   2.372   2.994   4.534
 8890TIP3    H226548   2.363   2.915   4.405
 8891TIP3   OH226549   2.184   3.465   5.489
 8891TIP3    H126550   2.139   3.485   5.572
 8891TIP3    H226551   2.171   3.544   5.436
 8892TIP3   OH226552   2.069   3.347   5.003
 8892TIP3    H126553   1.979   3.324   5.023
 8892TIP3    H226554   2.085   3.310   4.917
 8893TIP3   OH226555   2.561   3.437   4.730
 8893TIP3    H126556   2.508   3.507   4.692
 8893TIP3    H226557   2.614   3.404   4.657
 8894TIP3   OH226558   2.741   3.707   5.811
 8894TIP3    H126559   2.713   3.642   5.876
 8894TIP3    H226560   2.828   3.735   5.839
 8895TIP3   OH226561   2.717   3.463   4.969
 8895TIP3    H126562   2.657   3.497   4.902
 8895TIP3    H226563   2.751   3.382   4.932
 8896TIP3   OH226564   2.003   3.492   5.700
 8896TIP3    H126565   2.036   3.558   5.761
 8896TIP3    H226566   1.995   3.412   5.753
 8897TIP3   OH226567   2.040   2.941   4.414
 8897TIP3    H126568   2.038   2.956   4.509
 8897TIP3    H226569   2.016   3.025   4.376
 8898TIP3   OH226570   1.599   3.015   5.280
 8898TIP3    H126571   1.673   3.046   5.332
 8898TIP3    H226572   1.638   2.982   5.199
 8899TIP3   OH226573   1.571   2.997   4.793
 8899TIP3    H126574   1.631   3.028   4.726
 8899TIP3    H226575   1.515   3.072   4.813
 8900TIP3   OH226576   2.729   3.709   5.395
 8900TIP3    H126577   2.762   3.641   5.337
 8900TIP3    H226578   2.700   3.662   5.473
 8901TIP3   OH226579   2.398   3.174   5.069
 8901TIP3    H126580   2.315   3.170   5.117
 8901TIP3    H226581   2.465   3.171   5.136
 8902TIP3   OH226582   1.832   3.226   5.073
 8902TIP3    H126583   1.740   3.233   5.048
 8902TIP3    H226584   1.856   3.136   5.052
 8903TIP3   OH226585   2.104   3.226   4.762
 8903TIP3    H126586   2.198   3.238   4.744
 8903TIP3    H226587   2.061   3.247   4.680
 8904TIP3   OH226588   2.888   3.246   5.267
 8904TIP3    H126589   2.858   3.260   5.357
 8904TIP3    H226590   2.824   3.185   5.230
 8905TIP3   OH226591   1.947   3.254   4.542
 8905TIP3    H126592   1.861   3.226   4.510
 8905TIP3    H226593   1.988   3.295   4.466
 8906TIP3   OH226594   3.068   5.017   5.487
 8906TIP3    H126595   3.071   4.949   5.420
 8906TIP3    H226596   3.102   4.974   5.566
 8907TIP3   OH226597   2.013   4.041   5.912
 8907TIP3    H126598   2.094   4.075   5.951
 8907TIP3    H226599   1.947   4.050   5.981
 8908TIP3   OH226600   2.482   3.499   5.165
 8908TIP3    H126601   2.552   3.458   5.113
 8908TIP3    H226602   2.489   3.458   5.251
 8909TIP3   OH226603   2.004   2.986   5.040
 8909TIP3    H126604   1.971   2.909   5.087
 8909TIP3    H226605   2.057   2.951   4.969
 8910TIP3   OH226606   2.457   3.397   5.455
 8910TIP3    H126607   2.369   3.433   5.468
 8910TIP3    H226608   2.514   3.455   5.504
 8911TIP3   OH226609   2.192   3.788   4.549
 8911TIP3    H126610   2.121   3.725   4.536
 8911TIP3    H226611   2.178   3.822   4.637
 8912TIP3   OH226612   3.097   4.016   5.184
 8912TIP3    H126613   3.120   4.077   5.114
 8912TIP3    H226614   3.011   3.983   5.159
 8913TIP3   OH226615   2.656   3.097   4.411
 8913TIP3    H126616   2.563   3.076   4.419
 8913TIP3    H226617   2.661   3.191   4.427
 8914TIP3   OH226618   2.722   3.348   4.516
 8914TIP3    H126619   2.816   3.356   4.531
 8914TIP3    H226620   2.699   3.424   4.462
 8915TIP3   OH226621   1.882   3.801   5.224
 8915TIP3    H126622   1.922   3.780   5.140
 8915TIP3    H226623   1.929   3.746   5.288
 8916TIP3   OH226624   2.337   3.937   4.369
 8916TIP3    H126625   2.293   4.022   4.373
 8916TIP3    H226626   2.286   3.881   4.428
 8917TIP3   OH226627   1.765   3.729   5.840
 8917TIP3    H126628   1.790   3.718   5.932
 8917TIP3    H226629   1.698   3.661   5.826
 8918TIP3   OH226630   2.489   3.821   5.872
 8918TIP3    H126631   2.432   3.789   5.802
 8918TIP3    H226632   2.577   3.820   5.833
 8919TIP3   OH226633   3.165   3.432   4.342
 8919TIP3    H126634   3.106   3.385   4.284
 8919TIP3    H226635   3.160   3.523   4.313
 8920TIP3   OH226636   2.866   4.255   4.258
 8920TIP3    H126637   2.836   4.190   4.321
 8920TIP3    H226638   2.875   4.206   4.176
 8921TIP3   OH226639   2.854   3.883   5.099
 8921TIP3    H126640   2.762   3.858   5.110
 8921TIP3    H226641   2.894   3.810   5.053
 8922TIP3   OH226642   1.985   4.109   4.841
 8922TIP3    H126643   1.990   4.193   4.794
 8922TIP3    H226644   1.892   4.100   4.863
 8923TIP3   OH226645   1.550   3.419   4.559
 8923TIP3    H126646   1.597   3.501   4.574
 8923TIP3    H226647   1.473   3.424   4.616
 8924TIP3   OH226648   2.126   3.878   4.795
 8924TIP3    H126649   2.092   3.966   4.808
 8924TIP3    H226650   2.092   3.827   4.868
 8925TIP3   OH226651   1.905   4.356   4.701
 8925TIP3    H126652   1.821   4.360   4.747
 8925TIP3    H226653   1.939   4.445   4.705
 8926TIP3   OH226654   2.646   4.086   5.285
 8926TIP3    H126655   2.660   4.079   5.380
 8926TIP3    H226656   2.721   4.041   5.246
 8927TIP3   OH226657   2.617   3.978   4.161
 8927TIP3    H126658   2.671   3.957   4.237
 8927TIP3    H226659   2.528   3.959   4.189
 8928TIP3   OH226660   2.958   4.461   3.980
 8928TIP3    H126661   2.998   4.528   3.924
 8928TIP3    H226662   2.879   4.502   4.014
 8929TIP3   OH226663   1.978   3.234   5.848
 8929TIP3    H126664   1.883   3.240   5.859
 8929TIP3    H226665   2.007   3.174   5.917
 8930TIP3   OH226666   2.782   3.910   4.371
 8930TIP3    H126667   2.767   3.852   4.447
 8930TIP3    H226668   2.877   3.912   4.361
 8931TIP3   OH226669   1.697   4.319   5.485
 8931TIP3    H126670   1.747   4.243   5.513
 8931TIP3    H226671   1.736   4.392   5.531
 8932TIP3   OH226672   1.985   3.963   4.160
 8932TIP3    H126673   1.999   3.874   4.129
 8932TIP3    H226674   1.966   3.954   4.253
 8933TIP3   OH226675   1.932   3.971   4.433
 8933TIP3    H126676   2.002   3.941   4.492
 8933TIP3    H226677   1.934   4.066   4.438
 8934TIP3   OH226678   1.665   3.664   4.635
 8934TIP3    H126679   1.601   3.707   4.692
 8934TIP3    H226680   1.684   3.730   4.568
 8935TIP3   OH226681   2.819   3.296   5.525
 8935TIP3    H126682   2.894   3.337   5.568
 8935TIP3    H226683   2.800   3.219   5.578
 8936TIP3   OH226684   2.698   3.052   4.689
 8936TIP3    H126685   2.681   3.073   4.598
 8936TIP3    H226686   2.733   3.133   4.727
 8937TIP3   OH226687   2.193   4.167   4.378
 8937TIP3    H126688   2.110   4.192   4.417
 8937TIP3    H226689   2.216   4.239   4.319
 8938TIP3   OH226690   2.386   3.231   4.796
 8938TIP3    H126691   2.449   3.301   4.776
 8938TIP3    H226692   2.390   3.223   4.891
 8939TIP3   OH226693   2.654   3.549   5.602
 8939TIP3    H126694   2.671   3.607   5.676
 8939TIP3    H226695   2.708   3.472   5.618
 8940TIP3   OH226696   2.530   2.963   4.896
 8940TIP3    H126697   2.522   3.036   4.957
 8940TIP3    H226698   2.590   2.994   4.828
 8941TIP3   OH226699   1.937   4.244   4.448
 8941TIP3    H126700   1.909   4.311   4.385
 8941TIP3    H226701   1.923   4.284   4.533
 8942TIP3   OH226702   2.043   2.961   4.692
 8942TIP3    H126703   2.041   3.050   4.728
 8942TIP3    H226704   2.135   2.935   4.696
 8943TIP3   OH226705   3.293   3.447   5.580
 8943TIP3    H126706   3.199   3.449   5.593
 8943TIP3    H226707   3.305   3.407   5.494
 8944TIP3   OH226708   2.946   3.641   4.969
 8944TIP3    H126709   2.869   3.587   4.983
 8944TIP3    H226710   3.016   3.597   5.017
 8945TIP3   OH226711   1.660   3.874   4.438
 8945TIP3    H126712   1.722   3.946   4.452
 8945TIP3    H226713   1.702   3.818   4.373
 8946TIP3   OH226714   1.610   3.153   4.545
 8946TIP3    H126715   1.600   3.247   4.556
 8946TIP3    H226716   1.520   3.119   4.544
 8947TIP3   OH226717   2.932   4.589   4.927
 8947TIP3    H126718   2.874   4.638   4.869
 8947TIP3    H226719   3.020   4.617   4.902
 8948TIP3   OH226720   1.988   2.866   5.448
 8948TIP3    H126721   1.959   2.836   5.362
 8948TIP3    H226722   1.979   2.790   5.505
 8949TIP3   OH226723   1.528   4.086   4.828
 8949TIP3    H126724   1.456   4.117   4.883
 8949TIP3    H226725   1.510   4.124   4.742
 8950TIP3   OH226726   1.686   4.624   5.904
 8950TIP3    H126727   1.773   4.625   5.944
 8950TIP3    H226728   1.665   4.531   5.893
 8951TIP3   OH226729   2.175   4.598   5.921
 8951TIP3    H126730   2.253   4.553   5.953
 8951TIP3    H226731   2.173   4.578   5.827
 8952TIP3   OH226732   2.149   4.166   4.072
 8952TIP3    H126733   2.092   4.100   4.111
 8952TIP3    H226734   2.224   4.117   4.040
 8953TIP3   OH226735   2.585   4.208   3.982
 8953TIP3    H126736   2.631   4.148   4.041
 8953TIP3    H226737   2.639   4.211   3.904
 8954TIP3   OH226738   1.811   4.032   6.103
 8954TIP3    H126739   1.834   3.939   6.102
 8954TIP3    H226740   1.728   4.037   6.057
 8955TIP3   OH226741   1.797   3.684   4.294
 8955TIP3    H126742   1.849   3.654   4.368
 8955TIP3    H226743   1.858   3.687   4.220
 8956TIP3   OH226744   2.302   3.881   4.101
 8956TIP3    H126745   2.304   3.898   4.195
 8956TIP3    H226746   2.302   3.786   4.094
 8957TIP3   OH226747   2.918   4.128   5.474
 8957TIP3    H126748   2.976   4.161   5.406
 8957TIP3    H226749   2.855   4.199   5.490
 8958TIP3   OH226750   1.934   3.763   6.085
 8958TIP3    H126751   2.013   3.718   6.055
 8958TIP3    H226752   1.958   3.800   6.169
 8959TIP3   OH226753   1.998   3.591   4.513
 8959TIP3    H126754   1.978   3.549   4.597
 8959TIP3    H226755   2.036   3.520   4.460
 8960TIP3   OH226756   2.263   3.646   5.737
 8960TIP3    H126757   2.191   3.709   5.746
 8960TIP3    H226758   2.317   3.682   5.666
 8961TIP3   OH226759   2.104   3.382   4.353
 8961TIP3    H126760   2.090   3.328   4.275
 8961TIP3    H226761   2.199   3.397   4.355
 8962TIP3   OH226762   2.779   4.033   5.870
 8962TIP3    H126763   2.869   4.057   5.847
 8962TIP3    H226764   2.788   3.983   5.951
 8963TIP3   OH226765   2.934   3.711   4.004
 8963TIP3    H126766   2.898   3.668   3.927
 8963TIP3    H226767   2.904   3.802   3.997
 8964TIP3   OH226768   2.393   3.441   5.868
 8964TIP3    H126769   2.394   3.362   5.814
 8964TIP3    H226770   2.350   3.507   5.813
 8965TIP3   OH226771   2.395   3.226   5.674
 8965TIP3    H126772   2.423   3.269   5.593
 8965TIP3    H226773   2.303   3.204   5.658
 8966TIP3   OH226774   2.422   3.765   5.551
 8966TIP3    H126775   2.501   3.767   5.499
 8966TIP3    H226776   2.364   3.829   5.510
 8967TIP3   OH226777   3.009   3.731   5.935
 8967TIP3    H126778   3.057   3.649   5.937
 8967TIP3    H226779   3.070   3.794   5.899
 8968TIP3   OH226780   3.051   3.982   5.661
 8968TIP3    H126781   2.989   4.033   5.609
 8968TIP3    H226782   3.137   4.003   5.624
 8969TIP3   OH226783   2.271   3.551   6.101
 8969TIP3    H126784   2.203   3.485   6.113
 8969TIP3    H226785   2.307   3.534   6.013
 8970TIP3   OH226786   2.526   2.992   5.743
 8970TIP3    H126787   2.480   3.073   5.721
 8970TIP3    H226788   2.461   2.923   5.731
 8971TIP3   OH226789   2.653   3.494   5.960
 8971TIP3    H126790   2.644   3.486   6.055
 8971TIP3    H226791   2.567   3.473   5.925
 8972TIP3   OH226792   2.894   3.439   5.814
 8972TIP3    H126793   2.818   3.448   5.872
 8972TIP3    H226794   2.966   3.412   5.872
 8973TIP3   OH226795   3.126   3.385   5.968
 8973TIP3    H126796   3.136   3.291   5.985
 8973TIP3    H226797   3.120   3.424   6.056
 8974TIP3   OH226798   2.109   3.332   6.153
 8974TIP3    H126799   2.117   3.245   6.114
 8974TIP3    H226800   2.145   3.322   6.241
 8975TIP3   OH226801   2.622   2.997   6.000
 8975TIP3    H126802   2.690   2.930   5.995
 8975TIP3    H226803   2.582   2.996   5.913
 8976TIP3   OH226804   2.685   3.214   6.161
 8976TIP3    H126805   2.667   3.145   6.097
 8976TIP3    H226806   2.612   3.275   6.153
 8977TIP3   OH226807   1.910   4.446   4.257
 8977TIP3    H126808   2.004   4.439   4.243
 8977TIP3    H226809   1.878   4.494   4.180
 8978TIP3   OH226810   1.391   3.826   4.476
 8978TIP3    H126811   1.483   3.850   4.464
 8978TIP3    H226812   1.383   3.739   4.437
 8979TIP3   OH226813   1.301   4.436   4.892
 8979TIP3    H126814   1.236   4.376   4.854
 8979TIP3    H226815   1.347   4.384   4.957
 8980TIP3   OH226816   1.439   4.292   5.080
 8980TIP3    H126817   1.430   4.216   5.137
 8980TIP3    H226818   1.493   4.353   5.130
 8981TIP3   OH226819   3.183   4.696   4.888
 8981TIP3    H126820   3.204   4.764   4.951
 8981TIP3    H226821   3.215   4.731   4.804
 8982TIP3   OH226822   3.244   4.387   5.737
 8982TIP3    H126823   3.164   4.394   5.790
 8982TIP3    H226824   3.278   4.477   5.734
 8983TIP3   OH226825   3.068   3.887   4.342
 8983TIP3    H126826   3.127   3.958   4.318
 8983TIP3    H226827   3.103   3.854   4.425
 8984TIP3   OH226828   3.188   3.763   4.556
 8984TIP3    H126829   3.120   3.724   4.612
 8984TIP3    H226830   3.247   3.808   4.617
 8985TIP3   OH226831   3.239   4.154   4.987
 8985TIP3    H126832   3.292   4.093   4.935
 8985TIP3    H226833   3.217   4.225   4.927
 8986TIP3   OH226834   3.130   3.655   4.174
 8986TIP3    H126835   3.054   3.678   4.121
 8986TIP3    H226836   3.136   3.725   4.240
 8987TIP3   OH226837   3.013   3.352   4.124
 8987TIP3    H126838   2.930   3.389   4.094
 8987TIP3    H226839   2.994   3.259   4.138
 8988TIP3   OH226840   3.003   3.621   4.704
 8988TIP3    H126841   3.005   3.526   4.699
 8988TIP3    H226842   2.987   3.640   4.797
 8989TIP3   OH226843   1.629   3.697   5.447
 8989TIP3    H126844   1.625   3.669   5.355
 8989TIP3    H226845   1.723   3.700   5.466
 8990TIP3   OH226846   3.293   4.053   5.554
 8990TIP3    H126847   3.360   3.985   5.552
 8990TIP3    H226848   3.302   4.100   5.471
 8991TIP3   OH226849   3.473   3.852   5.575
 8991TIP3    H126850   3.399   3.806   5.615
 8991TIP3    H226851   3.548   3.793   5.588
 8992TIP3   OH226852   2.938   3.091   4.149
 8992TIP3    H126853   3.009   3.053   4.200
 8992TIP3    H226854   2.863   3.034   4.166
 8993TIP3   OH226855   2.998   3.336   4.598
 8993TIP3    H126856   3.034   3.249   4.616
 8993TIP3    H226857   3.057   3.373   4.532
 8994TIP3   OH226858   3.162   3.515   5.093
 8994TIP3    H126859   3.244   3.539   5.051
 8994TIP3    H226860   3.168   3.550   5.182
 8995TIP3   OH226861   3.225   3.660   5.323
 8995TIP3    H126862   3.149   3.690   5.372
 8995TIP3    H226863   3.258   3.738   5.279
 8996TIP3   OH226864   1.843   3.381   6.122
 8996TIP3    H126865   1.939   3.379   6.122
 8996TIP3    H226866   1.818   3.299   6.165
 8997TIP3   OH226867   3.678   3.248   5.878
 8997TIP3    H126868   3.736   3.183   5.838
 8997TIP3    H226869   3.650   3.303   5.805
 8998TIP3   OH226870   3.108   3.086   4.634
 8998TIP3    H126871   3.153   3.074   4.717
 8998TIP3    H226872   3.045   3.014   4.631
 8999TIP3   OH226873   1.807   3.076   5.455
 8999TIP3    H126874   1.866   3.001   5.464
 8999TIP3    H226875   1.866   3.152   5.448
 9000TIP3   OH226876   1.610   3.351   5.526
 9000TIP3    H126877   1.657   3.343   5.443
 9000TIP3    H226878   1.637   3.436   5.560
 9001TIP3   OH226879   3.548   3.389   5.685
 9001TIP3    H126880   3.465   3.431   5.709
 9001TIP3    H226881   3.523   3.318   5.627
 9002TIP3   OH226882   3.188   3.025   4.266
 9002TIP3    H126883   3.223   2.951   4.216
 9002TIP3    H226884   3.254   3.094   4.257
 9003TIP3   OH226885   1.590   2.860   5.027
 9003TIP3    H126886   1.498   2.852   5.053
 9003TIP3    H226887   1.588   2.913   4.947
 9004TIP3   OH226888   2.750   4.559   4.531
 9004TIP3    H126889   2.802   4.545   4.453
 9004TIP3    H226890   2.801   4.620   4.584
 9005TIP3   OH226891   1.809   2.935   5.843
 9005TIP3    H126892   1.761   2.929   5.926
 9005TIP3    H226893   1.746   2.972   5.781
 9006TIP3   OH226894   1.841   4.358   5.941
 9006TIP3    H126895   1.755   4.327   5.912
 9006TIP3    H226896   1.843   4.336   6.034
 9007TIP3   OH226897   3.448   3.150   5.562
 9007TIP3    H126898   3.357   3.148   5.530
 9007TIP3    H226899   3.479   3.060   5.551
 9008TIP3   OH226900   1.700   4.646   5.483
 9008TIP3    H126901   1.615   4.687   5.468
 9008TIP3    H226902   1.725   4.673   5.571
 9009TIP3   OH226903   1.945   4.646   5.339
 9009TIP3    H126904   1.864   4.637   5.389
 9009TIP3    H226905   1.917   4.673   5.252
 9010TIP3   OH226906   2.376   4.686   5.114
 9010TIP3    H126907   2.288   4.694   5.077
 9010TIP3    H226908   2.372   4.736   5.196
 9011TIP3   OH226909   2.629   4.588   5.151
 9011TIP3    H126910   2.537   4.597   5.173
 9011TIP3    H226911   2.660   4.677   5.135
 9012TIP3   OH226912   1.619   4.440   5.237
 9012TIP3    H126913   1.645   4.424   5.328
 9012TIP3    H226914   1.689   4.400   5.185
 9013TIP3   OH226915   1.812   4.314   5.091
 9013TIP3    H126916   1.825   4.232   5.138
 9013TIP3    H226917   1.900   4.352   5.086
 9014TIP3   OH226918   2.073   4.411   5.095
 9014TIP3    H126919   2.109   4.323   5.093
 9014TIP3    H226920   2.095   4.444   5.183
 9015TIP3   OH226921   2.654   3.064   5.182
 9015TIP3    H126922   2.609   2.999   5.235
 9015TIP3    H226923   2.724   3.016   5.138
 9016TIP3   OH226924   3.178   2.945   5.084
 9016TIP3    H126925   3.212   2.999   5.012
 9016TIP3    H226926   3.084   2.961   5.082
 9017TIP3   OH226927   3.275   3.051   4.849
 9017TIP3    H126928   3.346   2.998   4.812
 9017TIP3    H226929   3.304   3.142   4.837
 9018TIP3   OH226930   1.901   2.773   5.200
 9018TIP3    H126931   1.810   2.744   5.200
 9018TIP3    H226932   1.952   2.692   5.195
 9019TIP3   OH226933   1.687   2.645   4.844
 9019TIP3    H126934   1.725   2.697   4.773
 9019TIP3    H226935   1.662   2.709   4.910
 9020TIP3   OH226936   2.343   2.814   5.080
 9020TIP3    H126937   2.403   2.858   5.020
 9020TIP3    H226938   2.369   2.845   5.167
 9021TIP3   OH226939   2.898   2.951   5.063
 9021TIP3    H126940   2.888   2.915   4.975
 9021TIP3    H226941   2.885   2.876   5.122
 9022TIP3   OH226942   2.920   2.874   4.626
 9022TIP3    H126943   2.837   2.920   4.636
 9022TIP3    H226944   2.908   2.792   4.675
 9023TIP3   OH226945   1.403   4.216   4.626
 9023TIP3    H126946   1.321   4.181   4.592
 9023TIP3    H226947   1.396   4.310   4.611
 9024TIP3   OH226948   1.813   2.792   4.639
 9024TIP3    H126949   1.841   2.748   4.559
 9024TIP3    H226950   1.885   2.852   4.659
 9025TIP3   OH226951   2.320   2.981   4.711
 9025TIP3    H126952   2.376   2.930   4.769
 9025TIP3    H226953   2.339   3.072   4.733
 9026TIP3   OH226954   2.178   4.405   4.205
 9026TIP3    H126955   2.265   4.429   4.174
 9026TIP3    H226956   2.153   4.330   4.150
 9027TIP3   OH226957   2.896   4.522   4.299
 9027TIP3    H126958   2.890   4.427   4.290
 9027TIP3    H226959   2.852   4.557   4.222
 9028TIP3   OH226960   2.111   3.054   6.091
 9028TIP3    H126961   2.075   2.985   6.146
 9028TIP3    H226962   2.203   3.058   6.115
 9029TIP3   OH226963   2.359   3.052   6.210
 9029TIP3    H126964   2.442   3.032   6.167
 9029TIP3    H226965   2.347   2.982   6.274
 9030TIP3   OH226966   1.483   4.241   4.266
 9030TIP3    H126967   1.484   4.267   4.359
 9030TIP3    H226968   1.569   4.200   4.253
 9031TIP3   OH226969   3.186   3.114   5.998
 9031TIP3    H126970   3.203   3.083   6.087
 9031TIP3    H226971   3.271   3.110   5.954
 9032TIP3   OH226972   4.351   4.030   4.272
 9032TIP3    H126973   4.364   4.120   4.302
 9032TIP3    H226974   4.328   4.038   4.180
 9033TIP3   OH226975   4.391   4.027   4.638
 9033TIP3    H126976   4.435   4.022   4.723
 9033TIP3    H226977   4.321   3.962   4.644
 9034TIP3   OH226978   3.702   3.933   4.989
 9034TIP3    H126979   3.720   3.865   5.054
 9034TIP3    H226980   3.749   4.010   5.021
 9035TIP3   OH226981   4.625   4.332   4.325
 9035TIP3    H126982   4.634   4.274   4.401
 9035TIP3    H226983   4.652   4.418   4.357
 9036TIP3   OH226984   3.664   4.345   4.725
 9036TIP3    H126985   3.648   4.251   4.732
 9036TIP3    H226986   3.760   4.352   4.718
 9037TIP3   OH226987   3.369   3.551   4.508
 9037TIP3    H126988   3.325   3.634   4.527
 9037TIP3    H226989   3.298   3.490   4.488
 9038TIP3   OH226990   3.429   3.836   4.681
 9038TIP3    H126991   3.474   3.761   4.719
 9038TIP3    H226992   3.483   3.862   4.607
 9039TIP3   OH226993   4.273   4.803   4.330
 9039TIP3    H126994   4.322   4.732   4.290
 9039TIP3    H226995   4.274   4.783   4.424
 9040TIP3   OH226996   4.193   4.267   4.682
 9040TIP3    H126997   4.228   4.199   4.625
 9040TIP3    H226998   4.270   4.313   4.715
 9041TIP3   OH226999   5.198   3.588   4.680
 9041TIP3    H127000   5.226   3.667   4.727
 9041TIP3    H227001   5.223   3.606   4.589
 9042TIP3   OH227002   4.602   3.765   4.715
 9042TIP3    H127003   4.647   3.692   4.758
 9042TIP3    H227004   4.563   3.727   4.637
 9043TIP3   OH227005   3.934   3.427   4.677
 9043TIP3    H127006   3.913   3.498   4.617
 9043TIP3    H227007   3.890   3.351   4.640
 9044TIP3   OH227008   4.627   3.522   4.299
 9044TIP3    H127009   4.689   3.510   4.371
 9044TIP3    H227010   4.680   3.559   4.228
 9045TIP3   OH227011   3.573   3.628   4.786
 9045TIP3    H127012   3.651   3.610   4.839
 9045TIP3    H227013   3.583   3.572   4.710
 9046TIP3   OH227014   4.046   3.805   4.543
 9046TIP3    H127015   4.064   3.789   4.636
 9046TIP3    H227016   3.986   3.734   4.518
 9047TIP3   OH227017   5.270   3.792   4.855
 9047TIP3    H127018   5.189   3.839   4.835
 9047TIP3    H227019   5.294   3.822   4.943
 9048TIP3   OH227020   3.930   3.409   5.116
 9048TIP3    H127021   3.872   3.446   5.049
 9048TIP3    H227022   3.884   3.424   5.199
 9049TIP3   OH227023   4.274   4.245   4.124
 9049TIP3    H127024   4.243   4.240   4.034
 9049TIP3    H227025   4.247   4.332   4.154
 9050TIP3   OH227026   4.035   4.186   4.913
 9050TIP3    H127027   3.975   4.250   4.951
 9050TIP3    H227028   4.080   4.235   4.843
 9051TIP3   OH227029   4.836   3.524   4.476
 9051TIP3    H127030   4.831   3.471   4.556
 9051TIP3    H227031   4.897   3.594   4.498
 9052TIP3   OH227032   3.805   3.525   4.899
 9052TIP3    H127033   3.863   3.596   4.927
 9052TIP3    H227034   3.853   3.482   4.827
 9053TIP3   OH227035   3.867   4.392   4.988
 9053TIP3    H127036   3.818   4.456   4.938
 9053TIP3    H227037   3.807   4.363   5.057
 9054TIP3   OH227038   3.262   4.069   4.245
 9054TIP3    H127039   3.221   4.094   4.162
 9054TIP3    H227040   3.293   4.152   4.282
 9055TIP3   OH227041   4.688   4.567   4.464
 9055TIP3    H127042   4.608   4.571   4.517
 9055TIP3    H227043   4.707   4.658   4.442
 9056TIP3   OH227044   4.993   3.484   4.844
 9056TIP3    H127045   4.907   3.519   4.819
 9056TIP3    H227046   5.052   3.517   4.777
 9057TIP3   OH227047   4.288   3.127   4.832
 9057TIP3    H127048   4.279   3.033   4.850
 9057TIP3    H227049   4.214   3.167   4.876
 9058TIP3   OH227050   4.407   4.630   4.158
 9058TIP3    H127051   4.453   4.549   4.138
 9058TIP3    H227052   4.462   4.699   4.122
 9059TIP3   OH227053   4.542   4.411   4.069
 9059TIP3    H127054   4.524   4.333   4.016
 9059TIP3    H227055   4.578   4.376   4.151
 9060TIP3   OH227056   4.905   4.481   4.832
 9060TIP3    H127057   4.909   4.413   4.765
 9060TIP3    H227058   4.903   4.563   4.783
 9061TIP3   OH227059   4.209   3.877   4.095
 9061TIP3    H127060   4.137   3.930   4.060
 9061TIP3    H227061   4.263   3.857   4.019
 9062TIP3   OH227062   4.183   3.670   3.810
 9062TIP3    H127063   4.250   3.726   3.849
 9062TIP3    H227064   4.232   3.606   3.758
 9063TIP3   OH227065   5.122   4.128   4.669
 9063TIP3    H127066   5.041   4.179   4.676
 9063TIP3    H227067   5.158   4.151   4.584
 9064TIP3   OH227068   4.564   3.975   4.068
 9064TIP3    H127069   4.530   4.012   4.149
 9064TIP3    H227070   4.651   3.943   4.092
 9065TIP3   OH227071   4.800   4.016   4.970
 9065TIP3    H127072   4.805   4.093   5.026
 9065TIP3    H227073   4.718   4.026   4.923
 9066TIP3   OH227074   3.804   3.960   4.477
 9066TIP3    H127075   3.753   3.915   4.410
 9066TIP3    H227076   3.883   3.907   4.487
 9067TIP3   OH227077   3.932   4.383   4.622
 9067TIP3    H127078   3.908   4.346   4.537
 9067TIP3    H227079   4.020   4.348   4.639
 9068TIP3   OH227080   3.969   3.940   4.811
 9068TIP3    H127081   3.956   3.971   4.721
 9068TIP3    H227082   3.984   4.020   4.861
 9069TIP3   OH227083   4.462   4.582   4.615
 9069TIP3    H127084   4.439   4.657   4.671
 9069TIP3    H227085   4.445   4.505   4.670
 9070TIP3   OH227086   4.074   4.489   5.151
 9070TIP3    H127087   4.041   4.571   5.186
 9070TIP3    H227088   4.000   4.451   5.103
 9071TIP3   OH227089   4.405   3.833   3.888
 9071TIP3    H127090   4.464   3.889   3.938
 9071TIP3    H227091   4.427   3.850   3.797
 9072TIP3   OH227092   3.819   4.059   5.247
 9072TIP3    H127093   3.835   4.141   5.293
 9072TIP3    H227094   3.727   4.038   5.265
 9073TIP3   OH227095   4.152   4.511   4.165
 9073TIP3    H127096   4.230   4.565   4.178
 9073TIP3    H227097   4.090   4.569   4.121
 9074TIP3   OH227098   4.923   3.074   3.931
 9074TIP3    H127099   4.844   3.092   3.982
 9074TIP3    H227100   4.939   3.154   3.882
 9075TIP3   OH227101   3.668   3.815   4.281
 9075TIP3    H127102   3.608   3.865   4.225
 9075TIP3    H227103   3.620   3.735   4.301
 9076TIP3   OH227104   4.724   4.442   3.478
 9076TIP3    H127105   4.729   4.537   3.465
 9076TIP3    H227106   4.814   4.412   3.467
 9077TIP3   OH227107   3.472   4.181   5.150
 9077TIP3    H127108   3.388   4.166   5.108
 9077TIP3    H227109   3.487   4.103   5.203
 9078TIP3   OH227110   3.300   4.394   4.812
 9078TIP3    H127111   3.395   4.385   4.825
 9078TIP3    H227112   3.276   4.469   4.868
 9079TIP3   OH227113   4.030   4.757   3.961
 9079TIP3    H127114   3.987   4.739   3.878
 9079TIP3    H227115   4.000   4.844   3.985
 9080TIP3   OH227116   3.469   4.605   4.345
 9080TIP3    H127117   3.516   4.598   4.428
 9080TIP3    H227118   3.407   4.533   4.347
 9081TIP3   OH227119   4.235   4.657   3.602
 9081TIP3    H127120   4.292   4.590   3.565
 9081TIP3    H227121   4.267   4.669   3.691
 9082TIP3   OH227122   4.282   4.706   3.874
 9082TIP3    H127123   4.195   4.716   3.913
 9082TIP3    H227124   4.336   4.670   3.945
 9083TIP3   OH227125   5.055   3.970   5.151
 9083TIP3    H127126   4.975   3.986   5.102
 9083TIP3    H227127   5.071   3.876   5.142
 9084TIP3   OH227128   3.684   4.347   5.167
 9084TIP3    H127129   3.719   4.332   5.255
 9084TIP3    H227130   3.604   4.295   5.163
 9085TIP3   OH227131   4.048   3.207   4.958
 9085TIP3    H127132   3.962   3.174   4.932
 9085TIP3    H227133   4.029   3.287   5.006
 9086TIP3   OH227134   4.583   3.319   5.155
 9086TIP3    H127135   4.650   3.293   5.218
 9086TIP3    H227136   4.500   3.299   5.198
 9087TIP3   OH227137   4.821   3.750   5.070
 9087TIP3    H127138   4.776   3.744   5.154
 9087TIP3    H227139   4.800   3.838   5.038
 9088TIP3   OH227140   4.486   3.877   3.630
 9088TIP3    H127141   4.448   3.852   3.546
 9088TIP3    H227142   4.565   3.926   3.607
 9089TIP3   OH227143   4.194   3.251   3.932
 9089TIP3    H127144   4.163   3.250   4.023
 9089TIP3    H227145   4.159   3.170   3.894
 9090TIP3   OH227146   3.978   3.722   4.976
 9090TIP3    H127147   3.931   3.741   5.057
 9090TIP3    H227148   3.969   3.801   4.923
 9091TIP3   OH227149   3.863   3.609   4.486
 9091TIP3    H127150   3.774   3.585   4.511
 9091TIP3    H227151   3.876   3.567   4.401
 9092TIP3   OH227152   4.531   3.966   5.302
 9092TIP3    H127153   4.511   3.896   5.365
 9092TIP3    H227154   4.619   3.994   5.325
 9093TIP3   OH227155   3.800   3.748   5.188
 9093TIP3    H127156   3.825   3.814   5.253
 9093TIP3    H227157   3.789   3.667   5.238
 9094TIP3   OH227158   3.849   3.224   3.889
 9094TIP3    H127159   3.839   3.229   3.984
 9094TIP3    H227160   3.767   3.260   3.855
 9095TIP3   OH227161   3.396   3.276   4.761
 9095TIP3    H127162   3.469   3.302   4.817
 9095TIP3    H227163   3.438   3.233   4.686
 9096TIP3   OH227164   3.366   3.249   4.280
 9096TIP3    H127165   3.440   3.287   4.234
 9096TIP3    H227166   3.311   3.323   4.304
 9097TIP3   OH227167   4.514   3.966   4.876
 9097TIP3    H127168   4.553   3.898   4.821
 9097TIP3    H227169   4.491   3.921   4.957
 9098TIP3   OH227170   4.192   3.444   4.554
 9098TIP3    H127171   4.112   3.433   4.606
 9098TIP3    H227172   4.263   3.427   4.616
 9099TIP3   OH227173   3.630   3.484   4.558
 9099TIP3    H127174   3.538   3.492   4.534
 9099TIP3    H227175   3.652   3.392   4.542
 9100TIP3   OH227176   3.897   3.484   4.245
 9100TIP3    H127177   3.990   3.500   4.228
 9100TIP3    H227178   3.854   3.503   4.162
 9101TIP3   OH227179   4.683   3.504   4.755
 9101TIP3    H127180   4.654   3.514   4.845
 9101TIP3    H227181   4.622   3.440   4.717
 9102TIP3   OH227182   3.731   3.503   4.011
 9102TIP3    H127183   3.663   3.469   3.953
 9102TIP3    H227184   3.790   3.551   3.953
 9103TIP3   OH227185   3.820   4.297   5.403
 9103TIP3    H127186   3.898   4.330   5.448
 9103TIP3    H227187   3.752   4.300   5.470
 9104TIP3   OH227188   3.800   3.241   4.528
 9104TIP3    H127189   3.765   3.166   4.577
 9104TIP3    H227190   3.855   3.201   4.461
 9105TIP3   OH227191   4.250   3.644   4.956
 9105TIP3    H127192   4.164   3.686   4.960
 9105TIP3    H227193   4.310   3.710   4.990
 9106TIP3   OH227194   3.996   4.038   4.043
 9106TIP3    H127195   3.923   3.979   4.024
 9106TIP3    H227196   3.973   4.078   4.128
 9107TIP3   OH227197   4.892   4.273   4.657
 9107TIP3    H127198   4.919   4.324   4.580
 9107TIP3    H227199   4.806   4.238   4.634
 9108TIP3   OH227200   4.450   3.350   3.899
 9108TIP3    H127201   4.355   3.339   3.904
 9108TIP3    H227202   4.464   3.443   3.917
 9109TIP3   OH227203   4.398   4.371   5.042
 9109TIP3    H127204   4.431   4.325   5.119
 9109TIP3    H227205   4.330   4.429   5.077
 9110TIP3   OH227206   4.525   3.596   3.988
 9110TIP3    H127207   4.616   3.610   4.012
 9110TIP3    H227208   4.496   3.680   3.951
 9111TIP3   OH227209   3.691   4.068   4.715
 9111TIP3    H127210   3.721   4.029   4.633
 9111TIP3    H227211   3.706   4.001   4.781
 9112TIP3   OH227212   4.138   4.196   3.863
 9112TIP3    H127213   4.091   4.280   3.863
 9112TIP3    H227214   4.084   4.139   3.919
 9113TIP3   OH227215   3.559   3.984   5.329
 9113TIP3    H127216   3.580   3.971   5.422
 9113TIP3    H227217   3.491   3.920   5.310
 9114TIP3   OH227218   4.289   4.093   5.342
 9114TIP3    H127219   4.231   4.030   5.297
 9114TIP3    H227220   4.377   4.066   5.317
 9115TIP3   OH227221   4.957   3.694   3.835
 9115TIP3    H127222   4.898   3.645   3.778
 9115TIP3    H227223   4.960   3.782   3.797
 9116TIP3   OH227224   4.658   4.508   3.742
 9116TIP3    H127225   4.636   4.437   3.802
 9116TIP3    H227226   4.673   4.465   3.658
 9117TIP3   OH227227   4.653   4.142   4.578
 9117TIP3    H127228   4.564   4.114   4.596
 9117TIP3    H227229   4.695   4.065   4.539
 9118TIP3   OH227230   3.784   4.368   4.333
 9118TIP3    H127231   3.788   4.449   4.282
 9118TIP3    H227232   3.690   4.353   4.346
 9119TIP3   OH227233   3.928   4.133   4.291
 9119TIP3    H127234   3.897   4.224   4.296
 9119TIP3    H227235   3.880   4.087   4.360
 9120TIP3   OH227236   3.705   4.608   4.192
 9120TIP3    H127237   3.619   4.615   4.233
 9120TIP3    H227238   3.739   4.698   4.193
 9121TIP3   OH227239   4.443   4.345   4.770
 9121TIP3    H127240   4.434   4.345   4.866
 9121TIP3    H227241   4.529   4.306   4.754
 9122TIP3   OH227242   4.416   4.237   3.648
 9122TIP3    H127243   4.466   4.216   3.727
 9122TIP3    H227244   4.325   4.213   3.671
 9123TIP3   OH227245   4.755   4.719   3.467
 9123TIP3    H127246   4.796   4.788   3.415
 9123TIP3    H227247   4.674   4.759   3.500
 9124TIP3   OH227248   3.774   3.490   5.334
 9124TIP3    H127249   3.679   3.498   5.347
 9124TIP3    H227250   3.804   3.432   5.404
 9125TIP3   OH227251   4.578   4.177   3.871
 9125TIP3    H127252   4.566   4.106   3.934
 9125TIP3    H227253   4.671   4.176   3.850
 9126TIP3   OH227254   3.784   4.218   3.646
 9126TIP3    H127255   3.794   4.129   3.613
 9126TIP3    H227256   3.763   4.208   3.739
 9127TIP3   OH227257   3.729   4.228   3.919
 9127TIP3    H127258   3.797   4.204   3.982
 9127TIP3    H227259   3.727   4.323   3.919
 9128TIP3   OH227260   3.477   3.936   4.130
 9128TIP3    H127261   3.402   3.967   4.181
 9128TIP3    H227262   3.481   3.994   4.055
 9129TIP3   OH227263   4.615   3.552   5.012
 9129TIP3    H127264   4.688   3.595   5.055
 9129TIP3    H227265   4.597   3.475   5.066
 9130TIP3   OH227266   4.478   3.322   4.179
 9130TIP3    H127267   4.475   3.335   4.084
 9130TIP3    H227268   4.529   3.396   4.211
 9131TIP3   OH227269   3.991   4.424   3.868
 9131TIP3    H127270   3.906   4.450   3.903
 9131TIP3    H227271   4.012   4.492   3.803
 9132TIP3   OH227272   4.184   3.497   4.283
 9132TIP3    H127273   4.276   3.494   4.256
 9132TIP3    H227274   4.187   3.482   4.377
 9133TIP3   OH227275   4.456   3.808   5.088
 9133TIP3    H127276   4.471   3.863   5.165
 9133TIP3    H227277   4.505   3.728   5.106
 9134TIP3   OH227278   4.327   3.220   4.384
 9134TIP3    H127279   4.344   3.278   4.457
 9134TIP3    H227280   4.384   3.251   4.314
 9135TIP3   OH227281   3.734   4.500   3.934
 9135TIP3    H127282   3.706   4.566   3.870
 9135TIP3    H227283   3.719   4.542   4.019
 9136TIP3   OH227284   3.838   3.214   4.172
 9136TIP3    H127285   3.835   3.302   4.209
 9136TIP3    H227286   3.930   3.189   4.177
 9137TIP3   OH227287   5.088   3.704   5.070
 9137TIP3    H127288   4.992   3.702   5.076
 9137TIP3    H227289   5.107   3.672   4.982
 9138TIP3   OH227290   4.746   3.896   4.460
 9138TIP3    H127291   4.686   3.823   4.478
 9138TIP3    H227292   4.828   3.871   4.502
 9139TIP3   OH227293   3.454   4.129   3.925
 9139TIP3    H127294   3.511   4.206   3.936
 9139TIP3    H227295   3.499   4.076   3.859
 9140TIP3   OH227296   4.718   4.847   4.401
 9140TIP3    H127297   4.672   4.895   4.333
 9140TIP3    H227298   4.810   4.872   4.392
 9141TIP3   OH227299   3.786   3.122   4.934
 9141TIP3    H127300   3.755   3.090   4.849
 9141TIP3    H227301   3.778   3.047   4.992
 9142TIP3   OH227302   3.324   4.340   4.314
 9142TIP3    H127303   3.255   4.371   4.373
 9142TIP3    H227304   3.302   4.380   4.230
 9143TIP3   OH227305   3.946   4.423   3.560
 9143TIP3    H127306   3.890   4.354   3.596
 9143TIP3    H227307   4.020   4.375   3.523
 9144TIP3   OH227308   4.382   4.465   3.469
 9144TIP3    H127309   4.429   4.406   3.527
 9144TIP3    H227310   4.435   4.468   3.389
 9145TIP3   OH227311   3.610   4.282   5.583
 9145TIP3    H127312   3.637   4.191   5.587
 9145TIP3    H227313   3.516   4.280   5.600
 9146TIP3   OH227314   3.591   3.943   3.777
 9146TIP3    H127315   3.644   3.911   3.850
 9146TIP3    H227316   3.652   3.948   3.703
 9147TIP3   OH227317   4.218   4.363   5.360
 9147TIP3    H127318   4.174   4.386   5.278
 9147TIP3    H227319   4.247   4.273   5.347
 9148TIP3   OH227320   4.101   4.141   3.590
 9148TIP3    H127321   4.101   4.154   3.685
 9148TIP3    H227322   4.101   4.046   3.580
 9149TIP3   OH227323   4.704   4.362   4.964
 9149TIP3    H127324   4.777   4.408   4.923
 9149TIP3    H227325   4.639   4.430   4.978
 9150TIP3   OH227326   3.734   4.022   5.572
 9150TIP3    H127327   3.808   3.966   5.549
 9150TIP3    H227328   3.756   4.057   5.658
 9151TIP3   OH227329   3.807   3.845   4.007
 9151TIP3    H127330   3.765   3.803   4.082
 9151TIP3    H227331   3.835   3.772   3.951
 9152TIP3   OH227332   4.065   3.909   5.227
 9152TIP3    H127333   3.990   3.968   5.233
 9152TIP3    H227334   4.115   3.942   5.152
 9153TIP3   OH227335   3.898   3.638   3.845
 9153TIP3    H127336   3.866   3.640   3.755
 9153TIP3    H227337   3.994   3.642   3.836
 9154TIP3   OH227338   4.578   4.287   5.340
 9154TIP3    H127339   4.670   4.308   5.328
 9154TIP3    H227340   4.573   4.246   5.427
 9155TIP3   OH227341   4.720   3.971   3.502
 9155TIP3    H127342   4.700   3.922   3.423
 9155TIP3    H227343   4.690   4.060   3.484
 9156TIP3   OH227344   4.189   3.697   5.355
 9156TIP3    H127345   4.189   3.617   5.303
 9156TIP3    H227346   4.146   3.762   5.300
 9157TIP3   OH227347   4.189   3.480   5.165
 9157TIP3    H127348   4.219   3.525   5.086
 9157TIP3    H227349   4.098   3.459   5.148
 9158TIP3   OH227350   4.219   4.017   5.031
 9158TIP3    H127351   4.305   4.029   4.991
 9158TIP3    H227352   4.164   4.085   4.991
 9159TIP3   OH227353   4.803   3.987   5.419
 9159TIP3    H127354   4.851   3.905   5.432
 9159TIP3    H227355   4.867   4.048   5.384
 9160TIP3   OH227356   4.850   4.234   5.149
 9160TIP3    H127357   4.786   4.282   5.096
 9160TIP3    H227358   4.935   4.260   5.112
 9161TIP3   OH227359   4.065   3.809   5.584
 9161TIP3    H127360   3.998   3.743   5.601
 9161TIP3    H227361   4.102   3.785   5.499
 9162TIP3   OH227362   4.323   3.246   5.226
 9162TIP3    H127363   4.276   3.328   5.208
 9162TIP3    H227364   4.256   3.178   5.218
 9163TIP3   OH227365   4.449   3.750   5.448
 9163TIP3    H127366   4.444   3.742   5.544
 9163TIP3    H227367   4.362   3.727   5.417
 9164TIP3   OH227368   4.689   3.695   5.300
 9164TIP3    H127369   4.615   3.702   5.361
 9164TIP3    H227370   4.762   3.668   5.356
 9165TIP3   OH227371   4.918   3.639   5.453
 9165TIP3    H127372   4.930   3.546   5.472
 9165TIP3    H227373   4.913   3.681   5.539
 9166TIP3   OH227374   3.908   3.588   5.639
 9166TIP3    H127375   3.914   3.500   5.603
 9166TIP3    H227376   3.943   3.580   5.728
 9167TIP3   OH227377   4.416   3.257   5.485
 9167TIP3    H127378   4.485   3.191   5.484
 9167TIP3    H227379   4.376   3.252   5.398
 9168TIP3   OH227380   4.483   3.472   5.646
 9168TIP3    H127381   4.463   3.403   5.583
 9168TIP3    H227382   4.408   3.532   5.640
 9169TIP3   OH227383   3.706   4.699   3.744
 9169TIP3    H127384   3.801   4.697   3.729
 9169TIP3    H227385   3.671   4.748   3.669
 9170TIP3   OH227386   3.186   4.084   3.965
 9170TIP3    H127387   3.278   4.107   3.951
 9170TIP3    H227388   3.178   3.996   3.928
 9171TIP3   OH227389   3.099   4.692   4.377
 9171TIP3    H127390   3.032   4.635   4.339
 9171TIP3    H227391   3.144   4.638   4.442
 9172TIP3   OH227392   3.236   4.546   4.564
 9172TIP3    H127393   3.223   4.471   4.623
 9172TIP3    H227394   3.290   4.607   4.615
 9173TIP3   OH227395   4.977   4.951   4.381
 9173TIP3    H127396   4.986   5.032   4.432
 9173TIP3    H227397   5.011   4.973   4.294
 9174TIP3   OH227398   5.043   4.644   5.225
 9174TIP3    H127399   4.967   4.650   5.284
 9174TIP3    H227400   5.081   4.732   5.225
 9175TIP3   OH227401   4.856   4.159   3.840
 9175TIP3    H127402   4.920   4.222   3.807
 9175TIP3    H227403   4.898   4.118   3.916
 9176TIP3   OH227404   4.981   4.025   4.042
 9176TIP3    H127405   4.919   3.984   4.102
 9176TIP3    H227406   5.049   4.062   4.099
 9177TIP3   OH227407   5.031   4.411   4.468
 9177TIP3    H127408   5.089   4.350   4.422
 9177TIP3    H227409   5.028   4.488   4.412
 9178TIP3   OH227410   4.918   3.933   3.690
 9178TIP3    H127411   4.851   3.933   3.621
 9178TIP3    H227412   4.895   4.008   3.744
 9179TIP3   OH227413   4.790   3.604   3.644
 9179TIP3    H127414   4.751   3.648   3.568
 9179TIP3    H227415   4.766   3.512   3.633
 9180TIP3   OH227416   4.792   3.880   4.188
 9180TIP3    H127417   4.808   3.786   4.178
 9180TIP3    H227418   4.786   3.892   4.283
 9181TIP3   OH227419   3.428   3.946   4.934
 9181TIP3    H127420   3.421   3.920   4.842
 9181TIP3    H227421   3.522   3.953   4.950
 9182TIP3   OH227422   5.088   4.312   5.042
 9182TIP3    H127423   5.160   4.251   5.030
 9182TIP3    H227424   5.092   4.369   4.965
 9183TIP3   OH227425   5.268   4.109   5.065
 9183TIP3    H127426   5.195   4.061   5.104
 9183TIP3    H227427   5.343   4.051   5.075
 9184TIP3   OH227428   4.735   3.338   3.629
 9184TIP3    H127429   4.809   3.309   3.684
 9184TIP3    H227430   4.663   3.280   3.654
 9185TIP3   OH227431   4.799   3.599   4.084
 9185TIP3    H127432   4.834   3.511   4.102
 9185TIP3    H227433   4.852   3.631   4.011
 9186TIP3   OH227434   4.959   3.779   4.578
 9186TIP3    H127435   5.043   3.799   4.536
 9186TIP3    H227436   4.969   3.810   4.668
 9187TIP3   OH227437   5.020   3.915   4.812
 9187TIP3    H127438   4.946   3.949   4.861
 9187TIP3    H227439   5.056   3.992   4.766
 9188TIP3   OH227440   3.642   3.640   5.610
 9188TIP3    H127441   3.737   3.636   5.611
 9188TIP3    H227442   3.614   3.558   5.651
 9189TIP3   OH227443   5.475   3.505   5.365
 9189TIP3    H127444   5.532   3.439   5.325
 9189TIP3    H227445   5.447   3.560   5.291
 9190TIP3   OH227446   4.901   3.345   4.124
 9190TIP3    H127447   4.950   3.332   4.204
 9190TIP3    H227448   4.841   3.270   4.120
 9191TIP3   OH227449   3.604   3.331   4.934
 9191TIP3    H127450   3.663   3.256   4.949
 9191TIP3    H227451   3.662   3.407   4.934
 9192TIP3   OH227452   3.407   3.607   5.013
 9192TIP3    H127453   3.455   3.604   4.930
 9192TIP3    H227454   3.426   3.694   5.049
 9193TIP3   OH227455   5.344   3.645   5.172
 9193TIP3    H127456   5.262   3.687   5.199
 9193TIP3    H227457   5.318   3.575   5.114
 9194TIP3   OH227458   4.985   3.281   3.754
 9194TIP3    H127459   5.024   3.211   3.701
 9194TIP3    H227460   5.048   3.353   3.749
 9195TIP3   OH227461   3.385   3.112   4.514
 9195TIP3    H127462   3.295   3.104   4.546
 9195TIP3    H227463   3.377   3.164   4.435
 9196TIP3   OH227464   4.548   4.813   4.021
 9196TIP3    H127465   4.594   4.798   3.939
 9196TIP3    H227466   4.598   4.881   4.065
 9197TIP3   OH227467   3.605   3.190   5.328
 9197TIP3    H127468   3.559   3.184   5.412
 9197TIP3    H227469   3.541   3.229   5.269
 9198TIP3   OH227470   5.245   3.407   5.049
 9198TIP3    H127471   5.155   3.404   5.017
 9198TIP3    H227472   5.277   3.317   5.038
 9199TIP3   OH227473   4.155   4.910   4.626
 9199TIP3    H127474   4.094   4.946   4.561
 9199TIP3    H227475   4.199   4.987   4.662
 9200TIP3   OH227476   4.603   5.065   4.585
 9200TIP3    H127477   4.613   5.148   4.540
 9200TIP3    H227478   4.626   4.999   4.519
 9201TIP3   OH227479   3.415   4.702   4.715
 9201TIP3    H127480   3.446   4.702   4.806
 9201TIP3    H227481   3.485   4.657   4.667
 9202TIP3   OH227482   3.607   4.569   4.577
 9202TIP3    H127483   3.622   4.487   4.624
 9202TIP3    H227484   3.694   4.608   4.568
 9203TIP3   OH227485   3.867   4.662   4.573
 9203TIP3    H127486   3.903   4.574   4.563
 9203TIP3    H227487   3.913   4.698   4.649
 9204TIP3   OH227488   4.438   3.312   4.652
 9204TIP3    H127489   4.402   3.252   4.717
 9204TIP3    H227490   4.520   3.273   4.624
 9205TIP3   OH227491   4.972   3.202   4.572
 9205TIP3    H127492   5.010   3.253   4.500
 9205TIP3    H227493   4.879   3.223   4.569
 9206TIP3   OH227494   5.070   3.304   4.337
 9206TIP3    H127495   5.140   3.251   4.298
 9206TIP3    H227496   5.100   3.395   4.324
 9207TIP3   OH227497   3.698   3.030   4.684
 9207TIP3    H127498   3.607   2.999   4.687
 9207TIP3    H227499   3.750   2.949   4.682
 9208TIP3   OH227500   3.483   2.902   4.332
 9208TIP3    H127501   3.513   2.959   4.262
 9208TIP3    H227502   3.454   2.962   4.401
 9209TIP3   OH227503   4.140   3.068   4.566
 9209TIP3    H127504   4.199   3.116   4.508
 9209TIP3    H227505   4.162   3.099   4.654
 9210TIP3   OH227506   4.687   3.210   4.552
 9210TIP3    H127507   4.690   3.175   4.462
 9210TIP3    H227508   4.675   3.132   4.607
 9211TIP3   OH227509   4.718   3.130   4.113
 9211TIP3    H127510   4.630   3.169   4.114
 9211TIP3    H227511   4.707   3.047   4.160
 9212TIP3   OH227512   3.200   4.474   4.114
 9212TIP3    H127513   3.117   4.438   4.080
 9212TIP3    H227514   3.194   4.568   4.097
 9213TIP3   OH227515   3.610   3.061   4.102
 9213TIP3    H127516   3.651   2.996   4.044
 9213TIP3    H227517   3.684   3.113   4.135
 9214TIP3   OH227518   4.114   3.240   4.200
 9214TIP3    H127519   4.174   3.192   4.257
 9214TIP3    H227520   4.128   3.332   4.223
 9215TIP3   OH227521   3.976   4.660   3.693
 9215TIP3    H127522   4.062   4.687   3.661
 9215TIP3    H227523   3.950   4.587   3.637
 9216TIP3   OH227524   4.683   4.773   3.786
 9216TIP3    H127525   4.677   4.678   3.773
 9216TIP3    H227526   4.645   4.810   3.707
 9217TIP3   OH227527   3.907   3.312   5.577
 9217TIP3    H127528   3.870   3.243   5.632
 9217TIP3    H227529   4.000   3.315   5.602
 9218TIP3   OH227530   4.156   3.308   5.696
 9218TIP3    H127531   4.239   3.286   5.656
 9218TIP3    H227532   4.142   3.240   5.762
 9219TIP3   OH227533   3.277   4.494   3.753
 9219TIP3    H127534   3.277   4.529   3.842
 9219TIP3    H227535   3.365   4.456   3.742
 9220TIP3   OH227536   4.982   3.369   5.485
 9220TIP3    H127537   4.999   3.339   5.574
 9220TIP3    H227538   5.068   3.367   5.443
 9221TIP3   OH227539   6.184   4.298   3.743
 9221TIP3    H127540   6.158   4.388   3.726
 9221TIP3    H227541   6.114   4.245   3.705
 9222TIP3   OH227542   6.182   4.297   4.124
 9222TIP3    H127543   6.214   4.266   4.209
 9222TIP3    H227544   6.142   4.220   4.084
 9223TIP3   OH227545   5.485   4.184   4.482
 9223TIP3    H127546   5.514   4.119   4.546
 9223TIP3    H227547   5.548   4.255   4.489
 9224TIP3   OH227548   6.428   4.599   3.803
 9224TIP3    H127549   6.414   4.531   3.869
 9224TIP3    H227550   6.454   4.676   3.853
 9225TIP3   OH227551   5.461   4.600   4.215
 9225TIP3    H127552   5.444   4.506   4.219
 9225TIP3    H227553   5.556   4.606   4.204
 9226TIP3   OH227554   5.158   3.801   4.000
 9226TIP3    H127555   5.117   3.887   4.014
 9226TIP3    H227556   5.090   3.749   3.957
 9227TIP3   OH227557   5.223   4.088   4.163
 9227TIP3    H127558   5.270   4.015   4.203
 9227TIP3    H227559   5.283   4.120   4.095
 9228TIP3   OH227560   6.066   5.053   3.813
 9228TIP3    H127561   6.124   4.986   3.776
 9228TIP3    H227562   6.075   5.041   3.908
 9229TIP3   OH227563   5.987   4.523   4.170
 9229TIP3    H127564   6.017   4.444   4.125
 9229TIP3    H227565   6.067   4.570   4.193
 9230TIP3   OH227566   6.998   3.844   4.168
 9230TIP3    H127567   7.024   3.924   4.215
 9230TIP3    H227568   7.013   3.864   4.076
 9231TIP3   OH227569   6.395   4.022   4.203
 9231TIP3    H127570   6.436   3.939   4.225
 9231TIP3    H227571   6.364   4.010   4.113
 9232TIP3   OH227572   5.727   3.684   4.167
 9232TIP3    H127573   5.713   3.756   4.105
 9232TIP3    H227574   5.684   3.609   4.126
 9233TIP3   OH227575   6.430   3.771   3.795
 9233TIP3    H127576   6.501   3.756   3.858
 9233TIP3    H227577   6.473   3.809   3.718
 9234TIP3   OH227578   5.368   3.882   4.274
 9234TIP3    H127579   5.448   3.868   4.324
 9234TIP3    H227580   5.380   3.830   4.195
 9235TIP3   OH227581   5.809   4.080   4.067
 9235TIP3    H127582   5.901   4.059   4.081
 9235TIP3    H227583   5.771   3.999   4.034
 9236TIP3   OH227584   7.067   4.051   4.340
 9236TIP3    H127585   6.986   4.097   4.318
 9236TIP3    H227586   7.084   4.076   4.431
 9237TIP3   OH227587   5.727   3.666   4.603
 9237TIP3    H127588   5.671   3.704   4.535
 9237TIP3    H227589   5.679   3.683   4.685
 9238TIP3   OH227590   6.082   4.520   3.609
 9238TIP3    H127591   6.034   4.486   3.534
 9238TIP3    H227592   6.041   4.604   3.628
 9239TIP3   OH227593   5.834   4.445   4.401
 9239TIP3    H127594   5.774   4.506   4.443
 9239TIP3    H227595   5.875   4.496   4.331
 9240TIP3   OH227596   6.643   3.774   3.965
 9240TIP3    H127597   6.622   3.731   4.047
 9240TIP3    H227598   6.692   3.852   3.990
 9241TIP3   OH227599   5.602   3.782   4.388
 9241TIP3    H127600   5.659   3.855   4.413
 9241TIP3    H227601   5.646   3.741   4.313
 9242TIP3   OH227602   5.648   4.632   4.502
 9242TIP3    H127603   5.611   4.710   4.462
 9242TIP3    H227604   5.576   4.594   4.552
 9243TIP3   OH227605   5.057   4.325   3.731
 9243TIP3    H127606   5.018   4.351   3.647
 9243TIP3    H227607   5.086   4.408   3.770
 9244TIP3   OH227608   6.485   4.834   3.954
 9244TIP3    H127609   6.399   4.826   3.997
 9244TIP3    H227610   6.485   4.923   3.919
 9245TIP3   OH227611   6.789   3.741   4.333
 9245TIP3    H127612   6.702   3.771   4.306
 9245TIP3    H227613   6.847   3.773   4.264
 9246TIP3   OH227614   6.085   3.386   4.319
 9246TIP3    H127615   6.073   3.292   4.332
 9246TIP3    H227616   6.011   3.426   4.364
 9247TIP3   OH227617   6.214   4.887   3.654
 9247TIP3    H127618   6.257   4.804   3.629
 9247TIP3    H227619   6.258   4.953   3.600
 9248TIP3   OH227620   6.348   4.669   3.550
 9248TIP3    H127621   6.298   4.595   3.517
 9248TIP3    H227622   6.381   4.640   3.635
 9249TIP3   OH227623   6.733   4.741   4.326
 9249TIP3    H127624   6.720   4.675   4.257
 9249TIP3    H227625   6.723   4.824   4.280
 9250TIP3   OH227626   6.019   4.155   3.569
 9250TIP3    H127627   5.932   4.188   3.548
 9250TIP3    H227628   6.062   4.143   3.485
 9251TIP3   OH227629   5.983   3.956   3.273
 9251TIP3    H127630   6.050   3.985   3.335
 9251TIP3    H227631   6.001   3.863   3.259
 9252TIP3   OH227632   6.919   4.390   4.159
 9252TIP3    H127633   6.836   4.438   4.166
 9252TIP3    H227634   6.951   4.410   4.071
 9253TIP3   OH227635   6.366   4.238   3.550
 9253TIP3    H127636   6.309   4.259   3.624
 9253TIP3    H227637   6.448   4.209   3.591
 9254TIP3   OH227638   6.597   4.271   4.455
 9254TIP3    H127639   6.599   4.351   4.507
 9254TIP3    H227640   6.513   4.274   4.409
 9255TIP3   OH227641   5.598   4.229   3.962
 9255TIP3    H127642   5.550   4.175   3.899
 9255TIP3    H227643   5.672   4.176   3.989
 9256TIP3   OH227644   5.730   4.640   4.108
 9256TIP3    H127645   5.704   4.597   4.027
 9256TIP3    H227646   5.817   4.605   4.126
 9257TIP3   OH227647   5.740   4.198   4.314
 9257TIP3    H127648   5.768   4.179   4.224
 9257TIP3    H227649   5.777   4.284   4.334
 9258TIP3   OH227650   6.253   4.830   4.084
 9258TIP3    H127651   6.240   4.918   4.118
 9258TIP3    H227652   6.237   4.773   4.160
 9259TIP3   OH227653   5.870   4.729   4.643
 9259TIP3    H127654   5.854   4.822   4.660
 9259TIP3    H227655   5.792   4.698   4.598
 9260TIP3   OH227656   6.218   4.087   3.374
 9260TIP3    H127657   6.270   4.149   3.425
 9260TIP3    H227658   6.235   4.110   3.283
 9261TIP3   OH227659   5.616   4.306   4.728
 9261TIP3    H127660   5.636   4.385   4.778
 9261TIP3    H227661   5.521   4.294   4.739
 9262TIP3   OH227662   5.954   4.765   3.642
 9262TIP3    H127663   6.028   4.822   3.666
 9262TIP3    H227664   5.877   4.819   3.660
 9263TIP3   OH227665   6.718   3.331   3.418
 9263TIP3    H127666   6.639   3.348   3.470
 9263TIP3    H227667   6.733   3.412   3.370
 9264TIP3   OH227668   5.451   4.076   3.780
 9264TIP3    H127669   5.396   4.119   3.714
 9264TIP3    H227670   5.426   3.983   3.774
 9265TIP3   OH227671   6.520   4.698   2.966
 9265TIP3    H127672   6.526   4.793   2.953
 9265TIP3    H227673   6.610   4.667   2.954
 9266TIP3   OH227674   5.290   4.413   4.605
 9266TIP3    H127675   5.197   4.401   4.582
 9266TIP3    H227676   5.304   4.354   4.678
 9267TIP3   OH227677   5.093   4.645   4.313
 9267TIP3    H127678   5.188   4.641   4.304
 9267TIP3    H227679   5.076   4.734   4.346
 9268TIP3   OH227680   5.281   4.849   3.822
 9268TIP3    H127681   5.318   4.851   3.910
 9268TIP3    H227682   5.195   4.810   3.833
 9269TIP3   OH227683   6.043   4.902   3.103
 9269TIP3    H127684   6.087   4.845   3.040
 9269TIP3    H227685   6.089   4.886   3.185
 9270TIP3   OH227686   6.855   4.229   4.634
 9270TIP3    H127687   6.772   4.248   4.589
 9270TIP3    H227688   6.867   4.135   4.625
 9271TIP3   OH227689   5.845   3.462   4.445
 9271TIP3    H127690   5.759   3.429   4.419
 9271TIP3    H227691   5.826   3.545   4.491
 9272TIP3   OH227692   6.381   3.574   4.640
 9272TIP3    H127693   6.447   3.551   4.705
 9272TIP3    H227694   6.297   3.557   4.684
 9273TIP3   OH227695   6.622   4.008   4.561
 9273TIP3    H127696   6.573   4.002   4.642
 9273TIP3    H227697   6.597   4.093   4.524
 9274TIP3   OH227698   6.282   4.137   3.113
 9274TIP3    H127699   6.245   4.109   3.029
 9274TIP3    H227700   6.361   4.186   3.089
 9275TIP3   OH227701   5.995   3.507   3.414
 9275TIP3    H127702   5.954   3.526   3.499
 9275TIP3    H227703   5.955   3.424   3.387
 9276TIP3   OH227704   5.777   3.978   4.466
 9276TIP3    H127705   5.728   3.997   4.546
 9276TIP3    H227706   5.764   4.055   4.411
 9277TIP3   OH227707   5.668   3.859   3.967
 9277TIP3    H127708   5.577   3.834   3.981
 9277TIP3    H227709   5.681   3.850   3.873
 9278TIP3   OH227710   6.155   3.959   3.706
 9278TIP3    H127711   6.097   4.025   3.667
 9278TIP3    H227712   6.201   3.920   3.632
 9279TIP3   OH227713   6.326   4.221   4.788
 9279TIP3    H127714   6.306   4.153   4.852
 9279TIP3    H227715   6.414   4.251   4.811
 9280TIP3   OH227716   6.309   3.976   3.941
 9280TIP3    H127717   6.248   4.008   3.874
 9280TIP3    H227718   6.343   3.894   3.905
 9281TIP3   OH227719   5.597   4.004   4.675
 9281TIP3    H127720   5.620   4.072   4.738
 9281TIP3    H227721   5.589   3.925   4.728
 9282TIP3   OH227722   5.635   3.478   3.384
 9282TIP3    H127723   5.642   3.482   3.479
 9282TIP3    H227724   5.575   3.550   3.361
 9283TIP3   OH227725   5.191   3.527   4.256
 9283TIP3    H127726   5.265   3.561   4.307
 9283TIP3    H227727   5.231   3.500   4.173
 9284TIP3   OH227728   5.164   3.511   3.776
 9284TIP3    H127729   5.207   3.544   3.697
 9284TIP3    H227730   5.102   3.580   3.800
 9285TIP3   OH227731   6.319   4.221   4.368
 9285TIP3    H127732   6.353   4.154   4.309
 9285TIP3    H227733   6.292   4.173   4.446
 9286TIP3   OH227734   5.985   3.675   4.054
 9286TIP3    H127735   5.903   3.681   4.103
 9286TIP3    H227736   6.053   3.688   4.120
 9287TIP3   OH227737   5.423   3.740   4.046
 9287TIP3    H127738   5.332   3.748   4.021
 9287TIP3    H227739   5.447   3.650   4.023
 9288TIP3   OH227740   6.480   3.758   4.241
 9288TIP3    H127741   6.451   3.773   4.331
 9288TIP3    H227742   6.414   3.698   4.205
 9289TIP3   OH227743   5.640   4.519   4.896
 9289TIP3    H127744   5.710   4.563   4.945
 9289TIP3    H227745   5.574   4.499   4.961
 9290TIP3   OH227746   6.074   4.011   4.137
 9290TIP3    H127747   6.144   3.974   4.084
 9290TIP3    H227748   6.086   3.971   4.224
 9291TIP3   OH227749   5.599   3.499   4.014
 9291TIP3    H127750   5.565   3.421   4.057
 9291TIP3    H227751   5.643   3.467   3.935
 9292TIP3   OH227752   6.049   3.908   4.431
 9292TIP3    H127753   5.961   3.946   4.441
 9292TIP3    H227754   6.106   3.968   4.478
 9293TIP3   OH227755   5.777   4.303   3.520
 9293TIP3    H127756   5.713   4.234   3.508
 9293TIP3    H227757   5.765   4.332   3.610
 9294TIP3   OH227758   6.687   4.532   4.148
 9294TIP3    H127759   6.709   4.583   4.070
 9294TIP3    H227760   6.602   4.493   4.129
 9295TIP3   OH227761   6.244   3.616   3.375
 9295TIP3    H127762   6.151   3.597   3.388
 9295TIP3    H227763   6.254   3.705   3.407
 9296TIP3   OH227764   6.197   4.640   4.533
 9296TIP3    H127765   6.228   4.588   4.607
 9296TIP3    H227766   6.120   4.685   4.565
 9297TIP3   OH227767   6.316   3.857   3.487
 9297TIP3    H127768   6.410   3.866   3.505
 9297TIP3    H227769   6.293   3.938   3.441
 9298TIP3   OH227770   5.480   4.322   4.199
 9298TIP3    H127771   5.517   4.293   4.116
 9298TIP3    H227772   5.513   4.260   4.263
 9299TIP3   OH227773   5.926   4.453   3.343
 9299TIP3    H127774   5.887   4.539   3.356
 9299TIP3    H227775   5.876   4.395   3.400
 9300TIP3   OH227776   5.353   4.249   4.821
 9300TIP3    H127777   5.387   4.239   4.910
 9300TIP3    H227778   5.291   4.176   4.811
 9301TIP3   OH227779   6.085   4.352   4.830
 9301TIP3    H127780   6.026   4.296   4.781
 9301TIP3    H227781   6.173   4.326   4.803
 9302TIP3   OH227782   6.757   3.950   3.319
 9302TIP3    H127783   6.697   3.902   3.262
 9302TIP3    H227784   6.756   4.040   3.285
 9303TIP3   OH227785   6.449   4.768   3.229
 9303TIP3    H127786   6.431   4.700   3.295
 9303TIP3    H227787   6.467   4.720   3.149
 9304TIP3   OH227788   6.450   4.396   4.072
 9304TIP3    H127789   6.357   4.373   4.084
 9304TIP3    H227790   6.487   4.321   4.026
 9305TIP3   OH227791   5.576   4.629   3.823
 9305TIP3    H127792   5.575   4.709   3.769
 9305TIP3    H227793   5.483   4.608   3.834
 9306TIP3   OH227794   5.141   3.933   3.524
 9306TIP3    H127795   5.190   4.013   3.543
 9306TIP3    H227796   5.067   3.935   3.584
 9307TIP3   OH227797   5.718   4.395   3.770
 9307TIP3    H127798   5.683   4.482   3.787
 9307TIP3    H227799   5.685   4.341   3.841
 9308TIP3   OH227800   5.508   4.865   3.672
 9308TIP3    H127801   5.423   4.866   3.716
 9308TIP3    H227802   5.538   4.956   3.675
 9309TIP3   OH227803   6.240   4.609   4.260
 9309TIP3    H127804   6.234   4.602   4.356
 9309TIP3    H227805   6.315   4.553   4.238
 9310TIP3   OH227806   6.209   4.499   3.134
 9310TIP3    H127807   6.264   4.475   3.209
 9310TIP3    H227808   6.121   4.467   3.158
 9311TIP3   OH227809   6.552   4.975   2.952
 9311TIP3    H127810   6.594   5.044   2.900
 9311TIP3    H227811   6.472   5.016   2.985
 9312TIP3   OH227812   5.572   3.746   4.822
 9312TIP3    H127813   5.477   3.753   4.835
 9312TIP3    H227814   5.602   3.688   4.892
 9313TIP3   OH227815   6.373   4.428   3.347
 9313TIP3    H127816   6.358   4.368   3.420
 9313TIP3    H227817   6.468   4.429   3.336
 9314TIP3   OH227818   5.580   4.478   3.133
 9314TIP3    H127819   5.592   4.389   3.100
 9314TIP3    H227820   5.559   4.466   3.226
 9315TIP3   OH227821   5.525   4.483   3.404
 9315TIP3    H127822   5.593   4.449   3.461
 9315TIP3    H227823   5.529   4.578   3.416
 9316TIP3   OH227824   5.257   4.178   3.608
 9316TIP3    H127825   5.193   4.220   3.666
 9316TIP3    H227826   5.274   4.243   3.540
 9317TIP3   OH227827   6.411   3.809   4.499
 9317TIP3    H127828   6.485   3.851   4.542
 9317TIP3    H227829   6.393   3.732   4.552
 9318TIP3   OH227830   6.299   3.559   3.659
 9318TIP3    H127831   6.272   3.585   3.571
 9318TIP3    H227832   6.324   3.641   3.702
 9319TIP3   OH227833   5.793   4.689   3.356
 9319TIP3    H127834   5.706   4.712   3.390
 9319TIP3    H227835   5.789   4.711   3.263
 9320TIP3   OH227836   6.026   3.718   3.778
 9320TIP3    H127837   6.039   3.806   3.742
 9320TIP3    H227838   5.991   3.733   3.866
 9321TIP3   OH227839   6.247   4.062   4.576
 9321TIP3    H127840   6.264   4.119   4.651
 9321TIP3    H227841   6.301   3.984   4.592
 9322TIP3   OH227842   6.130   3.471   3.873
 9322TIP3    H127843   6.098   3.550   3.918
 9322TIP3    H227844   6.183   3.504   3.802
 9323TIP3   OH227845   5.534   4.758   3.419
 9323TIP3    H127846   5.500   4.824   3.358
 9323TIP3    H227847   5.516   4.795   3.506
 9324TIP3   OH227848   5.636   3.479   3.660
 9324TIP3    H127849   5.633   3.574   3.662
 9324TIP3    H227850   5.728   3.457   3.671
 9325TIP3   OH227851   6.886   3.960   4.554
 9325TIP3    H127852   6.791   3.960   4.566
 9325TIP3    H227853   6.898   3.925   4.466
 9326TIP3   OH227854   6.538   4.155   3.944
 9326TIP3    H127855   6.461   4.099   3.955
 9326TIP3    H227856   6.608   4.110   3.992
 9327TIP3   OH227857   5.252   4.386   3.410
 9327TIP3    H127858   5.314   4.458   3.423
 9327TIP3    H227859   5.295   4.328   3.348
 9328TIP3   OH227860   5.186   3.660   3.553
 9328TIP3    H127861   5.203   3.753   3.543
 9328TIP3    H227862   5.111   3.642   3.496
 9329TIP3   OH227863   6.511   5.102   3.881
 9329TIP3    H127864   6.465   5.151   3.814
 9329TIP3    H227865   6.604   5.121   3.866
 9330TIP3   OH227866   5.582   3.380   4.421
 9330TIP3    H127867   5.551   3.350   4.336
 9330TIP3    H227868   5.571   3.304   4.479
 9331TIP3   OH227869   5.114   4.587   3.802
 9331TIP3    H127870   5.048   4.627   3.859
 9331TIP3    H227871   5.104   4.632   3.719
 9332TIP3   OH227872   5.747   4.686   3.068
 9332TIP3    H127873   5.685   4.617   3.091
 9332TIP3    H227874   5.817   4.641   3.022
 9333TIP3   OH227875   6.178   4.724   2.954
 9333TIP3    H127876   6.218   4.661   3.013
 9333TIP3    H227877   6.234   4.723   2.876
 9334TIP3   OH227878   5.391   4.197   3.268
 9334TIP3    H127879   5.440   4.157   3.340
 9334TIP3    H227880   5.454   4.204   3.196
 9335TIP3   OH227881   6.017   4.627   4.851
 9335TIP3    H127882   5.969   4.647   4.770
 9335TIP3    H227883   6.048   4.537   4.839
 9336TIP3   OH227884   5.895   4.396   3.074
 9336TIP3    H127885   5.896   4.408   3.169
 9336TIP3    H227886   5.895   4.301   3.063
 9337TIP3   OH227887   6.514   4.625   4.453
 9337TIP3    H127888   6.584   4.674   4.411
 9337TIP3    H227889   6.438   4.684   4.447
 9338TIP3   OH227890   5.536   4.261   5.049
 9338TIP3    H127891   5.620   4.215   5.044
 9338TIP3    H227892   5.540   4.308   5.132
 9339TIP3   OH227893   5.603   4.087   3.488
 9339TIP3    H127894   5.584   4.055   3.577
 9339TIP3    H227895   5.649   4.014   3.446
 9340TIP3   OH227896   5.863   4.167   4.715
 9340TIP3    H127897   5.784   4.222   4.719
 9340TIP3    H227898   5.911   4.198   4.639
 9341TIP3   OH227899   6.372   4.539   4.827
 9341TIP3    H127900   6.462   4.568   4.815
 9341TIP3    H227901   6.370   4.503   4.916
 9342TIP3   OH227902   6.517   4.229   2.986
 9342TIP3    H127903   6.496   4.178   2.908
 9342TIP3    H227904   6.486   4.317   2.968
 9343TIP3   OH227905   5.985   3.954   4.842
 9343TIP3    H127906   5.985   3.875   4.788
 9343TIP3    H227907   5.944   4.020   4.787
 9344TIP3   OH227908   5.987   3.738   4.647
 9344TIP3    H127909   6.016   3.782   4.567
 9344TIP3    H227910   5.895   3.717   4.632
 9345TIP3   OH227911   6.016   4.279   4.522
 9345TIP3    H127912   6.097   4.282   4.470
 9345TIP3    H227913   5.958   4.342   4.480
 9346TIP3   OH227914   6.598   4.243   4.907
 9346TIP3    H127915   6.649   4.163   4.915
 9346TIP3    H227916   6.660   4.307   4.871
 9347TIP3   OH227917   6.648   4.490   4.638
 9347TIP3    H127918   6.584   4.538   4.585
 9347TIP3    H227919   6.733   4.515   4.601
 9348TIP3   OH227920   5.862   4.065   5.073
 9348TIP3    H127921   5.794   3.999   5.088
 9348TIP3    H227922   5.898   4.044   4.987
 9349TIP3   OH227923   6.118   3.504   4.715
 9349TIP3    H127924   6.073   3.586   4.694
 9349TIP3    H227925   6.051   3.436   4.705
 9350TIP3   OH227926   6.246   4.005   4.935
 9350TIP3    H127927   6.238   3.997   5.030
 9350TIP3    H227928   6.158   3.984   4.902
 9351TIP3   OH227929   6.485   3.952   4.788
 9351TIP3    H127930   6.410   3.960   4.847
 9351TIP3    H227931   6.558   3.926   4.844
 9352TIP3   OH227932   6.718   3.898   4.940
 9352TIP3    H127933   6.727   3.804   4.959
 9352TIP3    H227934   6.711   3.938   5.027
 9353TIP3   OH227935   5.703   3.845   5.127
 9353TIP3    H127936   5.709   3.757   5.090
 9353TIP3    H227937   5.738   3.836   5.216
 9354TIP3   OH227938   6.217   3.512   4.971
 9354TIP3    H127939   6.283   3.443   4.968
 9354TIP3    H227940   6.175   3.509   4.885
 9355TIP3   OH227941   6.279   3.728   5.133
 9355TIP3    H127942   6.259   3.659   5.070
 9355TIP3    H227943   6.205   3.788   5.127
 9356TIP3   OH227944   5.507   4.965   3.233
 9356TIP3    H127945   5.596   4.965   3.197
 9356TIP3    H227946   5.452   5.000   3.163
 9357TIP3   OH227947   4.983   4.338   3.449
 9357TIP3    H127948   5.075   4.361   3.437
 9357TIP3    H227949   4.975   4.251   3.410
 9358TIP3   OH227950   4.880   4.944   3.863
 9358TIP3    H127951   4.816   4.880   3.830
 9358TIP3    H227952   4.934   4.894   3.925
 9359TIP3   OH227953   5.033   4.800   4.043
 9359TIP3    H127954   5.019   4.728   4.105
 9359TIP3    H227955   5.085   4.864   4.092
 9360TIP3   OH227956   6.762   5.206   3.831
 9360TIP3    H127957   6.763   5.274   3.898
 9360TIP3    H227958   6.812   5.243   3.758
 9361TIP3   OH227959   6.845   4.902   4.713
 9361TIP3    H127960   6.756   4.918   4.746
 9361TIP3    H227961   6.883   4.989   4.705
 9362TIP3   OH227962   6.654   4.414   3.326
 9362TIP3    H127963   6.720   4.477   3.297
 9362TIP3    H227964   6.692   4.374   3.404
 9363TIP3   OH227965   6.778   4.280   3.530
 9363TIP3    H127966   6.713   4.238   3.586
 9363TIP3    H227967   6.840   4.320   3.590
 9364TIP3   OH227968   6.817   4.663   3.949
 9364TIP3    H127969   6.878   4.607   3.900
 9364TIP3    H227970   6.811   4.743   3.896
 9365TIP3   OH227971   6.654   4.936   4.150
 9365TIP3    H127972   6.604   5.009   4.189
 9365TIP3    H227973   6.597   4.902   4.082
 9366TIP3   OH227974   6.714   4.190   3.175
 9366TIP3    H127975   6.646   4.190   3.107
 9366TIP3    H227976   6.692   4.263   3.232
 9367TIP3   OH227977   6.592   3.858   3.126
 9367TIP3    H127978   6.543   3.902   3.056
 9367TIP3    H227979   6.566   3.766   3.118
 9368TIP3   OH227980   6.594   4.136   3.677
 9368TIP3    H127981   6.599   4.041   3.669
 9368TIP3    H227982   6.580   4.152   3.771
 9369TIP3   OH227983   5.215   4.199   4.418
 9369TIP3    H127984   5.216   4.174   4.325
 9369TIP3    H227985   5.308   4.212   4.440
 9370TIP3   OH227986   6.882   4.569   4.530
 9370TIP3    H127987   6.958   4.513   4.511
 9370TIP3    H227988   6.876   4.627   4.454
 9371TIP3   OH227989   7.071   4.368   4.548
 9371TIP3    H127990   6.994   4.326   4.586
 9371TIP3    H227991   7.141   4.305   4.561
 9372TIP3   OH227992   6.533   3.592   3.114
 9372TIP3    H127993   6.603   3.564   3.172
 9372TIP3    H227994   6.457   3.540   3.140
 9373TIP3   OH227995   6.592   3.852   3.571
 9373TIP3    H127996   6.629   3.765   3.588
 9373TIP3    H227997   6.647   3.888   3.501
 9374TIP3   OH227998   6.755   4.028   4.066
 9374TIP3    H127999   6.837   4.052   4.024
 9374TIP3    H228000   6.761   4.064   4.155
 9375TIP3   OH228001   6.818   4.172   4.297
 9375TIP3    H128002   6.742   4.203   4.346
 9375TIP3    H228003   6.851   4.250   4.253
 9376TIP3   OH228004   5.436   3.894   5.092
 9376TIP3    H128005   5.531   3.893   5.094
 9376TIP3    H228006   5.410   3.813   5.136
 9377TIP3   OH228007   7.273   3.763   4.852
 9377TIP3    H128008   7.330   3.697   4.810
 9377TIP3    H228009   7.242   3.817   4.779
 9378TIP3   OH228010   6.700   3.601   3.608
 9378TIP3    H128011   6.746   3.589   3.690
 9378TIP3    H228012   6.637   3.529   3.604
 9379TIP3   OH228013   5.400   3.589   4.429
 9379TIP3    H128014   5.460   3.515   4.438
 9379TIP3    H228015   5.457   3.666   4.422
 9380TIP3   OH228016   5.203   3.864   4.499
 9380TIP3    H128017   5.251   3.858   4.416
 9380TIP3    H228018   5.225   3.951   4.533
 9381TIP3   OH228019   7.140   3.902   4.660
 9381TIP3    H128020   7.059   3.945   4.686
 9381TIP3    H228021   7.113   3.832   4.601
 9382TIP3   OH228022   6.781   3.538   3.240
 9382TIP3    H128023   6.819   3.467   3.188
 9382TIP3    H228024   6.845   3.609   3.234
 9383TIP3   OH228025   5.183   3.365   4.002
 9383TIP3    H128026   5.091   3.364   4.028
 9383TIP3    H228027   5.185   3.423   3.926
 9384TIP3   OH228028   6.324   5.083   3.492
 9384TIP3    H128029   6.386   5.061   3.422
 9384TIP3    H228030   6.376   5.134   3.554
 9385TIP3   OH228031   5.401   3.445   4.814
 9385TIP3    H128032   5.356   3.442   4.898
 9385TIP3    H228033   5.337   3.485   4.755
 9386TIP3   OH228034   7.040   3.664   4.535
 9386TIP3    H128035   6.950   3.665   4.503
 9386TIP3    H228036   7.069   3.573   4.524
 9387TIP3   OH228037   5.964   5.198   4.095
 9387TIP3    H128038   5.886   5.206   4.040
 9387TIP3    H228039   5.970   5.282   4.140
 9388TIP3   OH228040   6.225   5.097   4.125
 9388TIP3    H128041   6.143   5.147   4.117
 9388TIP3    H228042   6.289   5.161   4.156
 9389TIP3   OH228043   6.448   5.317   4.074
 9389TIP3    H128044   6.435   5.399   4.027
 9389TIP3    H228045   6.453   5.251   4.005
 9390TIP3   OH228046   5.207   4.951   4.205
 9390TIP3    H128047   5.247   4.966   4.291
 9390TIP3    H228048   5.277   4.912   4.152
 9391TIP3   OH228049   5.404   4.828   4.068
 9391TIP3    H128050   5.420   4.745   4.112
 9391TIP3    H228051   5.491   4.865   4.053
 9392TIP3   OH228052   5.666   4.915   4.057
 9392TIP3    H128053   5.700   4.826   4.050
 9392TIP3    H228054   5.699   4.946   4.141
 9393TIP3   OH228055   6.254   3.583   4.168
 9393TIP3    H128056   6.202   3.516   4.212
 9393TIP3    H228057   6.310   3.534   4.108
 9394TIP3   OH228058   6.771   3.458   4.059
 9394TIP3    H128059   6.807   3.511   3.988
 9394TIP3    H228060   6.677   3.475   4.057
 9395TIP3   OH228061   6.867   3.561   3.823
 9395TIP3    H128062   6.938   3.510   3.783
 9395TIP3    H228063   6.894   3.652   3.812
 9396TIP3   OH228064   5.494   3.287   4.173
 9396TIP3    H128065   5.403   3.258   4.173
 9396TIP3    H228066   5.544   3.205   4.167
 9397TIP3   OH228067   5.284   3.159   3.818
 9397TIP3    H128068   5.313   3.215   3.746
 9397TIP3    H228069   5.253   3.221   3.885
 9398TIP3   OH228070   5.943   3.317   4.055
 9398TIP3    H128071   5.995   3.369   3.993
 9398TIP3    H228072   5.955   3.361   4.139
 9399TIP3   OH228073   6.493   3.464   4.036
 9399TIP3    H128074   6.473   3.438   3.946
 9399TIP3    H228075   6.472   3.387   4.089
 9400TIP3   OH228076   6.513   3.389   3.598
 9400TIP3    H128077   6.433   3.440   3.611
 9400TIP3    H228078   6.496   3.306   3.643
 9401TIP3   OH228079   4.998   4.731   3.601
 9401TIP3    H128080   4.915   4.695   3.568
 9401TIP3    H228081   4.989   4.826   3.587
 9402TIP3   OH228082   5.400   3.313   3.589
 9402TIP3    H128083   5.447   3.259   3.526
 9402TIP3    H228084   5.467   3.373   3.623
 9403TIP3   OH228085   5.908   3.491   3.686
 9403TIP3    H128086   5.974   3.455   3.745
 9403TIP3    H228087   5.917   3.586   3.695
 9404TIP3   OH228088   5.791   4.964   3.185
 9404TIP3    H128089   5.880   4.954   3.152
 9404TIP3    H228090   5.746   4.885   3.156
 9405TIP3   OH228091   6.487   5.033   3.272
 9405TIP3    H128092   6.480   4.938   3.262
 9405TIP3    H228093   6.448   5.069   3.192
 9406TIP3   OH228094   5.704   3.567   5.064
 9406TIP3    H128095   5.666   3.499   5.120
 9406TIP3    H228096   5.796   3.570   5.089
 9407TIP3   OH228097   5.951   3.565   5.183
 9407TIP3    H128098   6.036   3.542   5.144
 9407TIP3    H228099   5.936   3.498   5.250
 9408TIP3   OH228100   5.075   4.756   3.239
 9408TIP3    H128101   5.068   4.785   3.330
 9408TIP3    H228102   5.162   4.715   3.234
 9409TIP3   OH228103   6.777   3.625   4.971
 9409TIP3    H128104   6.794   3.596   5.061
 9409TIP3    H228105   6.863   3.623   4.929
 9410TIP3   OH228106   7.983   4.551   3.225
 9410TIP3    H128107   7.960   4.643   3.212
 9410TIP3    H228108   7.905   4.503   3.197
 9411TIP3   OH228109   7.971   4.546   3.612
 9411TIP3    H128110   8.007   4.526   3.698
 9411TIP3    H228111   7.932   4.464   3.583
 9412TIP3   OH228112   7.284   4.442   3.965
 9412TIP3    H128113   7.309   4.376   4.030
 9412TIP3    H228114   7.350   4.511   3.974
 9413TIP3   OH228115   8.224   4.848   3.298
 9413TIP3    H128116   8.211   4.783   3.367
 9413TIP3    H228117   8.252   4.927   3.344
 9414TIP3   OH228118   7.264   4.859   3.709
 9414TIP3    H128119   7.243   4.766   3.713
 9414TIP3    H228120   7.356   4.863   3.682
 9415TIP3   OH228121   6.957   4.063   3.485
 9415TIP3    H128122   6.911   4.146   3.502
 9415TIP3    H228123   6.889   4.006   3.449
 9416TIP3   OH228124   7.022   4.346   3.649
 9416TIP3    H128125   7.066   4.272   3.691
 9416TIP3    H228126   7.079   4.371   3.577
 9417TIP3   OH228127   7.873   5.314   3.307
 9417TIP3    H128128   7.919   5.246   3.258
 9417TIP3    H228129   7.869   5.281   3.396
 9418TIP3   OH228130   7.784   4.778   3.660
 9418TIP3    H128131   7.814   4.703   3.609
 9418TIP3    H228132   7.865   4.822   3.687
 9419TIP3   OH228133   8.764   4.128   3.632
 9419TIP3    H128134   8.815   4.182   3.693
 9419TIP3    H228135   8.823   4.116   3.557
 9420TIP3   OH228136   8.221   4.285   3.678
 9420TIP3    H128137   8.241   4.195   3.702
 9420TIP3    H228138   8.178   4.278   3.593
 9421TIP3   OH228139   7.529   3.939   3.652
 9421TIP3    H128140   7.508   4.013   3.595
 9421TIP3    H228141   7.483   3.865   3.613
 9422TIP3   OH228142   8.228   4.032   3.282
 9422TIP3    H128143   8.297   4.024   3.348
 9422TIP3    H228144   8.273   4.064   3.204
 9423TIP3   OH228145   7.164   4.140   3.760
 9423TIP3    H128146   7.243   4.124   3.811
 9423TIP3    H228147   7.174   4.085   3.683
 9424TIP3   OH228148   7.605   4.338   3.551
 9424TIP3    H128149   7.696   4.314   3.567
 9424TIP3    H228150   7.564   4.256   3.522
 9425TIP3   OH228151   8.860   4.305   3.824
 9425TIP3    H128152   8.783   4.360   3.807
 9425TIP3    H228153   8.882   4.322   3.915
 9426TIP3   OH228154   7.523   3.923   4.091
 9426TIP3    H128155   7.467   3.959   4.022
 9426TIP3    H228156   7.475   3.939   4.172
 9427TIP3   OH228157   7.874   4.776   3.096
 9427TIP3    H128158   7.830   4.752   3.015
 9427TIP3    H228159   7.833   4.857   3.124
 9428TIP3   OH228160   7.631   4.704   3.889
 9428TIP3    H128161   7.574   4.769   3.930
 9428TIP3    H228162   7.675   4.750   3.818
 9429TIP3   OH228163   8.453   4.051   3.462
 9429TIP3    H128164   8.415   3.988   3.524
 9429TIP3    H228165   8.539   4.016   3.442
 9430TIP3   OH228166   7.400   4.038   3.873
 9430TIP3    H128167   7.457   4.110   3.899
 9430TIP3    H228168   7.445   3.997   3.799
 9431TIP3   OH228169   7.450   4.896   3.988
 9431TIP3    H128170   7.408   4.943   3.916
 9431TIP3    H228171   7.378   4.855   4.035
 9432TIP3   OH228172   6.857   4.583   3.218
 9432TIP3    H128173   6.813   4.607   3.137
 9432TIP3    H228174   6.886   4.666   3.256
 9433TIP3   OH228175   8.291   5.095   3.453
 9433TIP3    H128176   8.206   5.084   3.496
 9433TIP3    H228177   8.288   5.184   3.417
 9434TIP3   OH228178   8.585   4.006   3.823
 9434TIP3    H128179   8.493   4.019   3.797
 9434TIP3    H228180   8.635   4.032   3.746
 9435TIP3   OH228181   7.882   3.642   3.806
 9435TIP3    H128182   7.870   3.548   3.819
 9435TIP3    H228183   7.806   3.682   3.849
 9436TIP3   OH228184   8.000   5.144   3.130
 9436TIP3    H128185   8.046   5.061   3.114
 9436TIP3    H228186   8.057   5.211   3.093
 9437TIP3   OH228187   8.142   4.926   3.043
 9437TIP3    H128188   8.097   4.851   3.004
 9437TIP3    H228189   8.176   4.892   3.126
 9438TIP3   OH228190   7.810   4.403   3.057
 9438TIP3    H128191   7.731   4.454   3.040
 9438TIP3    H228192   7.856   4.401   2.973
 9439TIP3   OH228193   7.773   4.188   2.776
 9439TIP3    H128194   7.837   4.240   2.825
 9439TIP3    H228195   7.827   4.124   2.728
 9440TIP3   OH228196   8.731   4.640   3.642
 9440TIP3    H128197   8.645   4.682   3.645
 9440TIP3    H228198   8.768   4.668   3.559
 9441TIP3   OH228199   8.159   4.486   3.030
 9441TIP3    H128200   8.103   4.512   3.103
 9441TIP3    H228201   8.243   4.465   3.071
 9442TIP3   OH228202   8.393   4.532   3.933
 9442TIP3    H128203   8.404   4.626   3.948
 9442TIP3    H228204   8.306   4.524   3.895
 9443TIP3   OH228205   7.392   4.483   3.446
 9443TIP3    H128206   7.349   4.428   3.381
 9443TIP3    H228207   7.467   4.432   3.475
 9444TIP3   OH228208   7.522   4.891   3.598
 9444TIP3    H128209   7.500   4.855   3.512
 9444TIP3    H228210   7.611   4.859   3.616
 9445TIP3   OH228211   7.542   4.454   3.803
 9445TIP3    H128212   7.565   4.439   3.711
 9445TIP3    H228213   7.574   4.542   3.822
 9446TIP3   OH228214   8.052   5.095   3.581
 9446TIP3    H128215   8.051   5.172   3.638
 9446TIP3    H228216   8.041   5.021   3.641
 9447TIP3   OH228217   8.003   4.344   2.855
 9447TIP3    H128218   8.057   4.402   2.907
 9447TIP3    H228219   8.025   4.365   2.764
 9448TIP3   OH228220   7.409   4.565   4.217
 9448TIP3    H128221   7.422   4.620   4.294
 9448TIP3    H228222   7.316   4.542   4.219
 9449TIP3   OH228223   7.742   5.026   3.134
 9449TIP3    H128224   7.821   5.078   3.151
 9449TIP3    H228225   7.681   5.087   3.094
 9450TIP3   OH228226   8.516   3.589   2.906
 9450TIP3    H128227   8.435   3.605   2.955
 9450TIP3    H228228   8.529   3.668   2.854
 9451TIP3   OH228229   7.256   4.327   3.251
 9451TIP3    H128230   7.193   4.373   3.195
 9451TIP3    H228231   7.216   4.242   3.268
 9452TIP3   OH228232   8.316   4.954   2.452
 9452TIP3    H128233   8.321   5.049   2.439
 9452TIP3    H228234   8.406   4.924   2.441
 9453TIP3   OH228235   7.063   4.668   4.086
 9453TIP3    H128236   6.969   4.662   4.069
 9453TIP3    H228237   7.078   4.607   4.159
 9454TIP3   OH228238   6.889   4.902   3.790
 9454TIP3    H128239   6.984   4.901   3.794
 9454TIP3    H228240   6.864   4.986   3.830
 9455TIP3   OH228241   8.757   5.356   3.852
 9455TIP3    H128242   8.755   5.260   3.855
 9455TIP3    H228243   8.675   5.383   3.892
 9456TIP3   OH228244   7.878   5.141   3.983
 9456TIP3    H128245   7.881   5.234   4.006
 9456TIP3    H228246   7.829   5.100   4.054
 9457TIP3   OH228247   7.624   5.272   2.933
 9457TIP3    H128248   7.578   5.253   2.852
 9457TIP3    H228249   7.592   5.358   2.960
 9458TIP3   OH228250   7.062   5.117   3.320
 9458TIP3    H128251   7.110   5.110   3.402
 9458TIP3    H228252   7.001   5.044   3.322
 9459TIP3   OH228253   7.828   5.171   2.576
 9459TIP3    H128254   7.884   5.103   2.539
 9459TIP3    H228255   7.858   5.181   2.666
 9460TIP3   OH228256   7.875   5.219   2.847
 9460TIP3    H128257   7.788   5.230   2.885
 9460TIP3    H228258   7.927   5.180   2.918
 9461TIP3   OH228259   8.648   4.487   4.120
 9461TIP3    H128260   8.562   4.508   4.083
 9461TIP3    H228261   8.658   4.393   4.108
 9462TIP3   OH228262   7.641   3.720   3.931
 9462TIP3    H128263   7.556   3.685   3.905
 9462TIP3    H228264   7.620   3.801   3.979
 9463TIP3   OH228265   8.176   3.833   4.128
 9463TIP3    H128266   8.243   3.805   4.191
 9463TIP3    H228267   8.093   3.813   4.171
 9464TIP3   OH228268   8.420   4.271   4.050
 9464TIP3    H128269   8.368   4.260   4.129
 9464TIP3    H228270   8.389   4.353   4.012
 9465TIP3   OH228271   8.077   4.392   2.599
 9465TIP3    H128272   8.042   4.365   2.514
 9465TIP3    H228273   8.156   4.442   2.577
 9466TIP3   OH228274   7.788   3.765   2.905
 9466TIP3    H128275   7.757   3.766   2.995
 9466TIP3    H228276   7.751   3.685   2.867
 9467TIP3   OH228277   7.575   4.234   3.954
 9467TIP3    H128278   7.524   4.252   4.032
 9467TIP3    H228279   7.563   4.311   3.898
 9468TIP3   OH228280   7.457   4.117   3.463
 9468TIP3    H128281   7.367   4.095   3.484
 9468TIP3    H228282   7.472   4.079   3.377
 9469TIP3   OH228283   7.950   4.206   3.189
 9469TIP3    H128284   7.896   4.276   3.152
 9469TIP3    H228285   8.003   4.175   3.115
 9470TIP3   OH228286   8.125   4.483   4.281
 9470TIP3    H128287   8.099   4.413   4.341
 9470TIP3    H228288   8.217   4.499   4.301
 9471TIP3   OH228289   8.098   4.228   3.434
 9471TIP3    H128290   8.043   4.270   3.367
 9471TIP3    H228291   8.134   4.151   3.391
 9472TIP3   OH228292   7.397   4.260   4.163
 9472TIP3    H128293   7.407   4.326   4.231
 9472TIP3    H228294   7.382   4.178   4.210
 9473TIP3   OH228295   7.442   3.740   2.871
 9473TIP3    H128296   7.437   3.737   2.967
 9473TIP3    H228297   7.366   3.791   2.844
 9474TIP3   OH228298   6.988   3.784   3.740
 9474TIP3    H128299   7.061   3.815   3.793
 9474TIP3    H228300   7.028   3.753   3.659
 9475TIP3   OH228301   6.962   3.769   3.257
 9475TIP3    H128302   7.008   3.804   3.181
 9475TIP3    H228303   6.900   3.837   3.282
 9476TIP3   OH228304   8.117   4.471   3.850
 9476TIP3    H128305   8.155   4.404   3.793
 9476TIP3    H228306   8.088   4.423   3.928
 9477TIP3   OH228307   7.786   3.940   3.530
 9477TIP3    H128308   7.702   3.939   3.575
 9477TIP3    H228309   7.851   3.943   3.600
 9478TIP3   OH228310   7.219   3.996   3.533
 9478TIP3    H128311   7.128   4.006   3.508
 9478TIP3    H228312   7.241   3.906   3.511
 9479TIP3   OH228313   7.492   3.994   3.221
 9479TIP3    H128314   7.584   4.010   3.199
 9479TIP3    H228315   7.444   4.016   3.141
 9480TIP3   OH228316   8.275   4.012   3.729
 9480TIP3    H128317   8.246   4.029   3.819
 9480TIP3    H228318   8.208   3.954   3.693
 9481TIP3   OH228319   7.332   4.026   3.000
 9481TIP3    H128320   7.258   3.983   2.957
 9481TIP3    H228321   7.383   4.062   2.928
 9482TIP3   OH228322   8.448   5.707   3.946
 9482TIP3    H128323   8.441   5.726   3.853
 9482TIP3    H228324   8.523   5.759   3.976
 9483TIP3   OH228325   7.870   4.268   3.627
 9483TIP3    H128326   7.940   4.228   3.575
 9483TIP3    H228327   7.876   4.226   3.712
 9484TIP3   OH228328   7.395   3.755   3.502
 9484TIP3    H128329   7.359   3.679   3.548
 9484TIP3    H228330   7.442   3.719   3.427
 9485TIP3   OH228331   7.846   4.168   3.913
 9485TIP3    H128332   7.757   4.200   3.925
 9485TIP3    H228333   7.901   4.228   3.964
 9486TIP3   OH228334   7.582   4.556   3.011
 9486TIP3    H128335   7.512   4.492   2.997
 9486TIP3    H228336   7.566   4.591   3.099
 9487TIP3   OH228337   8.495   4.755   3.618
 9487TIP3    H128338   8.507   4.830   3.560
 9487TIP3    H228339   8.426   4.783   3.679
 9488TIP3   OH228340   8.040   3.869   2.873
 9488TIP3    H128341   7.946   3.852   2.878
 9488TIP3    H228342   8.049   3.962   2.893
 9489TIP3   OH228343   7.944   4.868   4.038
 9489TIP3    H128344   8.020   4.845   4.091
 9489TIP3    H228345   7.962   4.958   4.009
 9490TIP3   OH228346   8.113   4.118   2.973
 9490TIP3    H128347   8.208   4.125   2.984
 9490TIP3    H228348   8.090   4.195   2.921
 9491TIP3   OH228349   7.281   4.584   3.686
 9491TIP3    H128350   7.315   4.550   3.604
 9491TIP3    H228351   7.303   4.517   3.751
 9492TIP3   OH228352   7.725   4.707   2.831
 9492TIP3    H128353   7.681   4.792   2.834
 9492TIP3    H228354   7.674   4.651   2.889
 9493TIP3   OH228355   7.154   4.498   4.298
 9493TIP3    H128356   7.178   4.490   4.391
 9493TIP3    H228357   7.083   4.435   4.286
 9494TIP3   OH228358   7.882   4.608   4.321
 9494TIP3    H128359   7.818   4.555   4.275
 9494TIP3    H228360   7.967   4.578   4.288
 9495TIP3   OH228361   8.132   5.192   3.876
 9495TIP3    H128362   8.046   5.153   3.892
 9495TIP3    H228363   8.171   5.201   3.963
 9496TIP3   OH228364   8.550   4.208   2.808
 9496TIP3    H128365   8.491   4.159   2.751
 9496TIP3    H228366   8.551   4.296   2.771
 9497TIP3   OH228367   8.752   5.060   3.885
 9497TIP3    H128368   8.657   5.064   3.883
 9497TIP3    H228369   8.777   5.032   3.797
 9498TIP3   OH228370   8.254   5.025   2.718
 9498TIP3    H128371   8.226   4.958   2.780
 9498TIP3    H228372   8.265   4.978   2.635
 9499TIP3   OH228373   8.210   4.660   3.520
 9499TIP3    H128374   8.122   4.638   3.551
 9499TIP3    H228375   8.266   4.591   3.556
 9500TIP3   OH228376   7.374   4.885   3.311
 9500TIP3    H128377   7.378   4.964   3.257
 9500TIP3    H228378   7.281   4.865   3.318
 9501TIP3   OH228379   6.938   4.189   3.014
 9501TIP3    H128380   6.985   4.270   3.032
 9501TIP3    H228381   6.862   4.191   3.072
 9502TIP3   OH228382   7.514   4.651   3.256
 9502TIP3    H128383   7.481   4.739   3.272
 9502TIP3    H228384   7.479   4.598   3.328
 9503TIP3   OH228385   7.661   5.242   3.815
 9503TIP3    H128386   7.681   5.305   3.745
 9503TIP3    H228387   7.740   5.188   3.821
 9504TIP3   OH228388   7.296   5.122   3.164
 9504TIP3    H128389   7.211   5.129   3.207
 9504TIP3    H228390   7.331   5.211   3.165
 9505TIP3   OH228391   8.040   4.862   3.743
 9505TIP3    H128392   8.034   4.851   3.838
 9505TIP3    H228393   8.131   4.841   3.722
 9506TIP3   OH228394   8.006   4.751   2.621
 9506TIP3    H128395   8.060   4.729   2.697
 9506TIP3    H228396   7.917   4.727   2.647
 9507TIP3   OH228397   8.282   5.406   3.800
 9507TIP3    H128398   8.217   5.336   3.804
 9507TIP3    H228399   8.261   5.454   3.720
 9508TIP3   OH228400   8.346   5.232   2.440
 9508TIP3    H128401   8.386   5.300   2.386
 9508TIP3    H228402   8.266   5.272   2.475
 9509TIP3   OH228403   7.366   4.002   4.307
 9509TIP3    H128404   7.271   4.011   4.320
 9509TIP3    H228405   7.395   3.945   4.379
 9510TIP3   OH228406   8.169   4.686   2.835
 9510TIP3    H128407   8.155   4.623   2.905
 9510TIP3    H228408   8.264   4.687   2.822
 9511TIP3   OH228409   7.375   4.732   2.620
 9511TIP3    H128410   7.388   4.642   2.589
 9511TIP3    H228411   7.356   4.723   2.713
 9512TIP3   OH228412   7.321   4.741   2.892
 9512TIP3    H128413   7.390   4.712   2.953
 9512TIP3    H228414   7.323   4.836   2.897
 9513TIP3   OH228415   7.055   4.436   3.095
 9513TIP3    H128416   6.990   4.475   3.153
 9513TIP3    H228417   7.070   4.502   3.027
 9514TIP3   OH228418   8.208   4.066   3.987
 9514TIP3    H128419   8.281   4.106   4.033
 9514TIP3    H228420   8.186   3.988   4.038
 9515TIP3   OH228421   8.083   3.823   3.150
 9515TIP3    H128422   8.067   3.841   3.058
 9515TIP3    H228423   8.119   3.904   3.185
 9516TIP3   OH228424   7.584   4.939   2.840
 9516TIP3    H128425   7.499   4.962   2.877
 9516TIP3    H228426   7.603   5.010   2.778
 9517TIP3   OH228427   7.778   4.000   3.256
 9517TIP3    H128428   7.839   4.071   3.236
 9517TIP3    H228429   7.778   3.993   3.351
 9518TIP3   OH228430   8.046   4.319   4.064
 9518TIP3    H128431   8.059   4.376   4.139
 9518TIP3    H228432   8.097   4.240   4.084
 9519TIP3   OH228433   7.920   3.732   3.359
 9519TIP3    H128434   7.905   3.809   3.414
 9519TIP3    H228435   7.977   3.764   3.289
 9520TIP3   OH228436   7.327   5.013   2.908
 9520TIP3    H128437   7.299   5.080   2.845
 9520TIP3    H228438   7.312   5.054   2.994
 9521TIP3   OH228439   7.431   3.726   3.147
 9521TIP3    H128440   7.424   3.815   3.182
 9521TIP3    H228441   7.524   3.705   3.153
 9522TIP3   OH228442   8.682   4.217   4.038
 9522TIP3    H128443   8.588   4.222   4.053
 9522TIP3    H228444   8.691   4.162   3.960
 9523TIP3   OH228445   7.048   4.643   2.899
 9523TIP3    H128446   7.108   4.717   2.911
 9523TIP3    H228447   7.091   4.588   2.834
 9524TIP3   OH228448   6.991   3.919   3.031
 9524TIP3    H128449   6.991   4.015   3.029
 9524TIP3    H228450   6.905   3.894   2.996
 9525TIP3   OH228451   8.302   5.371   3.378
 9525TIP3    H128452   8.258   5.416   3.306
 9525TIP3    H228453   8.395   5.384   3.361
 9526TIP3   OH228454   7.380   3.635   3.907
 9526TIP3    H128455   7.347   3.606   3.822
 9526TIP3    H228456   7.368   3.560   3.965
 9527TIP3   OH228457   6.917   4.856   3.288
 9527TIP3    H128458   6.847   4.886   3.346
 9527TIP3    H228459   6.895   4.894   3.203
 9528TIP3   OH228460   7.537   4.935   2.532
 9528TIP3    H128461   7.480   4.868   2.570
 9528TIP3    H228462   7.613   4.886   2.499
 9529TIP3   OH228463   8.190   5.267   4.144
 9529TIP3    H128464   8.184   5.196   4.209
 9529TIP3    H228465   8.270   5.315   4.169
 9530TIP3   OH228466   7.975   4.978   2.443
 9530TIP3    H128467   8.018   4.915   2.501
 9530TIP3    H228468   8.029   4.979   2.364
 9531TIP3   OH228469   7.184   4.455   2.751
 9531TIP3    H128470   7.234   4.422   2.826
 9531TIP3    H228471   7.248   4.461   2.680
 9532TIP3   OH228472   7.807   4.877   4.317
 9532TIP3    H128473   7.788   4.864   4.224
 9532TIP3    H228474   7.852   4.797   4.343
 9533TIP3   OH228475   7.691   4.652   2.562
 9533TIP3    H128476   7.693   4.668   2.656
 9533TIP3    H228477   7.690   4.556   2.553
 9534TIP3   OH228478   7.347   4.527   4.525
 9534TIP3    H128479   7.411   4.459   4.545
 9534TIP3    H228480   7.338   4.577   4.606
 9535TIP3   OH228481   7.392   4.356   2.977
 9535TIP3    H128482   7.362   4.318   3.059
 9535TIP3    H228483   7.426   4.282   2.926
 9536TIP3   OH228484   7.664   4.428   4.204
 9536TIP3    H128485   7.581   4.476   4.202
 9536TIP3    H228486   7.709   4.455   4.124
 9537TIP3   OH228487   7.491   4.150   2.814
 9537TIP3    H128488   7.462   4.154   2.723
 9537TIP3    H228489   7.586   4.157   2.809
 9538TIP3   OH228490   8.178   4.823   4.338
 9538TIP3    H128491   8.252   4.798   4.284
 9538TIP3    H228492   8.174   4.756   4.407
 9539TIP3   OH228493   8.313   4.484   2.475
 9539TIP3    H128494   8.293   4.435   2.396
 9539TIP3    H228495   8.283   4.573   2.457
 9540TIP3   OH228496   7.784   4.211   4.326
 9540TIP3    H128497   7.781   4.131   4.274
 9540TIP3    H228498   7.740   4.276   4.273
 9541TIP3   OH228499   7.784   3.996   4.133
 9541TIP3    H128500   7.810   4.038   4.051
 9541TIP3    H228501   7.692   3.974   4.120
 9542TIP3   OH228502   7.815   4.534   4.004
 9542TIP3    H128503   7.897   4.545   3.957
 9542TIP3    H228504   7.757   4.600   3.967
 9543TIP3   OH228505   8.395   4.500   4.392
 9543TIP3    H128506   8.443   4.418   4.403
 9543TIP3    H228507   8.458   4.560   4.353
 9544TIP3   OH228508   8.444   4.760   4.143
 9544TIP3    H128509   8.382   4.790   4.077
 9544TIP3    H228510   8.530   4.771   4.102
 9545TIP3   OH228511   7.660   4.321   4.558
 9545TIP3    H128512   7.591   4.257   4.575
 9545TIP3    H228513   7.694   4.298   4.472
 9546TIP3   OH228514   7.915   3.761   4.201
 9546TIP3    H128515   7.868   3.843   4.180
 9546TIP3    H228516   7.848   3.693   4.192
 9547TIP3   OH228517   8.041   4.264   4.421
 9547TIP3    H128518   8.032   4.254   4.515
 9547TIP3    H228519   7.955   4.241   4.386
 9548TIP3   OH228520   8.282   4.211   4.275
 9548TIP3    H128521   8.206   4.216   4.333
 9548TIP3    H228522   8.353   4.181   4.332
 9549TIP3   OH228523   8.523   4.156   4.427
 9549TIP3    H128524   8.527   4.062   4.443
 9549TIP3    H228525   8.509   4.195   4.513
 9550TIP3   OH228526   7.501   4.102   4.612
 9550TIP3    H128527   7.504   4.013   4.576
 9550TIP3    H228528   7.535   4.092   4.702
 9551TIP3   OH228529   8.014   3.770   4.457
 9551TIP3    H128530   8.079   3.701   4.456
 9551TIP3    H228531   7.971   3.765   4.372
 9552TIP3   OH228532   8.077   3.987   4.617
 9552TIP3    H128533   8.056   3.916   4.556
 9552TIP3    H228534   8.001   4.045   4.614
 9553TIP3   OH228535   7.299   5.213   2.717
 9553TIP3    H128536   7.393   5.210   2.702
 9553TIP3    H228537   7.264   5.263   2.643
 9554TIP3   OH228538   6.779   4.595   2.935
 9554TIP3    H128539   6.871   4.618   2.923
 9554TIP3    H228540   6.771   4.508   2.896
 9555TIP3   OH228541   6.692   5.203   3.349
 9555TIP3    H128542   6.624   5.146   3.313
 9555TIP3    H228543   6.736   5.150   3.415
 9556TIP3   OH228544   6.830   5.058   3.536
 9556TIP3    H128545   6.812   4.984   3.595
 9556TIP3    H228546   6.881   5.119   3.589
 9557TIP3   OH228547   8.557   5.458   3.336
 9557TIP3    H128548   8.579   5.491   3.424
 9557TIP3    H228549   8.613   5.508   3.277
 9558TIP3   OH228550   8.585   5.481   3.617
 9558TIP3    H128551   8.533   5.401   3.611
 9558TIP3    H228552   8.660   5.457   3.671
 9559TIP3   OH228553   8.635   5.163   4.195
 9559TIP3    H128554   8.559   5.163   4.252
 9559TIP3    H228555   8.673   5.250   4.205
 9560TIP3   OH228556   8.449   4.671   2.812
 9560TIP3    H128557   8.513   4.736   2.782
 9560TIP3    H228558   8.490   4.632   2.889
 9561TIP3   OH228559   8.577   4.538   3.015
 9561TIP3    H128560   8.513   4.496   3.072
 9561TIP3    H228561   8.639   4.579   3.075
 9562TIP3   OH228562   8.640   4.937   3.452
 9562TIP3    H128563   8.678   4.870   3.396
 9562TIP3    H228564   8.617   5.008   3.392
 9563TIP3   OH228565   8.466   5.236   3.641
 9563TIP3    H128566   8.397   5.250   3.705
 9563TIP3    H228567   8.430   5.171   3.580
 9564TIP3   OH228568   8.510   4.447   2.663
 9564TIP3    H128569   8.443   4.445   2.594
 9564TIP3    H228570   8.487   4.521   2.718
 9565TIP3   OH228571   8.383   4.118   2.618
 9565TIP3    H128572   8.343   4.158   2.540
 9565TIP3    H228573   8.359   4.026   2.611
 9566TIP3   OH228574   8.391   4.388   3.163
 9566TIP3    H128575   8.393   4.295   3.143
 9566TIP3    H228576   8.355   4.393   3.251
 9567TIP3   OH228577   7.011   4.447   3.905
 9567TIP3    H128578   7.011   4.427   3.811
 9567TIP3    H228579   7.103   4.466   3.926
 9568TIP3   OH228580   8.686   4.817   4.026
 9568TIP3    H128581   8.756   4.753   4.012
 9568TIP3    H228582   8.698   4.883   3.958
 9569TIP3   OH228583   8.868   4.618   4.033
 9569TIP3    H128584   8.792   4.576   4.073
 9569TIP3    H228585   8.940   4.557   4.048
 9570TIP3   OH228586   8.325   3.855   2.609
 9570TIP3    H128587   8.401   3.820   2.657
 9570TIP3    H228588   8.255   3.792   2.627
 9571TIP3   OH228589   8.391   4.112   3.059
 9571TIP3    H128590   8.425   4.024   3.075
 9571TIP3    H228591   8.444   4.145   2.986
 9572TIP3   OH228592   8.591   4.431   3.751
 9572TIP3    H128593   8.522   4.452   3.814
 9572TIP3    H228594   8.636   4.515   3.736
 9573TIP3   OH228595   7.234   4.151   4.582
 9573TIP3    H128596   7.330   4.148   4.584
 9573TIP3    H228597   7.207   4.070   4.624
 9574TIP3   OH228598   9.074   4.025   4.341
 9574TIP3    H128599   9.126   3.955   4.304
 9574TIP3    H228600   9.040   4.073   4.265
 9575TIP3   OH228601   8.490   3.859   3.099
 9575TIP3    H128602   8.542   3.839   3.177
 9575TIP3    H228603   8.430   3.785   3.091
 9576TIP3   OH228604   7.197   3.845   3.911
 9576TIP3    H128605   7.257   3.771   3.923
 9576TIP3    H228606   7.254   3.921   3.908
 9577TIP3   OH228607   7.000   4.120   3.988
 9577TIP3    H128608   7.046   4.115   3.904
 9577TIP3    H228609   7.016   4.210   4.018
 9578TIP3   OH228610   8.934   4.157   4.148
 9578TIP3    H128611   8.850   4.198   4.167
 9578TIP3    H228612   8.914   4.087   4.087
 9579TIP3   OH228613   8.579   3.794   2.728
 9579TIP3    H128614   8.612   3.722   2.674
 9579TIP3    H228615   8.643   3.864   2.717
 9580TIP3   OH228616   6.979   3.624   3.487
 9580TIP3    H128617   6.887   3.621   3.516
 9580TIP3    H228618   6.978   3.681   3.410
 9581TIP3   OH228619   8.141   5.326   2.993
 9581TIP3    H128620   8.190   5.312   2.912
 9581TIP3    H228621   8.191   5.394   3.039
 9582TIP3   OH228622   7.198   3.702   4.302
 9582TIP3    H128623   7.151   3.698   4.385
 9582TIP3    H228624   7.135   3.742   4.241
 9583TIP3   OH228625   7.852   5.401   4.074
 9583TIP3    H128626   7.898   5.406   4.158
 9583TIP3    H228627   7.906   5.452   4.014
 9584TIP3   OH228628   8.034   5.551   3.931
 9584TIP3    H128629   8.096   5.500   3.880
 9584TIP3    H228630   8.089   5.608   3.985
 9585TIP3   OH228631   8.835   3.917   4.022
 9585TIP3    H128632   8.744   3.908   3.994
 9585TIP3    H228633   8.871   3.828   4.014
 9586TIP3   OH228634   7.086   5.413   3.930
 9586TIP3    H128635   7.001   5.455   3.923
 9586TIP3    H228636   7.106   5.414   4.024
 9587TIP3   OH228637   7.343   5.416   3.806
 9587TIP3    H128638   7.261   5.405   3.855
 9587TIP3    H228639   7.314   5.446   3.720
 9588TIP3   OH228640   7.751   5.429   3.608
 9588TIP3    H128641   7.685   5.445   3.540
 9588TIP3    H228642   7.766   5.515   3.647
 9589TIP3   OH228643   8.021   5.376   3.653
 9589TIP3    H128644   7.929   5.389   3.631
 9589TIP3    H228645   8.067   5.447   3.609
 9590TIP3   OH228646   8.235   5.560   3.571
 9590TIP3    H128647   8.220   5.642   3.524
 9590TIP3    H228648   8.259   5.498   3.502
 9591TIP3   OH228649   7.009   5.215   3.690
 9591TIP3    H128650   7.048   5.240   3.774
 9591TIP3    H228651   7.080   5.170   3.644
 9592TIP3   OH228652   7.202   5.083   3.553
 9592TIP3    H128653   7.219   5.002   3.600
 9592TIP3    H228654   7.289   5.122   3.542
 9593TIP3   OH228655   7.464   5.180   3.554
 9593TIP3    H128656   7.501   5.092   3.543
 9593TIP3    H228657   7.487   5.205   3.644
 9594TIP3   OH228658   8.048   3.837   3.649
 9594TIP3    H128659   7.998   3.772   3.699
 9594TIP3    H228660   8.108   3.785   3.596
 9595TIP3   OH228661   8.567   3.728   3.554
 9595TIP3    H128662   8.603   3.766   3.474
 9595TIP3    H228663   8.472   3.729   3.541
 9596TIP3   OH228664   8.661   3.824   3.315
 9596TIP3    H128665   8.724   3.761   3.279
 9596TIP3    H228666   8.697   3.910   3.293
 9597TIP3   OH228667   7.290   3.543   3.659
 9597TIP3    H128668   7.199   3.514   3.660
 9597TIP3    H228669   7.341   3.462   3.655
 9598TIP3   OH228670   7.079   3.416   3.307
 9598TIP3    H128671   7.106   3.472   3.234
 9598TIP3    H228672   7.047   3.477   3.374
 9599TIP3   OH228673   7.736   3.577   3.539
 9599TIP3    H128674   7.794   3.627   3.481
 9599TIP3    H228675   7.750   3.615   3.626
 9600TIP3   OH228676   8.292   3.721   3.516
 9600TIP3    H128677   8.275   3.684   3.430
 9600TIP3    H228678   8.274   3.649   3.577
 9601TIP3   OH228679   8.309   3.646   3.087
 9601TIP3    H128680   8.223   3.688   3.094
 9601TIP3    H228681   8.297   3.561   3.131
 9602TIP3   OH228682   6.793   4.986   3.087
 9602TIP3    H128683   6.711   4.951   3.052
 9602TIP3    H228684   6.786   5.081   3.073
 9603TIP3   OH228685   7.195   3.574   3.070
 9603TIP3    H128686   7.242   3.512   3.013
 9603TIP3    H228687   7.264   3.629   3.107
 9604TIP3   OH228688   7.708   3.750   3.171
 9604TIP3    H128689   7.765   3.699   3.228
 9604TIP3    H228690   7.728   3.841   3.193
 9605TIP3   OH228691   7.568   5.173   2.666
 9605TIP3    H128692   7.654   5.199   2.635
 9605TIP3    H228693   7.542   5.100   2.610
 9606TIP3   OH228694   8.285   5.291   2.759
 9606TIP3    H128695   8.278   5.196   2.750
 9606TIP3    H228696   8.240   5.326   2.682
 9607TIP3   OH228697   7.501   3.825   4.551
 9607TIP3    H128698   7.462   3.757   4.606
 9607TIP3    H228699   7.593   3.828   4.577
 9608TIP3   OH228700   7.749   3.821   4.671
 9608TIP3    H128701   7.832   3.796   4.631
 9608TIP3    H228702   7.732   3.754   4.737
 9609TIP3   OH228703   6.871   5.010   2.727
 9609TIP3    H128704   6.868   5.040   2.818
 9609TIP3    H228705   6.958   4.972   2.717
 9610TIP3   OH228706   8.573   3.883   4.459
 9610TIP3    H128707   8.588   3.852   4.548
 9610TIP3    H228708   8.659   3.877   4.416
 9611TIP3   OH228709   8.508   5.439   3.953
 9611TIP3    H128710   8.435   5.405   3.901
 9611TIP3    H228711   8.495   5.534   3.954
 9612TIP3   OH228712   9.081   4.704   3.461
 9612TIP3    H128713   9.110   4.636   3.522
 9612TIP3    H228714   9.154   4.765   3.456
 9613TIP3   OH228715   9.043   5.112   3.195
 9613TIP3    H128716   9.035   5.017   3.196
 9613TIP3    H228717   9.135   5.129   3.175
 9614TIP3   OH228718   8.748   4.316   2.974
 9614TIP3    H128719   8.705   4.400   2.986
 9614TIP3    H228720   8.683   4.261   2.931
 9615TIP3   OH228721   8.817   4.604   3.143
 9615TIP3    H128722   8.861   4.528   3.179
 9615TIP3    H228723   8.870   4.630   3.068
 9616TIP3   OH228724   9.558   5.515   2.819
 9616TIP3    H128725   9.636   5.531   2.765
 9616TIP3    H228726   9.591   5.520   2.909
 9617TIP3   OH228727   9.528   5.046   3.139
 9617TIP3    H128728   9.530   4.988   3.064
 9617TIP3    H228729   9.619   5.053   3.168
 9618TIP3   OH228730   9.305   4.199   3.151
 9618TIP3    H128731   9.310   4.264   3.082
 9618TIP3    H228732   9.279   4.118   3.107
 9619TIP3   OH228733   8.951   4.392   3.255
 9619TIP3    H128734   9.032   4.378   3.304
 9619TIP3    H228735   8.964   4.343   3.174
 9620TIP3   OH228736   9.361   4.611   3.030
 9620TIP3    H128737   9.455   4.595   3.043
 9620TIP3    H228738   9.326   4.527   3.001
 9621TIP3   OH228739   9.315   4.180   3.582
 9621TIP3    H128740   9.260   4.214   3.512
 9621TIP3    H228741   9.266   4.199   3.662
 9622TIP3   OH228742   9.401   4.965   3.366
 9622TIP3    H128743   9.345   5.031   3.407
 9622TIP3    H228744   9.443   5.011   3.293
 9623TIP3   OH228745   9.186   4.296   3.368
 9623TIP3    H128746   9.248   4.365   3.390
 9623TIP3    H228747   9.225   4.252   3.292
 9624TIP3   OH228748   9.247   5.158   3.476
 9624TIP3    H128749   9.226   5.242   3.434
 9624TIP3    H228750   9.171   5.139   3.530
 9625TIP3   OH228751   8.652   4.840   2.705
 9625TIP3    H128752   8.610   4.864   2.622
 9625TIP3    H228753   8.681   4.923   2.742
 9626TIP3   OH228754   9.163   4.758   2.920
 9626TIP3    H128755   9.123   4.700   2.855
 9626TIP3    H228756   9.236   4.707   2.955
 9627TIP3   OH228757   9.288   5.166   3.073
 9627TIP3    H128758   9.271   5.126   2.987
 9627TIP3    H228759   9.372   5.130   3.100
 9628TIP3   OH228760   9.332   4.710   3.292
 9628TIP3    H128761   9.345   4.696   3.198
 9628TIP3    H228762   9.357   4.802   3.307
 9629TIP3   OH228763   9.456   5.274   3.615
 9629TIP3    H128764   9.398   5.335   3.661
 9629TIP3    H228765   9.397   5.218   3.564
 9630TIP3   OH228766   9.209   4.831   3.716
 9630TIP3    H128767   9.215   4.916   3.758
 9630TIP3    H228768   9.117   4.807   3.723
 9631TIP3   OH228769   9.510   5.310   2.643
 9631TIP3    H128770   9.517   5.377   2.711
 9631TIP3    H228771   9.449   5.346   2.579
 9632TIP3   OH228772   9.253   5.441   3.700
 9632TIP3    H128773   9.222   5.439   3.610
 9632TIP3    H228774   9.177   5.416   3.753
 9633TIP3   OH228775   9.048   4.582   2.736
 9633TIP3    H128776   8.985   4.627   2.680
 9633TIP3    H228777   9.012   4.494   2.748
 9634TIP3   OH228778   8.833   4.968   3.646
 9634TIP3    H128779   8.767   4.952   3.579
 9634TIP3    H228780   8.869   4.881   3.666
 9635TIP3   OH228781   8.690   5.165   3.275
 9635TIP3    H128782   8.786   5.160   3.270
 9635TIP3    H228783   8.672   5.241   3.330
 9636TIP3   OH228784   9.649   5.402   3.470
 9636TIP3    H128785   9.650   5.493   3.502
 9636TIP3    H228786   9.580   5.360   3.521
 9637TIP3   OH228787   9.405   5.524   2.434
 9637TIP3    H128788   9.376   5.509   2.344
 9637TIP3    H228789   9.390   5.617   2.449
 9638TIP3   OH228790   8.858   5.375   2.807
 9638TIP3    H128791   8.906   5.368   2.889
 9638TIP3    H228792   8.797   5.302   2.808
 9639TIP3   OH228793   9.036   5.152   3.642
 9639TIP3    H128794   9.087   5.133   3.720
 9639TIP3    H228795   8.963   5.089   3.644
 9640TIP3   OH228796   9.424   3.970   3.433
 9640TIP3    H128797   9.339   3.943   3.398
 9640TIP3    H228798   9.407   4.054   3.475
 9641TIP3   OH228799   9.372   4.483   3.433
 9641TIP3    H128800   9.325   4.503   3.514
 9641TIP3    H228801   9.364   4.563   3.380
 9642TIP3   OH228802   9.251   4.374   2.947
 9642TIP3    H128803   9.164   4.345   2.974
 9642TIP3    H228804   9.260   4.344   2.857
 9643TIP3   OH228805   9.189   4.514   3.648
 9643TIP3    H128806   9.220   4.578   3.712
 9643TIP3    H228807   9.181   4.432   3.697
 9644TIP3   OH228808   9.220   4.035   2.366
 9644TIP3    H128809   9.202   3.964   2.427
 9644TIP3    H228810   9.166   4.016   2.289
 9645TIP3   OH228811   8.783   4.045   3.234
 9645TIP3    H128812   8.863   4.074   3.278
 9645TIP3    H228813   8.812   4.015   3.148
 9646TIP3   OH228814   8.759   4.026   2.749
 9646TIP3    H128815   8.803   4.057   2.670
 9646TIP3    H228816   8.695   4.094   2.770
 9647TIP3   OH228817   9.013   4.254   3.024
 9647TIP3    H128818   8.922   4.259   2.995
 9647TIP3    H228819   9.041   4.165   3.002
 9648TIP3   OH228820   9.267   4.282   2.686
 9648TIP3    H128821   9.340   4.284   2.624
 9648TIP3    H228822   9.189   4.289   2.630
 9649TIP3   OH228823   9.097   4.291   2.480
 9649TIP3    H128824   9.034   4.240   2.431
 9649TIP3    H228825   9.167   4.310   2.417
 9650TIP3   OH228826   9.201   5.073   3.859
 9650TIP3    H128827   9.280   5.104   3.905
 9650TIP3    H228828   9.133   5.072   3.927
 9651TIP3   OH228829   9.187   4.015   2.982
 9651TIP3    H128830   9.154   3.940   3.031
 9651TIP3    H228831   9.238   3.977   2.911
 9652TIP3   OH228832   9.345   4.828   2.492
 9652TIP3    H128833   9.288   4.751   2.495
 9652TIP3    H228834   9.363   4.848   2.584
 9653TIP3   OH228835   9.727   5.133   3.510
 9653TIP3    H128836   9.762   5.111   3.596
 9653TIP3    H228837   9.706   5.226   3.515
 9654TIP3   OH228838   9.074   4.838   3.174
 9654TIP3    H128839   9.100   4.812   3.086
 9654TIP3    H228840   9.106   4.767   3.230
 9655TIP3   OH228841   8.952   4.755   3.786
 9655TIP3    H128842   8.969   4.740   3.879
 9655TIP3    H228843   8.883   4.692   3.764
 9656TIP3   OH228844   9.646   4.822   3.823
 9656TIP3    H128845   9.560   4.794   3.792
 9656TIP3    H228846   9.704   4.748   3.803
 9657TIP3   OH228847   9.170   5.140   2.795
 9657TIP3    H128848   9.175   5.219   2.741
 9657TIP3    H228849   9.076   5.121   2.801
 9658TIP3   OH228850   8.733   4.446   2.499
 9658TIP3    H128851   8.780   4.527   2.517
 9658TIP3    H228852   8.658   4.448   2.558
 9659TIP3   OH228853   9.340   4.920   2.772
 9659TIP3    H128854   9.291   5.002   2.763
 9659TIP3    H228855   9.281   4.862   2.821
 9660TIP3   OH228856   9.443   5.482   3.266
 9660TIP3    H128857   9.476   5.554   3.213
 9660TIP3    H228858   9.519   5.450   3.314
 9661TIP3   OH228859   9.092   5.379   2.651
 9661TIP3    H128860   9.007   5.386   2.695
 9661TIP3    H228861   9.126   5.469   2.650
 9662TIP3   OH228862   9.163   4.262   3.801
 9662TIP3    H128863   9.067   4.263   3.808
 9662TIP3    H228864   9.191   4.195   3.864
 9663TIP3   OH228865   8.882   5.346   3.424
 9663TIP3    H128866   8.929   5.269   3.454
 9663TIP3    H228867   8.907   5.415   3.487
 9664TIP3   OH228868   9.175   4.986   2.107
 9664TIP3    H128869   9.192   4.896   2.080
 9664TIP3    H228870   9.158   4.980   2.201
 9665TIP3   OH228871   9.121   4.993   2.379
 9665TIP3    H128872   9.203   4.962   2.418
 9665TIP3    H228873   9.124   5.088   2.391
 9666TIP3   OH228874   8.850   4.693   2.581
 9666TIP3    H128875   8.785   4.734   2.639
 9666TIP3    H228876   8.867   4.759   2.514
 9667TIP3   OH228877   9.373   5.220   2.335
 9667TIP3    H128878   9.284   5.233   2.370
 9667TIP3    H228879   9.387   5.297   2.279
 9668TIP3   OH228880   9.109   5.271   2.394
 9668TIP3    H128881   9.083   5.339   2.332
 9668TIP3    H228882   9.100   5.312   2.480
 9669TIP3   OH228883   9.231   3.985   2.648
 9669TIP3    H128884   9.188   4.066   2.677
 9669TIP3    H228885   9.312   4.015   2.607
 9670TIP3   OH228886   8.845   4.902   2.388
 9670TIP3    H128887   8.909   4.972   2.402
 9670TIP3    H228888   8.885   4.846   2.322
 9671TIP3   OH228889   8.784   4.175   2.527
 9671TIP3    H128890   8.787   4.271   2.518
 9671TIP3    H228891   8.711   4.148   2.471
 9672TIP3   OH228892   9.156   3.895   3.396
 9672TIP3    H128893   9.137   3.863   3.308
 9672TIP3    H228894   9.159   3.816   3.451
 9673TIP3   OH228895   8.713   5.113   2.775
 9673TIP3    H128896   8.643   5.143   2.832
 9673TIP3    H228897   8.692   5.150   2.690
 9674TIP3   OH228898   8.870   5.650   3.848
 9674TIP3    H128899   8.955   5.650   3.892
 9674TIP3    H228900   8.845   5.558   3.843
 9675TIP3   OH228901   9.355   5.619   3.889
 9675TIP3    H128902   9.447   5.596   3.899
 9675TIP3    H228903   9.324   5.563   3.817
 9676TIP3   OH228904   9.321   5.202   2.021
 9676TIP3    H128905   9.269   5.130   2.056
 9676TIP3    H228906   9.412   5.173   2.032
 9677TIP3   OH228907   8.993   5.058   4.042
 9677TIP3    H128908   9.014   4.965   4.047
 9677TIP3    H228909   8.907   5.062   4.001
 9678TIP3   OH228910   8.976   4.713   2.244
 9678TIP3    H128911   9.029   4.681   2.317
 9678TIP3    H228912   9.039   4.721   2.171
 9679TIP3   OH228913   9.594   5.140   3.820
 9679TIP3    H128914   9.561   5.165   3.733
 9679TIP3    H228915   9.614   5.046   3.811
 9680TIP3   OH228916   9.124   4.794   4.031
 9680TIP3    H128917   9.199   4.741   4.005
 9680TIP3    H228918   9.147   4.828   4.117
 9681TIP3   OH228919   9.182   4.605   2.468
 9681TIP3    H128920   9.151   4.569   2.551
 9681TIP3    H228921   9.215   4.529   2.420
 9682TIP3   OH228922   9.431   4.679   3.706
 9682TIP3    H128923   9.352   4.733   3.709
 9682TIP3    H228924   9.479   4.712   3.630
 9683TIP3   OH228925   9.285   4.402   2.312
 9683TIP3    H128926   9.244   4.399   2.225
 9683TIP3    H228927   9.378   4.415   2.294
 9684TIP3   OH228928   9.542   4.466   3.844
 9684TIP3    H128929   9.568   4.388   3.796
 9684TIP3    H228930   9.494   4.519   3.779
 9685TIP3   OH228931   9.563   4.280   3.638
 9685TIP3    H128932   9.612   4.263   3.558
 9685TIP3    H228933   9.481   4.232   3.627
 9686TIP3   OH228934   9.556   4.803   3.512
 9686TIP3    H128935   9.606   4.762   3.441
 9686TIP3    H228936   9.505   4.872   3.469
 9687TIP3   OH228937   9.417   4.601   4.043
 9687TIP3    H128938   9.366   4.523   4.064
 9687TIP3    H228939   9.469   4.576   3.966
 9688TIP3   OH228940   9.297   4.361   4.102
 9688TIP3    H128941   9.304   4.279   4.053
 9688TIP3    H228942   9.331   4.341   4.189
 9689TIP3   OH228943   9.092   5.473   2.203
 9689TIP3    H128944   9.187   5.470   2.191
 9689TIP3    H228945   9.060   5.521   2.127
 9690TIP3   OH228946   8.576   4.851   2.423
 9690TIP3    H128947   8.667   4.876   2.410
 9690TIP3    H228948   8.568   4.765   2.382
 9691TIP3   OH228949   8.489   5.462   2.837
 9691TIP3    H128950   8.421   5.405   2.800
 9691TIP3    H228951   8.532   5.408   2.903
 9692TIP3   OH228952   8.626   5.317   3.025
 9692TIP3    H128953   8.611   5.242   3.084
 9692TIP3    H228954   8.674   5.380   3.079
 9693TIP3   OH228955   8.817   4.715   3.395
 9693TIP3    H128956   8.810   4.692   3.303
 9693TIP3    H228957   8.911   4.722   3.411
 9694TIP3   OH228958   9.030   4.405   4.072
 9694TIP3    H128959   9.125   4.401   4.068
 9694TIP3    H228960   9.004   4.321   4.110
 9695TIP3   OH228961   8.986   4.107   3.422
 9695TIP3    H128962   9.040   4.029   3.419
 9695TIP3    H228963   9.046   4.179   3.403
 9696TIP3   OH228964   8.755   4.386   3.475
 9696TIP3    H128965   8.803   4.360   3.397
 9696TIP3    H228966   8.799   4.466   3.505
 9697TIP3   OH228967   8.773   3.895   2.985
 9697TIP3    H128968   8.679   3.879   2.998
 9697TIP3    H228969   8.778   3.943   2.902
 9698TIP3   OH228970   8.992   3.976   3.794
 9698TIP3    H128971   8.944   3.956   3.874
 9698TIP3    H228972   8.923   3.988   3.727
 9699TIP3   OH228973   9.036   5.385   3.869
 9699TIP3    H128974   8.947   5.360   3.847
 9699TIP3    H228975   9.043   5.369   3.963
 9700TIP3   OH228976   9.215   5.425   3.414
 9700TIP3    H128977   9.161   5.495   3.376
 9700TIP3    H228978   9.300   5.434   3.370
 9701TIP3   OH228979   9.675   5.670   3.550
 9701TIP3    H128980   9.697   5.666   3.643
 9701TIP3    H228981   9.751   5.712   3.509
 9702TIP3   OH228982   8.891   5.680   3.438
 9702TIP3    H128983   8.805   5.709   3.408
 9702TIP3    H228984   8.897   5.710   3.529
 9703TIP3   OH228985   9.127   5.658   3.294
 9703TIP3    H128986   9.044   5.669   3.341
 9703TIP3    H228987   9.109   5.689   3.205
 9704TIP3   OH228988   9.535   5.687   3.089
 9704TIP3    H128989   9.468   5.701   3.022
 9704TIP3    H228990   9.549   5.773   3.128
 9705TIP3   OH228991   9.800   5.650   3.136
 9705TIP3    H128992   9.706   5.641   3.120
 9705TIP3    H228993   9.824   5.733   3.096
 9706TIP3   OH228994   8.806   5.471   3.183
 9706TIP3    H128995   8.827   5.445   3.273
 9706TIP3    H228996   8.873   5.428   3.130
 9707TIP3   OH228997   8.996   5.341   3.039
 9707TIP3    H128998   9.010   5.259   3.087
 9707TIP3    H228999   9.083   5.379   3.032
 9708TIP3   OH229000   9.260   5.441   3.041
 9708TIP3    H129001   9.282   5.350   3.024
 9708TIP3    H229002   9.302   5.461   3.125
 9709TIP3   OH229003   9.078   3.807   3.143
 9709TIP3    H129004   8.986   3.784   3.141
 9709TIP3    H229005   9.124   3.723   3.146
 9710TIP3   OH229006   8.877   3.672   2.793
 9710TIP3    H129007   8.904   3.726   2.719
 9710TIP3    H229008   8.846   3.735   2.858
 9711TIP3   OH229009   8.588   5.242   2.573
 9711TIP3    H129010   8.506   5.207   2.541
 9711TIP3    H229011   8.581   5.337   2.558
 9712TIP3   OH229012   8.983   3.837   2.570
 9712TIP3    H129013   9.015   3.771   2.507
 9712TIP3    H229014   9.062   3.879   2.603
 9713TIP3   OH229015   9.366   5.439   2.156
 9713TIP3    H129016   9.460   5.450   2.147
 9713TIP3    H229017   9.344   5.368   2.096
 9714TIP3   OH229018   9.261   4.078   4.022
 9714TIP3    H129019   9.225   4.010   4.079
 9714TIP3    H229020   9.353   4.083   4.047
 9715TIP3   OH229021   9.498   4.089   4.156
 9715TIP3    H129022   9.591   4.094   4.135
 9715TIP3    H229023   9.491   4.017   4.219
 9716TIP3   OH229024   8.667   5.269   2.214
 9716TIP3    H129025   8.664   5.295   2.306
 9716TIP3    H229026   8.754   5.229   2.204
 9717TIP3   OH229027   0.430   5.341   4.919
 9717TIP3    H129028   0.406   5.432   4.900
 9717TIP3    H229029   0.357   5.290   4.884
 9718TIP3   OH229030   0.441   5.336   5.295
 9718TIP3    H129031   0.466   5.309   5.383
 9718TIP3    H229032   0.397   5.259   5.258
 9719TIP3   OH229033   0.675   5.644   4.982
 9719TIP3    H129034   0.662   5.572   5.043
 9719TIP3    H229035   0.705   5.717   5.036
 9720TIP3   OH229036   0.325   6.106   4.994
 9720TIP3    H129037   0.368   6.034   4.949
 9720TIP3    H229038   0.306   6.072   5.081
 9721TIP3   OH229039   0.223   5.514   5.329
 9721TIP3    H129040   0.297   5.464   5.294
 9721TIP3    H229041   0.262   5.594   5.364
 9722TIP3   OH229042   1.241   4.889   5.343
 9722TIP3    H129043   1.271   4.967   5.389
 9722TIP3    H229044   1.268   4.902   5.252
 9723TIP3   OH229045   0.640   5.067   5.381
 9723TIP3    H129046   0.686   4.986   5.403
 9723TIP3    H229047   0.613   5.055   5.290
 9724TIP3   OH229048   9.816   4.724   5.348
 9724TIP3    H129049   9.779   4.803   5.308
 9724TIP3    H229050   9.779   4.652   5.297
 9725TIP3   OH229051   0.678   4.819   4.969
 9725TIP3    H129052   0.745   4.803   5.034
 9725TIP3    H229053   0.726   4.853   4.893
 9726TIP3   OH229054   0.056   5.134   5.262
 9726TIP3    H129055   0.148   5.107   5.264
 9726TIP3    H229056   0.011   5.063   5.217
 9727TIP3   OH229057   1.315   5.094   5.516
 9727TIP3    H129058   1.234   5.139   5.497
 9727TIP3    H229059   1.335   5.117   5.607
 9728TIP3   OH229060   0.325   5.562   4.786
 9728TIP3    H129061   0.288   5.537   4.702
 9728TIP3    H229062   0.280   5.643   4.810
 9729TIP3   OH229063   0.885   4.822   5.141
 9729TIP3    H129064   0.885   4.767   5.220
 9729TIP3    H229065   0.942   4.896   5.163
 9730TIP3   OH229066   0.746   5.887   5.150
 9730TIP3    H129067   0.660   5.875   5.190
 9730TIP3    H229068   0.740   5.970   5.103
 9731TIP3   OH229069   1.037   4.788   5.510
 9731TIP3    H129070   0.951   4.817   5.479
 9731TIP3    H229071   1.097   4.819   5.442
 9732TIP3   OH229072   0.332   4.425   5.491
 9732TIP3    H129073   0.330   4.330   5.507
 9732TIP3    H229074   0.262   4.459   5.548
 9733TIP3   OH229075   0.452   5.931   4.822
 9733TIP3    H129076   0.497   5.848   4.804
 9733TIP3    H229077   0.508   5.998   4.784
 9734TIP3   OH229078   0.591   5.716   4.729
 9734TIP3    H129079   0.555   5.639   4.686
 9734TIP3    H229080   0.627   5.683   4.812
 9735TIP3   OH229081   0.972   5.799   5.490
 9735TIP3    H129082   0.962   5.721   5.435
 9735TIP3    H229083   0.957   5.873   5.431
 9736TIP3   OH229084   0.265   5.192   4.747
 9736TIP3    H129085   0.186   5.242   4.725
 9736TIP3    H229086   0.314   5.187   4.664
 9737TIP3   OH229087   0.227   4.974   4.469
 9737TIP3    H129088   0.291   5.028   4.516
 9737TIP3    H229089   0.280   4.912   4.420
 9738TIP3   OH229090   1.166   5.437   5.335
 9738TIP3    H129091   1.085   5.487   5.343
 9738TIP3    H229092   1.198   5.456   5.247
 9739TIP3   OH229093   0.612   5.275   4.724
 9739TIP3    H129094   0.556   5.299   4.798
 9739TIP3    H229095   0.695   5.249   4.763
 9740TIP3   OH229096   0.845   5.317   5.633
 9740TIP3    H129097   0.846   5.397   5.684
 9740TIP3    H229098   0.762   5.320   5.585
 9741TIP3   OH229099  -0.014   5.232   5.505
 9741TIP3    H129100   0.015   5.197   5.421
 9741TIP3    H229101   0.037   5.313   5.515
 9742TIP3   OH229102   0.508   5.882   5.272
 9742TIP3    H129103   0.490   5.958   5.329
 9742TIP3    H229104   0.492   5.806   5.328
 9743TIP3   OH229105   0.455   5.134   4.546
 9743TIP3    H129106   0.510   5.191   4.599
 9743TIP3    H229107   0.478   5.156   4.456
 9744TIP3   OH229108   0.191   5.819   4.829
 9744TIP3    H129109   0.276   5.860   4.847
 9744TIP3    H229110   0.144   5.882   4.775
 9745TIP3   OH229111   0.967   4.376   4.595
 9745TIP3    H129112   0.888   4.393   4.646
 9745TIP3    H229113   0.981   4.457   4.545
 9746TIP3   OH229114   0.769   5.743   4.141
 9746TIP3    H129115   0.777   5.838   4.131
 9746TIP3    H229116   0.858   5.710   4.134
 9747TIP3   OH229117   1.206   6.141   5.536
 9747TIP3    H129118   1.210   6.046   5.548
 9747TIP3    H229119   1.127   6.167   5.582
 9748TIP3   OH229120   0.335   5.911   5.686
 9748TIP3    H129121   0.337   6.003   5.713
 9748TIP3    H229122   0.244   5.896   5.660
 9749TIP3   OH229123   0.104   6.043   4.646
 9749TIP3    H129124   0.072   6.015   4.561
 9749TIP3    H229125   0.066   6.130   4.659
 9750TIP3   OH229126   0.284   5.957   4.266
 9750TIP3    H129127   0.340   5.890   4.227
 9750TIP3    H229128   0.320   5.969   4.354
 9751TIP3   OH229129   0.344   6.001   4.534
 9751TIP3    H129130   0.262   6.008   4.582
 9751TIP3    H229131   0.404   5.959   4.595
 9752TIP3   OH229132   1.098   5.273   5.812
 9752TIP3    H129133   1.020   5.286   5.758
 9752TIP3    H229134   1.118   5.180   5.804
 9753TIP3   OH229135   0.086   4.510   5.625
 9753TIP3    H129136   0.017   4.468   5.573
 9753TIP3    H229137   0.087   4.601   5.596
 9754TIP3   OH229138   0.631   4.621   5.818
 9754TIP3    H129139   0.700   4.593   5.878
 9754TIP3    H229140   0.550   4.599   5.863
 9755TIP3   OH229141   0.865   5.049   5.733
 9755TIP3    H129142   0.820   5.045   5.818
 9755TIP3    H229143   0.845   5.136   5.700
 9756TIP3   OH229144   0.530   5.183   4.291
 9756TIP3    H129145   0.494   5.154   4.207
 9756TIP3    H229146   0.611   5.228   4.268
 9757TIP3   OH229147   0.239   4.554   4.593
 9757TIP3    H129148   0.212   4.554   4.685
 9757TIP3    H229149   0.205   4.472   4.557
 9758TIP3   OH229150   9.817   5.008   5.652
 9758TIP3    H129151   9.768   5.036   5.729
 9758TIP3    H229152   9.809   5.081   5.590
 9759TIP3   OH229153   9.704   4.896   5.157
 9759TIP3    H129154   9.610   4.911   5.146
 9759TIP3    H229155   9.732   4.856   5.075
 9760TIP3   OH229156   0.402   4.993   4.879
 9760TIP3    H129157   0.350   5.063   4.840
 9760TIP3    H229158   0.458   4.962   4.808
 9761TIP3   OH229159   0.581   5.271   5.972
 9761TIP3    H129160   0.556   5.200   6.030
 9761TIP3    H229161   0.674   5.285   5.989
 9762TIP3   OH229162   0.558   5.020   5.119
 9762TIP3    H129163   0.499   5.053   5.050
 9762TIP3    H229164   0.594   4.940   5.082
 9763TIP3   OH229165   9.700   4.530   4.564
 9763TIP3    H129166   9.690   4.527   4.659
 9763TIP3    H229167   9.610   4.540   4.531
 9764TIP3   OH229168   0.563   5.265   5.546
 9764TIP3    H129169   0.599   5.200   5.486
 9764TIP3    H229170   0.542   5.216   5.625
 9765TIP3   OH229171   0.254   4.735   5.212
 9765TIP3    H129172   0.174   4.734   5.265
 9765TIP3    H229173   0.325   4.726   5.276
 9766TIP3   OH229174   9.749   4.787   4.908
 9766TIP3    H129175   9.843   4.799   4.896
 9766TIP3    H229176   9.710   4.821   4.827
 9767TIP3   OH229177   0.728   4.807   5.422
 9767TIP3    H129178   0.693   4.818   5.511
 9767TIP3    H229179   0.669   4.744   5.381
 9768TIP3   OH229180   9.569   4.841   4.686
 9768TIP3    H129181   9.529   4.756   4.667
 9768TIP3    H229182   9.627   4.858   4.612
 9769TIP3   OH229183   0.900   6.497   5.635
 9769TIP3    H129184   0.898   6.515   5.541
 9769TIP3    H229185   0.979   6.540   5.667
 9770TIP3   OH229186   0.324   5.055   5.311
 9770TIP3    H129187   0.394   5.021   5.256
 9770TIP3    H229188   0.338   5.014   5.397
 9771TIP3   OH229189   9.681   4.545   5.193
 9771TIP3    H129190   9.614   4.478   5.208
 9771TIP3    H229191   9.726   4.516   5.113
 9772TIP3   OH229192   0.299   4.949   5.611
 9772TIP3    H129193   0.212   4.988   5.619
 9772TIP3    H229194   0.357   5.010   5.656
 9773TIP3   OH229195   0.040   5.337   4.689
 9773TIP3    H129196  -0.035   5.278   4.680
 9773TIP3    H229197   0.031   5.376   4.776
 9774TIP3   OH229198   0.934   5.582   5.327
 9774TIP3    H129199   0.960   5.630   5.248
 9774TIP3    H229200   0.852   5.539   5.303
 9775TIP3   OH229201   0.493   4.658   4.562
 9775TIP3    H129202   0.399   4.642   4.567
 9775TIP3    H229203   0.503   4.750   4.584
 9776TIP3   OH229204   0.430   5.653   5.702
 9776TIP3    H129205   0.463   5.643   5.791
 9776TIP3    H229206   0.397   5.742   5.698
 9777TIP3   OH229207   0.564   4.906   4.664
 9777TIP3    H129208   0.659   4.910   4.679
 9777TIP3    H229209   0.545   4.983   4.611
 9778TIP3   OH229210   0.195   5.496   4.531
 9778TIP3    H129211   0.148   5.579   4.532
 9778TIP3    H229212   0.136   5.434   4.575
 9779TIP3   OH229213   0.345   5.406   6.012
 9779TIP3    H129214   0.287   5.338   5.978
 9779TIP3    H229215   0.433   5.378   5.986
 9780TIP3   OH229216   0.599   5.928   5.593
 9780TIP3    H129217   0.505   5.914   5.606
 9780TIP3    H229218   0.626   5.978   5.670
 9781TIP3   OH229219   1.003   4.995   4.497
 9781TIP3    H129220   0.943   4.947   4.441
 9781TIP3    H229221   1.004   5.084   4.461
 9782TIP3   OH229222   1.221   5.853   5.578
 9782TIP3    H129223   1.126   5.848   5.574
 9782TIP3    H229224   1.250   5.822   5.492
 9783TIP3   OH229225   0.705   5.812   4.408
 9783TIP3    H129226   0.680   5.745   4.471
 9783TIP3    H229227   0.716   5.765   4.325
 9784TIP3   OH229228   0.701   5.440   5.248
 9784TIP3    H129229   0.609   5.417   5.260
 9784TIP3    H229230   0.738   5.365   5.202
 9785TIP3   OH229231   9.812   5.438   4.935
 9785TIP3    H129232   9.800   5.532   4.949
 9785TIP3    H229233   9.763   5.397   5.007
 9786TIP3   OH229234   0.492   5.651   5.430
 9786TIP3    H129235   0.477   5.644   5.524
 9786TIP3    H229236   0.567   5.594   5.413
 9787TIP3   OH229237   0.458   5.545   4.310
 9787TIP3    H129238   0.508   5.521   4.388
 9787TIP3    H229239   0.370   5.511   4.326
 9788TIP3   OH229240   0.733   6.185   5.480
 9788TIP3    H129241   0.659   6.125   5.476
 9788TIP3    H229242   0.719   6.247   5.408
 9789TIP3   OH229243   0.801   6.022   4.128
 9789TIP3    H129244   0.843   6.096   4.084
 9789TIP3    H229245   0.719   6.058   4.162
 9790TIP3   OH229246   0.622   5.476   4.528
 9790TIP3    H129247   0.606   5.411   4.597
 9790TIP3    H229248   0.717   5.474   4.514
 9791TIP3   OH229249   9.706   5.490   4.351
 9791TIP3    H129250   9.706   5.411   4.296
 9791TIP3    H229251   9.626   5.483   4.403
 9792TIP3   OH229252   0.651   4.861   5.682
 9792TIP3    H129253   0.734   4.897   5.712
 9792TIP3    H229254   0.641   4.780   5.732
 9793TIP3   OH229255   0.533   4.613   4.841
 9793TIP3    H129256   0.522   4.631   4.748
 9793TIP3    H229257   0.573   4.692   4.877
 9794TIP3   OH229258   0.051   5.722   4.537
 9794TIP3    H129259  -0.043   5.723   4.554
 9794TIP3    H229260   0.060   5.763   4.451
 9795TIP3   OH229261   0.225   4.792   4.945
 9795TIP3    H129262   0.289   4.859   4.922
 9795TIP3    H229263   0.235   4.780   5.039
 9796TIP3   OH229264   0.492   5.108   5.756
 9796TIP3    H129265   0.516   5.158   5.834
 9796TIP3    H229266   0.546   5.029   5.760
 9797TIP3   OH229267   0.373   4.519   5.048
 9797TIP3    H129268   0.366   4.593   5.108
 9797TIP3    H229269   0.431   4.550   4.978
 9798TIP3   OH229270   9.693   4.530   4.847
 9798TIP3    H129271   9.708   4.617   4.884
 9798TIP3    H229272   9.779   4.489   4.845
 9799TIP3   OH229273   1.133   5.009   5.731
 9799TIP3    H129274   1.037   5.006   5.739
 9799TIP3    H229275   1.152   4.965   5.648
 9800TIP3   OH229276   0.786   5.201   5.122
 9800TIP3    H129277   0.712   5.142   5.132
 9800TIP3    H229278   0.858   5.157   5.166
 9801TIP3   OH229279   0.756   6.160   5.069
 9801TIP3    H129280   0.711   6.204   4.997
 9801TIP3    H229281   0.849   6.174   5.051
 9802TIP3   OH229282   0.015   5.714   4.236
 9802TIP3    H129283  -0.026   5.637   4.274
 9802TIP3    H229284   0.081   5.678   4.176
 9803TIP3   OH229285   0.650   6.059   5.832
 9803TIP3    H129286   0.643   5.986   5.893
 9803TIP3    H229287   0.730   6.105   5.858
 9804TIP3   OH229288   0.433   5.766   4.130
 9804TIP3    H129289   0.463   5.701   4.194
 9804TIP3    H229290   0.500   5.765   4.062
 9805TIP3   OH229291   0.279   5.680   6.013
 9805TIP3    H129292   0.219   5.666   5.940
 9805TIP3    H229293   0.315   5.594   6.033
 9806TIP3   OH229294   0.173   5.433   4.246
 9806TIP3    H129295   0.137   5.454   4.332
 9806TIP3    H229296   0.163   5.338   4.239
 9807TIP3   OH229297   0.757   5.687   5.629
 9807TIP3    H129298   0.833   5.727   5.586
 9807TIP3    H229299   0.686   5.750   5.614
 9808TIP3   OH229300   9.650   5.140   4.673
 9808TIP3    H129301   9.619   5.080   4.741
 9808TIP3    H229302   9.682   5.082   4.604
 9809TIP3   OH229303   0.184   5.219   5.885
 9809TIP3    H129304   0.098   5.260   5.886
 9809TIP3    H229305   0.220   5.242   5.799
 9810TIP3   OH229306   9.747   4.938   4.503
 9810TIP3    H129307   9.720   4.950   4.412
 9810TIP3    H229308   9.843   4.945   4.500
 9811TIP3   OH229309   0.630   5.607   6.030
 9811TIP3    H129310   0.708   5.587   5.978
 9811TIP3    H229311   0.629   5.541   6.099
 9812TIP3   OH229312   0.765   5.274   4.165
 9812TIP3    H129313   0.745   5.223   4.087
 9812TIP3    H229314   0.733   5.362   4.146
 9813TIP3   OH229315   0.245   4.982   6.030
 9813TIP3    H129316   0.235   4.907   5.972
 9813TIP3    H229317   0.216   5.057   5.979
 9814TIP3   OH229318   0.228   4.779   5.820
 9814TIP3    H129319   0.268   4.823   5.746
 9814TIP3    H229320   0.134   4.782   5.802
 9815TIP3   OH229321   0.265   5.340   5.652
 9815TIP3    H129322   0.354   5.317   5.627
 9815TIP3    H229323   0.258   5.434   5.635
 9816TIP3   OH229324   0.850   5.288   6.082
 9816TIP3    H129325   0.893   5.203   6.093
 9816TIP3    H229326   0.918   5.345   6.046
 9817TIP3   OH229327   0.888   5.544   5.816
 9817TIP3    H129328   0.830   5.594   5.759
 9817TIP3    H229329   0.975   5.559   5.780
 9818TIP3   OH229330   0.368   4.549   5.892
 9818TIP3    H129331   0.319   4.628   5.870
 9818TIP3    H229332   0.303   4.479   5.887
 9819TIP3   OH229333   0.494   5.056   6.115
 9819TIP3    H129334   0.489   5.046   6.210
 9819TIP3    H229335   0.409   5.026   6.083
 9820TIP3   OH229336   0.735   5.005   5.968
 9820TIP3    H129337   0.660   5.003   6.027
 9820TIP3    H229338   0.809   4.973   6.020
 9821TIP3   OH229339   0.959   4.941   6.117
 9821TIP3    H129340   0.975   4.848   6.133
 9821TIP3    H229341   0.960   4.980   6.205
 9822TIP3   OH229342   0.465   4.558   6.149
 9822TIP3    H129343   0.533   4.491   6.149
 9822TIP3    H229344   0.425   4.552   6.062
 9823TIP3   OH229345   0.528   4.773   6.309
 9823TIP3    H129346   0.509   4.703   6.247
 9823TIP3    H229347   0.454   4.834   6.299
 9824TIP3   OH229348   1.007   6.252   5.026
 9824TIP3    H129349   1.035   6.280   5.114
 9824TIP3    H229350   1.070   6.293   4.967
 9825TIP3   OH229351   1.039   6.265   5.309
 9825TIP3    H129352   0.992   6.182   5.302
 9825TIP3    H229353   1.114   6.245   5.366
 9826TIP3   OH229354   1.081   5.948   5.881
 9826TIP3    H129355   1.011   5.954   5.945
 9826TIP3    H229356   1.125   6.033   5.886
 9827TIP3   OH229357   0.901   5.459   4.503
 9827TIP3    H129358   0.968   5.521   4.473
 9827TIP3    H229359   0.940   5.418   4.581
 9828TIP3   OH229360   1.026   5.328   4.707
 9828TIP3    H129361   0.962   5.285   4.764
 9828TIP3    H229362   1.091   5.363   4.767
 9829TIP3   OH229363   1.081   5.717   5.136
 9829TIP3    H129364   1.134   5.652   5.090
 9829TIP3    H229365   1.071   5.788   5.073
 9830TIP3   OH229366   0.911   6.019   5.332
 9830TIP3    H129367   0.841   6.057   5.385
 9830TIP3    H229368   0.865   5.970   5.263
 9831TIP3   OH229369   0.963   5.236   4.353
 9831TIP3    H129370   0.895   5.235   4.285
 9831TIP3    H229371   0.939   5.310   4.409
 9832TIP3   OH229372   0.834   4.906   4.306
 9832TIP3    H129373   0.795   4.944   4.227
 9832TIP3    H229374   0.811   4.813   4.301
 9833TIP3   OH229375   0.841   5.181   4.853
 9833TIP3    H129376   0.850   5.086   4.845
 9833TIP3    H229377   0.828   5.196   4.947
 9834TIP3   OH229378   1.132   5.607   5.708
 9834TIP3    H129379   1.201   5.540   5.702
 9834TIP3    H229380   1.158   5.674   5.645
 9835TIP3   OH229381   1.315   5.410   5.731
 9835TIP3    H129382   1.240   5.362   5.767
 9835TIP3    H229383   1.389   5.350   5.741
 9836TIP3   OH229384   0.779   4.642   4.297
 9836TIP3    H129385   0.855   4.610   4.346
 9836TIP3    H229386   0.709   4.581   4.319
 9837TIP3   OH229387   0.839   4.896   4.746
 9837TIP3    H129388   0.876   4.809   4.764
 9837TIP3    H229389   0.895   4.932   4.677
 9838TIP3   OH229390   1.001   5.078   5.242
 9838TIP3    H129391   1.084   5.099   5.199
 9838TIP3    H229392   1.012   5.108   5.332
 9839TIP3   OH229393   1.067   5.218   5.475
 9839TIP3    H129394   0.990   5.250   5.522
 9839TIP3    H229395   1.101   5.295   5.429
 9840TIP3   OH229396   1.517   4.804   6.028
 9840TIP3    H129397   1.577   4.739   5.992
 9840TIP3    H229398   1.494   4.860   5.954
 9841TIP3   OH229399   0.945   4.646   4.787
 9841TIP3    H129400   0.995   4.633   4.867
 9841TIP3    H229401   0.886   4.571   4.783
 9842TIP3   OH229402   1.389   4.948   5.833
 9842TIP3    H129403   1.303   4.986   5.854
 9842TIP3    H229404   1.369   4.874   5.777
 9843TIP3   OH229405   1.029   4.583   4.415
 9843TIP3    H129406   1.067   4.510   4.366
 9843TIP3    H229407   1.095   4.652   4.410
 9844TIP3   OH229408   0.594   6.116   4.684
 9844TIP3    H129409   0.641   6.100   4.603
 9844TIP3    H229410   0.647   6.181   4.730
 9845TIP3   OH229411   0.349   6.172   5.764
 9845TIP3    H129412   0.371   6.201   5.852
 9845TIP3    H229413   0.393   6.235   5.707
 9846TIP3   OH229414   0.495   6.353   5.613
 9846TIP3    H129415   0.556   6.295   5.568
 9846TIP3    H229416   0.550   6.403   5.674
 9847TIP3   OH229417   1.288   4.706   5.714
 9847TIP3    H129418   1.198   4.699   5.681
 9847TIP3    H229419   1.324   4.617   5.705
 9848TIP3   OH229420   0.218   6.239   5.265
 9848TIP3    H129421   0.123   6.247   5.250
 9848TIP3    H229422   0.241   6.319   5.313
 9849TIP3   OH229423   0.476   6.165   5.350
 9849TIP3    H129424   0.388   6.173   5.313
 9849TIP3    H229425   0.528   6.232   5.304
 9850TIP3   OH229426   0.686   6.347   5.262
 9850TIP3    H129427   0.675   6.431   5.217
 9850TIP3    H229428   0.713   6.287   5.192
 9851TIP3   OH229429   0.493   4.622   5.331
 9851TIP3    H129430   0.452   4.552   5.382
 9851TIP3    H229431   0.566   4.580   5.286
 9852TIP3   OH229432   1.016   4.507   5.238
 9852TIP3    H129433   1.055   4.555   5.165
 9852TIP3    H229434   0.922   4.524   5.230
 9853TIP3   OH229435   1.115   4.607   5.001
 9853TIP3    H129436   1.184   4.553   4.963
 9853TIP3    H229437   1.145   4.697   4.988
 9854TIP3   OH229438   0.192   4.374   5.229
 9854TIP3    H129439   0.249   4.419   5.167
 9854TIP3    H229440   0.225   4.400   5.315
 9855TIP3   OH229441   0.730   4.510   5.214
 9855TIP3    H129442   0.735   4.475   5.125
 9855TIP3    H229443   0.719   4.432   5.269
 9856TIP3   OH229444   0.761   4.433   4.776
 9856TIP3    H129445   0.676   4.475   4.784
 9856TIP3    H229446   0.751   4.349   4.822
 9857TIP3   OH229447   9.480   4.285   4.799
 9857TIP3    H129448   9.480   4.269   4.704
 9857TIP3    H229449   9.503   4.377   4.808
 9858TIP3   OH229450   0.168   4.538   4.861
 9858TIP3    H129451   0.225   4.489   4.919
 9858TIP3    H229452   0.187   4.630   4.882
 9859TIP3   OH229453   0.032   5.975   4.386
 9859TIP3    H129454   0.117   5.972   4.344
 9859TIP3    H229455  -0.030   5.947   4.319
 9860TIP3   OH229456   0.736   6.078   4.449
 9860TIP3    H129457   0.730   5.983   4.440
 9860TIP3    H229458   0.691   6.113   4.372
 9861TIP3   OH229459   0.199   4.588   6.348
 9861TIP3    H129460   0.282   4.577   6.301
 9861TIP3    H229461   0.207   4.530   6.424
 9862TIP3   OH229462   1.027   4.672   6.148
 9862TIP3    H129463   1.043   4.640   6.236
 9862TIP3    H229464   1.112   4.668   6.104
 9863TIP3   OH229465   0.961   6.227   5.640
 9863TIP3    H129466   0.886   6.192   5.591
 9863TIP3    H229467   0.944   6.322   5.643
 9864TIP3   OH229468   2.229   5.599   4.405
 9864TIP3    H129469   2.202   5.689   4.387
 9864TIP3    H229470   2.156   5.546   4.373
 9865TIP3   OH229471   2.224   5.596   4.790
 9865TIP3    H129472   2.259   5.568   4.874
 9865TIP3    H229473   2.188   5.517   4.751
 9866TIP3   OH229474   1.529   5.493   5.155
 9866TIP3    H129475   1.556   5.424   5.216
 9866TIP3    H229476   1.609   5.544   5.140
 9867TIP3   OH229477   2.469   5.903   4.468
 9867TIP3    H129478   2.459   5.828   4.526
 9867TIP3    H229479   2.502   5.973   4.525
 9868TIP3   OH229480   1.500   5.900   4.877
 9868TIP3    H129481   1.488   5.805   4.879
 9868TIP3    H229482   1.595   5.912   4.874
 9869TIP3   OH229483   1.203   5.107   4.662
 9869TIP3    H129484   1.157   5.190   4.676
 9869TIP3    H229485   1.137   5.049   4.625
 9870TIP3   OH229486   1.268   5.391   4.833
 9870TIP3    H129487   1.313   5.315   4.871
 9870TIP3    H229488   1.324   5.419   4.761
 9871TIP3   OH229489   2.120   6.358   4.485
 9871TIP3    H129490   2.165   6.291   4.434
 9871TIP3    H229491   2.118   6.323   4.574
 9872TIP3   OH229492   2.031   5.823   4.834
 9872TIP3    H129493   2.062   5.743   4.791
 9872TIP3    H229494   2.111   5.870   4.858
 9873TIP3   OH229495   3.042   5.148   4.826
 9873TIP3    H129496   3.068   5.227   4.873
 9873TIP3    H229497   3.065   5.165   4.735
 9874TIP3   OH229498   2.441   5.325   4.866
 9874TIP3    H129499   2.482   5.243   4.891
 9874TIP3    H229500   2.409   5.310   4.777
 9875TIP3   OH229501   1.772   4.985   4.830
 9875TIP3    H129502   1.758   5.057   4.769
 9875TIP3    H229503   1.729   4.910   4.790
 9876TIP3   OH229504   2.474   5.075   4.454
 9876TIP3    H129505   2.541   5.057   4.521
 9876TIP3    H229506   2.523   5.110   4.380
 9877TIP3   OH229507   1.413   5.184   4.938
 9877TIP3    H129508   1.493   5.167   4.987
 9877TIP3    H229509   1.422   5.131   4.859
 9878TIP3   OH229510   1.853   5.382   4.734
 9878TIP3    H129511   1.945   5.360   4.746
 9878TIP3    H229512   1.813   5.301   4.701
 9879TIP3   OH229513   3.115   5.355   5.001
 9879TIP3    H129514   3.031   5.397   4.979
 9879TIP3    H229515   3.118   5.354   5.096
 9880TIP3   OH229516   1.772   4.967   5.265
 9880TIP3    H129517   1.713   5.001   5.198
 9880TIP3    H229518   1.725   4.981   5.347
 9881TIP3   OH229519   2.121   5.820   4.276
 9881TIP3    H129520   2.081   5.792   4.194
 9881TIP3    H229521   2.077   5.903   4.298
 9882TIP3   OH229522   1.881   5.744   5.062
 9882TIP3    H129523   1.819   5.806   5.100
 9882TIP3    H229524   1.924   5.793   4.992
 9883TIP3   OH229525   2.682   5.077   4.627
 9883TIP3    H129526   2.672   5.026   4.708
 9883TIP3    H229527   2.736   5.152   4.653
 9884TIP3   OH229528   1.646   5.084   5.050
 9884TIP3    H129529   1.706   5.153   5.076
 9884TIP3    H229530   1.690   5.040   4.977
 9885TIP3   OH229531   1.704   5.938   5.161
 9885TIP3    H129532   1.683   6.022   5.121
 9885TIP3    H229533   1.630   5.918   5.217
 9886TIP3   OH229534   1.104   5.626   4.396
 9886TIP3    H129535   1.065   5.648   4.312
 9886TIP3    H229536   1.134   5.710   4.431
 9887TIP3   OH229537   2.540   6.144   4.638
 9887TIP3    H129538   2.453   6.132   4.676
 9887TIP3    H229539   2.535   6.228   4.592
 9888TIP3   OH229540   2.851   5.061   5.018
 9888TIP3    H129541   2.759   5.061   4.990
 9888TIP3    H229542   2.900   5.075   4.937
 9889TIP3   OH229543   2.121   4.687   4.975
 9889TIP3    H129544   2.121   4.594   4.998
 9889TIP3    H229545   2.048   4.724   5.024
 9890TIP3   OH229546   2.247   6.190   4.307
 9890TIP3    H129547   2.291   6.107   4.292
 9890TIP3    H229548   2.305   6.255   4.267
 9891TIP3   OH229549   2.387   5.975   4.215
 9891TIP3    H129550   2.356   5.897   4.171
 9891TIP3    H229551   2.422   5.943   4.299
 9892TIP3   OH229552   2.768   6.056   4.976
 9892TIP3    H129553   2.758   5.978   4.922
 9892TIP3    H229554   2.754   6.129   4.916
 9893TIP3   OH229555   2.060   5.452   4.234
 9893TIP3    H129556   1.980   5.499   4.210
 9893TIP3    H229557   2.109   5.444   4.152
 9894TIP3   OH229558   2.022   5.233   3.953
 9894TIP3    H129559   2.087   5.284   4.001
 9894TIP3    H229560   2.073   5.168   3.904
 9895TIP3   OH229561   2.964   5.696   4.822
 9895TIP3    H129562   2.881   5.744   4.830
 9895TIP3    H229563   2.994   5.714   4.733
 9896TIP3   OH229564   2.408   5.533   4.210
 9896TIP3    H129565   2.354   5.555   4.285
 9896TIP3    H229566   2.491   5.504   4.249
 9897TIP3   OH229567   2.642   5.574   5.118
 9897TIP3    H129568   2.640   5.654   5.170
 9897TIP3    H229569   2.558   5.573   5.073
 9898TIP3   OH229570   1.642   5.529   4.623
 9898TIP3    H129571   1.599   5.473   4.559
 9898TIP3    H229572   1.716   5.477   4.655
 9899TIP3   OH229573   1.773   5.943   4.771
 9899TIP3    H129574   1.748   5.897   4.691
 9899TIP3    H229575   1.861   5.910   4.792
 9900TIP3   OH229576   1.774   5.503   4.978
 9900TIP3    H129577   1.809   5.476   4.893
 9900TIP3    H229578   1.820   5.584   4.998
 9901TIP3   OH229579   2.299   6.139   4.756
 9901TIP3    H129580   2.290   6.215   4.813
 9901TIP3    H229581   2.288   6.064   4.815
 9902TIP3   OH229582   1.911   6.060   5.301
 9902TIP3    H129583   1.855   6.120   5.350
 9902TIP3    H229584   1.850   6.004   5.254
 9903TIP3   OH229585   2.249   5.394   4.032
 9903TIP3    H129586   2.307   5.448   4.085
 9903TIP3    H229587   2.273   5.414   3.942
 9904TIP3   OH229588   1.667   5.619   5.403
 9904TIP3    H129589   1.672   5.703   5.450
 9904TIP3    H229590   1.574   5.594   5.409
 9905TIP3   OH229591   1.990   6.071   4.308
 9905TIP3    H129592   2.070   6.121   4.328
 9905TIP3    H229593   1.930   6.136   4.271
 9906TIP3   OH229594   1.705   6.228   5.390
 9906TIP3    H129595   1.674   6.223   5.299
 9906TIP3    H229596   1.629   6.206   5.443
 9907TIP3   OH229597   2.764   4.632   4.082
 9907TIP3    H129598   2.684   4.649   4.133
 9907TIP3    H229599   2.778   4.713   4.032
 9908TIP3   OH229600   1.504   5.373   4.431
 9908TIP3    H129601   1.440   5.414   4.373
 9908TIP3    H229602   1.472   5.284   4.443
 9909TIP3   OH229603   2.568   6.001   3.634
 9909TIP3    H129604   2.571   6.087   3.592
 9909TIP3    H229605   2.656   5.965   3.619
 9910TIP3   OH229606   1.288   5.755   5.336
 9910TIP3    H129607   1.224   5.733   5.268
 9910TIP3    H229608   1.325   5.671   5.363
 9911TIP3   OH229609   1.142   5.951   4.968
 9911TIP3    H129610   1.237   5.937   4.959
 9911TIP3    H229611   1.134   6.027   5.025
 9912TIP3   OH229612   3.003   6.397   5.023
 9912TIP3    H129613   3.007   6.302   5.036
 9912TIP3    H229614   2.924   6.424   5.069
 9913TIP3   OH229615   2.109   6.189   5.160
 9913TIP3    H129616   2.111   6.280   5.191
 9913TIP3    H229617   2.041   6.147   5.212
 9914TIP3   OH229618   1.870   6.318   4.110
 9914TIP3    H129619   1.826   6.295   4.029
 9914TIP3    H229620   1.841   6.408   4.129
 9915TIP3   OH229621   1.311   6.162   4.497
 9915TIP3    H129622   1.358   6.155   4.580
 9915TIP3    H229623   1.255   6.084   4.495
 9916TIP3   OH229624   2.085   6.219   3.751
 9916TIP3    H129625   2.138   6.146   3.721
 9916TIP3    H229626   2.106   6.228   3.844
 9917TIP3   OH229627   2.122   6.263   4.023
 9917TIP3    H129628   2.035   6.274   4.062
 9917TIP3    H229629   2.174   6.220   4.090
 9918TIP3   OH229630   2.895   5.531   5.297
 9918TIP3    H129631   2.815   5.541   5.246
 9918TIP3    H229632   2.917   5.438   5.289
 9919TIP3   OH229633   1.491   5.940   5.329
 9919TIP3    H129634   1.543   5.922   5.407
 9919TIP3    H229635   1.419   5.876   5.333
 9920TIP3   OH229636   1.882   4.769   5.097
 9920TIP3    H129637   1.795   4.736   5.076
 9920TIP3    H229638   1.867   4.845   5.152
 9921TIP3   OH229639   2.428   4.878   5.325
 9921TIP3    H129640   2.470   4.806   5.371
 9921TIP3    H229641   2.334   4.866   5.340
 9922TIP3   OH229642   2.662   5.306   5.224
 9922TIP3    H129643   2.619   5.303   5.310
 9922TIP3    H229644   2.639   5.393   5.189
 9923TIP3   OH229645   2.324   5.444   3.776
 9923TIP3    H129646   2.290   5.411   3.693
 9923TIP3    H229647   2.409   5.482   3.754
 9924TIP3   OH229648   2.035   4.811   4.082
 9924TIP3    H129649   2.006   4.811   4.173
 9924TIP3    H229650   2.001   4.729   4.046
 9925TIP3   OH229651   1.821   5.280   5.128
 9925TIP3    H129652   1.775   5.299   5.210
 9925TIP3    H229653   1.807   5.357   5.074
 9926TIP3   OH229654   1.704   5.164   4.639
 9926TIP3    H129655   1.615   5.138   4.660
 9926TIP3    H229656   1.722   5.125   4.554
 9927TIP3   OH229657   2.199   5.251   4.367
 9927TIP3    H129658   2.146   5.320   4.327
 9927TIP3    H229659   2.254   5.219   4.295
 9928TIP3   OH229660   2.375   5.530   5.462
 9928TIP3    H129661   2.350   5.457   5.518
 9928TIP3    H229662   2.468   5.542   5.477
 9929TIP3   OH229663   2.356   5.277   4.604
 9929TIP3    H129664   2.295   5.308   4.537
 9929TIP3    H229665   2.392   5.196   4.569
 9930TIP3   OH229666   1.639   5.307   5.340
 9930TIP3    H129667   1.679   5.366   5.404
 9930TIP3    H229668   1.632   5.223   5.386
 9931TIP3   OH229669   1.691   4.785   4.047
 9931TIP3    H129670   1.688   4.780   4.142
 9931TIP3    H229671   1.612   4.834   4.023
 9932TIP3   OH229672   1.237   4.830   4.917
 9932TIP3    H129673   1.311   4.860   4.970
 9932TIP3    H229674   1.277   4.795   4.838
 9933TIP3   OH229675   1.209   4.812   4.435
 9933TIP3    H129676   1.257   4.845   4.359
 9933TIP3    H229677   1.148   4.882   4.458
 9934TIP3   OH229678   2.366   5.523   5.032
 9934TIP3    H129679   2.399   5.456   4.972
 9934TIP3    H229680   2.338   5.474   5.109
 9935TIP3   OH229681   2.032   4.994   4.706
 9935TIP3    H129682   1.954   4.985   4.760
 9935TIP3    H229683   2.105   4.978   4.766
 9936TIP3   OH229684   1.468   5.040   4.711
 9936TIP3    H129685   1.376   5.046   4.684
 9936TIP3    H229686   1.494   4.951   4.689
 9937TIP3   OH229687   1.739   5.039   4.399
 9937TIP3    H129688   1.832   5.052   4.382
 9937TIP3    H229689   1.696   5.062   4.316
 9938TIP3   OH229690   2.522   5.063   4.908
 9938TIP3    H129691   2.490   5.073   4.998
 9938TIP3    H229692   2.464   4.997   4.870
 9939TIP3   OH229693   1.577   5.075   4.175
 9939TIP3    H129694   1.506   5.028   4.131
 9939TIP3    H229695   1.631   5.109   4.104
 9940TIP3   OH229696   2.696   6.753   5.123
 9940TIP3    H129697   2.694   6.773   5.029
 9940TIP3    H229698   2.774   6.798   5.156
 9941TIP3   OH229699   1.654   5.865   5.549
 9941TIP3    H129700   1.734   5.891   5.592
 9941TIP3    H229701   1.589   5.859   5.619
 9942TIP3   OH229702   2.119   5.316   4.803
 9942TIP3    H129703   2.187   5.271   4.752
 9942TIP3    H229704   2.122   5.274   4.889
 9943TIP3   OH229705   1.639   4.801   4.677
 9943TIP3    H129706   1.608   4.724   4.725
 9943TIP3    H229707   1.699   4.765   4.611
 9944TIP3   OH229708   2.096   5.218   5.079
 9944TIP3    H129709   2.007   5.244   5.103
 9944TIP3    H229710   2.152   5.268   5.137
 9945TIP3   OH229711   1.826   5.604   4.184
 9945TIP3    H129712   1.759   5.537   4.173
 9945TIP3    H229713   1.813   5.636   4.274
 9946TIP3   OH229714   2.730   5.840   4.814
 9946TIP3    H129715   2.755   5.887   4.734
 9946TIP3    H229716   2.648   5.796   4.791
 9947TIP3   OH229717   2.288   4.916   4.046
 9947TIP3    H129718   2.194   4.899   4.055
 9947TIP3    H229719   2.298   5.008   4.071
 9948TIP3   OH229720   2.233   5.922   5.181
 9948TIP3    H129721   2.255   5.892   5.270
 9948TIP3    H229722   2.192   6.008   5.195
 9949TIP3   OH229723   2.360   5.163   4.150
 9949TIP3    H129724   2.455   5.165   4.166
 9949TIP3    H229725   2.344   5.239   4.094
 9950TIP3   OH229726   1.525   5.623   4.860
 9950TIP3    H129727   1.560   5.596   4.776
 9950TIP3    H229728   1.564   5.564   4.923
 9951TIP3   OH229729   1.973   5.752   4.005
 9951TIP3    H129730   1.929   5.837   4.012
 9951TIP3    H229731   1.923   5.694   4.063
 9952TIP3   OH229732   1.401   5.547   5.477
 9952TIP3    H129733   1.426   5.533   5.569
 9952TIP3    H229734   1.338   5.477   5.459
 9953TIP3   OH229735   2.131   5.657   5.492
 9953TIP3    H129736   2.071   5.600   5.444
 9953TIP3    H229737   2.218   5.625   5.469
 9954TIP3   OH229738   2.390   6.189   5.075
 9954TIP3    H129739   2.295   6.177   5.088
 9954TIP3    H229740   2.419   6.234   5.154
 9955TIP3   OH229741   2.798   5.252   3.985
 9955TIP3    H129742   2.736   5.205   3.929
 9955TIP3    H229743   2.803   5.339   3.946
 9956TIP3   OH229744   3.018   6.110   5.064
 9956TIP3    H129745   2.923   6.104   5.062
 9956TIP3    H229746   3.046   6.079   4.978
 9957TIP3   OH229747   2.492   6.073   3.894
 9957TIP3    H129748   2.476   6.003   3.957
 9957TIP3    H229749   2.512   6.027   3.812
 9958TIP3   OH229750   2.496   5.698   4.732
 9958TIP3    H129751   2.404   5.674   4.747
 9958TIP3    H229752   2.534   5.621   4.690
 9959TIP3   OH229753   1.622   5.929   4.487
 9959TIP3    H129754   1.624   6.007   4.432
 9959TIP3    H229755   1.529   5.907   4.495
 9960TIP3   OH229756   1.185   5.233   4.189
 9960TIP3    H129757   1.233   5.314   4.208
 9960TIP3    H229758   1.111   5.235   4.249
 9961TIP3   OH229759   1.763   5.695   4.431
 9961TIP3    H129760   1.729   5.782   4.450
 9961TIP3    H229761   1.731   5.641   4.503
 9962TIP3   OH229762   1.895   6.273   4.956
 9962TIP3    H129763   1.936   6.343   4.905
 9962TIP3    H229764   1.967   6.234   5.005
 9963TIP3   OH229765   1.540   6.170   4.338
 9963TIP3    H129766   1.456   6.171   4.385
 9963TIP3    H229767   1.570   6.261   4.341
 9964TIP3   OH229768   2.286   5.906   4.914
 9964TIP3    H129769   2.273   5.904   5.009
 9964TIP3    H229770   2.361   5.849   4.898
 9965TIP3   OH229771   2.254   5.804   3.801
 9965TIP3    H129772   2.311   5.780   3.874
 9965TIP3    H229773   2.168   5.768   3.826
 9966TIP3   OH229774   2.529   6.442   4.966
 9966TIP3    H129775   2.455   6.381   4.963
 9966TIP3    H229776   2.513   6.503   4.894
 9967TIP3   OH229777   2.555   6.319   3.602
 9967TIP3    H129778   2.628   6.353   3.551
 9967TIP3    H229779   2.577   6.342   3.692
 9968TIP3   OH229780   1.616   5.051   5.484
 9968TIP3    H129781   1.521   5.051   5.495
 9968TIP3    H229782   1.649   4.990   5.551
 9969TIP3   OH229783   2.417   5.735   4.016
 9969TIP3    H129784   2.402   5.668   4.083
 9969TIP3    H229785   2.511   5.732   4.000
 9970TIP3   OH229786   1.333   6.134   5.117
 9970TIP3    H129787   1.382   6.055   5.140
 9970TIP3    H229788   1.362   6.199   5.182
 9971TIP3   OH229789   1.621   5.778   3.797
 9971TIP3    H129790   1.639   5.690   3.765
 9971TIP3    H229791   1.602   5.766   3.890
 9972TIP3   OH229792   1.568   5.785   4.071
 9972TIP3    H129793   1.640   5.751   4.124
 9972TIP3    H229794   1.575   5.880   4.079
 9973TIP3   OH229795   1.302   5.479   4.271
 9973TIP3    H129796   1.238   5.519   4.330
 9973TIP3    H229797   1.319   5.546   4.205
 9974TIP3   OH229798   2.450   5.111   5.171
 9974TIP3    H129799   2.532   5.148   5.204
 9974TIP3    H229800   2.436   5.033   5.224
 9975TIP3   OH229801   2.332   4.868   4.327
 9975TIP3    H129802   2.320   4.890   4.234
 9975TIP3    H229803   2.372   4.947   4.365
 9976TIP3   OH229804   1.832   5.983   4.019
 9976TIP3    H129805   1.747   6.008   4.055
 9976TIP3    H229806   1.849   6.050   3.952
 9977TIP3   OH229807   2.021   5.047   4.433
 9977TIP3    H129808   2.086   5.115   4.414
 9977TIP3    H229809   2.026   5.036   4.528
 9978TIP3   OH229810   2.294   5.364   5.240
 9978TIP3    H129811   2.315   5.413   5.320
 9978TIP3    H229812   2.345   5.283   5.248
 9979TIP3   OH229813   2.168   4.774   4.532
 9979TIP3    H129814   2.173   4.840   4.601
 9979TIP3    H229815   2.225   4.808   4.463
 9980TIP3   OH229816   1.575   6.060   4.084
 9980TIP3    H129817   1.546   6.127   4.022
 9980TIP3    H229818   1.559   6.099   4.170
 9981TIP3   OH229819   1.680   4.771   4.322
 9981TIP3    H129820   1.674   4.859   4.361
 9981TIP3    H229821   1.772   4.748   4.330
 9982TIP3   OH229822   2.928   5.268   5.206
 9982TIP3    H129823   2.834   5.269   5.227
 9982TIP3    H229824   2.935   5.210   5.130
 9983TIP3   OH229825   2.582   5.458   4.609
 9983TIP3    H129826   2.507   5.400   4.620
 9983TIP3    H229827   2.654   5.414   4.654
 9984TIP3   OH229828   1.299   5.690   4.075
 9984TIP3    H129829   1.366   5.757   4.088
 9984TIP3    H229830   1.337   5.630   4.011
 9985TIP3   OH229831   1.239   4.964   4.210
 9985TIP3    H129832   1.238   5.059   4.206
 9985TIP3    H229833   1.158   4.936   4.167
 9986TIP3   OH229834   2.551   6.417   4.555
 9986TIP3    H129835   2.507   6.460   4.482
 9986TIP3    H229836   2.644   6.432   4.540
 9987TIP3   OH229837   1.620   4.681   5.087
 9987TIP3    H129838   1.594   4.647   5.001
 9987TIP3    H229839   1.616   4.605   5.145
 9988TIP3   OH229840   1.169   5.909   4.466
 9988TIP3    H129841   1.095   5.932   4.522
 9988TIP3    H229842   1.144   5.942   4.379
 9989TIP3   OH229843   1.323   6.439   5.538
 9989TIP3    H129844   1.408   6.440   5.582
 9989TIP3    H229845   1.300   6.346   5.533
 9990TIP3   OH229846   1.806   6.408   5.577
 9990TIP3    H129847   1.899   6.387   5.590
 9990TIP3    H229848   1.779   6.351   5.505
 9991TIP3   OH229849   1.789   5.980   3.712
 9991TIP3    H129850   1.731   5.914   3.749
 9991TIP3    H229851   1.862   5.930   3.677
 9992TIP3   OH229852   2.442   6.313   5.317
 9992TIP3    H129853   2.433   6.244   5.382
 9992TIP3    H229854   2.520   6.362   5.344
 9993TIP3   OH229855   2.232   6.028   3.622
 9993TIP3    H129856   2.265   5.959   3.680
 9993TIP3    H229857   2.280   6.016   3.541
 9994TIP3   OH229858   1.451   5.847   5.736
 9994TIP3    H129859   1.472   5.754   5.743
 9994TIP3    H229860   1.366   5.850   5.693
 9995TIP3   OH229861   1.433   5.500   3.930
 9995TIP3    H129862   1.482   5.464   4.003
 9995TIP3    H229863   1.496   5.504   3.858
 9996TIP3   OH229864   2.060   5.931   5.509
 9996TIP3    H129865   2.021   5.945   5.423
 9996TIP3    H229866   2.093   5.841   5.505
 9997TIP3   OH229867   1.934   5.695   3.737
 9997TIP3    H129868   1.941   5.711   3.831
 9997TIP3    H229869   1.939   5.600   3.728
 9998TIP3   OH229870   2.554   5.943   5.115
 9998TIP3    H129871   2.629   5.985   5.072
 9998TIP3    H229872   2.481   6.003   5.102
 9999TIP3   OH229873   1.575   5.583   5.717
 9999TIP3    H129874   1.647   5.524   5.695
 9999TIP3    H229875   1.597   5.615   5.805
10000TIP3   OH229876   1.639   5.401   4.152
10000TIP3    H129877   1.614   5.361   4.235
10000TIP3    H229878   1.675   5.329   4.101
10001TIP3   OH229879   1.903   5.468   5.377
10001TIP3    H129880   1.829   5.528   5.382
10001TIP3    H229881   1.956   5.499   5.304
10002TIP3   OH229882   1.741   5.197   3.991
10002TIP3    H129883   1.713   5.198   3.899
10002TIP3    H229884   1.836   5.201   3.987
10003TIP3   OH229885   2.427   5.869   5.515
10003TIP3    H129886   2.505   5.845   5.465
10003TIP3    H229887   2.420   5.803   5.583
10004TIP3   OH229888   2.554   5.532   3.654
10004TIP3    H129889   2.550   5.476   3.576
10004TIP3    H229890   2.529   5.619   3.623
10005TIP3   OH229891   2.027   5.256   5.508
10005TIP3    H129892   2.030   5.176   5.455
10005TIP3    H229893   1.986   5.321   5.451
10006TIP3   OH229894   2.023   5.058   5.317
10006TIP3    H129895   2.061   5.076   5.232
10006TIP3    H229896   1.936   5.022   5.298
10007TIP3   OH229897   2.061   5.580   5.189
10007TIP3    H129898   2.143   5.578   5.140
10007TIP3    H229899   2.007   5.644   5.142
10008TIP3   OH229900   2.644   5.546   5.568
10008TIP3    H129901   2.683   5.460   5.586
10008TIP3    H229902   2.717   5.597   5.532
10009TIP3   OH229903   2.685   5.801   5.303
10009TIP3    H129904   2.626   5.851   5.246
10009TIP3    H229905   2.772   5.815   5.267
10010TIP3   OH229906   1.902   5.369   5.734
10010TIP3    H129907   1.838   5.300   5.751
10010TIP3    H229908   1.943   5.344   5.650
10011TIP3   OH229909   2.168   4.816   5.345
10011TIP3    H129910   2.106   4.887   5.358
10011TIP3    H229911   2.120   4.737   5.370
10012TIP3   OH229912   2.288   5.311   5.597
10012TIP3    H129913   2.287   5.299   5.692
10012TIP3    H229914   2.200   5.285   5.568
10013TIP3   OH229915   2.540   5.264   5.462
10013TIP3    H129916   2.461   5.257   5.515
10013TIP3    H229917   2.608   5.221   5.513
10014TIP3   OH229918   2.756   5.171   5.627
10014TIP3    H129919   2.765   5.088   5.673
10014TIP3    H229920   2.757   5.237   5.697
10015TIP3   OH229921   1.749   5.147   5.791
10015TIP3    H129922   1.753   5.060   5.753
10015TIP3    H229923   1.785   5.136   5.880
10016TIP3   OH229924   2.308   5.012   5.794
10016TIP3    H129925   2.303   4.966   5.710
10016TIP3    H229926   2.243   5.082   5.787
10017TIP3   OH229927   1.548   6.262   3.895
10017TIP3    H129928   1.642   6.254   3.879
10017TIP3    H229929   1.514   6.308   3.818
10018TIP3   OH229930   1.028   5.638   4.121
10018TIP3    H129931   1.117   5.667   4.101
10018TIP3    H229932   1.019   5.554   4.076
10019TIP3   OH229933   0.941   6.251   4.526
10019TIP3    H129934   0.873   6.192   4.491
10019TIP3    H229935   0.985   6.198   4.593
10020TIP3   OH229936   1.076   6.107   4.718
10020TIP3    H129937   1.065   6.030   4.773
10020TIP3    H229938   1.126   6.168   4.772
10021TIP3   OH229939   2.801   6.513   4.513
10021TIP3    H129940   2.830   6.538   4.601
10021TIP3    H229941   2.869   6.548   4.455
10022TIP3   OH229942   2.835   6.522   4.796
10022TIP3    H129943   2.789   6.439   4.790
10022TIP3    H229944   2.910   6.504   4.853
10023TIP3   OH229945   2.877   6.205   5.367
10023TIP3    H129946   2.806   6.209   5.431
10023TIP3    H229947   2.920   6.290   5.373
10024TIP3   OH229948   2.695   5.719   3.991
10024TIP3    H129949   2.764   5.777   3.958
10024TIP3    H229950   2.735   5.676   4.067
10025TIP3   OH229951   2.821   5.586   4.194
10025TIP3    H129952   2.758   5.541   4.250
10025TIP3    H229953   2.887   5.620   4.255
10026TIP3   OH229954   2.877   5.974   4.621
10026TIP3    H129955   2.930   5.908   4.577
10026TIP3    H229956   2.868   6.045   4.557
10027TIP3   OH229957   2.708   6.277   4.817
10027TIP3    H129958   2.639   6.313   4.872
10027TIP3    H229959   2.661   6.226   4.750
10028TIP3   OH229960   2.756   5.493   3.840
10028TIP3    H129961   2.689   5.490   3.772
10028TIP3    H229962   2.730   5.567   3.895
10029TIP3   OH229963   2.622   5.164   3.799
10029TIP3    H129964   2.609   5.203   3.712
10029TIP3    H229965   2.601   5.072   3.787
10030TIP3   OH229966   2.636   5.437   4.340
10030TIP3    H129967   2.646   5.342   4.331
10030TIP3    H229968   2.624   5.452   4.434
10031TIP3   OH229969   1.265   5.514   5.083
10031TIP3    H129970   1.262   5.482   4.992
10031TIP3    H229971   1.359   5.515   5.104
10032TIP3   OH229972   2.929   5.863   5.194
10032TIP3    H129973   2.997   5.797   5.188
10032TIP3    H229974   2.956   5.931   5.132
10033TIP3   OH229975   3.112   5.668   5.216
10033TIP3    H129976   3.036   5.621   5.250
10033TIP3    H229977   3.186   5.608   5.228
10034TIP3   OH229978   2.577   4.897   3.782
10034TIP3    H129979   2.652   4.867   3.833
10034TIP3    H229980   2.506   4.837   3.806
10035TIP3   OH229981   2.636   5.153   4.232
10035TIP3    H129982   2.673   5.066   4.250
10035TIP3    H229983   2.691   5.188   4.162
10036TIP3   OH229984   2.798   5.333   4.728
10036TIP3    H129985   2.881   5.356   4.686
10036TIP3    H229986   2.807   5.362   4.818
10037TIP3   OH229987   2.863   5.474   4.959
10037TIP3    H129988   2.788   5.504   5.009
10037TIP3    H229989   2.897   5.553   4.916
10038TIP3   OH229990   1.483   5.199   5.763
10038TIP3    H129991   1.579   5.194   5.761
10038TIP3    H229992   1.456   5.116   5.801
10039TIP3   OH229993   3.353   5.080   5.507
10039TIP3    H129994   3.352   4.987   5.483
10039TIP3    H229995   3.292   5.122   5.447
10040TIP3   OH229996   2.741   4.902   4.273
10040TIP3    H129997   2.790   4.890   4.354
10040TIP3    H229998   2.681   4.828   4.270
10041TIP3   OH229999   1.443   4.893   5.094
10041TIP3    H130000   1.499   4.816   5.103
10041TIP3    H230001   1.504   4.966   5.085
10042TIP3   OH230002   1.245   5.168   5.161
10042TIP3    H130003   1.293   5.154   5.079
10042TIP3    H230004   1.280   5.249   5.196
10043TIP3   OH230005   3.192   5.209   5.316
10043TIP3    H130006   3.114   5.232   5.367
10043TIP3    H230007   3.165   5.132   5.267
10044TIP3   OH230008   2.826   4.840   3.903
10044TIP3    H130009   2.864   4.768   3.852
10044TIP3    H230010   2.890   4.911   3.896
10045TIP3   OH230011   1.227   4.671   4.665
10045TIP3    H130012   1.135   4.666   4.690
10045TIP3    H230013   1.228   4.727   4.587
10046TIP3   OH230014   2.390   6.374   4.166
10046TIP3    H130015   2.454   6.352   4.098
10046TIP3    H230016   2.434   6.437   4.222
10047TIP3   OH230017   1.446   4.757   5.483
10047TIP3    H130018   1.397   4.744   5.564
10047TIP3    H230019   1.381   4.786   5.420
10048TIP3   OH230020   1.486   6.180   5.559
10048TIP3    H130021   1.399   6.146   5.538
10048TIP3    H230022   1.502   6.153   5.649
10049TIP3   OH230023   1.666   6.210   5.102
10049TIP3    H130024   1.616   6.283   5.065
10049TIP3    H230025   1.753   6.218   5.062
10050TIP3   OH230026   2.114   6.456   5.244
10050TIP3    H130027   2.154   6.452   5.331
10050TIP3    H230028   2.179   6.503   5.190
10051TIP3   OH230029   2.294   6.605   5.099
10051TIP3    H130030   2.361   6.551   5.058
10051TIP3    H230031   2.342   6.661   5.160
10052TIP3   OH230032   3.088   4.983   5.183
10052TIP3    H130033   2.999   4.999   5.151
10052TIP3    H230034   3.092   4.888   5.195
10053TIP3   OH230035   1.342   6.471   5.124
10053TIP3    H130036   1.255   6.502   5.102
10053TIP3    H230037   1.353   6.494   5.216
10054TIP3   OH230038   1.577   6.448   4.982
10054TIP3    H130039   1.495   6.459   5.031
10054TIP3    H230040   1.554   6.470   4.892
10055TIP3   OH230041   2.005   6.476   4.782
10055TIP3    H130042   1.937   6.494   4.717
10055TIP3    H230043   2.019   6.559   4.827
10056TIP3   OH230044   2.273   6.415   4.833
10056TIP3    H130045   2.181   6.429   4.813
10056TIP3    H230046   2.318   6.489   4.792
10057TIP3   OH230047   2.481   6.605   4.748
10057TIP3    H130048   2.469   6.688   4.702
10057TIP3    H230049   2.508   6.544   4.679
10058TIP3   OH230050   1.259   6.258   4.875
10058TIP3    H130051   1.280   6.233   4.965
10058TIP3    H230052   1.325   6.215   4.822
10059TIP3   OH230053   1.450   6.129   4.731
10059TIP3    H130054   1.462   6.045   4.776
10059TIP3    H230055   1.539   6.165   4.725
10060TIP3   OH230056   1.719   6.225   4.734
10060TIP3    H130057   1.745   6.135   4.715
10060TIP3    H230058   1.761   6.246   4.817
10061TIP3   OH230059   2.281   4.874   4.807
10061TIP3    H130060   2.244   4.813   4.871
10061TIP3    H230061   2.361   4.831   4.776
10062TIP3   OH230062   2.818   4.757   4.724
10062TIP3    H130063   2.851   4.809   4.651
10062TIP3    H230064   2.724   4.773   4.725
10063TIP3   OH230065   2.912   4.864   4.487
10063TIP3    H130066   2.981   4.811   4.448
10063TIP3    H230067   2.941   4.955   4.474
10064TIP3   OH230068   1.539   4.587   4.835
10064TIP3    H130069   1.448   4.557   4.837
10064TIP3    H230070   1.590   4.507   4.833
10065TIP3   OH230071   1.322   4.461   4.482
10065TIP3    H130072   1.356   4.515   4.411
10065TIP3    H230073   1.297   4.523   4.550
10066TIP3   OH230074   1.981   4.628   4.719
10066TIP3    H130075   2.040   4.673   4.659
10066TIP3    H230076   2.009   4.655   4.806
10067TIP3   OH230077   2.532   4.767   4.702
10067TIP3    H130078   2.529   4.731   4.613
10067TIP3    H230079   2.516   4.692   4.759
10068TIP3   OH230080   2.557   4.689   4.263
10068TIP3    H130081   2.473   4.733   4.273
10068TIP3    H230082   2.547   4.606   4.310
10069TIP3   OH230083   1.041   6.029   4.262
10069TIP3    H130084   0.960   5.993   4.228
10069TIP3    H230085   1.032   6.124   4.251
10070TIP3   OH230086   1.445   4.620   4.247
10070TIP3    H130087   1.490   4.556   4.191
10070TIP3    H230088   1.515   4.673   4.283
10071TIP3   OH230089   1.957   4.796   4.348
10071TIP3    H130090   2.014   4.745   4.406
10071TIP3    H230091   1.976   4.887   4.371
10072TIP3   OH230092   1.818   6.220   3.841
10072TIP3    H130093   1.904   6.247   3.808
10072TIP3    H230094   1.795   6.144   3.787
10073TIP3   OH230095   2.533   6.336   3.918
10073TIP3    H130096   2.528   6.241   3.919
10073TIP3    H230097   2.445   6.364   3.894
10074TIP3   OH230098   1.747   4.872   5.731
10074TIP3    H130099   1.712   4.799   5.781
10074TIP3    H230100   1.841   4.873   5.751
10075TIP3   OH230101   1.995   4.866   5.850
10075TIP3    H130102   2.076   4.837   5.809
10075TIP3    H230103   1.977   4.799   5.916
10076TIP3   OH230104   1.118   6.051   3.902
10076TIP3    H130105   1.113   6.080   3.993
10076TIP3    H230106   1.206   6.014   3.893
10077TIP3   OH230107   2.758   6.484   5.125
10077TIP3    H130108   2.682   6.449   5.079
10077TIP3    H230109   2.740   6.578   5.131
10078TIP3   OH230110   4.024   5.855   3.892
10078TIP3    H130111   3.998   5.945   3.873
10078TIP3    H230112   3.952   5.802   3.858
10079TIP3   OH230113   4.024   5.854   4.275
10079TIP3    H130114   4.055   5.823   4.360
10079TIP3    H230115   3.983   5.777   4.235
10080TIP3   OH230116   3.325   5.750   4.641
10080TIP3    H130117   3.353   5.682   4.702
10080TIP3    H230118   3.404   5.802   4.626
10081TIP3   OH230119   4.267   6.157   3.955
10081TIP3    H130120   4.254   6.084   4.015
10081TIP3    H230121   4.297   6.229   4.011
10082TIP3   OH230122   3.296   6.157   4.364
10082TIP3    H130123   3.284   6.062   4.366
10082TIP3    H230124   3.391   6.169   4.359
10083TIP3   OH230125   2.998   5.364   4.150
10083TIP3    H130126   2.952   5.447   4.161
10083TIP3    H230127   2.934   5.305   4.110
10084TIP3   OH230128   3.065   5.649   4.320
10084TIP3    H130129   3.109   5.573   4.357
10084TIP3    H230130   3.118   5.673   4.244
10085TIP3   OH230131   3.919   6.617   3.973
10085TIP3    H130132   3.963   6.550   3.920
10085TIP3    H230133   3.911   6.578   4.060
10086TIP3   OH230134   3.826   6.080   4.320
10086TIP3    H130135   3.857   6.001   4.276
10086TIP3    H230136   3.907   6.126   4.345
10087TIP3   OH230137   4.841   5.405   4.311
10087TIP3    H130138   4.867   5.486   4.354
10087TIP3    H230139   4.868   5.416   4.220
10088TIP3   OH230140   4.237   5.581   4.352
10088TIP3    H130141   4.278   5.498   4.375
10088TIP3    H230142   4.205   5.568   4.263
10089TIP3   OH230143   3.571   5.241   4.316
10089TIP3    H130144   3.553   5.314   4.257
10089TIP3    H230145   3.527   5.166   4.276
10090TIP3   OH230146   4.270   5.332   3.942
10090TIP3    H130147   4.338   5.315   4.007
10090TIP3    H230148   4.317   5.367   3.866
10091TIP3   OH230149   3.210   5.441   4.425
10091TIP3    H130150   3.290   5.423   4.474
10091TIP3    H230151   3.218   5.388   4.346
10092TIP3   OH230152   3.649   5.639   4.220
10092TIP3    H130153   3.741   5.616   4.233
10092TIP3    H230154   3.608   5.558   4.188
10093TIP3   OH230155   4.911   5.609   4.490
10093TIP3    H130156   4.828   5.651   4.465
10093TIP3    H230157   4.922   5.630   4.583
10094TIP3   OH230158   3.575   5.222   4.751
10094TIP3    H130159   3.517   5.256   4.683
10094TIP3    H230160   3.530   5.242   4.833
10095TIP3   OH230161   3.918   6.076   3.762
10095TIP3    H130162   3.877   6.049   3.680
10095TIP3    H230163   3.873   6.158   3.786
10096TIP3   OH230164   3.678   6.000   4.549
10096TIP3    H130165   3.615   6.062   4.587
10096TIP3    H230166   3.719   6.049   4.477
10097TIP3   OH230167   4.479   5.334   4.114
10097TIP3    H130168   4.469   5.283   4.195
10097TIP3    H230169   4.534   5.408   4.138
10098TIP3   OH230170   3.444   5.340   4.537
10098TIP3    H130171   3.504   5.410   4.563
10098TIP3    H230172   3.488   5.296   4.464
10099TIP3   OH230173   3.501   6.193   4.648
10099TIP3    H130174   3.479   6.277   4.607
10099TIP3    H230175   3.427   6.173   4.704
10100TIP3   OH230176   2.897   5.882   3.882
10100TIP3    H130177   2.863   5.904   3.795
10100TIP3    H230178   2.932   5.965   3.915
10101TIP3   OH230179   4.337   6.400   4.125
10101TIP3    H130180   4.250   6.388   4.163
10101TIP3    H230181   4.331   6.484   4.078
10102TIP3   OH230182   4.629   5.324   4.480
10102TIP3    H130183   4.540   5.338   4.447
10102TIP3    H230184   4.685   5.345   4.405
10103TIP3   OH230185   3.923   4.951   4.460
10103TIP3    H130186   3.917   4.857   4.474
10103TIP3    H230187   3.848   4.988   4.507
10104TIP3   OH230188   4.043   6.447   3.795
10104TIP3    H130189   4.087   6.363   3.779
10104TIP3    H230190   4.100   6.512   3.755
10105TIP3   OH230191   4.182   6.231   3.704
10105TIP3    H130192   4.149   6.154   3.659
10105TIP3    H230193   4.218   6.197   3.787
10106TIP3   OH230194   4.565   6.313   4.463
10106TIP3    H130195   4.554   6.235   4.408
10106TIP3    H230196   4.550   6.386   4.403
10107TIP3   OH230197   3.857   5.708   3.721
10107TIP3    H130198   3.777   5.756   3.701
10107TIP3    H230199   3.903   5.701   3.638
10108TIP3   OH230200   3.819   5.489   3.441
10108TIP3    H130201   3.885   5.541   3.488
10108TIP3    H230202   3.870   5.424   3.392
10109TIP3   OH230203   4.759   5.952   4.310
10109TIP3    H130204   4.677   6.000   4.317
10109TIP3    H230205   4.790   5.970   4.221
10110TIP3   OH230206   4.204   5.789   3.697
10110TIP3    H130207   4.149   5.813   3.772
10110TIP3    H230208   4.287   5.762   3.737
10111TIP3   OH230209   4.438   5.830   4.605
10111TIP3    H130210   4.435   5.912   4.655
10111TIP3    H230211   4.354   5.828   4.559
10112TIP3   OH230212   3.437   5.785   4.111
10112TIP3    H130213   3.392   5.730   4.047
10112TIP3    H230214   3.511   5.733   4.140
10113TIP3   OH230215   3.568   6.199   4.259
10113TIP3    H130216   3.543   6.155   4.177
10113TIP3    H230217   3.655   6.165   4.278
10114TIP3   OH230218   3.572   5.758   4.466
10114TIP3    H130219   3.604   5.733   4.379
10114TIP3    H230220   3.615   5.841   4.485
10115TIP3   OH230221   4.096   6.396   4.244
10115TIP3    H130222   4.086   6.472   4.301
10115TIP3    H230223   4.084   6.321   4.302
10116TIP3   OH230224   3.707   6.316   4.788
10116TIP3    H130225   3.651   6.377   4.836
10116TIP3    H230226   3.646   6.259   4.741
10117TIP3   OH230227   4.047   5.648   3.520
10117TIP3    H130228   4.103   5.704   3.573
10117TIP3    H230229   4.070   5.669   3.429
10118TIP3   OH230230   3.463   5.874   4.891
10118TIP3    H130231   3.469   5.958   4.937
10118TIP3    H230232   3.371   5.850   4.897
10119TIP3   OH230233   3.786   6.328   3.800
10119TIP3    H130234   3.866   6.379   3.814
10119TIP3    H230235   3.727   6.388   3.754
10120TIP3   OH230236   3.502   6.484   4.876
10120TIP3    H130237   3.470   6.480   4.786
10120TIP3    H230238   3.426   6.462   4.930
10121TIP3   OH230239   4.559   4.889   3.568
10121TIP3    H130240   4.480   4.907   3.619
10121TIP3    H230241   4.575   4.969   3.519
10122TIP3   OH230242   3.296   5.628   3.923
10122TIP3    H130243   3.238   5.674   3.862
10122TIP3    H230244   3.263   5.538   3.926
10123TIP3   OH230245   4.361   6.256   3.118
10123TIP3    H130246   4.367   6.350   3.102
10123TIP3    H230247   4.450   6.224   3.105
10124TIP3   OH230248   3.084   6.011   4.823
10124TIP3    H130249   3.021   5.987   4.755
10124TIP3    H230250   3.122   5.927   4.850
10125TIP3   OH230251   2.939   6.209   4.452
10125TIP3    H130252   3.033   6.192   4.444
10125TIP3    H230253   2.933   6.283   4.513
10126TIP3   OH230254   4.800   6.654   4.511
10126TIP3    H130255   4.803   6.559   4.522
10126TIP3    H230256   4.720   6.681   4.556
10127TIP3   OH230257   3.905   6.445   4.647
10127TIP3    H130258   3.908   6.536   4.678
10127TIP3    H230259   3.837   6.403   4.699
10128TIP3   OH230260   3.666   6.573   3.597
10128TIP3    H130261   3.624   6.548   3.515
10128TIP3    H230262   3.634   6.661   3.615
10129TIP3   OH230263   3.106   6.420   3.986
10129TIP3    H130264   3.156   6.413   4.068
10129TIP3    H230265   3.054   6.340   3.983
10130TIP3   OH230266   3.872   6.472   3.240
10130TIP3    H130267   3.928   6.404   3.202
10130TIP3    H230268   3.904   6.481   3.330
10131TIP3   OH230269   3.919   6.521   3.512
10131TIP3    H130270   3.832   6.529   3.551
10131TIP3    H230271   3.970   6.475   3.578
10132TIP3   OH230272   4.694   5.781   4.785
10132TIP3    H130273   4.613   5.803   4.739
10132TIP3    H230274   4.708   5.688   4.766
10133TIP3   OH230275   3.287   6.196   4.815
10133TIP3    H130276   3.339   6.179   4.894
10133TIP3    H230277   3.215   6.133   4.820
10134TIP3   OH230278   3.691   5.022   4.591
10134TIP3    H130279   3.605   4.985   4.571
10134TIP3    H230280   3.672   5.096   4.649
10135TIP3   OH230281   4.214   5.137   4.797
10135TIP3    H130282   4.283   5.096   4.849
10135TIP3    H230283   4.135   5.128   4.851
10136TIP3   OH230284   4.464   5.566   4.715
10136TIP3    H130285   4.415   5.560   4.797
10136TIP3    H230286   4.436   5.649   4.676
10137TIP3   OH230287   4.124   5.696   3.265
10137TIP3    H130288   4.086   5.669   3.181
10137TIP3    H230289   4.205   5.742   3.240
10138TIP3   OH230290   3.834   5.065   3.569
10138TIP3    H130291   3.801   5.066   3.659
10138TIP3    H230292   3.796   4.986   3.531
10139TIP3   OH230293   3.620   5.536   4.615
10139TIP3    H130294   3.571   5.553   4.696
10139TIP3    H230295   3.605   5.614   4.561
10140TIP3   OH230296   3.501   5.421   4.126
10140TIP3    H130297   3.411   5.397   4.146
10140TIP3    H230298   3.518   5.382   4.041
10141TIP3   OH230299   3.995   5.508   3.854
10141TIP3    H130300   3.941   5.577   3.815
10141TIP3    H230301   4.049   5.476   3.782
10142TIP3   OH230302   4.172   5.785   4.947
10142TIP3    H130303   4.146   5.713   5.005
10142TIP3    H230304   4.264   5.799   4.965
10143TIP3   OH230305   4.152   5.534   4.091
10143TIP3    H130306   4.091   5.566   4.024
10143TIP3    H230307   4.188   5.453   4.055
10144TIP3   OH230308   3.438   5.564   4.824
10144TIP3    H130309   3.467   5.625   4.892
10144TIP3    H230310   3.426   5.481   4.870
10145TIP3   OH230311   3.493   5.040   3.536
10145TIP3    H130312   3.481   5.037   3.631
10145TIP3    H230313   3.417   5.089   3.504
10146TIP3   OH230314   3.033   5.087   4.404
10146TIP3    H130315   3.108   5.117   4.456
10146TIP3    H230316   3.072   5.054   4.323
10147TIP3   OH230317   3.006   5.071   3.923
10147TIP3    H130318   3.049   5.104   3.845
10147TIP3    H230319   2.942   5.139   3.947
10148TIP3   OH230320   4.165   5.779   4.520
10148TIP3    H130321   4.196   5.711   4.459
10148TIP3    H230322   4.134   5.731   4.596
10149TIP3   OH230323   3.830   5.243   4.193
10149TIP3    H130324   3.748   5.241   4.242
10149TIP3    H230325   3.898   5.241   4.260
10150TIP3   OH230326   3.264   5.297   4.198
10150TIP3    H130327   3.172   5.305   4.171
10150TIP3    H230328   3.288   5.208   4.175
10151TIP3   OH230329   3.537   5.297   3.886
10151TIP3    H130330   3.629   5.311   3.863
10151TIP3    H230331   3.489   5.318   3.805
10152TIP3   OH230332   4.320   5.320   4.393
10152TIP3    H130333   4.288   5.331   4.483
10152TIP3    H230334   4.260   5.257   4.354
10153TIP3   OH230335   3.378   5.331   3.667
10153TIP3    H130336   3.305   5.284   3.626
10153TIP3    H230337   3.429   5.365   3.594
10154TIP3   OH230338   4.493   7.009   4.609
10154TIP3    H130339   4.491   7.029   4.516
10154TIP3    H230340   4.571   7.055   4.641
10155TIP3   OH230341   3.450   6.120   5.035
10155TIP3    H130342   3.530   6.148   5.080
10155TIP3    H230343   3.385   6.115   5.104
10156TIP3   OH230344   3.915   5.571   4.289
10156TIP3    H130345   3.986   5.529   4.240
10156TIP3    H230346   3.919   5.531   4.375
10157TIP3   OH230347   3.438   5.058   4.165
10157TIP3    H130348   3.405   4.981   4.210
10157TIP3    H230349   3.485   5.023   4.089
10158TIP3   OH230350   3.893   5.475   4.563
10158TIP3    H130351   3.803   5.499   4.587
10158TIP3    H230352   3.947   5.524   4.624
10159TIP3   OH230353   3.624   5.861   3.673
10159TIP3    H130354   3.558   5.793   3.661
10159TIP3    H230355   3.609   5.893   3.762
10160TIP3   OH230356   4.527   6.095   4.300
10160TIP3    H130357   4.551   6.143   4.221
10160TIP3    H230358   4.444   6.052   4.278
10161TIP3   OH230359   4.086   5.171   3.535
10161TIP3    H130360   3.992   5.154   3.542
10161TIP3    H230361   4.095   5.264   3.557
10162TIP3   OH230362   4.032   6.180   4.668
10162TIP3    H130363   4.048   6.150   4.758
10162TIP3    H230364   3.987   6.264   4.679
10163TIP3   OH230365   4.157   5.419   3.638
10163TIP3    H130366   4.251   5.424   3.653
10163TIP3    H230367   4.137   5.496   3.585
10164TIP3   OH230368   3.322   5.882   4.347
10164TIP3    H130369   3.356   5.854   4.262
10164TIP3    H230370   3.358   5.818   4.410
10165TIP3   OH230371   3.771   6.010   3.495
10165TIP3    H130372   3.727   6.094   3.501
10165TIP3    H230373   3.720   5.952   3.552
10166TIP3   OH230374   3.197   5.802   4.963
10166TIP3    H130375   3.220   5.788   5.056
10166TIP3    H230376   3.132   5.734   4.944
10167TIP3   OH230377   3.927   5.913   4.979
10167TIP3    H130378   3.865   5.857   4.932
10167TIP3    H230379   4.013   5.881   4.953
10168TIP3   OH230380   4.187   6.445   4.563
10168TIP3    H130381   4.092   6.434   4.574
10168TIP3    H230382   4.215   6.491   4.642
10169TIP3   OH230383   4.598   5.509   3.471
10169TIP3    H130384   4.537   5.461   3.415
10169TIP3    H230385   4.597   5.598   3.437
10170TIP3   OH230386   4.814   6.366   4.551
10170TIP3    H130387   4.719   6.361   4.548
10170TIP3    H230388   4.843   6.336   4.465
10171TIP3   OH230389   4.298   6.326   3.382
10171TIP3    H130390   4.273   6.255   3.442
10171TIP3    H230391   4.310   6.282   3.298
10172TIP3   OH230392   4.292   5.954   4.221
10172TIP3    H130393   4.200   5.931   4.235
10172TIP3    H230394   4.329   5.878   4.177
10173TIP3   OH230395   3.419   6.186   3.976
10173TIP3    H130396   3.422   6.263   3.920
10173TIP3    H230397   3.327   6.161   3.978
10174TIP3   OH230398   2.992   5.487   3.686
10174TIP3    H130399   3.032   5.573   3.696
10174TIP3    H230400   2.910   5.493   3.734
10175TIP3   OH230401   3.561   5.952   3.921
10175TIP3    H130402   3.527   6.040   3.939
10175TIP3    H230403   3.525   5.898   3.991
10176TIP3   OH230404   3.691   6.529   4.443
10176TIP3    H130405   3.732   6.599   4.392
10176TIP3    H230406   3.764   6.490   4.492
10177TIP3   OH230407   3.337   6.427   3.826
10177TIP3    H130408   3.254   6.430   3.873
10177TIP3    H230409   3.369   6.517   3.828
10178TIP3   OH230410   4.082   6.162   4.401
10178TIP3    H130411   4.071   6.160   4.496
10178TIP3    H230412   4.157   6.105   4.384
10179TIP3   OH230413   4.052   6.056   3.286
10179TIP3    H130414   4.105   6.032   3.362
10179TIP3    H230415   3.964   6.026   3.308
10180TIP3   OH230416   4.325   6.698   4.453
10180TIP3    H130417   4.251   6.637   4.450
10180TIP3    H230418   4.310   6.759   4.381
10181TIP3   OH230419   4.391   6.532   3.103
10181TIP3    H130420   4.431   6.600   3.048
10181TIP3    H230421   4.312   6.573   3.137
10182TIP3   OH230422   3.402   5.315   4.962
10182TIP3    H130423   3.308   5.327   4.974
10182TIP3    H230424   3.424   5.240   5.016
10183TIP3   OH230425   4.214   5.991   3.503
10183TIP3    H130426   4.199   5.925   3.571
10183TIP3    H230427   4.308   5.988   3.487
10184TIP3   OH230428   3.128   6.391   4.604
10184TIP3    H130429   3.177   6.312   4.627
10184TIP3    H230430   3.157   6.457   4.666
10185TIP3   OH230431   3.418   6.032   3.286
10185TIP3    H130432   3.430   5.944   3.251
10185TIP3    H230433   3.393   6.017   3.378
10186TIP3   OH230434   3.359   6.046   3.563
10186TIP3    H130435   3.434   6.010   3.610
10186TIP3    H230436   3.372   6.141   3.567
10187TIP3   OH230437   3.105   5.741   3.759
10187TIP3    H130438   3.038   5.781   3.814
10187TIP3    H230439   3.120   5.804   3.689
10188TIP3   OH230440   4.247   5.372   4.655
10188TIP3    H130441   4.331   5.403   4.687
10188TIP3    H230442   4.231   5.291   4.703
10189TIP3   OH230443   4.129   5.124   3.814
10189TIP3    H130444   4.114   5.144   3.722
10189TIP3    H230445   4.167   5.204   3.850
10190TIP3   OH230446   3.630   6.241   3.508
10190TIP3    H130447   3.544   6.267   3.541
10190TIP3    H230448   3.645   6.300   3.433
10191TIP3   OH230449   3.821   5.301   3.919
10191TIP3    H130450   3.883   5.371   3.899
10191TIP3    H230451   3.823   5.293   4.014
10192TIP3   OH230452   4.089   5.621   4.726
10192TIP3    H130453   4.109   5.670   4.805
10192TIP3    H230454   4.141   5.541   4.734
10193TIP3   OH230455   3.965   5.031   4.020
10193TIP3    H130456   3.955   5.105   4.080
10193TIP3    H230457   4.022   5.064   3.951
10194TIP3   OH230458   3.375   6.320   3.571
10194TIP3    H130459   3.345   6.386   3.508
10194TIP3    H230460   3.358   6.359   3.657
10195TIP3   OH230461   3.475   5.027   3.813
10195TIP3    H130462   3.468   5.117   3.845
10195TIP3    H230463   3.569   5.007   3.817
10196TIP3   OH230464   4.727   5.513   4.699
10196TIP3    H130465   4.634   5.517   4.719
10196TIP3    H230466   4.732   5.467   4.615
10197TIP3   OH230467   4.379   5.714   4.096
10197TIP3    H130468   4.303   5.656   4.106
10197TIP3    H230469   4.450   5.669   4.141
10198TIP3   OH230470   3.094   5.952   3.562
10198TIP3    H130471   3.166   6.014   3.574
10198TIP3    H230472   3.128   5.886   3.501
10199TIP3   OH230473   3.035   5.220   3.697
10199TIP3    H130474   3.039   5.316   3.691
10199TIP3    H230475   2.965   5.195   3.636
10200TIP3   OH230476   4.347   6.674   4.042
10200TIP3    H130477   4.302   6.719   3.971
10200TIP3    H230478   4.440   6.689   4.026
10201TIP3   OH230479   3.423   4.940   4.569
10201TIP3    H130480   3.394   4.910   4.483
10201TIP3    H230481   3.412   4.864   4.626
10202TIP3   OH230482   2.969   6.167   3.956
10202TIP3    H130483   2.892   6.190   4.008
10202TIP3    H230484   2.949   6.198   3.868
10203TIP3   OH230485   3.119   6.696   5.024
10203TIP3    H130486   3.204   6.697   5.069
10203TIP3    H230487   3.096   6.603   5.020
10204TIP3   OH230488   3.603   6.664   5.064
10204TIP3    H130489   3.695   6.643   5.076
10204TIP3    H230490   3.574   6.607   4.993
10205TIP3   OH230491   3.583   6.235   3.201
10205TIP3    H130492   3.526   6.167   3.236
10205TIP3    H230493   3.657   6.187   3.165
10206TIP3   OH230494   4.239   6.570   4.803
10206TIP3    H130495   4.229   6.501   4.868
10206TIP3    H230496   4.316   6.619   4.831
10207TIP3   OH230497   4.020   6.281   3.108
10207TIP3    H130498   4.060   6.216   3.165
10207TIP3    H230499   4.074   6.279   3.029
10208TIP3   OH230500   3.248   6.104   5.222
10208TIP3    H130501   3.268   6.011   5.229
10208TIP3    H230502   3.162   6.107   5.179
10209TIP3   OH230503   3.237   5.775   3.425
10209TIP3    H130504   3.278   5.713   3.486
10209TIP3    H230505   3.288   5.767   3.345
10210TIP3   OH230506   3.857   6.188   4.996
10210TIP3    H130507   3.815   6.203   4.911
10210TIP3    H230508   3.888   6.097   4.991
10211TIP3   OH230509   3.736   5.954   3.226
10211TIP3    H130510   3.738   5.967   3.320
10211TIP3    H230511   3.737   5.859   3.215
10212TIP3   OH230512   4.351   6.199   4.604
10212TIP3    H130513   4.424   6.243   4.560
10212TIP3    H230514   4.276   6.257   4.590
10213TIP3   OH230515   3.370   5.843   5.205
10213TIP3    H130516   3.437   5.778   5.184
10213TIP3    H230517   3.393   5.872   5.293
10214TIP3   OH230518   3.446   5.654   3.647
10214TIP3    H130519   3.409   5.610   3.723
10214TIP3    H230520   3.476   5.584   3.590
10215TIP3   OH230521   3.704   5.727   4.868
10215TIP3    H130522   3.626   5.783   4.871
10215TIP3    H230523   3.753   5.756   4.792
10216TIP3   OH230524   3.536   5.454   3.478
10216TIP3    H130525   3.505   5.455   3.387
10216TIP3    H230526   3.631   5.458   3.471
10217TIP3   OH230527   4.223   6.126   5.002
10217TIP3    H130528   4.300   6.101   4.952
10217TIP3    H230529   4.216   6.060   5.071
10218TIP3   OH230530   4.357   5.787   3.138
10218TIP3    H130531   4.337   5.736   3.060
10218TIP3    H230532   4.326   5.876   3.118
10219TIP3   OH230533   3.825   5.509   4.994
10219TIP3    H130534   3.828   5.431   4.938
10219TIP3    H230535   3.783   5.576   4.939
10220TIP3   OH230536   3.834   5.315   4.803
10220TIP3    H130537   3.858   5.331   4.711
10220TIP3    H230538   3.750   5.268   4.798
10221TIP3   OH230539   3.858   5.838   4.675
10221TIP3    H130540   3.939   5.837   4.624
10221TIP3    H230541   3.802   5.901   4.631
10222TIP3   OH230542   4.439   5.799   5.056
10222TIP3    H130543   4.483   5.722   5.092
10222TIP3    H230544   4.509   5.853   5.020
10223TIP3   OH230545   4.482   6.057   4.790
10223TIP3    H130546   4.422   6.106   4.734
10223TIP3    H230547   4.568   6.074   4.753
10224TIP3   OH230548   3.706   5.623   5.223
10224TIP3    H130549   3.635   5.562   5.241
10224TIP3    H230550   3.738   5.599   5.136
10225TIP3   OH230551   4.086   5.563   5.082
10225TIP3    H130552   4.081   5.558   5.177
10225TIP3    H230553   3.998   5.541   5.052
10226TIP3   OH230554   4.331   5.513   4.949
10226TIP3    H130555   4.250   5.521   4.999
10226TIP3    H230556   4.394   5.476   5.010
10227TIP3   OH230557   3.549   5.405   5.276
10227TIP3    H130558   3.587   5.330   5.230
10227TIP3    H230559   3.574   5.392   5.367
10228TIP3   OH230560   4.107   5.275   5.276
10228TIP3    H130561   4.099   5.239   5.188
10228TIP3    H230562   4.041   5.345   5.279
10229TIP3   OH230563   3.344   6.523   3.384
10229TIP3    H130564   3.438   6.512   3.367
10229TIP3    H230565   3.310   6.565   3.305
10230TIP3   OH230566   2.825   5.900   3.605
10230TIP3    H130567   2.916   5.922   3.586
10230TIP3    H230568   2.812   5.815   3.563
10231TIP3   OH230569   2.737   6.508   4.016
10231TIP3    H130570   2.675   6.447   3.975
10231TIP3    H230571   2.783   6.456   4.081
10232TIP3   OH230572   2.870   6.365   4.207
10232TIP3    H130573   2.863   6.286   4.261
10232TIP3    H230574   2.923   6.425   4.259
10233TIP3   OH230575   4.598   6.768   4.000
10233TIP3    H130576   4.628   6.795   4.087
10233TIP3    H230577   4.664   6.803   3.940
10234TIP3   OH230578   4.631   6.780   4.283
10234TIP3    H130579   4.584   6.697   4.276
10234TIP3    H230580   4.706   6.760   4.339
10235TIP3   OH230581   4.675   6.461   4.856
10235TIP3    H130582   4.602   6.466   4.918
10235TIP3    H230583   4.716   6.547   4.860
10236TIP3   OH230584   4.492   5.974   3.475
10236TIP3    H130585   4.560   6.035   3.445
10236TIP3    H230586   4.530   5.935   3.554
10237TIP3   OH230587   4.614   5.848   3.683
10237TIP3    H130588   4.552   5.801   3.739
10237TIP3    H230589   4.681   5.879   3.743
10238TIP3   OH230590   4.674   6.231   4.109
10238TIP3    H130591   4.725   6.165   4.064
10238TIP3    H230592   4.664   6.302   4.046
10239TIP3   OH230593   4.504   6.533   4.305
10239TIP3    H130594   4.435   6.571   4.359
10239TIP3    H230595   4.458   6.483   4.237
10240TIP3   OH230596   4.555   5.750   3.326
10240TIP3    H130597   4.487   5.748   3.259
10240TIP3    H230598   4.530   5.824   3.382
10241TIP3   OH230599   4.428   5.419   3.279
10241TIP3    H130600   4.386   5.459   3.202
10241TIP3    H230601   4.405   5.327   3.273
10242TIP3   OH230602   4.433   5.694   3.827
10242TIP3    H130603   4.442   5.599   3.818
10242TIP3    H230604   4.420   5.707   3.921
10243TIP3   OH230605   3.062   5.772   4.568
10243TIP3    H130606   3.058   5.739   4.479
10243TIP3    H230607   3.155   5.772   4.590
10244TIP3   OH230608   4.725   6.120   4.681
10244TIP3    H130609   4.795   6.054   4.673
10244TIP3    H230610   4.749   6.188   4.618
10245TIP3   OH230611   4.909   5.923   4.704
10245TIP3    H130612   4.833   5.875   4.739
10245TIP3    H230613   4.982   5.863   4.714
10246TIP3   OH230614   4.372   5.154   3.267
10246TIP3    H130615   4.447   5.124   3.319
10246TIP3    H230616   4.301   5.095   3.291
10247TIP3   OH230617   4.433   5.411   3.720
10247TIP3    H130618   4.468   5.323   3.737
10247TIP3    H230619   4.489   5.446   3.651
10248TIP3   OH230620   4.595   5.589   4.216
10248TIP3    H130621   4.677   5.612   4.174
10248TIP3    H230622   4.604   5.620   4.306
10249TIP3   OH230623   4.661   5.731   4.449
10249TIP3    H130624   4.583   5.761   4.496
10249TIP3    H230625   4.693   5.809   4.403
10250TIP3   OH230626   3.283   5.461   5.256
10250TIP3    H130627   3.378   5.449   5.253
10250TIP3    H230628   3.249   5.376   5.285
10251TIP3   OH230629   5.154   5.327   4.997
10251TIP3    H130630   5.127   5.235   4.991
10251TIP3    H230631   5.090   5.374   4.944
10252TIP3   OH230632   4.537   5.160   3.761
10252TIP3    H130633   4.587   5.147   3.841
10252TIP3    H230634   4.477   5.085   3.758
10253TIP3   OH230635   3.242   5.149   4.577
10253TIP3    H130636   3.300   5.073   4.589
10253TIP3    H230637   3.301   5.224   4.571
10254TIP3   OH230638   3.043   5.423   4.649
10254TIP3    H130639   3.090   5.412   4.566
10254TIP3    H230640   3.076   5.505   4.684
10255TIP3   OH230641   4.982   5.465   4.825
10255TIP3    H130642   4.890   5.485   4.844
10255TIP3    H230643   4.979   5.406   4.749
10256TIP3   OH230644   4.620   5.097   3.389
10256TIP3    H130645   4.662   5.026   3.340
10256TIP3    H230646   4.684   5.168   3.389
10257TIP3   OH230647   3.024   4.927   4.152
10257TIP3    H130648   2.932   4.923   4.177
10257TIP3    H230649   3.025   4.983   4.075
10258TIP3   OH230650   4.186   6.631   3.657
10258TIP3    H130651   4.230   6.611   3.575
10258TIP3    H230652   4.245   6.692   3.701
10259TIP3   OH230653   3.238   5.000   4.956
10259TIP3    H130654   3.201   5.004   5.044
10259TIP3    H230655   3.174   5.045   4.900
10260TIP3   OH230656   3.282   6.436   5.045
10260TIP3    H130657   3.195   6.404   5.024
10260TIP3    H230658   3.297   6.409   5.136
10261TIP3   OH230659   3.462   6.466   4.589
10261TIP3    H130660   3.413   6.540   4.552
10261TIP3    H230661   3.549   6.474   4.549
10262TIP3   OH230662   3.910   6.712   4.730
10262TIP3    H130663   3.950   6.709   4.817
10262TIP3    H230664   3.974   6.760   4.677
10263TIP3   OH230665   4.089   6.862   4.586
10263TIP3    H130666   4.156   6.808   4.544
10263TIP3    H230667   4.138   6.917   4.647
10264TIP3   OH230668   3.138   6.726   4.612
10264TIP3    H130669   3.051   6.758   4.589
10264TIP3    H230670   3.149   6.751   4.703
10265TIP3   OH230671   3.375   6.704   4.471
10265TIP3    H130672   3.291   6.714   4.517
10265TIP3    H230673   3.357   6.732   4.382
10266TIP3   OH230674   3.801   6.732   4.270
10266TIP3    H130675   3.732   6.748   4.205
10266TIP3    H230676   3.814   6.816   4.313
10267TIP3   OH230677   4.069   6.672   4.321
10267TIP3    H130678   3.976   6.684   4.300
10267TIP3    H230679   4.113   6.745   4.277
10268TIP3   OH230680   4.280   6.863   4.235
10268TIP3    H130681   4.265   6.945   4.188
10268TIP3    H230682   4.305   6.801   4.166
10269TIP3   OH230683   3.053   6.513   4.362
10269TIP3    H130684   3.077   6.490   4.452
10269TIP3    H230685   3.121   6.472   4.308
10270TIP3   OH230686   3.246   6.386   4.217
10270TIP3    H130687   3.258   6.303   4.263
10270TIP3    H230688   3.335   6.422   4.211
10271TIP3   OH230689   3.514   6.481   4.219
10271TIP3    H130690   3.540   6.391   4.201
10271TIP3    H230691   3.555   6.502   4.303
10272TIP3   OH230692   4.087   5.138   4.305
10272TIP3    H130693   4.040   5.072   4.356
10272TIP3    H230694   4.158   5.090   4.262
10273TIP3   OH230695   4.614   5.018   4.211
10273TIP3    H130696   4.648   5.069   4.138
10273TIP3    H230697   4.520   5.034   4.210
10274TIP3   OH230698   4.707   5.122   3.974
10274TIP3    H130699   4.773   5.065   3.935
10274TIP3    H230700   4.740   5.211   3.960
10275TIP3   OH230701   3.334   4.844   4.323
10275TIP3    H130702   3.243   4.815   4.323
10275TIP3    H230703   3.385   4.763   4.318
10276TIP3   OH230704   3.124   4.717   3.969
10276TIP3    H130705   3.153   4.772   3.896
10276TIP3    H230706   3.093   4.780   4.035
10277TIP3   OH230707   3.781   4.878   4.204
10277TIP3    H130708   3.836   4.927   4.144
10277TIP3    H230709   3.796   4.918   4.289
10278TIP3   OH230710   4.329   5.024   4.187
10278TIP3    H130711   4.323   4.992   4.097
10278TIP3    H230712   4.312   4.946   4.241
10279TIP3   OH230713   4.354   4.946   3.750
10279TIP3    H130714   4.270   4.991   3.758
10279TIP3    H230715   4.341   4.862   3.794
10280TIP3   OH230716   2.837   6.288   3.754
10280TIP3    H130717   2.771   6.236   3.709
10280TIP3    H230718   2.817   6.378   3.730
10281TIP3   OH230719   3.240   4.872   3.737
10281TIP3    H130720   3.286   4.813   3.677
10281TIP3    H230721   3.309   4.929   3.772
10282TIP3   OH230722   3.753   5.052   3.835
10282TIP3    H130723   3.811   5.002   3.892
10282TIP3    H230724   3.771   5.143   3.856
10283TIP3   OH230725   3.612   6.477   3.328
10283TIP3    H130726   3.699   6.500   3.297
10283TIP3    H230727   3.586   6.402   3.274
10284TIP3   OH230728   4.327   6.591   3.424
10284TIP3    H130729   4.323   6.496   3.414
10284TIP3    H230730   4.285   6.625   3.345
10285TIP3   OH230731   3.795   5.150   5.348
10285TIP3    H130732   3.888   5.132   5.338
10285TIP3    H230733   3.765   5.085   5.411
10286TIP3   OH230734   2.923   6.315   3.396
10286TIP3    H130735   2.938   6.337   3.488
10286TIP3    H230736   3.002   6.268   3.369
10287TIP3   OH230737   4.554   6.740   4.612
10287TIP3    H130738   4.479   6.704   4.565
10287TIP3    H230739   4.537   6.834   4.618
10288TIP3   OH230740   5.821   6.112   3.379
10288TIP3    H130741   5.796   6.202   3.360
10288TIP3    H230742   5.747   6.060   3.348
10289TIP3   OH230743   5.820   6.108   3.762
10289TIP3    H130744   5.851   6.079   3.847
10289TIP3    H230745   5.778   6.031   3.723
10290TIP3   OH230746   5.122   6.008   4.129
10290TIP3    H130747   5.151   5.939   4.188
10290TIP3    H230748   5.202   6.057   4.108
10291TIP3   OH230749   6.061   6.414   3.442
10291TIP3    H130750   6.052   6.340   3.501
10291TIP3    H230751   6.094   6.485   3.498
10292TIP3   OH230752   5.093   6.414   3.852
10292TIP3    H130753   5.081   6.319   3.853
10292TIP3    H230754   5.188   6.426   3.845
10293TIP3   OH230755   4.797   5.638   3.653
10293TIP3    H130756   4.737   5.712   3.648
10293TIP3    H230757   4.749   5.566   3.612
10294TIP3   OH230758   4.861   5.908   3.807
10294TIP3    H130759   4.902   5.830   3.843
10294TIP3    H230760   4.910   5.927   3.727
10295TIP3   OH230761   5.716   6.874   3.459
10295TIP3    H130762   5.760   6.806   3.407
10295TIP3    H230763   5.706   6.835   3.546
10296TIP3   OH230764   5.623   6.336   3.808
10296TIP3    H130765   5.653   6.258   3.762
10296TIP3    H230766   5.704   6.382   3.832
10297TIP3   OH230767   6.643   5.661   3.801
10297TIP3    H130768   6.666   5.743   3.846
10297TIP3    H230769   6.662   5.678   3.709
10298TIP3   OH230770   6.035   5.840   3.839
10298TIP3    H130771   6.073   5.755   3.862
10298TIP3    H230772   6.001   5.826   3.750
10299TIP3   OH230773   6.065   5.572   3.427
10299TIP3    H130774   6.133   5.563   3.494
10299TIP3    H230775   6.108   5.617   3.354
10300TIP3   OH230776   4.996   5.693   3.909
10300TIP3    H130777   5.083   5.670   3.941
10300TIP3    H230778   4.982   5.634   3.834
10301TIP3   OH230779   5.441   5.894   3.708
10301TIP3    H130780   5.533   5.868   3.718
10301TIP3    H230781   5.398   5.815   3.673
10302TIP3   OH230782   6.710   5.870   3.973
10302TIP3    H130783   6.630   5.914   3.943
10302TIP3    H230784   6.699   5.863   4.068
10303TIP3   OH230785   5.364   5.475   4.242
10303TIP3    H130786   5.311   5.511   4.171
10303TIP3    H230787   5.317   5.499   4.322
10304TIP3   OH230788   5.714   6.333   3.248
10304TIP3    H130789   5.671   6.307   3.167
10304TIP3    H230790   5.671   6.416   3.273
10305TIP3   OH230791   5.475   6.258   4.036
10305TIP3    H130792   5.412   6.319   4.074
10305TIP3    H230793   5.515   6.305   3.964
10306TIP3   OH230794   6.276   5.588   3.603
10306TIP3    H130795   6.254   5.551   3.688
10306TIP3    H230796   6.329   5.665   3.622
10307TIP3   OH230797   5.240   5.589   4.011
10307TIP3    H130798   5.304   5.657   4.034
10307TIP3    H230799   5.279   5.543   3.937
10308TIP3   OH230800   5.298   6.451   4.135
10308TIP3    H130801   5.276   6.534   4.093
10308TIP3    H230802   5.223   6.430   4.191
10309TIP3   OH230803   4.696   6.140   3.368
10309TIP3    H130804   4.655   6.165   3.285
10309TIP3    H230805   4.727   6.223   3.405
10310TIP3   OH230806   6.134   6.658   3.613
10310TIP3    H130807   6.047   6.645   3.650
10310TIP3    H230808   6.127   6.740   3.565
10311TIP3   OH230809   6.423   5.570   3.959
10311TIP3    H130810   6.335   5.597   3.933
10311TIP3    H230811   6.479   5.602   3.889
10312TIP3   OH230812   5.724   5.206   3.960
10312TIP3    H130813   5.707   5.112   3.963
10312TIP3    H230814   5.646   5.246   3.999
10313TIP3   OH230815   5.840   6.703   3.282
10313TIP3    H130816   5.884   6.620   3.266
10313TIP3    H230817   5.898   6.769   3.243
10314TIP3   OH230818   5.979   6.487   3.190
10314TIP3    H130819   5.942   6.410   3.148
10314TIP3    H230820   6.015   6.454   3.273
10315TIP3   OH230821   6.361   6.570   3.949
10315TIP3    H130822   6.351   6.492   3.895
10315TIP3    H230823   6.347   6.643   3.889
10316TIP3   OH230824   5.651   5.963   3.208
10316TIP3    H130825   5.572   6.012   3.189
10316TIP3    H230826   5.699   5.961   3.125
10317TIP3   OH230827   5.615   5.746   2.925
10317TIP3    H130828   5.678   5.798   2.976
10317TIP3    H230829   5.669   5.683   2.878
10318TIP3   OH230830   6.556   6.210   3.799
10318TIP3    H130831   6.473   6.258   3.803
10318TIP3    H230832   6.589   6.227   3.711
10319TIP3   OH230833   6.000   6.044   3.184
10319TIP3    H130834   5.946   6.069   3.259
10319TIP3    H230835   6.084   6.019   3.222
10320TIP3   OH230836   6.235   6.085   4.094
10320TIP3    H130837   6.233   6.167   4.143
10320TIP3    H230838   6.151   6.083   4.047
10321TIP3   OH230839   5.233   6.043   3.596
10321TIP3    H130840   5.189   5.987   3.532
10321TIP3    H230841   5.306   5.989   3.628
10322TIP3   OH230842   5.364   6.455   3.745
10322TIP3    H130843   5.339   6.411   3.664
10322TIP3    H230844   5.452   6.421   3.765
10323TIP3   OH230845   5.369   6.013   3.955
10323TIP3    H130846   5.398   5.987   3.867
10323TIP3    H230847   5.412   6.097   3.971
10324TIP3   OH230848   5.892   6.652   3.731
10324TIP3    H130849   5.881   6.729   3.787
10324TIP3    H230850   5.880   6.577   3.789
10325TIP3   OH230851   5.503   6.572   4.276
10325TIP3    H130852   5.446   6.633   4.323
10325TIP3    H230853   5.443   6.517   4.227
10326TIP3   OH230854   5.844   5.903   3.007
10326TIP3    H130855   5.899   5.960   3.061
10326TIP3    H230856   5.868   5.925   2.917
10327TIP3   OH230857   5.261   6.128   4.381
10327TIP3    H130858   5.265   6.214   4.424
10327TIP3    H230859   5.168   6.106   4.381
10328TIP3   OH230860   5.583   6.584   3.284
10328TIP3    H130861   5.662   6.636   3.301
10328TIP3    H230862   5.522   6.645   3.242
10329TIP3   OH230863   5.298   6.741   4.363
10329TIP3    H130864   5.267   6.737   4.273
10329TIP3    H230865   5.222   6.718   4.417
10330TIP3   OH230866   6.360   5.146   3.051
10330TIP3    H130867   6.281   5.166   3.101
10330TIP3    H230868   6.378   5.226   3.001
10331TIP3   OH230869   5.098   5.892   3.402
10331TIP3    H130870   5.027   5.923   3.347
10331TIP3    H230871   5.075   5.800   3.421
10332TIP3   OH230872   6.157   6.512   2.603
10332TIP3    H130873   6.163   6.607   2.590
10332TIP3    H230874   6.246   6.480   2.590
10333TIP3   OH230875   4.880   6.268   4.309
10333TIP3    H130876   4.816   6.247   4.241
10333TIP3    H230877   4.917   6.183   4.335
10334TIP3   OH230878   4.735   6.464   3.942
10334TIP3    H130879   4.829   6.450   3.930
10334TIP3    H230880   4.729   6.540   3.999
10335TIP3   OH230881   6.595   6.911   3.997
10335TIP3    H130882   6.599   6.816   4.007
10335TIP3    H230883   6.515   6.937   4.042
10336TIP3   OH230884   5.702   6.701   4.135
10336TIP3    H130885   5.704   6.792   4.165
10336TIP3    H230886   5.633   6.660   4.186
10337TIP3   OH230887   5.463   6.829   3.084
10337TIP3    H130888   5.419   6.808   3.002
10337TIP3    H230889   5.432   6.917   3.106
10338TIP3   OH230890   4.903   6.677   3.471
10338TIP3    H130891   4.950   6.669   3.554
10338TIP3    H230892   4.849   6.598   3.467
10339TIP3   OH230893   5.669   6.729   2.727
10339TIP3    H130894   5.725   6.661   2.689
10339TIP3    H230895   5.700   6.738   2.817
10340TIP3   OH230896   5.716   6.777   2.998
10340TIP3    H130897   5.629   6.787   3.037
10340TIP3    H230898   5.767   6.732   3.066
10341TIP3   OH230899   6.489   6.041   4.276
10341TIP3    H130900   6.411   6.058   4.224
10341TIP3    H230901   6.512   5.950   4.255
10342TIP3   OH230902   5.083   6.452   4.302
10342TIP3    H130903   5.135   6.435   4.381
10342TIP3    H230904   5.012   6.389   4.306
10343TIP3   OH230905   5.488   5.284   4.076
10343TIP3    H130906   5.400   5.252   4.059
10343TIP3    H230907   5.476   5.353   4.141
10344TIP3   OH230908   6.006   5.394   4.289
10344TIP3    H130909   6.075   5.358   4.346
10344TIP3    H230910   5.925   5.382   4.340
10345TIP3   OH230911   6.250   5.816   4.197
10345TIP3    H130912   6.207   5.816   4.282
10345TIP3    H230913   6.235   5.903   4.161
10346TIP3   OH230914   5.918   5.949   2.749
10346TIP3    H130915   5.883   5.924   2.664
10346TIP3    H230916   5.997   5.999   2.729
10347TIP3   OH230917   5.635   5.314   3.056
10347TIP3    H130918   5.598   5.323   3.143
10347TIP3    H230919   5.585   5.243   3.015
10348TIP3   OH230920   5.413   5.787   4.101
10348TIP3    H130921   5.361   5.805   4.180
10348TIP3    H230922   5.403   5.865   4.047
10349TIP3   OH230923   5.293   5.680   3.606
10349TIP3    H130924   5.262   5.599   3.648
10349TIP3    H230925   5.318   5.653   3.518
10350TIP3   OH230926   5.793   5.767   3.341
10350TIP3    H130927   5.738   5.836   3.304
10350TIP3    H230928   5.845   5.736   3.268
10351TIP3   OH230929   5.968   6.041   4.433
10351TIP3    H130930   5.944   5.969   4.492
10351TIP3    H230931   6.061   6.056   4.450
10352TIP3   OH230932   5.953   5.790   3.577
10352TIP3    H130933   5.891   5.823   3.512
10352TIP3    H230934   5.980   5.704   3.543
10353TIP3   OH230935   5.234   5.820   4.312
10353TIP3    H130936   5.260   5.883   4.379
10353TIP3    H230937   5.223   5.738   4.359
10354TIP3   OH230938   5.288   5.302   3.022
10354TIP3    H130939   5.279   5.301   3.118
10354TIP3    H230940   5.210   5.349   2.992
10355TIP3   OH230941   4.835   5.342   3.890
10355TIP3    H130942   4.906   5.372   3.947
10355TIP3    H230943   4.878   5.318   3.808
10356TIP3   OH230944   4.798   5.321   3.405
10356TIP3    H130945   4.852   5.357   3.334
10356TIP3    H230946   4.741   5.394   3.430
10357TIP3   OH230947   5.960   6.035   4.008
10357TIP3    H130948   5.992   5.968   3.948
10357TIP3    H230949   5.928   5.986   4.083
10358TIP3   OH230950   5.617   5.493   3.665
10358TIP3    H130951   5.527   5.486   3.697
10358TIP3    H230952   5.670   5.497   3.745
10359TIP3   OH230953   5.345   5.579   3.361
10359TIP3    H130954   5.436   5.582   3.329
10359TIP3    H230955   5.293   5.580   3.281
10360TIP3   OH230956   6.112   5.576   3.877
10360TIP3    H130957   6.084   5.589   3.968
10360TIP3    H230958   6.047   5.515   3.841
10361TIP3   OH230959   5.167   5.592   3.149
10361TIP3    H130960   5.094   5.544   3.109
10361TIP3    H230961   5.218   5.623   3.074
10362TIP3   OH230962   6.288   7.267   4.095
10362TIP3    H130963   6.286   7.284   4.001
10362TIP3    H230964   6.368   7.310   4.125
10363TIP3   OH230965   5.246   6.377   4.522
10363TIP3    H130966   5.326   6.404   4.567
10363TIP3    H230967   5.181   6.372   4.591
10364TIP3   OH230968   5.711   5.830   3.774
10364TIP3    H130969   5.780   5.780   3.730
10364TIP3    H230970   5.709   5.795   3.863
10365TIP3   OH230971   5.692   5.744   4.036
10365TIP3    H130972   5.603   5.744   4.071
10365TIP3    H230973   5.747   5.778   4.107
10366TIP3   OH230974   5.421   6.115   3.160
10366TIP3    H130975   5.353   6.049   3.148
10366TIP3    H230976   5.406   6.148   3.249
10367TIP3   OH230977   6.323   6.353   3.787
10367TIP3    H130978   6.349   6.399   3.707
10367TIP3    H230979   6.241   6.309   3.764
10368TIP3   OH230980   5.884   5.425   3.024
10368TIP3    H130981   5.789   5.413   3.026
10368TIP3    H230982   5.898   5.517   3.046
10369TIP3   OH230983   5.829   6.438   4.155
10369TIP3    H130984   5.843   6.407   4.244
10369TIP3    H230985   5.783   6.521   4.166
10370TIP3   OH230986   5.954   5.673   3.120
10370TIP3    H130987   6.047   5.680   3.141
10370TIP3    H230988   5.934   5.754   3.072
10371TIP3   OH230989   5.120   6.139   3.834
10371TIP3    H130990   5.152   6.111   3.748
10371TIP3    H230991   5.152   6.073   3.894
10372TIP3   OH230992   5.566   6.265   2.981
10372TIP3    H130993   5.522   6.350   2.986
10372TIP3    H230994   5.515   6.209   3.039
10373TIP3   OH230995   4.994   6.058   4.450
10373TIP3    H130996   5.015   6.043   4.542
10373TIP3    H230997   4.928   5.992   4.430
10374TIP3   OH230998   5.723   6.169   4.467
10374TIP3    H130999   5.662   6.117   4.415
10374TIP3    H231000   5.810   6.138   4.440
10375TIP3   OH231001   5.983   6.703   4.049
10375TIP3    H131002   5.889   6.689   4.061
10375TIP3    H231003   6.011   6.748   4.129
10376TIP3   OH231004   6.384   5.765   2.957
10376TIP3    H131005   6.326   5.717   2.898
10376TIP3    H231006   6.387   5.854   2.921
10377TIP3   OH231007   6.611   6.624   4.037
10377TIP3    H131008   6.515   6.618   4.034
10377TIP3    H231009   6.639   6.592   3.951
10378TIP3   OH231010   6.093   6.583   2.868
10378TIP3    H131011   6.071   6.514   2.930
10378TIP3    H231012   6.106   6.537   2.785
10379TIP3   OH231013   6.088   6.211   3.708
10379TIP3    H131014   5.996   6.187   3.722
10379TIP3    H231015   6.126   6.135   3.664
10380TIP3   OH231016   5.215   6.442   3.461
10380TIP3    H131017   5.217   6.521   3.406
10380TIP3    H231018   5.122   6.420   3.468
10381TIP3   OH231019   4.777   5.746   3.164
10381TIP3    H131020   4.826   5.826   3.183
10381TIP3    H231021   4.702   5.749   3.223
10382TIP3   OH231022   5.356   6.209   3.406
10382TIP3    H131023   5.322   6.296   3.425
10382TIP3    H231024   5.322   6.153   3.476
10383TIP3   OH231025   5.487   6.786   3.930
10383TIP3    H131026   5.527   6.856   3.878
10383TIP3    H231027   5.561   6.747   3.977
10384TIP3   OH231028   5.135   6.682   3.313
10384TIP3    H131029   5.050   6.686   3.358
10384TIP3    H231030   5.167   6.772   3.313
10385TIP3   OH231031   5.878   6.419   3.888
10385TIP3    H131032   5.867   6.417   3.983
10385TIP3    H231033   5.953   6.362   3.870
10386TIP3   OH231034   5.848   6.310   2.773
10386TIP3    H131035   5.903   6.287   2.848
10386TIP3    H231036   5.759   6.284   2.799
10387TIP3   OH231037   6.120   6.956   3.941
10387TIP3    H131038   6.047   6.894   3.937
10387TIP3    H231039   6.106   7.016   3.868
10388TIP3   OH231040   6.187   6.789   2.590
10388TIP3    H131041   6.227   6.857   2.535
10388TIP3    H231042   6.107   6.830   2.624
10389TIP3   OH231043   5.207   5.567   4.459
10389TIP3    H131044   5.112   5.570   4.469
10389TIP3    H231045   5.236   5.503   4.524
10390TIP3   OH231046   6.011   6.245   2.988
10390TIP3    H131047   5.997   6.180   3.058
10390TIP3    H231048   6.106   6.244   2.974
10391TIP3   OH231049   4.924   6.648   4.091
10391TIP3    H131050   4.974   6.569   4.113
10391TIP3    H231051   4.955   6.713   4.154
10392TIP3   OH231052   5.215   6.290   2.771
10392TIP3    H131053   5.228   6.201   2.739
10392TIP3    H231054   5.196   6.280   2.864
10393TIP3   OH231055   5.161   6.299   3.043
10393TIP3    H131056   5.230   6.267   3.101
10393TIP3    H231057   5.166   6.394   3.050
10394TIP3   OH231058   4.892   5.991   3.242
10394TIP3    H131059   4.829   6.032   3.302
10394TIP3    H231060   4.911   6.059   3.177
10395TIP3   OH231061   6.044   5.627   4.140
10395TIP3    H131062   6.127   5.664   4.169
10395TIP3    H231063   6.033   5.548   4.192
10396TIP3   OH231064   5.925   5.338   3.291
10396TIP3    H131065   5.912   5.379   3.206
10396TIP3    H231066   5.951   5.410   3.349
10397TIP3   OH231067   5.425   6.497   2.992
10397TIP3    H131068   5.340   6.521   3.028
10397TIP3    H231069   5.442   6.563   2.924
10398TIP3   OH231070   5.632   5.547   3.397
10398TIP3    H131071   5.687   5.625   3.387
10398TIP3    H231072   5.622   5.537   3.492
10399TIP3   OH231073   5.885   5.876   4.216
10399TIP3    H131074   5.908   5.930   4.292
10399TIP3    H231075   5.943   5.800   4.222
10400TIP3   OH231076   5.169   6.573   3.058
10400TIP3    H131077   5.140   6.639   2.995
10400TIP3    H231078   5.153   6.612   3.144
10401TIP3   OH231079   5.266   5.286   3.297
10401TIP3    H131080   5.242   5.348   3.366
10401TIP3    H231081   5.352   5.253   3.323
10402TIP3   OH231082   6.523   5.789   4.165
10402TIP3    H131083   6.434   5.782   4.201
10402TIP3    H231084   6.530   5.716   4.104
10403TIP3   OH231085   6.176   5.972   3.585
10403TIP3    H131086   6.101   5.913   3.593
10403TIP3    H231087   6.248   5.926   3.629
10404TIP3   OH231088   4.890   6.202   3.048
10404TIP3    H131089   4.954   6.272   3.061
10404TIP3    H231090   4.930   6.144   2.984
10405TIP3   OH231091   4.835   5.477   3.178
10405TIP3    H131092   4.833   5.572   3.177
10405TIP3    H231093   4.747   5.451   3.151
10406TIP3   OH231094   6.143   6.932   3.530
10406TIP3    H131095   6.098   6.976   3.458
10406TIP3    H231096   6.236   6.946   3.512
10407TIP3   OH231097   5.221   5.201   4.071
10407TIP3    H131098   5.193   5.176   3.984
10407TIP3    H231099   5.208   5.123   4.125
10408TIP3   OH231100   4.761   6.423   3.440
10408TIP3    H131101   4.686   6.446   3.494
10408TIP3    H231102   4.738   6.455   3.353
10409TIP3   OH231103   4.915   6.952   4.511
10409TIP3    H131104   5.000   6.953   4.556
10409TIP3    H231105   4.891   6.860   4.507
10410TIP3   OH231106   5.400   6.920   4.551
10410TIP3    H131107   5.492   6.898   4.561
10410TIP3    H231108   5.370   6.864   4.480
10411TIP3   OH231109   5.379   6.493   2.685
10411TIP3    H131110   5.321   6.426   2.721
10411TIP3    H231111   5.454   6.444   2.650
10412TIP3   OH231112   6.035   6.827   4.291
10412TIP3    H131113   6.025   6.757   4.355
10412TIP3    H231114   6.113   6.875   4.319
10413TIP3   OH231115   5.816   6.537   2.594
10413TIP3    H131116   5.858   6.474   2.652
10413TIP3    H231117   5.870   6.536   2.515
10414TIP3   OH231118   5.044   6.360   4.709
10414TIP3    H131119   5.064   6.267   4.715
10414TIP3    H231120   4.958   6.364   4.666
10415TIP3   OH231121   5.025   6.013   2.903
10415TIP3    H131122   5.074   5.977   2.977
10415TIP3    H231123   5.089   6.018   2.832
10416TIP3   OH231124   5.653   6.445   4.482
10416TIP3    H131125   5.611   6.460   4.397
10416TIP3    H231126   5.684   6.354   4.478
10417TIP3   OH231127   5.532   6.209   2.712
10417TIP3    H131128   5.534   6.225   2.806
10417TIP3    H231129   5.530   6.114   2.703
10418TIP3   OH231130   6.148   6.456   4.091
10418TIP3    H131131   6.220   6.499   4.046
10418TIP3    H231132   6.073   6.514   4.076
10419TIP3   OH231133   5.165   6.097   4.693
10419TIP3    H131134   5.236   6.036   4.670
10419TIP3    H231135   5.189   6.129   4.780
10420TIP3   OH231136   5.233   5.913   3.127
10420TIP3    H131137   5.205   5.876   3.211
10420TIP3    H231138   5.267   5.838   3.078
10421TIP3   OH231139   5.501   5.983   4.356
10421TIP3    H131140   5.423   6.038   4.359
10421TIP3    H231141   5.549   6.012   4.279
10422TIP3   OH231142   5.333   5.708   2.962
10422TIP3    H131143   5.304   5.713   2.871
10422TIP3    H231144   5.428   5.717   2.958
10423TIP3   OH231145   6.019   6.382   4.489
10423TIP3    H131146   6.096   6.358   4.438
10423TIP3    H231147   6.014   6.316   4.558
10424TIP3   OH231148   6.152   6.043   2.625
10424TIP3    H131149   6.132   5.994   2.546
10424TIP3    H231150   6.122   6.132   2.606
10425TIP3   OH231151   5.622   5.771   4.476
10425TIP3    H131152   5.599   5.693   4.425
10425TIP3    H231153   5.584   5.844   4.427
10426TIP3   OH231154   5.656   6.099   4.167
10426TIP3    H131155   5.733   6.090   4.111
10426TIP3    H231156   5.598   6.159   4.119
10427TIP3   OH231157   6.235   6.058   4.542
10427TIP3    H131158   6.281   5.981   4.575
10427TIP3    H231159   6.303   6.112   4.502
10428TIP3   OH231160   6.278   6.314   4.278
10428TIP3    H131161   6.218   6.363   4.221
10428TIP3    H231162   6.364   6.329   4.240
10429TIP3   OH231163   5.503   5.880   4.711
10429TIP3    H131164   5.434   5.816   4.728
10429TIP3    H231165   5.533   5.860   4.622
10430TIP3   OH231166   5.884   5.819   4.571
10430TIP3    H131167   5.876   5.817   4.667
10430TIP3    H231168   5.795   5.801   4.540
10431TIP3   OH231169   6.122   5.772   4.434
10431TIP3    H131170   6.043   5.781   4.487
10431TIP3    H231171   6.186   5.731   4.492
10432TIP3   OH231172   5.341   5.666   4.763
10432TIP3    H131173   5.339   5.577   4.727
10432TIP3    H231174   5.374   5.655   4.852
10433TIP3   OH231175   5.883   5.518   4.767
10433TIP3    H131176   5.906   5.507   4.674
10433TIP3    H231177   5.831   5.598   4.769
10434TIP3   OH231178   5.140   6.776   2.869
10434TIP3    H131179   5.234   6.768   2.853
10434TIP3    H231180   5.106   6.821   2.792
10435TIP3   OH231181   4.620   6.153   3.086
10435TIP3    H131182   4.712   6.176   3.074
10435TIP3    H231183   4.612   6.066   3.047
10436TIP3   OH231184   4.530   6.765   3.502
10436TIP3    H131185   4.465   6.705   3.464
10436TIP3    H231186   4.576   6.713   3.567
10437TIP3   OH231187   4.667   6.622   3.691
10437TIP3    H131188   4.657   6.543   3.745
10437TIP3    H231189   4.719   6.681   3.745
10438TIP3   OH231190   6.393   7.028   3.487
10438TIP3    H131191   6.426   7.051   3.573
10438TIP3    H231192   6.461   7.057   3.426
10439TIP3   OH231193   6.428   7.037   3.771
10439TIP3    H131194   6.380   6.955   3.762
10439TIP3    H231195   6.503   7.014   3.826
10440TIP3   OH231196   6.470   6.717   4.342
10440TIP3    H131197   6.399   6.722   4.405
10440TIP3    H231198   6.512   6.803   4.347
10441TIP3   OH231199   6.291   6.229   2.963
10441TIP3    H131200   6.358   6.290   2.933
10441TIP3    H231201   6.327   6.189   3.041
10442TIP3   OH231202   6.413   6.100   3.163
10442TIP3    H131203   6.360   6.055   3.230
10442TIP3    H231204   6.494   6.123   3.208
10443TIP3   OH231205   6.470   6.488   3.595
10443TIP3    H131206   6.521   6.420   3.553
10443TIP3    H231207   6.460   6.556   3.529
10444TIP3   OH231208   6.300   6.790   3.791
10444TIP3    H131209   6.230   6.826   3.845
10444TIP3    H231210   6.255   6.740   3.723
10445TIP3   OH231211   6.351   6.004   2.812
10445TIP3    H131212   6.282   6.008   2.746
10445TIP3    H231213   6.331   6.075   2.872
10446TIP3   OH231214   6.223   5.674   2.761
10446TIP3    H131215   6.178   5.717   2.688
10446TIP3    H231216   6.199   5.581   2.752
10447TIP3   OH231217   6.226   5.950   3.315
10447TIP3    H131218   6.240   5.856   3.310
10447TIP3    H231219   6.216   5.967   3.409
10448TIP3   OH231220   4.858   6.026   4.057
10448TIP3    H131221   4.854   5.995   3.967
10448TIP3    H231222   4.952   6.028   4.077
10449TIP3   OH231223   6.522   6.376   4.169
10449TIP3    H131224   6.591   6.310   4.162
10449TIP3    H231225   6.545   6.442   4.104
10450TIP3   OH231226   6.705   6.180   4.191
10450TIP3    H131227   6.629   6.133   4.227
10450TIP3    H231228   6.777   6.118   4.199
10451TIP3   OH231229   6.170   5.407   2.749
10451TIP3    H131230   6.243   5.381   2.805
10451TIP3    H231231   6.097   5.352   2.778
10452TIP3   OH231232   6.227   5.666   3.205
10452TIP3    H131233   6.266   5.581   3.223
10452TIP3    H231234   6.283   5.705   3.138
10453TIP3   OH231235   6.396   5.844   3.699
10453TIP3    H131236   6.477   5.869   3.656
10453TIP3    H231237   6.403   5.879   3.788
10454TIP3   OH231238   6.455   5.988   3.927
10454TIP3    H131239   6.380   6.017   3.979
10454TIP3    H231240   6.489   6.068   3.886
10455TIP3   OH231241   5.074   5.712   4.739
10455TIP3    H131242   5.169   5.707   4.735
10455TIP3    H231243   5.048   5.631   4.784
10456TIP3   OH231244   6.340   5.420   3.245
10456TIP3    H131245   6.388   5.407   3.327
10456TIP3    H231246   6.282   5.344   3.239
10457TIP3   OH231247   5.036   5.407   4.075
10457TIP3    H131248   5.092   5.329   4.079
10457TIP3    H231249   5.097   5.479   4.059
10458TIP3   OH231250   4.840   5.681   4.138
10458TIP3    H131251   4.885   5.666   4.055
10458TIP3    H231252   4.871   5.766   4.168
10459TIP3   OH231253   6.417   5.354   2.875
10459TIP3    H131254   6.459   5.284   2.825
10459TIP3    H231255   6.480   5.426   2.875
10460TIP3   OH231256   4.817   5.171   3.631
10460TIP3    H131257   4.726   5.177   3.661
10460TIP3    H231258   4.823   5.235   3.560
10461TIP3   OH231259   5.983   6.887   3.144
10461TIP3    H131260   6.027   6.868   3.061
10461TIP3    H231261   6.040   6.950   3.188
10462TIP3   OH231262   5.005   5.234   4.457
10462TIP3    H131263   4.956   5.253   4.538
10462TIP3    H231264   4.965   5.290   4.391
10463TIP3   OH231265   5.078   6.692   4.533
10463TIP3    H131266   4.991   6.661   4.511
10463TIP3    H231267   5.091   6.666   4.624
10464TIP3   OH231268   5.259   6.724   4.077
10464TIP3    H131269   5.208   6.796   4.039
10464TIP3    H231270   5.346   6.732   4.036
10465TIP3   OH231271   5.707   6.968   4.218
10465TIP3    H131272   5.747   6.966   4.305
10465TIP3    H231273   5.770   7.016   4.164
10466TIP3   OH231274   5.885   7.118   4.073
10466TIP3    H131275   5.951   7.064   4.031
10466TIP3    H231276   5.935   7.173   4.134
10467TIP3   OH231277   4.934   6.983   4.099
10467TIP3    H131278   4.847   7.015   4.075
10467TIP3    H231279   4.943   7.006   4.191
10468TIP3   OH231280   5.171   6.960   3.958
10468TIP3    H131281   5.088   6.971   4.003
10468TIP3    H231282   5.154   6.988   3.868
10469TIP3   OH231283   5.597   6.988   3.756
10469TIP3    H131284   5.529   7.004   3.690
10469TIP3    H231285   5.610   7.073   3.798
10470TIP3   OH231286   5.865   6.929   3.809
10470TIP3    H131287   5.772   6.940   3.789
10470TIP3    H231288   5.908   7.002   3.763
10471TIP3   OH231289   6.079   7.121   3.721
10471TIP3    H131290   6.061   7.202   3.673
10471TIP3    H231291   6.102   7.058   3.653
10472TIP3   OH231292   4.850   6.770   3.849
10472TIP3    H131293   4.873   6.747   3.939
10472TIP3    H231294   4.917   6.729   3.795
10473TIP3   OH231295   5.042   6.643   3.705
10473TIP3    H131296   5.055   6.560   3.751
10473TIP3    H231297   5.130   6.680   3.697
10474TIP3   OH231298   5.310   6.737   3.705
10474TIP3    H131299   5.337   6.647   3.688
10474TIP3    H231300   5.350   6.759   3.789
10475TIP3   OH231301   5.895   5.397   3.805
10475TIP3    H131302   5.840   5.330   3.846
10475TIP3    H231303   5.961   5.348   3.756
10476TIP3   OH231304   6.407   5.266   3.692
10476TIP3    H131305   6.443   5.320   3.622
10476TIP3    H231306   6.317   5.299   3.703
10477TIP3   OH231307   6.505   5.374   3.460
10477TIP3    H131308   6.574   5.321   3.420
10477TIP3    H231309   6.534   5.464   3.449
10478TIP3   OH231310   5.123   5.090   3.853
10478TIP3    H131311   5.035   5.077   3.815
10478TIP3    H231312   5.182   5.048   3.790
10479TIP3   OH231313   4.917   4.974   3.456
10479TIP3    H131314   4.947   5.032   3.386
10479TIP3    H231315   4.886   5.033   3.524
10480TIP3   OH231316   5.596   5.147   3.677
10480TIP3    H131317   5.603   5.239   3.652
10480TIP3    H231318   5.560   5.148   3.765
10481TIP3   OH231319   6.123   5.278   3.678
10481TIP3    H131320   6.145   5.243   3.592
10481TIP3    H231321   6.104   5.201   3.731
10482TIP3   OH231322   6.158   5.206   3.225
10482TIP3    H131323   6.079   5.257   3.243
10482TIP3    H231324   6.159   5.138   3.293
10483TIP3   OH231325   4.633   6.544   3.236
10483TIP3    H131326   4.551   6.506   3.204
10483TIP3    H231327   4.625   6.638   3.218
10484TIP3   OH231328   5.034   5.133   3.219
10484TIP3    H131329   5.083   5.073   3.164
10484TIP3    H231330   5.100   5.191   3.258
10485TIP3   OH231331   5.594   5.284   3.341
10485TIP3    H131332   5.539   5.263   3.417
10485TIP3    H231333   5.602   5.379   3.342
10486TIP3   OH231334   5.409   6.732   2.815
10486TIP3    H131335   5.496   6.756   2.784
10486TIP3    H231336   5.383   6.658   2.760
10487TIP3   OH231337   6.124   6.848   2.910
10487TIP3    H131338   6.118   6.753   2.901
10487TIP3    H231339   6.081   6.883   2.832
10488TIP3   OH231340   5.342   5.402   4.700
10488TIP3    H131341   5.295   5.328   4.739
10488TIP3    H231342   5.433   5.388   4.728
10489TIP3   OH231343   5.599   5.368   4.814
10489TIP3    H131344   5.692   5.389   4.824
10489TIP3    H231345   5.576   5.319   4.893
10490TIP3   OH231346   4.714   6.572   2.877
10490TIP3    H131347   4.712   6.593   2.970
10490TIP3    H231348   4.799   6.528   2.865
10491TIP3   OH231349   6.350   6.997   4.100
10491TIP3    H131350   6.275   6.960   4.053
10491TIP3    H231351   6.331   7.091   4.105
10492TIP3   OH231352   7.618   6.369   2.864
10492TIP3    H131353   7.592   6.459   2.847
10492TIP3    H231354   7.542   6.317   2.836
10493TIP3   OH231355   7.621   6.364   3.245
10493TIP3    H131356   7.648   6.336   3.332
10493TIP3    H231357   7.573   6.290   3.209
10494TIP3   OH231358   6.918   6.273   3.625
10494TIP3    H131359   6.953   6.200   3.676
10494TIP3    H231360   6.993   6.308   3.578
10495TIP3   OH231361   7.861   6.668   2.929
10495TIP3    H131362   7.845   6.598   2.992
10495TIP3    H231363   7.888   6.743   2.982
10496TIP3   OH231364   6.891   6.672   3.341
10496TIP3    H131365   6.881   6.576   3.344
10496TIP3    H231366   6.986   6.685   3.333
10497TIP3   OH231367   6.600   5.849   3.124
10497TIP3    H131368   6.596   5.940   3.156
10497TIP3    H231369   6.514   5.834   3.085
10498TIP3   OH231370   7.510   7.129   2.944
10498TIP3    H131371   7.557   7.061   2.896
10498TIP3    H231372   7.502   7.095   3.033
10499TIP3   OH231373   7.418   6.594   3.294
10499TIP3    H131374   7.446   6.517   3.245
10499TIP3    H231375   7.500   6.638   3.319
10500TIP3   OH231376   8.432   5.914   3.292
10500TIP3    H131377   8.458   5.995   3.336
10500TIP3    H231378   8.449   5.931   3.199
10501TIP3   OH231379   7.832   6.093   3.327
10501TIP3    H131380   7.871   6.009   3.348
10501TIP3    H231381   7.798   6.082   3.238
10502TIP3   OH231382   7.165   5.755   3.286
10502TIP3    H131383   7.141   5.830   3.232
10502TIP3    H231384   7.117   5.681   3.248
10503TIP3   OH231385   7.863   5.844   2.916
10503TIP3    H131386   7.931   5.827   2.981
10503TIP3    H231387   7.909   5.880   2.841
10504TIP3   OH231388   7.239   6.155   3.191
10504TIP3    H131389   7.330   6.129   3.208
10504TIP3    H231390   7.197   6.075   3.159
10505TIP3   OH231391   8.501   6.122   3.463
10505TIP3    H131392   8.420   6.167   3.440
10505TIP3    H231393   8.516   6.146   3.555
10506TIP3   OH231394   7.165   5.736   3.733
10506TIP3    H131395   7.113   5.770   3.660
10506TIP3    H231396   7.112   5.754   3.811
10507TIP3   OH231397   7.513   6.592   2.733
10507TIP3    H131398   7.466   6.563   2.655
10507TIP3    H231399   7.470   6.674   2.759
10508TIP3   OH231400   7.272   6.517   3.526
10508TIP3    H131401   7.207   6.577   3.563
10508TIP3    H231402   7.310   6.564   3.452
10509TIP3   OH231403   8.074   5.846   3.087
10509TIP3    H131404   8.059   5.797   3.169
10509TIP3    H231405   8.124   5.923   3.114
10510TIP3   OH231406   7.040   5.839   3.518
10510TIP3    H131407   7.081   5.924   3.531
10510TIP3    H231408   7.076   5.807   3.435
10511TIP3   OH231409   7.094   6.708   3.623
10511TIP3    H131410   7.071   6.790   3.580
10511TIP3    H231411   7.018   6.687   3.678
10512TIP3   OH231412   6.492   6.397   2.854
10512TIP3    H131413   6.450   6.425   2.772
10512TIP3    H231414   6.524   6.477   2.894
10513TIP3   OH231415   7.931   6.913   3.097
10513TIP3    H131416   7.844   6.901   3.136
10513TIP3    H231417   7.925   6.996   3.051
10514TIP3   OH231418   8.222   5.816   3.458
10514TIP3    H131419   8.134   5.841   3.428
10514TIP3    H231420   8.279   5.845   3.387
10515TIP3   OH231421   7.520   5.458   3.444
10515TIP3    H131422   7.506   5.364   3.454
10515TIP3    H231423   7.444   5.498   3.486
10516TIP3   OH231424   7.639   6.958   2.770
10516TIP3    H131425   7.683   6.876   2.752
10516TIP3    H231426   7.695   7.025   2.730
10517TIP3   OH231427   7.778   6.742   2.676
10517TIP3    H131428   7.732   6.667   2.639
10517TIP3    H231429   7.813   6.709   2.759
10518TIP3   OH231430   8.158   6.825   3.437
10518TIP3    H131431   8.146   6.748   3.382
10518TIP3    H231432   8.140   6.899   3.379
10519TIP3   OH231433   7.448   6.219   2.695
10519TIP3    H131434   7.368   6.268   2.678
10519TIP3    H231435   7.493   6.217   2.610
10520TIP3   OH231436   7.411   6.003   2.412
10520TIP3    H131437   7.474   6.054   2.463
10520TIP3    H231438   7.464   5.939   2.364
10521TIP3   OH231439   8.352   6.464   3.282
10521TIP3    H131440   8.270   6.512   3.291
10521TIP3    H231441   8.383   6.485   3.194
10522TIP3   OH231442   7.797   6.301   2.671
10522TIP3    H131443   7.741   6.326   2.744
10522TIP3    H231444   7.880   6.276   2.712
10523TIP3   OH231445   8.030   6.343   3.579
10523TIP3    H131446   8.029   6.426   3.627
10523TIP3    H231447   7.946   6.341   3.534
10524TIP3   OH231448   7.034   6.305   3.074
10524TIP3    H131449   6.984   6.244   3.020
10524TIP3    H231450   7.103   6.251   3.113
10525TIP3   OH231451   7.161   6.714   3.231
10525TIP3    H131452   7.133   6.664   3.154
10525TIP3    H231453   7.248   6.680   3.251
10526TIP3   OH231454   7.182   6.265   3.450
10526TIP3    H131455   7.188   6.250   3.356
10526TIP3    H231456   7.209   6.356   3.462
10527TIP3   OH231457   7.691   6.907   3.217
10527TIP3    H131458   7.677   6.986   3.270
10527TIP3    H231459   7.676   6.835   3.278
10528TIP3   OH231460   7.300   6.828   3.764
10528TIP3    H131461   7.243   6.889   3.810
10528TIP3    H231462   7.240   6.773   3.714
10529TIP3   OH231463   7.641   6.159   2.493
10529TIP3    H131464   7.695   6.217   2.546
10529TIP3    H231465   7.664   6.181   2.403
10530TIP3   OH231466   7.061   6.383   3.874
10530TIP3    H131467   7.062   6.469   3.916
10530TIP3    H231468   6.968   6.363   3.861
10531TIP3   OH231469   7.381   6.839   2.768
10531TIP3    H131470   7.458   6.893   2.789
10531TIP3    H231471   7.318   6.901   2.731
10532TIP3   OH231472   7.095   6.997   3.849
10532TIP3    H131473   7.064   6.994   3.759
10532TIP3    H231474   7.018   6.975   3.902
10533TIP3   OH231475   8.151   5.402   2.542
10533TIP3    H131476   8.072   5.419   2.593
10533TIP3    H231477   8.166   5.483   2.494
10534TIP3   OH231478   6.900   6.136   2.876
10534TIP3    H131479   6.828   6.176   2.828
10534TIP3    H231480   6.858   6.073   2.934
10535TIP3   OH231481   7.953   6.769   2.090
10535TIP3    H131482   7.958   6.863   2.076
10535TIP3    H231483   8.043   6.738   2.078
10536TIP3   OH231484   6.677   6.524   3.795
10536TIP3    H131485   6.615   6.503   3.726
10536TIP3    H231486   6.714   6.440   3.821
10537TIP3   OH231487   6.530   6.723   3.427
10537TIP3    H131488   6.623   6.702   3.416
10537TIP3    H231489   6.528   6.797   3.487
10538TIP3   OH231490   8.393   7.168   3.487
10538TIP3    H131491   8.394   7.073   3.497
10538TIP3    H231492   8.312   7.195   3.530
10539TIP3   OH231493   7.499   6.957   3.622
10539TIP3    H131494   7.501   7.048   3.651
10539TIP3    H231495   7.430   6.916   3.673
10540TIP3   OH231496   7.260   7.087   2.570
10540TIP3    H131497   7.215   7.066   2.489
10540TIP3    H231498   7.228   7.174   2.594
10541TIP3   OH231499   6.699   6.933   2.958
10541TIP3    H131500   6.747   6.925   3.041
10541TIP3    H231501   6.646   6.854   2.954
10542TIP3   OH231502   7.465   6.985   2.213
10542TIP3    H131503   7.521   6.917   2.176
10542TIP3    H231504   7.495   6.995   2.303
10543TIP3   OH231505   7.512   7.034   2.485
10543TIP3    H131506   7.424   7.043   2.523
10543TIP3    H231507   7.563   6.991   2.553
10544TIP3   OH231508   8.284   6.299   3.759
10544TIP3    H131509   8.204   6.317   3.709
10544TIP3    H231510   8.299   6.205   3.748
10545TIP3   OH231511   6.879   6.710   3.790
10545TIP3    H131512   6.931   6.691   3.868
10545TIP3    H231513   6.808   6.646   3.793
10546TIP3   OH231514   7.277   5.535   3.564
10546TIP3    H131515   7.191   5.502   3.538
10546TIP3    H231516   7.259   5.617   3.609
10547TIP3   OH231517   7.810   5.647   3.768
10547TIP3    H131518   7.879   5.616   3.828
10547TIP3    H231519   7.728   5.625   3.812
10548TIP3   OH231520   8.057   6.079   3.686
10548TIP3    H131521   8.005   6.074   3.766
10548TIP3    H231522   8.030   6.162   3.646
10549TIP3   OH231523   7.714   6.206   2.235
10549TIP3    H131524   7.679   6.180   2.150
10549TIP3    H231525   7.793   6.256   2.215
10550TIP3   OH231526   7.425   5.579   2.541
10550TIP3    H131527   7.395   5.581   2.632
10550TIP3    H231528   7.388   5.499   2.506
10551TIP3   OH231529   7.219   6.045   3.596
10551TIP3    H131530   7.162   6.061   3.671
10551TIP3    H231531   7.208   6.122   3.540
10552TIP3   OH231532   7.099   5.936   3.097
10552TIP3    H131533   7.010   5.915   3.123
10552TIP3    H231534   7.110   5.893   3.012
10553TIP3   OH231535   7.588   6.022   2.828
10553TIP3    H131536   7.533   6.091   2.790
10553TIP3    H231537   7.640   5.990   2.755
10554TIP3   OH231538   7.762   6.297   3.919
10554TIP3    H131539   7.738   6.225   3.978
10554TIP3    H231540   7.855   6.313   3.938
10555TIP3   OH231541   7.745   6.048   3.066
10555TIP3    H131542   7.684   6.082   3.001
10555TIP3    H231543   7.778   5.966   3.028
10556TIP3   OH231544   7.035   6.077   3.797
10556TIP3    H131545   7.051   6.141   3.866
10556TIP3    H231546   7.018   5.995   3.844
10557TIP3   OH231547   7.078   5.554   2.508
10557TIP3    H131548   7.075   5.551   2.604
10557TIP3    H231549   7.003   5.608   2.484
10558TIP3   OH231550   6.627   5.595   3.381
10558TIP3    H131551   6.697   5.633   3.435
10558TIP3    H231552   6.666   5.586   3.294
10559TIP3   OH231553   6.595   5.582   2.892
10559TIP3    H131554   6.646   5.620   2.820
10559TIP3    H231555   6.541   5.655   2.924
10560TIP3   OH231556   7.760   6.292   3.493
10560TIP3    H131557   7.790   6.224   3.434
10560TIP3    H231558   7.726   6.244   3.569
10561TIP3   OH231559   7.421   5.752   3.165
10561TIP3    H131560   7.335   5.754   3.207
10561TIP3    H231561   7.483   5.759   3.238
10562TIP3   OH231562   6.869   5.813   3.155
10562TIP3    H131563   6.776   5.835   3.156
10562TIP3    H231564   6.871   5.718   3.144
10563TIP3   OH231565   7.130   5.803   2.857
10563TIP3    H131566   7.220   5.827   2.836
10563TIP3    H231567   7.079   5.829   2.780
10564TIP3   OH231568   7.913   5.829   3.366
10564TIP3    H131569   7.882   5.844   3.455
10564TIP3    H231570   7.849   5.769   3.328
10565TIP3   OH231571   6.970   5.835   2.636
10565TIP3    H131572   6.893   5.798   2.593
10565TIP3    H231573   7.020   5.874   2.564
10566TIP3   OH231574   8.085   7.521   3.583
10566TIP3    H131575   8.080   7.542   3.490
10566TIP3    H231576   8.160   7.571   3.614
10567TIP3   OH231577   7.041   6.635   4.009
10567TIP3    H131578   7.121   6.662   4.053
10567TIP3    H231579   6.976   6.628   4.079
10568TIP3   OH231580   7.509   6.083   3.264
10568TIP3    H131581   7.578   6.041   3.213
10568TIP3    H231582   7.514   6.042   3.350
10569TIP3   OH231583   7.040   5.563   3.141
10569TIP3    H131584   7.001   5.486   3.184
10569TIP3    H231585   7.080   5.528   3.061
10570TIP3   OH231586   7.485   5.979   3.551
10570TIP3    H131587   7.395   6.009   3.563
10570TIP3    H231588   7.538   6.041   3.601
10571TIP3   OH231589   7.219   6.371   2.647
10571TIP3    H131590   7.150   6.305   2.635
10571TIP3    H231591   7.204   6.406   2.735
10572TIP3   OH231592   8.120   6.607   3.274
10572TIP3    H131593   8.144   6.656   3.195
10572TIP3    H231594   8.036   6.566   3.253
10573TIP3   OH231595   7.677   5.686   2.505
10573TIP3    H131596   7.583   5.669   2.514
10573TIP3    H231597   7.687   5.777   2.531
10574TIP3   OH231598   7.626   6.695   3.642
10574TIP3    H131599   7.635   6.664   3.732
10574TIP3    H231600   7.580   6.778   3.650
10575TIP3   OH231601   7.749   5.931   2.610
10575TIP3    H131602   7.843   5.937   2.627
10575TIP3    H231603   7.729   6.010   2.559
10576TIP3   OH231604   6.927   6.397   3.324
10576TIP3    H131605   6.949   6.372   3.234
10576TIP3    H231606   6.883   6.320   3.359
10577TIP3   OH231607   7.362   6.521   2.467
10577TIP3    H131608   7.318   6.606   2.472
10577TIP3    H231609   7.311   6.465   2.525
10578TIP3   OH231610   6.788   6.315   3.938
10578TIP3    H131611   6.809   6.299   4.030
10578TIP3    H231612   6.723   6.249   3.916
10579TIP3   OH231613   7.517   6.425   3.955
10579TIP3    H131614   7.453   6.372   3.908
10579TIP3    H231615   7.602   6.394   3.924
10580TIP3   OH231616   7.780   6.953   3.539
10580TIP3    H131617   7.685   6.945   3.549
10580TIP3    H231618   7.808   7.003   3.616
10581TIP3   OH231619   8.189   6.022   2.443
10581TIP3    H131620   8.128   5.974   2.387
10581TIP3    H231621   8.189   6.111   2.408
10582TIP3   OH231622   8.407   6.877   3.526
10582TIP3    H131623   8.311   6.874   3.522
10582TIP3    H231624   8.436   6.848   3.439
10583TIP3   OH231625   7.891   6.839   2.355
10583TIP3    H131626   7.864   6.771   2.417
10583TIP3    H231627   7.902   6.792   2.272
10584TIP3   OH231628   7.885   6.467   3.195
10584TIP3    H131629   7.793   6.444   3.210
10584TIP3    H231630   7.921   6.391   3.149
10585TIP3   OH231631   7.011   6.699   2.945
10585TIP3    H131632   7.010   6.779   2.892
10585TIP3    H231633   6.918   6.676   2.956
10586TIP3   OH231634   6.573   6.003   2.650
10586TIP3    H131635   6.623   6.082   2.670
10586TIP3    H231636   6.499   6.005   2.710
10587TIP3   OH231637   7.156   6.468   2.890
10587TIP3    H131638   7.120   6.555   2.910
10587TIP3    H231639   7.121   6.411   2.958
10588TIP3   OH231640   7.283   7.043   3.417
10588TIP3    H131641   7.322   7.113   3.365
10588TIP3    H231642   7.357   7.005   3.465
10589TIP3   OH231643   6.930   6.939   2.799
10589TIP3    H131644   6.846   6.943   2.845
10589TIP3    H231645   6.963   7.029   2.800
10590TIP3   OH231646   7.673   6.674   3.375
10590TIP3    H131647   7.663   6.675   3.470
10590TIP3    H231648   7.750   6.619   3.359
10591TIP3   OH231649   7.644   6.566   2.259
10591TIP3    H131650   7.698   6.543   2.335
10591TIP3    H231651   7.555   6.542   2.285
10592TIP3   OH231652   7.918   7.210   3.424
10592TIP3    H131653   7.842   7.152   3.420
10592TIP3    H231654   7.904   7.273   3.353
10593TIP3   OH231655   7.984   7.046   2.077
10593TIP3    H131656   8.025   7.114   2.024
10593TIP3    H231657   7.904   7.086   2.111
10594TIP3   OH231658   7.001   5.819   3.945
10594TIP3    H131659   6.907   5.831   3.958
10594TIP3    H231660   7.028   5.761   4.017
10595TIP3   OH231661   7.806   6.499   2.473
10595TIP3    H131662   7.793   6.436   2.544
10595TIP3    H231663   7.901   6.500   2.460
10596TIP3   OH231664   6.720   6.905   3.578
10596TIP3    H131665   6.767   6.824   3.597
10596TIP3    H231666   6.755   6.968   3.642
10597TIP3   OH231667   7.012   6.547   2.257
10597TIP3    H131668   7.025   6.457   2.227
10597TIP3    H231669   6.993   6.538   2.351
10598TIP3   OH231670   6.958   6.555   2.529
10598TIP3    H131671   7.024   6.523   2.590
10598TIP3    H231672   6.961   6.650   2.535
10599TIP3   OH231673   6.690   6.248   2.731
10599TIP3    H131674   6.626   6.286   2.792
10599TIP3    H231675   6.706   6.317   2.667
10600TIP3   OH231676   7.843   5.882   3.625
10600TIP3    H131677   7.921   5.919   3.665
10600TIP3    H231678   7.824   5.804   3.677
10601TIP3   OH231679   7.724   5.636   2.787
10601TIP3    H131680   7.707   5.658   2.695
10601TIP3    H231681   7.760   5.716   2.825
10602TIP3   OH231682   7.221   6.753   2.477
10602TIP3    H131683   7.136   6.777   2.515
10602TIP3    H231684   7.239   6.822   2.414
10603TIP3   OH231685   7.417   5.813   2.892
10603TIP3    H131686   7.477   5.885   2.875
10603TIP3    H231687   7.414   5.807   2.987
10604TIP3   OH231688   7.681   6.135   3.699
10604TIP3    H131689   7.697   6.189   3.776
10604TIP3    H231690   7.734   6.056   3.713
10605TIP3   OH231691   7.557   5.546   2.996
10605TIP3    H131692   7.540   5.622   3.051
10605TIP3    H231693   7.615   5.579   2.927
10606TIP3   OH231694   6.965   6.829   2.545
10606TIP3    H131695   6.935   6.895   2.482
10606TIP3    H231696   6.949   6.868   2.630
10607TIP3   OH231697   7.069   5.540   2.784
10607TIP3    H131698   7.061   5.629   2.818
10607TIP3    H231699   7.163   5.520   2.791
10608TIP3   OH231700   8.320   6.031   3.678
10608TIP3    H131701   8.225   6.033   3.690
10608TIP3    H231702   8.333   5.992   3.591
10609TIP3   OH231703   7.972   6.226   3.068
10609TIP3    H131704   7.895   6.170   3.079
10609TIP3    H231705   8.042   6.181   3.115
10610TIP3   OH231706   6.686   6.459   2.535
10610TIP3    H131707   6.748   6.530   2.548
10610TIP3    H231708   6.727   6.402   2.471
10611TIP3   OH231709   6.630   5.734   2.664
10611TIP3    H131710   6.631   5.829   2.665
10611TIP3    H231711   6.539   5.711   2.641
10612TIP3   OH231712   7.940   7.185   3.015
10612TIP3    H131713   7.895   7.229   2.943
10612TIP3    H231714   8.033   7.201   2.998
10613TIP3   OH231715   7.015   5.452   3.541
10613TIP3    H131716   6.983   5.426   3.455
10613TIP3    H231717   7.003   5.375   3.596
10614TIP3   OH231718   6.559   6.683   2.926
10614TIP3    H131719   6.484   6.703   2.982
10614TIP3    H231720   6.533   6.714   2.840
10615TIP3   OH231721   6.710   7.208   4.000
10615TIP3    H131722   6.797   7.207   4.042
10615TIP3    H231723   6.685   7.116   3.994
10616TIP3   OH231724   7.194   7.176   4.040
10616TIP3    H131725   7.287   7.158   4.049
10616TIP3    H231726   7.166   7.121   3.967
10617TIP3   OH231727   7.175   6.750   2.170
10617TIP3    H131728   7.117   6.684   2.208
10617TIP3    H231729   7.250   6.700   2.137
10618TIP3   OH231730   7.832   7.083   3.777
10618TIP3    H131731   7.822   7.014   3.842
10618TIP3    H231732   7.908   7.133   3.806
10619TIP3   OH231733   7.612   6.793   2.081
10619TIP3    H131734   7.655   6.730   2.139
10619TIP3    H231735   7.666   6.793   2.002
10620TIP3   OH231736   6.840   6.616   4.196
10620TIP3    H131737   6.859   6.523   4.201
10620TIP3    H231738   6.755   6.621   4.152
10621TIP3   OH231739   6.822   6.270   2.389
10621TIP3    H131740   6.870   6.236   2.465
10621TIP3    H231741   6.887   6.275   2.319
10622TIP3   OH231742   7.449   6.701   3.969
10622TIP3    H131743   7.406   6.718   3.885
10622TIP3    H231744   7.479   6.610   3.963
10623TIP3   OH231745   7.328   6.465   2.198
10623TIP3    H131746   7.330   6.481   2.292
10623TIP3    H231747   7.326   6.370   2.190
10624TIP3   OH231748   7.944   6.711   3.577
10624TIP3    H131749   8.016   6.757   3.533
10624TIP3    H231750   7.868   6.769   3.567
10625TIP3   OH231751   6.960   6.356   4.181
10625TIP3    H131752   7.029   6.294   4.157
10625TIP3    H231753   6.985   6.386   4.269
10626TIP3   OH231754   7.028   6.172   2.615
10626TIP3    H131755   6.995   6.141   2.700
10626TIP3    H231756   7.060   6.094   2.571
10627TIP3   OH231757   7.300   6.242   3.847
10627TIP3    H131758   7.219   6.293   3.850
10627TIP3    H231759   7.342   6.269   3.765
10628TIP3   OH231760   7.128   5.963   2.451
10628TIP3    H131761   7.099   5.969   2.360
10628TIP3    H231762   7.223   5.972   2.447
10629TIP3   OH231763   7.815   6.640   3.978
10629TIP3    H131764   7.891   6.616   3.925
10629TIP3    H231765   7.810   6.572   4.045
10630TIP3   OH231766   7.949   6.299   2.112
10630TIP3    H131767   7.930   6.250   2.032
10630TIP3    H231768   7.919   6.388   2.094
10631TIP3   OH231769   7.423   6.025   3.962
10631TIP3    H131770   7.417   5.946   3.907
10631TIP3    H231771   7.379   6.093   3.911
10632TIP3   OH231772   7.425   5.809   3.773
10632TIP3    H131773   7.450   5.851   3.691
10632TIP3    H231774   7.333   5.785   3.761
10633TIP3   OH231775   7.454   6.354   3.649
10633TIP3    H131776   7.531   6.355   3.591
10633TIP3    H231777   7.392   6.414   3.608
10634TIP3   OH231778   8.034   6.314   4.030
10634TIP3    H131779   8.082   6.231   4.034
10634TIP3    H231780   8.097   6.376   3.993
10635TIP3   OH231781   8.074   6.569   3.764
10635TIP3    H131782   8.013   6.619   3.709
10635TIP3    H231783   8.160   6.586   3.726
10636TIP3   OH231784   7.302   6.133   4.197
10636TIP3    H131785   7.230   6.073   4.214
10636TIP3    H231786   7.330   6.114   4.108
10637TIP3   OH231787   7.555   5.577   3.857
10637TIP3    H131788   7.515   5.661   3.834
10637TIP3    H231789   7.489   5.512   3.834
10638TIP3   OH231790   7.679   6.075   4.058
10638TIP3    H131791   7.664   6.072   4.153
10638TIP3    H231792   7.593   6.056   4.020
10639TIP3   OH231793   7.919   6.028   3.913
10639TIP3    H131794   7.844   6.033   3.971
10639TIP3    H231795   7.991   5.999   3.969
10640TIP3   OH231796   8.152   5.970   4.065
10640TIP3    H131797   8.162   5.876   4.082
10640TIP3    H231798   8.146   6.009   4.152
10641TIP3   OH231799   7.136   5.919   4.249
10641TIP3    H131800   7.140   5.831   4.211
10641TIP3    H231801   7.172   5.908   4.337
10642TIP3   OH231802   7.691   5.787   4.246
10642TIP3    H131803   7.685   5.765   4.153
10642TIP3    H231804   7.631   5.861   4.258
10643TIP3   OH231805   6.936   7.032   2.356
10643TIP3    H131806   7.031   7.025   2.340
10643TIP3    H231807   6.902   7.077   2.279
10644TIP3   OH231808   6.416   6.412   2.569
10644TIP3    H131809   6.508   6.434   2.559
10644TIP3    H231810   6.408   6.324   2.532
10645TIP3   OH231811   6.327   7.021   2.988
10645TIP3    H131812   6.262   6.961   2.951
10645TIP3    H231813   6.373   6.969   3.053
10646TIP3   OH231814   6.463   6.878   3.178
10646TIP3    H131815   6.453   6.799   3.232
10646TIP3    H231816   6.515   6.937   3.232
10647TIP3   OH231817   8.193   7.276   2.974
10647TIP3    H131818   8.218   7.307   3.061
10647TIP3    H231819   8.254   7.320   2.914
10648TIP3   OH231820   8.223   7.292   3.256
10648TIP3    H131821   8.176   7.209   3.250
10648TIP3    H231822   8.298   7.274   3.312
10649TIP3   OH231823   8.268   6.973   3.830
10649TIP3    H131824   8.196   6.978   3.892
10649TIP3    H231825   8.309   7.059   3.833
10650TIP3   OH231826   8.087   6.484   2.450
10650TIP3    H131827   8.152   6.548   2.420
10650TIP3    H231828   8.126   6.445   2.528
10651TIP3   OH231829   8.212   6.352   2.654
10651TIP3    H131830   8.147   6.310   2.710
10651TIP3    H231831   8.276   6.390   2.714
10652TIP3   OH231832   8.268   6.744   3.084
10652TIP3    H131833   8.318   6.679   3.035
10652TIP3    H231834   8.257   6.818   3.024
10653TIP3   OH231835   8.096   7.045   3.280
10653TIP3    H131836   8.027   7.087   3.331
10653TIP3    H231837   8.049   6.997   3.211
10654TIP3   OH231838   8.148   6.261   2.299
10654TIP3    H131839   8.080   6.261   2.231
10654TIP3    H231840   8.124   6.334   2.356
10655TIP3   OH231841   8.022   5.930   2.252
10655TIP3    H131842   7.978   5.973   2.178
10655TIP3    H231843   7.997   5.838   2.244
10656TIP3   OH231844   8.027   6.207   2.801
10656TIP3    H131845   8.033   6.112   2.794
10656TIP3    H231846   8.012   6.223   2.894
10657TIP3   OH231847   6.656   6.286   3.553
10657TIP3    H131848   6.653   6.244   3.467
10657TIP3    H231849   6.749   6.290   3.575
10658TIP3   OH231850   8.317   6.633   3.656
10658TIP3    H131851   8.387   6.568   3.647
10658TIP3    H231852   8.339   6.702   3.594
10659TIP3   OH231853   8.500   6.436   3.675
10659TIP3    H131854   8.425   6.390   3.712
10659TIP3    H231855   8.573   6.375   3.687
10660TIP3   OH231856   7.965   5.665   2.240
10660TIP3    H131857   8.038   5.636   2.295
10660TIP3    H231858   7.892   5.609   2.265
10661TIP3   OH231859   8.024   5.922   2.694
10661TIP3    H131860   8.061   5.835   2.711
10661TIP3    H231861   8.080   5.958   2.625
10662TIP3   OH231862   8.188   6.100   3.191
10662TIP3    H131863   8.270   6.124   3.148
10662TIP3    H231864   8.195   6.134   3.280
10663TIP3   OH231865   8.252   6.244   3.422
10663TIP3    H131866   8.175   6.275   3.469
10663TIP3    H231867   8.285   6.322   3.376
10664TIP3   OH231868   6.868   5.969   4.231
10664TIP3    H131869   6.963   5.957   4.227
10664TIP3    H231870   6.836   5.892   4.279
10665TIP3   OH231871   8.711   5.835   3.977
10665TIP3    H131872   8.765   5.768   3.933
10665TIP3    H231873   8.676   5.888   3.905
10666TIP3   OH231874   8.132   5.672   2.733
10666TIP3    H131875   8.179   5.659   2.814
10666TIP3    H231876   8.070   5.599   2.729
10667TIP3   OH231877   6.832   5.663   3.554
10667TIP3    H131878   6.894   5.591   3.561
10667TIP3    H231879   6.887   5.741   3.543
10668TIP3   OH231880   6.641   5.936   3.611
10668TIP3    H131881   6.673   5.920   3.522
10668TIP3    H231882   6.671   6.025   3.632
10669TIP3   OH231883   8.572   5.970   3.786
10669TIP3    H131884   8.490   6.014   3.804
10669TIP3    H231885   8.549   5.901   3.724
10670TIP3   OH231886   8.214   5.610   2.363
10670TIP3    H131887   8.252   5.538   2.312
10670TIP3    H231888   8.279   5.680   2.357
10671TIP3   OH231889   6.615   5.430   3.116
10671TIP3    H131890   6.526   5.436   3.152
10671TIP3    H231891   6.616   5.494   3.045
10672TIP3   OH231892   7.778   7.142   2.629
10672TIP3    H131893   7.827   7.127   2.549
10672TIP3    H231894   7.828   7.208   2.676
10673TIP3   OH231895   6.817   5.501   3.943
10673TIP3    H131896   6.775   5.526   4.026
10673TIP3    H231897   6.767   5.547   3.876
10674TIP3   OH231898   6.874   6.951   4.021
10674TIP3    H131899   6.788   6.918   3.997
10674TIP3    H231900   6.888   6.921   4.111
10675TIP3   OH231901   7.055   6.981   3.563
10675TIP3    H131902   7.005   7.053   3.526
10675TIP3    H231903   7.142   6.988   3.522
10676TIP3   OH231904   7.503   7.223   3.704
10676TIP3    H131905   7.543   7.223   3.791
10676TIP3    H231906   7.565   7.272   3.649
10677TIP3   OH231907   7.682   7.373   3.562
10677TIP3    H131908   7.750   7.321   3.518
10677TIP3    H231909   7.729   7.431   3.621
10678TIP3   OH231910   8.472   5.734   3.661
10678TIP3    H131911   8.382   5.731   3.627
10678TIP3    H231912   8.504   5.644   3.650
10679TIP3   OH231913   6.730   7.240   3.585
10679TIP3    H131914   6.644   7.275   3.561
10679TIP3    H231915   6.737   7.257   3.679
10680TIP3   OH231916   6.967   7.215   3.444
10680TIP3    H131917   6.883   7.228   3.489
10680TIP3    H231918   6.951   7.245   3.355
10681TIP3   OH231919   7.394   7.243   3.242
10681TIP3    H131920   7.326   7.262   3.177
10681TIP3    H231921   7.408   7.327   3.286
10682TIP3   OH231922   7.662   7.183   3.293
10682TIP3    H131923   7.568   7.197   3.276
10682TIP3    H231924   7.705   7.259   3.253
10683TIP3   OH231925   7.873   7.375   3.209
10683TIP3    H131926   7.857   7.458   3.164
10683TIP3    H231927   7.896   7.314   3.138
10684TIP3   OH231928   6.646   7.027   3.337
10684TIP3    H131929   6.670   7.003   3.426
10684TIP3    H231930   6.712   6.986   3.281
10685TIP3   OH231931   6.838   6.900   3.191
10685TIP3    H131932   6.850   6.817   3.237
10685TIP3    H231933   6.926   6.936   3.184
10686TIP3   OH231934   7.106   6.993   3.193
10686TIP3    H131935   7.132   6.903   3.176
10686TIP3    H231936   7.146   7.016   3.276
10687TIP3   OH231937   7.686   5.651   3.286
10687TIP3    H131938   7.636   5.586   3.334
10687TIP3    H231939   7.750   5.601   3.235
10688TIP3   OH231940   8.203   5.533   3.184
10688TIP3    H131941   8.239   5.583   3.110
10688TIP3    H231942   8.109   5.548   3.179
10689TIP3   OH231943   8.300   5.633   2.947
10689TIP3    H131944   8.370   5.580   2.908
10689TIP3    H231945   8.329   5.723   2.935
10690TIP3   OH231946   6.926   5.355   3.297
10690TIP3    H131947   6.834   5.328   3.297
10690TIP3    H231948   6.975   5.273   3.293
10691TIP3   OH231949   6.713   5.231   2.943
10691TIP3    H131950   6.743   5.287   2.872
10691TIP3    H231951   6.683   5.292   3.010
10692TIP3   OH231952   7.376   5.388   3.176
10692TIP3    H131953   7.430   5.441   3.118
10692TIP3    H231954   7.379   5.433   3.261
10693TIP3   OH231955   7.924   5.535   3.160
10693TIP3    H131956   7.913   5.503   3.071
10693TIP3    H231957   7.907   5.458   3.215
10694TIP3   OH231958   7.946   5.460   2.723
10694TIP3    H131959   7.863   5.506   2.734
10694TIP3    H231960   7.933   5.376   2.768
10695TIP3   OH231961   6.429   6.799   2.721
10695TIP3    H131962   6.346   6.763   2.688
10695TIP3    H231963   6.421   6.894   2.706
10696TIP3   OH231964   6.832   5.389   2.707
10696TIP3    H131965   6.880   5.328   2.651
10696TIP3    H231966   6.900   5.445   2.745
10697TIP3   OH231967   7.347   5.564   2.807
10697TIP3    H131968   7.404   5.516   2.867
10697TIP3    H231969   7.362   5.656   2.828
10698TIP3   OH231970   7.205   6.989   2.302
10698TIP3    H131971   7.292   7.013   2.271
10698TIP3    H231972   7.179   6.915   2.247
10699TIP3   OH231973   7.921   7.105   2.396
10699TIP3    H131974   7.915   7.010   2.387
10699TIP3    H231975   7.877   7.140   2.319
10700TIP3   OH231976   7.133   5.650   4.184
10700TIP3    H131977   7.087   5.588   4.241
10700TIP3    H231978   7.225   5.641   4.209
10701TIP3   OH231979   7.383   5.630   4.304
10701TIP3    H131980   7.478   5.641   4.301
10701TIP3    H231981   7.367   5.574   4.380
10702TIP3   OH231982   6.510   6.827   2.364
10702TIP3    H131983   6.506   6.850   2.457
10702TIP3    H231984   6.595   6.785   2.353
10703TIP3   OH231985   8.211   5.698   4.096
10703TIP3    H131986   8.233   5.670   4.185
10703TIP3    H231987   8.294   5.694   4.048
10704TIP3   OH231988   8.146   7.252   3.586
10704TIP3    H131989   8.071   7.218   3.538
10704TIP3    H231990   8.130   7.347   3.590
10705TIP3   OH231991   9.418   6.616   2.343
10705TIP3    H131992   9.401   6.709   2.330
10705TIP3    H231993   9.337   6.573   2.315
10706TIP3   OH231994   9.366   6.624   2.746
10706TIP3    H131995   9.432   6.609   2.814
10706TIP3    H231996   9.369   6.545   2.692
10707TIP3   OH231997   8.716   6.520   3.100
10707TIP3    H131998   8.745   6.453   3.162
10707TIP3    H231999   8.793   6.576   3.087
10708TIP3   OH232000   8.686   6.926   2.824
10708TIP3    H132001   8.675   6.831   2.827
10708TIP3    H232002   8.781   6.938   2.818
10709TIP3   OH232003   8.389   6.133   2.609
10709TIP3    H132004   8.345   6.216   2.625
10709TIP3    H232005   8.322   6.076   2.572
10710TIP3   OH232006   8.452   6.418   2.780
10710TIP3    H132007   8.498   6.343   2.817
10710TIP3    H232008   8.510   6.449   2.710
10711TIP3   OH232009   9.298   7.374   2.445
10711TIP3    H132010   9.339   7.295   2.410
10711TIP3    H232011   9.287   7.356   2.538
10712TIP3   OH232012   9.212   6.850   2.783
10712TIP3    H132013   9.247   6.766   2.754
10712TIP3    H232014   9.289   6.903   2.802
10713TIP3   OH232015   9.628   6.370   2.813
10713TIP3    H132016   9.630   6.276   2.836
10713TIP3    H232017   9.609   6.371   2.720
10714TIP3   OH232018   8.959   6.010   2.778
10714TIP3    H132019   8.942   6.084   2.719
10714TIP3    H232020   8.914   5.936   2.738
10715TIP3   OH232021   9.647   6.098   2.423
10715TIP3    H132022   9.720   6.063   2.474
10715TIP3    H232023   9.688   6.156   2.359
10716TIP3   OH232024   8.598   6.210   2.885
10716TIP3    H132025   8.678   6.194   2.935
10716TIP3    H232026   8.607   6.157   2.807
10717TIP3   OH232027   9.038   6.407   2.679
10717TIP3    H132028   9.130   6.385   2.692
10717TIP3    H232029   8.998   6.326   2.647
10718TIP3   OH232030   8.956   5.995   3.215
10718TIP3    H132031   8.901   6.030   3.145
10718TIP3    H232032   8.907   6.012   3.296
10719TIP3   OH232033   9.311   6.853   2.219
10719TIP3    H132034   9.264   6.823   2.142
10719TIP3    H232035   9.266   6.934   2.245
10720TIP3   OH232036   9.066   6.770   3.011
10720TIP3    H132037   9.004   6.834   3.047
10720TIP3    H232038   9.110   6.816   2.940
10721TIP3   OH232039   8.833   6.109   2.998
10721TIP3    H132040   8.890   6.182   3.022
10721TIP3    H232041   8.877   6.067   2.923
10722TIP3   OH232042   8.889   6.964   3.107
10722TIP3    H132043   8.870   7.048   3.066
10722TIP3    H232044   8.814   6.946   3.164
10723TIP3   OH232045   8.290   6.654   2.342
10723TIP3    H132046   8.247   6.678   2.260
10723TIP3    H232047   8.319   6.737   2.380
10724TIP3   OH232048   9.308   5.712   2.927
10724TIP3    H132049   9.300   5.617   2.936
10724TIP3    H232050   9.232   5.747   2.973
10725TIP3   OH232051   9.431   7.216   2.247
10725TIP3    H132052   9.500   7.154   2.270
10725TIP3    H232053   9.475   7.301   2.243
10726TIP3   OH232054   9.237   6.471   2.175
10726TIP3    H132055   9.157   6.523   2.168
10726TIP3    H232056   9.278   6.479   2.089
10727TIP3   OH232057   9.204   6.259   1.897
10727TIP3    H132058   9.262   6.300   1.961
10727TIP3    H232059   9.260   6.195   1.853
10728TIP3   OH232060   8.826   6.554   2.571
10728TIP3    H132061   8.785   6.499   2.505
10728TIP3    H232062   8.902   6.504   2.601
10729TIP3   OH232063   8.956   6.965   2.720
10729TIP3    H132064   8.936   6.921   2.638
10729TIP3    H232065   9.045   6.936   2.742
10730TIP3   OH232066   8.963   6.528   2.925
10730TIP3    H132067   8.996   6.506   2.838
10730TIP3    H232068   9.005   6.611   2.946
10731TIP3   OH232069   9.448   7.169   2.694
10731TIP3    H132070   9.478   7.247   2.740
10731TIP3    H232071   9.465   7.097   2.754
10732TIP3   OH232072   9.094   7.081   3.254
10732TIP3    H132073   9.038   7.145   3.298
10732TIP3    H232074   9.034   7.029   3.202
10733TIP3   OH232075   9.448   6.423   1.987
10733TIP3    H132076   9.486   6.485   2.049
10733TIP3    H232077   9.470   6.459   1.901
10734TIP3   OH232078   8.852   6.640   3.354
10734TIP3    H132079   8.859   6.726   3.396
10734TIP3    H232080   8.759   6.619   3.358
10735TIP3   OH232081   9.171   7.095   2.254
10735TIP3    H132082   9.245   7.150   2.279
10735TIP3    H232083   9.107   7.156   2.218
10736TIP3   OH232084   8.891   7.253   3.336
10736TIP3    H132085   8.860   7.252   3.246
10736TIP3    H232086   8.814   7.231   3.389
10737TIP3   OH232087   8.690   6.398   2.373
10737TIP3    H132088   8.627   6.444   2.319
10737TIP3    H232089   8.650   6.313   2.391
10738TIP3   OH232090   8.472   6.781   3.284
10738TIP3    H132091   8.407   6.761   3.216
10738TIP3    H232092   8.508   6.695   3.307
10739TIP3   OH232093   8.327   6.976   2.918
10739TIP3    H132094   8.422   6.968   2.907
10739TIP3    H232095   8.315   7.055   2.971
10740TIP3   OH232096   9.294   7.212   3.110
10740TIP3    H132097   9.296   7.303   3.138
10740TIP3    H232098   9.225   7.171   3.163
10741TIP3   OH232099   9.054   7.350   2.054
10741TIP3    H132100   9.007   7.325   1.975
10741TIP3    H232101   9.017   7.435   2.079
10742TIP3   OH232102   8.495   7.189   2.444
10742TIP3    H132103   8.544   7.182   2.526
10742TIP3    H232104   8.436   7.113   2.445
10743TIP3   OH232105   9.268   7.246   1.716
10743TIP3    H132106   9.333   7.181   1.688
10743TIP3    H232107   9.291   7.264   1.807
10744TIP3   OH232108   9.303   7.286   1.983
10744TIP3    H132109   9.214   7.304   2.013
10744TIP3    H232110   9.344   7.239   2.056
10745TIP3   OH232111   8.676   6.965   3.275
10745TIP3    H132112   8.727   6.949   3.355
10745TIP3    H232113   8.604   6.903   3.280
10746TIP3   OH232114   9.074   5.789   3.057
10746TIP3    H132115   8.989   5.755   3.029
10746TIP3    H232116   9.054   5.872   3.100
10747TIP3   OH232117   9.597   5.904   3.257
10747TIP3    H132118   9.647   5.888   3.337
10747TIP3    H232119   9.507   5.885   3.281
10748TIP3   OH232120   9.228   5.837   2.030
10748TIP3    H132121   9.198   5.839   2.121
10748TIP3    H232122   9.187   5.759   1.994
10749TIP3   OH232123   9.008   6.306   3.074
10749TIP3    H132124   8.958   6.325   3.154
10749TIP3    H232125   8.995   6.384   3.020
10750TIP3   OH232126   8.890   6.188   2.587
10750TIP3    H132127   8.799   6.165   2.607
10750TIP3    H232128   8.906   6.149   2.501
10751TIP3   OH232129   9.376   6.270   2.307
10751TIP3    H132130   9.326   6.344   2.274
10751TIP3    H232131   9.439   6.250   2.238
10752TIP3   OH232132   9.561   6.551   3.402
10752TIP3    H132133   9.533   6.484   3.465
10752TIP3    H232134   9.652   6.570   3.425
10753TIP3   OH232135   9.517   6.301   2.569
10753TIP3    H132136   9.490   6.355   2.495
10753TIP3    H232137   9.557   6.224   2.530
10754TIP3   OH232138   8.829   6.334   3.285
10754TIP3    H132139   8.850   6.400   3.350
10754TIP3    H232140   8.816   6.253   3.335
10755TIP3   OH232141   8.878   5.812   1.994
10755TIP3    H132142   8.872   5.807   2.090
10755TIP3    H232143   8.801   5.862   1.968
10756TIP3   OH232144   8.422   5.856   2.864
10756TIP3    H132145   8.496   5.887   2.916
10756TIP3    H232146   8.461   5.823   2.783
10757TIP3   OH232147   8.395   5.839   2.382
10757TIP3    H132148   8.441   5.875   2.305
10757TIP3    H232149   8.333   5.908   2.406
10758TIP3   OH232150   9.526   6.557   2.978
10758TIP3    H132151   9.579   6.503   2.919
10758TIP3    H232152   9.511   6.503   3.055
10759TIP3   OH232153   9.217   6.003   2.653
10759TIP3    H132154   9.133   6.007   2.699
10759TIP3    H232155   9.281   6.033   2.717
10760TIP3   OH232156   8.652   6.067   2.658
10760TIP3    H132157   8.560   6.075   2.632
10760TIP3    H232158   8.676   5.977   2.635
10761TIP3   OH232159   8.922   6.063   2.347
10761TIP3    H132160   9.015   6.078   2.330
10761TIP3    H232161   8.879   6.088   2.265
10762TIP3   OH232162   9.623   6.099   2.853
10762TIP3    H132163   9.616   6.105   2.948
10762TIP3    H232164   9.569   6.023   2.829
10763TIP3   OH232165   8.764   6.098   2.124
10763TIP3    H132166   8.690   6.054   2.081
10763TIP3    H232167   8.815   6.133   2.051
10764TIP3   OH232168   8.839   6.887   3.496
10764TIP3    H132169   8.919   6.917   3.539
10764TIP3    H232170   8.773   6.887   3.565
10765TIP3   OH232171   9.297   6.319   2.741
10765TIP3    H132172   9.376   6.306   2.688
10765TIP3    H232173   9.325   6.296   2.830
10766TIP3   OH232174   8.827   5.827   2.626
10766TIP3    H132175   8.793   5.750   2.671
10766TIP3    H232176   8.879   5.792   2.554
10767TIP3   OH232177   9.280   6.232   3.052
10767TIP3    H132178   9.192   6.269   3.049
10767TIP3    H232179   9.334   6.299   3.092
10768TIP3   OH232180   9.013   6.626   2.137
10768TIP3    H132181   8.943   6.562   2.122
10768TIP3    H232182   8.996   6.661   2.224
10769TIP3   OH232183   9.470   5.959   1.976
10769TIP3    H132184   9.383   5.931   2.007
10769TIP3    H232185   9.488   6.040   2.024
10770TIP3   OH232186   9.413   6.944   3.135
10770TIP3    H132187   9.430   6.932   3.229
10770TIP3    H232188   9.382   7.034   3.128
10771TIP3   OH232189   9.564   6.195   2.085
10771TIP3    H132190   9.653   6.222   2.108
10771TIP3    H232191   9.529   6.269   2.035
10772TIP3   OH232192   8.709   6.648   2.808
10772TIP3    H132193   8.745   6.623   2.723
10772TIP3    H232194   8.750   6.587   2.870
10773TIP3   OH232195   9.155   6.776   1.957
10773TIP3    H132196   9.113   6.862   1.960
10773TIP3    H232197   9.102   6.722   2.015
10774TIP3   OH232198   8.587   6.568   3.422
10774TIP3    H132199   8.607   6.557   3.515
10774TIP3    H232200   8.518   6.504   3.404
10775TIP3   OH232201   9.314   6.680   3.442
10775TIP3    H132202   9.252   6.628   3.391
10775TIP3    H232203   9.400   6.652   3.410
10776TIP3   OH232204   9.578   7.204   3.030
10776TIP3    H132205   9.482   7.205   3.024
10776TIP3    H232206   9.598   7.259   3.106
10777TIP3   OH232207   8.807   6.954   2.430
10777TIP3    H132208   8.809   7.035   2.379
10777TIP3    H232209   8.714   6.937   2.444
10778TIP3   OH232210   8.372   6.259   2.139
10778TIP3    H132211   8.418   6.341   2.156
10778TIP3    H232212   8.296   6.262   2.196
10779TIP3   OH232213   8.946   6.721   2.378
10779TIP3    H132214   8.913   6.809   2.395
10779TIP3    H232215   8.915   6.669   2.453
10780TIP3   OH232216   9.080   7.298   2.902
10780TIP3    H132217   9.119   7.369   2.851
10780TIP3    H232218   9.154   7.259   2.949
10781TIP3   OH232219   8.728   7.195   2.287
10781TIP3    H132220   8.643   7.199   2.332
10781TIP3    H232221   8.761   7.285   2.288
10782TIP3   OH232222   9.465   6.934   2.863
10782TIP3    H132223   9.457   6.936   2.958
10782TIP3    H232224   9.539   6.877   2.845
10783TIP3   OH232225   8.799   6.075   3.432
10783TIP3    H132226   8.704   6.082   3.441
10783TIP3    H232227   8.825   6.013   3.501
10784TIP3   OH232228   8.518   7.161   3.064
10784TIP3    H132229   8.568   7.084   3.091
10784TIP3    H232230   8.546   7.230   3.123
10785TIP3   OH232231   8.808   6.802   1.744
10785TIP3    H132232   8.820   6.713   1.713
10785TIP3    H232233   8.790   6.793   1.838
10786TIP3   OH232234   8.755   6.812   2.016
10786TIP3    H132235   8.822   6.783   2.079
10786TIP3    H232236   8.756   6.907   2.021
10787TIP3   OH232237   8.488   6.507   2.219
10787TIP3    H132238   8.423   6.546   2.277
10787TIP3    H232239   8.503   6.573   2.151
10788TIP3   OH232240   9.669   6.141   3.138
10788TIP3    H132241   9.697   6.189   3.216
10788TIP3    H232242   9.629   6.061   3.174
10789TIP3   OH232243   9.484   5.915   2.278
10789TIP3    H132244   9.514   5.911   2.187
10789TIP3    H232245   9.545   5.975   2.320
10790TIP3   OH232246   9.018   7.011   1.964
10790TIP3    H132247   8.933   7.034   2.002
10790TIP3    H232248   9.033   7.077   1.896
10791TIP3   OH232249   9.202   6.072   2.380
10791TIP3    H132250   9.268   6.137   2.358
10791TIP3    H232251   9.208   6.063   2.476
10792TIP3   OH232252   9.476   6.387   3.189
10792TIP3    H132253   9.490   6.449   3.260
10792TIP3    H232254   9.540   6.318   3.204
10793TIP3   OH232255   9.351   5.802   2.486
10793TIP3    H132256   9.329   5.880   2.538
10793TIP3    H232257   9.404   5.836   2.414
10794TIP3   OH232258   8.761   7.084   2.032
10794TIP3    H132259   8.732   7.150   1.969
10794TIP3    H232260   8.745   7.125   2.118
10795TIP3   OH232261   8.866   5.798   2.270
10795TIP3    H132262   8.858   5.886   2.306
10795TIP3    H232263   8.958   5.776   2.278
10796TIP3   OH232264   8.482   6.714   2.023
10796TIP3    H132265   8.541   6.788   2.034
10796TIP3    H232266   8.524   6.659   1.957
10797TIP3   OH232267   8.424   5.990   2.157
10797TIP3    H132268   8.425   6.085   2.153
10797TIP3    H232269   8.340   5.965   2.118
10798TIP3   OH232270   8.812   5.708   3.031
10798TIP3    H132271   8.781   5.678   2.946
10798TIP3    H232272   8.801   5.632   3.089
10799TIP3   OH232273   8.351   6.929   2.413
10799TIP3    H132274   8.279   6.958   2.469
10799TIP3    H232275   8.329   6.966   2.327
10800TIP3   OH232276   8.507   7.465   3.487
10800TIP3    H132277   8.593   7.466   3.530
10800TIP3    H232278   8.484   7.373   3.481
10801TIP3   OH232279   8.990   7.432   3.527
10801TIP3    H132280   9.084   7.415   3.536
10801TIP3    H232281   8.963   7.378   3.453
10802TIP3   OH232282   8.971   7.006   1.660
10802TIP3    H132283   8.912   6.940   1.697
10802TIP3    H232284   9.043   6.956   1.622
10803TIP3   OH232285   9.632   7.337   3.266
10803TIP3    H132286   9.606   7.266   3.324
10803TIP3    H232287   9.710   7.374   3.307
10804TIP3   OH232288   8.636   6.873   3.683
10804TIP3    H132289   8.655   6.779   3.687
10804TIP3    H232290   8.551   6.879   3.641
10805TIP3   OH232291   8.618   6.526   1.875
10805TIP3    H132292   8.668   6.494   1.950
10805TIP3    H232293   8.682   6.533   1.804
10806TIP3   OH232294   9.246   6.958   3.456
10806TIP3    H132295   9.204   6.978   3.372
10806TIP3    H232296   9.275   6.867   3.447
10807TIP3   OH232297   9.122   6.723   1.686
10807TIP3    H132298   9.133   6.742   1.779
10807TIP3    H232299   9.117   6.628   1.682
10808TIP3   OH232300   8.756   6.608   3.669
10808TIP3    H132301   8.831   6.553   3.643
10808TIP3    H232302   8.781   6.642   3.755
10809TIP3   OH232303   8.824   6.426   2.101
10809TIP3    H132304   8.795   6.389   2.184
10809TIP3    H232305   8.857   6.351   2.051
10810TIP3   OH232306   9.094   6.497   3.327
10810TIP3    H132307   9.016   6.552   3.330
10810TIP3    H232308   9.142   6.526   3.249
10811TIP3   OH232309   8.922   6.221   1.937
10811TIP3    H132310   8.892   6.225   1.846
10811TIP3    H232311   9.017   6.231   1.931
10812TIP3   OH232312   9.600   6.894   3.468
10812TIP3    H132313   9.675   6.872   3.412
10812TIP3    H232314   9.601   6.826   3.536
10813TIP3   OH232315   9.218   6.283   3.450
10813TIP3    H132316   9.214   6.203   3.397
10813TIP3    H232317   9.175   6.350   3.397
10814TIP3   OH232318   9.216   6.065   3.262
10814TIP3    H132319   9.243   6.112   3.183
10814TIP3    H232320   9.124   6.043   3.246
10815TIP3   OH232321   9.251   6.606   3.131
10815TIP3    H132322   9.331   6.611   3.079
10815TIP3    H232323   9.193   6.670   3.091
10816TIP3   OH232324   0.038   6.575   3.514
10816TIP3    H132325   0.071   6.487   3.534
10816TIP3    H232326   0.116   6.628   3.504
10817TIP3   OH232327   9.095   6.390   3.684
10817TIP3    H132328   9.025   6.327   3.698
10817TIP3    H232329   9.127   6.372   3.596
10818TIP3   OH232330   9.346   5.832   3.323
10818TIP3    H132331   9.298   5.913   3.304
10818TIP3    H232332   9.280   5.763   3.313
10819TIP3   OH232333   9.476   6.333   3.542
10819TIP3    H132334   9.465   6.326   3.637
10819TIP3    H232335   9.390   6.313   3.506
10820TIP3   OH232336   9.707   6.253   3.392
10820TIP3    H132337   9.630   6.279   3.443
10820TIP3    H232338   9.776   6.242   3.457
10821TIP3   OH232339   0.119   6.209   3.574
10821TIP3    H132340   0.177   6.141   3.609
10821TIP3    H232341   0.116   6.275   3.642
10822TIP3   OH232342   8.933   6.173   3.736
10822TIP3    H132343   8.937   6.085   3.699
10822TIP3    H232344   8.966   6.162   3.826
10823TIP3   OH232345   9.449   5.842   3.578
10823TIP3    H132346   9.511   5.768   3.574
10823TIP3    H232347   9.402   5.838   3.495
10824TIP3   OH232348   9.510   6.057   3.743
10824TIP3    H132349   9.488   5.989   3.680
10824TIP3    H232350   9.436   6.117   3.740
10825TIP3   OH232351   8.733   7.285   1.843
10825TIP3    H132352   8.827   7.281   1.826
10825TIP3    H232353   8.696   7.331   1.768
10826TIP3   OH232354   8.212   6.666   2.060
10826TIP3    H132355   8.304   6.690   2.048
10826TIP3    H232356   8.204   6.579   2.021
10827TIP3   OH232357   8.125   7.277   2.474
10827TIP3    H132358   8.058   7.219   2.437
10827TIP3    H232359   8.169   7.224   2.540
10828TIP3   OH232360   8.262   7.132   2.662
10828TIP3    H132361   8.248   7.057   2.720
10828TIP3    H232362   8.312   7.194   2.716
10829TIP3   OH232363   8.451   6.536   3.031
10829TIP3    H132364   8.446   6.508   2.940
10829TIP3    H232365   8.545   6.540   3.050
10830TIP3   OH232366   8.666   6.223   3.710
10830TIP3    H132367   8.762   6.219   3.707
10830TIP3    H232368   8.640   6.140   3.750
10831TIP3   OH232369   8.630   5.917   3.038
10831TIP3    H132370   8.689   5.842   3.047
10831TIP3    H232371   8.688   5.992   3.032
10832TIP3   OH232372   8.433   6.192   3.112
10832TIP3    H132373   8.479   6.183   3.028
10832TIP3    H232374   8.457   6.279   3.143
10833TIP3   OH232375   8.412   5.696   2.612
10833TIP3    H132376   8.320   5.692   2.639
10833TIP3    H232377   8.412   5.752   2.535
10834TIP3   OH232378   8.633   5.777   3.428
10834TIP3    H132379   8.583   5.767   3.510
10834TIP3    H232380   8.570   5.814   3.366
10835TIP3   OH232381   8.671   7.201   3.505
10835TIP3    H132382   8.582   7.173   3.485
10835TIP3    H232383   8.683   7.183   3.598
10836TIP3   OH232384   8.852   7.236   3.049
10836TIP3    H132385   8.802   7.308   3.012
10836TIP3    H232386   8.939   7.245   3.009
10837TIP3   OH232387   9.295   7.477   3.192
10837TIP3    H132388   9.338   7.483   3.278
10837TIP3    H232389   9.354   7.524   3.133
10838TIP3   OH232390   9.461   7.624   3.037
10838TIP3    H132391   9.536   7.587   2.990
10838TIP3    H232392   9.501   7.675   3.108
10839TIP3   OH232393   8.525   7.493   3.074
10839TIP3    H132394   8.439   7.525   3.049
10839TIP3    H232395   8.536   7.523   3.164
10840TIP3   OH232396   8.761   7.469   2.931
10840TIP3    H132397   8.678   7.482   2.977
10840TIP3    H232398   8.745   7.502   2.842
10841TIP3   OH232399   9.190   7.498   2.722
10841TIP3    H132400   9.116   7.517   2.665
10841TIP3    H232401   9.204   7.578   2.772
10842TIP3   OH232402   9.461   7.439   2.777
10842TIP3    H132403   9.367   7.452   2.762
10842TIP3    H232404   9.502   7.520   2.746
10843TIP3   OH232405   8.442   7.283   2.820
10843TIP3    H132406   8.465   7.261   2.911
10843TIP3    H232407   8.511   7.242   2.768
10844TIP3   OH232408   8.635   7.155   2.677
10844TIP3    H132409   8.648   7.073   2.724
10844TIP3    H232410   8.723   7.193   2.672
10845TIP3   OH232411   8.901   7.249   2.682
10845TIP3    H132412   8.930   7.159   2.666
10845TIP3    H232413   8.943   7.274   2.764
10846TIP3   OH232414   9.481   5.872   2.768
10846TIP3    H132415   9.420   5.817   2.817
10846TIP3    H232416   9.500   5.823   2.688
10847TIP3   OH232417   8.723   5.614   2.784
10847TIP3    H132418   8.632   5.585   2.785
10847TIP3    H232419   8.774   5.533   2.780
10848TIP3   OH232420   8.511   5.487   2.430
10848TIP3    H132421   8.540   5.543   2.358
10848TIP3    H232422   8.481   5.549   2.498
10849TIP3   OH232423   9.164   5.650   2.662
10849TIP3    H132424   9.222   5.694   2.599
10849TIP3    H232425   9.185   5.690   2.746
10850TIP3   OH232426   8.226   7.057   2.210
10850TIP3    H132427   8.144   7.020   2.177
10850TIP3    H232428   8.218   7.151   2.195
10851TIP3   OH232429   8.629   5.646   2.194
10851TIP3    H132430   8.675   5.583   2.138
10851TIP3    H232431   8.698   5.700   2.231
10852TIP3   OH232432   9.143   5.821   2.294
10852TIP3    H132433   9.201   5.771   2.351
10852TIP3    H232434   9.161   5.913   2.317
10853TIP3   OH232435   9.001   7.247   1.788
10853TIP3    H132436   9.085   7.275   1.753
10853TIP3    H232437   8.974   7.174   1.732
10854TIP3   OH232438   8.932   5.897   3.677
10854TIP3    H132439   8.895   5.827   3.731
10854TIP3    H232440   9.025   5.899   3.701
10855TIP3   OH232441   9.182   5.893   3.796
10855TIP3    H132442   9.265   5.869   3.755
10855TIP3    H232443   9.165   5.824   3.860
10856TIP3   OH232444   8.305   7.082   1.851
10856TIP3    H132445   8.303   7.108   1.943
10856TIP3    H232446   8.391   7.042   1.839
10857TIP3   OH232447   0.374   7.452   4.605
10857TIP3    H132448   0.424   7.398   4.665
10857TIP3    H232449   0.398   7.542   4.628
10858TIP3   OH232450   0.882   6.705   4.981
10858TIP3    H132451   0.913   6.785   5.024
10858TIP3    H232452   0.900   6.719   4.888
10859TIP3   OH232453   0.358   6.878   5.008
10859TIP3    H132454   0.388   6.789   5.031
10859TIP3    H232455   0.327   6.870   4.918
10860TIP3   OH232456   0.311   6.633   4.611
10860TIP3    H132457   0.383   6.616   4.671
10860TIP3    H232458   0.353   6.664   4.531
10861TIP3   OH232459   0.960   6.912   5.150
10861TIP3    H132460   0.878   6.954   5.126
10861TIP3    H232461   0.966   6.925   5.245
10862TIP3   OH232462   0.527   6.634   4.775
10862TIP3    H132463   0.505   6.592   4.858
10862TIP3    H232464   0.581   6.709   4.800
10863TIP3   OH232465   0.684   6.603   5.153
10863TIP3    H132466   0.595   6.635   5.135
10863TIP3    H232467   0.736   6.631   5.078
10864TIP3   OH232468   0.245   7.529   4.348
10864TIP3    H132469   0.183   7.462   4.319
10864TIP3    H232470   0.291   7.488   4.421
10865TIP3   OH232471   0.625   7.619   5.135
10865TIP3    H132472   0.590   7.538   5.098
10865TIP3    H232473   0.599   7.686   5.072
10866TIP3   OH232474   0.823   7.241   4.970
10866TIP3    H132475   0.739   7.286   4.983
10866TIP3    H232476   0.850   7.266   4.882
10867TIP3   OH232477   0.261   7.096   4.349
10867TIP3    H132478   0.197   7.118   4.417
10867TIP3    H232479   0.337   7.062   4.397
10868TIP3   OH232480   0.506   7.154   5.247
10868TIP3    H132481   0.489   7.218   5.316
10868TIP3    H232482   0.420   7.136   5.209
10869TIP3   OH232483   0.157   6.910   4.167
10869TIP3    H132484   0.163   6.976   4.236
10869TIP3    H232485   0.123   6.957   4.091
10870TIP3   OH232486   0.604   6.190   4.231
10870TIP3    H132487   0.525   6.206   4.283
10870TIP3    H232488   0.619   6.272   4.184
10871TIP3   OH232489   0.407   7.558   3.779
10871TIP3    H132490   0.416   7.653   3.770
10871TIP3    H232491   0.497   7.525   3.767
10872TIP3   OH232492   0.861   7.948   5.174
10872TIP3    H132493   0.862   7.853   5.190
10872TIP3    H232494   0.771   7.974   5.191
10873TIP3   OH232495   0.736   7.089   5.446
10873TIP3    H132496   0.658   7.100   5.391
10873TIP3    H232497   0.754   6.995   5.443
10874TIP3   OH232498   0.281   6.430   5.457
10874TIP3    H132499   0.353   6.394   5.509
10874TIP3    H232500   0.202   6.401   5.502
10875TIP3   OH232501   0.534   6.880   5.354
10875TIP3    H132502   0.500   6.871   5.443
10875TIP3    H232503   0.475   6.943   5.312
10876TIP3   OH232504   0.152   7.019   3.904
10876TIP3    H132505   0.138   6.962   3.828
10876TIP3    H232506   0.245   7.042   3.900
10877TIP3   OH232507   0.209   6.840   4.763
10877TIP3    H132508   0.129   6.865   4.717
10877TIP3    H232509   0.237   6.759   4.721
10878TIP3   OH232510   0.379   6.606   5.031
10878TIP3    H132511   0.381   6.609   5.127
10878TIP3    H232512   0.307   6.546   5.011
10879TIP3   OH232513   0.598   7.384   4.967
10879TIP3    H132514   0.619   7.437   4.891
10879TIP3    H232515   0.502   7.379   4.968
10880TIP3   OH232516   0.087   6.483   4.187
10880TIP3    H132517   0.007   6.530   4.208
10880TIP3    H232518   0.157   6.545   4.208
10881TIP3   OH232519   0.238   6.680   4.281
10881TIP3    H132520   0.320   6.713   4.317
10881TIP3    H232521   0.194   6.758   4.246
10882TIP3   OH232522   0.642   6.809   4.134
10882TIP3    H132523   0.582   6.761   4.076
10882TIP3    H232524   0.641   6.898   4.099
10883TIP3   OH232525   0.870   7.668   5.216
10883TIP3    H132526   0.775   7.662   5.214
10883TIP3    H232527   0.899   7.637   5.130
10884TIP3   OH232528   0.343   7.630   4.048
10884TIP3    H132529   0.316   7.567   4.115
10884TIP3    H232530   0.359   7.577   3.970
10885TIP3   OH232531   0.342   7.259   4.866
10885TIP3    H132532   0.262   7.222   4.905
10885TIP3    H232533   0.384   7.184   4.824
10886TIP3   OH232534   0.432   7.840   3.766
10886TIP3    H132535   0.489   7.904   3.724
10886TIP3    H232536   0.344   7.871   3.750
10887TIP3   OH232537   0.255   7.289   4.150
10887TIP3    H132538   0.237   7.223   4.217
10887TIP3    H232539   0.351   7.290   4.142
10888TIP3   OH232540   0.386   6.631   5.294
10888TIP3    H132541   0.416   6.711   5.337
10888TIP3    H232542   0.360   6.573   5.366
10889TIP3   OH232543   0.190   6.418   4.463
10889TIP3    H132544   0.158   6.459   4.383
10889TIP3    H232545   0.209   6.491   4.521
10890TIP3   OH232546   0.790   6.814   5.363
10890TIP3    H132547   0.696   6.829   5.367
10890TIP3    H232548   0.804   6.767   5.281
10891TIP3   OH232549   0.428   7.020   4.755
10891TIP3    H132550   0.353   6.960   4.754
10891TIP3    H232551   0.497   6.973   4.802
10892TIP3   OH232552   0.459   7.919   4.694
10892TIP3    H132553   0.367   7.938   4.678
10892TIP3    H232554   0.502   8.005   4.699
10893TIP3   OH232555   0.402   7.090   3.800
10893TIP3    H132556   0.387   7.037   3.722
10893TIP3    H232557   0.377   7.179   3.775
10894TIP3   OH232558   0.504   7.109   5.714
10894TIP3    H132559   0.541   7.022   5.722
10894TIP3    H232560   0.579   7.166   5.695
10895TIP3   OH232561   0.531   7.363   5.442
10895TIP3    H132562   0.471   7.408   5.382
10895TIP3    H232563   0.617   7.375   5.404
10896TIP3   OH232564   0.419   6.846   5.590
10896TIP3    H132565   0.338   6.811   5.627
10896TIP3    H232566   0.488   6.812   5.647
10897TIP3   OH232567   0.597   6.750   5.765
10897TIP3    H132568   0.617   6.658   5.782
10897TIP3    H232569   0.593   6.790   5.851
10898TIP3   OH232570   0.670   8.166   4.667
10898TIP3    H132571   0.685   8.117   4.748
10898TIP3    H232572   0.686   8.104   4.597
10899TIP3   OH232573   0.668   8.065   4.927
10899TIP3    H132574   0.639   7.977   4.950
10899TIP3    H232575   0.741   8.083   4.985
10900TIP3   OH232576   0.720   7.767   5.508
10900TIP3    H132577   0.659   7.769   5.582
10900TIP3    H232578   0.766   7.851   5.514
10901TIP3   OH232579   0.539   7.275   4.138
10901TIP3    H132580   0.607   7.336   4.110
10901TIP3    H232581   0.575   7.233   4.216
10902TIP3   OH232582   0.663   7.142   4.343
10902TIP3    H132583   0.599   7.096   4.397
10902TIP3    H232584   0.726   7.178   4.405
10903TIP3   OH232585   0.705   7.531   4.762
10903TIP3    H132586   0.765   7.467   4.725
10903TIP3    H232587   0.718   7.609   4.708
10904TIP3   OH232588   0.524   7.816   4.961
10904TIP3    H132589   0.466   7.880   5.003
10904TIP3    H232590   0.507   7.826   4.867
10905TIP3   OH232591   0.600   7.050   3.989
10905TIP3    H132592   0.532   7.049   3.922
10905TIP3    H232593   0.577   7.122   4.047
10906TIP3   OH232594   0.480   6.716   3.937
10906TIP3    H132595   0.431   6.760   3.867
10906TIP3    H232596   0.452   6.625   3.932
10907TIP3   OH232597   0.486   6.992   4.490
10907TIP3    H132598   0.490   6.897   4.479
10907TIP3    H232599   0.473   7.004   4.584
10908TIP3   OH232600   0.775   7.423   5.344
10908TIP3    H132601   0.842   7.356   5.337
10908TIP3    H232602   0.798   7.487   5.276
10909TIP3   OH232603   0.955   7.225   5.368
10909TIP3    H132604   0.878   7.177   5.401
10909TIP3    H232605   1.028   7.164   5.379
10910TIP3   OH232606   0.419   6.452   3.930
10910TIP3    H132607   0.495   6.426   3.982
10910TIP3    H232608   0.349   6.394   3.960
10911TIP3   OH232609   0.491   6.718   4.395
10911TIP3    H132610   0.524   6.629   4.410
10911TIP3    H232611   0.538   6.748   4.318
10912TIP3   OH232612   0.640   6.887   4.875
10912TIP3    H132613   0.724   6.911   4.836
10912TIP3    H232614   0.645   6.920   4.965
10913TIP3   OH232615   0.712   7.028   5.107
10913TIP3    H132616   0.637   7.062   5.156
10913TIP3    H232617   0.747   7.104   5.061
10914TIP3   OH232618   1.157   6.618   5.668
10914TIP3    H132619   1.215   6.553   5.628
10914TIP3    H232620   1.130   6.674   5.595
10915TIP3   OH232621   0.586   6.460   4.422
10915TIP3    H132622   0.632   6.446   4.504
10915TIP3    H232623   0.523   6.388   4.417
10916TIP3   OH232624   1.033   6.760   5.473
10916TIP3    H132625   0.947   6.801   5.484
10916TIP3    H232626   1.017   6.686   5.415
10917TIP3   OH232627   0.666   6.400   4.051
10917TIP3    H132628   0.707   6.327   4.004
10917TIP3    H232629   0.731   6.470   4.048
10918TIP3   OH232630   0.927   6.519   5.350
10918TIP3    H132631   0.838   6.518   5.316
10918TIP3    H232632   0.958   6.430   5.340
10919TIP3   OH232633   0.181   6.410   4.991
10919TIP3    H132634   0.159   6.330   5.039
10919TIP3    H232635   0.252   6.384   4.933
10920TIP3   OH232636   0.658   6.323   4.875
10920TIP3    H132637   0.695   6.372   4.802
10920TIP3    H232638   0.563   6.336   4.868
10921TIP3   OH232639   0.753   6.421   4.637
10921TIP3    H132640   0.823   6.368   4.599
10921TIP3    H232641   0.781   6.512   4.624
10922TIP3   OH232642   0.384   6.316   4.839
10922TIP3    H132643   0.384   6.282   4.750
10922TIP3    H232644   0.369   6.238   4.894
10923TIP3   OH232645   0.401   6.249   4.411
10923TIP3    H132646   0.321   6.298   4.426
10923TIP3    H232647   0.387   6.165   4.456
10924TIP3   OH232648   0.374   7.897   4.070
10924TIP3    H132649   0.370   7.804   4.089
10924TIP3    H232650   0.339   7.906   3.982
10925TIP3   OH232651   0.666   6.485   5.788
10925TIP3    H132652   0.684   6.452   5.875
10925TIP3    H232653   0.750   6.480   5.742
10926TIP3   OH232654   0.606   8.031   5.217
10926TIP3    H132655   0.524   7.991   5.247
10926TIP3    H232656   0.612   8.113   5.265
10927TIP3   OH232657   1.868   7.416   4.044
10927TIP3    H132658   1.835   7.502   4.020
10927TIP3    H232659   1.800   7.355   4.014
10928TIP3   OH232660   1.856   7.407   4.418
10928TIP3    H132661   1.890   7.367   4.499
10928TIP3    H232662   1.837   7.333   4.361
10929TIP3   OH232663   1.166   7.307   4.791
10929TIP3    H132664   1.196   7.240   4.852
10929TIP3    H232665   1.242   7.364   4.778
10930TIP3   OH232666   2.111   7.714   4.104
10930TIP3    H132667   2.092   7.643   4.165
10930TIP3    H232668   2.139   7.787   4.160
10931TIP3   OH232669   1.139   7.712   4.516
10931TIP3    H132670   1.129   7.617   4.518
10931TIP3    H232671   1.233   7.725   4.509
10932TIP3   OH232672   0.843   6.922   4.299
10932TIP3    H132673   0.796   7.005   4.313
10932TIP3    H232674   0.777   6.863   4.265
10933TIP3   OH232675   0.903   7.211   4.471
10933TIP3    H132676   0.948   7.134   4.507
10933TIP3    H232677   0.958   7.237   4.397
10934TIP3   OH232678   1.760   8.175   4.121
10934TIP3    H132679   1.804   8.107   4.071
10934TIP3    H232680   1.751   8.138   4.209
10935TIP3   OH232681   1.668   7.634   4.472
10935TIP3    H132682   1.700   7.556   4.428
10935TIP3    H232683   1.747   7.683   4.495
10936TIP3   OH232684   2.676   6.960   4.468
10936TIP3    H132685   2.705   7.039   4.515
10936TIP3    H232686   2.698   6.977   4.377
10937TIP3   OH232687   2.066   7.138   4.484
10937TIP3    H132688   2.118   7.061   4.509
10937TIP3    H232689   1.991   7.101   4.437
10938TIP3   OH232690   2.115   6.861   4.086
10938TIP3    H132691   2.180   6.861   4.156
10938TIP3    H232692   2.144   6.931   4.027
10939TIP3   OH232693   1.044   7.002   4.576
10939TIP3    H132694   1.122   6.982   4.628
10939TIP3    H232695   1.054   6.948   4.497
10940TIP3   OH232696   1.490   7.194   4.363
10940TIP3    H132697   1.582   7.178   4.342
10940TIP3    H232698   1.445   7.114   4.338
10941TIP3   OH232699   2.749   7.166   4.640
10941TIP3    H132700   2.667   7.211   4.620
10941TIP3    H232701   2.767   7.189   4.731
10942TIP3   OH232702   1.407   6.783   4.906
10942TIP3    H132703   1.346   6.818   4.840
10942TIP3    H232704   1.362   6.796   4.989
10943TIP3   OH232705   1.757   7.634   3.913
10943TIP3    H132706   1.717   7.608   3.830
10943TIP3    H232707   1.714   7.717   3.935
10944TIP3   OH232708   1.518   7.559   4.699
10944TIP3    H132709   1.457   7.623   4.737
10944TIP3    H232710   1.560   7.606   4.628
10945TIP3   OH232711   2.321   6.894   4.266
10945TIP3    H132712   2.308   6.847   4.349
10945TIP3    H232713   2.373   6.971   4.290
10946TIP3   OH232714   1.274   6.894   4.686
10946TIP3    H132715   1.335   6.964   4.707
10946TIP3    H232716   1.300   6.865   4.599
10947TIP3   OH232717   1.342   7.753   4.798
10947TIP3    H132718   1.322   7.836   4.756
10947TIP3    H232719   1.267   7.734   4.854
10948TIP3   OH232720   0.743   7.442   4.033
10948TIP3    H132721   0.702   7.466   3.949
10948TIP3    H232722   0.772   7.525   4.070
10949TIP3   OH232723   2.178   7.957   4.275
10949TIP3    H132724   2.091   7.946   4.313
10949TIP3    H232725   2.173   8.041   4.228
10950TIP3   OH232726   2.469   6.859   4.633
10950TIP3    H132727   2.382   6.888   4.604
10950TIP3    H232728   2.529   6.890   4.565
10951TIP3   OH232729   1.762   6.495   4.617
10951TIP3    H132730   1.758   6.402   4.639
10951TIP3    H232731   1.688   6.534   4.662
10952TIP3   OH232732   1.885   8.003   3.946
10952TIP3    H132733   1.929   7.920   3.928
10952TIP3    H232734   1.942   8.070   3.907
10953TIP3   OH232735   2.024   7.788   3.854
10953TIP3    H132736   1.989   7.710   3.810
10953TIP3    H232737   2.060   7.754   3.936
10954TIP3   OH232738   2.404   7.871   4.613
10954TIP3    H132739   2.395   7.793   4.558
10954TIP3    H232740   2.390   7.945   4.554
10955TIP3   OH232741   1.699   7.271   3.877
10955TIP3    H132742   1.622   7.319   3.845
10955TIP3    H232743   1.749   7.251   3.798
10956TIP3   OH232744   1.660   7.046   3.593
10956TIP3    H132745   1.723   7.098   3.643
10956TIP3    H232746   1.714   6.985   3.543
10957TIP3   OH232747   2.599   7.507   4.458
10957TIP3    H132748   2.518   7.557   4.467
10957TIP3    H232749   2.631   7.529   4.370
10958TIP3   OH232750   2.045   7.346   3.848
10958TIP3    H132751   1.989   7.371   3.921
10958TIP3    H232752   2.128   7.320   3.889
10959TIP3   OH232753   2.279   7.387   4.756
10959TIP3    H132754   2.280   7.468   4.807
10959TIP3    H232755   2.195   7.388   4.710
10960TIP3   OH232756   1.276   7.342   4.263
10960TIP3    H132757   1.234   7.288   4.197
10960TIP3    H232758   1.353   7.292   4.290
10961TIP3   OH232759   1.407   7.752   4.411
10961TIP3    H132760   1.385   7.714   4.326
10961TIP3    H232761   1.495   7.720   4.430
10962TIP3   OH232762   1.416   7.316   4.615
10962TIP3    H132763   1.448   7.295   4.527
10962TIP3    H232764   1.456   7.400   4.636
10963TIP3   OH232765   1.938   7.953   4.395
10963TIP3    H132766   1.925   8.031   4.448
10963TIP3    H232767   1.924   7.880   4.455
10964TIP3   OH232768   1.549   7.872   4.940
10964TIP3    H132769   1.493   7.934   4.986
10964TIP3    H232770   1.488   7.817   4.891
10965TIP3   OH232771   1.887   7.202   3.673
10965TIP3    H132772   1.942   7.259   3.727
10965TIP3    H232773   1.911   7.223   3.583
10966TIP3   OH232774   1.304   7.430   5.042
10966TIP3    H132775   1.312   7.515   5.086
10966TIP3    H232776   1.211   7.408   5.049
10967TIP3   OH232777   1.626   7.887   3.949
10967TIP3    H132778   1.706   7.937   3.964
10967TIP3    H232779   1.567   7.948   3.905
10968TIP3   OH232780   1.345   8.041   5.025
10968TIP3    H132781   1.312   8.040   4.935
10968TIP3    H232782   1.269   8.019   5.079
10969TIP3   OH232783   1.141   7.186   4.069
10969TIP3    H132784   1.080   7.231   4.011
10969TIP3    H232785   1.103   7.099   4.080
10970TIP3   OH232786   2.201   7.813   3.271
10970TIP3    H132787   2.206   7.907   3.251
10970TIP3    H232788   2.290   7.780   3.255
10971TIP3   OH232789   0.926   7.568   4.973
10971TIP3    H132790   0.863   7.544   4.904
10971TIP3    H232791   0.963   7.484   5.002
10972TIP3   OH232792   0.791   7.763   4.617
10972TIP3    H132793   0.878   7.741   4.584
10972TIP3    H232794   0.806   7.838   4.675
10973TIP3   OH232795   2.638   8.212   4.658
10973TIP3    H132796   2.645   8.118   4.675
10973TIP3    H232797   2.560   8.239   4.706
10974TIP3   OH232798   1.749   8.001   4.799
10974TIP3    H132799   1.750   8.092   4.828
10974TIP3    H232800   1.679   7.960   4.850
10975TIP3   OH232801   1.508   8.130   3.748
10975TIP3    H132802   1.466   8.109   3.665
10975TIP3    H232803   1.477   8.217   3.770
10976TIP3   OH232804   0.947   7.978   4.134
10976TIP3    H132805   1.000   7.968   4.213
10976TIP3    H232806   0.891   7.901   4.134
10977TIP3   OH232807   1.714   8.030   3.391
10977TIP3    H132808   1.769   7.962   3.351
10977TIP3    H232809   1.746   8.038   3.480
10978TIP3   OH232810   1.761   8.080   3.663
10978TIP3    H132811   1.673   8.088   3.701
10978TIP3    H232812   1.812   8.035   3.730
10979TIP3   OH232813   2.532   7.343   4.936
10979TIP3    H132814   2.453   7.359   4.884
10979TIP3    H232815   2.550   7.250   4.927
10980TIP3   OH232816   1.130   7.752   4.965
10980TIP3    H132817   1.180   7.736   5.045
10980TIP3    H232818   1.057   7.690   4.970
10981TIP3   OH232819   1.523   6.596   4.736
10981TIP3    H132820   1.440   6.556   4.709
10981TIP3    H232821   1.498   6.662   4.800
10982TIP3   OH232822   2.064   6.691   4.942
10982TIP3    H132823   2.133   6.664   5.002
10982TIP3    H232824   1.982   6.670   4.987
10983TIP3   OH232825   2.298   7.120   4.857
10983TIP3    H132826   2.254   7.117   4.942
10983TIP3    H232827   2.279   7.208   4.824
10984TIP3   OH232828   1.963   7.250   3.414
10984TIP3    H132829   1.927   7.225   3.329
10984TIP3    H232830   2.041   7.301   3.393
10985TIP3   OH232831   1.670   6.622   3.718
10985TIP3    H132832   1.642   6.625   3.810
10985TIP3    H232833   1.632   6.542   3.684
10986TIP3   OH232834   1.451   7.090   4.757
10986TIP3    H132835   1.409   7.109   4.841
10986TIP3    H232836   1.440   7.171   4.706
10987TIP3   OH232837   1.361   6.962   4.292
10987TIP3    H132838   1.273   6.934   4.317
10987TIP3    H232839   1.373   6.927   4.204
10988TIP3   OH232840   2.011   7.342   5.095
10988TIP3    H132841   1.987   7.271   5.154
10988TIP3    H232842   2.103   7.358   5.113
10989TIP3   OH232843   1.280   7.119   4.974
10989TIP3    H132844   1.311   7.184   5.038
10989TIP3    H232845   1.268   7.039   5.025
10990TIP3   OH232846   1.327   6.598   3.685
10990TIP3    H132847   1.322   6.595   3.780
10990TIP3    H232848   1.252   6.651   3.658
10991TIP3   OH232849   0.873   6.644   4.552
10991TIP3    H132850   0.947   6.672   4.605
10991TIP3    H232851   0.912   6.610   4.472
10992TIP3   OH232852   0.846   6.627   4.072
10992TIP3    H132853   0.893   6.662   3.996
10992TIP3    H232854   0.785   6.696   4.096
10993TIP3   OH232855   2.008   7.333   4.667
10993TIP3    H132856   2.038   7.266   4.606
10993TIP3    H232857   1.977   7.284   4.743
10994TIP3   OH232858   1.110   6.854   4.357
10994TIP3    H132859   1.021   6.860   4.324
10994TIP3    H232860   1.141   6.768   4.330
10995TIP3   OH232861   1.380   6.856   4.036
10995TIP3    H132862   1.471   6.875   4.014
10995TIP3    H232863   1.331   6.877   3.957
10996TIP3   OH232864   2.165   6.882   4.543
10996TIP3    H132865   2.131   6.890   4.632
10996TIP3    H232866   2.104   6.822   4.500
10997TIP3   OH232867   1.217   6.885   3.814
10997TIP3    H132868   1.145   6.841   3.769
10997TIP3    H232869   1.270   6.922   3.743
10998TIP3   OH232870   2.331   8.567   4.759
10998TIP3    H132871   2.330   8.583   4.665
10998TIP3    H232872   2.413   8.605   4.789
10999TIP3   OH232873   1.290   7.676   5.187
10999TIP3    H132874   1.372   7.705   5.227
10999TIP3    H232875   1.227   7.674   5.258
11000TIP3   OH232876   1.275   6.623   4.313
11000TIP3    H132877   1.251   6.547   4.366
11000TIP3    H232878   1.335   6.588   4.248
11001TIP3   OH232879   1.718   7.003   4.728
11001TIP3    H132880   1.639   7.056   4.743
11001TIP3    H232881   1.790   7.058   4.759
11002TIP3   OH232882   1.461   7.420   3.821
11002TIP3    H132883   1.394   7.353   3.809
11002TIP3    H232884   1.450   7.450   3.911
11003TIP3   OH232885   2.368   7.652   4.451
11003TIP3    H132886   2.393   7.700   4.372
11003TIP3    H232887   2.285   7.610   4.428
11004TIP3   OH232888   1.924   6.725   3.678
11004TIP3    H132889   1.830   6.715   3.691
11004TIP3    H232890   1.942   6.817   3.700
11005TIP3   OH232891   1.867   7.734   4.820
11005TIP3    H132892   1.893   7.713   4.910
11005TIP3    H232893   1.829   7.822   4.827
11006TIP3   OH232894   2.008   6.966   3.768
11006TIP3    H132895   2.096   6.985   3.799
11006TIP3    H232896   1.973   7.051   3.741
11007TIP3   OH232897   1.161   7.437   4.499
11007TIP3    H132898   1.196   7.412   4.413
11007TIP3    H232899   1.201   7.374   4.560
11008TIP3   OH232900   1.612   7.567   3.643
11008TIP3    H132901   1.568   7.652   3.648
11008TIP3    H232902   1.560   7.511   3.701
11009TIP3   OH232903   1.039   7.361   5.115
11009TIP3    H132904   1.060   7.344   5.207
11009TIP3    H232905   0.976   7.293   5.092
11010TIP3   OH232906   1.768   7.470   5.130
11010TIP3    H132907   1.709   7.415   5.079
11010TIP3    H232908   1.856   7.440   5.106
11011TIP3   OH232909   2.027   7.997   4.717
11011TIP3    H132910   1.932   7.992   4.727
11011TIP3    H232911   2.057   8.047   4.793
11012TIP3   OH232912   2.435   7.068   3.622
11012TIP3    H132913   2.375   7.022   3.563
11012TIP3    H232914   2.438   7.157   3.587
11013TIP3   OH232915   2.653   7.920   4.703
11013TIP3    H132916   2.558   7.918   4.698
11013TIP3    H232917   2.682   7.893   4.616
11014TIP3   OH232918   2.141   7.884   3.534
11014TIP3    H132919   2.113   7.813   3.592
11014TIP3    H232920   2.152   7.842   3.448
11015TIP3   OH232921   2.134   7.511   4.373
11015TIP3    H132922   2.041   7.490   4.385
11015TIP3    H232923   2.170   7.436   4.326
11016TIP3   OH232924   1.261   7.744   4.125
11016TIP3    H132925   1.266   7.822   4.070
11016TIP3    H232926   1.167   7.726   4.132
11017TIP3   OH232927   0.825   7.048   3.828
11017TIP3    H132928   0.872   7.129   3.846
11017TIP3    H232929   0.749   7.050   3.886
11018TIP3   OH232930   1.399   7.508   4.070
11018TIP3    H132931   1.367   7.597   4.085
11018TIP3    H232932   1.364   7.458   4.143
11019TIP3   OH232933   1.532   8.086   4.594
11019TIP3    H132934   1.569   8.158   4.542
11019TIP3    H232935   1.606   8.050   4.642
11020TIP3   OH232936   1.181   7.983   3.977
11020TIP3    H132937   1.096   7.989   4.020
11020TIP3    H232938   1.215   8.072   3.978
11021TIP3   OH232939   1.921   7.719   4.552
11021TIP3    H132940   1.910   7.718   4.647
11021TIP3    H232941   2.000   7.667   4.536
11022TIP3   OH232942   1.892   7.609   3.437
11022TIP3    H132943   1.946   7.588   3.513
11022TIP3    H232944   1.803   7.586   3.464
11023TIP3   OH232945   2.165   8.256   4.601
11023TIP3    H132946   2.090   8.197   4.596
11023TIP3    H232947   2.152   8.319   4.530
11024TIP3   OH232948   2.232   8.090   3.254
11024TIP3    H132949   2.269   8.154   3.193
11024TIP3    H232950   2.153   8.131   3.288
11025TIP3   OH232951   1.253   6.863   5.122
11025TIP3    H132952   1.158   6.868   5.132
11025TIP3    H232953   1.281   6.803   5.191
11026TIP3   OH232954   2.055   7.548   3.654
11026TIP3    H132955   2.041   7.481   3.722
11026TIP3    H232956   2.149   7.545   3.637
11027TIP3   OH232957   0.962   7.942   4.758
11027TIP3    H132958   1.022   7.873   4.786
11027TIP3    H232959   0.992   8.020   4.804
11028TIP3   OH232960   1.259   7.592   3.435
11028TIP3    H132961   1.275   7.504   3.402
11028TIP3    H232962   1.240   7.580   3.528
11029TIP3   OH232963   1.205   7.599   3.710
11029TIP3    H132964   1.281   7.569   3.761
11029TIP3    H232965   1.209   7.694   3.713
11030TIP3   OH232966   0.941   7.294   3.909
11030TIP3    H132967   0.876   7.336   3.966
11030TIP3    H232968   0.959   7.359   3.841
11031TIP3   OH232969   2.086   6.928   4.802
11031TIP3    H132970   2.166   6.968   4.835
11031TIP3    H232971   2.075   6.850   4.856
11032TIP3   OH232972   1.970   6.672   3.958
11032TIP3    H132973   1.956   6.702   3.868
11032TIP3    H232974   2.015   6.744   4.001
11033TIP3   OH232975   1.469   7.797   3.656
11033TIP3    H132976   1.384   7.824   3.691
11033TIP3    H232977   1.488   7.862   3.587
11034TIP3   OH232978   1.675   6.873   4.070
11034TIP3    H132979   1.733   6.920   4.011
11034TIP3    H232980   1.692   6.912   4.156
11035TIP3   OH232981   1.930   7.176   4.875
11035TIP3    H132982   1.946   7.230   4.952
11035TIP3    H232983   1.984   7.098   4.888
11036TIP3   OH232984   1.813   6.595   4.173
11036TIP3    H132985   1.842   6.653   4.243
11036TIP3    H232986   1.861   6.624   4.096
11037TIP3   OH232987   1.212   7.873   3.721
11037TIP3    H132988   1.184   7.939   3.658
11037TIP3    H232989   1.198   7.914   3.807
11038TIP3   OH232990   1.318   6.587   3.960
11038TIP3    H132991   1.310   6.675   3.997
11038TIP3    H232992   1.410   6.565   3.968
11039TIP3   OH232993   2.566   7.078   4.854
11039TIP3    H132994   2.471   7.077   4.863
11039TIP3    H232995   2.583   7.036   4.770
11040TIP3   OH232996   2.220   7.268   4.246
11040TIP3    H132997   2.145   7.216   4.274
11040TIP3    H232998   2.295   7.228   4.289
11041TIP3   OH232999   0.934   7.503   3.713
11041TIP3    H133000   0.997   7.574   3.725
11041TIP3    H233001   0.974   7.446   3.647
11042TIP3   OH233002   0.876   6.778   3.846
11042TIP3    H133003   0.878   6.873   3.843
11042TIP3    H233004   0.791   6.754   3.809
11043TIP3   OH233005   2.188   8.232   4.193
11043TIP3    H133006   2.143   8.275   4.121
11043TIP3    H233007   2.281   8.247   4.175
11044TIP3   OH233008   1.266   6.496   4.722
11044TIP3    H133009   1.235   6.464   4.637
11044TIP3    H233010   1.257   6.420   4.780
11045TIP3   OH233011   0.803   7.720   4.106
11045TIP3    H133012   0.726   7.748   4.155
11045TIP3    H233013   0.789   7.753   4.017
11046TIP3   OH233014   0.959   8.249   5.180
11046TIP3    H133015   1.045   8.256   5.221
11046TIP3    H233016   0.945   8.154   5.170
11047TIP3   OH233017   1.442   8.220   5.218
11047TIP3    H133018   1.536   8.205   5.227
11047TIP3    H233019   1.416   8.165   5.144
11048TIP3   OH233020   1.425   7.795   3.349
11048TIP3    H133021   1.369   7.726   3.384
11048TIP3    H233022   1.498   7.749   3.309
11049TIP3   OH233023   2.081   8.128   4.954
11049TIP3    H133024   2.072   8.059   5.019
11049TIP3    H233025   2.158   8.177   4.981
11050TIP3   OH233026   1.860   7.839   3.256
11050TIP3    H133027   1.907   7.776   3.311
11050TIP3    H233028   1.908   7.840   3.174
11051TIP3   OH233029   1.092   7.659   5.379
11051TIP3    H133030   1.113   7.566   5.379
11051TIP3    H233031   1.010   7.665   5.330
11052TIP3   OH233032   1.069   7.314   3.567
11052TIP3    H133033   1.121   7.281   3.640
11052TIP3    H233034   1.131   7.320   3.494
11053TIP3   OH233035   1.697   7.746   5.147
11053TIP3    H133036   1.658   7.764   5.061
11053TIP3    H233037   1.729   7.656   5.140
11054TIP3   OH233038   1.574   7.508   3.376
11054TIP3    H133039   1.579   7.525   3.470
11054TIP3    H233040   1.574   7.413   3.369
11055TIP3   OH233041   2.190   7.758   4.752
11055TIP3    H133042   2.266   7.799   4.710
11055TIP3    H233043   2.119   7.821   4.740
11056TIP3   OH233044   1.211   7.397   5.357
11056TIP3    H133045   1.284   7.341   5.332
11056TIP3    H233046   1.235   7.430   5.444
11057TIP3   OH233047   1.275   7.214   3.789
11057TIP3    H133048   1.251   7.174   3.872
11057TIP3    H233049   1.312   7.143   3.737
11058TIP3   OH233050   1.542   7.280   5.012
11058TIP3    H133051   1.468   7.340   5.018
11058TIP3    H233052   1.594   7.314   4.938
11059TIP3   OH233053   1.377   7.010   3.629
11059TIP3    H133054   1.349   7.014   3.537
11059TIP3    H233055   1.473   7.016   3.624
11060TIP3   OH233056   2.062   7.683   5.152
11060TIP3    H133057   2.142   7.663   5.103
11060TIP3    H233058   2.059   7.617   5.221
11061TIP3   OH233059   2.198   7.342   3.289
11061TIP3    H133060   2.179   7.293   3.209
11061TIP3    H233061   2.169   7.431   3.271
11062TIP3   OH233062   1.666   7.071   5.145
11062TIP3    H133063   1.667   6.990   5.094
11062TIP3    H233064   1.625   7.135   5.087
11063TIP3   OH233065   1.666   6.854   4.959
11063TIP3    H133066   1.696   6.896   4.879
11063TIP3    H233067   1.575   6.830   4.942
11064TIP3   OH233068   1.698   7.392   4.822
11064TIP3    H133069   1.782   7.398   4.775
11064TIP3    H233070   1.643   7.458   4.780
11065TIP3   OH233071   2.282   7.359   5.206
11065TIP3    H133072   2.327   7.275   5.215
11065TIP3    H233073   2.349   7.418   5.171
11066TIP3   OH233074   2.322   7.614   4.939
11066TIP3    H133075   2.262   7.664   4.883
11066TIP3    H233076   2.409   7.631   4.903
11067TIP3   OH233077   1.542   7.182   5.372
11067TIP3    H133078   1.476   7.115   5.388
11067TIP3    H233079   1.580   7.160   5.288
11068TIP3   OH233080   1.802   6.618   5.015
11068TIP3    H133081   1.754   6.700   4.999
11068TIP3    H233082   1.735   6.550   5.006
11069TIP3   OH233083   1.926   7.125   5.235
11069TIP3    H133084   1.922   7.114   5.330
11069TIP3    H233085   1.839   7.100   5.204
11070TIP3   OH233086   2.168   7.075   5.091
11070TIP3    H133087   2.093   7.075   5.150
11070TIP3    H233088   2.241   7.044   5.144
11071TIP3   OH233089   2.395   7.013   5.242
11071TIP3    H133090   2.409   6.919   5.257
11071TIP3    H233091   2.393   7.052   5.329
11072TIP3   OH233092   1.387   6.961   5.427
11072TIP3    H133093   1.390   6.873   5.390
11072TIP3    H233094   1.422   6.951   5.516
11073TIP3   OH233095   1.898   6.629   5.272
11073TIP3    H133096   1.966   6.562   5.273
11073TIP3    H233097   1.858   6.622   5.185
11074TIP3   OH233098   1.961   6.844   5.433
11074TIP3    H133099   1.942   6.774   5.371
11074TIP3    H233100   1.886   6.903   5.426
11075TIP3   OH233101   1.185   8.074   3.532
11075TIP3    H133102   1.279   8.068   3.517
11075TIP3    H233103   1.151   8.121   3.456
11076TIP3   OH233104   0.665   7.454   3.751
11076TIP3    H133105   0.756   7.479   3.738
11076TIP3    H233106   0.658   7.367   3.712
11077TIP3   OH233107   0.583   8.062   4.157
11077TIP3    H133108   0.514   8.006   4.122
11077TIP3    H233109   0.622   8.010   4.227
11078TIP3   OH233110   0.707   7.921   4.355
11078TIP3    H133111   0.702   7.845   4.413
11078TIP3    H233112   0.772   7.979   4.396
11079TIP3   OH233113   2.440   8.324   4.151
11079TIP3    H133114   2.470   8.351   4.237
11079TIP3    H233115   2.504   8.361   4.090
11080TIP3   OH233116   2.473   8.338   4.435
11080TIP3    H133117   2.426   8.255   4.427
11080TIP3    H233118   2.547   8.317   4.493
11081TIP3   OH233119   2.515   8.019   5.005
11081TIP3    H133120   2.444   8.026   5.069
11081TIP3    H233121   2.560   8.103   5.010
11082TIP3   OH233122   2.334   7.529   3.627
11082TIP3    H133123   2.399   7.592   3.596
11082TIP3    H233124   2.375   7.490   3.705
11083TIP3   OH233125   2.462   7.397   3.831
11083TIP3    H133126   2.395   7.355   3.885
11083TIP3    H233127   2.523   7.436   3.893
11084TIP3   OH233128   2.515   7.788   4.260
11084TIP3    H133129   2.566   7.724   4.212
11084TIP3    H233130   2.505   7.861   4.199
11085TIP3   OH233131   2.345   8.091   4.455
11085TIP3    H133132   2.276   8.129   4.509
11085TIP3    H233133   2.298   8.042   4.387
11086TIP3   OH233134   2.396   7.306   3.476
11086TIP3    H133135   2.329   7.305   3.407
11086TIP3    H233136   2.372   7.379   3.532
11087TIP3   OH233137   2.274   6.977   3.426
11087TIP3    H133138   2.232   7.029   3.357
11087TIP3    H233139   2.242   6.888   3.411
11088TIP3   OH233140   2.276   7.253   3.977
11088TIP3    H133141   2.282   7.158   3.966
11088TIP3    H233142   2.261   7.265   4.071
11089TIP3   OH233143   0.902   7.334   4.719
11089TIP3    H133144   0.896   7.301   4.630
11089TIP3    H233145   0.996   7.333   4.739
11090TIP3   OH233146   2.565   7.677   4.831
11090TIP3    H133147   2.635   7.613   4.824
11090TIP3    H233148   2.592   7.749   4.773
11091TIP3   OH233149   2.748   7.480   4.850
11091TIP3    H133150   2.674   7.433   4.889
11091TIP3    H233151   2.823   7.422   4.863
11092TIP3   OH233152   2.206   6.719   3.414
11092TIP3    H133153   2.277   6.686   3.469
11092TIP3    H233154   2.130   6.666   3.440
11093TIP3   OH233155   2.278   6.976   3.870
11093TIP3    H133156   2.309   6.888   3.890
11093TIP3    H233157   2.332   7.005   3.797
11094TIP3   OH233158   2.436   7.146   4.367
11094TIP3    H133159   2.518   7.169   4.324
11094TIP3    H233160   2.445   7.179   4.456
11095TIP3   OH233161   2.499   7.289   4.598
11095TIP3    H133162   2.423   7.321   4.646
11095TIP3    H233163   2.534   7.366   4.553
11096TIP3   OH233164   1.121   7.014   5.404
11096TIP3    H133165   1.217   7.009   5.399
11096TIP3    H233166   1.095   6.930   5.440
11097TIP3   OH233167   2.953   6.877   5.152
11097TIP3    H133168   3.011   6.811   5.113
11097TIP3    H233169   2.926   6.932   5.079
11098TIP3   OH233170   2.384   6.715   3.902
11098TIP3    H133171   2.427   6.705   3.987
11098TIP3    H233172   2.323   6.641   3.897
11099TIP3   OH233173   1.078   6.700   4.732
11099TIP3    H133174   1.138   6.626   4.739
11099TIP3    H233175   1.135   6.777   4.728
11100TIP3   OH233176   0.886   6.978   4.803
11100TIP3    H133177   0.928   6.973   4.717
11100TIP3    H233178   0.913   7.063   4.838
11101TIP3   OH233179   2.822   7.018   4.958
11101TIP3    H133180   2.738   7.058   4.981
11101TIP3    H233181   2.799   6.945   4.901
11102TIP3   OH233182   2.452   6.612   3.523
11102TIP3    H133183   2.525   6.584   3.470
11102TIP3    H233184   2.477   6.699   3.555
11103TIP3   OH233185   0.864   6.484   4.302
11103TIP3    H133186   0.772   6.480   4.329
11103TIP3    H233187   0.864   6.540   4.225
11104TIP3   OH233188   2.028   8.186   3.808
11104TIP3    H133189   2.073   8.168   3.726
11104TIP3    H233190   2.082   8.252   3.851
11105TIP3   OH233191   1.084   6.566   5.118
11105TIP3    H133192   1.035   6.555   5.200
11105TIP3    H233193   1.020   6.601   5.056
11106TIP3   OH233194   1.131   7.989   5.195
11106TIP3    H133195   1.042   7.961   5.174
11106TIP3    H233196   1.141   7.973   5.289
11107TIP3   OH233197   1.303   8.024   4.737
11107TIP3    H133198   1.254   8.098   4.702
11107TIP3    H233199   1.390   8.032   4.698
11108TIP3   OH233200   1.752   8.268   4.880
11108TIP3    H133201   1.791   8.267   4.968
11108TIP3    H233202   1.815   8.317   4.826
11109TIP3   OH233203   1.931   8.418   4.738
11109TIP3    H133204   1.998   8.365   4.694
11109TIP3    H233205   1.979   8.474   4.798
11110TIP3   OH233206   2.722   6.778   4.836
11110TIP3    H133207   2.632   6.773   4.805
11110TIP3    H233208   2.755   6.688   4.827
11111TIP3   OH233209   0.975   8.273   4.766
11111TIP3    H133210   0.892   8.304   4.729
11111TIP3    H233211   0.984   8.320   4.848
11112TIP3   OH233212   1.215   8.258   4.621
11112TIP3    H133213   1.131   8.270   4.667
11112TIP3    H233214   1.199   8.291   4.533
11113TIP3   OH233215   1.641   8.289   4.420
11113TIP3    H133216   1.574   8.305   4.353
11113TIP3    H233217   1.655   8.374   4.461
11114TIP3   OH233218   1.910   8.229   4.471
11114TIP3    H133219   1.817   8.241   4.453
11114TIP3    H233220   1.953   8.303   4.427
11115TIP3   OH233221   2.124   8.422   4.385
11115TIP3    H133222   2.106   8.504   4.337
11115TIP3    H233223   2.146   8.359   4.316
11116TIP3   OH233224   0.898   8.060   4.495
11116TIP3    H133225   0.920   8.056   4.588
11116TIP3    H233226   0.973   8.019   4.451
11117TIP3   OH233227   1.097   7.935   4.358
11117TIP3    H133228   1.111   7.853   4.407
11117TIP3    H233229   1.184   7.975   4.353
11118TIP3   OH233230   1.356   8.039   4.369
11118TIP3    H133231   1.387   7.950   4.353
11118TIP3    H233232   1.396   8.063   4.453
11119TIP3   OH233233   1.912   6.679   4.441
11119TIP3    H133234   1.882   6.611   4.502
11119TIP3    H233235   1.998   6.648   4.412
11120TIP3   OH233236   2.448   6.572   4.356
11120TIP3    H133237   2.487   6.625   4.286
11120TIP3    H233238   2.356   6.597   4.356
11121TIP3   OH233239   2.547   6.679   4.123
11121TIP3    H133240   2.618   6.625   4.088
11121TIP3    H233241   2.576   6.769   4.110
11122TIP3   OH233242   1.176   6.402   4.477
11122TIP3    H133243   1.085   6.375   4.476
11122TIP3    H233244   1.226   6.321   4.471
11123TIP3   OH233245   0.957   6.276   4.117
11123TIP3    H133246   0.991   6.331   4.047
11123TIP3    H233247   0.932   6.337   4.187
11124TIP3   OH233248   1.623   6.451   4.356
11124TIP3    H133249   1.683   6.493   4.295
11124TIP3    H233250   1.662   6.467   4.442
11125TIP3   OH233251   2.163   6.583   4.344
11125TIP3    H133252   2.164   6.553   4.253
11125TIP3    H233253   2.151   6.504   4.395
11126TIP3   OH233254   2.201   6.497   3.884
11126TIP3    H133255   2.120   6.547   3.896
11126TIP3    H233256   2.187   6.417   3.934
11127TIP3   OH233257   0.678   7.844   3.902
11127TIP3    H133258   0.594   7.810   3.870
11127TIP3    H233259   0.673   7.938   3.887
11128TIP3   OH233260   1.081   6.433   3.884
11128TIP3    H133261   1.128   6.372   3.827
11128TIP3    H233262   1.150   6.488   3.921
11129TIP3   OH233263   1.597   6.617   3.988
11129TIP3    H133264   1.653   6.564   4.044
11129TIP3    H233265   1.616   6.708   4.014
11130TIP3   OH233266   1.454   8.034   3.480
11130TIP3    H133267   1.540   8.059   3.448
11130TIP3    H233268   1.428   7.960   3.425
11131TIP3   OH233269   2.169   8.150   3.574
11131TIP3    H133270   2.164   8.055   3.565
11131TIP3    H233271   2.126   8.184   3.496
11132TIP3   OH233272   1.386   6.686   5.367
11132TIP3    H133273   1.349   6.615   5.420
11132TIP3    H233274   1.479   6.687   5.390
11133TIP3   OH233275   1.634   6.681   5.484
11133TIP3    H133276   1.718   6.658   5.443
11133TIP3    H233277   1.620   6.614   5.551
11134TIP3   OH233278   0.757   7.868   3.541
11134TIP3    H133279   0.761   7.898   3.632
11134TIP3    H233280   0.842   7.827   3.525
11135TIP3   OH233281   2.460   6.743   5.272
11135TIP3    H133282   2.476   6.712   5.361
11135TIP3    H233283   2.545   6.738   5.229
11136TIP3   OH233284   2.394   8.299   4.762
11136TIP3    H133285   2.319   8.263   4.715
11136TIP3    H233286   2.375   8.393   4.769
11137TIP3   OH233287   3.661   7.672   3.540
11137TIP3    H133288   3.635   7.759   3.511
11137TIP3    H233289   3.596   7.613   3.501
11138TIP3   OH233290   2.965   7.562   4.274
11138TIP3    H133291   2.992   7.494   4.335
11138TIP3    H233292   3.036   7.626   4.276
11139TIP3   OH233293   3.912   7.973   3.586
11139TIP3    H133294   3.870   7.915   3.650
11139TIP3    H233295   3.937   8.050   3.636
11140TIP3   OH233296   2.932   7.972   4.002
11140TIP3    H133297   2.922   7.877   4.004
11140TIP3    H233298   3.027   7.985   3.997
11141TIP3   OH233299   2.637   7.178   3.786
11141TIP3    H133300   2.592   7.262   3.801
11141TIP3    H233301   2.570   7.121   3.750
11142TIP3   OH233302   2.703   7.464   3.958
11142TIP3    H133303   2.748   7.388   3.994
11142TIP3    H233304   2.754   7.488   3.881
11143TIP3   OH233305   3.555   8.432   3.607
11143TIP3    H133306   3.600   8.363   3.559
11143TIP3    H233307   3.545   8.398   3.696
11144TIP3   OH233308   3.457   7.898   3.959
11144TIP3    H133309   3.477   7.837   3.888
11144TIP3    H233310   3.543   7.932   3.985
11145TIP3   OH233311   4.470   7.218   3.953
11145TIP3    H133312   4.500   7.297   3.998
11145TIP3    H233313   4.498   7.230   3.862
11146TIP3   OH233314   3.209   7.055   3.953
11146TIP3    H133315   3.189   7.127   3.893
11146TIP3    H233316   3.165   6.979   3.915
11147TIP3   OH233317   3.903   7.146   3.577
11147TIP3    H133318   3.969   7.133   3.646
11147TIP3    H233319   3.952   7.184   3.504
11148TIP3   OH233320   2.847   7.255   4.062
11148TIP3    H133321   2.927   7.237   4.112
11148TIP3    H233322   2.855   7.202   3.983
11149TIP3   OH233323   3.279   7.452   3.850
11149TIP3    H133324   3.370   7.422   3.856
11149TIP3    H233325   3.230   7.375   3.821
11150TIP3   OH233326   4.546   7.423   4.125
11150TIP3    H133327   4.463   7.466   4.106
11150TIP3    H233328   4.561   7.441   4.218
11151TIP3   OH233329   3.206   7.040   4.391
11151TIP3    H133330   3.147   7.074   4.323
11151TIP3    H233331   3.159   7.053   4.473
11152TIP3   OH233332   3.553   7.886   3.404
11152TIP3    H133333   3.517   7.864   3.318
11152TIP3    H233334   3.513   7.971   3.425
11153TIP3   OH233335   3.312   7.816   4.188
11153TIP3    H133336   3.249   7.876   4.228
11153TIP3    H233337   3.353   7.867   4.118
11154TIP3   OH233338   4.112   7.152   3.750
11154TIP3    H133339   4.113   7.092   3.824
11154TIP3    H233340   4.173   7.222   3.775
11155TIP3   OH233341   3.080   7.153   4.173
11155TIP3    H133342   3.139   7.224   4.200
11155TIP3    H233343   3.125   7.111   4.101
11156TIP3   OH233344   3.137   8.007   4.283
11156TIP3    H133345   3.116   8.092   4.244
11156TIP3    H233346   3.063   7.988   4.341
11157TIP3   OH233347   2.537   7.697   3.518
11157TIP3    H133348   2.495   7.719   3.435
11157TIP3    H233349   2.566   7.781   3.554
11158TIP3   OH233350   3.972   8.210   3.759
11158TIP3    H133351   3.885   8.204   3.799
11158TIP3    H233352   3.972   8.293   3.712
11159TIP3   OH233353   4.265   7.119   4.122
11159TIP3    H133354   4.178   7.143   4.090
11159TIP3    H233355   4.324   7.147   4.052
11160TIP3   OH233356   3.561   6.756   4.104
11160TIP3    H133357   3.555   6.662   4.121
11160TIP3    H233358   3.486   6.794   4.150
11161TIP3   OH233359   3.684   8.260   3.436
11161TIP3    H133360   3.726   8.177   3.413
11161TIP3    H233361   3.739   8.327   3.396
11162TIP3   OH233362   3.816   8.044   3.338
11162TIP3    H133363   3.793   7.967   3.286
11162TIP3    H233364   3.857   8.009   3.417
11163TIP3   OH233365   4.201   8.129   4.104
11163TIP3    H133366   4.201   8.053   4.046
11163TIP3    H233367   4.187   8.204   4.045
11164TIP3   OH233368   3.500   7.530   3.360
11164TIP3    H133369   3.418   7.575   3.340
11164TIP3    H233370   3.542   7.517   3.275
11165TIP3   OH233371   3.456   7.302   3.080
11165TIP3    H133372   3.522   7.355   3.124
11165TIP3    H233373   3.506   7.237   3.030
11166TIP3   OH233374   4.399   7.761   3.945
11166TIP3    H133375   4.318   7.812   3.953
11166TIP3    H233376   4.432   7.782   3.858
11167TIP3   OH233377   3.840   7.604   3.335
11167TIP3    H133378   3.786   7.629   3.410
11167TIP3    H233379   3.922   7.573   3.374
11168TIP3   OH233380   4.080   7.646   4.248
11168TIP3    H133381   4.081   7.725   4.302
11168TIP3    H233382   3.996   7.648   4.204
11169TIP3   OH233383   3.070   7.600   3.746
11169TIP3    H133384   3.026   7.546   3.681
11169TIP3    H233385   3.146   7.549   3.773
11170TIP3   OH233386   3.201   8.014   3.895
11170TIP3    H133387   3.179   7.972   3.812
11170TIP3    H233388   3.288   7.981   3.916
11171TIP3   OH233389   3.220   7.569   4.104
11171TIP3    H133390   3.239   7.556   4.011
11171TIP3    H233391   3.252   7.657   4.124
11172TIP3   OH233392   3.735   8.206   3.885
11172TIP3    H133393   3.720   8.290   3.930
11172TIP3    H233394   3.717   8.140   3.951
11173TIP3   OH233395   3.345   8.128   4.424
11173TIP3    H133396   3.292   8.190   4.475
11173TIP3    H233397   3.280   8.075   4.377
11174TIP3   OH233398   3.683   7.462   3.155
11174TIP3    H133399   3.739   7.519   3.207
11174TIP3    H233400   3.706   7.482   3.064
11175TIP3   OH233401   3.098   7.689   4.526
11175TIP3    H133402   3.107   7.772   4.571
11175TIP3    H233403   3.006   7.665   4.538
11176TIP3   OH233404   3.426   8.141   3.438
11176TIP3    H133405   3.502   8.197   3.452
11176TIP3    H233406   3.363   8.197   3.392
11177TIP3   OH233407   3.140   8.295   4.514
11177TIP3    H133408   3.103   8.292   4.426
11177TIP3    H233409   3.065   8.275   4.571
11178TIP3   OH233410   4.198   6.704   3.206
11178TIP3    H133411   4.118   6.720   3.256
11178TIP3    H233412   4.211   6.784   3.155
11179TIP3   OH233413   2.935   7.444   3.557
11179TIP3    H133414   2.875   7.490   3.498
11179TIP3    H233415   2.899   7.356   3.565
11180TIP3   OH233416   3.998   8.071   2.755
11180TIP3    H133417   4.004   8.165   2.739
11180TIP3    H233418   4.088   8.039   2.742
11181TIP3   OH233419   2.721   7.825   4.459
11181TIP3    H133420   2.657   7.803   4.392
11181TIP3    H233421   2.758   7.741   4.486
11182TIP3   OH233422   2.576   8.021   4.093
11182TIP3    H133423   2.671   8.011   4.082
11182TIP3    H233424   2.566   8.098   4.149
11183TIP3   OH233425   4.437   8.469   4.149
11183TIP3    H133426   4.440   8.374   4.162
11183TIP3    H233427   4.357   8.497   4.193
11184TIP3   OH233428   3.543   8.259   4.284
11184TIP3    H133429   3.546   8.350   4.315
11184TIP3    H233430   3.475   8.217   4.336
11185TIP3   OH233431   3.305   8.387   3.234
11185TIP3    H133432   3.260   8.365   3.153
11185TIP3    H233433   3.273   8.474   3.257
11186TIP3   OH233434   2.743   8.235   3.621
11186TIP3    H133435   2.791   8.227   3.704
11186TIP3    H233436   2.687   8.157   3.618
11187TIP3   OH233437   3.510   8.287   2.877
11187TIP3    H133438   3.565   8.219   2.838
11187TIP3    H233439   3.541   8.295   2.966
11188TIP3   OH233440   3.557   8.335   3.148
11188TIP3    H133441   3.470   8.345   3.186
11188TIP3    H233442   3.608   8.291   3.216
11189TIP3   OH233443   4.330   7.600   4.423
11189TIP3    H133444   4.250   7.614   4.372
11189TIP3    H233445   4.349   7.507   4.415
11190TIP3   OH233446   2.926   8.009   4.452
11190TIP3    H133447   2.976   7.996   4.532
11190TIP3    H233448   2.853   7.947   4.458
11191TIP3   OH233449   3.322   6.837   4.231
11191TIP3    H133450   3.237   6.801   4.204
11191TIP3    H233451   3.299   6.915   4.281
11192TIP3   OH233452   3.858   6.951   4.427
11192TIP3    H133453   3.927   6.922   4.487
11192TIP3    H233454   3.777   6.929   4.472
11193TIP3   OH233455   4.095   7.379   4.346
11193TIP3    H133456   4.051   7.371   4.431
11193TIP3    H233457   4.077   7.469   4.318
11194TIP3   OH233458   3.761   7.511   2.901
11194TIP3    H133459   3.723   7.483   2.818
11194TIP3    H233460   3.842   7.556   2.877
11195TIP3   OH233461   3.469   6.881   3.205
11195TIP3    H133462   3.438   6.881   3.296
11195TIP3    H233463   3.434   6.800   3.167
11196TIP3   OH233464   3.257   7.348   4.255
11196TIP3    H133465   3.208   7.365   4.335
11196TIP3    H233466   3.244   7.426   4.201
11197TIP3   OH233467   3.138   7.235   3.764
11197TIP3    H133468   3.048   7.210   3.784
11197TIP3    H233469   3.154   7.197   3.678
11198TIP3   OH233470   3.624   7.318   3.489
11198TIP3    H133471   3.577   7.390   3.447
11198TIP3    H233472   3.685   7.287   3.423
11199TIP3   OH233473   3.808   7.598   4.579
11199TIP3    H133474   3.782   7.527   4.639
11199TIP3    H233475   3.899   7.616   4.602
11200TIP3   OH233476   3.076   7.377   4.462
11200TIP3    H133477   3.101   7.441   4.528
11200TIP3    H233478   3.064   7.295   4.511
11201TIP3   OH233479   3.125   6.857   3.171
11201TIP3    H133480   3.119   6.851   3.267
11201TIP3    H233481   3.048   6.906   3.145
11202TIP3   OH233482   2.673   6.899   4.038
11202TIP3    H133483   2.743   6.932   4.095
11202TIP3    H233484   2.719   6.867   3.960
11203TIP3   OH233485   2.637   6.884   3.562
11203TIP3    H133486   2.685   6.913   3.484
11203TIP3    H233487   2.578   6.956   3.583
11204TIP3   OH233488   3.820   7.575   4.151
11204TIP3    H133489   3.825   7.480   4.151
11204TIP3    H233490   3.778   7.597   4.234
11205TIP3   OH233491   3.475   7.093   3.845
11205TIP3    H133492   3.391   7.067   3.882
11205TIP3    H233493   3.540   7.044   3.895
11206TIP3   OH233494   2.902   7.112   3.835
11206TIP3    H133495   2.810   7.120   3.808
11206TIP3    H233496   2.927   7.023   3.811
11207TIP3   OH233497   3.171   7.113   3.522
11207TIP3    H133498   3.264   7.122   3.501
11207TIP3    H233499   3.126   7.133   3.440
11208TIP3   OH233500   3.959   7.140   4.026
11208TIP3    H133501   3.926   7.154   4.115
11208TIP3    H233502   3.904   7.070   3.991
11209TIP3   OH233503   3.012   7.143   3.300
11209TIP3    H133504   2.941   7.098   3.255
11209TIP3    H233505   3.065   7.179   3.230
11210TIP3   OH233506   4.130   8.823   4.246
11210TIP3    H133507   4.128   8.842   4.152
11210TIP3    H233508   4.209   8.867   4.278
11211TIP3   OH233509   3.086   7.931   4.671
11211TIP3    H133510   3.168   7.956   4.714
11211TIP3    H233511   3.021   7.932   4.741
11212TIP3   OH233512   3.636   7.355   3.928
11212TIP3    H133513   3.584   7.289   3.881
11212TIP3    H233514   3.605   7.351   4.018
11213TIP3   OH233515   3.076   6.871   3.802
11213TIP3    H133516   3.043   6.794   3.848
11213TIP3    H233517   3.127   6.836   3.730
11214TIP3   OH233518   3.531   7.306   4.193
11214TIP3    H133519   3.440   7.320   4.221
11214TIP3    H233520   3.583   7.343   4.263
11215TIP3   OH233521   3.262   7.673   3.313
11215TIP3    H133522   3.194   7.608   3.299
11215TIP3    H233523   3.247   7.706   3.401
11216TIP3   OH233524   4.173   7.916   3.935
11216TIP3    H133525   4.208   7.962   3.859
11216TIP3    H233526   4.079   7.909   3.918
11217TIP3   OH233527   3.722   6.985   3.175
11217TIP3    H133528   3.628   6.967   3.179
11217TIP3    H233529   3.730   7.079   3.195
11218TIP3   OH233530   3.664   7.994   4.307
11218TIP3    H133531   3.683   7.966   4.397
11218TIP3    H233532   3.623   8.080   4.317
11219TIP3   OH233533   3.794   7.235   3.276
11219TIP3    H133534   3.889   7.238   3.288
11219TIP3    H233535   3.775   7.310   3.220
11220TIP3   OH233536   2.962   7.698   3.987
11220TIP3    H133537   2.994   7.667   3.903
11220TIP3    H233538   2.988   7.630   4.049
11221TIP3   OH233539   3.410   7.824   3.135
11221TIP3    H133540   3.365   7.909   3.138
11221TIP3    H233541   3.357   7.767   3.192
11222TIP3   OH233542   2.837   7.614   4.599
11222TIP3    H133543   2.861   7.603   4.691
11222TIP3    H233544   2.768   7.549   4.584
11223TIP3   OH233545   3.563   7.727   4.617
11223TIP3    H133546   3.502   7.668   4.573
11223TIP3    H233547   3.650   7.696   4.591
11224TIP3   OH233548   3.822   8.247   4.204
11224TIP3    H133549   3.727   8.248   4.216
11224TIP3    H233550   3.855   8.298   4.278
11225TIP3   OH233551   4.232   7.323   3.108
11225TIP3    H133552   4.172   7.274   3.052
11225TIP3    H233553   4.234   7.411   3.070
11226TIP3   OH233554   4.451   8.178   4.191
11226TIP3    H133555   4.356   8.175   4.187
11226TIP3    H233556   4.479   8.150   4.104
11227TIP3   OH233557   3.935   8.139   3.019
11227TIP3    H133558   3.909   8.067   3.076
11227TIP3    H233559   3.948   8.098   2.933
11228TIP3   OH233560   3.056   7.998   3.609
11228TIP3    H133561   3.059   8.078   3.556
11228TIP3    H233562   2.963   7.979   3.619
11229TIP3   OH233563   2.621   7.304   3.315
11229TIP3    H133564   2.667   7.386   3.332
11229TIP3    H233565   2.544   7.307   3.372
11230TIP3   OH233566   3.200   7.766   3.562
11230TIP3    H133567   3.165   7.854   3.573
11230TIP3    H233568   3.158   7.714   3.630
11231TIP3   OH233569   3.328   8.343   4.079
11231TIP3    H133570   3.367   8.415   4.030
11231TIP3    H233571   3.401   8.309   4.132
11232TIP3   OH233572   2.977   8.239   3.465
11232TIP3    H133573   2.892   8.244   3.508
11232TIP3    H233574   3.009   8.329   3.465
11233TIP3   OH233575   3.717   7.963   4.046
11233TIP3    H133576   3.691   7.976   4.137
11233TIP3    H233577   3.810   7.940   4.051
11234TIP3   OH233578   3.689   7.869   2.923
11234TIP3    H133579   3.741   7.847   3.000
11234TIP3    H233580   3.600   7.841   2.945
11235TIP3   OH233581   3.962   8.511   4.085
11235TIP3    H133582   3.884   8.454   4.080
11235TIP3    H233583   3.949   8.575   4.016
11236TIP3   OH233584   4.028   8.347   2.741
11236TIP3    H133585   4.070   8.414   2.686
11236TIP3    H233586   3.949   8.389   2.774
11237TIP3   OH233587   3.049   7.119   4.607
11237TIP3    H133588   2.954   7.125   4.620
11237TIP3    H233589   3.079   7.061   4.677
11238TIP3   OH233590   3.851   7.809   3.144
11238TIP3    H133591   3.838   7.739   3.208
11238TIP3    H233592   3.945   7.805   3.124
11239TIP3   OH233593   2.767   8.206   4.242
11239TIP3    H133594   2.816   8.127   4.266
11239TIP3    H233595   2.795   8.271   4.306
11240TIP3   OH233596   3.057   7.849   2.921
11240TIP3    H133597   3.068   7.760   2.888
11240TIP3    H233598   3.036   7.837   3.014
11241TIP3   OH233599   3.002   7.856   3.195
11241TIP3    H133600   3.074   7.827   3.251
11241TIP3    H233601   3.005   7.952   3.199
11242TIP3   OH233602   2.738   7.552   3.396
11242TIP3    H133603   2.671   7.591   3.453
11242TIP3    H233604   2.752   7.617   3.327
11243TIP3   OH233605   3.882   7.188   4.288
11243TIP3    H133606   3.964   7.223   4.323
11243TIP3    H233607   3.867   7.108   4.338
11244TIP3   OH233608   3.761   6.940   3.452
11244TIP3    H133609   3.750   6.958   3.359
11244TIP3    H233610   3.801   7.019   3.488
11245TIP3   OH233611   3.267   8.055   3.144
11245TIP3    H133612   3.181   8.080   3.178
11245TIP3    H233613   3.284   8.116   3.073
11246TIP3   OH233614   3.455   7.115   3.559
11246TIP3    H133615   3.518   7.182   3.532
11246TIP3    H233616   3.462   7.112   3.655
11247TIP3   OH233617   3.728   7.435   4.364
11247TIP3    H133618   3.743   7.488   4.442
11247TIP3    H233619   3.779   7.355   4.379
11248TIP3   OH233620   3.602   6.848   3.657
11248TIP3    H133621   3.611   6.919   3.721
11248TIP3    H233622   3.657   6.875   3.584
11249TIP3   OH233623   3.010   8.130   3.209
11249TIP3    H133624   2.980   8.195   3.145
11249TIP3    H233625   2.994   8.171   3.294
11250TIP3   OH233626   3.111   6.842   3.448
11250TIP3    H133627   3.107   6.931   3.483
11250TIP3    H233628   3.204   6.818   3.453
11251TIP3   OH233629   4.362   7.335   4.339
11251TIP3    H133630   4.267   7.335   4.350
11251TIP3    H233631   4.377   7.286   4.258
11252TIP3   OH233632   2.731   7.758   3.200
11252TIP3    H133633   2.793   7.831   3.210
11252TIP3    H233634   2.771   7.702   3.134
11253TIP3   OH233635   2.671   7.034   3.338
11253TIP3    H133636   2.674   7.129   3.333
11253TIP3    H233637   2.593   7.009   3.287
11254TIP3   OH233638   3.986   8.483   3.678
11254TIP3    H133639   3.940   8.528   3.608
11254TIP3    H233640   4.078   8.502   3.663
11255TIP3   OH233641   3.059   6.752   4.209
11255TIP3    H133642   3.030   6.720   4.123
11255TIP3    H233643   3.051   6.677   4.267
11256TIP3   OH233644   2.602   7.978   3.590
11256TIP3    H133645   2.527   8.003   3.645
11256TIP3    H233646   2.579   8.012   3.503
11257TIP3   OH233647   2.759   8.512   4.664
11257TIP3    H133648   2.842   8.513   4.711
11257TIP3    H233649   2.734   8.419   4.660
11258TIP3   OH233650   3.240   8.488   4.689
11258TIP3    H133651   3.326   8.460   4.718
11258TIP3    H233652   3.214   8.424   4.623
11259TIP3   OH233653   3.221   8.051   2.836
11259TIP3    H133654   3.164   7.983   2.871
11259TIP3    H233655   3.295   8.003   2.798
11260TIP3   OH233656   3.884   8.379   4.435
11260TIP3    H133657   3.869   8.314   4.504
11260TIP3    H233658   3.955   8.433   4.468
11261TIP3   OH233659   3.657   8.095   2.744
11261TIP3    H133660   3.701   8.031   2.801
11261TIP3    H233661   3.709   8.095   2.664
11262TIP3   OH233662   2.887   7.907   4.857
11262TIP3    H133663   2.903   7.812   4.859
11262TIP3    H233664   2.800   7.916   4.818
11263TIP3   OH233665   2.866   7.571   3.052
11263TIP3    H133666   2.918   7.537   3.125
11263TIP3    H233667   2.927   7.577   2.979
11264TIP3   OH233668   3.507   8.007   4.626
11264TIP3    H133669   3.454   8.019   4.547
11264TIP3    H233670   3.530   7.914   4.625
11265TIP3   OH233671   3.374   7.768   2.864
11265TIP3    H133672   3.375   7.782   2.958
11265TIP3    H233673   3.374   7.673   2.854
11266TIP3   OH233674   3.982   8.008   4.223
11266TIP3    H133675   4.060   8.055   4.193
11266TIP3    H233676   3.914   8.075   4.229
11267TIP3   OH233677   3.008   7.646   4.843
11267TIP3    H133678   3.085   7.593   4.823
11267TIP3    H233679   3.027   7.686   4.928
11268TIP3   OH233680   3.076   7.471   3.279
11268TIP3    H133681   3.045   7.428   3.358
11268TIP3    H233682   3.110   7.400   3.224
11269TIP3   OH233683   3.340   7.539   4.503
11269TIP3    H133684   3.264   7.597   4.510
11269TIP3    H233685   3.388   7.572   4.427
11270TIP3   OH233686   3.173   7.268   3.115
11270TIP3    H133687   3.144   7.269   3.024
11270TIP3    H233688   3.268   7.272   3.110
11271TIP3   OH233689   3.858   7.937   4.636
11271TIP3    H133690   3.945   7.921   4.599
11271TIP3    H233691   3.851   7.875   4.709
11272TIP3   OH233692   3.993   7.601   2.777
11272TIP3    H133693   3.976   7.550   2.697
11272TIP3    H233694   3.964   7.689   2.756
11273TIP3   OH233695   3.463   7.326   4.629
11273TIP3    H133696   3.463   7.247   4.576
11273TIP3    H233697   3.420   7.392   4.575
11274TIP3   OH233698   3.464   7.116   4.432
11274TIP3    H133699   3.492   7.145   4.345
11274TIP3    H233700   3.373   7.091   4.421
11275TIP3   OH233701   3.493   7.652   4.307
11275TIP3    H133702   3.568   7.654   4.247
11275TIP3    H233703   3.432   7.716   4.272
11276TIP3   OH233704   4.078   7.614   4.691
11276TIP3    H133705   4.122   7.531   4.707
11276TIP3    H233706   4.147   7.673   4.662
11277TIP3   OH233707   4.118   7.870   4.418
11277TIP3    H133708   4.058   7.921   4.363
11277TIP3    H233709   4.205   7.889   4.383
11278TIP3   OH233710   3.339   7.438   4.858
11278TIP3    H133711   3.272   7.372   4.875
11278TIP3    H233712   3.376   7.413   4.773
11279TIP3   OH233713   3.596   6.878   4.501
11279TIP3    H133714   3.548   6.958   4.482
11279TIP3    H233715   3.531   6.808   4.493
11280TIP3   OH233716   3.722   7.382   4.722
11280TIP3    H133717   3.718   7.371   4.816
11280TIP3    H233718   3.634   7.357   4.691
11281TIP3   OH233719   3.964   7.328   4.577
11281TIP3    H133720   3.890   7.331   4.637
11281TIP3    H233721   4.037   7.298   4.631
11282TIP3   OH233722   4.193   7.269   4.727
11282TIP3    H133723   4.206   7.176   4.743
11282TIP3    H233724   4.189   7.309   4.814
11283TIP3   OH233725   3.182   7.217   4.914
11283TIP3    H133726   3.187   7.129   4.878
11283TIP3    H233727   3.217   7.209   5.003
11284TIP3   OH233728   3.694   6.886   4.758
11284TIP3    H133729   3.761   6.818   4.758
11284TIP3    H233730   3.653   6.880   4.672
11285TIP3   OH233731   3.758   7.102   4.919
11285TIP3    H133732   3.739   7.031   4.857
11285TIP3    H233733   3.682   7.159   4.914
11286TIP3   OH233734   2.981   8.334   3.021
11286TIP3    H133735   3.075   8.327   3.003
11286TIP3    H233736   2.945   8.377   2.944
11287TIP3   OH233737   2.462   7.708   3.241
11287TIP3    H133738   2.554   7.732   3.225
11287TIP3    H233739   2.452   7.623   3.197
11288TIP3   OH233740   2.371   8.323   3.651
11288TIP3    H133741   2.306   8.264   3.614
11288TIP3    H233742   2.418   8.270   3.716
11289TIP3   OH233743   2.509   8.179   3.840
11289TIP3    H133744   2.497   8.101   3.895
11289TIP3    H233745   2.561   8.239   3.895
11290TIP3   OH233746   4.236   8.579   3.638
11290TIP3    H133747   4.266   8.611   3.723
11290TIP3    H233748   4.298   8.617   3.575
11291TIP3   OH233749   4.267   8.595   3.922
11291TIP3    H133750   4.223   8.511   3.913
11291TIP3    H233751   4.344   8.577   3.976
11292TIP3   OH233752   4.310   8.274   4.492
11292TIP3    H133753   4.240   8.280   4.556
11292TIP3    H233754   4.353   8.360   4.496
11293TIP3   OH233755   4.129   7.788   3.114
11293TIP3    H133756   4.194   7.851   3.081
11293TIP3    H233757   4.171   7.748   3.190
11294TIP3   OH233758   4.256   7.654   3.317
11294TIP3    H133759   4.192   7.612   3.374
11294TIP3    H233760   4.322   7.689   3.376
11295TIP3   OH233761   4.308   8.043   3.741
11295TIP3    H133762   4.363   7.980   3.696
11295TIP3    H233763   4.306   8.120   3.684
11296TIP3   OH233764   4.140   8.346   3.943
11296TIP3    H133765   4.073   8.390   3.995
11296TIP3    H233766   4.092   8.300   3.875
11297TIP3   OH233767   4.192   7.564   2.963
11297TIP3    H133768   4.125   7.561   2.895
11297TIP3    H233769   4.167   7.638   3.018
11298TIP3   OH233770   4.063   7.234   2.918
11298TIP3    H133771   4.026   7.272   2.838
11298TIP3    H233772   4.040   7.141   2.913
11299TIP3   OH233773   4.068   7.499   3.469
11299TIP3    H133774   4.074   7.409   3.438
11299TIP3    H233775   4.100   7.497   3.559
11300TIP3   OH233776   2.700   7.582   4.208
11300TIP3    H133777   2.694   7.553   4.117
11300TIP3    H233778   2.793   7.584   4.227
11301TIP3   OH233779   4.362   7.935   4.316
11301TIP3    H133780   4.431   7.869   4.310
11301TIP3    H233781   4.392   8.006   4.260
11302TIP3   OH233782   4.545   7.738   4.339
11302TIP3    H133783   4.471   7.690   4.376
11302TIP3    H233784   4.619   7.679   4.351
11303TIP3   OH233785   4.008   6.970   2.909
11303TIP3    H133786   4.083   6.936   2.959
11303TIP3    H233787   3.937   6.909   2.927
11304TIP3   OH233788   4.074   7.229   3.356
11304TIP3    H133789   4.106   7.141   3.378
11304TIP3    H233790   4.128   7.256   3.282
11305TIP3   OH233791   4.221   7.417   3.847
11305TIP3    H133792   4.304   7.436   3.803
11305TIP3    H233793   4.235   7.444   3.938
11306TIP3   OH233794   4.296   7.545   4.085
11306TIP3    H133795   4.224   7.580   4.137
11306TIP3    H233796   4.333   7.621   4.040
11307TIP3   OH233797   2.916   7.269   4.884
11307TIP3    H133798   3.011   7.265   4.885
11307TIP3    H233799   2.889   7.186   4.924
11308TIP3   OH233800   4.750   7.134   4.639
11308TIP3    H133801   4.808   7.068   4.600
11308TIP3    H233802   4.723   7.189   4.565
11309TIP3   OH233803   4.173   6.975   3.399
11309TIP3    H133804   4.223   6.960   3.478
11309TIP3    H233805   4.114   6.900   3.393
11310TIP3   OH233806   2.877   6.962   4.215
11310TIP3    H133807   2.935   6.886   4.225
11310TIP3    H233808   2.937   7.036   4.209
11311TIP3   OH233809   2.680   7.237   4.287
11311TIP3    H133810   2.727   7.229   4.203
11311TIP3    H233811   2.707   7.322   4.321
11312TIP3   OH233812   4.618   7.275   4.444
11312TIP3    H133813   4.535   7.314   4.469
11312TIP3    H233814   4.595   7.202   4.388
11313TIP3   OH233815   4.260   6.910   3.027
11313TIP3    H133816   4.295   6.838   2.975
11313TIP3    H233817   4.325   6.980   3.018
11314TIP3   OH233818   2.658   6.731   3.782
11314TIP3    H133819   2.571   6.738   3.820
11314TIP3    H233820   2.658   6.794   3.710
11315TIP3   OH233821   3.824   8.443   3.295
11315TIP3    H133822   3.868   8.424   3.212
11315TIP3    H233823   3.877   8.510   3.337
11316TIP3   OH233824   2.881   6.823   4.605
11316TIP3    H133825   2.833   6.813   4.687
11316TIP3    H233826   2.815   6.857   4.543
11317TIP3   OH233827   2.920   8.248   4.690
11317TIP3    H133828   2.831   8.217   4.671
11317TIP3    H233829   2.933   8.229   4.782
11318TIP3   OH233830   3.099   8.278   4.224
11318TIP3    H133831   3.049   8.351   4.189
11318TIP3    H233832   3.186   8.288   4.184
11319TIP3   OH233833   3.548   8.524   4.366
11319TIP3    H133834   3.585   8.522   4.454
11319TIP3    H233835   3.612   8.574   4.315
11320TIP3   OH233836   3.728   8.675   4.224
11320TIP3    H133837   3.797   8.622   4.184
11320TIP3    H233838   3.775   8.732   4.285
11321TIP3   OH233839   4.517   7.033   4.324
11321TIP3    H133840   4.427   7.026   4.293
11321TIP3    H233841   4.553   6.945   4.315
11322TIP3   OH233842   2.775   8.540   4.249
11322TIP3    H133843   2.689   8.575   4.226
11322TIP3    H233844   2.785   8.561   4.342
11323TIP3   OH233845   3.012   8.516   4.107
11323TIP3    H133846   2.929   8.528   4.153
11323TIP3    H233847   2.995   8.547   4.018
11324TIP3   OH233848   3.439   8.546   3.906
11324TIP3    H133849   3.370   8.562   3.841
11324TIP3    H233850   3.451   8.631   3.949
11325TIP3   OH233851   3.706   8.481   3.953
11325TIP3    H133852   3.613   8.497   3.938
11325TIP3    H233853   3.750   8.557   3.915
11326TIP3   OH233854   3.917   8.677   3.871
11326TIP3    H133855   3.901   8.760   3.826
11326TIP3    H233856   3.942   8.616   3.801
11327TIP3   OH233857   2.691   8.328   4.000
11327TIP3    H133858   2.715   8.305   4.089
11327TIP3    H233859   2.758   8.287   3.945
11328TIP3   OH233860   2.882   8.201   3.854
11328TIP3    H133861   2.895   8.118   3.900
11328TIP3    H233862   2.970   8.238   3.848
11329TIP3   OH233863   3.150   8.296   3.856
11329TIP3    H133864   3.176   8.205   3.841
11329TIP3    H233865   3.190   8.319   3.940
11330TIP3   OH233866   3.711   6.946   3.934
11330TIP3    H133867   3.678   6.880   3.995
11330TIP3    H233868   3.789   6.907   3.896
11331TIP3   OH233869   4.246   6.841   3.852
11331TIP3    H133870   4.284   6.884   3.775
11331TIP3    H233871   4.152   6.849   3.840
11332TIP3   OH233872   4.344   6.936   3.613
11332TIP3    H133873   4.412   6.880   3.575
11332TIP3    H233874   4.375   7.025   3.598
11333TIP3   OH233875   2.971   6.658   3.960
11333TIP3    H133876   2.881   6.627   3.963
11333TIP3    H233877   3.024   6.578   3.958
11334TIP3   OH233878   2.745   6.531   3.606
11334TIP3    H133879   2.789   6.579   3.536
11334TIP3    H233880   2.727   6.597   3.673
11335TIP3   OH233881   3.413   6.701   3.841
11335TIP3    H133882   3.475   6.740   3.780
11335TIP3    H233883   3.444   6.728   3.927
11336TIP3   OH233884   3.961   6.838   3.825
11336TIP3    H133885   3.963   6.803   3.736
11336TIP3    H233886   3.949   6.761   3.881
11337TIP3   OH233887   3.991   6.761   3.388
11337TIP3    H133888   3.905   6.801   3.393
11337TIP3    H233889   3.981   6.676   3.432
11338TIP3   OH233890   2.474   8.102   3.387
11338TIP3    H133891   2.392   8.063   3.355
11338TIP3    H233892   2.466   8.195   3.366
11339TIP3   OH233893   2.877   6.684   3.377
11339TIP3    H133894   2.921   6.624   3.316
11339TIP3    H233895   2.948   6.740   3.409
11340TIP3   OH233896   3.388   6.867   3.471
11340TIP3    H133897   3.445   6.813   3.526
11340TIP3    H233898   3.410   6.957   3.495
11341TIP3   OH233899   3.250   8.291   2.966
11341TIP3    H133900   3.337   8.314   2.934
11341TIP3    H233901   3.223   8.217   2.911
11342TIP3   OH233902   3.964   8.406   3.061
11342TIP3    H133903   3.959   8.311   3.050
11342TIP3    H233904   3.923   8.441   2.982
11343TIP3   OH233905   3.182   6.942   4.853
11343TIP3    H133906   3.145   6.872   4.908
11343TIP3    H233907   3.274   6.944   4.877
11344TIP3   OH233908   3.431   6.937   4.970
11344TIP3    H133909   3.514   6.913   4.930
11344TIP3    H233910   3.415   6.871   5.037
11345TIP3   OH233911   2.558   8.131   3.029
11345TIP3    H133912   2.555   8.149   3.123
11345TIP3    H233913   2.643   8.088   3.016
11346TIP3   OH233914   4.256   6.999   4.759
11346TIP3    H133915   4.272   6.968   4.848
11346TIP3    H233916   4.341   6.994   4.716
11347TIP3   OH233917   4.192   8.554   4.248
11347TIP3    H133918   4.115   8.519   4.202
11347TIP3    H233919   4.174   8.648   4.255
11348TIP3   OH233920   5.458   7.930   3.014
11348TIP3    H133921   5.428   8.019   2.996
11348TIP3    H233922   5.387   7.874   2.984
11349TIP3   OH233923   5.459   7.920   3.394
11349TIP3    H133924   5.488   7.898   3.482
11349TIP3    H233925   5.416   7.841   3.362
11350TIP3   OH233926   4.758   7.821   3.766
11350TIP3    H133927   4.788   7.753   3.827
11350TIP3    H233928   4.836   7.875   3.750
11351TIP3   OH233929   5.709   8.280   3.102
11351TIP3    H133930   5.688   8.188   3.089
11351TIP3    H233931   5.705   8.293   3.197
11352TIP3   OH233932   4.730   8.227   3.489
11352TIP3    H133933   4.719   8.132   3.490
11352TIP3    H233934   4.825   8.240   3.484
11353TIP3   OH233935   4.432   7.434   3.273
11353TIP3    H133936   4.386   7.517   3.282
11353TIP3    H233937   4.367   7.375   3.234
11354TIP3   OH233938   4.495   7.718   3.444
11354TIP3    H133939   4.542   7.643   3.481
11354TIP3    H233940   4.552   7.748   3.373
11355TIP3   OH233941   5.353   8.664   3.089
11355TIP3    H133942   5.417   8.594   3.108
11355TIP3    H233943   5.324   8.694   3.176
11356TIP3   OH233944   5.258   8.149   3.442
11356TIP3    H133945   5.292   8.071   3.396
11356TIP3    H233946   5.336   8.195   3.471
11357TIP3   OH233947   6.272   7.477   3.442
11357TIP3    H133948   6.302   7.561   3.477
11357TIP3    H233949   6.293   7.482   3.349
11358TIP3   OH233950   5.671   7.650   3.477
11358TIP3    H133951   5.712   7.566   3.498
11358TIP3    H233952   5.639   7.639   3.387
11359TIP3   OH233953   5.004   7.311   3.441
11359TIP3    H133954   4.987   7.384   3.381
11359TIP3    H233955   4.961   7.236   3.400
11360TIP3   OH233956   5.703   7.404   3.066
11360TIP3    H133957   5.771   7.387   3.131
11360TIP3    H233958   5.750   7.438   2.990
11361TIP3   OH233959   4.643   7.512   3.549
11361TIP3    H133960   4.723   7.494   3.598
11361TIP3    H233961   4.651   7.459   3.470
11362TIP3   OH233962   5.082   7.709   3.344
11362TIP3    H133963   5.174   7.687   3.356
11362TIP3    H233964   5.042   7.628   3.311
11363TIP3   OH233965   6.345   7.692   3.625
11363TIP3    H133966   6.266   7.733   3.589
11363TIP3    H233967   6.316   7.653   3.708
11364TIP3   OH233968   5.002   7.297   3.878
11364TIP3    H133969   4.944   7.331   3.809
11364TIP3    H233970   4.954   7.311   3.959
11365TIP3   OH233971   5.348   8.152   2.893
11365TIP3    H133972   5.320   8.124   2.805
11365TIP3    H233973   5.313   8.241   2.902
11366TIP3   OH233974   5.110   8.072   3.673
11366TIP3    H133975   5.048   8.135   3.711
11366TIP3    H233976   5.154   8.121   3.603
11367TIP3   OH233977   5.911   7.405   3.237
11367TIP3    H133978   5.907   7.349   3.314
11367TIP3    H233979   5.966   7.479   3.264
11368TIP3   OH233980   4.877   7.411   3.660
11368TIP3    H133981   4.937   7.481   3.686
11368TIP3    H233982   4.920   7.368   3.587
11369TIP3   OH233983   4.934   8.266   3.771
11369TIP3    H133984   4.914   8.350   3.730
11369TIP3    H233985   4.859   8.247   3.827
11370TIP3   OH233986   4.332   7.955   3.005
11370TIP3    H133987   4.292   7.977   2.921
11370TIP3    H233988   4.362   8.038   3.041
11371TIP3   OH233989   6.062   7.383   3.612
11371TIP3    H133990   5.974   7.398   3.579
11371TIP3    H233991   6.120   7.405   3.539
11372TIP3   OH233992   5.359   7.013   3.592
11372TIP3    H133993   5.350   6.919   3.607
11372TIP3    H233994   5.284   7.052   3.636
11373TIP3   OH233995   5.990   8.394   3.575
11373TIP3    H133996   5.989   8.311   3.529
11373TIP3    H233997   5.938   8.453   3.521
11374TIP3   OH233998   5.291   7.779   2.845
11374TIP3    H133999   5.211   7.826   2.824
11374TIP3    H234000   5.337   7.771   2.762
11375TIP3   OH234001   5.252   7.559   2.566
11375TIP3    H134002   5.318   7.612   2.611
11375TIP3    H234003   5.303   7.495   2.517
11376TIP3   OH234004   6.195   8.024   3.436
11376TIP3    H134005   6.112   8.072   3.443
11376TIP3    H234006   6.224   8.041   3.346
11377TIP3   OH234007   5.639   7.861   2.821
11377TIP3    H134008   5.583   7.884   2.895
11377TIP3    H234009   5.721   7.832   2.861
11378TIP3   OH234010   5.871   7.903   3.727
11378TIP3    H134011   5.867   7.986   3.775
11378TIP3    H234012   5.786   7.897   3.683
11379TIP3   OH234013   4.870   7.856   3.234
11379TIP3    H134014   4.827   7.801   3.170
11379TIP3    H234015   4.945   7.805   3.264
11380TIP3   OH234016   5.001   8.268   3.383
11380TIP3    H134017   4.978   8.222   3.302
11380TIP3    H234018   5.089   8.236   3.404
11381TIP3   OH234019   5.004   7.830   3.589
11381TIP3    H134020   5.036   7.806   3.502
11381TIP3    H234021   5.048   7.913   3.609
11382TIP3   OH234022   5.139   8.384   3.918
11382TIP3    H134023   5.082   8.447   3.962
11382TIP3    H234024   5.079   8.330   3.866
11383TIP3   OH234025   5.480   7.720   2.643
11383TIP3    H134026   5.537   7.776   2.695
11383TIP3    H234027   5.503   7.740   2.552
11384TIP3   OH234028   4.897   7.944   4.016
11384TIP3    H134029   4.903   8.029   4.060
11384TIP3    H234030   4.804   7.921   4.021
11385TIP3   OH234031   5.247   8.426   2.908
11385TIP3    H134032   5.244   8.490   2.979
11385TIP3    H234033   5.169   8.445   2.855
11386TIP3   OH234034   4.936   8.555   4.000
11386TIP3    H134035   4.904   8.553   3.910
11386TIP3    H234036   4.859   8.533   4.053
11387TIP3   OH234037   5.993   6.960   2.693
11387TIP3    H134038   5.913   6.977   2.743
11387TIP3    H234039   6.007   7.040   2.643
11388TIP3   OH234040   4.732   7.701   3.044
11388TIP3    H134041   4.670   7.745   2.985
11388TIP3    H234042   4.698   7.611   3.051
11389TIP3   OH234043   5.795   8.330   2.247
11389TIP3    H134044   5.801   8.423   2.226
11389TIP3    H234045   5.883   8.296   2.232
11390TIP3   OH234046   4.516   8.081   3.948
11390TIP3    H134047   4.460   8.058   3.875
11390TIP3    H234048   4.556   7.998   3.976
11391TIP3   OH234049   4.373   8.274   3.588
11391TIP3    H134050   4.466   8.266   3.569
11391TIP3    H234051   4.365   8.356   3.637
11392TIP3   OH234052   6.236   8.722   3.636
11392TIP3    H134053   6.235   8.627   3.651
11392TIP3    H234054   6.157   8.754   3.679
11393TIP3   OH234055   5.332   8.517   3.769
11393TIP3    H134056   5.335   8.606   3.802
11393TIP3    H234057   5.267   8.473   3.824
11394TIP3   OH234058   5.100   8.646   2.719
11394TIP3    H134059   5.056   8.625   2.637
11394TIP3    H234060   5.069   8.733   2.742
11395TIP3   OH234061   4.540   8.490   3.107
11395TIP3    H134062   4.588   8.483   3.190
11395TIP3    H234063   4.483   8.414   3.107
11396TIP3   OH234064   5.307   8.543   2.365
11396TIP3    H134065   5.362   8.476   2.325
11396TIP3    H234066   5.342   8.553   2.454
11397TIP3   OH234067   5.353   8.593   2.644
11397TIP3    H134068   5.264   8.614   2.674
11397TIP3    H234069   5.380   8.520   2.700
11398TIP3   OH234070   6.124   7.856   3.900
11398TIP3    H134071   6.040   7.876   3.858
11398TIP3    H234072   6.134   7.761   3.890
11399TIP3   OH234073   4.721   8.266   3.939
11399TIP3    H134074   4.773   8.250   4.018
11399TIP3    H234075   4.648   8.204   3.945
11400TIP3   OH234076   5.118   7.091   3.719
11400TIP3    H134077   5.033   7.057   3.691
11400TIP3    H234078   5.097   7.172   3.765
11401TIP3   OH234079   5.654   7.206   3.916
11401TIP3    H134080   5.722   7.176   3.976
11401TIP3    H234081   5.572   7.184   3.960
11402TIP3   OH234082   5.903   7.642   3.842
11402TIP3    H134083   5.848   7.632   3.920
11402TIP3    H234084   5.869   7.719   3.798
11403TIP3   OH234085   5.557   7.767   2.388
11403TIP3    H134086   5.519   7.740   2.305
11403TIP3    H234087   5.637   7.813   2.364
11404TIP3   OH234088   5.266   7.137   2.692
11404TIP3    H134089   5.235   7.138   2.782
11404TIP3    H234090   5.230   7.057   2.655
11405TIP3   OH234091   5.052   7.608   3.739
11405TIP3    H134092   5.004   7.626   3.820
11405TIP3    H234093   5.038   7.685   3.685
11406TIP3   OH234094   4.935   7.490   3.251
11406TIP3    H134095   4.844   7.466   3.270
11406TIP3    H234096   4.952   7.453   3.165
11407TIP3   OH234097   5.429   7.580   2.979
11407TIP3    H134098   5.375   7.649   2.939
11407TIP3    H234099   5.482   7.547   2.907
11408TIP3   OH234100   5.603   7.856   4.070
11408TIP3    H134101   5.577   7.784   4.128
11408TIP3    H234102   5.696   7.869   4.089
11409TIP3   OH234103   5.585   7.605   3.215
11409TIP3    H134104   5.524   7.637   3.148
11409TIP3    H234105   5.621   7.524   3.179
11410TIP3   OH234106   4.871   7.634   3.949
11410TIP3    H134107   4.902   7.697   4.015
11410TIP3    H234108   4.861   7.552   3.997
11411TIP3   OH234109   4.922   7.114   2.658
11411TIP3    H134110   4.915   7.109   2.754
11411TIP3    H234111   4.843   7.162   2.631
11412TIP3   OH234112   4.465   7.160   3.529
11412TIP3    H134113   4.542   7.187   3.579
11412TIP3    H234114   4.500   7.124   3.448
11413TIP3   OH234115   4.440   7.141   3.047
11413TIP3    H134116   4.486   7.173   2.970
11413TIP3    H234117   4.377   7.210   3.069
11414TIP3   OH234118   5.603   7.849   3.644
11414TIP3    H134119   5.630   7.781   3.583
11414TIP3    H234120   5.568   7.801   3.719
11415TIP3   OH234121   5.264   7.318   3.317
11415TIP3    H134122   5.182   7.312   3.366
11415TIP3    H234123   5.332   7.311   3.384
11416TIP3   OH234124   4.697   7.367   3.322
11416TIP3    H134125   4.605   7.374   3.296
11416TIP3    H234126   4.723   7.278   3.299
11417TIP3   OH234127   4.969   7.369   3.009
11417TIP3    H134128   5.061   7.380   2.988
11417TIP3    H234129   4.923   7.389   2.927
11418TIP3   OH234130   5.756   7.388   3.520
11418TIP3    H134131   5.720   7.402   3.608
11418TIP3    H234132   5.696   7.327   3.478
11419TIP3   OH234133   4.808   7.401   2.787
11419TIP3    H134134   4.736   7.355   2.743
11419TIP3    H234135   4.861   7.436   2.716
11420TIP3   OH234136   5.926   9.074   3.731
11420TIP3    H134137   5.920   9.098   3.639
11420TIP3    H234138   6.002   9.123   3.763
11421TIP3   OH234139   4.883   8.190   4.159
11421TIP3    H134140   4.964   8.219   4.202
11421TIP3    H234141   4.818   8.187   4.229
11422TIP3   OH234142   5.349   7.642   3.412
11422TIP3    H134143   5.417   7.600   3.360
11422TIP3    H234144   5.355   7.600   3.498
11423TIP3   OH234145   4.872   7.128   3.289
11423TIP3    H134146   4.838   7.051   3.335
11423TIP3    H234147   4.922   7.092   3.216
11424TIP3   OH234148   5.324   7.539   3.702
11424TIP3    H134149   5.235   7.573   3.714
11424TIP3    H234150   5.380   7.598   3.751
11425TIP3   OH234151   5.057   7.930   2.798
11425TIP3    H134152   4.989   7.865   2.785
11425TIP3    H234153   5.043   7.963   2.887
11426TIP3   OH234154   5.962   8.167   3.426
11426TIP3    H134155   5.986   8.212   3.345
11426TIP3    H234156   5.880   8.122   3.405
11427TIP3   OH234157   5.519   7.242   2.660
11427TIP3    H134158   5.425   7.224   2.666
11427TIP3    H234159   5.527   7.335   2.681
11428TIP3   OH234160   5.454   8.244   3.796
11428TIP3    H134161   5.479   8.228   3.887
11428TIP3    H234162   5.430   8.337   3.794
11429TIP3   OH234163   5.589   7.491   2.762
11429TIP3    H134164   5.684   7.495   2.776
11429TIP3    H234165   5.570   7.567   2.708
11430TIP3   OH234166   4.753   7.948   3.471
11430TIP3    H134167   4.789   7.924   3.386
11430TIP3    H234168   4.795   7.889   3.533
11431TIP3   OH234169   5.204   8.082   2.620
11431TIP3    H134170   5.160   8.167   2.625
11431TIP3    H234171   5.153   8.025   2.677
11432TIP3   OH234172   4.632   7.874   4.088
11432TIP3    H134173   4.657   7.861   4.180
11432TIP3    H234174   4.568   7.804   4.071
11433TIP3   OH234175   5.359   7.983   4.104
11433TIP3    H134176   5.298   7.928   4.055
11433TIP3    H234177   5.446   7.952   4.077
11434TIP3   OH234178   5.629   8.480   3.713
11434TIP3    H134179   5.542   8.497   3.678
11434TIP3    H234180   5.640   8.546   3.782
11435TIP3   OH234181   6.029   7.580   2.594
11435TIP3    H134182   5.970   7.530   2.538
11435TIP3    H234183   6.030   7.668   2.557
11436TIP3   OH234184   6.242   8.430   3.675
11436TIP3    H134185   6.147   8.433   3.665
11436TIP3    H234186   6.275   8.405   3.589
11437TIP3   OH234187   5.728   8.384   2.511
11437TIP3    H134188   5.704   8.300   2.552
11437TIP3    H234189   5.745   8.362   2.420
11438TIP3   OH234190   5.730   8.025   3.346
11438TIP3    H134191   5.637   8.008   3.361
11438TIP3    H234192   5.761   7.948   3.299
11439TIP3   OH234193   4.852   8.257   3.094
11439TIP3    H134194   4.850   8.338   3.042
11439TIP3    H234195   4.759   8.235   3.106
11440TIP3   OH234196   4.416   7.561   2.802
11440TIP3    H134197   4.463   7.642   2.819
11440TIP3    H234198   4.340   7.564   2.859
11441TIP3   OH234199   4.993   8.023   3.045
11441TIP3    H134200   4.957   8.111   3.060
11441TIP3    H234201   4.959   7.970   3.116
11442TIP3   OH234202   5.125   8.599   3.565
11442TIP3    H134203   5.164   8.668   3.511
11442TIP3    H234204   5.199   8.563   3.614
11443TIP3   OH234205   4.775   8.496   2.953
11443TIP3    H134206   4.689   8.502   2.995
11443TIP3    H234207   4.808   8.586   2.952
11444TIP3   OH234208   5.505   8.221   3.525
11444TIP3    H134209   5.497   8.225   3.620
11444TIP3    H234210   5.595   8.193   3.509
11445TIP3   OH234211   5.484   8.127   2.408
11445TIP3    H134212   5.539   8.102   2.482
11445TIP3    H234213   5.396   8.097   2.432
11446TIP3   OH234214   5.824   8.604   2.226
11446TIP3    H134215   5.861   8.669   2.166
11446TIP3    H234216   5.746   8.646   2.263
11447TIP3   OH234217   4.845   7.378   4.095
11447TIP3    H134218   4.750   7.381   4.106
11447TIP3    H234219   4.875   7.316   4.162
11448TIP3   OH234220   5.651   8.061   2.618
11448TIP3    H134221   5.633   8.002   2.692
11448TIP3    H234222   5.746   8.054   2.606
11449TIP3   OH234223   4.562   8.462   3.728
11449TIP3    H134224   4.612   8.385   3.753
11449TIP3    H234225   4.593   8.531   3.787
11450TIP3   OH234226   4.853   8.104   2.408
11450TIP3    H134227   4.865   8.016   2.374
11450TIP3    H234228   4.832   8.092   2.501
11451TIP3   OH234229   4.798   8.113   2.682
11451TIP3    H134230   4.869   8.082   2.738
11451TIP3    H234231   4.802   8.208   2.687
11452TIP3   OH234232   4.533   7.808   2.882
11452TIP3    H134233   4.468   7.849   2.939
11452TIP3    H234234   4.549   7.873   2.814
11453TIP3   OH234235   5.682   7.443   3.779
11453TIP3    H134236   5.764   7.475   3.817
11453TIP3    H234237   5.662   7.362   3.827
11454TIP3   OH234238   5.560   7.196   2.939
11454TIP3    H134239   5.546   7.215   2.846
11454TIP3    H234240   5.598   7.276   2.974
11455TIP3   OH234241   5.065   8.316   2.636
11455TIP3    H134242   4.977   8.338   2.666
11455TIP3    H234243   5.079   8.370   2.559
11456TIP3   OH234244   5.253   7.374   3.044
11456TIP3    H134245   5.316   7.443   3.024
11456TIP3    H234246   5.256   7.366   3.139
11457TIP3   OH234247   5.521   7.691   3.850
11457TIP3    H134248   5.540   7.743   3.928
11457TIP3    H234249   5.573   7.612   3.861
11458TIP3   OH234250   5.397   7.103   3.144
11458TIP3    H134251   5.389   7.178   3.204
11458TIP3    H234252   5.455   7.134   3.075
11459TIP3   OH234253   4.807   8.386   2.695
11459TIP3    H134254   4.778   8.451   2.631
11459TIP3    H234255   4.790   8.428   2.780
11460TIP3   OH234256   4.908   7.099   2.935
11460TIP3    H134257   4.904   7.188   2.970
11460TIP3    H234258   5.001   7.076   2.940
11461TIP3   OH234259   6.163   7.585   3.811
11461TIP3    H134260   6.071   7.597   3.837
11461TIP3    H234261   6.160   7.521   3.741
11462TIP3   OH234262   5.812   7.784   3.219
11462TIP3    H134263   5.736   7.727   3.229
11462TIP3    H234264   5.882   7.738   3.264
11463TIP3   OH234265   4.527   8.015   2.686
11463TIP3    H134266   4.588   8.088   2.696
11463TIP3    H234267   4.567   7.958   2.621
11464TIP3   OH234268   4.467   7.291   2.824
11464TIP3    H134269   4.467   7.387   2.817
11464TIP3    H234270   4.391   7.263   2.773
11465TIP3   OH234271   4.854   7.009   3.695
11465TIP3    H134272   4.825   6.977   3.610
11465TIP3    H234273   4.846   6.933   3.753
11466TIP3   OH234274   4.396   8.232   3.077
11466TIP3    H134275   4.321   8.260   3.130
11466TIP3    H234276   4.378   8.267   2.990
11467TIP3   OH234277   4.553   8.768   4.149
11467TIP3    H134278   4.637   8.770   4.194
11467TIP3    H234279   4.530   8.675   4.145
11468TIP3   OH234280   5.035   8.735   4.190
11468TIP3    H134281   5.128   8.718   4.200
11468TIP3    H234282   5.008   8.678   4.117
11469TIP3   OH234283   5.019   8.307   2.326
11469TIP3    H134284   4.961   8.238   2.357
11469TIP3    H234285   5.091   8.260   2.284
11470TIP3   OH234286   5.673   8.647   3.930
11470TIP3    H134287   5.663   8.576   3.993
11470TIP3    H234288   5.748   8.697   3.961
11471TIP3   OH234289   5.454   8.353   2.231
11471TIP3    H134290   5.495   8.287   2.286
11471TIP3    H234291   5.504   8.352   2.150
11472TIP3   OH234292   4.681   8.174   4.347
11472TIP3    H134293   4.701   8.081   4.353
11472TIP3    H234294   4.596   8.179   4.304
11473TIP3   OH234295   4.662   7.828   2.540
11473TIP3    H134296   4.713   7.792   2.612
11473TIP3    H234297   4.724   7.834   2.467
11474TIP3   OH234298   5.291   8.260   4.120
11474TIP3    H134299   5.250   8.278   4.035
11474TIP3    H234300   5.320   8.169   4.113
11475TIP3   OH234301   5.170   8.023   2.350
11475TIP3    H134302   5.172   8.038   2.444
11475TIP3    H234303   5.171   7.928   2.341
11476TIP3   OH234304   5.789   8.264   3.725
11476TIP3    H134305   5.859   8.311   3.679
11476TIP3    H234306   5.715   8.325   3.726
11477TIP3   OH234307   4.803   7.910   4.330
11477TIP3    H134308   4.875   7.852   4.307
11477TIP3    H234309   4.825   7.943   4.417
11478TIP3   OH234310   4.871   7.728   2.765
11478TIP3    H134311   4.843   7.685   2.845
11478TIP3    H234312   4.906   7.657   2.711
11479TIP3   OH234313   5.136   7.796   3.989
11479TIP3    H134314   5.060   7.854   3.994
11479TIP3    H234315   5.185   7.826   3.913
11480TIP3   OH234316   4.969   7.525   2.602
11480TIP3    H134317   4.941   7.526   2.510
11480TIP3    H234318   5.065   7.529   2.597
11481TIP3   OH234319   5.655   8.196   4.127
11481TIP3    H134320   5.730   8.170   4.074
11481TIP3    H234321   5.649   8.130   4.196
11482TIP3   OH234322   5.790   7.858   2.263
11482TIP3    H134323   5.772   7.807   2.184
11482TIP3    H234324   5.760   7.946   2.243
11483TIP3   OH234325   5.260   7.583   4.116
11483TIP3    H134326   5.260   7.503   4.063
11483TIP3    H234327   5.217   7.648   4.060
11484TIP3   OH234328   5.261   7.371   3.923
11484TIP3    H134329   5.290   7.410   3.841
11484TIP3    H234330   5.170   7.346   3.907
11485TIP3   OH234331   5.291   7.906   3.796
11485TIP3    H134332   5.375   7.914   3.750
11485TIP3    H234333   5.235   7.972   3.755
11486TIP3   OH234334   5.872   7.872   4.179
11486TIP3    H134335   5.916   7.788   4.189
11486TIP3    H234336   5.939   7.929   4.141
11487TIP3   OH234337   5.916   8.129   3.916
11487TIP3    H134338   5.855   8.175   3.859
11487TIP3    H234339   6.002   8.143   3.876
11488TIP3   OH234340   5.136   7.695   4.345
11488TIP3    H134341   5.069   7.628   4.362
11488TIP3    H234342   5.172   7.671   4.260
11489TIP3   OH234343   5.393   7.134   3.989
11489TIP3    H134344   5.346   7.215   3.968
11489TIP3    H234345   5.328   7.065   3.979
11490TIP3   OH234346   5.517   7.638   4.209
11490TIP3    H134347   5.510   7.626   4.303
11490TIP3    H234348   5.432   7.613   4.174
11491TIP3   OH234349   5.761   7.588   4.065
11491TIP3    H134350   5.684   7.588   4.122
11491TIP3    H234351   5.832   7.553   4.120
11492TIP3   OH234352   6.000   7.528   4.214
11492TIP3    H134353   6.007   7.434   4.229
11492TIP3    H234354   5.989   7.566   4.301
11493TIP3   OH234355   4.979   7.474   4.401
11493TIP3    H134356   4.981   7.386   4.364
11493TIP3    H234357   5.014   7.465   4.489
11494TIP3   OH234358   5.491   7.142   4.246
11494TIP3    H134359   5.557   7.074   4.244
11494TIP3    H234360   5.449   7.138   4.160
11495TIP3   OH234361   5.555   7.359   4.405
11495TIP3    H134362   5.535   7.288   4.344
11495TIP3    H234363   5.479   7.417   4.400
11496TIP3   OH234364   4.777   8.587   2.506
11496TIP3    H134365   4.871   8.583   2.489
11496TIP3    H234366   4.741   8.633   2.431
11497TIP3   OH234367   4.258   7.966   2.726
11497TIP3    H134368   4.349   7.990   2.711
11497TIP3    H234369   4.248   7.880   2.685
11498TIP3   OH234370   4.167   8.579   3.139
11498TIP3    H134371   4.102   8.519   3.101
11498TIP3    H234372   4.213   8.525   3.203
11499TIP3   OH234373   4.305   8.435   3.326
11499TIP3    H134374   4.294   8.357   3.382
11499TIP3    H234375   4.358   8.495   3.379
11500TIP3   OH234376   6.057   8.812   3.120
11500TIP3    H134377   6.036   8.854   3.204
11500TIP3    H234378   6.083   8.883   3.063
11501TIP3   OH234379   6.060   8.860   3.410
11501TIP3    H134380   6.001   8.788   3.389
11501TIP3    H234381   6.132   8.819   3.459
11502TIP3   OH234382   6.110   8.530   3.981
11502TIP3    H134383   6.037   8.536   4.042
11502TIP3    H234384   6.151   8.616   3.984
11503TIP3   OH234385   5.928   8.044   2.602
11503TIP3    H134386   5.995   8.106   2.570
11503TIP3    H234387   5.969   8.003   2.678
11504TIP3   OH234388   6.053   7.912   2.806
11504TIP3    H134389   5.988   7.867   2.860
11504TIP3    H234390   6.116   7.947   2.868
11505TIP3   OH234391   6.104   8.301   3.230
11505TIP3    H134392   6.157   8.236   3.186
11505TIP3    H234393   6.106   8.377   3.172
11506TIP3   OH234394   5.988   7.821   2.450
11506TIP3    H134395   5.921   7.818   2.381
11506TIP3    H234396   5.963   7.895   2.505
11507TIP3   OH234397   5.861   7.490   2.404
11507TIP3    H134398   5.821   7.530   2.326
11507TIP3    H234399   5.837   7.398   2.398
11508TIP3   OH234400   5.868   7.765   2.951
11508TIP3    H134401   5.874   7.670   2.940
11508TIP3    H234402   5.854   7.777   3.045
11509TIP3   OH234403   4.495   7.842   3.694
11509TIP3    H134404   4.491   7.810   3.604
11509TIP3    H234405   4.589   7.843   3.715
11510TIP3   OH234406   6.163   8.186   3.805
11510TIP3    H134407   6.237   8.126   3.798
11510TIP3    H234408   6.185   8.258   3.745
11511TIP3   OH234409   6.359   7.977   3.859
11511TIP3    H134410   6.272   7.941   3.875
11511TIP3    H234411   6.395   7.923   3.788
11512TIP3   OH234412   5.805   7.226   2.395
11512TIP3    H134413   5.879   7.192   2.446
11512TIP3    H234414   5.733   7.167   2.414
11513TIP3   OH234415   5.866   7.481   2.844
11513TIP3    H134416   5.902   7.394   2.862
11513TIP3    H234417   5.921   7.515   2.773
11514TIP3   OH234418   6.028   7.660   3.341
11514TIP3    H134419   6.111   7.683   3.299
11514TIP3    H234420   6.037   7.691   3.431
11515TIP3   OH234421   6.095   7.804   3.573
11515TIP3    H134422   6.016   7.832   3.619
11515TIP3    H234423   6.124   7.881   3.525
11516TIP3   OH234424   4.713   7.527   4.374
11516TIP3    H134425   4.808   7.522   4.373
11516TIP3    H234426   4.685   7.444   4.412
11517TIP3   OH234427   6.544   7.390   4.126
11517TIP3    H134428   6.603   7.324   4.089
11517TIP3    H234429   6.520   7.445   4.051
11518TIP3   OH234430   5.971   7.230   2.885
11518TIP3    H134431   6.020   7.216   2.965
11518TIP3    H234432   5.911   7.156   2.880
11519TIP3   OH234433   4.674   7.219   3.706
11519TIP3    H134434   4.730   7.143   3.713
11519TIP3    H234435   4.734   7.293   3.696
11520TIP3   OH234436   4.472   7.496   3.770
11520TIP3    H134437   4.521   7.481   3.689
11520TIP3    H234438   4.509   7.575   3.807
11521TIP3   OH234439   6.414   7.534   3.934
11521TIP3    H134440   6.327   7.573   3.943
11521TIP3    H234441   6.402   7.461   3.873
11522TIP3   OH234442   6.056   7.167   2.514
11522TIP3    H134443   6.091   7.095   2.462
11522TIP3    H234444   6.121   7.237   2.505
11523TIP3   OH234445   4.457   7.005   3.281
11523TIP3    H134446   4.364   6.994   3.301
11523TIP3    H234447   4.458   7.056   3.200
11524TIP3   OH234448   4.677   7.082   4.092
11524TIP3    H134449   4.628   7.070   4.174
11524TIP3    H234450   4.611   7.113   4.029
11525TIP3   OH234451   4.716   8.504   4.169
11525TIP3    H134452   4.627   8.475   4.149
11525TIP3    H234453   4.729   8.483   4.261
11526TIP3   OH234454   4.897   8.538   3.712
11526TIP3    H134455   4.847   8.611   3.675
11526TIP3    H234456   4.984   8.546   3.672
11527TIP3   OH234457   5.342   8.782   3.857
11527TIP3    H134458   5.383   8.781   3.944
11527TIP3    H234459   5.404   8.830   3.802
11528TIP3   OH234460   5.517   8.929   3.707
11528TIP3    H134461   5.580   8.890   3.645
11528TIP3    H234462   5.571   8.982   3.766
11529TIP3   OH234463   6.313   7.288   3.810
11529TIP3    H134464   6.223   7.279   3.780
11529TIP3    H234465   6.350   7.200   3.802
11530TIP3   OH234466   4.570   8.793   3.738
11530TIP3    H134467   4.484   8.828   3.713
11530TIP3    H234468   4.583   8.823   3.828
11531TIP3   OH234469   4.807   8.771   3.594
11531TIP3    H134470   4.723   8.784   3.639
11531TIP3    H234471   4.792   8.804   3.506
11532TIP3   OH234472   5.226   8.796   3.387
11532TIP3    H134473   5.156   8.831   3.331
11532TIP3    H234474   5.264   8.873   3.429
11533TIP3   OH234475   5.745   8.951   3.365
11533TIP3    H134476   5.703   9.014   3.307
11533TIP3    H234477   5.727   8.865   3.325
11534TIP3   OH234478   4.486   8.583   3.485
11534TIP3    H134479   4.510   8.562   3.575
11534TIP3    H234480   4.554   8.544   3.431
11535TIP3   OH234481   4.679   8.457   3.341
11535TIP3    H134482   4.693   8.375   3.388
11535TIP3    H234483   4.767   8.495   3.334
11536TIP3   OH234484   4.946   8.550   3.345
11536TIP3    H134485   4.973   8.459   3.333
11536TIP3    H234486   4.989   8.578   3.425
11537TIP3   OH234487   5.520   7.207   3.431
11537TIP3    H134488   5.476   7.140   3.483
11537TIP3    H234489   5.589   7.161   3.384
11538TIP3   OH234490   6.042   7.098   3.339
11538TIP3    H134491   6.079   7.142   3.262
11538TIP3    H234492   5.948   7.105   3.327
11539TIP3   OH234493   6.140   7.192   3.099
11539TIP3    H134494   6.209   7.137   3.061
11539TIP3    H234495   6.171   7.282   3.085
11540TIP3   OH234496   4.767   6.915   3.448
11540TIP3    H134497   4.676   6.886   3.448
11540TIP3    H234498   4.818   6.834   3.444
11541TIP3   OH234499   4.556   6.788   3.094
11541TIP3    H134500   4.586   6.842   3.021
11541TIP3    H234501   4.527   6.851   3.160
11542TIP3   OH234502   5.212   6.953   3.327
11542TIP3    H134503   5.270   6.999   3.267
11542TIP3    H234504   5.235   6.986   3.413
11543TIP3   OH234505   5.762   7.093   3.310
11543TIP3    H134506   5.757   7.058   3.221
11543TIP3    H234507   5.747   7.017   3.366
11544TIP3   OH234508   5.787   7.017   2.874
11544TIP3    H134509   5.702   7.059   2.881
11544TIP3    H234510   5.776   6.933   2.919
11545TIP3   OH234511   4.269   8.359   2.876
11545TIP3    H134512   4.187   8.322   2.842
11545TIP3    H234513   4.262   8.453   2.856
11546TIP3   OH234514   4.673   6.947   2.858
11546TIP3    H134515   4.718   6.883   2.802
11546TIP3    H234516   4.744   7.000   2.894
11547TIP3   OH234517   5.185   7.124   2.959
11547TIP3    H134518   5.242   7.071   3.015
11547TIP3    H234519   5.207   7.214   2.981
11548TIP3   OH234520   5.046   8.548   2.451
11548TIP3    H134521   5.132   8.573   2.419
11548TIP3    H234522   5.020   8.474   2.397
11549TIP3   OH234523   5.771   8.659   2.545
11549TIP3    H134524   5.754   8.565   2.542
11549TIP3    H234525   5.718   8.695   2.474
11550TIP3   OH234526   4.977   7.200   4.342
11550TIP3    H134527   4.941   7.128   4.394
11550TIP3    H234528   5.070   7.201   4.364
11551TIP3   OH234529   5.227   7.195   4.458
11551TIP3    H134530   5.310   7.169   4.416
11551TIP3    H234531   5.212   7.128   4.524
11552TIP3   OH234532   4.350   8.383   2.514
11552TIP3    H134533   4.351   8.410   2.605
11552TIP3    H234534   4.436   8.341   2.501
11553TIP3   OH234535   6.052   7.256   4.246
11553TIP3    H134536   6.067   7.224   4.335
11553TIP3    H234537   6.137   7.250   4.203
11554TIP3   OH234538   5.994   8.808   3.736
11554TIP3    H134539   5.915   8.764   3.702
11554TIP3    H234540   5.971   8.901   3.734
11555TIP3   OH234541   7.253   8.178   2.505
11555TIP3    H134542   7.226   8.269   2.490
11555TIP3    H234543   7.181   8.125   2.469
11556TIP3   OH234544   7.249   8.174   2.891
11556TIP3    H134545   7.289   8.125   2.964
11556TIP3    H234546   7.210   8.106   2.836
11557TIP3   OH234547   6.555   8.080   3.254
11557TIP3    H134548   6.582   8.010   3.313
11557TIP3    H234549   6.636   8.126   3.233
11558TIP3   OH234550   7.496   8.482   2.568
11558TIP3    H134551   7.489   8.411   2.632
11558TIP3    H234552   7.527   8.557   2.619
11559TIP3   OH234553   6.526   8.482   2.972
11559TIP3    H134554   6.509   8.388   2.968
11559TIP3    H234555   6.616   8.489   3.005
11560TIP3   OH234556   6.229   7.693   2.760
11560TIP3    H134557   6.180   7.775   2.772
11560TIP3    H234558   6.165   7.633   2.723
11561TIP3   OH234559   6.295   7.977   2.932
11561TIP3    H134560   6.339   7.900   2.968
11561TIP3    H234561   6.344   7.998   2.853
11562TIP3   OH234562   7.117   8.920   2.581
11562TIP3    H134563   7.166   8.861   2.523
11562TIP3    H234564   7.160   8.912   2.666
11563TIP3   OH234565   7.059   8.410   2.929
11563TIP3    H134566   7.091   8.327   2.893
11563TIP3    H234567   7.139   8.456   2.955
11564TIP3   OH234568   8.068   7.730   2.929
11564TIP3    H134569   8.095   7.810   2.974
11564TIP3    H234570   8.086   7.747   2.836
11565TIP3   OH234571   7.461   7.914   2.955
11565TIP3    H134572   7.504   7.837   2.991
11565TIP3    H234573   7.433   7.888   2.867
11566TIP3   OH234574   6.799   7.568   2.927
11566TIP3    H134575   6.783   7.641   2.868
11566TIP3    H234576   6.756   7.493   2.886
11567TIP3   OH234577   7.501   7.658   2.552
11567TIP3    H134578   7.567   7.641   2.619
11567TIP3    H234579   7.550   7.694   2.478
11568TIP3   OH234580   6.439   7.768   3.036
11568TIP3    H134581   6.520   7.749   3.085
11568TIP3    H234582   6.446   7.715   2.957
11569TIP3   OH234583   6.878   7.966   2.831
11569TIP3    H134584   6.970   7.943   2.844
11569TIP3    H234585   6.838   7.885   2.799
11570TIP3   OH234586   8.137   7.938   3.100
11570TIP3    H134587   8.055   7.982   3.077
11570TIP3    H234588   8.148   7.955   3.194
11571TIP3   OH234589   6.798   7.554   3.365
11571TIP3    H134590   6.740   7.588   3.296
11571TIP3    H234591   6.750   7.569   3.446
11572TIP3   OH234592   7.136   8.391   2.374
11572TIP3    H134593   7.108   8.368   2.285
11572TIP3    H234594   7.151   8.485   2.370
11573TIP3   OH234595   6.904   8.329   3.156
11573TIP3    H134596   6.844   8.391   3.197
11573TIP3    H234597   6.955   8.381   3.094
11574TIP3   OH234598   7.709   7.660   2.725
11574TIP3    H134599   7.692   7.615   2.807
11574TIP3    H234600   7.761   7.737   2.750
11575TIP3   OH234601   6.672   7.667   3.147
11575TIP3    H134602   6.732   7.737   3.173
11575TIP3    H234603   6.716   7.623   3.074
11576TIP3   OH234604   6.727   8.523   3.252
11576TIP3    H134605   6.709   8.612   3.222
11576TIP3    H234606   6.654   8.503   3.310
11577TIP3   OH234607   6.130   8.211   2.492
11577TIP3    H134608   6.088   8.232   2.409
11577TIP3    H234609   6.158   8.296   2.527
11578TIP3   OH234610   7.561   8.724   2.735
11578TIP3    H134611   7.475   8.711   2.774
11578TIP3    H234612   7.556   8.808   2.689
11579TIP3   OH234613   7.860   7.630   3.096
11579TIP3    H134614   7.772   7.656   3.068
11579TIP3    H234615   7.917   7.659   3.025
11580TIP3   OH234616   7.155   7.269   3.078
11580TIP3    H134617   7.146   7.175   3.094
11580TIP3    H234618   7.080   7.308   3.123
11581TIP3   OH234619   7.270   8.775   2.402
11581TIP3    H134620   7.314   8.691   2.386
11581TIP3    H234621   7.328   8.841   2.365
11582TIP3   OH234622   7.398   8.548   2.318
11582TIP3    H134623   7.401   8.470   2.262
11582TIP3    H234624   7.439   8.520   2.399
11583TIP3   OH234625   7.798   8.642   3.074
11583TIP3    H134626   7.784   8.563   3.022
11583TIP3    H234627   7.780   8.714   3.014
11584TIP3   OH234628   7.084   8.035   2.331
11584TIP3    H134629   7.005   8.083   2.307
11584TIP3    H234630   7.133   8.027   2.249
11585TIP3   OH234631   7.047   7.817   2.052
11585TIP3    H134632   7.113   7.868   2.099
11585TIP3    H234633   7.098   7.751   2.005
11586TIP3   OH234634   7.990   8.280   2.920
11586TIP3    H134635   7.908   8.328   2.929
11586TIP3    H234636   8.019   8.299   2.831
11587TIP3   OH234637   7.435   8.116   2.309
11587TIP3    H134638   7.380   8.139   2.384
11587TIP3    H234639   7.518   8.089   2.348
11588TIP3   OH234640   6.670   8.115   2.719
11588TIP3    H134641   6.624   8.059   2.657
11588TIP3    H234642   6.742   8.060   2.751
11589TIP3   OH234643   6.817   8.529   2.845
11589TIP3    H134644   6.779   8.444   2.819
11589TIP3    H234645   6.904   8.507   2.877
11590TIP3   OH234646   6.799   8.086   3.076
11590TIP3    H134647   6.834   8.060   2.991
11590TIP3    H234648   6.845   8.167   3.097
11591TIP3   OH234649   7.320   8.722   2.853
11591TIP3    H134650   7.315   8.800   2.908
11591TIP3    H234651   7.312   8.649   2.915
11592TIP3   OH234652   6.937   8.644   3.399
11592TIP3    H134653   6.880   8.705   3.447
11592TIP3    H234654   6.876   8.588   3.352
11593TIP3   OH234655   7.275   7.975   2.135
11593TIP3    H134656   7.332   8.031   2.188
11593TIP3    H234657   7.299   7.996   2.044
11594TIP3   OH234658   6.693   8.203   3.505
11594TIP3    H134659   6.697   8.289   3.547
11594TIP3    H234660   6.600   8.182   3.503
11595TIP3   OH234661   6.731   8.810   3.487
11595TIP3    H134662   6.698   8.809   3.397
11595TIP3    H234663   6.655   8.788   3.541
11596TIP3   OH234664   7.789   7.217   2.179
11596TIP3    H134665   7.710   7.233   2.230
11596TIP3    H234666   7.803   7.298   2.130
11597TIP3   OH234667   6.527   7.959   2.533
11597TIP3    H134668   6.465   8.001   2.474
11597TIP3    H234669   6.496   7.869   2.540
11598TIP3   OH234670   7.589   8.579   1.724
11598TIP3    H134671   7.586   8.673   1.706
11598TIP3    H234672   7.681   8.555   1.711
11599TIP3   OH234673   6.312   8.341   3.432
11599TIP3    H134674   6.248   8.318   3.364
11599TIP3    H234675   6.349   8.257   3.459
11600TIP3   OH234676   6.161   8.534   3.072
11600TIP3    H134677   6.257   8.538   3.067
11600TIP3    H234678   6.135   8.618   3.109
11601TIP3   OH234679   8.025   8.980   3.119
11601TIP3    H134680   8.029   8.886   3.131
11601TIP3    H234681   7.945   9.007   3.164
11602TIP3   OH234682   7.134   8.776   3.256
11602TIP3    H134683   7.135   8.866   3.289
11602TIP3    H234684   7.068   8.732   3.309
11603TIP3   OH234685   6.887   8.899   2.214
11603TIP3    H134686   6.854   8.879   2.126
11603TIP3    H234687   6.865   8.992   2.227
11604TIP3   OH234688   6.330   8.749   2.597
11604TIP3    H134689   6.384   8.736   2.675
11604TIP3    H234690   6.277   8.670   2.591
11605TIP3   OH234691   7.102   8.799   1.851
11605TIP3    H134692   7.158   8.732   1.813
11605TIP3    H234693   7.134   8.808   1.941
11606TIP3   OH234694   7.144   8.848   2.127
11606TIP3    H134695   7.058   8.853   2.168
11606TIP3    H234696   7.202   8.816   2.196
11607TIP3   OH234697   7.923   8.118   3.394
11607TIP3    H134698   7.831   8.136   3.377
11607TIP3    H234699   7.932   8.024   3.385
11608TIP3   OH234700   6.519   8.522   3.424
11608TIP3    H134701   6.568   8.507   3.505
11608TIP3    H234702   6.446   8.460   3.430
11609TIP3   OH234703   6.914   7.347   3.205
11609TIP3    H134704   6.828   7.314   3.179
11609TIP3    H234705   6.895   7.429   3.251
11610TIP3   OH234706   7.450   7.459   3.401
11610TIP3    H134707   7.518   7.436   3.465
11610TIP3    H234708   7.368   7.442   3.447
11611TIP3   OH234709   7.689   7.916   3.329
11611TIP3    H134710   7.653   7.879   3.409
11611TIP3    H234711   7.633   7.991   3.310
11612TIP3   OH234712   7.353   8.025   1.883
11612TIP3    H134713   7.314   8.003   1.798
11612TIP3    H234714   7.433   8.073   1.860
11613TIP3   OH234715   7.063   7.394   2.179
11613TIP3    H134716   7.032   7.394   2.270
11613TIP3    H234717   7.026   7.314   2.142
11614TIP3   OH234718   6.844   7.863   3.225
11614TIP3    H134719   6.800   7.885   3.307
11614TIP3    H234720   6.834   7.942   3.171
11615TIP3   OH234721   6.729   7.748   2.737
11615TIP3    H134722   6.640   7.722   2.758
11615TIP3    H234723   6.747   7.710   2.652
11616TIP3   OH234724   7.224   7.836   2.463
11616TIP3    H134725   7.170   7.904   2.424
11616TIP3    H234726   7.278   7.803   2.391
11617TIP3   OH234727   7.377   7.859   2.698
11617TIP3    H134728   7.317   7.890   2.630
11617TIP3    H234729   7.415   7.779   2.663
11618TIP3   OH234730   6.664   7.894   3.438
11618TIP3    H134731   6.714   7.951   3.496
11618TIP3    H234732   6.658   7.811   3.485
11619TIP3   OH234733   6.719   7.371   2.144
11619TIP3    H134734   6.712   7.365   2.240
11619TIP3    H234735   6.640   7.418   2.117
11620TIP3   OH234736   6.262   7.416   3.016
11620TIP3    H134737   6.339   7.442   3.065
11620TIP3    H234738   6.296   7.380   2.934
11621TIP3   OH234739   6.237   7.397   2.534
11621TIP3    H134740   6.282   7.431   2.456
11621TIP3    H234741   6.174   7.466   2.556
11622TIP3   OH234742   7.059   7.573   2.802
11622TIP3    H134743   6.978   7.569   2.854
11622TIP3    H234744   7.129   7.570   2.867
11623TIP3   OH234745   6.493   7.624   2.809
11623TIP3    H134746   6.401   7.631   2.782
11623TIP3    H234747   6.518   7.534   2.786
11624TIP3   OH234748   6.765   7.625   2.496
11624TIP3    H134749   6.858   7.637   2.476
11624TIP3    H234750   6.720   7.646   2.414
11625TIP3   OH234751   7.554   7.644   3.000
11625TIP3    H134752   7.526   7.660   3.090
11625TIP3    H234753   7.487   7.585   2.964
11626TIP3   OH234754   6.604   7.659   2.274
11626TIP3    H134755   6.532   7.611   2.232
11626TIP3    H234756   6.656   7.693   2.201
11627TIP3   OH234757   1.184   0.094   3.220
11627TIP3    H134758   1.183   0.113   3.126
11627TIP3    H234759   1.258   0.144   3.254
11628TIP3   OH234760   6.678   8.445   3.647
11628TIP3    H134761   6.760   8.475   3.689
11628TIP3    H234762   6.613   8.449   3.717
11629TIP3   OH234763   7.141   7.894   2.898
11629TIP3    H134764   7.216   7.861   2.848
11629TIP3    H234765   7.153   7.859   2.986
11630TIP3   OH234766   6.667   7.384   2.776
11630TIP3    H134767   6.633   7.308   2.822
11630TIP3    H234768   6.720   7.348   2.704
11631TIP3   OH234769   7.116   7.790   3.187
11631TIP3    H134770   7.030   7.829   3.202
11631TIP3    H234771   7.174   7.841   3.244
11632TIP3   OH234772   6.851   8.188   2.283
11632TIP3    H134773   6.785   8.120   2.271
11632TIP3    H234774   6.839   8.219   2.373
11633TIP3   OH234775   7.759   8.423   2.911
11633TIP3    H134776   7.782   8.471   2.831
11633TIP3    H234777   7.674   8.384   2.891
11634TIP3   OH234778   7.313   7.502   2.140
11634TIP3    H134779   7.220   7.482   2.153
11634TIP3    H234780   7.322   7.592   2.170
11635TIP3   OH234781   7.239   8.499   3.279
11635TIP3    H134782   7.295   8.471   3.351
11635TIP3    H234783   7.221   8.592   3.296
11636TIP3   OH234784   7.386   7.745   2.248
11636TIP3    H134785   7.480   7.749   2.266
11636TIP3    H234786   7.368   7.824   2.197
11637TIP3   OH234787   6.554   8.209   2.957
11637TIP3    H134788   6.586   8.178   2.872
11637TIP3    H234789   6.589   8.147   3.020
11638TIP3   OH234790   7.003   8.339   2.110
11638TIP3    H134791   6.957   8.423   2.113
11638TIP3    H234792   6.949   8.281   2.164
11639TIP3   OH234793   6.424   8.136   3.577
11639TIP3    H134794   6.457   8.112   3.664
11639TIP3    H234795   6.364   8.066   3.554
11640TIP3   OH234796   7.166   8.231   3.589
11640TIP3    H134797   7.105   8.178   3.540
11640TIP3    H234798   7.252   8.211   3.551
11641TIP3   OH234799   7.413   8.768   3.176
11641TIP3    H134800   7.317   8.765   3.186
11641TIP3    H234801   7.443   8.818   3.252
11642TIP3   OH234802   7.825   7.835   2.083
11642TIP3    H134803   7.764   7.788   2.026
11642TIP3    H234804   7.827   7.924   2.047
11643TIP3   OH234805   8.046   8.693   3.162
11643TIP3    H134806   7.950   8.689   3.162
11643TIP3    H234807   8.072   8.663   3.075
11644TIP3   OH234808   7.520   8.650   1.987
11644TIP3    H134809   7.505   8.580   2.051
11644TIP3    H234810   7.537   8.604   1.905
11645TIP3   OH234811   7.522   8.286   2.823
11645TIP3    H134812   7.433   8.261   2.847
11645TIP3    H234813   7.559   8.206   2.785
11646TIP3   OH234814   6.214   7.817   2.290
11646TIP3    H134815   6.260   7.899   2.307
11646TIP3    H234816   6.137   7.820   2.346
11647TIP3   OH234817   6.788   8.281   2.532
11647TIP3    H134818   6.741   8.362   2.553
11647TIP3    H234819   6.761   8.219   2.600
11648TIP3   OH234820   6.922   8.855   3.048
11648TIP3    H134821   6.962   8.930   3.004
11648TIP3    H234822   6.993   8.818   3.101
11649TIP3   OH234823   7.311   8.489   3.013
11649TIP3    H134824   7.294   8.487   3.107
11649TIP3    H234825   7.394   8.443   3.002
11650TIP3   OH234826   7.287   8.374   1.892
11650TIP3    H134827   7.335   8.355   1.973
11650TIP3    H234828   7.196   8.352   1.913
11651TIP3   OH234829   7.554   9.024   3.060
11651TIP3    H134830   7.478   8.967   3.054
11651TIP3    H234831   7.542   9.089   2.991
11652TIP3   OH234832   7.600   8.854   1.701
11652TIP3    H134833   7.647   8.918   1.647
11652TIP3    H234834   7.528   8.904   1.740
11653TIP3   OH234835   6.640   7.637   3.586
11653TIP3    H134836   6.544   7.637   3.593
11653TIP3    H234837   6.669   7.570   3.649
11654TIP3   OH234838   7.445   8.321   2.121
11654TIP3    H134839   7.431   8.251   2.185
11654TIP3    H234840   7.538   8.317   2.101
11655TIP3   OH234841   6.366   8.715   3.210
11655TIP3    H134842   6.414   8.643   3.251
11655TIP3    H234843   6.380   8.790   3.267
11656TIP3   OH234844   6.651   8.361   1.895
11656TIP3    H134845   6.659   8.273   1.859
11656TIP3    H234846   6.626   8.347   1.986
11657TIP3   OH234847   6.594   8.371   2.168
11657TIP3    H134848   6.669   8.337   2.217
11657TIP3    H234849   6.602   8.466   2.176
11658TIP3   OH234850   6.330   8.066   2.368
11658TIP3    H134851   6.264   8.105   2.426
11658TIP3    H234852   6.344   8.131   2.300
11659TIP3   OH234853   7.482   7.693   3.259
11659TIP3    H134854   7.543   7.744   3.312
11659TIP3    H234855   7.463   7.615   3.311
11660TIP3   OH234856   7.357   7.453   2.424
11660TIP3    H134857   7.345   7.474   2.332
11660TIP3    H234858   7.397   7.531   2.462
11661TIP3   OH234859   6.860   8.569   2.125
11661TIP3    H134860   6.774   8.600   2.155
11661TIP3    H234861   6.881   8.626   2.052
11662TIP3   OH234862   7.049   7.630   2.530
11662TIP3    H134863   7.112   7.700   2.511
11662TIP3    H234864   7.051   7.621   2.625
11663TIP3   OH234865   7.288   7.921   3.356
11663TIP3    H134866   7.336   8.002   3.371
11663TIP3    H234867   7.356   7.854   3.344
11664TIP3   OH234868   7.193   7.359   2.631
11664TIP3    H134869   7.189   7.431   2.694
11664TIP3    H234870   7.251   7.392   2.562
11665TIP3   OH234871   6.599   8.651   2.182
11665TIP3    H134872   6.581   8.699   2.102
11665TIP3    H234873   6.554   8.700   2.251
11666TIP3   OH234874   6.705   7.355   2.421
11666TIP3    H134875   6.700   7.444   2.458
11666TIP3    H234876   6.798   7.333   2.427
11667TIP3   OH234877   7.953   7.846   3.313
11667TIP3    H134878   7.859   7.857   3.326
11667TIP3    H234879   7.961   7.801   3.229
11668TIP3   OH234880   7.609   8.040   2.705
11668TIP3    H134881   7.532   7.986   2.721
11668TIP3    H234882   7.680   7.996   2.752
11669TIP3   OH234883   6.322   8.271   2.173
11669TIP3    H134884   6.383   8.344   2.182
11669TIP3    H234885   6.362   8.214   2.108
11670TIP3   OH234886   6.265   7.547   2.309
11670TIP3    H134887   6.263   7.643   2.304
11670TIP3    H234888   6.187   7.519   2.261
11671TIP3   OH234889   7.550   8.989   2.650
11671TIP3    H134890   7.508   9.037   2.579
11671TIP3    H234891   7.643   9.006   2.638
11672TIP3   OH234892   6.649   7.265   3.183
11672TIP3    H134893   6.621   7.234   3.097
11672TIP3    H234894   6.642   7.189   3.240
11673TIP3   OH234895   6.190   8.489   2.564
11673TIP3    H134896   6.114   8.520   2.614
11673TIP3    H234897   6.177   8.522   2.476
11674TIP3   OH234898   6.350   9.025   3.636
11674TIP3    H134899   6.434   9.027   3.681
11674TIP3    H234900   6.328   8.932   3.629
11675TIP3   OH234901   6.831   8.989   3.678
11675TIP3    H134902   6.925   8.975   3.687
11675TIP3    H234903   6.805   8.934   3.605
11676TIP3   OH234904   6.816   8.565   1.814
11676TIP3    H134905   6.758   8.495   1.844
11676TIP3    H234906   6.887   8.518   1.770
11677TIP3   OH234907   7.467   8.897   3.414
11677TIP3    H134908   7.460   8.827   3.479
11677TIP3    H234909   7.544   8.947   3.441
11678TIP3   OH234910   7.250   8.608   1.719
11678TIP3    H134911   7.299   8.549   1.775
11678TIP3    H234912   7.300   8.610   1.637
11679TIP3   OH234913   6.475   8.433   3.833
11679TIP3    H134914   6.491   8.339   3.847
11679TIP3    H234915   6.390   8.437   3.790
11680TIP3   OH234916   6.458   8.086   2.026
11680TIP3    H134917   6.508   8.047   2.097
11680TIP3    H234918   6.520   8.091   1.953
11681TIP3   OH234919   7.083   8.511   3.608
11681TIP3    H134920   7.052   8.530   3.519
11681TIP3    H234921   7.123   8.424   3.601
11682TIP3   OH234922   6.972   8.281   1.838
11682TIP3    H134923   6.969   8.294   1.932
11682TIP3    H234924   6.966   8.186   1.827
11683TIP3   OH234925   7.572   8.528   3.200
11683TIP3    H134926   7.655   8.566   3.173
11683TIP3    H234927   7.509   8.600   3.192
11684TIP3   OH234928   6.609   8.141   3.822
11684TIP3    H134929   6.695   8.125   3.783
11684TIP3    H234930   6.628   8.188   3.904
11685TIP3   OH234931   6.671   7.983   2.254
11685TIP3    H134932   6.638   7.940   2.332
11685TIP3    H234933   6.704   7.912   2.199
11686TIP3   OH234934   6.923   8.048   3.475
11686TIP3    H134935   6.853   8.114   3.479
11686TIP3    H234936   6.981   8.078   3.405
11687TIP3   OH234937   6.765   7.782   2.087
11687TIP3    H134938   6.736   7.782   1.996
11687TIP3    H234939   6.860   7.786   2.082
11688TIP3   OH234940   7.457   8.452   3.610
11688TIP3    H134941   7.515   8.418   3.542
11688TIP3    H234942   7.454   8.384   3.677
11689TIP3   OH234943   7.589   8.109   1.751
11689TIP3    H134944   7.590   8.057   1.671
11689TIP3    H234945   7.550   8.193   1.725
11690TIP3   OH234946   7.047   7.838   3.611
11690TIP3    H134947   7.062   7.760   3.557
11690TIP3    H234948   7.016   7.904   3.548
11691TIP3   OH234949   7.058   7.625   3.410
11691TIP3    H134950   7.089   7.667   3.330
11691TIP3    H234951   6.967   7.604   3.393
11692TIP3   OH234952   7.083   8.159   3.292
11692TIP3    H134953   7.174   8.158   3.262
11692TIP3    H234954   7.041   8.226   3.239
11693TIP3   OH234955   7.706   8.137   3.701
11693TIP3    H134956   7.702   8.050   3.660
11693TIP3    H234957   7.720   8.197   3.629
11694TIP3   OH234958   7.717   8.405   3.420
11694TIP3    H134959   7.645   8.395   3.358
11694TIP3    H234960   7.794   8.418   3.365
11695TIP3   OH234961   6.923   7.954   3.835
11695TIP3    H134962   6.859   7.884   3.847
11695TIP3    H234963   6.964   7.935   3.751
11696TIP3   OH234964   7.189   7.390   3.477
11696TIP3    H134965   7.143   7.472   3.456
11696TIP3    H234966   7.122   7.322   3.466
11697TIP3   OH234967   7.328   7.895   3.692
11697TIP3    H134968   7.310   7.890   3.786
11697TIP3    H234969   7.243   7.879   3.651
11698TIP3   OH234970   7.560   7.821   3.544
11698TIP3    H134971   7.483   7.856   3.589
11698TIP3    H234972   7.623   7.804   3.613
11699TIP3   OH234973   7.800   7.787   3.708
11699TIP3    H134974   7.802   7.692   3.722
11699TIP3    H234975   7.789   7.823   3.796
11700TIP3   OH234976   6.752   7.747   3.916
11700TIP3    H134977   6.744   7.672   3.857
11700TIP3    H234978   6.808   7.715   3.988
11701TIP3   OH234979   7.286   7.397   3.733
11701TIP3    H134980   7.353   7.329   3.730
11701TIP3    H234981   7.245   7.394   3.647
11702TIP3   OH234982   7.348   7.611   3.896
11702TIP3    H134983   7.330   7.543   3.831
11702TIP3    H234984   7.277   7.674   3.884
11703TIP3   OH234985   6.574   8.840   1.990
11703TIP3    H134986   6.668   8.842   1.973
11703TIP3    H234987   6.535   8.886   1.915
11704TIP3   OH234988   6.053   8.222   2.213
11704TIP3    H134989   6.144   8.246   2.198
11704TIP3    H234990   6.043   8.136   2.172
11705TIP3   OH234991   5.963   8.837   2.625
11705TIP3    H134992   5.896   8.779   2.589
11705TIP3    H234993   6.008   8.784   2.691
11706TIP3   OH234994   6.099   8.692   2.817
11706TIP3    H134995   6.101   8.614   2.872
11706TIP3    H234996   6.144   8.759   2.869
11707TIP3   OH234997   7.791   9.093   2.608
11707TIP3    H134998   7.829   9.111   2.693
11707TIP3    H234999   7.847   9.140   2.546
11708TIP3   OH235000   7.863   9.103   2.887
11708TIP3    H135001   7.817   9.018   2.885
11708TIP3    H235002   7.943   9.086   2.937
11709TIP3   OH235003   7.907   8.788   3.467
11709TIP3    H135004   7.832   8.791   3.526
11709TIP3    H235005   7.946   8.875   3.472
11710TIP3   OH235006   7.723   8.300   2.088
11710TIP3    H135007   7.790   8.362   2.058
11710TIP3    H235008   7.761   8.260   2.166
11711TIP3   OH235009   7.847   8.167   2.291
11711TIP3    H135010   7.784   8.124   2.348
11711TIP3    H235011   7.912   8.205   2.350
11712TIP3   OH235012   7.903   8.558   2.717
11712TIP3    H135013   7.955   8.494   2.669
11712TIP3    H235014   7.897   8.634   2.658
11713TIP3   OH235015   7.732   8.858   2.914
11713TIP3    H135016   7.665   8.900   2.968
11713TIP3    H235017   7.683   8.809   2.848
11714TIP3   OH235018   7.786   8.076   1.941
11714TIP3    H135019   7.717   8.076   1.875
11714TIP3    H235020   7.766   8.150   1.998
11715TIP3   OH235021   7.655   7.747   1.892
11715TIP3    H135022   7.617   7.781   1.811
11715TIP3    H235023   7.634   7.654   1.891
11716TIP3   OH235024   7.663   8.021   2.438
11716TIP3    H135025   7.671   7.926   2.430
11716TIP3    H235026   7.649   8.037   2.531
11717TIP3   OH235027   6.291   8.097   3.182
11717TIP3    H135028   6.287   8.067   3.092
11717TIP3    H235029   6.385   8.101   3.201
11718TIP3   OH235030   7.958   8.448   3.288
11718TIP3    H135031   8.027   8.382   3.282
11718TIP3    H235032   7.985   8.516   3.227
11719TIP3   OH235033   8.142   8.251   3.310
11719TIP3    H135034   8.064   8.208   3.346
11719TIP3    H235035   8.213   8.188   3.325
11720TIP3   OH235036   7.600   7.484   1.879
11720TIP3    H135037   7.675   7.451   1.929
11720TIP3    H235038   7.529   7.424   1.901
11721TIP3   OH235039   7.661   7.736   2.329
11721TIP3    H135040   7.697   7.649   2.348
11721TIP3    H235041   7.718   7.771   2.261
11722TIP3   OH235042   7.824   7.915   2.826
11722TIP3    H135043   7.907   7.938   2.784
11722TIP3    H235044   7.832   7.947   2.915
11723TIP3   OH235045   7.889   8.057   3.055
11723TIP3    H135046   7.810   8.081   3.103
11723TIP3    H235047   7.920   8.138   3.016
11724TIP3   OH235048   8.345   7.651   3.613
11724TIP3    H135049   8.400   7.584   3.573
11724TIP3    H235050   8.313   7.703   3.539
11725TIP3   OH235051   7.767   7.487   2.371
11725TIP3    H135052   7.816   7.474   2.452
11725TIP3    H235053   7.707   7.412   2.367
11726TIP3   OH235054   6.470   7.476   3.194
11726TIP3    H135055   6.527   7.399   3.200
11726TIP3    H235056   6.531   7.549   3.182
11727TIP3   OH235057   6.274   7.752   3.263
11727TIP3    H135058   6.317   7.735   3.179
11727TIP3    H235059   6.307   7.838   3.289
11728TIP3   OH235060   8.209   7.787   3.420
11728TIP3    H135061   8.126   7.829   3.442
11728TIP3    H235062   8.185   7.716   3.361
11729TIP3   OH235063   7.850   7.425   1.998
11729TIP3    H135064   7.888   7.352   1.950
11729TIP3    H235065   7.917   7.493   1.994
11730TIP3   OH235066   6.253   7.261   2.767
11730TIP3    H135067   6.160   7.250   2.788
11730TIP3    H235068   6.253   7.313   2.687
11731TIP3   OH235069   7.413   8.958   2.267
11731TIP3    H135070   7.461   8.941   2.186
11731TIP3    H235071   7.468   9.019   2.316
11732TIP3   OH235072   6.474   7.343   3.582
11732TIP3    H135073   6.423   7.325   3.661
11732TIP3    H235074   6.409   7.372   3.518
11733TIP3   OH235075   6.513   8.755   3.653
11733TIP3    H135076   6.423   8.730   3.635
11733TIP3    H235077   6.523   8.745   3.748
11734TIP3   OH235078   6.695   8.792   3.197
11734TIP3    H135079   6.641   8.864   3.163
11734TIP3    H235080   6.781   8.805   3.156
11735TIP3   OH235081   7.141   9.040   3.341
11735TIP3    H135082   7.180   9.038   3.428
11735TIP3    H235083   7.204   9.088   3.287
11736TIP3   OH235084   7.320   9.188   3.198
11736TIP3    H135085   7.389   9.137   3.155
11736TIP3    H235086   7.366   9.245   3.258
11737TIP3   OH235087   8.110   7.549   3.297
11737TIP3    H135088   8.020   7.548   3.264
11737TIP3    H235089   8.140   7.458   3.286
11738TIP3   OH235090   6.369   9.049   3.227
11738TIP3    H135091   6.283   9.080   3.198
11738TIP3    H235092   6.380   9.085   3.315
11739TIP3   OH235093   6.600   9.023   3.076
11739TIP3    H135094   6.520   9.034   3.127
11739TIP3    H235095   6.581   9.066   2.992
11740TIP3   OH235096   7.029   9.061   2.880
11740TIP3    H135097   6.969   9.089   2.811
11740TIP3    H235098   7.048   9.142   2.929
11741TIP3   OH235099   7.299   8.997   2.929
11741TIP3    H135100   7.206   9.015   2.911
11741TIP3    H235101   7.346   9.071   2.892
11742TIP3   OH235102   7.499   9.187   2.843
11742TIP3    H135103   7.496   9.273   2.802
11742TIP3    H235104   7.526   9.128   2.773
11743TIP3   OH235105   6.292   8.848   2.963
11743TIP3    H135106   6.304   8.821   3.055
11743TIP3    H235107   6.357   8.798   2.915
11744TIP3   OH235108   6.478   8.706   2.826
11744TIP3    H135109   6.484   8.623   2.872
11744TIP3    H235110   6.568   8.741   2.828
11745TIP3   OH235111   6.773   8.793   2.783
11745TIP3    H135112   6.786   8.700   2.800
11745TIP3    H235113   6.789   8.835   2.867
11746TIP3   OH235114   7.313   7.462   2.911
11746TIP3    H135115   7.271   7.397   2.968
11746TIP3    H235116   7.387   7.417   2.872
11747TIP3   OH235117   7.839   7.346   2.820
11747TIP3    H135118   7.876   7.397   2.748
11747TIP3    H235119   7.745   7.364   2.817
11748TIP3   OH235120   7.937   7.448   2.584
11748TIP3    H135121   8.007   7.394   2.546
11748TIP3    H235122   7.967   7.538   2.572
11749TIP3   OH235123   6.564   7.171   2.934
11749TIP3    H135124   6.473   7.142   2.935
11749TIP3    H235125   6.615   7.090   2.931
11750TIP3   OH235126   6.352   7.045   2.581
11750TIP3    H135127   6.381   7.099   2.508
11750TIP3    H235128   6.323   7.107   2.647
11751TIP3   OH235129   7.007   7.210   2.814
11751TIP3    H135130   7.065   7.257   2.754
11751TIP3    H235131   7.031   7.242   2.901
11752TIP3   OH235132   7.556   7.350   2.798
11752TIP3    H135133   7.553   7.316   2.709
11752TIP3    H235134   7.542   7.273   2.853
11753TIP3   OH235135   7.583   7.274   2.361
11753TIP3    H135136   7.498   7.317   2.370
11753TIP3    H235137   7.572   7.190   2.406
11754TIP3   OH235138   6.067   8.615   2.360
11754TIP3    H135139   5.984   8.578   2.328
11754TIP3    H235140   6.060   8.709   2.342
11755TIP3   OH235141   6.469   7.203   2.345
11755TIP3    H135142   6.514   7.140   2.288
11755TIP3    H235143   6.540   7.256   2.381
11756TIP3   OH235144   6.982   7.380   2.445
11756TIP3    H135145   7.038   7.328   2.502
11756TIP3    H235146   7.003   7.471   2.468
11757TIP3   OH235147   6.844   8.805   1.942
11757TIP3    H135148   6.930   8.830   1.910
11757TIP3    H235149   6.818   8.731   1.888
11758TIP3   OH235150   7.548   8.914   2.033
11758TIP3    H135151   7.541   8.820   2.021
11758TIP3    H235152   7.511   8.952   1.954
11759TIP3   OH235153   6.769   7.460   3.830
11759TIP3    H135154   6.737   7.385   3.882
11759TIP3    H235155   6.862   7.465   3.851
11760TIP3   OH235156   7.020   7.457   3.948
11760TIP3    H135157   7.102   7.436   3.904
11760TIP3    H235158   7.009   7.387   4.013
11761TIP3   OH235159   6.148   8.641   1.999
11761TIP3    H135160   6.145   8.667   2.092
11761TIP3    H235161   6.233   8.598   1.990
11762TIP3   OH235162   7.847   7.512   3.732
11762TIP3    H135163   7.864   7.481   3.821
11762TIP3    H235164   7.932   7.508   3.689
11763TIP3   OH235165   7.782   9.066   3.225
11763TIP3    H135166   7.707   9.032   3.175
11763TIP3    H235167   7.769   9.161   3.226
11764TIP3   OH235168   8.354   8.326   2.733
11764TIP3    H135169   8.380   8.263   2.799
11764TIP3    H235170   8.415   8.399   2.743
11765TIP3   OH235171   8.305   8.712   2.451
11765TIP3    H135172   8.321   8.618   2.457
11765TIP3    H235173   8.385   8.752   2.485
11766TIP3   OH235174   8.026   7.948   2.246
11766TIP3    H135175   7.980   8.031   2.261
11766TIP3    H235176   7.959   7.890   2.211
11767TIP3   OH235177   8.090   8.233   2.416
11767TIP3    H135178   8.135   8.157   2.452
11767TIP3    H235179   8.146   8.262   2.344
11768TIP3   OH235180   8.592   7.825   2.416
11768TIP3    H135181   8.579   7.898   2.355
11768TIP3    H235182   8.550   7.751   2.374
11769TIP3   OH235183   8.237   8.027   2.522
11769TIP3    H135184   8.315   8.006   2.572
11769TIP3    H235185   8.244   7.973   2.443
11770TIP3   OH235186   8.671   8.234   2.317
11770TIP3    H135187   8.765   8.216   2.307
11770TIP3    H235188   8.628   8.153   2.287
11771TIP3   OH235189   8.592   7.808   2.851
11771TIP3    H135190   8.534   7.842   2.783
11771TIP3    H235191   8.544   7.824   2.932
11772TIP3   OH235192   8.469   7.924   2.635
11772TIP3    H135193   8.530   7.994   2.659
11772TIP3    H235194   8.511   7.881   2.561
11773TIP3   OH235195   7.925   8.463   1.978
11773TIP3    H135196   7.876   8.498   1.904
11773TIP3    H235197   7.948   8.541   2.029
11774TIP3   OH235198   8.945   7.514   2.572
11774TIP3    H135199   8.935   7.420   2.591
11774TIP3    H235200   8.871   7.555   2.616
11775TIP3   OH235201   8.434   8.345   2.221
11775TIP3    H135202   8.402   8.310   2.138
11775TIP3    H235203   8.526   8.317   2.225
11776TIP3   OH235204   8.610   8.355   2.558
11776TIP3    H135205   8.608   8.315   2.471
11776TIP3    H235206   8.592   8.448   2.542
11777TIP3   OH235207   8.485   8.453   2.982
11777TIP3    H135208   8.494   8.535   3.029
11777TIP3    H235209   8.394   8.427   2.994
11778TIP3   OH235210   8.329   8.212   2.000
11778TIP3    H135211   8.262   8.255   1.947
11778TIP3    H235212   8.290   8.128   2.025
11779TIP3   OH235213   8.102   8.588   2.919
11779TIP3    H135214   8.036   8.569   2.853
11779TIP3    H235215   8.137   8.502   2.944
11780TIP3   OH235216   7.968   8.789   2.555
11780TIP3    H135217   8.060   8.778   2.532
11780TIP3    H235218   7.968   8.863   2.616
11781TIP3   OH235219   8.301   8.770   2.917
11781TIP3    H135220   8.352   8.743   2.992
11781TIP3    H235221   8.235   8.701   2.907
11782TIP3   OH235222   8.709   7.602   2.693
11782TIP3    H135223   8.623   7.570   2.668
11782TIP3    H235224   8.693   7.685   2.737
11783TIP3   OH235225   9.247   7.709   2.878
11783TIP3    H135226   9.317   7.696   2.941
11783TIP3    H235227   9.167   7.703   2.929
11784TIP3   OH235228   8.850   7.635   1.670
11784TIP3    H135229   8.814   7.644   1.758
11784TIP3    H235230   8.804   7.560   1.633
11785TIP3   OH235231   8.639   8.127   2.712
11785TIP3    H135232   8.586   8.137   2.791
11785TIP3    H235233   8.620   8.206   2.661
11786TIP3   OH235234   8.529   8.007   2.226
11786TIP3    H135235   8.438   7.982   2.243
11786TIP3    H235236   8.548   7.971   2.140
11787TIP3   OH235237   8.466   8.146   2.925
11787TIP3    H135238   8.483   8.209   2.995
11787TIP3    H235239   8.453   8.063   2.970
11788TIP3   OH235240   8.507   7.622   1.637
11788TIP3    H135241   8.502   7.619   1.733
11788TIP3    H235242   8.429   7.671   1.610
11789TIP3   OH235243   8.058   7.672   2.500
11789TIP3    H135244   8.133   7.701   2.553
11789TIP3    H235245   8.098   7.636   2.421
11790TIP3   OH235246   8.031   7.652   2.020
11790TIP3    H135247   8.079   7.687   1.944
11790TIP3    H235248   7.970   7.722   2.044
11791TIP3   OH235249   8.843   7.833   2.289
11791TIP3    H135250   8.766   7.828   2.346
11791TIP3    H235251   8.917   7.813   2.347
11792TIP3   OH235252   8.291   7.882   2.295
11792TIP3    H135253   8.199   7.889   2.269
11792TIP3    H235254   8.316   7.792   2.273
11793TIP3   OH235255   8.560   7.879   1.985
11793TIP3    H135256   8.652   7.901   1.968
11793TIP3    H235257   8.515   7.900   1.903
11794TIP3   OH235258   8.396   7.903   1.763
11794TIP3    H135259   8.318   7.856   1.731
11794TIP3    H235260   8.430   7.948   1.686
11795TIP3   OH235261   8.467   8.686   3.126
11795TIP3    H135262   8.535   8.750   3.144
11795TIP3    H235263   8.409   8.689   3.202
11796TIP3   OH235264   8.463   7.642   2.262
11796TIP3    H135265   8.431   7.564   2.308
11796TIP3    H235266   8.512   7.608   2.187
11797TIP3   OH235267   8.912   8.032   2.695
11797TIP3    H135268   8.830   8.078   2.681
11797TIP3    H235269   8.979   8.100   2.696
11798TIP3   OH235270   8.354   8.446   2.457
11798TIP3    H135271   8.374   8.412   2.369
11798TIP3    H235272   8.367   8.371   2.515
11799TIP3   OH235273   8.227   8.378   3.058
11799TIP3    H135274   8.243   8.369   3.152
11799TIP3    H235275   8.155   8.317   3.040
11800TIP3   OH235276   8.011   8.076   1.778
11800TIP3    H135277   8.058   8.158   1.793
11800TIP3    H235278   7.938   8.078   1.839
11801TIP3   OH235279   8.435   7.892   3.068
11801TIP3    H135280   8.340   7.896   3.080
11801TIP3    H235281   8.465   7.830   3.135
11802TIP3   OH235282   8.149   8.962   2.773
11802TIP3    H135283   8.170   8.879   2.816
11802TIP3    H235284   8.208   9.025   2.815
11803TIP3   OH235285   8.130   8.322   1.849
11803TIP3    H135286   8.069   8.374   1.902
11803TIP3    H235287   8.195   8.385   1.818
11804TIP3   OH235288   8.845   7.878   2.019
11804TIP3    H135289   8.924   7.929   2.000
11804TIP3    H235290   8.841   7.875   2.115
11805TIP3   OH235291   8.983   7.625   2.128
11805TIP3    H135292   8.954   7.687   2.195
11805TIP3    H235293   9.049   7.673   2.077
11806TIP3   OH235294   8.500   7.612   1.913
11806TIP3    H135295   8.497   7.702   1.945
11806TIP3    H235296   8.592   7.587   1.918
11807TIP3   OH235297   8.064   7.806   1.798
11807TIP3    H135298   8.062   7.901   1.792
11807TIP3    H235299   7.988   7.776   1.748
11808TIP3   OH235300   8.446   7.522   2.669
11808TIP3    H135301   8.417   7.491   2.583
11808TIP3    H235302   8.438   7.446   2.726
11809TIP3   OH235303   7.957   8.717   2.067
11809TIP3    H135304   7.895   8.778   2.105
11809TIP3    H235305   7.975   8.751   1.980
11810TIP3   OH235306   8.119   9.254   3.175
11810TIP3    H135307   8.211   9.260   3.149
11810TIP3    H235308   8.091   9.169   3.142
11811TIP3   OH235309   8.273   8.687   3.323
11811TIP3    H135310   8.291   8.593   3.327
11811TIP3    H235311   8.188   8.693   3.279
11812TIP3   OH235312   8.397   8.426   3.303
11812TIP3    H135313   8.466   8.362   3.283
11812TIP3    H235314   8.419   8.457   3.392
11813TIP3   OH235315   8.441   8.202   1.710
11813TIP3    H135316   8.416   8.181   1.801
11813TIP3    H235317   8.515   8.146   1.692
11814TIP3   OH235318   8.724   8.309   2.960
11814TIP3    H135319   8.649   8.366   2.975
11814TIP3    H235320   8.735   8.308   2.865
11815TIP3   OH235321   8.842   8.093   3.093
11815TIP3    H135322   8.847   8.013   3.041
11815TIP3    H235323   8.808   8.159   3.033
11816TIP3   OH235324   8.849   7.877   2.908
11816TIP3    H135325   8.882   7.921   2.829
11816TIP3    H235326   8.759   7.854   2.886
11817TIP3   OH235327   8.727   8.208   3.319
11817TIP3    H135328   8.661   8.141   3.335
11817TIP3    H235329   8.765   8.185   3.234
11818TIP3   OH235330   8.984   7.645   2.966
11818TIP3    H135331   8.938   7.727   2.946
11818TIP3    H235332   8.917   7.577   2.954
11819TIP3   OH235333   9.082   8.192   3.209
11819TIP3    H135334   9.070   8.149   3.293
11819TIP3    H235335   9.008   8.162   3.156
11820TIP3   OH235336   8.573   7.987   3.375
11820TIP3    H135337   8.576   7.901   3.335
11820TIP3    H235338   8.607   7.974   3.464
11821TIP3   OH235339   9.080   7.652   3.221
11821TIP3    H135340   9.149   7.586   3.218
11821TIP3    H235341   9.042   7.650   3.133
11822TIP3   OH235342   9.136   7.864   3.384
11822TIP3    H135343   9.124   7.796   3.318
11822TIP3    H235344   9.061   7.922   3.374
11823TIP3   OH235345   7.849   8.484   1.686
11823TIP3    H135346   7.941   8.510   1.691
11823TIP3    H235347   7.852   8.394   1.653
11824TIP3   OH235348   7.743   9.089   2.116
11824TIP3    H135349   7.684   9.022   2.081
11824TIP3    H235350   7.804   9.040   2.172
11825TIP3   OH235351   7.891   8.939   2.293
11825TIP3    H135352   7.892   8.870   2.360
11825TIP3    H235353   7.933   9.014   2.334
11826TIP3   OH235354   8.087   8.351   2.667
11826TIP3    H135355   8.081   8.323   2.576
11826TIP3    H235356   8.181   8.352   2.685
11827TIP3   OH235357   8.307   8.039   3.349
11827TIP3    H135358   8.402   8.031   3.347
11827TIP3    H235359   8.277   7.956   3.386
11828TIP3   OH235360   8.266   7.732   2.675
11828TIP3    H135361   8.324   7.656   2.685
11828TIP3    H235362   8.326   7.806   2.669
11829TIP3   OH235363   8.070   8.007   2.748
11829TIP3    H135364   8.116   7.998   2.664
11829TIP3    H235365   8.096   8.093   2.781
11830TIP3   OH235366   8.050   7.511   2.250
11830TIP3    H135367   7.958   7.506   2.276
11830TIP3    H235368   8.049   7.567   2.172
11831TIP3   OH235369   8.268   7.592   3.065
11831TIP3    H135370   8.220   7.584   3.147
11831TIP3    H235371   8.204   7.628   3.003
11832TIP3   OH235372   8.300   9.014   3.190
11832TIP3    H135373   8.230   8.996   3.127
11832TIP3    H235374   8.273   8.969   3.270
11833TIP3   OH235375   9.051   7.718   2.408
11833TIP3    H135376   9.035   7.646   2.468
11833TIP3    H235377   9.138   7.701   2.372
11834TIP3   OH235378   8.360   7.428   2.421
11834TIP3    H135379   8.269   7.399   2.422
11834TIP3    H235380   8.411   7.347   2.417
11835TIP3   OH235381   8.146   7.302   2.067
11835TIP3    H135382   8.178   7.357   1.995
11835TIP3    H235383   8.119   7.364   2.134
11836TIP3   OH235384   8.804   7.463   2.303
11836TIP3    H135385   8.862   7.513   2.244
11836TIP3    H235386   8.823   7.496   2.390
11837TIP3   OH235387   9.424   7.500   2.234
11837TIP3    H135388   9.374   7.576   2.204
11837TIP3    H235389   9.372   7.463   2.306
11838TIP3   OH235390   7.829   8.863   1.854
11838TIP3    H135391   7.755   8.811   1.823
11838TIP3    H235392   7.813   8.951   1.819
11839TIP3   OH235393   8.266   7.460   1.831
11839TIP3    H135394   8.311   7.397   1.775
11839TIP3    H235395   8.336   7.513   1.869
11840TIP3   OH235396   8.773   7.632   1.937
11840TIP3    H135397   8.834   7.585   1.994
11840TIP3    H235398   8.789   7.724   1.955
11841TIP3   OH235399   8.570   7.712   3.314
11841TIP3    H135400   8.534   7.642   3.367
11841TIP3    H235401   8.663   7.714   3.337
11842TIP3   OH235402   8.819   7.708   3.432
11842TIP3    H135403   8.902   7.687   3.389
11842TIP3    H235404   8.807   7.639   3.497
11843TIP3   OH235405   9.588   7.748   3.241
11843TIP3    H135406   9.639   7.751   3.323
11843TIP3    H235407   9.651   7.771   3.173
11844TIP3   OH235408   0.540   8.534   4.619
11844TIP3    H135409   0.498   8.618   4.639
11844TIP3    H235410   0.547   8.532   4.524
11845TIP3   OH235411   0.799   8.437   5.311
11845TIP3    H135412   0.853   8.371   5.266
11845TIP3    H235413   0.761   8.488   5.240
11846TIP3   OH235414   0.663   8.572   5.111
11846TIP3    H135415   0.574   8.606   5.122
11846TIP3    H235416   0.653   8.498   5.051
11847TIP3   OH235417   0.299   8.221   3.691
11847TIP3    H135418   0.335   8.144   3.647
11847TIP3    H235419   0.368   8.287   3.684
11848TIP3   OH235420   0.566   8.335   4.982
11848TIP3    H135421   0.476   8.341   4.951
11848TIP3    H235422   0.589   8.243   4.971
11849TIP3   OH235423   0.380   8.225   4.250
11849TIP3    H135424   0.463   8.184   4.225
11849TIP3    H235425   0.401   8.318   4.259
11850TIP3   OH235426   0.462   8.735   3.931
11850TIP3    H135427   0.451   8.823   3.966
11850TIP3    H235428   0.411   8.679   3.990
11851TIP3   OH235429   2.315   8.774   4.104
11851TIP3    H135430   2.346   8.855   4.143
11851TIP3    H235431   2.333   8.784   4.010
11852TIP3   OH235432   1.716   8.953   4.133
11852TIP3    H135433   1.756   8.870   4.157
11852TIP3    H235434   1.678   8.936   4.046
11853TIP3   OH235435   1.050   8.612   4.104
11853TIP3    H135436   1.035   8.686   4.045
11853TIP3    H235437   1.005   8.538   4.063
11854TIP3   OH235438   1.746   8.700   3.734
11854TIP3    H135439   1.819   8.686   3.795
11854TIP3    H235440   1.788   8.736   3.655
11855TIP3   OH235441   0.675   8.796   4.215
11855TIP3    H135442   0.756   8.793   4.266
11855TIP3    H235443   0.698   8.758   4.131
11856TIP3   OH235444   1.138   9.015   3.997
11856TIP3    H135445   1.223   8.980   4.023
11856TIP3    H235446   1.089   8.939   3.964
11857TIP3   OH235447   2.399   8.979   4.282
11857TIP3    H135448   2.328   9.025   4.237
11857TIP3    H235449   2.370   8.976   4.373
11858TIP3   OH235450   1.047   8.598   4.542
11858TIP3    H135451   0.988   8.628   4.473
11858TIP3    H235452   0.998   8.614   4.623
11859TIP3   OH235453   1.960   8.707   3.899
11859TIP3    H135454   1.952   8.654   3.979
11859TIP3    H235455   2.008   8.785   3.927
11860TIP3   OH235456   0.922   8.707   4.325
11860TIP3    H135457   0.978   8.783   4.342
11860TIP3    H235458   0.963   8.663   4.251
11861TIP3   OH235459   2.107   8.682   4.274
11861TIP3    H135460   2.019   8.699   4.242
11861TIP3    H235461   2.165   8.706   4.202
11862TIP3   OH235462   1.405   8.315   4.256
11862TIP3    H135463   1.393   8.221   4.270
11862TIP3    H235464   1.330   8.355   4.300
11863TIP3   OH235465   1.290   8.843   3.249
11863TIP3    H135466   1.350   8.915   3.266
11863TIP3    H235467   1.335   8.789   3.184
11864TIP3   OH235468   1.945   9.200   4.376
11864TIP3    H135469   1.954   9.285   4.335
11864TIP3    H235470   1.857   9.170   4.351
11865TIP3   OH235471   2.039   8.262   3.358
11865TIP3    H135472   1.958   8.277   3.407
11865TIP3    H235473   2.050   8.341   3.305
11866TIP3   OH235474   2.163   9.152   4.568
11866TIP3    H135475   2.083   9.163   4.516
11866TIP3    H235476   2.186   9.060   4.557
11867TIP3   OH235477   1.165   8.392   4.384
11867TIP3    H135478   1.080   8.358   4.357
11867TIP3    H235479   1.145   8.475   4.427
11868TIP3   OH235480   1.699   8.508   4.579
11868TIP3    H135481   1.766   8.478   4.640
11868TIP3    H235482   1.616   8.487   4.621
11869TIP3   OH235483   1.946   8.930   4.506
11869TIP3    H135484   1.895   8.919   4.587
11869TIP3    H235485   1.906   9.005   4.463
11870TIP3   OH235486   1.312   8.437   3.355
11870TIP3    H135487   1.280   8.439   3.445
11870TIP3    H235488   1.277   8.355   3.320
11871TIP3   OH235489   1.091   8.917   4.390
11871TIP3    H135490   1.036   8.925   4.467
11871TIP3    H235491   1.069   8.994   4.337
11872TIP3   OH235492   0.981   8.790   3.915
11872TIP3    H135493   0.890   8.767   3.932
11872TIP3    H235494   1.000   8.756   3.828
11873TIP3   OH235495   1.482   8.882   3.643
11873TIP3    H135496   1.403   8.928   3.618
11873TIP3    H235497   1.526   8.861   3.561
11874TIP3   OH235498   1.658   9.132   4.722
11874TIP3    H135499   1.649   9.057   4.780
11874TIP3    H235500   1.737   9.177   4.752
11875TIP3   OH235501   1.620   8.895   3.879
11875TIP3    H135502   1.560   8.917   3.808
11875TIP3    H235503   1.666   8.817   3.849
11876TIP3   OH235504   0.929   8.936   4.638
11876TIP3    H135505   0.884   8.982   4.709
11876TIP3    H235506   0.907   8.844   4.651
11877TIP3   OH235507   0.967   8.411   3.323
11877TIP3    H135508   0.963   8.411   3.419
11877TIP3    H235509   0.893   8.466   3.296
11878TIP3   OH235510   0.515   8.463   4.170
11878TIP3    H135511   0.574   8.495   4.239
11878TIP3    H235512   0.572   8.411   4.113
11879TIP3   OH235513   0.483   8.456   3.717
11879TIP3    H135514   0.524   8.471   3.632
11879TIP3    H235515   0.452   8.542   3.744
11880TIP3   OH235516   1.689   9.137   4.329
11880TIP3    H135517   1.694   9.076   4.255
11880TIP3    H235518   1.620   9.101   4.385
11881TIP3   OH235519   1.309   8.609   3.979
11881TIP3    H135520   1.225   8.611   4.026
11881TIP3    H235521   1.374   8.624   4.048
11882TIP3   OH235522   0.740   8.672   3.976
11882TIP3    H135523   0.649   8.668   3.948
11882TIP3    H235524   0.773   8.583   3.962
11883TIP3   OH235525   1.017   8.668   3.673
11883TIP3    H135526   1.108   8.687   3.650
11883TIP3    H235527   0.968   8.691   3.594
11884TIP3   OH235528   1.798   8.690   4.183
11884TIP3    H135529   1.763   8.703   4.272
11884TIP3    H235530   1.738   8.628   4.142
11885TIP3   OH235531   0.843   8.682   3.452
11885TIP3    H135532   0.781   8.648   3.387
11885TIP3    H235533   0.888   8.753   3.407
11886TIP3   OH235534   1.387   8.922   4.068
11886TIP3    H135535   1.468   8.902   4.022
11886TIP3    H235536   1.408   8.907   4.161
11887TIP3   OH235537   0.913   8.432   3.953
11887TIP3    H135538   0.882   8.353   3.997
11887TIP3    H235539   0.963   8.400   3.878
11888TIP3   OH235540   1.366   8.832   4.373
11888TIP3    H135541   1.280   8.872   4.365
11888TIP3    H235542   1.420   8.898   4.414
11889TIP3   OH235543   1.561   8.554   3.324
11889TIP3    H135544   1.467   8.533   3.328
11889TIP3    H235545   1.566   8.648   3.343
11890TIP3   OH235546   1.628   8.809   3.420
11890TIP3    H135547   1.722   8.809   3.434
11890TIP3    H235548   1.614   8.874   3.351
11891TIP3   OH235549   1.404   9.162   4.838
11891TIP3    H135550   1.346   9.196   4.769
11891TIP3    H235551   1.490   9.159   4.797
11892TIP3   OH235552   2.085   8.904   3.214
11892TIP3    H135553   2.032   8.843   3.164
11892TIP3    H235554   2.021   8.957   3.263
11893TIP3   OH235555   0.894   8.676   4.764
11893TIP3    H135556   0.799   8.669   4.771
11893TIP3    H235557   0.928   8.608   4.823
11894TIP3   OH235558   1.724   8.747   4.444
11894TIP3    H135559   1.808   8.775   4.480
11894TIP3    H235560   1.703   8.665   4.490
11895TIP3   OH235561   1.605   8.496   3.600
11895TIP3    H135562   1.590   8.517   3.508
11895TIP3    H235563   1.643   8.576   3.637
11896TIP3   OH235564   1.304   8.673   3.707
11896TIP3    H135565   1.369   8.740   3.687
11896TIP3    H235566   1.304   8.667   3.802
11897TIP3   OH235567   1.554   8.987   4.510
11897TIP3    H135568   1.583   9.037   4.586
11897TIP3    H235569   1.606   8.906   4.513
11898TIP3   OH235570   1.443   8.404   3.809
11898TIP3    H135571   1.426   8.480   3.864
11898TIP3    H235572   1.501   8.437   3.740
11899TIP3   OH235573   0.954   8.400   3.600
11899TIP3    H135574   0.947   8.491   3.628
11899TIP3    H235575   1.047   8.379   3.606
11900TIP3   OH235576   2.208   8.891   4.483
11900TIP3    H135577   2.114   8.893   4.504
11900TIP3    H235578   2.214   8.838   4.404
11901TIP3   OH235579   1.849   9.068   3.859
11901TIP3    H135580   1.777   9.012   3.888
11901TIP3    H235581   1.922   9.045   3.917
11902TIP3   OH235582   0.503   8.593   3.488
11902TIP3    H135583   0.526   8.683   3.467
11902TIP3    H235584   0.436   8.570   3.424
11903TIP3   OH235585   0.904   8.307   4.359
11903TIP3    H135586   0.871   8.281   4.273
11903TIP3    H235587   0.890   8.230   4.414
11904TIP3   OH235588   0.875   9.200   4.964
11904TIP3    H135589   0.902   9.114   4.995
11904TIP3    H235590   0.872   9.254   5.043
11905TIP3   OH235591   1.192   9.042   4.618
11905TIP3    H135592   1.099   9.026   4.636
11905TIP3    H235593   1.198   9.041   4.523
11906TIP3   OH235594   1.010   8.838   3.302
11906TIP3    H135595   0.983   8.785   3.227
11906TIP3    H235596   1.105   8.832   3.302
11907TIP3   OH235597   1.311   8.860   4.790
11907TIP3    H135598   1.313   8.779   4.738
11907TIP3    H235599   1.274   8.925   4.730
11908TIP3   OH235600   1.307   8.665   4.587
11908TIP3    H135601   1.335   8.710   4.508
11908TIP3    H235602   1.215   8.644   4.572
11909TIP3   OH235603   1.921   9.184   4.831
11909TIP3    H135604   1.935   9.096   4.866
11909TIP3    H235605   2.007   9.211   4.799
11910TIP3   OH235606   1.171   9.001   5.007
11910TIP3    H135607   1.114   8.925   5.015
11910TIP3    H235608   1.219   8.987   4.925
11911TIP3   OH235609   1.439   8.433   4.653
11911TIP3    H135610   1.393   8.514   4.631
11911TIP3    H235611   1.373   8.364   4.642
11912TIP3   OH235612   1.573   8.918   4.870
11912TIP3    H135613   1.564   8.917   4.965
11912TIP3    H235614   1.485   8.903   4.836
11913TIP3   OH235615   1.813   8.879   4.733
11913TIP3    H135616   1.731   8.876   4.784
11913TIP3    H235617   1.879   8.843   4.792
11914TIP3   OH235618   2.055   8.832   4.881
11914TIP3    H135619   2.059   8.737   4.896
11914TIP3    H235620   2.036   8.868   4.967
11915TIP3   OH235621   1.029   8.774   5.063
11915TIP3    H135622   1.030   8.687   5.024
11915TIP3    H235623   1.062   8.761   5.152
11916TIP3   OH235624   1.535   8.442   4.910
11916TIP3    H135625   1.602   8.374   4.907
11916TIP3    H235626   1.493   8.439   4.824
11917TIP3   OH235627   1.600   8.658   5.070
11917TIP3    H135628   1.578   8.589   5.008
11917TIP3    H235629   1.525   8.718   5.066
11918TIP3   OH235630   1.912   8.792   3.052
11918TIP3    H135631   1.852   8.828   2.987
11918TIP3    H235632   1.888   8.700   3.059
11919TIP3   OH235633   1.964   9.028   3.617
11919TIP3    H135634   1.940   8.936   3.626
11919TIP3    H235635   1.937   9.069   3.699
11920TIP3   OH235636   5.636   0.085   4.509
11920TIP3    H135637   5.568   0.022   4.530
11920TIP3    H235638   5.717   0.034   4.511
11921TIP3   OH235639   1.847   8.533   3.065
11921TIP3    H135640   1.920   8.491   3.111
11921TIP3    H235641   1.774   8.473   3.077
11922TIP3   OH235642   1.900   8.768   3.514
11922TIP3    H135643   1.935   8.680   3.528
11922TIP3    H235644   1.963   8.810   3.454
11923TIP3   OH235645   2.071   8.956   3.995
11923TIP3    H135646   2.151   8.982   3.949
11923TIP3    H235647   2.083   8.989   4.084
11924TIP3   OH235648   2.148   9.085   4.224
11924TIP3    H135649   2.072   9.112   4.276
11924TIP3    H235650   2.196   9.167   4.209
11925TIP3   OH235651   0.766   8.840   5.055
11925TIP3    H135652   0.860   8.824   5.044
11925TIP3    H235653   0.729   8.754   5.074
11926TIP3   OH235654   2.577   8.682   4.787
11926TIP3    H135655   2.644   8.618   4.762
11926TIP3    H235656   2.574   8.743   4.714
11927TIP3   OH235657   2.020   8.528   3.546
11927TIP3    H135658   2.065   8.515   3.629
11927TIP3    H235659   1.958   8.455   3.541
11928TIP3   OH235660   0.714   8.511   4.353
11928TIP3    H135661   0.778   8.442   4.373
11928TIP3    H235662   0.766   8.592   4.355
11929TIP3   OH235663   0.546   8.797   4.462
11929TIP3    H135664   0.577   8.786   4.373
11929TIP3    H235665   0.518   8.889   4.466
11930TIP3   OH235666   2.450   8.837   4.589
11930TIP3    H135667   2.356   8.856   4.587
11930TIP3    H235668   2.459   8.754   4.542
11931TIP3   OH235669   2.102   8.466   3.177
11931TIP3    H135670   2.130   8.392   3.123
11931TIP3    H235671   2.169   8.532   3.164
11932TIP3   OH235672   0.508   8.287   3.925
11932TIP3    H135673   0.430   8.311   3.975
11932TIP3    H235674   0.510   8.349   3.852
11933TIP3   OH235675   0.740   8.436   4.784
11933TIP3    H135676   0.683   8.390   4.846
11933TIP3    H235677   0.683   8.455   4.709
11934TIP3   OH235678   2.359   8.589   4.475
11934TIP3    H135679   2.269   8.582   4.443
11934TIP3    H235680   2.395   8.501   4.467
11935TIP3   OH235681   1.573   8.511   4.101
11935TIP3    H135682   1.522   8.445   4.147
11935TIP3    H235683   1.635   8.461   4.048
11936TIP3   OH235684   2.089   8.397   4.001
11936TIP3    H135685   2.125   8.444   3.926
11936TIP3    H235686   1.994   8.406   3.992
11937TIP3   OH235687   2.187   8.495   3.763
11937TIP3    H135688   2.256   8.441   3.724
11937TIP3    H235689   2.216   8.585   3.748
11938TIP3   OH235690   0.812   8.216   4.110
11938TIP3    H135691   0.722   8.184   4.110
11938TIP3    H235692   0.866   8.137   4.107
11939TIP3   OH235693   0.600   8.085   3.757
11939TIP3    H135694   0.631   8.139   3.684
11939TIP3    H235695   0.572   8.149   3.823
11940TIP3   OH235696   1.257   8.252   3.991
11940TIP3    H135697   1.314   8.299   3.930
11940TIP3    H235698   1.276   8.290   4.077
11941TIP3   OH235699   1.810   8.394   3.973
11941TIP3    H135700   1.800   8.361   3.884
11941TIP3    H235701   1.793   8.318   4.029
11942TIP3   OH235702   1.832   8.320   3.539
11942TIP3    H135703   1.747   8.363   3.545
11942TIP3    H235704   1.820   8.235   3.582
11943TIP3   OH235705   0.719   8.247   3.525
11943TIP3    H135706   0.765   8.185   3.467
11943TIP3    H235707   0.789   8.303   3.559
11944TIP3   OH235708   1.230   8.425   3.622
11944TIP3    H135709   1.289   8.374   3.678
11944TIP3    H235710   1.249   8.516   3.644
11945TIP3   OH235711   1.025   8.499   5.002
11945TIP3    H135712   0.986   8.432   5.058
11945TIP3    H235713   1.117   8.502   5.029
11946TIP3   OH235714   1.271   8.495   5.123
11946TIP3    H135715   1.354   8.475   5.080
11946TIP3    H235716   1.260   8.425   5.187
11947TIP3   OH235717   2.096   8.559   4.910
11947TIP3    H135718   2.111   8.526   4.998
11947TIP3    H235719   2.181   8.553   4.866
11948TIP3   OH235720   2.271   9.018   3.418
11948TIP3    H135721   2.240   9.085   3.480
11948TIP3    H235722   2.213   8.943   3.433
11949TIP3   OH235723   4.111   9.030   3.591
11949TIP3    H135724   4.142   9.111   3.630
11949TIP3    H235725   4.133   9.038   3.498
11950TIP3   OH235726   3.509   9.210   3.622
11950TIP3    H135727   3.552   9.128   3.646
11950TIP3    H235728   3.473   9.194   3.535
11951TIP3   OH235729   2.846   8.868   3.591
11951TIP3    H135730   2.831   8.942   3.532
11951TIP3    H235731   2.802   8.794   3.549
11952TIP3   OH235732   3.545   8.958   3.217
11952TIP3    H135733   3.614   8.942   3.281
11952TIP3    H235734   3.591   8.994   3.141
11953TIP3   OH235735   2.473   9.052   3.707
11953TIP3    H135736   2.557   9.046   3.752
11953TIP3    H235737   2.490   9.017   3.620
11954TIP3   OH235738   2.933   9.270   3.485
11954TIP3    H135739   3.019   9.236   3.510
11954TIP3    H235740   2.885   9.194   3.451
11955TIP3   OH235741   7.463  -0.006   3.767
11955TIP3    H135742   7.389   0.039   3.728
11955TIP3    H235743   7.442  -0.008   3.861
11956TIP3   OH235744   2.843   8.856   4.029
11956TIP3    H135745   2.784   8.885   3.959
11956TIP3    H235746   2.793   8.870   4.110
11957TIP3   OH235747   3.753   8.964   3.387
11957TIP3    H135748   3.752   8.910   3.466
11957TIP3    H235749   3.805   9.041   3.411
11958TIP3   OH235750   2.718   8.963   3.811
11958TIP3    H135751   2.774   9.038   3.830
11958TIP3    H235752   2.761   8.919   3.737
11959TIP3   OH235753   3.904   8.935   3.761
11959TIP3    H135754   3.816   8.957   3.729
11959TIP3    H235755   3.963   8.962   3.690
11960TIP3   OH235756   3.201   8.571   3.743
11960TIP3    H135757   3.190   8.477   3.758
11960TIP3    H235758   3.126   8.611   3.787
11961TIP3   OH235759   3.082   9.092   2.737
11961TIP3    H135760   3.132   9.162   2.779
11961TIP3    H235761   3.142   9.054   2.673
11962TIP3   OH235762   7.008   0.218   3.862
11962TIP3    H135763   7.014   0.303   3.817
11962TIP3    H235764   6.921   0.185   3.839
11963TIP3   OH235765   3.835   8.519   2.843
11963TIP3    H135766   3.755   8.535   2.893
11963TIP3    H235767   3.848   8.599   2.792
11964TIP3   OH235768   7.254   0.196   4.042
11964TIP3    H135769   7.172   0.194   3.992
11964TIP3    H235770   7.279   0.105   4.050
11965TIP3   OH235771   2.960   8.649   3.869
11965TIP3    H135772   2.874   8.616   3.843
11965TIP3    H235773   2.941   8.731   3.914
11966TIP3   OH235774   3.496   8.765   4.066
11966TIP3    H135775   3.563   8.736   4.127
11966TIP3    H235776   3.413   8.743   4.108
11967TIP3   OH235777   3.742   9.185   3.991
11967TIP3    H135778   3.692   9.176   4.072
11967TIP3    H235779   3.708   9.265   3.951
11968TIP3   OH235780   3.109   8.694   2.842
11968TIP3    H135781   3.076   8.696   2.932
11968TIP3    H235782   3.073   8.613   2.805
11969TIP3   OH235783   2.886   9.171   3.872
11969TIP3    H135784   2.838   9.181   3.954
11969TIP3    H235785   2.869   9.252   3.824
11970TIP3   OH235786   2.778   9.045   3.401
11970TIP3    H135787   2.687   9.022   3.418
11970TIP3    H235788   2.795   9.012   3.313
11971TIP3   OH235789   3.278   9.137   3.131
11971TIP3    H135790   3.200   9.186   3.106
11971TIP3    H235791   3.323   9.120   3.048
11972TIP3   OH235792   6.721   0.158   4.218
11972TIP3    H135793   6.715   0.079   4.271
11972TIP3    H235794   6.808   0.194   4.237
11973TIP3   OH235795   3.416   9.151   3.367
11973TIP3    H135796   3.357   9.172   3.295
11973TIP3    H235797   3.464   9.074   3.337
11974TIP3   OH235798   2.719   9.192   4.124
11974TIP3    H135799   2.685   9.237   4.201
11974TIP3    H235800   2.696   9.100   4.137
11975TIP3   OH235801   2.768   8.670   2.809
11975TIP3    H135802   2.760   8.671   2.905
11975TIP3    H235803   2.686   8.706   2.777
11976TIP3   OH235804   2.306   8.723   3.672
11976TIP3    H135805   2.380   8.746   3.728
11976TIP3    H235806   2.345   8.673   3.600
11977TIP3   OH235807   2.281   8.693   3.196
11977TIP3    H135808   2.352   8.724   3.139
11977TIP3    H235809   2.225   8.770   3.208
11978TIP3   OH235810   6.752   0.155   3.819
11978TIP3    H135811   6.755   0.096   3.744
11978TIP3    H235812   6.680   0.121   3.873
11979TIP3   OH235813   3.105   8.867   3.466
11979TIP3    H135814   3.022   8.869   3.514
11979TIP3    H235815   3.172   8.878   3.533
11980TIP3   OH235816   2.538   8.929   3.467
11980TIP3    H135817   2.446   8.928   3.440
11980TIP3    H235818   2.568   8.839   3.452
11981TIP3   OH235819   2.814   8.925   3.157
11981TIP3    H135820   2.907   8.941   3.143
11981TIP3    H235821   2.771   8.961   3.079
11982TIP3   OH235822   3.593   8.949   3.671
11982TIP3    H135823   3.557   8.960   3.759
11982TIP3    H235824   3.535   8.886   3.629
11983TIP3   OH235825   2.611   8.947   2.934
11983TIP3    H135826   2.582   8.902   2.855
11983TIP3    H235827   2.666   9.019   2.903
11984TIP3   OH235828   3.184   9.180   3.556
11984TIP3    H135829   3.265   9.159   3.509
11984TIP3    H235830   3.205   9.163   3.648
11985TIP3   OH235831   2.709   8.687   3.439
11985TIP3    H135832   2.678   8.609   3.485
11985TIP3    H235833   2.762   8.653   3.367
11986TIP3   OH235834   3.163   9.088   3.860
11986TIP3    H135835   3.077   9.129   3.851
11986TIP3    H235836   3.217   9.155   3.902
11987TIP3   OH235837   3.358   8.808   2.812
11987TIP3    H135838   3.265   8.787   2.818
11987TIP3    H235839   3.362   8.902   2.829
11988TIP3   OH235840   3.430   9.070   2.898
11988TIP3    H135841   3.519   9.052   2.928
11988TIP3    H235842   3.438   9.151   2.847
11989TIP3   OH235843   6.463   0.176   4.326
11989TIP3    H135844   6.412   0.217   4.256
11989TIP3    H235845   6.541   0.142   4.282
11990TIP3   OH235846   3.865   9.129   2.754
11990TIP3    H135847   3.804   9.087   2.692
11990TIP3    H235848   3.879   9.216   2.717
11991TIP3   OH235849   2.680   8.931   4.244
11991TIP3    H135850   2.584   8.931   4.253
11991TIP3    H235851   2.711   8.870   4.311
11992TIP3   OH235852   3.518   9.005   3.933
11992TIP3    H135853   3.604   9.032   3.965
11992TIP3    H235854   3.501   8.923   3.979
11993TIP3   OH235855   3.400   8.753   3.088
11993TIP3    H135856   3.388   8.774   2.996
11993TIP3    H235857   3.441   8.832   3.125
11994TIP3   OH235858   3.096   8.931   3.195
11994TIP3    H135859   3.164   8.996   3.177
11994TIP3    H235860   3.098   8.922   3.290
11995TIP3   OH235861   3.352   9.245   4.001
11995TIP3    H135862   3.385   9.294   4.076
11995TIP3    H235863   3.403   9.164   4.001
11996TIP3   OH235864   3.238   8.661   3.296
11996TIP3    H135865   3.226   8.736   3.354
11996TIP3    H235866   3.296   8.693   3.227
11997TIP3   OH235867   2.750   8.658   3.087
11997TIP3    H135868   2.749   8.749   3.117
11997TIP3    H235869   2.842   8.632   3.092
11998TIP3   OH235870   4.007   9.158   3.973
11998TIP3    H135871   3.913   9.159   3.994
11998TIP3    H235872   4.014   9.103   3.895
11999TIP3   OH235873   6.909   0.089   3.354
11999TIP3    H135874   6.841   0.027   3.380
11999TIP3    H235875   6.985   0.063   3.406
12000TIP3   OH235876   2.276   8.899   2.973
12000TIP3    H135877   2.362   8.911   2.932
12000TIP3    H235878   2.241   8.819   2.933
12001TIP3   OH235879   2.697   8.566   3.845
12001TIP3    H135880   2.668   8.534   3.760
12001TIP3    H235881   2.688   8.490   3.903
12002TIP3   OH235882   5.943   0.198   4.459
12002TIP3    H135883   6.018   0.144   4.485
12002TIP3    H235884   5.936   0.265   4.528
12003TIP3   OH235885   6.255   0.057   4.104
12003TIP3    H135886   6.161   0.057   4.120
12003TIP3    H235887   6.263   0.063   4.009
12004TIP3   OH235888   2.805   9.088   2.798
12004TIP3    H135889   2.775   9.039   2.722
12004TIP3    H235890   2.901   9.087   2.792
12005TIP3   OH235891   3.104   9.117   4.278
12005TIP3    H135892   3.110   9.035   4.228
12005TIP3    H235893   3.066   9.180   4.217
12006TIP3   OH235894   3.104   8.922   4.075
12006TIP3    H135895   3.132   8.968   3.996
12006TIP3    H235896   3.012   8.901   4.059
12007TIP3   OH235897   6.987   0.194   4.327
12007TIP3    H135898   6.999   0.104   4.355
12007TIP3    H235899   7.075   0.225   4.305
12008TIP3   OH235900   2.952   9.263   4.486
12008TIP3    H135901   2.905   9.181   4.499
12008TIP3    H235902   3.011   9.247   4.413
12009TIP3   OH235903   3.235   8.688   4.138
12009TIP3    H135904   3.189   8.770   4.118
12009TIP3    H235905   3.168   8.620   4.129
12010TIP3   OH235906   3.367   9.178   4.357
12010TIP3    H135907   3.364   9.173   4.453
12010TIP3    H235908   3.278   9.157   4.328
12011TIP3   OH235909   3.609   9.142   4.221
12011TIP3    H135910   3.530   9.131   4.274
12011TIP3    H235911   3.679   9.106   4.274
12012TIP3   OH235912   3.842   9.086   4.366
12012TIP3    H135913   3.849   8.992   4.382
12012TIP3    H235914   3.831   9.125   4.453
12013TIP3   OH235915   2.816   9.034   4.553
12013TIP3    H135916   2.823   8.948   4.511
12013TIP3    H235917   2.858   9.023   4.638
12014TIP3   OH235918   3.334   8.703   4.393
12014TIP3    H135919   3.397   8.630   4.395
12014TIP3    H235920   3.292   8.695   4.308
12015TIP3   OH235921   3.398   8.917   4.553
12015TIP3    H135922   3.378   8.846   4.492
12015TIP3    H235923   3.321   8.974   4.551
12016TIP3   OH235924   3.696   9.054   2.551
12016TIP3    H135925   3.680   9.075   2.459
12016TIP3    H235926   3.675   8.960   2.558
12017TIP3   OH235927   7.001   0.064   3.102
12017TIP3    H135928   7.005  -0.032   3.107
12017TIP3    H235929   6.980   0.092   3.191
12018TIP3   OH235930   3.644   8.790   2.550
12018TIP3    H135931   3.721   8.753   2.594
12018TIP3    H235932   3.575   8.726   2.565
12019TIP3   OH235933   3.697   9.028   2.992
12019TIP3    H135934   3.738   8.943   3.008
12019TIP3    H235935   3.754   9.070   2.927
12020TIP3   OH235936   3.867   9.214   3.481
12020TIP3    H135937   3.947   9.240   3.435
12020TIP3    H235938   3.880   9.244   3.571
12021TIP3   OH235939   7.210   0.101   3.711
12021TIP3    H135940   7.136   0.131   3.763
12021TIP3    H235941   7.257   0.181   3.688
12022TIP3   OH235942   2.550   9.087   4.594
12022TIP3    H135943   2.642   9.096   4.570
12022TIP3    H235944   2.525   9.000   4.563
12023TIP3   OH235945   4.381   8.947   4.272
12023TIP3    H135946   4.442   8.882   4.238
12023TIP3    H235947   4.364   9.006   4.199
12024TIP3   OH235948   3.813   8.786   3.035
12024TIP3    H135949   3.862   8.773   3.116
12024TIP3    H235950   3.753   8.712   3.031
12025TIP3   OH235951   2.512   8.771   3.855
12025TIP3    H135952   2.574   8.699   3.863
12025TIP3    H235953   2.567   8.849   3.844
12026TIP3   OH235954   2.318   9.059   3.933
12026TIP3    H135955   2.362   9.044   3.850
12026TIP3    H235956   2.334   9.151   3.952
12027TIP3   OH235957   4.258   9.099   4.076
12027TIP3    H135958   4.167   9.127   4.093
12027TIP3    H235959   4.249   9.021   4.022
12028TIP3   OH235960   3.896   8.726   2.661
12028TIP3    H135961   3.933   8.653   2.612
12028TIP3    H235962   3.963   8.794   2.657
12029TIP3   OH235963   2.297   8.562   3.432
12029TIP3    H135964   2.206   8.545   3.455
12029TIP3    H235965   2.292   8.608   3.348
12030TIP3   OH235966   2.519   8.643   4.245
12030TIP3    H135967   2.467   8.626   4.323
12030TIP3    H235968   2.455   8.674   4.181
12031TIP3   OH235969   4.155   8.849   3.962
12031TIP3    H135970   4.065   8.843   3.929
12031TIP3    H235971   4.190   8.761   3.953
12032TIP3   OH235972   3.365   8.767   3.584
12032TIP3    H135973   3.317   8.700   3.633
12032TIP3    H235974   3.432   8.718   3.535
12033TIP3   OH235975   3.884   8.652   3.490
12033TIP3    H135976   3.922   8.698   3.415
12033TIP3    H235977   3.790   8.663   3.479
12034TIP3   OH235978   3.982   8.748   3.251
12034TIP3    H135979   4.050   8.694   3.211
12034TIP3    H235980   4.011   8.838   3.236
12035TIP3   OH235981   2.608   8.473   3.598
12035TIP3    H135982   2.517   8.443   3.598
12035TIP3    H235983   2.660   8.392   3.594
12036TIP3   OH235984   2.401   8.344   3.249
12036TIP3    H135985   2.427   8.398   3.174
12036TIP3    H235986   2.369   8.407   3.313
12037TIP3   OH235987   3.052   8.510   3.477
12037TIP3    H135988   3.110   8.557   3.417
12037TIP3    H235989   3.074   8.545   3.564
12038TIP3   OH235990   3.604   8.652   3.460
12038TIP3    H135991   3.598   8.618   3.371
12038TIP3    H235992   3.588   8.575   3.515
12039TIP3   OH235993   3.628   8.575   3.025
12039TIP3    H135994   3.542   8.617   3.031
12039TIP3    H235995   3.617   8.491   3.069
12040TIP3   OH235996   2.518   8.511   3.007
12040TIP3    H135997   2.556   8.442   2.953
12040TIP3    H235998   2.593   8.558   3.043
12041TIP3   OH235999   3.027   8.681   3.109
12041TIP3    H136000   3.085   8.630   3.165
12041TIP3    H236001   3.047   8.772   3.131
12042TIP3   OH236002   2.815   8.754   4.498
12042TIP3    H136003   2.784   8.679   4.548
12042TIP3    H236004   2.909   8.759   4.517
12043TIP3   OH236005   3.066   8.750   4.609
12043TIP3    H136006   3.150   8.725   4.570
12043TIP3    H236007   3.053   8.687   4.680
12044TIP3   OH236008   3.893   8.814   4.396
12044TIP3    H136009   3.907   8.783   4.485
12044TIP3    H236010   3.979   8.809   4.354
12045TIP3   OH236011   7.338   0.019   2.910
12045TIP3    H136012   7.298   0.095   2.952
12045TIP3    H236013   7.265  -0.039   2.889
12046TIP3   OH236014   9.179   0.042   3.075
12046TIP3    H136015   9.205   0.119   3.125
12046TIP3    H236016   9.220   0.054   2.989
12047TIP3   OH236017   8.588   0.228   3.123
12047TIP3    H136018   8.624   0.143   3.149
12047TIP3    H236019   8.544   0.212   3.040
12048TIP3   OH236020   4.642   9.125   3.077
12048TIP3    H136021   4.627   9.200   3.019
12048TIP3    H236022   4.597   9.052   3.035
12049TIP3   OH236023   5.343   9.191   2.714
12049TIP3    H136024   5.425   9.198   2.764
12049TIP3    H236025   5.345   9.266   2.655
12050TIP3   OH236026   7.535   0.068   3.198
12050TIP3    H136027   7.622   0.061   3.237
12050TIP3    H236028   7.547   0.038   3.108
12051TIP3   OH236029   7.987   0.282   3.000
12051TIP3    H136030   8.077   0.251   3.007
12051TIP3    H236031   7.943   0.215   2.947
12052TIP3   OH236032   9.252   0.246   3.247
12052TIP3    H136033   9.173   0.294   3.221
12052TIP3    H236034   9.264   0.270   3.339
12053TIP3   OH236035   4.639   9.111   3.516
12053TIP3    H136036   4.582   9.142   3.445
12053TIP3    H236037   4.588   9.128   3.596
12054TIP3   OH236038   5.560   9.222   2.873
12054TIP3    H136039   5.540   9.167   2.949
12054TIP3    H236040   5.605   9.299   2.910
12055TIP3   OH236041   4.514   9.218   3.297
12055TIP3    H136042   4.570   9.293   3.316
12055TIP3    H236043   4.556   9.175   3.222
12056TIP3   OH236044   5.691   9.210   3.247
12056TIP3    H136045   5.603   9.219   3.210
12056TIP3    H236046   5.749   9.225   3.172
12057TIP3   OH236047   4.992   8.830   3.225
12057TIP3    H136048   4.985   8.736   3.243
12057TIP3    H236049   4.917   8.869   3.269
12058TIP3   OH236050   8.148   0.120   2.205
12058TIP3    H136051   8.183   0.175   2.275
12058TIP3    H236052   8.224   0.074   2.170
12059TIP3   OH236053   8.800   0.472   3.355
12059TIP3    H136054   8.816   0.557   3.314
12059TIP3    H236055   8.712   0.448   3.327
12060TIP3   OH236056   5.630   8.775   2.332
12060TIP3    H136057   5.550   8.792   2.382
12060TIP3    H236058   5.644   8.854   2.280
12061TIP3   OH236059   9.024   0.433   3.540
12061TIP3    H136060   8.944   0.431   3.487
12061TIP3    H236061   9.053   0.342   3.544
12062TIP3   OH236062   4.756   8.905   3.357
12062TIP3    H136063   4.670   8.872   3.330
12062TIP3    H236064   4.738   8.988   3.399
12063TIP3   OH236065   5.291   9.018   3.548
12063TIP3    H136066   5.358   8.990   3.611
12063TIP3    H236067   5.208   8.996   3.589
12064TIP3   OH236068   8.800   0.201   3.475
12064TIP3    H136069   8.753   0.194   3.558
12064TIP3    H236070   8.770   0.283   3.437
12065TIP3   OH236071   4.900   8.951   2.328
12065TIP3    H136072   4.871   8.953   2.419
12065TIP3    H236073   4.865   8.869   2.294
12066TIP3   OH236074   7.951   0.184   3.353
12066TIP3    H136075   7.909   0.202   3.437
12066TIP3    H236076   7.938   0.264   3.302
12067TIP3   OH236077   7.841   0.064   2.887
12067TIP3    H136078   7.750   0.039   2.905
12067TIP3    H236079   7.859   0.029   2.800
12068TIP3   OH236080   8.523   0.420   3.703
12068TIP3    H136081   8.518   0.341   3.756
12068TIP3    H236082   8.611   0.454   3.719
12069TIP3   OH236083   8.484   0.154   2.889
12069TIP3    H136084   8.454   0.202   2.812
12069TIP3    H236085   8.516   0.070   2.854
12070TIP3   OH236086   7.765   0.212   3.612
12070TIP3    H136087   7.789   0.234   3.701
12070TIP3    H236088   7.737   0.120   3.616
12071TIP3   OH236089   4.562   8.926   2.297
12071TIP3    H136090   4.559   8.929   2.393
12071TIP3    H236091   4.481   8.969   2.269
12072TIP3   OH236092   4.102   8.971   3.166
12072TIP3    H136093   4.175   9.005   3.217
12072TIP3    H236094   4.142   8.938   3.086
12073TIP3   OH236095   4.077   8.951   2.685
12073TIP3    H136096   4.123   8.985   2.608
12073TIP3    H236097   4.018   9.021   2.710
12074TIP3   OH236098   8.542   0.416   3.306
12074TIP3    H136099   8.553   0.353   3.235
12074TIP3    H236100   8.472   0.379   3.360
12075TIP3   OH236101   4.902   9.119   2.952
12075TIP3    H136102   4.818   9.122   2.998
12075TIP3    H236103   4.966   9.143   3.019
12076TIP3   OH236104   4.334   9.186   2.956
12076TIP3    H136105   4.242   9.192   2.929
12076TIP3    H236106   4.360   9.097   2.934
12077TIP3   OH236107   4.612   9.182   2.647
12077TIP3    H136108   4.701   9.205   2.622
12077TIP3    H236109   4.559   9.205   2.570
12078TIP3   OH236110   5.391   9.203   3.157
12078TIP3    H136111   5.358   9.214   3.246
12078TIP3    H236112   5.328   9.143   3.116
12079TIP3   OH236113   4.428   9.189   2.435
12079TIP3    H136114   4.367   9.157   2.369
12079TIP3    H236115   4.479   9.257   2.390
12080TIP3   OH236116   8.248   0.196   3.039
12080TIP3    H136117   8.329   0.178   2.991
12080TIP3    H236118   8.270   0.178   3.131
12081TIP3   OH236119   4.507   8.945   2.926
12081TIP3    H136120   4.477   8.865   2.969
12081TIP3    H236121   4.554   8.914   2.848
12082TIP3   OH236122   8.227   0.104   3.349
12082TIP3    H136123   8.142   0.145   3.335
12082TIP3    H236124   8.281   0.172   3.390
12083TIP3   OH236125   5.158   9.056   2.301
12083TIP3    H136126   5.062   9.048   2.305
12083TIP3    H236127   5.173   9.150   2.297
12084TIP3   OH236128   8.522   0.077   2.345
12084TIP3    H136129   8.587   0.069   2.415
12084TIP3    H236130   8.465   0.149   2.373
12085TIP3   OH236131   8.257   0.428   3.809
12085TIP3    H136132   8.216   0.485   3.745
12085TIP3    H236133   8.332   0.390   3.763
12086TIP3   OH236134   8.938   0.156   2.235
12086TIP3    H136135   8.880   0.101   2.182
12086TIP3    H236136   8.936   0.241   2.192
12087TIP3   OH236137   4.477   9.189   3.732
12087TIP3    H136138   4.382   9.189   3.741
12087TIP3    H236139   4.507   9.128   3.799
12088TIP3   OH236140   8.581   0.022   3.417
12088TIP3    H136141   8.667   0.051   3.449
12088TIP3    H236142   8.565  -0.060   3.463
12089TIP3   OH236143   5.198   9.005   2.573
12089TIP3    H136144   5.183   9.029   2.482
12089TIP3    H236145   5.239   9.082   2.612
12090TIP3   OH236146   4.900   9.189   2.676
12090TIP3    H136147   4.959   9.260   2.653
12090TIP3    H236148   4.901   9.186   2.771
12091TIP3   OH236149   8.416   0.261   3.490
12091TIP3    H136150   8.453   0.313   3.561
12091TIP3    H236151   8.468   0.181   3.488
12092TIP3   OH236152   5.037   8.919   2.784
12092TIP3    H136153   5.015   8.996   2.836
12092TIP3    H236154   5.094   8.953   2.714
12093TIP3   OH236155   4.547   8.913   2.574
12093TIP3    H136156   4.539   9.005   2.601
12093TIP3    H236157   4.640   8.893   2.580
12094TIP3   OH236158   9.066   0.166   3.463
12094TIP3    H136159   8.972   0.166   3.478
12094TIP3    H236160   9.078   0.113   3.385
12095TIP3   OH236161   8.706   0.343   2.838
12095TIP3    H136162   8.634   0.284   2.860
12095TIP3    H236163   8.777   0.317   2.897
12096TIP3   OH236164   4.098   9.107   2.464
12096TIP3    H136165   4.117   9.200   2.447
12096TIP3    H236166   4.021   9.088   2.409
12097TIP3   OH236167   4.492   8.823   3.333
12097TIP3    H136168   4.463   8.793   3.246
12097TIP3    H236169   4.483   8.746   3.389
12098TIP3   OH236170   7.656   0.417   4.016
12098TIP3    H136171   7.738   0.385   3.978
12098TIP3    H236172   7.677   0.505   4.047
12099TIP3   OH236173   8.043   0.309   3.588
12099TIP3    H136174   7.955   0.344   3.597
12099TIP3    H236175   8.064   0.318   3.496
12100TIP3   OH236176   7.861   0.094   2.281
12100TIP3    H136177   7.835   0.082   2.189
12100TIP3    H236178   7.956   0.106   2.277
12101TIP3   OH236179   8.165   0.135   3.765
12101TIP3    H136180   8.173   0.054   3.714
12101TIP3    H236181   8.127   0.197   3.703
12102TIP3   OH236182   4.899   9.179   3.564
12102TIP3    H136183   4.928   9.225   3.485
12102TIP3    H236184   4.807   9.158   3.546
12103TIP3   OH236185   8.791   0.455   3.814
12103TIP3    H136186   8.807   0.364   3.836
12103TIP3    H236187   8.876   0.490   3.789
12104TIP3   OH236188   8.009   0.286   3.963
12104TIP3    H136189   7.965   0.205   3.985
12104TIP3    H236190   8.071   0.262   3.895
12105TIP3   OH236191   5.032   8.947   3.628
12105TIP3    H136192   4.985   9.028   3.606
12105TIP3    H236193   4.966   8.878   3.616
12106TIP3   OH236194   8.432   0.200   3.844
12106TIP3    H136195   8.429   0.199   3.939
12106TIP3    H236196   8.342   0.180   3.816
12107TIP3   OH236197   8.671   0.160   3.707
12107TIP3    H136198   8.593   0.149   3.761
12107TIP3    H236199   8.743   0.126   3.760
12108TIP3   OH236200   8.899   0.102   3.855
12108TIP3    H136201   8.908   0.008   3.872
12108TIP3    H236202   8.893   0.141   3.943
12109TIP3   OH236203   7.875   0.051   4.036
12109TIP3    H136204   7.883  -0.036   3.997
12109TIP3    H236205   7.914   0.043   4.123
12110TIP3   OH236206   5.126   8.955   3.884
12110TIP3    H136207   5.193   8.888   3.883
12110TIP3    H236208   5.086   8.952   3.797
12111TIP3   OH236209   5.193   9.171   4.043
12111TIP3    H136210   5.172   9.101   3.981
12111TIP3    H236211   5.118   9.230   4.038
12112TIP3   OH236212   8.776   0.067   2.037
12112TIP3    H136213   8.741   0.096   1.953
12112TIP3    H236214   8.747  -0.024   2.045
12113TIP3   OH236215   8.852   0.284   2.619
12113TIP3    H136216   8.790   0.221   2.583
12113TIP3    H236217   8.802   0.333   2.684
12114TIP3   OH236218   9.236   0.592   3.477
12114TIP3    H136219   9.161   0.537   3.498
12114TIP3    H236220   9.310   0.532   3.474
12115TIP3   OH236221   5.442   9.045   2.034
12115TIP3    H136222   5.513   9.006   2.084
12115TIP3    H236223   5.367   8.988   2.051
12116TIP3   OH236224   8.781   0.057   2.488
12116TIP3    H136225   8.800  -0.035   2.502
12116TIP3    H236226   8.810   0.075   2.399
12117TIP3   OH236227   8.943   0.234   2.961
12117TIP3    H136228   9.014   0.294   2.935
12117TIP3    H236229   8.934   0.248   3.055
12118TIP3   OH236230   9.001   0.361   3.194
12118TIP3    H136231   8.927   0.385   3.250
12118TIP3    H236232   9.052   0.442   3.185
12119TIP3   OH236233   7.611   0.120   4.043
12119TIP3    H136234   7.705   0.111   4.025
12119TIP3    H236235   7.580   0.031   4.058
12120TIP3   OH236236   6.181   9.203   3.762
12120TIP3    H136237   6.240   9.140   3.722
12120TIP3    H236238   6.154   9.260   3.691
12121TIP3   OH236239   5.609   9.042   2.519
12121TIP3    H136240   5.655   9.028   2.601
12121TIP3    H236241   5.545   8.971   2.514
12122TIP3   OH236242   4.308   9.029   3.349
12122TIP3    H136243   4.370   8.956   3.351
12122TIP3    H236244   4.362   9.106   3.332
12123TIP3   OH236245   7.379   0.078   3.420
12123TIP3    H136246   7.424   0.060   3.337
12123TIP3    H236247   7.401   0.169   3.440
12124TIP3   OH236248   9.318   0.106   3.569
12124TIP3    H136249   9.234   0.147   3.587
12124TIP3    H236250   9.298   0.032   3.512
12125TIP3   OH236251   5.698   8.979   2.154
12125TIP3    H136252   5.727   8.908   2.097
12125TIP3    H236253   5.760   9.050   2.138
12126TIP3   OH236254   4.094   8.812   2.915
12126TIP3    H136255   4.002   8.807   2.939
12126TIP3    H236256   4.095   8.867   2.837
12127TIP3   OH236257   4.314   8.895   3.730
12127TIP3    H136258   4.263   8.885   3.810
12127TIP3    H236259   4.252   8.929   3.666
12128TIP3   OH236260   5.953   9.109   3.449
12128TIP3    H136261   5.864   9.093   3.419
12128TIP3    H236262   5.996   9.023   3.442
12129TIP3   OH236263   5.166   9.027   3.079
12129TIP3    H136264   5.110   8.961   3.120
12129TIP3    H236265   5.224   8.977   3.021
12130TIP3   OH236266   5.682   8.898   2.969
12130TIP3    H136267   5.716   8.940   2.890
12130TIP3    H236268   5.587   8.912   2.964
12131TIP3   OH236269   5.780   9.014   2.732
12131TIP3    H136270   5.848   8.958   2.695
12131TIP3    H236271   5.818   9.102   2.729
12132TIP3   OH236272   4.404   8.729   3.086
12132TIP3    H136273   4.313   8.700   3.085
12132TIP3    H236274   4.455   8.647   3.081
12133TIP3   OH236275   4.193   8.603   2.731
12133TIP3    H136276   4.224   8.657   2.658
12133TIP3    H236277   4.165   8.666   2.798
12134TIP3   OH236278   4.852   8.764   2.965
12134TIP3    H136279   4.906   8.815   2.905
12134TIP3    H236280   4.870   8.802   3.051
12135TIP3   OH236281   5.396   8.902   2.949
12135TIP3    H136282   5.376   8.885   2.856
12135TIP3    H236283   5.384   8.817   2.991
12136TIP3   OH236284   5.423   8.834   2.511
12136TIP3    H136285   5.339   8.880   2.518
12136TIP3    H236286   5.408   8.751   2.556
12137TIP3   OH236287   4.311   8.761   2.495
12137TIP3    H136288   4.356   8.698   2.439
12137TIP3    H236289   4.381   8.815   2.531
12138TIP3   OH236290   4.823   8.938   2.597
12138TIP3    H136291   4.882   8.888   2.653
12138TIP3    H236292   4.842   9.030   2.617
12139TIP3   OH236293   4.613   9.012   3.979
12139TIP3    H136294   4.580   8.940   4.033
12139TIP3    H236295   4.706   9.016   4.000
12140TIP3   OH236296   4.863   9.009   4.094
12140TIP3    H136297   4.946   8.988   4.051
12140TIP3    H236298   4.851   8.941   4.160
12141TIP3   OH236299   5.688   9.067   3.880
12141TIP3    H136300   5.704   9.039   3.970
12141TIP3    H236301   5.775   9.066   3.839
12142TIP3   OH236302   9.089   0.274   2.443
12142TIP3    H136303   9.088   0.366   2.418
12142TIP3    H236304   9.052   0.228   2.368
12143TIP3   OH236305   0.566   0.492   2.600
12143TIP3    H136306   0.608   0.409   2.622
12143TIP3    H236307   0.542   0.483   2.507
12144TIP3   OH236308   9.706   0.142   2.564
12144TIP3    H136309   9.690   0.219   2.509
12144TIP3    H236310   9.658   0.071   2.521
12145TIP3   OH236311   0.604   0.227   2.200
12145TIP3    H136312   0.672   0.211   2.266
12145TIP3    H236313   0.650   0.265   2.126
12146TIP3   OH236314  -0.005   0.542   2.456
12146TIP3    H136315   0.079   0.504   2.483
12146TIP3    H236316  -0.057   0.467   2.426
12147TIP3   OH236317   9.703   0.124   3.003
12147TIP3    H136318   9.649   0.159   2.932
12147TIP3    H236319   9.653   0.143   3.083
12148TIP3   OH236320   0.820   0.233   2.366
12148TIP3    H136321   0.798   0.187   2.448
12148TIP3    H236322   0.900   0.281   2.386
12149TIP3   OH236323   9.572   0.226   2.789
12149TIP3    H136324   9.612   0.312   2.805
12149TIP3    H236325   9.617   0.193   2.711
12150TIP3   OH236326   0.961   0.204   2.723
12150TIP3    H136327   0.869   0.229   2.714
12150TIP3    H236328   1.002   0.233   2.641
12151TIP3   OH236329   6.795   9.089   2.724
12151TIP3    H136330   6.784   9.005   2.769
12151TIP3    H236331   6.722   9.143   2.754
12152TIP3   OH236332   0.171   0.346   1.747
12152TIP3    H136333   0.205   0.435   1.759
12152TIP3    H236334   0.194   0.323   1.657
12153TIP3   OH236335   7.419   9.028   1.812
12153TIP3    H136336   7.342   9.039   1.869
12153TIP3    H236337   7.435   9.116   1.777
12154TIP3   OH236338   6.550   9.160   2.840
12154TIP3    H136339   6.462   9.131   2.817
12154TIP3    H236340   6.537   9.245   2.884
12155TIP3   OH236341   0.556   0.035   3.038
12155TIP3    H136342   0.624   0.011   3.101
12155TIP3    H236343   0.474   0.018   3.084
12156TIP3   OH236344   0.798   0.463   2.957
12156TIP3    H136345   0.756   0.453   3.042
12156TIP3    H236346   0.760   0.543   2.920
12157TIP3   OH236347   6.703   9.203   1.816
12157TIP3    H136348   6.668   9.209   1.905
12157TIP3    H236349   6.664   9.123   1.780
12158TIP3   OH236350   9.737   0.439   2.833
12158TIP3    H136351   9.724   0.453   2.927
12158TIP3    H236352   9.740   0.527   2.795
12159TIP3   OH236353   9.638   0.320   2.375
12159TIP3    H136354   9.546   0.297   2.392
12159TIP3    H236355   9.655   0.285   2.288
12160TIP3   OH236356   0.339   0.410   2.104
12160TIP3    H136357   0.258   0.457   2.083
12160TIP3    H236358   0.378   0.390   2.019
12161TIP3   OH236359   0.529   0.680   3.181
12161TIP3    H136360   0.517   0.605   3.238
12161TIP3    H236361   0.617   0.712   3.202
12162TIP3   OH236362   0.469   0.429   2.344
12162TIP3    H136363   0.413   0.446   2.269
12162TIP3    H236364   0.522   0.353   2.318
12163TIP3   OH236365   9.553   0.464   3.097
12163TIP3    H136366   9.544   0.507   3.182
12163TIP3    H236367   9.547   0.370   3.117
12164TIP3   OH236368   6.358   9.184   1.783
12164TIP3    H136369   6.351   9.183   1.879
12164TIP3    H236370   6.281   9.232   1.754
12165TIP3   OH236371   9.160   0.053   2.638
12165TIP3    H136372   9.234   0.045   2.697
12165TIP3    H236373   9.175  -0.014   2.572
12166TIP3   OH236374   5.878   9.206   2.174
12166TIP3    H136375   5.923   9.238   2.096
12166TIP3    H236376   5.813   9.274   2.194
12167TIP3   OH236377   0.508   0.684   2.791
12167TIP3    H136378   0.538   0.624   2.722
12167TIP3    H236379   0.458   0.628   2.851
12168TIP3   OH236380   0.161   0.129   2.443
12168TIP3    H136381   0.078   0.142   2.488
12168TIP3    H236382   0.226   0.168   2.501
12169TIP3   OH236383   9.400   0.197   2.422
12169TIP3    H136384   9.306   0.183   2.433
12169TIP3    H236385   9.438   0.109   2.419
12170TIP3   OH236386   9.674   0.197   2.133
12170TIP3    H136387   9.763   0.220   2.108
12170TIP3    H236388   9.620   0.221   2.057
12171TIP3   OH236389   0.653   0.220   2.642
12171TIP3    H136390   0.621   0.236   2.731
12171TIP3    H236391   0.587   0.164   2.603
12172TIP3   OH236392   9.492   0.207   1.920
12172TIP3    H136393   9.433   0.172   1.853
12172TIP3    H236394   9.540   0.277   1.875
12173TIP3   OH236395   0.243   0.438   2.526
12173TIP3    H136396   0.327   0.441   2.479
12173TIP3    H236397   0.268   0.444   2.618
12174TIP3   OH236398   6.305   9.200   2.414
12174TIP3    H136399   6.270   9.121   2.455
12174TIP3    H236400   6.340   9.171   2.330
12175TIP3   OH236401   0.222   0.360   2.841
12175TIP3    H136402   0.138   0.403   2.824
12175TIP3    H236403   0.277   0.428   2.880
12176TIP3   OH236404   0.413   0.082   1.792
12176TIP3    H136405   0.322   0.053   1.793
12176TIP3    H236406   0.407   0.177   1.803
12177TIP3   OH236407   0.495   0.347   1.870
12177TIP3    H136408   0.583   0.308   1.877
12177TIP3    H236409   0.498   0.399   1.790
12178TIP3   OH236410   0.240   0.696   3.240
12178TIP3    H136411   0.267   0.735   3.157
12178TIP3    H236412   0.307   0.631   3.259
12179TIP3   OH236413   9.543   0.203   3.218
12179TIP3    H136414   9.448   0.209   3.232
12179TIP3    H236415   9.574   0.147   3.289
12180TIP3   OH236416   0.580   0.276   2.902
12180TIP3    H136417   0.661   0.312   2.938
12180TIP3    H236418   0.566   0.195   2.951
12181TIP3   OH236419   0.463   0.021   2.063
12181TIP3    H136420   0.447   0.044   1.972
12181TIP3    H236421   0.502   0.099   2.102
12182TIP3   OH236422   0.162   0.202   2.169
12182TIP3    H136423   0.226   0.271   2.153
12182TIP3    H236424   0.157   0.195   2.265
12183TIP3   OH236425   0.413   0.516   2.981
12183TIP3    H136426   0.453   0.573   3.047
12183TIP3    H236427   0.468   0.438   2.980
12184TIP3   OH236428   6.830   9.172   2.270
12184TIP3    H136429   6.814   9.247   2.328
12184TIP3    H236430   6.889   9.207   2.202
12185TIP3   OH236431   6.342   9.169   2.063
12185TIP3    H136432   6.334   9.261   2.087
12185TIP3    H236433   6.436   9.151   2.066
12186TIP3   OH236434   1.077   0.426   2.933
12186TIP3    H136435   0.985   0.439   2.957
12186TIP3    H236436   1.072   0.380   2.849
12187TIP3   OH236437   9.156   0.126   1.956
12187TIP3    H136438   9.180   0.215   1.929
12187TIP3    H236439   9.086   0.102   1.895
12188TIP3   OH236440   6.286   9.083   2.818
12188TIP3    H136441   6.256   9.051   2.732
12188TIP3    H236442   6.281   9.006   2.875
12189TIP3   OH236443   9.539   0.723   3.426
12189TIP3    H136444   9.584   0.647   3.463
12189TIP3    H236445   9.527   0.782   3.501
12190TIP3   OH236446   0.030   0.539   3.069
12190TIP3    H136447  -0.045   0.589   3.103
12190TIP3    H236448   0.070   0.597   3.004
12191TIP3   OH236449   9.655   0.355   1.765
12191TIP3    H136450   9.627   0.319   1.681
12191TIP3    H236451   9.750   0.356   1.760
12192TIP3   OH236452   0.167   0.391   3.248
12192TIP3    H136453   0.172   0.308   3.201
12192TIP3    H236454   0.121   0.450   3.188
12193TIP3   OH236455   0.163   0.190   3.049
12193TIP3    H136456   0.191   0.243   2.974
12193TIP3    H236457   0.070   0.174   3.034
12194TIP3   OH236458   0.796   0.713   3.306
12194TIP3    H136459   0.811   0.621   3.329
12194TIP3    H236460   0.879   0.742   3.268
12195TIP3   OH236461   0.017   0.536   3.452
12195TIP3    H136462  -0.038   0.460   3.474
12195TIP3    H236463   0.069   0.507   3.377
12196TIP3   OH236464   6.827   9.201   3.113
12196TIP3    H136465   6.783   9.284   3.092
12196TIP3    H236466   6.758   9.135   3.104
12197TIP3   OH236467   0.420   0.476   3.329
12197TIP3    H136468   0.424   0.463   3.424
12197TIP3    H236469   0.336   0.437   3.303
12198TIP3   OH236470   0.665   0.411   3.188
12198TIP3    H136471   0.589   0.407   3.246
12198TIP3    H236472   0.738   0.382   3.242
12199TIP3   OH236473   0.880   0.355   3.344
12199TIP3    H136474   0.898   0.262   3.360
12199TIP3    H236475   0.886   0.395   3.431
12200TIP3   OH236476   9.676   0.307   3.523
12200TIP3    H136477   9.684   0.219   3.487
12200TIP3    H236478   9.710   0.301   3.612
12201TIP3   OH236479   6.922   9.211   3.370
12201TIP3    H136480   6.991   9.145   3.368
12201TIP3    H236481   6.882   9.207   3.283
12202TIP3   OH236482   0.453   0.188   3.531
12202TIP3    H136483   0.432   0.119   3.469
12202TIP3    H236484   0.379   0.248   3.527
12203TIP3   OH236485   0.690   0.089   1.535
12203TIP3    H136486   0.777   0.056   1.560
12203TIP3    H236487   0.634   0.012   1.535
12204TIP3   OH236488   9.407   0.364   3.497
12204TIP3    H136489   9.502   0.362   3.496
12204TIP3    H236490   9.381   0.281   3.536
12205TIP3   OH236491   1.427   0.231   3.234
12205TIP3    H136492   1.482   0.155   3.217
12205TIP3    H236493   1.390   0.254   3.149
12206TIP3   OH236494   0.836   0.075   2.029
12206TIP3    H136495   0.904   0.059   2.095
12206TIP3    H236496   0.792  -0.010   2.020
12207TIP3   OH236497   9.365   0.050   2.831
12207TIP3    H136498   9.425  -0.024   2.839
12207TIP3    H236499   9.422   0.126   2.819
12208TIP3   OH236500   5.880   9.105   2.427
12208TIP3    H136501   5.792   9.067   2.431
12208TIP3    H236502   5.890   9.135   2.337
12209TIP3   OH236503   6.108   9.145   3.215
12209TIP3    H136504   6.063   9.137   3.299
12209TIP3    H236505   6.043   9.182   3.156
12210TIP3   OH236506   1.220   0.121   2.947
12210TIP3    H136507   1.138   0.136   2.900
12210TIP3    H236508   1.250   0.035   2.916
12211TIP3   OH236509   0.433   0.044   2.559
12211TIP3    H136510   0.378  -0.023   2.601
12211TIP3    H236511   0.497  -0.006   2.508
12212TIP3   OH236512   7.473   9.163   2.455
12212TIP3    H136513   7.514   9.213   2.384
12212TIP3    H236514   7.380   9.182   2.447
12213TIP3   OH236515   1.045   0.035   2.219
12213TIP3    H136516   1.104  -0.030   2.182
12213TIP3    H236517   1.094   0.117   2.215
12214TIP3   OH236518   6.200   8.986   2.570
12214TIP3    H136519   6.109   8.956   2.572
12214TIP3    H236520   6.251   8.905   2.568
12215TIP3   OH236521   5.998   8.857   2.216
12215TIP3    H136522   6.023   8.911   2.141
12215TIP3    H236523   5.960   8.919   2.278
12216TIP3   OH236524   6.697   9.001   2.478
12216TIP3    H136525   6.719   9.047   2.397
12216TIP3    H236526   6.649   9.065   2.530
12217TIP3   OH236527   7.189   9.155   2.437
12217TIP3    H136528   7.192   9.130   2.345
12217TIP3    H236529   7.172   9.074   2.484
12218TIP3   OH236530   7.217   9.080   1.995
12218TIP3    H136531   7.135   9.128   2.004
12218TIP3    H236532   7.203   8.998   2.042
12219TIP3   OH236533   6.107   9.016   1.984
12219TIP3    H136534   6.151   8.954   1.926
12219TIP3    H236535   6.177   9.071   2.018
12220TIP3   OH236536   6.619   9.195   2.084
12220TIP3    H136537   6.682   9.148   2.138
12220TIP3    H236538   6.635   9.287   2.103
12221TIP3   OH236539   9.677   0.028   3.462
12221TIP3    H136540   9.640  -0.040   3.518
12221TIP3    H236541   9.770   0.032   3.487
12222TIP3   OH236542   6.658   9.263   3.580
12222TIP3    H136543   6.743   9.245   3.540
12222TIP3    H236544   6.647   9.195   3.646
12223TIP3   OH236545   0.950   0.087   3.370
12223TIP3    H136546   0.970   0.057   3.458
12223TIP3    H236547   1.035   0.084   3.324
12224TIP3   OH236548   2.208   0.688   7.843
12224TIP3    H136549   2.270   0.615   7.847
12224TIP3    H236550   2.247   0.755   7.898
12225TIP3   OH236551   1.846   1.091   7.864
12225TIP3    H136552   1.884   1.024   7.806
12225TIP3    H236553   1.875   1.066   7.952
12226TIP3   OH236554   5.534   5.514   0.021
12226TIP3    H136555   5.448   5.509   0.063
12226TIP3    H236556   5.535   5.600  -0.022
12227TIP3   OH236557   1.980   0.934   7.682
12227TIP3    H136558   2.022   0.849   7.666
12227TIP3    H236559   2.043   0.998   7.648
12228TIP3   OH236560   2.089   0.693   7.591
12228TIP3    H136561   2.127   0.634   7.527
12228TIP3    H236562   2.148   0.689   7.666
12229TIP3   OH236563   5.784   5.426   0.355
12229TIP3    H136564   5.753   5.343   0.318
12229TIP3    H236565   5.759   5.492   0.291
12230TIP3   OH236566   5.987   5.074   0.202
12230TIP3    H136567   5.894   5.087   0.220
12230TIP3    H236568   5.995   5.085   0.108
12231TIP3   OH236569   2.304   0.746   7.012
12231TIP3    H136570   2.309   0.840   6.993
12231TIP3    H236571   2.393   0.714   6.999
12232TIP3   OH236572   6.008   5.764   0.398
12232TIP3    H136573   6.012   5.670   0.410
12232TIP3    H236574   5.928   5.791   0.445
12233TIP3   OH236575   1.601   1.066   7.488
12233TIP3    H136576   1.570   1.051   7.398
12233TIP3    H236577   1.578   1.157   7.506
12234TIP3   OH236578   1.818   0.961   7.135
12234TIP3    H136579   1.876   0.897   7.094
12234TIP3    H236580   1.851   0.969   7.225
12235TIP3   OH236581   1.862   1.018   7.409
12235TIP3    H136582   1.776   1.017   7.451
12235TIP3    H236583   1.924   1.007   7.481
12236TIP3   OH236584   5.697   6.118   0.497
12236TIP3    H136585   5.697   6.137   0.404
12236TIP3    H236586   5.775   6.161   0.531
12237TIP3   OH236587   5.729   5.199   0.186
12237TIP3    H136588   5.778   5.247   0.120
12237TIP3    H236589   5.638   5.201   0.155
12238TIP3   OH236590   6.026   5.474   0.444
12238TIP3    H136591   5.931   5.468   0.438
12238TIP3    H236592   6.058   5.443   0.360
12239TIP3   OH236593   2.241   0.808   7.274
12239TIP3    H136594   2.213   0.728   7.319
12239TIP3    H236595   2.250   0.782   7.183
12240TIP3   OH236596   2.018   0.556   7.173
12240TIP3    H136597   2.048   0.516   7.255
12240TIP3    H236598   1.923   0.547   7.175
12241TIP3   OH236599   5.535   5.799   0.336
12241TIP3    H136600   5.451   5.754   0.326
12241TIP3    H236601   5.529   5.873   0.275
12242TIP3   OH236602   2.332   1.021   6.995
12242TIP3    H136603   2.370   1.087   6.937
12242TIP3    H236604   2.252   1.063   7.029
12243TIP3   OH236605   2.165   0.479   7.426
12243TIP3    H136606   2.149   0.390   7.456
12243TIP3    H236607   2.255   0.478   7.394
12244TIP3   OH236608   2.287   1.156   7.932
12244TIP3    H136609   2.243   1.203   7.861
12244TIP3    H236610   2.380   1.174   7.919
12245TIP3   OH236611   1.977   0.783   7.007
12245TIP3    H136612   2.009   0.708   7.057
12245TIP3    H236613   2.020   0.775   6.921
12246TIP3   OH236614   2.335   0.283   7.016
12246TIP3    H136615   2.308   0.231   6.940
12246TIP3    H236616   2.291   0.367   7.004
12247TIP3   OH236617   2.536   1.254   7.894
12247TIP3    H136618   2.568   1.282   7.980
12247TIP3    H236619   2.600   1.290   7.833
12248TIP3   OH236620   5.841   5.887   0.174
12248TIP3    H136621   5.794   5.804   0.166
12248TIP3    H236622   5.913   5.868   0.235
12249TIP3   OH236623   2.434   0.462   7.375
12249TIP3    H136624   2.501   0.521   7.340
12249TIP3    H236625   2.476   0.420   7.450
12250TIP3   OH236626   2.561   0.334   7.586
12250TIP3    H136627   2.500   0.323   7.660
12250TIP3    H236628   2.640   0.371   7.626
12251TIP3   OH236629   2.610   0.716   8.002
12251TIP3    H136630   2.665   0.650   7.960
12251TIP3    H236631   2.611   0.790   7.941
12252TIP3   OH236632   5.714   5.643   0.193
12252TIP3    H136633   5.648   5.683   0.250
12252TIP3    H236634   5.663   5.592   0.130
12253TIP3   OH236635   2.502   0.242   7.219
12253TIP3    H136636   2.441   0.248   7.145
12253TIP3    H236637   2.472   0.310   7.279
12254TIP3   OH236638   5.915   5.224   0.570
12254TIP3    H136639   5.990   5.165   0.579
12254TIP3    H236640   5.952   5.303   0.529
12255TIP3   OH236641   6.108   5.027   0.598
12255TIP3    H136642   6.037   4.965   0.615
12255TIP3    H236643   6.188   4.975   0.611
12256TIP3   OH236644   2.127   1.115   7.548
12256TIP3    H136645   2.173   1.100   7.465
12256TIP3    H236646   2.178   1.183   7.592
12257TIP3   OH236647   5.292   5.991   0.455
12257TIP3    H136648   5.340   5.908   0.447
12257TIP3    H236649   5.333   6.035   0.530
12258TIP3   OH236650   5.044   5.848   0.152
12258TIP3    H136651   4.967   5.853   0.095
12258TIP3    H236652   5.041   5.929   0.203
12259TIP3   OH236653   5.294   5.774   0.204
12259TIP3    H136654   5.203   5.797   0.184
12259TIP3    H236655   5.345   5.849   0.174
12260TIP3   OH236656   5.487   5.970   0.124
12260TIP3    H136657   5.473   6.054   0.080
12260TIP3    H236658   5.513   5.911   0.053
12261TIP3   OH236659   1.559   0.939   7.207
12261TIP3    H136660   1.649   0.967   7.190
12261TIP3    H236661   1.547   0.861   7.152
12262TIP3   OH236662   2.266   1.078   7.317
12262TIP3    H136663   2.262   0.983   7.304
12262TIP3    H236664   2.227   1.114   7.237
12263TIP3   OH236665   5.763   5.850   0.496
12263TIP3    H136666   5.686   5.812   0.455
12263TIP3    H236667   5.742   5.943   0.506
12264TIP3   OH236668   3.762   0.600   7.271
12264TIP3    H136669   3.737   0.691   7.254
12264TIP3    H236670   3.687   0.549   7.240
12265TIP3   OH236671   3.762   0.596   7.652
12265TIP3    H136672   3.796   0.567   7.736
12265TIP3    H236673   3.718   0.520   7.616
12266TIP3   OH236674   6.328   5.117   0.012
12266TIP3    H136675   6.357   5.050   0.073
12266TIP3    H236676   6.402   5.177   0.003
12267TIP3   OH236677   4.005   0.900   7.335
12267TIP3    H136678   3.991   0.830   7.400
12267TIP3    H236679   4.034   0.975   7.387
12268TIP3   OH236680   3.034   0.901   7.745
12268TIP3    H136681   3.022   0.806   7.746
12268TIP3    H236682   3.128   0.914   7.738
12269TIP3   OH236683   2.732   0.102   7.532
12269TIP3    H136684   2.696   0.189   7.549
12269TIP3    H236685   2.657   0.051   7.500
12270TIP3   OH236686   2.806   0.392   7.691
12270TIP3    H136687   2.849   0.318   7.734
12270TIP3    H236688   2.869   0.422   7.626
12271TIP3   OH236689   3.654   1.360   7.350
12271TIP3    H136690   3.700   1.293   7.299
12271TIP3    H236691   3.648   1.324   7.439
12272TIP3   OH236692   3.564   0.823   7.702
12272TIP3    H136693   3.594   0.747   7.652
12272TIP3    H236694   3.644   0.870   7.725
12273TIP3   OH236695   3.975   0.332   7.734
12273TIP3    H136696   4.006   0.246   7.763
12273TIP3    H236697   3.944   0.318   7.644
12274TIP3   OH236698   2.950   0.187   7.801
12274TIP3    H136699   3.019   0.162   7.862
12274TIP3    H236700   2.965   0.132   7.724
12275TIP3   OH236701   3.387   0.384   7.603
12275TIP3    H136702   3.476   0.354   7.616
12275TIP3    H236703   3.340   0.306   7.571
12276TIP3   OH236704   4.619   0.326   7.890
12276TIP3    H136705   4.559   0.396   7.864
12276TIP3    H236706   4.670   0.364   7.962
12277TIP3   OH236707   3.655   0.822   7.140
12277TIP3    H136708   3.611   0.797   7.060
12277TIP3    H236709   3.613   0.904   7.167
12278TIP3   OH236710   3.419   0.742   7.935
12278TIP3    H136711   3.355   0.803   7.972
12278TIP3    H236712   3.458   0.789   7.862
12279TIP3   OH236713   3.190   0.089   7.907
12279TIP3    H136714   3.251   0.160   7.926
12279TIP3    H236715   3.221   0.053   7.823
12280TIP3   OH236716   6.506   5.556   0.026
12280TIP3    H136717   6.484   5.639  -0.017
12280TIP3    H236718   6.431   5.537   0.082
12281TIP3   OH236719   2.635   0.627   7.262
12281TIP3    H136720   2.595   0.649   7.177
12281TIP3    H236721   2.666   0.711   7.296
12282TIP3   OH236722   4.074   1.144   7.503
12282TIP3    H136723   3.987   1.134   7.541
12282TIP3    H236724   4.070   1.227   7.456
12283TIP3   OH236725   3.782   1.190   7.175
12283TIP3    H136726   3.827   1.107   7.156
12283TIP3    H236727   3.838   1.257   7.136
12284TIP3   OH236728   3.921   0.973   7.083
12284TIP3    H136729   3.879   0.896   7.044
12284TIP3    H236730   3.957   0.940   7.166
12285TIP3   OH236731   4.301   1.056   7.844
12285TIP3    H136732   4.291   0.980   7.787
12285TIP3    H236733   4.285   1.131   7.787
12286TIP3   OH236734   3.593   0.451   7.102
12286TIP3    H136735   3.512   0.499   7.084
12286TIP3    H236736   3.637   0.446   7.017
12287TIP3   OH236737   3.550   0.245   6.824
12287TIP3    H136738   3.626   0.282   6.867
12287TIP3    H236739   3.582   0.165   6.782
12288TIP3   OH236740   4.494   0.690   7.689
12288TIP3    H136741   4.413   0.741   7.697
12288TIP3    H236742   4.527   0.711   7.602
12289TIP3   OH236743   3.942   0.532   7.078
12289TIP3    H136744   3.886   0.557   7.151
12289TIP3    H236745   4.024   0.505   7.118
12290TIP3   OH236746   4.170   0.579   7.982
12290TIP3    H136747   4.171   0.662   8.030
12290TIP3    H236748   4.089   0.582   7.932
12291TIP3   OH236749   3.175   0.529   7.490
12291TIP3    H136750   3.131   0.475   7.425
12291TIP3    H236751   3.249   0.475   7.519
12292TIP3   OH236752   3.303   0.941   7.639
12292TIP3    H136753   3.280   0.899   7.556
12292TIP3    H236754   3.391   0.909   7.659
12293TIP3   OH236755   3.317   0.497   7.849
12293TIP3    H136756   3.342   0.475   7.759
12293TIP3    H236757   3.356   0.583   7.865
12294TIP3   OH236758   3.834   1.140   7.623
12294TIP3    H136759   3.821   1.218   7.677
12294TIP3    H236760   3.820   1.067   7.684
12295TIP3   OH236761   6.710   5.680   0.166
12295TIP3    H136762   6.654   5.741   0.215
12295TIP3    H236763   6.649   5.624   0.118
12296TIP3   OH236764   3.790   0.381   6.903
12296TIP3    H136765   3.844   0.439   6.957
12296TIP3    H236766   3.812   0.405   6.813
12297TIP3   OH236767   6.450   5.245   0.267
12297TIP3    H136768   6.459   5.327   0.315
12297TIP3    H236769   6.360   5.217   0.283
12298TIP3   OH236770   3.524   1.072   7.177
12298TIP3    H136771   3.602   1.124   7.194
12298TIP3    H236772   3.463   1.133   7.135
12299TIP3   OH236773   6.505   5.848   0.255
12299TIP3    H136774   6.472   5.844   0.165
12299TIP3    H236775   6.430   5.825   0.309
12300TIP3   OH236776   3.037   0.380   7.296
12300TIP3    H136777   2.969   0.416   7.239
12300TIP3    H236778   3.012   0.288   7.306
12301TIP3   OH236779   4.097   1.000   6.495
12301TIP3    H136780   4.102   1.095   6.482
12301TIP3    H236781   4.188   0.970   6.485
12302TIP3   OH236782   6.090   5.374   0.200
12302TIP3    H136783   6.023   5.354   0.135
12302TIP3    H236784   6.123   5.289   0.229
12303TIP3   OH236785   2.675   0.949   7.839
12303TIP3    H136786   2.769   0.936   7.824
12303TIP3    H236787   2.670   1.028   7.893
12304TIP3   OH236788   4.537   1.399   7.894
12304TIP3    H136789   4.538   1.303   7.903
12304TIP3    H236790   4.456   1.426   7.936
12305TIP3   OH236791   6.910   5.808   0.027
12305TIP3    H136792   6.911   5.899   0.057
12305TIP3    H236793   6.840   5.767   0.078
12306TIP3   OH236794   3.404   1.317   6.977
12306TIP3    H136795   3.360   1.297   6.895
12306TIP3    H236796   3.374   1.405   7.000
12307TIP3   OH236797   2.843   1.164   7.363
12307TIP3    H136798   2.891   1.156   7.446
12307TIP3    H236799   2.787   1.087   7.361
12308TIP3   OH236800   3.609   1.216   6.619
12308TIP3    H136801   3.665   1.149   6.582
12308TIP3    H236802   3.641   1.227   6.708
12309TIP3   OH236803   3.656   1.265   6.891
12309TIP3    H136804   3.569   1.274   6.930
12309TIP3    H236805   3.709   1.225   6.960
12310TIP3   OH236806   7.696   5.145   0.178
12310TIP3    H136807   7.626   5.181   0.124
12310TIP3    H236808   7.718   5.062   0.136
12311TIP3   OH236809   6.292   5.560   0.193
12311TIP3    H136810   6.343   5.543   0.272
12311TIP3    H236811   6.220   5.497   0.197
12312TIP3   OH236812   7.371   5.015   0.181
12312TIP3    H136813   7.412   4.931   0.160
12312TIP3    H236814   7.385   5.069   0.103
12313TIP3   OH236815   3.858   0.434   6.642
12313TIP3    H136816   3.825   0.409   6.556
12313TIP3    H236817   3.932   0.492   6.623
12314TIP3   OH236818   6.633   4.899  -0.000
12314TIP3    H136819   6.574   4.915   0.073
12314TIP3    H236820   6.619   4.973  -0.059
12315TIP3   OH236821   3.227   0.186   7.501
12315TIP3    H136822   3.152   0.137   7.533
12315TIP3    H236823   3.251   0.142   7.420
12316TIP3   OH236824   3.737   0.257   7.232
12316TIP3    H136825   3.682   0.327   7.195
12316TIP3    H236826   3.782   0.220   7.156
12317TIP3   OH236827   7.181   5.205   0.279
12317TIP3    H136828   7.153   5.161   0.360
12317TIP3    H236829   7.273   5.182   0.270
12318TIP3   OH236830   3.893   0.281   7.471
12318TIP3    H136831   3.834   0.314   7.404
12318TIP3    H236832   3.923   0.197   7.436
12319TIP3   OH236833   6.450   4.940   0.196
12319TIP3    H136834   6.453   4.998   0.273
12319TIP3    H236835   6.397   4.866   0.224
12320TIP3   OH236836   3.905   0.531   7.900
12320TIP3    H136837   3.931   0.458   7.843
12320TIP3    H236838   3.867   0.489   7.977
12321TIP3   OH236839   2.997   0.039   7.575
12321TIP3    H136840   2.907   0.060   7.550
12321TIP3    H236841   3.007  -0.054   7.554
12322TIP3   OH236842   3.287   0.060   7.263
12322TIP3    H136843   3.371   0.034   7.226
12322TIP3    H236844   3.225   0.052   7.190
12323TIP3   OH236845   3.100   0.076   7.043
12323TIP3    H136846   3.043   0.021   6.989
12323TIP3    H236847   3.164   0.111   6.981
12324TIP3   OH236848   4.230   1.753   7.989
12324TIP3    H136849   4.226   1.774   7.895
12324TIP3    H236850   4.309   1.798   8.020
12325TIP3   OH236851   6.453   5.484   0.415
12325TIP3    H136852   6.534   5.513   0.458
12325TIP3    H236853   6.389   5.481   0.485
12326TIP3   OH236854   3.656   0.318   7.676
12326TIP3    H136855   3.711   0.263   7.619
12326TIP3    H236856   3.650   0.268   7.758
12327TIP3   OH236857   3.634   0.206   7.970
12327TIP3    H136858   3.545   0.239   7.976
12327TIP3    H236859   3.685   0.263   8.027
12328TIP3   OH236860   3.363   0.601   7.054
12328TIP3    H136861   3.294   0.536   7.041
12328TIP3    H236862   3.347   0.636   7.142
12329TIP3   OH236863   4.265   0.838   7.680
12329TIP3    H136864   4.291   0.887   7.602
12329TIP3    H236865   4.181   0.798   7.657
12330TIP3   OH236866   7.036   5.546   0.046
12330TIP3    H136867   7.047   5.516   0.136
12330TIP3    H236868   6.992   5.630   0.054
12331TIP3   OH236869   3.885   0.135   7.008
12331TIP3    H136870   3.980   0.145   7.018
12331TIP3    H236871   3.859   0.211   6.956
12332TIP3   OH236872   3.060   0.626   7.726
12332TIP3    H136873   3.096   0.597   7.642
12332TIP3    H236874   3.090   0.559   7.789
12333TIP3   OH236875   3.505   0.752   6.872
12333TIP3    H136876   3.463   0.838   6.877
12333TIP3    H236877   3.455   0.697   6.932
12334TIP3   OH236878   6.201   5.162   0.346
12334TIP3    H136879   6.204   5.142   0.440
12334TIP3    H236880   6.127   5.113   0.313
12335TIP3   OH236881   6.927   5.291   0.356
12335TIP3    H136882   6.853   5.243   0.320
12335TIP3    H236883   7.001   5.267   0.301
12336TIP3   OH236884   3.925   1.183   7.946
12336TIP3    H136885   3.830   1.176   7.955
12336TIP3    H236886   3.953   1.234   8.022
12337TIP3   OH236887   4.336   0.249   6.845
12337TIP3    H136888   4.277   0.198   6.789
12337TIP3    H236889   4.335   0.337   6.809
12338TIP3   OH236890   4.550   1.106   7.933
12338TIP3    H136891   4.455   1.104   7.926
12338TIP3    H236892   4.580   1.080   7.846
12339TIP3   OH236893   4.033   1.070   6.760
12339TIP3    H136894   4.010   1.001   6.822
12339TIP3    H236895   4.047   1.024   6.677
12340TIP3   OH236896   4.030   0.698   7.602
12340TIP3    H136897   3.937   0.676   7.614
12340TIP3    H236898   4.066   0.623   7.556
12341TIP3   OH236899   3.156   0.930   7.353
12341TIP3    H136900   3.159   1.010   7.299
12341TIP3    H236901   3.063   0.909   7.360
12342TIP3   OH236902   2.721   0.231   7.057
12342TIP3    H136903   2.769   0.312   7.073
12342TIP3    H236904   2.647   0.234   7.117
12343TIP3   OH236905   3.297   0.696   7.299
12343TIP3    H136906   3.263   0.783   7.316
12343TIP3    H236907   3.263   0.642   7.370
12344TIP3   OH236908   3.428   1.274   7.822
12344TIP3    H136909   3.467   1.344   7.770
12344TIP3    H236910   3.502   1.236   7.870
12345TIP3   OH236911   3.077   1.169   7.207
12345TIP3    H136912   2.992   1.175   7.250
12345TIP3    H236913   3.110   1.259   7.207
12346TIP3   OH236914   3.817   0.905   7.781
12346TIP3    H136915   3.808   0.906   7.876
12346TIP3    H236916   3.895   0.852   7.764
12347TIP3   OH236917   3.788   0.793   6.665
12347TIP3    H136918   3.841   0.773   6.742
12347TIP3    H236919   3.698   0.774   6.691
12348TIP3   OH236920   4.062   1.443   7.830
12348TIP3    H136921   3.986   1.385   7.824
12348TIP3    H236922   4.050   1.506   7.759
12349TIP3   OH236923   4.128   1.277   6.483
12349TIP3    H136924   4.169   1.345   6.429
12349TIP3    H236925   4.049   1.318   6.517
12350TIP3   OH236926   3.951   0.730   6.880
12350TIP3    H136927   3.938   0.666   6.951
12350TIP3    H236928   4.046   0.731   6.867
12351TIP3   OH236929   6.133   5.755  -0.017
12351TIP3    H136930   6.181   5.675   0.002
12351TIP3    H236931   6.163   5.818   0.049
12352TIP3   OH236932   3.161   0.777   6.663
12352TIP3    H136933   3.166   0.687   6.631
12352TIP3    H236934   3.138   0.768   6.756
12353TIP3   OH236935   3.103   0.786   6.935
12353TIP3    H136936   3.171   0.757   6.996
12353TIP3    H236937   3.106   0.882   6.941
12354TIP3   OH236938   2.834   0.480   7.136
12354TIP3    H136939   2.769   0.520   7.195
12354TIP3    H236940   2.850   0.547   7.069
12355TIP3   OH236941   3.366   0.985   6.884
12355TIP3    H136942   3.281   1.009   6.920
12355TIP3    H236943   3.385   1.053   6.819
12356TIP3   OH236944   3.582   0.039   7.301
12356TIP3    H136945   3.621   0.124   7.280
12356TIP3    H236946   3.532   0.054   7.381
12357TIP3   OH236947   7.085   4.974   0.130
12357TIP3    H136948   7.095   5.054   0.182
12357TIP3    H236949   7.172   4.934   0.131
12358TIP3   OH236950   3.109   1.059   6.951
12358TIP3    H136951   3.081   1.125   6.887
12358TIP3    H236952   3.094   1.101   7.036
12359TIP3   OH236953   4.116   0.463   7.474
12359TIP3    H136954   4.044   0.400   7.486
12359TIP3    H236955   4.190   0.422   7.519
12360TIP3   OH236956   2.831   0.690   6.943
12360TIP3    H136957   2.892   0.763   6.952
12360TIP3    H236958   2.872   0.633   6.877
12361TIP3   OH236959   9.283   9.184   7.064
12361TIP3    H136960   9.332   9.267   7.063
12361TIP3    H236961   9.196   9.208   7.095
12362TIP3   OH236962   4.085   1.416   7.421
12362TIP3    H136963   4.040   1.460   7.350
12362TIP3    H236964   4.178   1.433   7.405
12363TIP3   OH236965   2.701   0.908   7.333
12363TIP3    H136966   2.625   0.934   7.385
12363TIP3    H236967   2.683   0.941   7.245
12364TIP3   OH236968   6.124   6.059   0.398
12364TIP3    H136969   6.208   6.055   0.444
12364TIP3    H236970   6.094   5.968   0.395
12365TIP3   OH236971   6.607   6.034   0.435
12365TIP3    H136972   6.698   6.009   0.452
12365TIP3    H236973   6.577   5.972   0.369
12366TIP3   OH236974   3.320   0.983   6.576
12366TIP3    H136975   3.265   0.914   6.613
12366TIP3    H236976   3.394   0.935   6.538
12367TIP3   OH236977   7.241   5.936   0.182
12367TIP3    H136978   7.234   5.867   0.247
12367TIP3    H236979   7.319   5.985   0.208
12368TIP3   OH236980   3.756   1.024   6.486
12368TIP3    H136981   3.803   0.965   6.544
12368TIP3    H236982   3.809   1.027   6.406
12369TIP3   OH236983   6.254   5.457   0.600
12369TIP3    H136984   6.271   5.362   0.596
12369TIP3    H236985   6.168   5.467   0.561
12370TIP3   OH236986   2.966   0.502   6.795
12370TIP3    H136987   3.015   0.466   6.869
12370TIP3    H236988   3.031   0.508   6.724
12371TIP3   OH236989   6.863   5.557   0.373
12371TIP3    H136990   6.817   5.567   0.290
12371TIP3    H236991   6.891   5.465   0.374
12372TIP3   OH236992   3.480   0.688   6.604
12372TIP3    H136993   3.477   0.708   6.697
12372TIP3    H236994   3.453   0.596   6.598
12373TIP3   OH236995   4.089   0.943   7.985
12373TIP3    H136996   4.161   0.987   7.939
12373TIP3    H236997   4.014   1.001   7.973
12374TIP3   OH236998   6.371   5.194   0.595
12374TIP3    H136999   6.447   5.146   0.562
12374TIP3    H237000   6.389   5.207   0.688
12375TIP3   OH237001   3.175   0.401   7.020
12375TIP3    H137002   3.146   0.364   7.104
12375TIP3    H237003   3.208   0.326   6.971
12376TIP3   OH237004   6.710   5.165   0.241
12376TIP3    H137005   6.620   5.196   0.247
12376TIP3    H237006   6.726   5.154   0.148
12377TIP3   OH237007   3.273   0.193   6.861
12377TIP3    H137008   3.243   0.202   6.770
12377TIP3    H237009   3.368   0.204   6.856
12378TIP3   OH237010   7.232   5.496   0.389
12378TIP3    H137011   7.291   5.459   0.323
12378TIP3    H237012   7.217   5.424   0.451
12379TIP3   OH237013   4.095   0.529   6.517
12379TIP3    H137014   4.073   0.483   6.436
12379TIP3    H237015   4.067   0.619   6.503
12380TIP3   OH237016   6.794   4.934   0.366
12380TIP3    H137017   6.809   4.859   0.308
12380TIP3    H237018   6.791   5.009   0.307
12381TIP3   OH237019   3.629   0.585   8.025
12381TIP3    H137020   3.696   0.604   7.959
12381TIP3    H237021   3.559   0.647   8.007
12382TIP3   OH237022   7.456   5.173   0.448
12382TIP3    H137023   7.481   5.084   0.424
12382TIP3    H237024   7.511   5.230   0.393
12383TIP3   OH237025   7.488   5.418   0.166
12383TIP3    H137026   7.426   5.469   0.114
12383TIP3    H237027   7.574   5.440   0.130
12384TIP3   OH237028   6.680   5.005   0.603
12384TIP3    H137029   6.614   4.937   0.613
12384TIP3    H237030   6.725   4.983   0.521
12385TIP3   OH237031   7.126   5.045   0.482
12385TIP3    H137032   7.078   5.026   0.562
12385TIP3    H237033   7.146   4.959   0.445
12386TIP3   OH237034   3.080   1.260   6.761
12386TIP3    H137035   3.174   1.256   6.746
12386TIP3    H237036   3.045   1.308   6.686
12387TIP3   OH237037   2.562   0.640   6.982
12387TIP3    H137038   2.654   0.663   6.967
12387TIP3    H237039   2.552   0.554   6.941
12388TIP3   OH237040   2.470   1.252   7.395
12388TIP3    H137041   2.406   1.192   7.356
12388TIP3    H237042   2.516   1.198   7.459
12389TIP3   OH237043   2.608   1.108   7.584
12389TIP3    H137044   2.601   1.030   7.639
12389TIP3    H237045   2.660   1.170   7.636
12390TIP3   OH237046   4.337   1.508   7.380
12390TIP3    H137047   4.364   1.542   7.465
12390TIP3    H237048   4.397   1.548   7.318
12391TIP3   OH237049   4.365   1.525   7.665
12391TIP3    H137050   4.323   1.439   7.656
12391TIP3    H237051   4.444   1.508   7.715
12392TIP3   OH237052   7.681   5.823   0.236
12392TIP3    H137053   7.607   5.832   0.296
12392TIP3    H237054   7.722   5.910   0.237
12393TIP3   OH237055   4.233   0.714   6.854
12393TIP3    H137056   4.296   0.780   6.824
12393TIP3    H237057   4.272   0.676   6.933
12394TIP3   OH237058   4.357   0.581   7.059
12394TIP3    H137059   4.293   0.541   7.118
12394TIP3    H237060   4.422   0.620   7.117
12395TIP3   OH237061   4.411   0.974   7.489
12395TIP3    H137062   4.462   0.911   7.440
12395TIP3    H237063   4.403   1.049   7.431
12396TIP3   OH237064   4.240   1.274   7.687
12396TIP3    H137065   4.171   1.318   7.736
12396TIP3    H237066   4.194   1.228   7.617
12397TIP3   OH237067   4.288   0.487   6.705
12397TIP3    H137068   4.223   0.496   6.636
12397TIP3    H237069   4.272   0.560   6.764
12398TIP3   OH237070   4.167   0.147   6.644
12398TIP3    H137071   4.143   0.238   6.623
12398TIP3    H237072   4.110   0.094   6.588
12399TIP3   OH237073   4.172   0.438   7.211
12399TIP3    H137074   4.182   0.343   7.214
12399TIP3    H237075   4.156   0.464   7.302
12400TIP3   OH237076   2.797   0.522   7.939
12400TIP3    H137077   2.795   0.488   7.850
12400TIP3    H237078   2.890   0.520   7.963
12401TIP3   OH237079   7.733   5.480   0.060
12401TIP3    H137080   7.803   5.416   0.046
12401TIP3    H237081   7.753   5.551  -0.001
12402TIP3   OH237082   7.915   5.274   0.076
12402TIP3    H137083   7.848   5.227   0.126
12402TIP3    H237084   7.998   5.238   0.106
12403TIP3   OH237085   4.157   0.147   7.048
12403TIP3    H137086   4.198   0.116   7.128
12403TIP3    H237087   4.227   0.193   7.001
12404TIP3   OH237088   4.336   0.363   7.600
12404TIP3    H137089   4.421   0.372   7.558
12404TIP3    H237090   4.353   0.382   7.693
12405TIP3   OH237091   4.394   0.485   7.846
12405TIP3    H137092   4.313   0.524   7.877
12405TIP3    H237093   4.432   0.552   7.789
12406TIP3   OH237094   6.094   4.780   0.049
12406TIP3    H137095   6.108   4.775  -0.045
12406TIP3    H237096   6.066   4.871   0.065
12407TIP3   OH237097   3.923   1.373   7.037
12407TIP3    H137098   3.970   1.356   6.955
12407TIP3    H237099   3.975   1.440   7.081
12408TIP3   OH237100   6.287   5.800   0.430
12408TIP3    H137101   6.199   5.769   0.408
12408TIP3    H237102   6.299   5.775   0.521
12409TIP3   OH237103   3.200   1.211   7.968
12409TIP3    H137104   3.150   1.283   7.932
12409TIP3    H237105   3.287   1.219   7.928
12410TIP3   OH237106   6.913   6.077   0.109
12410TIP3    H137107   6.954   6.074   0.196
12410TIP3    H237108   6.976   6.123   0.054
12411TIP3   OH237109   3.826   1.605   7.968
12411TIP3    H137110   3.892   1.554   7.921
12411TIP3    H237111   3.876   1.662   8.026
12412TIP3   OH237112   6.142   6.094  -0.009
12412TIP3    H137113   6.058   6.129  -0.036
12412TIP3    H237114   6.138   6.095   0.087
12413TIP3   OH237115   3.112   1.447   7.851
12413TIP3    H137116   3.029   1.461   7.897
12413TIP3    H237117   3.095   1.477   7.761
12414TIP3   OH237118   3.538   1.476   7.650
12414TIP3    H137119   3.471   1.492   7.583
12414TIP3    H237120   3.553   1.561   7.690
12415TIP3   OH237121   3.806   1.415   7.701
12415TIP3    H137122   3.713   1.429   7.681
12415TIP3    H237123   3.852   1.487   7.657
12416TIP3   OH237124   4.014   1.606   7.614
12416TIP3    H137125   4.000   1.689   7.569
12416TIP3    H237126   4.041   1.545   7.544
12417TIP3   OH237127   2.789   1.256   7.742
12417TIP3    H137128   2.814   1.233   7.832
12417TIP3    H237129   2.857   1.217   7.687
12418TIP3   OH237130   2.982   1.131   7.597
12418TIP3    H137131   2.996   1.048   7.643
12418TIP3    H237132   3.070   1.168   7.590
12419TIP3   OH237133   3.249   1.225   7.599
12419TIP3    H137134   3.277   1.135   7.582
12419TIP3    H237135   3.291   1.248   7.682
12420TIP3   OH237136   2.572   1.034   7.132
12420TIP3    H137137   2.491   0.996   7.097
12420TIP3    H237138   2.566   1.127   7.109
12421TIP3   OH237139   3.350   1.220   6.710
12421TIP3    H137140   3.436   1.246   6.677
12421TIP3    H237141   3.323   1.147   6.654
12422TIP3   OH237142   4.064   1.336   6.803
12422TIP3    H137143   4.058   1.241   6.792
12422TIP3    H237144   4.021   1.372   6.725
12423TIP3   OH237145   2.654   1.056   6.769
12423TIP3    H137146   2.653   1.086   6.860
12423TIP3    H237147   2.739   1.016   6.758
12424TIP3   OH237148   4.289   1.484   7.995
12424TIP3    H137149   4.215   1.451   7.944
12424TIP3    H237150   4.276   1.579   7.996
12425TIP3   OH237151   5.558   0.855   6.757
12425TIP3    H137152   5.535   0.947   6.742
12425TIP3    H237153   5.481   0.807   6.728
12426TIP3   OH237154   5.558   0.850   7.138
12426TIP3    H137155   5.591   0.829   7.225
12426TIP3    H237156   5.513   0.771   7.109
12427TIP3   OH237157   4.858   0.755   7.506
12427TIP3    H137158   4.893   0.689   7.567
12427TIP3    H237159   4.933   0.811   7.486
12428TIP3   OH237160   5.801   1.156   6.822
12428TIP3    H137161   5.788   1.089   6.888
12428TIP3    H237162   5.830   1.233   6.872
12429TIP3   OH237163   4.829   1.156   7.231
12429TIP3    H137164   4.820   1.061   7.233
12429TIP3    H237165   4.924   1.170   7.225
12430TIP3   OH237166   4.526   0.350   7.023
12430TIP3    H137167   4.487   0.436   7.039
12430TIP3    H237168   4.465   0.306   6.963
12431TIP3   OH237169   4.598   0.646   7.184
12431TIP3    H137170   4.645   0.573   7.223
12431TIP3    H237171   4.658   0.682   7.120
12432TIP3   OH237172   5.449   1.616   6.835
12432TIP3    H137173   5.496   1.547   6.789
12432TIP3    H237174   5.446   1.586   6.926
12433TIP3   OH237175   5.360   1.078   7.188
12433TIP3    H137176   5.393   1.002   7.141
12433TIP3    H237177   5.439   1.127   7.213
12434TIP3   OH237178   5.772   0.590   7.221
12434TIP3    H137179   5.802   0.506   7.255
12434TIP3    H237180   5.741   0.570   7.132
12435TIP3   OH237181   4.744   0.438   7.292
12435TIP3    H137182   4.821   0.418   7.345
12435TIP3    H237183   4.757   0.388   7.212
12436TIP3   OH237184   5.183   0.641   7.091
12436TIP3    H137185   5.273   0.612   7.103
12436TIP3    H237186   5.137   0.562   7.059
12437TIP3   OH237187   6.416   0.584   7.376
12437TIP3    H137188   6.356   0.654   7.351
12437TIP3    H237189   6.465   0.619   7.450
12438TIP3   OH237190   5.453   1.079   6.625
12438TIP3    H137191   5.407   1.055   6.545
12438TIP3    H237192   5.411   1.161   6.653
12439TIP3   OH237193   5.213   0.999   7.421
12439TIP3    H137194   5.150   1.062   7.457
12439TIP3    H237195   5.255   1.045   7.349
12440TIP3   OH237196   4.981   0.351   7.389
12440TIP3    H137197   5.045   0.416   7.416
12440TIP3    H237198   5.022   0.305   7.316
12441TIP3   OH237199   5.034   1.194   7.512
12441TIP3    H137200   5.015   1.278   7.471
12441TIP3    H237201   4.959   1.177   7.569
12442TIP3   OH237202   4.432   0.886   6.749
12442TIP3    H137203   4.393   0.911   6.666
12442TIP3    H237204   4.463   0.968   6.787
12443TIP3   OH237205   5.869   1.399   6.986
12443TIP3    H137206   5.782   1.390   7.027
12443TIP3    H237207   5.866   1.484   6.943
12444TIP3   OH237208   5.579   1.445   6.661
12444TIP3    H137209   5.625   1.363   6.642
12444TIP3    H237210   5.634   1.513   6.623
12445TIP3   OH237211   5.719   1.228   6.569
12445TIP3    H137212   5.669   1.153   6.536
12445TIP3    H237213   5.755   1.197   6.653
12446TIP3   OH237214   6.096   1.312   7.331
12446TIP3    H137215   6.087   1.237   7.272
12446TIP3    H237216   6.081   1.388   7.274
12447TIP3   OH237217   5.388   0.706   6.587
12447TIP3    H137218   5.308   0.755   6.571
12447TIP3    H237219   5.432   0.705   6.502
12448TIP3   OH237220   5.345   0.494   6.312
12448TIP3    H137221   5.417   0.540   6.356
12448TIP3    H237222   5.388   0.426   6.261
12449TIP3   OH237223   6.290   0.945   7.174
12449TIP3    H137224   6.210   0.997   7.183
12449TIP3    H237225   6.324   0.969   7.088
12450TIP3   OH237226   5.739   0.788   6.565
12450TIP3    H137227   5.683   0.814   6.638
12450TIP3    H237228   5.821   0.761   6.606
12451TIP3   OH237229   5.968   0.836   7.468
12451TIP3    H137230   5.971   0.916   7.520
12451TIP3    H237231   5.887   0.843   7.418
12452TIP3   OH237232   4.972   0.786   6.977
12452TIP3    H137233   4.928   0.731   6.912
12452TIP3    H237234   5.045   0.733   7.008
12453TIP3   OH237235   5.099   1.195   7.127
12453TIP3    H137236   5.079   1.154   7.043
12453TIP3    H237237   5.188   1.166   7.148
12454TIP3   OH237238   5.106   0.756   7.335
12454TIP3    H137239   5.136   0.732   7.247
12454TIP3    H237240   5.151   0.839   7.353
12455TIP3   OH237241   5.630   1.395   7.109
12455TIP3    H137242   5.618   1.475   7.160
12455TIP3    H237243   5.616   1.325   7.173
12456TIP3   OH237244   5.242   1.314   7.655
12456TIP3    H137245   5.188   1.377   7.703
12456TIP3    H237246   5.178   1.261   7.607
12457TIP3   OH237247   5.589   0.635   6.390
12457TIP3    H137248   5.640   0.695   6.444
12457TIP3    H237249   5.609   0.660   6.300
12458TIP3   OH237250   4.980   0.877   7.760
12458TIP3    H137251   4.990   0.961   7.807
12458TIP3    H237252   4.887   0.857   7.767
12459TIP3   OH237253   5.320   1.329   6.662
12459TIP3    H137254   5.399   1.380   6.681
12459TIP3    H237255   5.259   1.391   6.624
12460TIP3   OH237256   5.036   1.482   7.741
12460TIP3    H137257   5.004   1.481   7.651
12460TIP3    H237258   4.959   1.462   7.794
12461TIP3   OH237259   4.834   0.637   6.782
12461TIP3    H137260   4.766   0.672   6.725
12461TIP3    H237261   4.809   0.545   6.794
12462TIP3   OH237262   5.893   1.257   5.981
12462TIP3    H137263   5.898   1.351   5.969
12462TIP3    H237264   5.984   1.227   5.971
12463TIP3   OH237265   4.614   1.014   7.689
12463TIP3    H137266   4.552   0.994   7.619
12463TIP3    H237267   4.650   0.929   7.714
12464TIP3   OH237268   4.472   1.206   7.326
12464TIP3    H137269   4.567   1.198   7.311
12464TIP3    H237270   4.463   1.286   7.378
12465TIP3   OH237271   6.333   1.656   7.376
12465TIP3    H137272   6.338   1.562   7.396
12465TIP3    H237273   6.255   1.686   7.421
12466TIP3   OH237274   5.440   1.446   7.513
12466TIP3    H137275   5.443   1.537   7.544
12466TIP3    H237276   5.373   1.404   7.567
12467TIP3   OH237277   5.200   1.573   6.464
12467TIP3    H137278   5.157   1.556   6.381
12467TIP3    H237279   5.171   1.661   6.488
12468TIP3   OH237280   4.639   1.421   6.850
12468TIP3    H137281   4.689   1.414   6.932
12468TIP3    H237282   4.579   1.346   6.853
12469TIP3   OH237283   5.405   1.472   6.106
12469TIP3    H137284   5.462   1.405   6.069
12469TIP3    H237285   5.436   1.484   6.195
12470TIP3   OH237286   5.452   1.521   6.377
12470TIP3    H137287   5.365   1.531   6.417
12470TIP3    H237288   5.506   1.484   6.447
12471TIP3   OH237289   6.226   0.779   7.671
12471TIP3    H137290   6.159   0.822   7.617
12471TIP3    H237291   6.251   0.702   7.620
12472TIP3   OH237292   4.822   1.196   7.681
12472TIP3    H137293   4.872   1.181   7.761
12472TIP3    H237294   4.749   1.134   7.686
12473TIP3   OH237295   5.885   0.648   7.656
12473TIP3    H137296   5.946   0.575   7.653
12473TIP3    H237297   5.916   0.708   7.588
12474TIP3   OH237298   5.660   0.681   6.129
12474TIP3    H137299   5.621   0.665   6.043
12474TIP3    H237300   5.727   0.748   6.112
12475TIP3   OH237301   5.158   0.536   7.487
12475TIP3    H137302   5.101   0.555   7.561
12475TIP3    H237303   5.146   0.610   7.428
12476TIP3   OH237304   5.022   0.443   6.987
12476TIP3    H137305   4.948   0.394   7.021
12476TIP3    H237306   5.047   0.397   6.906
12477TIP3   OH237307   5.532   0.513   6.718
12477TIP3    H137308   5.477   0.584   6.684
12477TIP3    H237309   5.577   0.479   6.640
12478TIP3   OH237310   5.715   0.846   7.777
12478TIP3    H137311   5.690   0.780   7.842
12478TIP3    H237312   5.809   0.833   7.765
12479TIP3   OH237313   5.688   0.536   6.959
12479TIP3    H137314   5.630   0.571   6.892
12479TIP3    H237315   5.719   0.453   6.923
12480TIP3   OH237316   4.976   0.577   7.686
12480TIP3    H137317   4.992   0.634   7.761
12480TIP3    H237318   4.941   0.496   7.725
12481TIP3   OH237319   5.694   0.788   7.386
12481TIP3    H137320   5.725   0.717   7.329
12481TIP3    H237321   5.671   0.744   7.468
12482TIP3   OH237322   4.792   0.296   7.063
12482TIP3    H137323   4.700   0.314   7.042
12482TIP3    H237324   4.803   0.203   7.046
12483TIP3   OH237325   5.082   0.314   6.751
12483TIP3    H137326   5.168   0.293   6.716
12483TIP3    H237327   5.023   0.308   6.675
12484TIP3   OH237328   4.895   0.332   6.527
12484TIP3    H137329   4.841   0.278   6.469
12484TIP3    H237330   4.960   0.372   6.469
12485TIP3   OH237331   6.026   2.010   7.476
12485TIP3    H137332   6.024   2.032   7.383
12485TIP3    H237333   6.104   2.053   7.510
12486TIP3   OH237334   4.982   1.118   7.904
12486TIP3    H137335   5.065   1.145   7.943
12486TIP3    H237336   4.919   1.122   7.976
12487TIP3   OH237337   5.451   0.574   7.159
12487TIP3    H137338   5.511   0.523   7.105
12487TIP3    H237339   5.447   0.527   7.242
12488TIP3   OH237340   5.427   0.457   7.467
12488TIP3    H137341   5.341   0.499   7.464
12488TIP3    H237342   5.482   0.518   7.514
12489TIP3   OH237343   5.159   0.858   6.541
12489TIP3    H137344   5.089   0.794   6.527
12489TIP3    H237345   5.143   0.893   6.629
12490TIP3   OH237346   6.062   1.094   7.166
12490TIP3    H137347   6.087   1.144   7.088
12490TIP3    H237348   5.977   1.055   7.144
12491TIP3   OH237349   5.557   1.177   7.537
12491TIP3    H137350   5.589   1.158   7.625
12491TIP3    H237351   5.523   1.266   7.542
12492TIP3   OH237352   5.685   0.388   6.486
12492TIP3    H137353   5.778   0.401   6.501
12492TIP3    H237354   5.655   0.468   6.443
12493TIP3   OH237355   4.853   0.875   7.213
12493TIP3    H137356   4.889   0.854   7.127
12493TIP3    H237357   4.896   0.816   7.274
12494TIP3   OH237358   5.304   1.010   6.361
12494TIP3    H137359   5.259   1.095   6.364
12494TIP3    H237360   5.252   0.953   6.418
12495TIP3   OH237361   4.722   0.804   7.834
12495TIP3    H137362   4.750   0.787   7.924
12495TIP3    H237363   4.656   0.736   7.817
12496TIP3   OH237364   5.458   0.919   7.853
12496TIP3    H137365   5.390   0.871   7.807
12496TIP3    H237366   5.538   0.899   7.805
12497TIP3   OH237367   5.719   1.433   7.435
12497TIP3    H137368   5.623   1.436   7.444
12497TIP3    H237369   5.752   1.485   7.508
12498TIP3   OH237370   6.137   0.504   6.328
12498TIP3    H137371   6.080   0.454   6.270
12498TIP3    H237372   6.131   0.594   6.294
12499TIP3   OH237373   6.345   1.358   7.421
12499TIP3    H137374   6.250   1.361   7.415
12499TIP3    H237375   6.374   1.335   7.333
12500TIP3   OH237376   5.828   1.328   6.246
12500TIP3    H137377   5.806   1.261   6.310
12500TIP3    H237378   5.843   1.279   6.165
12501TIP3   OH237379   5.825   0.955   7.087
12501TIP3    H137380   5.733   0.933   7.101
12501TIP3    H237381   5.861   0.879   7.042
12502TIP3   OH237382   4.952   1.185   6.837
12502TIP3    H137383   4.956   1.266   6.786
12502TIP3    H237384   4.858   1.169   6.849
12503TIP3   OH237385   4.516   0.488   6.544
12503TIP3    H137386   4.566   0.568   6.559
12503TIP3    H237387   4.441   0.495   6.603
12504TIP3   OH237388   5.093   0.952   6.785
12504TIP3    H137389   5.058   1.039   6.801
12504TIP3    H237390   5.059   0.899   6.857
12505TIP3   OH237391   5.225   1.529   7.309
12505TIP3    H137392   5.262   1.601   7.259
12505TIP3    H237393   5.298   1.494   7.360
12506TIP3   OH237394   4.873   1.426   6.693
12506TIP3    H137395   4.788   1.432   6.737
12506TIP3    H237396   4.907   1.516   6.694
12507TIP3   OH237397   5.612   1.161   7.269
12507TIP3    H137398   5.600   1.162   7.364
12507TIP3    H237399   5.694   1.114   7.255
12508TIP3   OH237400   5.584   1.047   6.152
12508TIP3    H137401   5.637   1.027   6.229
12508TIP3    H237402   5.494   1.031   6.180
12509TIP3   OH237403   5.858   1.696   7.315
12509TIP3    H137404   5.780   1.641   7.309
12509TIP3    H237405   5.846   1.762   7.246
12510TIP3   OH237406   5.924   1.534   5.970
12510TIP3    H137407   5.965   1.602   5.916
12510TIP3    H237408   5.845   1.575   6.004
12511TIP3   OH237409   5.748   0.982   6.364
12511TIP3    H137410   5.735   0.922   6.438
12511TIP3    H237411   5.843   0.987   6.353
12512TIP3   OH237412   4.660   1.392   7.471
12512TIP3    H137413   4.714   1.317   7.497
12512TIP3    H237414   4.692   1.464   7.526
12513TIP3   OH237415   4.952   1.034   6.150
12513TIP3    H137416   4.966   0.945   6.120
12513TIP3    H237417   4.934   1.026   6.244
12514TIP3   OH237418   4.898   1.043   6.422
12514TIP3    H137419   4.968   1.014   6.482
12514TIP3    H237420   4.900   1.138   6.427
12515TIP3   OH237421   4.628   0.736   6.622
12515TIP3    H137422   4.566   0.778   6.682
12515TIP3    H237423   4.648   0.802   6.556
12516TIP3   OH237424   5.161   1.240   6.369
12516TIP3    H137425   5.076   1.265   6.407
12516TIP3    H237426   5.182   1.312   6.310
12517TIP3   OH237427   5.377   0.296   6.784
12517TIP3    H137428   5.416   0.381   6.766
12517TIP3    H237429   5.332   0.307   6.868
12518TIP3   OH237430   5.612   0.611   7.619
12518TIP3    H137431   5.613   0.686   7.678
12518TIP3    H237432   5.700   0.574   7.626
12519TIP3   OH237433   4.904   1.315   6.438
12519TIP3    H137434   4.877   1.382   6.375
12519TIP3    H237435   4.890   1.357   6.523
12520TIP3   OH237436   5.912   0.718   6.960
12520TIP3    H137437   5.840   0.658   6.976
12520TIP3    H237438   5.987   0.679   7.006
12521TIP3   OH237439   4.626   0.946   6.429
12521TIP3    H137440   4.686   1.020   6.441
12521TIP3    H237441   4.669   0.891   6.364
12522TIP3   OH237442   4.545   0.198   6.545
12522TIP3    H137443   4.595   0.279   6.545
12522TIP3    H237444   4.463   0.220   6.589
12523TIP3   OH237445   5.882   1.671   6.908
12523TIP3    H137446   5.837   1.715   6.836
12523TIP3    H237447   5.975   1.688   6.892
12524TIP3   OH237448   4.493   1.157   6.819
12524TIP3    H137449   4.422   1.189   6.874
12524TIP3    H237450   4.476   1.196   6.733
12525TIP3   OH237451   4.654   1.698   7.894
12525TIP3    H137452   4.739   1.701   7.938
12525TIP3    H237453   4.634   1.604   7.887
12526TIP3   OH237454   5.131   1.667   7.932
12526TIP3    H137455   5.224   1.654   7.950
12526TIP3    H237456   5.112   1.608   7.859
12527TIP3   OH237457   5.115   1.238   6.062
12527TIP3    H137458   5.058   1.172   6.100
12527TIP3    H237459   5.191   1.189   6.030
12528TIP3   OH237460   5.778   1.568   7.666
12528TIP3    H137461   5.765   1.502   7.734
12528TIP3    H237462   5.852   1.620   7.696
12529TIP3   OH237463   5.552   1.280   5.972
12529TIP3    H137464   5.600   1.222   6.031
12529TIP3    H237465   5.606   1.284   5.893
12530TIP3   OH237466   8.045   5.724   0.090
12530TIP3    H137467   8.067   5.630   0.093
12530TIP3    H237468   7.962   5.728   0.044
12531TIP3   OH237469   4.762   0.756   6.283
12531TIP3    H137470   4.813   0.724   6.357
12531TIP3    H237471   4.825   0.763   6.211
12532TIP3   OH237472   5.388   1.189   7.864
12532TIP3    H137473   5.351   1.205   7.777
12532TIP3    H237474   5.423   1.100   7.860
12533TIP3   OH237475   5.267   0.956   6.092
12533TIP3    H137476   5.270   0.972   6.186
12533TIP3    H237477   5.267   0.861   6.084
12534TIP3   OH237478   5.882   1.200   7.466
12534TIP3    H137479   5.958   1.243   7.425
12534TIP3    H237480   5.812   1.264   7.459
12535TIP3   OH237481   8.166   5.451   0.075
12535TIP3    H137482   8.245   5.405   0.045
12535TIP3    H237483   8.189   5.486   0.160
12536TIP3   OH237484   4.967   0.660   6.506
12536TIP3    H137485   4.943   0.621   6.590
12536TIP3    H237486   5.003   0.587   6.455
12537TIP3   OH237487   5.241   0.792   7.726
12537TIP3    H137488   5.153   0.829   7.731
12537TIP3    H237489   5.265   0.799   7.634
12538TIP3   OH237490   5.068   0.456   6.349
12538TIP3    H137491   5.042   0.455   6.257
12538TIP3    H237492   5.163   0.461   6.347
12539TIP3   OH237493   5.754   1.133   7.874
12539TIP3    H137494   5.832   1.110   7.824
12539TIP3    H237495   5.746   1.064   7.939
12540TIP3   OH237496   5.895   0.786   6.001
12540TIP3    H137497   5.868   0.742   5.921
12540TIP3    H237498   5.865   0.876   5.989
12541TIP3   OH237499   5.316   0.562   7.847
12541TIP3    H137500   5.358   0.498   7.789
12541TIP3    H237501   5.311   0.642   7.794
12542TIP3   OH237502   5.416   0.833   7.505
12542TIP3    H137503   5.496   0.856   7.457
12542TIP3    H237504   5.355   0.904   7.485
12543TIP3   OH237505   5.974   0.812   7.926
12543TIP3    H137506   6.024   0.731   7.927
12543TIP3    H237507   6.036   0.879   7.897
12544TIP3   OH237508   6.017   1.051   7.646
12544TIP3    H137509   5.955   1.105   7.596
12544TIP3    H237510   6.103   1.077   7.612
12545TIP3   OH237511   8.481   5.260   0.085
12545TIP3    H137512   8.413   5.193   0.090
12545TIP3    H237513   8.527   5.242   0.003
12546TIP3   OH237514   5.632   0.654   7.946
12546TIP3    H137515   5.566   0.685   8.009
12546TIP3    H237516   5.710   0.639   7.999
12547TIP3   OH237517   4.876   1.515   6.247
12547TIP3    H137518   4.970   1.511   6.234
12547TIP3    H237519   4.843   1.565   6.172
12548TIP3   OH237520   4.357   0.897   6.467
12548TIP3    H137521   4.449   0.922   6.455
12548TIP3    H237522   4.350   0.810   6.426
12549TIP3   OH237523   4.268   1.508   6.881
12549TIP3    H137524   4.202   1.449   6.844
12549TIP3    H237525   4.313   1.454   6.946
12550TIP3   OH237526   4.407   1.363   7.068
12550TIP3    H137527   4.394   1.288   7.127
12550TIP3    H237528   4.458   1.425   7.120
12551TIP3   OH237529   6.133   1.763   6.867
12551TIP3    H137530   6.157   1.794   6.954
12551TIP3    H237531   6.193   1.809   6.808
12552TIP3   OH237532   6.163   1.779   7.148
12552TIP3    H137533   6.120   1.694   7.144
12552TIP3    H237534   6.238   1.766   7.207
12553TIP3   OH237535   6.207   1.460   7.723
12553TIP3    H137536   6.135   1.469   7.786
12553TIP3    H237537   6.252   1.544   7.725
12554TIP3   OH237538   6.030   0.969   6.340
12554TIP3    H137539   6.092   1.036   6.311
12554TIP3    H237540   6.068   0.933   6.420
12555TIP3   OH237541   6.153   0.836   6.546
12555TIP3    H137542   6.089   0.799   6.606
12555TIP3    H237543   6.219   0.876   6.602
12556TIP3   OH237544   6.206   1.231   6.975
12556TIP3    H137545   6.259   1.168   6.926
12556TIP3    H237546   6.198   1.306   6.917
12557TIP3   OH237547   6.036   1.531   7.173
12557TIP3    H137548   5.970   1.576   7.225
12557TIP3    H237549   5.987   1.485   7.105
12558TIP3   OH237550   6.083   0.741   6.192
12558TIP3    H137551   6.019   0.753   6.122
12558TIP3    H237552   6.069   0.815   6.251
12559TIP3   OH237553   5.974   0.401   6.125
12559TIP3    H137554   5.960   0.488   6.089
12559TIP3    H237555   5.887   0.361   6.126
12560TIP3   OH237556   5.968   0.692   6.698
12560TIP3    H137557   5.982   0.598   6.706
12560TIP3    H237558   5.951   0.721   6.788
12561TIP3   OH237559   4.595   0.765   7.438
12561TIP3    H137560   4.591   0.738   7.347
12561TIP3    H237561   4.689   0.771   7.457
12562TIP3   OH237562   6.262   1.116   7.547
12562TIP3    H137563   6.333   1.054   7.533
12562TIP3    H237564   6.284   1.192   7.493
12563TIP3   OH237565   6.443   0.908   7.557
12563TIP3    H137566   6.379   0.866   7.615
12563TIP3    H237567   6.528   0.884   7.593
12564TIP3   OH237568   5.954   0.400   6.531
12564TIP3    H137569   5.991   0.371   6.614
12564TIP3    H237570   6.023   0.453   6.491
12565TIP3   OH237571   6.132   0.618   7.087
12565TIP3    H137572   6.218   0.628   7.046
12565TIP3    H237573   6.146   0.640   7.179
12566TIP3   OH237574   6.190   0.741   7.331
12566TIP3    H137575   6.109   0.780   7.364
12566TIP3    H237576   6.228   0.808   7.275
12567TIP3   OH237577   4.587   0.428   7.519
12567TIP3    H137578   4.631   0.413   7.435
12567TIP3    H237579   4.608   0.519   7.541
12568TIP3   OH237580   5.718   1.629   6.522
12568TIP3    H137581   5.768   1.615   6.442
12568TIP3    H237582   5.766   1.696   6.570
12569TIP3   OH237583   4.816   1.432   7.908
12569TIP3    H137584   4.725   1.404   7.894
12569TIP3    H237585   4.832   1.418   8.001
12570TIP3   OH237586   4.995   1.466   7.452
12570TIP3    H137587   4.947   1.540   7.417
12570TIP3    H237588   5.083   1.474   7.414
12571TIP3   OH237589   5.443   1.712   7.593
12571TIP3    H137590   5.480   1.708   7.681
12571TIP3    H237591   5.507   1.762   7.542
12572TIP3   OH237592   5.624   1.862   7.453
12572TIP3    H137593   5.694   1.810   7.413
12572TIP3    H237594   5.669   1.919   7.515
12573TIP3   OH237595   4.669   1.722   7.482
12573TIP3    H137596   4.584   1.755   7.456
12573TIP3    H237597   4.685   1.760   7.568
12574TIP3   OH237598   4.906   1.700   7.337
12574TIP3    H137599   4.823   1.713   7.382
12574TIP3    H237600   4.891   1.733   7.249
12575TIP3   OH237601   5.334   1.732   7.135
12575TIP3    H137602   5.266   1.752   7.070
12575TIP3    H237603   5.349   1.816   7.180
12576TIP3   OH237604   5.602   1.669   7.184
12576TIP3    H137605   5.509   1.686   7.168
12576TIP3    H237606   5.647   1.745   7.148
12577TIP3   OH237607   5.809   1.862   7.100
12577TIP3    H137608   5.797   1.946   7.057
12577TIP3    H237609   5.837   1.802   7.030
12578TIP3   OH237610   4.586   1.513   7.227
12578TIP3    H137611   4.610   1.493   7.317
12578TIP3    H237612   4.655   1.474   7.174
12579TIP3   OH237613   4.779   1.386   7.083
12579TIP3    H137614   4.793   1.304   7.129
12579TIP3    H237615   4.866   1.425   7.077
12580TIP3   OH237616   5.044   1.481   7.087
12580TIP3    H137617   5.074   1.392   7.071
12580TIP3    H237618   5.086   1.507   7.169
12581TIP3   OH237619   4.369   1.289   6.618
12581TIP3    H137620   4.286   1.254   6.584
12581TIP3    H237621   4.364   1.383   6.600
12582TIP3   OH237622   5.146   1.476   6.196
12582TIP3    H137623   5.232   1.502   6.164
12582TIP3    H237624   5.120   1.403   6.140
12583TIP3   OH237625   5.861   1.594   6.289
12583TIP3    H137626   5.854   1.499   6.279
12583TIP3    H237627   5.818   1.630   6.212
12584TIP3   OH237628   4.448   1.311   6.257
12584TIP3    H137629   4.448   1.343   6.347
12584TIP3    H237630   4.535   1.272   6.245
12585TIP3   OH237631   6.089   1.743   7.474
12585TIP3    H137632   6.011   1.708   7.431
12585TIP3    H237633   6.072   1.836   7.483
12586TIP3   OH237634   7.354   1.112   6.245
12586TIP3    H137635   7.331   1.204   6.228
12586TIP3    H237636   7.278   1.062   6.214
12587TIP3   OH237637   7.355   1.108   6.625
12587TIP3    H137638   7.388   1.083   6.711
12587TIP3    H237639   7.310   1.030   6.592
12588TIP3   OH237640   6.655   1.009   6.990
12588TIP3    H137641   6.689   0.945   7.053
12588TIP3    H237642   6.726   1.073   6.980
12589TIP3   OH237643   7.597   1.413   6.309
12589TIP3    H137644   7.583   1.344   6.373
12589TIP3    H237645   7.625   1.489   6.360
12590TIP3   OH237646   6.625   1.412   6.715
12590TIP3    H137647   6.615   1.317   6.718
12590TIP3    H237648   6.720   1.426   6.714
12591TIP3   OH237649   6.323   0.606   6.509
12591TIP3    H137650   6.285   0.692   6.527
12591TIP3    H237651   6.261   0.565   6.449
12592TIP3   OH237652   6.394   0.902   6.669
12592TIP3    H137653   6.442   0.829   6.709
12592TIP3    H237654   6.457   0.942   6.609
12593TIP3   OH237655   7.246   1.874   6.323
12593TIP3    H137656   7.293   1.805   6.276
12593TIP3    H237657   7.240   1.842   6.413
12594TIP3   OH237658   7.156   1.335   6.674
12594TIP3    H137659   7.189   1.259   6.627
12594TIP3    H237660   7.235   1.384   6.699
12595TIP3   OH237661   7.565   0.845   6.708
12595TIP3    H137662   7.600   0.761   6.738
12595TIP3    H237663   7.537   0.829   6.618
12596TIP3   OH237664   6.541   0.695   6.779
12596TIP3    H137665   6.617   0.675   6.832
12596TIP3    H237666   6.554   0.646   6.698
12597TIP3   OH237667   6.979   0.897   6.575
12597TIP3    H137668   7.070   0.869   6.589
12597TIP3    H237669   6.934   0.818   6.544
12598TIP3   OH237670   8.213   0.840   6.863
12598TIP3    H137671   8.152   0.909   6.837
12598TIP3    H237672   8.261   0.876   6.938
12599TIP3   OH237673   7.248   1.336   6.113
12599TIP3    H137674   7.204   1.311   6.033
12599TIP3    H237675   7.207   1.418   6.140
12600TIP3   OH237676   7.009   1.254   6.909
12600TIP3    H137677   6.946   1.317   6.945
12600TIP3    H237678   7.051   1.302   6.837
12601TIP3   OH237679   6.778   0.605   6.875
12601TIP3    H137680   6.839   0.672   6.905
12601TIP3    H237681   6.821   0.564   6.800
12602TIP3   OH237682   6.831   1.449   6.998
12602TIP3    H137683   6.812   1.535   6.959
12602TIP3    H237684   6.757   1.431   7.055
12603TIP3   OH237685   6.229   1.143   6.235
12603TIP3    H137686   6.189   1.169   6.152
12603TIP3    H237687   6.260   1.225   6.274
12604TIP3   OH237688   7.667   1.657   6.475
12604TIP3    H137689   7.580   1.646   6.515
12604TIP3    H237690   7.662   1.741   6.431
12605TIP3   OH237691   7.375   1.702   6.149
12605TIP3    H137692   7.420   1.620   6.130
12605TIP3    H237693   7.430   1.769   6.110
12606TIP3   OH237694   7.515   1.486   6.056
12606TIP3    H137695   7.471   1.410   6.018
12606TIP3    H237696   7.550   1.454   6.139
12607TIP3   OH237697   7.894   1.569   6.817
12607TIP3    H137698   7.883   1.493   6.760
12607TIP3    H237699   7.877   1.644   6.760
12608TIP3   OH237700   7.185   0.963   6.074
12608TIP3    H137701   7.105   1.013   6.056
12608TIP3    H237702   7.231   0.960   5.991
12609TIP3   OH237703   7.143   0.747   5.798
12609TIP3    H137704   7.212   0.797   5.842
12609TIP3    H237705   7.191   0.682   5.745
12610TIP3   OH237706   8.087   1.204   6.663
12610TIP3    H137707   8.006   1.254   6.671
12610TIP3    H237708   8.120   1.225   6.576
12611TIP3   OH237709   7.534   1.045   6.051
12611TIP3    H137710   7.479   1.070   6.125
12611TIP3    H237711   7.617   1.018   6.091
12612TIP3   OH237712   7.764   1.093   6.955
12612TIP3    H137713   7.766   1.175   7.005
12612TIP3    H237714   7.683   1.098   6.905
12613TIP3   OH237715   6.768   1.042   6.464
12613TIP3    H137716   6.725   0.987   6.399
12613TIP3    H237717   6.842   0.989   6.494
12614TIP3   OH237718   6.897   1.454   6.612
12614TIP3    H137719   6.875   1.410   6.530
12614TIP3    H237720   6.985   1.423   6.633
12615TIP3   OH237721   6.906   1.011   6.821
12615TIP3    H137722   6.935   0.989   6.732
12615TIP3    H237723   6.947   1.095   6.840
12616TIP3   OH237724   7.428   1.652   6.597
12616TIP3    H137725   7.414   1.732   6.647
12616TIP3    H237726   7.412   1.581   6.659
12617TIP3   OH237727   7.036   1.571   7.141
12617TIP3    H137728   6.982   1.633   7.190
12617TIP3    H237729   6.973   1.517   7.094
12618TIP3   OH237730   7.381   0.896   5.875
12618TIP3    H137731   7.435   0.953   5.929
12618TIP3    H237732   7.403   0.919   5.785
12619TIP3   OH237733   6.775   1.136   7.244
12619TIP3    H137734   6.785   1.219   7.290
12619TIP3    H237735   6.683   1.113   7.256
12620TIP3   OH237736   7.117   1.585   6.148
12620TIP3    H137737   7.195   1.637   6.168
12620TIP3    H237738   7.055   1.647   6.112
12621TIP3   OH237739   6.832   1.737   7.230
12621TIP3    H137740   6.796   1.737   7.141
12621TIP3    H237741   6.757   1.717   7.287
12622TIP3   OH237742   6.631   0.894   6.267
12622TIP3    H137743   6.563   0.929   6.210
12622TIP3    H237744   6.604   0.803   6.283
12623TIP3   OH237745   7.690   1.513   5.469
12623TIP3    H137746   7.695   1.608   5.456
12623TIP3    H237747   7.780   1.483   5.457
12624TIP3   OH237748   6.411   1.270   7.176
12624TIP3    H137749   6.348   1.249   7.107
12624TIP3    H237750   6.447   1.185   7.202
12625TIP3   OH237751   6.269   1.463   6.812
12625TIP3    H137752   6.364   1.458   6.801
12625TIP3    H237753   6.255   1.542   6.865
12626TIP3   OH237754   8.131   1.913   6.867
12626TIP3    H137755   8.131   1.818   6.878
12626TIP3    H237756   8.050   1.941   6.909
12627TIP3   OH237757   7.236   1.701   7.001
12627TIP3    H137758   7.239   1.792   7.031
12627TIP3    H237759   7.168   1.660   7.054
12628TIP3   OH237760   6.996   1.831   5.950
12628TIP3    H137761   6.951   1.813   5.868
12628TIP3    H237762   6.966   1.918   5.975
12629TIP3   OH237763   6.436   1.677   6.337
12629TIP3    H137764   6.486   1.671   6.419
12629TIP3    H237765   6.373   1.605   6.342
12630TIP3   OH237766   7.201   1.729   5.593
12630TIP3    H137767   7.258   1.662   5.556
12630TIP3    H237768   7.232   1.740   5.682
12631TIP3   OH237769   7.248   1.778   5.864
12631TIP3    H137770   7.161   1.788   5.903
12631TIP3    H237771   7.301   1.739   5.933
12632TIP3   OH237772   8.022   1.039   7.155
12632TIP3    H137773   7.953   1.078   7.103
12632TIP3    H237774   8.044   0.957   7.109
12633TIP3   OH237775   6.619   1.451   7.166
12633TIP3    H137776   6.667   1.441   7.248
12633TIP3    H237777   6.544   1.391   7.174
12634TIP3   OH237778   7.684   0.904   7.144
12634TIP3    H137779   7.741   0.827   7.136
12634TIP3    H237780   7.713   0.962   7.074
12635TIP3   OH237781   7.453   0.944   5.616
12635TIP3    H137782   7.416   0.924   5.531
12635TIP3    H237783   7.527   1.002   5.597
12636TIP3   OH237784   6.954   0.791   6.974
12636TIP3    H137785   6.898   0.811   7.049
12636TIP3    H237786   6.941   0.865   6.915
12637TIP3   OH237787   6.818   0.699   6.474
12637TIP3    H137788   6.743   0.650   6.507
12637TIP3    H237789   6.843   0.653   6.394
12638TIP3   OH237790   7.329   0.768   6.204
12638TIP3    H137791   7.275   0.839   6.168
12638TIP3    H237792   7.376   0.733   6.129
12639TIP3   OH237793   7.508   1.095   7.259
12639TIP3    H137794   7.489   1.049   7.340
12639TIP3    H237795   7.603   1.090   7.250
12640TIP3   OH237796   7.484   0.792   6.446
12640TIP3    H137797   7.426   0.828   6.379
12640TIP3    H237798   7.518   0.711   6.407
12641TIP3   OH237799   6.772   0.834   7.173
12641TIP3    H137800   6.788   0.893   7.246
12641TIP3    H237801   6.735   0.755   7.213
12642TIP3   OH237802   7.495   1.045   6.873
12642TIP3    H137803   7.523   0.972   6.817
12642TIP3    H237804   7.463   1.003   6.953
12643TIP3   OH237805   6.588   0.552   6.549
12643TIP3    H137806   6.497   0.571   6.528
12643TIP3    H237807   6.598   0.458   6.534
12644TIP3   OH237808   6.877   0.568   6.238
12644TIP3    H137809   6.966   0.550   6.207
12644TIP3    H237810   6.822   0.563   6.160
12645TIP3   OH237811   6.689   0.589   6.011
12645TIP3    H137812   6.635   0.539   5.950
12645TIP3    H237813   6.756   0.630   5.957
12646TIP3   OH237814   7.823   2.265   6.962
12646TIP3    H137815   7.819   2.288   6.869
12646TIP3    H237816   7.898   2.314   6.996
12647TIP3   OH237817   6.779   1.374   7.389
12647TIP3    H137818   6.860   1.405   7.431
12647TIP3    H237819   6.714   1.376   7.459
12648TIP3   OH237820   7.247   0.831   6.646
12648TIP3    H137821   7.308   0.781   6.593
12648TIP3    H237822   7.243   0.783   6.729
12649TIP3   OH237823   7.224   0.716   6.950
12649TIP3    H137824   7.137   0.756   6.950
12649TIP3    H237825   7.278   0.776   7.001
12650TIP3   OH237826   6.955   1.115   6.027
12650TIP3    H137827   6.885   1.051   6.014
12650TIP3    H237828   6.940   1.150   6.115
12651TIP3   OH237829   7.858   1.351   6.653
12651TIP3    H137830   7.883   1.400   6.575
12651TIP3    H237831   7.774   1.311   6.631
12652TIP3   OH237832   7.359   1.436   7.023
12652TIP3    H137833   7.378   1.412   7.114
12652TIP3    H237834   7.317   1.522   7.029
12653TIP3   OH237835   7.477   0.650   5.981
12653TIP3    H137836   7.571   0.659   5.993
12653TIP3    H237837   7.451   0.727   5.930
12654TIP3   OH237838   6.648   1.131   6.700
12654TIP3    H137839   6.686   1.109   6.615
12654TIP3    H237840   6.691   1.072   6.762
12655TIP3   OH237841   7.099   1.266   5.847
12655TIP3    H137842   7.055   1.351   5.851
12655TIP3    H237843   7.049   1.210   5.905
12656TIP3   OH237844   6.520   1.058   7.319
12656TIP3    H137845   6.547   1.045   7.410
12656TIP3    H237846   6.451   0.993   7.305
12657TIP3   OH237847   7.255   1.180   7.339
12657TIP3    H137848   7.183   1.135   7.295
12657TIP3    H237849   7.333   1.153   7.290
12658TIP3   OH237850   7.516   1.693   6.919
12658TIP3    H137851   7.421   1.691   6.929
12658TIP3    H237852   7.547   1.744   6.994
12659TIP3   OH237853   7.927   0.763   5.822
12659TIP3    H137854   7.870   0.712   5.764
12659TIP3    H237855   7.927   0.851   5.785
12660TIP3   OH237856   8.143   1.619   6.906
12660TIP3    H137857   8.047   1.618   6.901
12660TIP3    H237858   8.173   1.593   6.819
12661TIP3   OH237859   7.625   1.584   5.733
12661TIP3    H137860   7.602   1.516   5.797
12661TIP3    H237861   7.639   1.537   5.652
12662TIP3   OH237862   7.622   1.211   6.575
12662TIP3    H137863   7.529   1.190   6.587
12662TIP3    H237864   7.658   1.135   6.529
12663TIP3   OH237865   6.748   1.441   6.322
12663TIP3    H137866   6.751   1.523   6.272
12663TIP3    H237867   6.654   1.427   6.338
12664TIP3   OH237868   6.309   0.747   6.027
12664TIP3    H137869   6.361   0.825   6.043
12664TIP3    H237870   6.236   0.754   6.088
12665TIP3   OH237871   6.889   1.208   6.272
12665TIP3    H137872   6.854   1.296   6.287
12665TIP3    H237873   6.855   1.155   6.344
12666TIP3   OH237874   7.020   1.786   6.795
12666TIP3    H137875   7.059   1.859   6.746
12666TIP3    H237876   7.093   1.751   6.846
12667TIP3   OH237877   6.669   1.682   6.179
12667TIP3    H137878   6.584   1.688   6.224
12667TIP3    H237879   6.702   1.772   6.180
12668TIP3   OH237880   7.408   1.417   6.755
12668TIP3    H137881   7.398   1.420   6.851
12668TIP3    H237882   7.489   1.368   6.741
12669TIP3   OH237883   7.381   1.308   5.639
12669TIP3    H137884   7.435   1.287   5.715
12669TIP3    H237885   7.291   1.286   5.667
12670TIP3   OH237886   7.655   1.953   6.802
12670TIP3    H137887   7.578   1.897   6.798
12670TIP3    H237888   7.641   2.018   6.733
12671TIP3   OH237889   7.720   1.791   5.457
12671TIP3    H137890   7.763   1.860   5.406
12671TIP3    H237891   7.640   1.831   5.490
12672TIP3   OH237892   7.544   1.242   5.853
12672TIP3    H137893   7.530   1.180   5.923
12672TIP3    H237894   7.639   1.244   5.840
12673TIP3   OH237895   6.459   1.648   6.956
12673TIP3    H137896   6.512   1.574   6.988
12673TIP3    H237897   6.481   1.720   7.016
12674TIP3   OH237898   6.747   1.291   5.637
12674TIP3    H137899   6.763   1.202   5.607
12674TIP3    H237900   6.730   1.283   5.731
12675TIP3   OH237901   6.695   1.299   5.909
12675TIP3    H137902   6.764   1.270   5.969
12675TIP3    H237903   6.696   1.394   5.914
12676TIP3   OH237904   6.423   0.991   6.109
12676TIP3    H137905   6.362   1.035   6.168
12676TIP3    H237906   6.445   1.058   6.044
12677TIP3   OH237907   6.957   1.497   5.856
12677TIP3    H137908   6.872   1.521   5.894
12677TIP3    H237909   6.977   1.569   5.797
12678TIP3   OH237910   7.171   0.553   6.271
12678TIP3    H137911   7.213   0.636   6.250
12678TIP3    H237912   7.130   0.566   6.356
12679TIP3   OH237913   7.408   0.864   7.119
12679TIP3    H137914   7.415   0.950   7.162
12679TIP3    H237915   7.499   0.833   7.115
12680TIP3   OH237916   6.700   1.572   5.925
12680TIP3    H137917   6.671   1.639   5.862
12680TIP3    H237918   6.686   1.613   6.010
12681TIP3   OH237919   7.709   0.974   6.447
12681TIP3    H137920   7.636   0.914   6.462
12681TIP3    H237921   7.783   0.934   6.493
12682TIP3   OH237922   6.422   1.202   5.916
12682TIP3    H137923   6.482   1.276   5.929
12682TIP3    H237924   6.465   1.148   5.850
12683TIP3   OH237925   6.336   0.457   6.031
12683TIP3    H137926   6.396   0.530   6.017
12683TIP3    H237927   6.268   0.492   6.087
12684TIP3   OH237928   7.678   1.929   6.394
12684TIP3    H137929   7.633   1.973   6.323
12684TIP3    H237930   7.771   1.945   6.378
12685TIP3   OH237931   6.288   1.412   6.305
12685TIP3    H137932   6.220   1.445   6.363
12685TIP3    H237933   6.270   1.452   6.220
12686TIP3   OH237934   6.450   1.955   7.377
12686TIP3    H137935   6.534   1.959   7.425
12686TIP3    H237936   6.427   1.862   7.377
12687TIP3   OH237937   6.931   1.923   7.416
12687TIP3    H137938   7.024   1.906   7.430
12687TIP3    H237939   6.906   1.862   7.346
12688TIP3   OH237940   6.911   1.494   5.548
12688TIP3    H137941   6.853   1.428   5.587
12688TIP3    H237942   6.987   1.445   5.517
12689TIP3   OH237943   7.574   1.824   7.152
12689TIP3    H137944   7.561   1.759   7.221
12689TIP3    H237945   7.646   1.878   7.184
12690TIP3   OH237946   7.349   1.537   5.460
12690TIP3    H137947   7.393   1.477   5.519
12690TIP3    H237948   7.404   1.539   5.382
12691TIP3   OH237949   6.578   1.351   7.573
12691TIP3    H137950   6.592   1.257   7.579
12691TIP3    H237951   6.491   1.360   7.535
12692TIP3   OH237952   6.558   1.012   5.769
12692TIP3    H137953   6.610   0.982   5.844
12692TIP3    H237954   6.621   1.019   5.698
12693TIP3   OH237955   7.191   1.449   7.348
12693TIP3    H137956   7.146   1.460   7.264
12693TIP3    H237957   7.220   1.357   7.347
12694TIP3   OH237958   7.062   1.212   5.578
12694TIP3    H137959   7.066   1.229   5.672
12694TIP3    H237960   7.064   1.117   5.570
12695TIP3   OH237961   7.680   1.455   6.955
12695TIP3    H137962   7.753   1.501   6.912
12695TIP3    H237963   7.606   1.516   6.947
12696TIP3   OH237964   6.693   1.082   7.566
12696TIP3    H137965   6.774   1.038   7.540
12696TIP3    H237966   6.715   1.125   7.649
12697TIP3   OH237967   6.762   0.917   5.992
12697TIP3    H137968   6.740   0.879   6.077
12697TIP3    H237969   6.799   0.844   5.942
12698TIP3   OH237970   7.038   1.061   7.216
12698TIP3    H137971   6.947   1.093   7.222
12698TIP3    H237972   7.054   1.052   7.122
12699TIP3   OH237973   6.865   0.711   5.837
12699TIP3    H137974   6.838   0.711   5.745
12699TIP3    H237975   6.961   0.715   5.834
12700TIP3   OH237976   7.552   1.388   7.361
12700TIP3    H137977   7.626   1.359   7.308
12700TIP3    H237978   7.541   1.321   7.427
12701TIP3   OH237979   7.687   1.043   5.491
12701TIP3    H137980   7.666   0.996   5.410
12701TIP3    H237981   7.658   1.132   5.475
12702TIP3   OH237982   7.087   0.818   7.331
12702TIP3    H137983   7.137   0.747   7.289
12702TIP3    H237984   7.109   0.895   7.279
12703TIP3   OH237985   7.218   1.090   6.991
12703TIP3    H137986   7.292   1.119   6.937
12703TIP3    H237987   7.151   1.157   6.978
12704TIP3   OH237988   7.771   1.071   7.412
12704TIP3    H137989   7.813   0.985   7.411
12704TIP3    H237990   7.838   1.131   7.380
12705TIP3   OH237991   7.814   1.309   7.137
12705TIP3    H137992   7.751   1.361   7.086
12705TIP3    H237993   7.899   1.334   7.101
12706TIP3   OH237994   7.012   0.896   7.575
12706TIP3    H137995   6.941   0.832   7.583
12706TIP3    H237996   7.052   0.877   7.490
12707TIP3   OH237997   7.455   0.939   7.464
12707TIP3    H137998   7.409   0.930   7.548
12707TIP3    H237999   7.453   0.851   7.426
12708TIP3   OH238000   6.673   1.773   5.734
12708TIP3    H138001   6.767   1.768   5.720
12708TIP3    H238002   6.639   1.822   5.659
12709TIP3   OH238003   6.154   1.154   5.953
12709TIP3    H138004   6.245   1.179   5.941
12709TIP3    H238005   6.147   1.068   5.912
12710TIP3   OH238006   6.066   1.764   6.367
12710TIP3    H138007   5.999   1.706   6.330
12710TIP3    H238008   6.111   1.711   6.433
12711TIP3   OH238009   6.205   1.618   6.555
12711TIP3    H138010   6.190   1.545   6.615
12711TIP3    H238011   6.254   1.682   6.606
12712TIP3   OH238012   7.929   2.021   6.353
12712TIP3    H138013   7.954   2.052   6.440
12712TIP3    H238014   7.990   2.065   6.293
12713TIP3   OH238015   7.959   2.037   6.635
12713TIP3    H138016   7.914   1.952   6.630
12713TIP3    H238017   8.034   2.021   6.692
12714TIP3   OH238018   8.005   1.716   7.210
12714TIP3    H138019   7.932   1.723   7.272
12714TIP3    H238020   8.046   1.802   7.211
12715TIP3   OH238021   7.824   1.229   5.828
12715TIP3    H138022   7.889   1.293   5.799
12715TIP3    H238023   7.863   1.190   5.907
12716TIP3   OH238024   7.949   1.095   6.033
12716TIP3    H138025   7.885   1.055   6.091
12716TIP3    H238026   8.014   1.134   6.091
12717TIP3   OH238027   8.003   1.488   6.463
12717TIP3    H138028   8.055   1.424   6.414
12717TIP3    H238029   7.995   1.562   6.404
12718TIP3   OH238030   7.833   1.788   6.660
12718TIP3    H138031   7.765   1.832   6.711
12718TIP3    H238032   7.785   1.741   6.592
12719TIP3   OH238033   7.882   1.002   5.679
12719TIP3    H138034   7.816   1.010   5.610
12719TIP3    H238035   7.863   1.075   5.738
12720TIP3   OH238036   7.765   0.669   5.623
12720TIP3    H138037   7.723   0.745   5.582
12720TIP3    H238038   7.720   0.593   5.585
12721TIP3   OH238039   7.764   0.952   6.183
12721TIP3    H138040   7.775   0.857   6.183
12721TIP3    H238041   7.748   0.975   6.275
12722TIP3   OH238042   6.391   1.021   6.924
12722TIP3    H138043   6.388   0.996   6.832
12722TIP3    H238044   6.485   1.027   6.943
12723TIP3   OH238045   8.058   1.372   7.033
12723TIP3    H138046   8.130   1.310   7.019
12723TIP3    H238047   8.079   1.445   6.974
12724TIP3   OH238048   8.241   1.166   7.048
12724TIP3    H138049   8.175   1.123   7.101
12724TIP3    H238050   8.324   1.134   7.082
12725TIP3   OH238051   7.747   0.666   6.024
12725TIP3    H138052   7.790   0.633   6.102
12725TIP3    H238053   7.817   0.705   5.972
12726TIP3   OH238054   7.929   0.874   6.575
12726TIP3    H138055   8.014   0.884   6.532
12726TIP3    H238056   7.945   0.897   6.666
12727TIP3   OH238057   7.987   0.998   6.818
12727TIP3    H138058   7.906   1.037   6.851
12727TIP3    H238059   8.025   1.065   6.763
12728TIP3   OH238060   6.383   0.683   7.005
12728TIP3    H138061   6.429   0.673   6.921
12728TIP3    H238062   6.401   0.773   7.031
12729TIP3   OH238063   7.514   1.886   6.009
12729TIP3    H138064   7.564   1.872   5.929
12729TIP3    H238065   7.564   1.952   6.057
12730TIP3   OH238066   6.613   1.684   7.404
12730TIP3    H138067   6.522   1.662   7.385
12730TIP3    H238068   6.622   1.669   7.499
12731TIP3   OH238069   6.792   1.721   6.940
12731TIP3    H138070   6.741   1.794   6.906
12731TIP3    H238071   6.879   1.732   6.900
12732TIP3   OH238072   7.240   1.967   7.081
12732TIP3    H138073   7.277   1.966   7.169
12732TIP3    H238074   7.303   2.018   7.029
12733TIP3   OH238075   7.420   2.119   6.940
12733TIP3    H138076   7.489   2.066   6.900
12733TIP3    H238077   7.465   2.176   7.001
12734TIP3   OH238078   6.467   1.980   6.968
12734TIP3    H138079   6.380   2.012   6.944
12734TIP3    H238080   6.482   2.014   7.056
12735TIP3   OH238081   6.703   1.958   6.824
12735TIP3    H138082   6.620   1.970   6.870
12735TIP3    H238083   6.686   1.990   6.736
12736TIP3   OH238084   7.131   1.990   6.621
12736TIP3    H138085   7.062   2.008   6.557
12736TIP3    H238086   7.144   2.073   6.666
12737TIP3   OH238087   7.399   1.927   6.671
12737TIP3    H138088   7.306   1.942   6.655
12737TIP3    H238089   7.443   2.003   6.634
12738TIP3   OH238090   7.608   2.119   6.588
12738TIP3    H138091   7.594   2.203   6.543
12738TIP3    H238092   7.633   2.058   6.518
12739TIP3   OH238093   6.383   1.771   6.713
12739TIP3    H138094   6.404   1.749   6.803
12739TIP3    H238095   6.452   1.730   6.661
12740TIP3   OH238096   6.576   1.643   6.569
12740TIP3    H138097   6.589   1.561   6.616
12740TIP3    H238098   6.663   1.682   6.564
12741TIP3   OH238099   6.841   1.737   6.573
12741TIP3    H138100   6.870   1.647   6.559
12741TIP3    H238101   6.881   1.764   6.656
12742TIP3   OH238102   6.166   1.545   6.103
12742TIP3    H138103   6.083   1.511   6.069
12742TIP3    H238104   6.160   1.640   6.089
12743TIP3   OH238105   6.942   1.733   5.683
12743TIP3    H138106   7.029   1.757   5.651
12743TIP3    H238107   6.916   1.659   5.627
12744TIP3   OH238108   7.658   1.850   5.776
12744TIP3    H138109   7.651   1.755   5.766
12744TIP3    H238110   7.615   1.885   5.698
12745TIP3   OH238111   6.244   1.568   5.743
12745TIP3    H138112   6.242   1.599   5.833
12745TIP3    H238113   6.332   1.530   5.733
12746TIP3   OH238114   7.885   1.998   6.964
12746TIP3    H138115   7.808   1.963   6.918
12746TIP3    H238116   7.868   2.092   6.970
12747TIP3   OH238117   9.151   1.371   5.726
12747TIP3    H138118   9.129   1.463   5.715
12747TIP3    H238119   9.072   1.324   5.699
12748TIP3   OH238120   9.138   1.360   6.113
12748TIP3    H138121   9.179   1.340   6.197
12748TIP3    H238122   9.099   1.277   6.085
12749TIP3   OH238123   8.451   1.266   6.477
12749TIP3    H138124   8.484   1.202   6.540
12749TIP3    H238125   8.525   1.324   6.460
12750TIP3   OH238126   9.393   1.671   5.796
12750TIP3    H138127   9.387   1.600   5.861
12750TIP3    H238128   9.422   1.747   5.845
12751TIP3   OH238129   8.423   1.670   6.204
12751TIP3    H138130   8.412   1.575   6.206
12751TIP3    H238131   8.518   1.682   6.198
12752TIP3   OH238132   8.118   0.864   5.997
12752TIP3    H138133   8.078   0.949   6.012
12752TIP3    H238134   8.058   0.819   5.938
12753TIP3   OH238135   8.191   1.159   6.158
12753TIP3    H138136   8.238   1.084   6.196
12753TIP3    H238137   8.250   1.192   6.091
12754TIP3   OH238138   9.043   2.127   5.810
12754TIP3    H138139   9.086   2.055   5.764
12754TIP3    H238140   9.037   2.098   5.901
12755TIP3   OH238141   8.953   1.591   6.162
12755TIP3    H138142   8.985   1.513   6.118
12755TIP3    H238143   9.032   1.641   6.184
12756TIP3   OH238144   9.367   1.109   6.187
12756TIP3    H138145   9.390   1.024   6.224
12756TIP3    H238146   9.339   1.090   6.098
12757TIP3   OH238147   8.338   0.951   6.266
12757TIP3    H138148   8.414   0.928   6.320
12757TIP3    H238149   8.350   0.901   6.185
12758TIP3   OH238150   8.776   1.155   6.065
12758TIP3    H138151   8.866   1.126   6.077
12758TIP3    H238152   8.729   1.077   6.035
12759TIP3   OH238153   9.057   1.604   5.589
12759TIP3    H138154   9.002   1.566   5.521
12759TIP3    H238155   9.006   1.679   5.622
12760TIP3   OH238156   8.809   1.511   6.395
12760TIP3    H138157   8.745   1.573   6.431
12760TIP3    H238158   8.848   1.557   6.321
12761TIP3   OH238159   8.578   0.859   6.364
12761TIP3    H138160   8.640   0.928   6.387
12761TIP3    H238161   8.616   0.818   6.286
12762TIP3   OH238162   8.628   1.706   6.487
12762TIP3    H138163   8.608   1.790   6.445
12762TIP3    H238164   8.553   1.689   6.543
12763TIP3   OH238165   8.025   1.399   5.722
12763TIP3    H138166   7.985   1.425   5.639
12763TIP3    H238167   8.056   1.481   5.761
12764TIP3   OH238168   9.453   1.898   5.953
12764TIP3    H138169   9.365   1.897   5.992
12764TIP3    H238170   9.460   1.985   5.913
12765TIP3   OH238171   9.167   1.946   5.639
12765TIP3    H138172   9.224   1.871   5.621
12765TIP3    H238173   9.218   2.022   5.609
12766TIP3   OH238174   9.317   1.723   5.536
12766TIP3    H138175   9.236   1.671   5.533
12766TIP3    H238176   9.354   1.704   5.622
12767TIP3   OH238177   8.976   1.225   5.562
12767TIP3    H138178   8.895   1.271   5.540
12767TIP3    H238179   9.022   1.215   5.479
12768TIP3   OH238180   8.940   1.008   5.281
12768TIP3    H138181   9.011   1.056   5.325
12768TIP3    H238182   8.985   0.937   5.236
12769TIP3   OH238183   9.340   1.298   5.548
12769TIP3    H138184   9.270   1.325   5.608
12769TIP3    H238185   9.419   1.296   5.602
12770TIP3   OH238186   9.570   1.349   6.430
12770TIP3    H138187   9.562   1.423   6.491
12770TIP3    H238188   9.487   1.349   6.382
12771TIP3   OH238189   8.564   1.300   5.951
12771TIP3    H138190   8.519   1.245   5.887
12771TIP3    H238191   8.638   1.246   5.981
12772TIP3   OH238192   8.693   1.709   6.101
12772TIP3    H138193   8.671   1.667   6.017
12772TIP3    H238194   8.781   1.678   6.120
12773TIP3   OH238195   8.699   1.270   6.308
12773TIP3    H138196   8.729   1.245   6.220
12773TIP3    H238197   8.743   1.353   6.326
12774TIP3   OH238198   9.217   1.912   6.082
12774TIP3    H138199   9.207   1.990   6.137
12774TIP3    H238200   9.207   1.838   6.142
12775TIP3   OH238201   8.832   1.828   6.630
12775TIP3    H138202   8.776   1.890   6.676
12775TIP3    H238203   8.771   1.773   6.581
12776TIP3   OH238204   9.170   1.155   5.368
12776TIP3    H138205   9.234   1.202   5.421
12776TIP3    H238206   9.198   1.170   5.278
12777TIP3   OH238207   8.570   1.391   6.731
12777TIP3    H138208   8.580   1.473   6.779
12777TIP3    H238209   8.478   1.368   6.742
12778TIP3   OH238210   8.910   1.839   5.637
12778TIP3    H138211   8.991   1.888   5.653
12778TIP3    H238212   8.850   1.903   5.599
12779TIP3   OH238213   8.628   1.998   6.717
12779TIP3    H138214   8.596   1.997   6.627
12779TIP3    H238215   8.552   1.975   6.770
12780TIP3   OH238216   8.424   1.151   5.759
12780TIP3    H138217   8.357   1.184   5.700
12780TIP3    H238218   8.405   1.057   5.767
12781TIP3   OH238219   8.208   1.527   6.662
12781TIP3    H138220   8.143   1.508   6.593
12781TIP3    H238221   8.243   1.442   6.687
12782TIP3   OH238222   8.064   1.720   6.298
12782TIP3    H138223   8.159   1.713   6.286
12782TIP3    H238224   8.053   1.799   6.351
12783TIP3   OH238225   9.032   1.956   6.489
12783TIP3    H138226   9.034   2.048   6.518
12783TIP3    H238227   8.963   1.916   6.540
12784TIP3   OH238228   8.792   2.087   5.437
12784TIP3    H138229   8.747   2.069   5.355
12784TIP3    H238230   8.762   2.174   5.462
12785TIP3   OH238231   8.232   1.934   5.824
12785TIP3    H138232   8.281   1.928   5.906
12785TIP3    H238233   8.173   1.859   5.827
12786TIP3   OH238234   8.998   1.987   5.081
12786TIP3    H138235   9.057   1.920   5.046
12786TIP3    H238236   9.028   1.999   5.171
12787TIP3   OH238237   9.044   2.035   5.352
12787TIP3    H138238   8.957   2.045   5.391
12787TIP3    H238239   9.097   1.999   5.423
12788TIP3   OH238240   8.414   1.709   6.653
12788TIP3    H138241   8.464   1.693   6.734
12788TIP3    H238242   8.341   1.648   6.659
12789TIP3   OH238243   9.249   1.200   5.106
12789TIP3    H138244   9.220   1.178   5.018
12789TIP3    H238245   9.293   1.284   5.097
12790TIP3   OH238246   8.750   1.051   6.461
12790TIP3    H138247   8.692   1.068   6.535
12790TIP3    H238248   8.736   1.125   6.402
12791TIP3   OH238249   8.616   0.957   5.964
12791TIP3    H138250   8.541   0.907   5.995
12791TIP3    H238251   8.639   0.918   5.880
12792TIP3   OH238252   9.120   1.034   5.689
12792TIP3    H138253   9.057   1.102   5.666
12792TIP3    H238254   9.172   1.020   5.609
12793TIP3   OH238255   9.308   1.326   6.734
12793TIP3    H138256   9.287   1.302   6.825
12793TIP3    H238257   9.395   1.365   6.739
12794TIP3   OH238258   9.266   1.040   5.939
12794TIP3    H138259   9.220   1.083   5.867
12794TIP3    H238260   9.298   0.958   5.900
12795TIP3   OH238261   8.567   1.091   6.659
12795TIP3    H138262   8.584   1.147   6.734
12795TIP3    H238263   8.531   1.010   6.697
12796TIP3   OH238264   9.280   1.303   6.351
12796TIP3    H138265   9.317   1.232   6.297
12796TIP3    H238266   9.269   1.264   6.437
12797TIP3   OH238267   8.386   0.810   6.037
12797TIP3    H138268   8.294   0.824   6.014
12797TIP3    H238269   8.400   0.716   6.026
12798TIP3   OH238270   8.677   0.841   5.721
12798TIP3    H138271   8.761   0.804   5.693
12798TIP3    H238272   8.619   0.827   5.646
12799TIP3   OH238273   8.482   0.849   5.499
12799TIP3    H138274   8.429   0.794   5.440
12799TIP3    H238275   8.551   0.884   5.443
12800TIP3   OH238276   9.610   2.529   6.445
12800TIP3    H138277   9.609   2.542   6.350
12800TIP3    H238278   9.681   2.586   6.476
12801TIP3   OH238279   8.575   1.632   6.876
12801TIP3    H138280   8.655   1.661   6.918
12801TIP3    H238281   8.509   1.632   6.946
12802TIP3   OH238282   9.043   1.083   6.130
12802TIP3    H138283   9.112   1.044   6.075
12802TIP3    H238284   9.043   1.031   6.210
12803TIP3   OH238285   9.015   0.965   6.446
12803TIP3    H138286   8.929   1.006   6.440
12803TIP3    H238287   9.068   1.027   6.496
12804TIP3   OH238288   8.748   1.373   5.513
12804TIP3    H138289   8.680   1.307   5.500
12804TIP3    H238290   8.733   1.406   5.602
12805TIP3   OH238291   9.162   1.694   6.510
12805TIP3    H138292   9.174   1.670   6.602
12805TIP3    H238293   9.117   1.778   6.513
12806TIP3   OH238294   8.446   1.391   6.187
12806TIP3    H138295   8.482   1.368   6.101
12806TIP3    H238296   8.486   1.329   6.247
12807TIP3   OH238297   8.895   1.522   5.333
12807TIP3    H138298   8.851   1.607   5.337
12807TIP3    H238299   8.843   1.466   5.391
12808TIP3   OH238300   8.315   1.316   6.806
12808TIP3    H138301   8.341   1.301   6.897
12808TIP3    H238302   8.247   1.250   6.790
12809TIP3   OH238303   9.055   1.432   6.822
12809TIP3    H138304   8.976   1.393   6.785
12809TIP3    H238305   9.124   1.411   6.759
12810TIP3   OH238306   9.311   1.951   6.408
12810TIP3    H138307   9.215   1.947   6.416
12810TIP3    H238308   9.339   2.006   6.481
12811TIP3   OH238309   9.435   1.813   5.201
12811TIP3    H138310   9.413   1.794   5.292
12811TIP3    H238311   9.364   1.773   5.150
12812TIP3   OH238312   9.388   1.479   6.061
12812TIP3    H138313   9.304   1.434   6.066
12812TIP3    H238314   9.452   1.409   6.045
12813TIP3   OH238315   8.544   1.698   5.811
12813TIP3    H138316   8.548   1.779   5.759
12813TIP3    H238317   8.451   1.682   5.823
12814TIP3   OH238318   8.108   1.002   5.516
12814TIP3    H138319   8.159   1.081   5.533
12814TIP3    H238320   8.034   1.008   5.577
12815TIP3   OH238321   8.687   1.466   5.759
12815TIP3    H138322   8.651   1.553   5.776
12815TIP3    H238323   8.653   1.411   5.830
12816TIP3   OH238324   8.816   2.044   6.282
12816TIP3    H138325   8.854   2.115   6.230
12816TIP3    H238326   8.891   2.007   6.329
12817TIP3   OH238327   8.465   1.939   5.666
12817TIP3    H138328   8.380   1.945   5.711
12817TIP3    H238329   8.499   2.029   5.667
12818TIP3   OH238330   9.206   1.676   6.237
12818TIP3    H138331   9.204   1.671   6.333
12818TIP3    H238332   9.281   1.622   6.212
12819TIP3   OH238333   9.169   1.573   5.130
12819TIP3    H138334   9.226   1.540   5.199
12819TIP3    H238335   9.080   1.549   5.159
12820TIP3   OH238336   9.439   2.210   6.291
12820TIP3    H138337   9.361   2.156   6.278
12820TIP3    H238338   9.436   2.274   6.220
12821TIP3   OH238339   9.341   1.482   5.329
12821TIP3    H138340   9.327   1.424   5.404
12821TIP3    H238341   9.416   1.536   5.355
12822TIP3   OH238342   8.255   1.905   6.443
12822TIP3    H138343   8.306   1.829   6.471
12822TIP3    H238344   8.281   1.976   6.501
12823TIP3   OH238345   8.544   1.547   5.124
12823TIP3    H138346   8.558   1.458   5.093
12823TIP3    H238347   8.525   1.538   5.217
12824TIP3   OH238348   8.490   1.556   5.396
12824TIP3    H138349   8.560   1.525   5.455
12824TIP3    H238350   8.493   1.651   5.402
12825TIP3   OH238351   8.220   1.248   5.595
12825TIP3    H138352   8.158   1.291   5.655
12825TIP3    H238353   8.241   1.315   5.530
12826TIP3   OH238354   8.754   1.753   5.343
12826TIP3    H138355   8.669   1.778   5.381
12826TIP3    H238356   8.774   1.825   5.282
12827TIP3   OH238357   8.970   0.803   5.746
12827TIP3    H138358   9.010   0.890   5.738
12827TIP3    H238359   8.928   0.805   5.832
12828TIP3   OH238360   9.197   1.106   6.611
12828TIP3    H138361   9.230   1.189   6.645
12828TIP3    H238362   9.272   1.066   6.567
12829TIP3   OH238363   8.497   1.829   5.412
12829TIP3    H138364   8.469   1.896   5.348
12829TIP3    H238365   8.482   1.870   5.497
12830TIP3   OH238366   8.219   1.460   5.401
12830TIP3    H138367   8.281   1.532   5.415
12830TIP3    H238368   8.261   1.404   5.337
12831TIP3   OH238369   8.137   0.712   5.521
12831TIP3    H138370   8.185   0.794   5.520
12831TIP3    H238371   8.055   0.733   5.567
12832TIP3   OH238372   9.490   2.187   5.892
12832TIP3    H138373   9.452   2.237   5.820
12832TIP3    H238374   9.566   2.143   5.854
12833TIP3   OH238375   8.087   1.673   5.792
12833TIP3    H138376   8.016   1.702   5.848
12833TIP3    H238377   8.067   1.710   5.706
12834TIP3   OH238378   8.245   2.210   6.864
12834TIP3    H138379   8.329   2.212   6.909
12834TIP3    H238380   8.221   2.118   6.861
12835TIP3   OH238381   8.731   2.177   6.907
12835TIP3    H138382   8.824   2.155   6.914
12835TIP3    H238383   8.699   2.123   6.834
12836TIP3   OH238384   8.707   1.751   5.036
12836TIP3    H138385   8.650   1.684   5.074
12836TIP3    H238386   8.782   1.702   5.003
12837TIP3   OH238387   9.361   2.087   6.645
12837TIP3    H138388   9.352   2.015   6.708
12837TIP3    H238389   9.438   2.135   6.674
12838TIP3   OH238390   9.149   1.793   4.959
12838TIP3    H138391   9.177   1.710   4.999
12838TIP3    H238392   9.186   1.790   4.870
12839TIP3   OH238393   8.373   1.618   7.063
12839TIP3    H138394   8.392   1.525   7.071
12839TIP3    H238395   8.288   1.623   7.020
12840TIP3   OH238396   8.354   1.269   5.256
12840TIP3    H138397   8.404   1.235   5.330
12840TIP3    H238398   8.418   1.276   5.185
12841TIP3   OH238399   8.982   1.703   6.837
12841TIP3    H138400   8.940   1.717   6.752
12841TIP3    H238401   9.015   1.613   6.833
12842TIP3   OH238402   8.860   1.468   5.066
12842TIP3    H138403   8.862   1.484   5.160
12842TIP3    H238404   8.859   1.372   5.057
12843TIP3   OH238405   9.481   1.720   6.438
12843TIP3    H138406   9.529   1.757   6.364
12843TIP3    H238407   9.399   1.769   6.441
12844TIP3   OH238408   8.491   1.345   7.049
12844TIP3    H138409   8.568   1.293   7.025
12844TIP3    H238410   8.512   1.380   7.135
12845TIP3   OH238411   8.560   1.173   5.481
12845TIP3    H138412   8.537   1.132   5.565
12845TIP3    H238413   8.595   1.101   5.428
12846TIP3   OH238414   8.834   1.329   6.704
12846TIP3    H138415   8.741   1.352   6.708
12846TIP3    H238416   8.850   1.309   6.612
12847TIP3   OH238417   8.661   0.971   5.322
12847TIP3    H138418   8.635   0.970   5.230
12847TIP3    H238419   8.757   0.972   5.320
12848TIP3   OH238420   9.343   1.639   6.840
12848TIP3    H138421   9.430   1.631   6.801
12848TIP3    H238422   9.346   1.580   6.916
12849TIP3   OH238423   8.884   1.082   6.818
12849TIP3    H138424   8.916   1.002   6.778
12849TIP3    H238425   8.914   1.152   6.759
12850TIP3   OH238426   9.018   1.350   6.485
12850TIP3    H138427   9.088   1.368   6.422
12850TIP3    H238428   8.951   1.415   6.465
12851TIP3   OH238429   9.619   1.576   6.619
12851TIP3    H138430   9.555   1.627   6.569
12851TIP3    H238431   9.700   1.584   6.569
12852TIP3   OH238432   8.811   1.148   7.064
12852TIP3    H138433   8.740   1.084   7.071
12852TIP3    H238434   8.848   1.133   6.977
12853TIP3   OH238435   9.272   1.191   6.968
12853TIP3    H138436   9.188   1.188   7.013
12853TIP3    H238437   9.271   1.115   6.910
12854TIP3   OH238438   8.469   2.030   5.221
12854TIP3    H138439   8.563   2.024   5.207
12854TIP3    H238440   8.436   2.079   5.145
12855TIP3   OH238441   7.950   1.411   5.439
12855TIP3    H138442   8.042   1.435   5.427
12855TIP3    H238443   7.943   1.324   5.400
12856TIP3   OH238444   7.862   2.021   5.854
12856TIP3    H138445   7.795   1.963   5.817
12856TIP3    H238446   7.906   1.968   5.920
12857TIP3   OH238447   7.999   1.877   6.042
12857TIP3    H138448   7.986   1.801   6.100
12857TIP3    H238449   8.049   1.939   6.095
12858TIP3   OH238450   9.606   1.995   6.174
12858TIP3    H138451   9.541   2.059   6.203
12858TIP3    H238452   9.566   1.953   6.098
12859TIP3   OH238453   8.187   1.278   6.411
12859TIP3    H138454   8.183   1.251   6.320
12859TIP3    H238455   8.281   1.284   6.430
12860TIP3   OH238456   8.180   0.940   6.492
12860TIP3    H138457   8.224   0.926   6.408
12860TIP3    H238458   8.200   1.031   6.514
12861TIP3   OH238459   9.288   2.156   5.525
12861TIP3    H138460   9.326   2.129   5.441
12861TIP3    H238461   9.353   2.214   5.563
12862TIP3   OH238462   8.409   1.944   6.885
12862TIP3    H138463   8.320   1.918   6.865
12862TIP3    H238464   8.419   1.927   6.979
12863TIP3   OH238465   8.589   1.980   6.429
12863TIP3    H138466   8.538   2.053   6.393
12863TIP3    H238467   8.675   1.990   6.388
12864TIP3   OH238468   9.037   2.222   6.572
12864TIP3    H138469   9.077   2.225   6.659
12864TIP3    H238470   9.099   2.270   6.516
12865TIP3   OH238471   9.215   2.373   6.429
12865TIP3    H138472   9.281   2.323   6.381
12865TIP3    H238473   9.266   2.431   6.486
12866TIP3   OH238474   8.263   2.237   6.455
12866TIP3    H138475   8.177   2.269   6.428
12866TIP3    H238476   8.275   2.270   6.544
12867TIP3   OH238477   8.499   2.214   6.311
12867TIP3    H138478   8.415   2.226   6.356
12867TIP3    H238479   8.483   2.247   6.222
12868TIP3   OH238480   8.925   2.246   6.109
12868TIP3    H138481   8.858   2.264   6.043
12868TIP3    H238482   8.940   2.330   6.152
12869TIP3   OH238483   9.192   2.184   6.161
12869TIP3    H138484   9.100   2.201   6.141
12869TIP3    H238485   9.240   2.257   6.120
12870TIP3   OH238486   9.396   2.370   6.078
12870TIP3    H138487   9.382   2.455   6.038
12870TIP3    H238488   9.431   2.315   6.007
12871TIP3   OH238489   8.178   2.027   6.200
12871TIP3    H138490   8.201   2.005   6.290
12871TIP3    H238491   8.247   1.987   6.147
12872TIP3   OH238492   8.372   1.899   6.056
12872TIP3    H138493   8.385   1.817   6.103
12872TIP3    H238494   8.459   1.938   6.051
12873TIP3   OH238495   8.637   1.994   6.060
12873TIP3    H138496   8.667   1.904   6.045
12873TIP3    H238497   8.678   2.019   6.142
12874TIP3   OH238498   7.962   1.801   5.590
12874TIP3    H138499   7.880   1.766   5.557
12874TIP3    H238500   7.955   1.896   5.577
12875TIP3   OH238501   8.738   1.990   5.169
12875TIP3    H138502   8.824   2.015   5.137
12875TIP3    H238503   8.712   1.916   5.114
12876TIP3   OH238504   9.384   2.075   5.290
12876TIP3    H138505   9.427   1.996   5.256
12876TIP3    H238506   9.364   2.126   5.212
12877TIP3   OH238507   8.042   1.827   5.230
12877TIP3    H138508   8.041   1.853   5.322
12877TIP3    H238509   8.128   1.786   5.218
12878TIP3   OH238510   9.648   2.260   6.466
12878TIP3    H138511   9.588   2.216   6.406
12878TIP3    H238512   9.628   2.353   6.455
12879TIP3   OH238513   1.599   2.156   7.424
12879TIP3    H138514   1.577   2.247   7.404
12879TIP3    H238515   1.527   2.105   7.386
12880TIP3   OH238516   1.608   2.157   7.800
12880TIP3    H138517   1.632   2.126   7.887
12880TIP3    H238518   1.562   2.083   7.760
12881TIP3   OH238519   4.272   6.683   0.126
12881TIP3    H138520   4.239   6.648   0.209
12881TIP3    H238521   4.291   6.775   0.145
12882TIP3   OH238522   1.847   2.455   7.485
12882TIP3    H138523   1.831   2.389   7.553
12882TIP3    H238524   1.874   2.533   7.534
12883TIP3   OH238525   0.878   2.456   7.900
12883TIP3    H138526   0.867   2.361   7.897
12883TIP3    H238527   0.971   2.470   7.882
12884TIP3   OH238528   1.495   2.918   7.500
12884TIP3    H138529   1.540   2.851   7.449
12884TIP3    H238530   1.489   2.882   7.588
12885TIP3   OH238531   1.402   2.380   7.856
12885TIP3    H138532   1.432   2.307   7.802
12885TIP3    H238533   1.482   2.426   7.880
12886TIP3   OH238534   2.415   1.704   7.847
12886TIP3    H138535   2.442   1.785   7.890
12886TIP3    H238536   2.437   1.717   7.755
12887TIP3   OH238537   1.806   1.878   7.886
12887TIP3    H138538   1.857   1.799   7.904
12887TIP3    H238539   1.782   1.871   7.794
12888TIP3   OH238540   1.848   1.636   7.474
12888TIP3    H138541   1.918   1.620   7.537
12888TIP3    H238542   1.893   1.670   7.396
12889TIP3   OH238543   1.224   1.932   7.782
12889TIP3    H138544   1.320   1.924   7.777
12889TIP3    H238545   1.191   1.855   7.736
12890TIP3   OH238546   5.754   6.531   0.019
12890TIP3    H138547   5.675   6.578  -0.009
12890TIP3    H238548   5.756   6.543   0.114
12891TIP3   OH238549   1.492   2.375   7.292
12891TIP3    H138550   1.456   2.358   7.205
12891TIP3    H238551   1.453   2.459   7.318
12892TIP3   OH238552   4.520   6.921   0.088
12892TIP3    H138553   4.459   6.989   0.117
12892TIP3    H238554   4.558   6.956   0.007
12893TIP3   OH238555   2.058   1.636   7.646
12893TIP3    H138556   2.056   1.586   7.728
12893TIP3    H238557   2.112   1.712   7.665
12894TIP3   OH238558   4.343   7.116   0.180
12894TIP3    H138559   4.323   7.198   0.134
12894TIP3    H238560   4.264   7.097   0.230
12895TIP3   OH238561   0.517   2.193   7.407
12895TIP3    H138562   0.454   2.209   7.336
12895TIP3    H238563   0.511   2.271   7.462
12896TIP3   OH238564   1.916   2.701   7.653
12896TIP3    H138565   1.829   2.692   7.691
12896TIP3    H238566   1.912   2.785   7.606
12897TIP3   OH238567   2.207   1.604   8.012
12897TIP3    H138568   2.121   1.634   7.983
12897TIP3    H238569   2.267   1.634   7.944
12898TIP3   OH238570   1.623   2.747   7.327
12898TIP3    H138571   1.667   2.665   7.306
12898TIP3    H238572   1.679   2.814   7.288
12899TIP3   OH238573   1.759   2.530   7.234
12899TIP3    H138574   1.728   2.454   7.186
12899TIP3    H238575   1.795   2.495   7.316
12900TIP3   OH238576   2.143   2.613   7.995
12900TIP3    H138577   2.133   2.537   7.937
12900TIP3    H238578   2.125   2.689   7.939
12901TIP3   OH238579   1.434   2.009   7.251
12901TIP3    H138580   1.355   2.060   7.234
12901TIP3    H238581   1.480   2.007   7.167
12902TIP3   OH238582   1.397   1.788   6.973
12902TIP3    H138583   1.460   1.843   7.020
12902TIP3    H238584   1.451   1.726   6.923
12903TIP3   OH238585   2.337   2.253   7.840
12903TIP3    H138586   2.255   2.302   7.846
12903TIP3    H238587   2.370   2.273   7.752
12904TIP3   OH238588   1.781   2.089   7.229
12904TIP3    H138589   1.726   2.115   7.303
12904TIP3    H238590   1.865   2.065   7.268
12905TIP3   OH238591   5.282   6.752   0.135
12905TIP3    H138592   5.283   6.834   0.184
12905TIP3    H238593   5.199   6.754   0.087
12906TIP3   OH238594   1.024   2.100   7.658
12906TIP3    H138595   0.983   2.051   7.588
12906TIP3    H238596   1.096   2.045   7.688
12907TIP3   OH238597   1.138   2.489   7.794
12907TIP3    H138598   1.120   2.460   7.705
12907TIP3    H238599   1.228   2.460   7.810
12908TIP3   OH238600   1.676   2.697   7.774
12908TIP3    H138601   1.660   2.778   7.824
12908TIP3    H238602   1.660   2.627   7.837
12909TIP3   OH238603   4.551   7.236   0.322
12909TIP3    H138604   4.492   7.299   0.363
12909TIP3    H238605   4.494   7.181   0.268
12910TIP3   OH238606   1.625   1.948   7.049
12910TIP3    H138607   1.680   2.006   7.102
12910TIP3    H238608   1.648   1.969   6.959
12911TIP3   OH238609   4.290   6.803   0.405
12911TIP3    H138610   4.306   6.883   0.456
12911TIP3    H238611   4.198   6.783   0.420
12912TIP3   OH238612   1.365   2.631   7.334
12912TIP3    H138613   1.443   2.685   7.344
12912TIP3    H238614   1.305   2.684   7.282
12913TIP3   OH238615   4.349   7.405   0.403
12913TIP3    H138616   4.318   7.411   0.312
12913TIP3    H238617   4.272   7.378   0.453
12914TIP3   OH238618   2.140   1.193   7.100
12914TIP3    H138619   2.059   1.211   7.148
12914TIP3    H238620   2.154   1.272   7.047
12915TIP3   OH238621   0.916   1.959   7.449
12915TIP3    H138622   0.853   2.012   7.399
12915TIP3    H238623   0.874   1.874   7.459
12916TIP3   OH238624   1.938   2.559   6.647
12916TIP3    H138625   1.943   2.653   6.632
12916TIP3    H238626   2.028   2.528   6.635
12917TIP3   OH238627   3.773   7.126   0.002
12917TIP3    H138628   3.861   7.102  -0.028
12917TIP3    H238629   3.785   7.211   0.045
12918TIP3   OH238630   5.647   7.577   0.044
12918TIP3    H138631   5.646   7.482   0.053
12918TIP3    H238632   5.565   7.606   0.086
12919TIP3   OH238633   4.755   7.363   0.179
12919TIP3    H138634   4.754   7.455   0.205
12919TIP3    H238635   4.682   7.324   0.228
12920TIP3   OH238636   1.246   2.873   7.127
12920TIP3    H138637   1.201   2.851   7.046
12920TIP3    H238638   1.215   2.961   7.149
12921TIP3   OH238639   0.684   2.722   7.513
12921TIP3    H138640   0.732   2.716   7.595
12921TIP3    H238641   0.621   2.651   7.517
12922TIP3   OH238642   1.452   2.776   6.769
12922TIP3    H138643   1.507   2.708   6.732
12922TIP3    H238644   1.482   2.785   6.859
12923TIP3   OH238645   1.498   2.823   7.041
12923TIP3    H138646   1.410   2.833   7.077
12923TIP3    H238647   1.548   2.782   7.111
12924TIP3   OH238648   5.537   6.709   0.313
12924TIP3    H138649   5.457   6.725   0.263
12924TIP3    H238650   5.552   6.615   0.305
12925TIP3   OH238651   4.126   7.092   0.350
12925TIP3    H138652   4.185   7.096   0.425
12925TIP3    H238653   4.044   7.057   0.386
12926TIP3   OH238654   5.057   6.051   0.336
12926TIP3    H138655   5.144   6.031   0.368
12926TIP3    H238656   5.004   6.061   0.416
12927TIP3   OH238657   5.302   6.484   0.233
12927TIP3    H138658   5.257   6.481   0.318
12927TIP3    H238659   5.284   6.572   0.201
12928TIP3   OH238660   1.700   1.994   6.793
12928TIP3    H138661   1.664   1.969   6.708
12928TIP3    H238662   1.778   2.045   6.772
12929TIP3   OH238663   1.399   1.374   7.109
12929TIP3    H138664   1.362   1.384   7.197
12929TIP3    H238665   1.394   1.280   7.091
12930TIP3   OH238666   1.120   1.705   7.673
12930TIP3    H138667   1.027   1.687   7.686
12930TIP3    H238668   1.136   1.687   7.580
12931TIP3   OH238669   1.578   1.816   7.383
12931TIP3    H138670   1.523   1.884   7.344
12931TIP3    H238671   1.630   1.783   7.310
12932TIP3   OH238672   5.015   6.706   0.473
12932TIP3    H138673   4.997   6.635   0.535
12932TIP3    H238674   5.107   6.727   0.486
12933TIP3   OH238675   1.726   1.836   7.623
12933TIP3    H138676   1.670   1.873   7.554
12933TIP3    H238677   1.762   1.757   7.584
12934TIP3   OH238678   5.005   6.701   0.048
12934TIP3    H138679   5.038   6.633  -0.012
12934TIP3    H238680   4.979   6.652   0.126
12935TIP3   OH238681   1.424   1.553   7.711
12935TIP3    H138682   1.333   1.554   7.741
12935TIP3    H238683   1.476   1.555   7.791
12936TIP3   OH238684   1.115   1.632   7.413
12936TIP3    H138685   1.207   1.620   7.390
12936TIP3    H238686   1.068   1.616   7.331
12937TIP3   OH238687   1.902   1.621   7.925
12937TIP3    H138688   1.870   1.634   8.015
12937TIP3    H238689   1.843   1.556   7.888
12938TIP3   OH238690   0.960   1.599   7.180
12938TIP3    H138691   0.874   1.600   7.137
12938TIP3    H238692   1.017   1.648   7.121
12939TIP3   OH238693   5.338   7.930   0.137
12939TIP3    H138694   5.333   7.953   0.044
12939TIP3    H238695   5.413   7.979   0.170
12940TIP3   OH238696   4.291   7.031   0.574
12940TIP3    H138697   4.374   7.066   0.607
12940TIP3    H238698   4.228   7.051   0.643
12941TIP3   OH238699   1.496   1.867   7.814
12941TIP3    H138700   1.568   1.839   7.757
12941TIP3    H238701   1.522   1.838   7.902
12942TIP3   OH238702   4.733   6.399   0.118
12942TIP3    H138703   4.693   6.405   0.205
12942TIP3    H238704   4.821   6.434   0.130
12943TIP3   OH238705   1.204   2.159   7.206
12943TIP3    H138706   1.131   2.098   7.189
12943TIP3    H238707   1.187   2.193   7.294
12944TIP3   OH238708   2.106   2.396   7.830
12944TIP3    H138709   2.131   2.445   7.752
12944TIP3    H238710   2.022   2.356   7.808
12945TIP3   OH238711   1.659   1.472   7.069
12945TIP3    H138712   1.564   1.463   7.071
12945TIP3    H238713   1.674   1.565   7.085
12946TIP3   OH238714   4.868   7.095   0.201
12946TIP3    H138715   4.896   7.081   0.291
12946TIP3    H238716   4.836   7.186   0.199
12947TIP3   OH238717   1.735   1.721   7.166
12947TIP3    H138718   1.830   1.728   7.180
12947TIP3    H238719   1.713   1.798   7.114
12948TIP3   OH238720   0.889   2.176   7.886
12948TIP3    H138721   0.921   2.158   7.798
12948TIP3    H238722   0.951   2.133   7.945
12949TIP3   OH238723   1.352   2.314   7.032
12949TIP3    H138724   1.307   2.398   7.033
12949TIP3    H238725   1.297   2.257   7.086
12950TIP3   OH238726   4.773   6.836   0.504
12950TIP3    H138727   4.719   6.778   0.450
12950TIP3    H238728   4.863   6.808   0.486
12951TIP3   OH238729   5.032   7.351   0.102
12951TIP3    H138730   4.937   7.355   0.105
12951TIP3    H238731   5.061   7.410   0.172
12952TIP3   OH238732   2.174   1.812   7.001
12952TIP3    H138733   2.114   1.764   6.943
12952TIP3    H238734   2.175   1.901   6.965
12953TIP3   OH238735   5.658   7.285   0.081
12953TIP3    H138736   5.562   7.282   0.076
12953TIP3    H238737   5.688   7.257  -0.005
12954TIP3   OH238738   1.879   2.627   6.912
12954TIP3    H138739   1.848   2.557   6.970
12954TIP3    H238740   1.888   2.585   6.826
12955TIP3   OH238741   1.870   2.256   7.754
12955TIP3    H138742   1.778   2.235   7.766
12955TIP3    H238743   1.906   2.181   7.706
12956TIP3   OH238744   0.998   2.489   7.508
12956TIP3    H138745   1.006   2.568   7.453
12956TIP3    H238746   0.905   2.468   7.506
12957TIP3   OH238747   1.137   2.254   7.451
12957TIP3    H138748   1.106   2.344   7.464
12957TIP3    H238749   1.102   2.206   7.527
12958TIP3   OH238750   1.269   2.831   7.973
12958TIP3    H138751   1.302   2.904   7.920
12958TIP3    H238752   1.346   2.796   8.017
12959TIP3   OH238753   0.921   2.726   7.362
12959TIP3    H138754   0.834   2.734   7.401
12959TIP3    H238755   0.954   2.816   7.358
12960TIP3   OH238756   1.657   2.463   7.933
12960TIP3    H138757   1.648   2.460   8.028
12960TIP3    H238758   1.737   2.413   7.914
12961TIP3   OH238759   1.630   2.354   6.814
12961TIP3    H138760   1.679   2.333   6.894
12961TIP3    H238761   1.539   2.330   6.834
12962TIP3   OH238762   1.902   3.000   7.978
12962TIP3    H138763   1.823   2.946   7.967
12962TIP3    H238764   1.895   3.066   7.909
12963TIP3   OH238765   1.969   2.835   6.634
12963TIP3    H138766   2.008   2.901   6.576
12963TIP3    H238767   1.890   2.876   6.668
12964TIP3   OH238768   1.791   2.292   7.035
12964TIP3    H138769   1.779   2.225   7.103
12964TIP3    H238770   1.885   2.291   7.017
12965TIP3   OH238771   3.966   7.307   0.135
12965TIP3    H138772   4.035   7.245   0.158
12965TIP3    H238773   3.990   7.388   0.182
12966TIP3   OH238774   1.023   2.324   6.819
12966TIP3    H138775   1.015   2.234   6.787
12966TIP3    H238776   0.981   2.323   6.905
12967TIP3   OH238777   0.939   2.343   7.088
12967TIP3    H138778   1.016   2.322   7.141
12967TIP3    H238779   0.938   2.439   7.084
12968TIP3   OH238780   0.695   2.027   7.296
12968TIP3    H138781   0.633   2.075   7.350
12968TIP3    H238782   0.708   2.084   7.219
12969TIP3   OH238783   5.091   6.285   0.181
12969TIP3    H138784   5.169   6.331   0.213
12969TIP3    H238785   5.080   6.211   0.240
12970TIP3   OH238786   1.708   1.429   7.341
12970TIP3    H138787   1.691   1.447   7.249
12970TIP3    H238788   1.745   1.510   7.376
12971TIP3   OH238789   1.207   2.542   7.038
12971TIP3    H138790   1.121   2.569   7.070
12971TIP3    H238791   1.222   2.596   6.960
12972TIP3   OH238792   1.405   1.617   7.449
12972TIP3    H138793   1.466   1.687   7.426
12972TIP3    H238794   1.410   1.611   7.545
12973TIP3   OH238795   4.941   6.537   0.254
12973TIP3    H138796   4.946   6.596   0.330
12973TIP3    H238797   4.998   6.464   0.276
12974TIP3   OH238798   1.554   1.337   7.549
12974TIP3    H138799   1.521   1.413   7.596
12974TIP3    H238800   1.609   1.373   7.480
12975TIP3   OH238801   0.949   2.615   7.102
12975TIP3    H138802   0.925   2.682   7.037
12975TIP3    H238803   0.936   2.659   7.186
12976TIP3   OH238804   5.569   6.443   0.228
12976TIP3    H138805   5.474   6.442   0.241
12976TIP3    H238806   5.582   6.399   0.144
12977TIP3   OH238807   1.957   2.016   7.627
12977TIP3    H138808   1.882   1.957   7.634
12977TIP3    H238809   2.028   1.970   7.671
12978TIP3   OH238810   0.664   2.246   7.093
12978TIP3    H138811   0.721   2.322   7.106
12978TIP3    H238812   0.708   2.194   7.026
12979TIP3   OH238813   1.927   2.973   7.572
12979TIP3    H138814   1.881   3.017   7.501
12979TIP3    H238815   2.019   2.989   7.554
12980TIP3   OH238816   0.539   2.470   7.500
12980TIP3    H138817   0.451   2.504   7.518
12980TIP3    H238818   0.552   2.486   7.407
12981TIP3   OH238819   3.990   7.624   0.525
12981TIP3    H138820   4.056   7.629   0.594
12981TIP3    H238821   3.931   7.554   0.553
12982TIP3   OH238822   4.446   7.584   0.598
12982TIP3    H138823   4.542   7.576   0.596
12982TIP3    H238824   4.417   7.531   0.523
12983TIP3   OH238825   1.164   2.542   6.737
12983TIP3    H138826   1.106   2.473   6.768
12983TIP3    H238827   1.228   2.496   6.683
12984TIP3   OH238828   5.079   7.498   0.335
12984TIP3    H138829   5.077   7.424   0.395
12984TIP3    H238830   5.160   7.544   0.357
12985TIP3   OH238831   1.599   2.584   6.637
12985TIP3    H138832   1.642   2.520   6.693
12985TIP3    H238833   1.650   2.584   6.557
12986TIP3   OH238834   0.811   2.058   6.950
12986TIP3    H138835   0.865   2.032   7.024
12986TIP3    H238836   0.872   2.061   6.876
12987TIP3   OH238837   4.707   7.111   0.521
12987TIP3    H138838   4.664   7.130   0.437
12987TIP3    H238839   4.736   7.020   0.513
12988TIP3   OH238840   1.328   2.253   6.754
12988TIP3    H138841   1.310   2.274   6.845
12988TIP3    H238842   1.318   2.158   6.748
12989TIP3   OH238843   5.195   7.122   0.131
12989TIP3    H138844   5.271   7.160   0.087
12989TIP3    H238845   5.125   7.187   0.118
12990TIP3   OH238846   1.010   1.961   7.164
12990TIP3    H138847   0.995   1.927   7.252
12990TIP3    H238848   1.049   1.887   7.116
12991TIP3   OH238849   4.531   6.646   0.376
12991TIP3    H138850   4.470   6.716   0.398
12991TIP3    H238851   4.592   6.686   0.314
12992TIP3   OH238852   1.113   1.750   7.009
12992TIP3    H138853   1.084   1.758   6.918
12992TIP3    H238854   1.208   1.761   7.004
12993TIP3   OH238855   5.068   7.046   0.534
12993TIP3    H138856   5.143   7.024   0.479
12993TIP3    H238857   5.068   6.980   0.603
12994TIP3   OH238858   1.936   2.087   6.669
12994TIP3    H138859   1.916   2.038   6.589
12994TIP3    H238860   1.906   2.176   6.651
12995TIP3   OH238861   4.712   6.448   0.492
12995TIP3    H138862   4.662   6.366   0.484
12995TIP3    H238863   4.645   6.516   0.494
12996TIP3   OH238864   4.703   6.755   0.199
12996TIP3    H138865   4.786   6.766   0.153
12996TIP3    H238866   4.644   6.818   0.157
12997TIP3   OH238867   5.281   6.723   0.577
12997TIP3    H138868   5.328   6.646   0.609
12997TIP3    H238869   5.351   6.782   0.547
12998TIP3   OH238870   5.325   6.979   0.318
12998TIP3    H138871   5.266   7.029   0.262
12998TIP3    H238872   5.412   6.996   0.282
12999TIP3   OH238873   4.948   6.490   0.624
12999TIP3    H138874   4.916   6.510   0.712
12999TIP3    H238875   4.868   6.471   0.574
13000TIP3   OH238876   5.170   6.430   0.464
13000TIP3    H138877   5.101   6.441   0.529
13000TIP3    H238878   5.247   6.405   0.514
13001TIP3   OH238879   5.398   6.371   0.611
13001TIP3    H138880   5.414   6.280   0.635
13001TIP3    H238881   5.387   6.416   0.695
13002TIP3   OH238882   0.918   2.820   6.929
13002TIP3    H138883   1.001   2.832   6.882
13002TIP3    H238884   0.853   2.807   6.861
13003TIP3   OH238885   0.404   2.166   7.152
13003TIP3    H138886   0.484   2.215   7.133
13003TIP3    H238887   0.416   2.083   7.107
13004TIP3   OH238888   0.321   2.810   7.533
13004TIP3    H138889   0.236   2.768   7.519
13004TIP3    H238890   0.359   2.762   7.607
13005TIP3   OH238891   0.440   2.675   7.736
13005TIP3    H138892   0.444   2.593   7.785
13005TIP3    H238893   0.494   2.736   7.786
13006TIP3   OH238894   2.180   3.061   7.531
13006TIP3    H138895   2.203   3.101   7.615
13006TIP3    H238896   2.234   3.107   7.467
13007TIP3   OH238897   2.205   3.083   7.815
13007TIP3    H138898   2.164   2.997   7.805
13007TIP3    H238899   2.284   3.066   7.865
13008TIP3   OH238900   5.522   7.382   0.386
13008TIP3    H138901   5.447   7.390   0.445
13008TIP3    H238902   5.563   7.468   0.387
13009TIP3   OH238903   2.071   2.274   7.006
13009TIP3    H138904   2.135   2.339   6.975
13009TIP3    H238905   2.113   2.235   7.082
13010TIP3   OH238906   2.199   2.141   7.210
13010TIP3    H138907   2.132   2.101   7.266
13010TIP3    H238908   2.260   2.181   7.271
13011TIP3   OH238909   2.253   2.532   7.641
13011TIP3    H138910   2.302   2.469   7.589
13011TIP3    H238911   2.245   2.609   7.584
13012TIP3   OH238912   2.082   2.831   7.839
13012TIP3    H138913   2.013   2.878   7.886
13012TIP3    H238914   2.036   2.786   7.767
13013TIP3   OH238915   2.132   2.050   6.856
13013TIP3    H138916   2.066   2.048   6.787
13013TIP3    H238917   2.109   2.125   6.911
13014TIP3   OH238918   2.006   1.722   6.811
13014TIP3    H138919   1.966   1.765   6.735
13014TIP3    H238920   1.981   1.630   6.802
13015TIP3   OH238921   2.012   1.997   7.357
13015TIP3    H138922   2.020   1.902   7.348
13015TIP3    H238923   1.999   2.011   7.451
13016TIP3   OH238924   5.568   7.041   0.211
13016TIP3    H138925   5.639   6.978   0.201
13016TIP3    H238926   5.590   7.112   0.150
13017TIP3   OH238927   5.753   6.844   0.229
13017TIP3    H138928   5.677   6.800   0.267
13017TIP3    H238929   5.827   6.786   0.248
13018TIP3   OH238930   1.949   1.457   6.801
13018TIP3    H138931   2.024   1.424   6.852
13018TIP3    H238932   1.879   1.394   6.820
13019TIP3   OH238933   2.011   1.713   7.252
13019TIP3    H138934   2.047   1.626   7.267
13019TIP3    H238935   2.064   1.750   7.181
13020TIP3   OH238936   2.173   1.890   7.747
13020TIP3    H138937   2.255   1.913   7.703
13020TIP3    H238938   2.182   1.925   7.835
13021TIP3   OH238939   2.237   2.034   7.977
13021TIP3    H138940   2.161   2.066   8.025
13021TIP3    H238941   2.272   2.111   7.932
13022TIP3   OH238942   5.949   6.234   0.528
13022TIP3    H138943   6.011   6.174   0.486
13022TIP3    H238944   5.928   6.298   0.460
13023TIP3   OH238945   2.117   1.463   7.291
13023TIP3    H138946   2.166   1.448   7.371
13023TIP3    H238947   2.057   1.388   7.285
13024TIP3   OH238948   5.826   6.385   0.335
13024TIP3    H138949   5.743   6.422   0.364
13024TIP3    H238950   5.800   6.311   0.279
13025TIP3   OH238951   2.201   1.397   6.921
13025TIP3    H138952   2.236   1.326   6.867
13025TIP3    H238953   2.264   1.468   6.911
13026TIP3   OH238954   1.766   2.929   7.189
13026TIP3    H138955   1.811   2.913   7.105
13026TIP3    H238956   1.815   3.000   7.230
13027TIP3   OH238957   4.133   7.320   0.570
13027TIP3    H138958   4.042   7.301   0.547
13027TIP3    H238959   4.129   7.357   0.658
13028TIP3   OH238960   4.308   7.390   0.118
13028TIP3    H138961   4.256   7.462   0.082
13028TIP3    H238962   4.393   7.398   0.075
13029TIP3   OH238963   4.755   7.630   0.255
13029TIP3    H138964   4.795   7.636   0.343
13029TIP3    H238965   4.815   7.679   0.199
13030TIP3   OH238966   4.934   7.780   0.118
13030TIP3    H138967   5.002   7.734   0.069
13030TIP3    H238968   4.982   7.839   0.176
13031TIP3   OH238969   5.726   6.142   0.214
13031TIP3    H138970   5.635   6.138   0.184
13031TIP3    H238971   5.759   6.053   0.205
13032TIP3   OH238972   3.981   7.638   0.148
13032TIP3    H138973   3.895   7.669   0.120
13032TIP3    H238974   3.995   7.680   0.233
13033TIP3   OH238975   0.951   3.000   8.001
13033TIP3    H138976   0.867   3.014   8.046
13033TIP3    H238977   0.936   3.034   7.913
13034TIP3   OH238978   1.377   3.031   7.802
13034TIP3    H138979   1.312   3.048   7.733
13034TIP3    H238980   1.393   3.117   7.841
13035TIP3   OH238981   1.647   2.971   7.852
13035TIP3    H138982   1.554   2.987   7.833
13035TIP3    H238983   1.693   3.043   7.807
13036TIP3   OH238984   1.855   3.162   7.765
13036TIP3    H138985   1.841   3.247   7.722
13036TIP3    H238986   1.881   3.104   7.693
13037TIP3   OH238987   0.626   2.810   7.886
13037TIP3    H138988   0.647   2.797   7.979
13037TIP3    H238989   0.700   2.771   7.840
13038TIP3   OH238990   0.824   2.687   7.746
13038TIP3    H138991   0.842   2.605   7.792
13038TIP3    H238992   0.910   2.729   7.737
13039TIP3   OH238993   1.087   2.784   7.749
13039TIP3    H138994   1.120   2.697   7.728
13039TIP3    H238995   1.129   2.806   7.832
13040TIP3   OH238996   1.671   1.426   7.845
13040TIP3    H138997   1.625   1.342   7.840
13040TIP3    H238998   1.744   1.417   7.785
13041TIP3   OH238999   2.186   1.322   7.742
13041TIP3    H139000   2.227   1.370   7.670
13041TIP3    H239001   2.092   1.342   7.734
13042TIP3   OH239002   2.285   1.420   7.507
13042TIP3    H139003   2.353   1.367   7.467
13042TIP3    H239004   2.313   1.511   7.493
13043TIP3   OH239005   1.902   1.324   7.718
13043TIP3    H139006   1.900   1.296   7.627
13043TIP3    H239007   1.889   1.244   7.768
13044TIP3   OH239008   1.931   1.252   7.278
13044TIP3    H139009   1.847   1.297   7.284
13044TIP3    H239010   1.916   1.167   7.319
13045TIP3   OH239011   0.391   2.590   7.294
13045TIP3    H139012   0.364   2.544   7.214
13045TIP3    H239013   0.390   2.682   7.270
13046TIP3   OH239014   1.307   1.379   7.372
13046TIP3    H139015   1.370   1.316   7.406
13046TIP3    H239016   1.342   1.465   7.398
13047TIP3   OH239017   1.191   2.784   6.858
13047TIP3    H139018   1.278   2.806   6.824
13047TIP3    H239019   1.164   2.708   6.806
13048TIP3   OH239020   1.905   2.894   6.954
13048TIP3    H139021   1.900   2.799   6.943
13048TIP3    H239022   1.862   2.930   6.876
13049TIP3   OH239023   0.480   2.580   6.943
13049TIP3    H139024   0.484   2.654   7.005
13049TIP3    H239025   0.545   2.602   6.876
13050TIP3   OH239026   5.467   6.100   0.653
13050TIP3    H139027   5.489   6.039   0.724
13050TIP3    H239028   5.546   6.104   0.600
13051TIP3   OH239029   5.398   7.661   0.141
13051TIP3    H139030   5.323   7.628   0.091
13051TIP3    H239031   5.385   7.756   0.143
13052TIP3   OH239032   3.395   2.413   6.912
13052TIP3    H139033   3.372   2.504   6.891
13052TIP3    H239034   3.324   2.361   6.873
13053TIP3   OH239035   3.399   2.416   7.292
13053TIP3    H139036   3.427   2.375   7.374
13053TIP3    H239037   3.359   2.345   7.242
13054TIP3   OH239038   2.701   2.311   7.657
13054TIP3    H139039   2.733   2.243   7.716
13054TIP3    H239040   2.777   2.366   7.639
13055TIP3   OH239041   3.642   2.715   6.972
13055TIP3    H139042   3.631   2.646   7.038
13055TIP3    H239043   3.673   2.791   7.021
13056TIP3   OH239044   2.672   2.715   7.384
13056TIP3    H139045   2.660   2.620   7.385
13056TIP3    H239046   2.766   2.728   7.371
13057TIP3   OH239047   2.373   1.921   7.167
13057TIP3    H139048   2.329   2.005   7.181
13057TIP3    H239049   2.307   1.866   7.125
13058TIP3   OH239050   2.438   2.208   7.337
13058TIP3    H139051   2.485   2.133   7.372
13058TIP3    H239052   2.492   2.237   7.263
13059TIP3   OH239053   3.290   3.175   6.986
13059TIP3    H139054   3.336   3.107   6.937
13059TIP3    H239055   3.283   3.141   7.075
13060TIP3   OH239056   3.199   2.637   7.339
13060TIP3    H139057   3.230   2.561   7.291
13060TIP3    H239058   3.278   2.689   7.355
13061TIP3   OH239059   4.210   1.960   7.334
13061TIP3    H139060   4.238   2.040   7.379
13061TIP3    H239061   4.233   1.974   7.242
13062TIP3   OH239062   3.606   2.139   7.372
13062TIP3    H139063   3.652   2.058   7.393
13062TIP3    H239064   3.578   2.128   7.281
13063TIP3   OH239065   2.945   1.799   7.334
13063TIP3    H139066   2.928   1.872   7.275
13063TIP3    H239067   2.902   1.724   7.293
13064TIP3   OH239068   3.644   1.892   6.959
13064TIP3    H139069   3.712   1.876   7.024
13064TIP3    H239070   3.691   1.926   6.883
13065TIP3   OH239071   2.583   1.999   7.443
13065TIP3    H139072   2.664   1.981   7.490
13065TIP3    H239073   2.590   1.947   7.363
13066TIP3   OH239074   3.023   2.197   7.238
13066TIP3    H139075   3.115   2.174   7.249
13066TIP3    H239076   2.983   2.117   7.203
13067TIP3   OH239077   4.282   2.164   7.509
13067TIP3    H139078   4.202   2.212   7.486
13067TIP3    H239079   4.305   2.196   7.597
13068TIP3   OH239080   2.942   1.787   7.773
13068TIP3    H139081   2.886   1.820   7.703
13068TIP3    H239082   2.892   1.804   7.853
13069TIP3   OH239083   3.288   2.632   6.780
13069TIP3    H139084   3.252   2.613   6.694
13069TIP3    H239085   3.249   2.716   6.805
13070TIP3   OH239086   3.052   2.560   7.568
13070TIP3    H139087   2.989   2.622   7.604
13070TIP3    H239088   3.090   2.606   7.493
13071TIP3   OH239089   3.853   1.893   7.131
13071TIP3    H139090   3.849   1.840   7.211
13071TIP3    H239091   3.908   1.968   7.154
13072TIP3   OH239092   2.819   1.898   7.554
13072TIP3    H139093   2.878   1.970   7.578
13072TIP3    H239094   2.862   1.855   7.480
13073TIP3   OH239095   2.876   2.752   7.664
13073TIP3    H139096   2.856   2.835   7.620
13073TIP3    H239097   2.800   2.735   7.719
13074TIP3   OH239098   2.274   2.443   6.898
13074TIP3    H139099   2.233   2.465   6.814
13074TIP3    H239100   2.302   2.527   6.934
13075TIP3   OH239101   3.709   2.944   7.134
13075TIP3    H139102   3.624   2.948   7.177
13075TIP3    H239103   3.724   3.034   7.104
13076TIP3   OH239104   4.003   1.859   7.500
13076TIP3    H139105   3.917   1.888   7.470
13076TIP3    H239106   4.063   1.889   7.432
13077TIP3   OH239107   3.300   1.501   7.485
13077TIP3    H139108   3.290   1.407   7.499
13077TIP3    H239109   3.225   1.540   7.529
13078TIP3   OH239110   3.419   3.004   6.813
13078TIP3    H139111   3.463   2.921   6.793
13078TIP3    H239112   3.475   3.071   6.775
13079TIP3   OH239113   3.555   2.788   6.720
13079TIP3    H139114   3.527   2.709   6.673
13079TIP3    H239115   3.591   2.754   6.802
13080TIP3   OH239116   3.231   2.266   6.738
13080TIP3    H139117   3.152   2.317   6.719
13080TIP3    H239118   3.278   2.261   6.655
13081TIP3   OH239119   3.193   2.047   6.459
13081TIP3    H139120   3.257   2.100   6.506
13081TIP3    H239121   3.245   1.984   6.410
13082TIP3   OH239122   4.127   2.510   7.325
13082TIP3    H139123   4.048   2.564   7.334
13082TIP3    H239124   4.161   2.531   7.238
13083TIP3   OH239125   3.577   2.346   6.716
13083TIP3    H139126   3.523   2.372   6.791
13083TIP3    H239127   3.661   2.321   6.755
13084TIP3   OH239128   3.813   2.385   7.626
13084TIP3    H139129   3.812   2.464   7.680
13084TIP3    H239130   3.730   2.386   7.580
13085TIP3   OH239131   2.809   2.343   7.129
13085TIP3    H139132   2.766   2.289   7.063
13085TIP3    H239133   2.885   2.292   7.155
13086TIP3   OH239134   2.937   2.750   7.278
13086TIP3    H139135   2.915   2.717   7.191
13086TIP3    H239136   3.026   2.719   7.293
13087TIP3   OH239137   2.949   2.316   7.484
13087TIP3    H139138   2.977   2.294   7.395
13087TIP3    H239139   2.988   2.402   7.501
13088TIP3   OH239140   3.473   2.959   7.265
13088TIP3    H139141   3.442   3.035   7.314
13088TIP3    H239142   3.460   2.885   7.325
13089TIP3   OH239143   3.078   2.867   7.814
13089TIP3    H139144   3.023   2.932   7.856
13089TIP3    H239145   3.018   2.816   7.759
13090TIP3   OH239146   3.421   2.205   6.536
13090TIP3    H139147   3.476   2.263   6.589
13090TIP3    H239148   3.444   2.226   6.446
13091TIP3   OH239149   2.838   2.427   7.914
13091TIP3    H139150   2.845   2.514   7.954
13091TIP3    H239151   2.744   2.408   7.913
13092TIP3   OH239152   3.161   2.888   6.818
13092TIP3    H139153   3.240   2.940   6.830
13092TIP3    H239154   3.101   2.945   6.771
13093TIP3   OH239155   2.878   3.040   7.892
13093TIP3    H139156   2.846   3.042   7.802
13093TIP3    H239157   2.801   3.018   7.945
13094TIP3   OH239158   3.933   1.448   6.585
13094TIP3    H139159   3.854   1.466   6.636
13094TIP3    H239160   3.949   1.528   6.536
13095TIP3   OH239161   2.672   2.188   6.936
13095TIP3    H139162   2.613   2.236   6.878
13095TIP3    H239163   2.634   2.100   6.943
13096TIP3   OH239164   3.735   2.815   6.133
13096TIP3    H139165   3.740   2.910   6.119
13096TIP3    H239166   3.825   2.785   6.122
13097TIP3   OH239167   2.457   2.570   7.840
13097TIP3    H139168   2.393   2.552   7.771
13097TIP3    H239169   2.494   2.484   7.861
13098TIP3   OH239170   2.313   2.762   7.481
13098TIP3    H139171   2.407   2.760   7.464
13098TIP3    H239172   2.299   2.846   7.526
13099TIP3   OH239173   4.183   3.208   7.539
13099TIP3    H139174   4.185   3.113   7.550
13099TIP3    H239175   4.097   3.235   7.571
13100TIP3   OH239176   3.272   2.996   7.665
13100TIP3    H139177   3.281   3.087   7.692
13100TIP3    H239178   3.204   2.961   7.722
13101TIP3   OH239179   3.041   3.130   6.615
13101TIP3    H139180   2.998   3.111   6.532
13101TIP3    H239181   3.011   3.218   6.638
13102TIP3   OH239182   2.480   2.979   7.000
13102TIP3    H139183   2.528   2.971   7.082
13102TIP3    H239184   2.419   2.905   7.001
13103TIP3   OH239185   3.247   3.031   6.256
13103TIP3    H139186   3.303   2.963   6.218
13103TIP3    H239187   3.278   3.041   6.345
13104TIP3   OH239188   3.293   3.080   6.527
13104TIP3    H139189   3.206   3.089   6.567
13104TIP3    H239190   3.347   3.040   6.596
13105TIP3   OH239191   4.060   2.342   7.803
13105TIP3    H139192   3.985   2.354   7.745
13105TIP3    H239193   4.082   2.249   7.795
13106TIP3   OH239194   2.663   2.751   7.830
13106TIP3    H139195   2.711   2.738   7.912
13106TIP3    H239196   2.589   2.691   7.837
13107TIP3   OH239197   3.059   1.578   7.612
13107TIP3    H139198   2.974   1.544   7.585
13107TIP3    H239199   3.039   1.661   7.655
13108TIP3   OH239200   3.596   1.694   7.809
13108TIP3    H139201   3.664   1.664   7.869
13108TIP3    H239202   3.513   1.672   7.852
13109TIP3   OH239203   3.833   2.120   7.724
13109TIP3    H139204   3.787   2.117   7.808
13109TIP3    H239205   3.813   2.206   7.688
13110TIP3   OH239206   3.497   2.251   6.281
13110TIP3    H139207   3.460   2.225   6.196
13110TIP3    H239208   3.575   2.302   6.258
13111TIP3   OH239209   3.207   1.624   6.585
13111TIP3    H139210   3.175   1.626   6.675
13111TIP3    H239211   3.170   1.544   6.548
13112TIP3   OH239212   2.995   2.095   7.632
13112TIP3    H139213   2.943   2.113   7.711
13112TIP3    H239214   2.981   2.172   7.577
13113TIP3   OH239215   2.877   1.977   7.144
13113TIP3    H139216   2.786   1.956   7.162
13113TIP3    H239217   2.894   1.941   7.057
13114TIP3   OH239218   3.368   2.066   6.871
13114TIP3    H139219   3.315   2.136   6.832
13114TIP3    H239220   3.423   2.035   6.799
13115TIP3   OH239221   3.545   2.344   7.959
13115TIP3    H139222   3.522   2.271   8.017
13115TIP3    H239223   3.638   2.361   7.978
13116TIP3   OH239224   3.525   2.093   7.109
13116TIP3    H139225   3.466   2.127   7.041
13116TIP3    H239226   3.560   2.013   7.072
13117TIP3   OH239227   2.814   2.124   7.839
13117TIP3    H139228   2.830   2.193   7.903
13117TIP3    H239229   2.800   2.045   7.892
13118TIP3   OH239230   2.862   1.601   6.551
13118TIP3    H139231   2.854   1.596   6.647
13118TIP3    H239232   2.786   1.651   6.523
13119TIP3   OH239233   2.406   1.643   7.425
13119TIP3    H139234   2.482   1.675   7.473
13119TIP3    H239235   2.440   1.615   7.341
13120TIP3   OH239236   2.381   1.630   6.940
13120TIP3    H139237   2.425   1.662   6.862
13120TIP3    H239238   2.318   1.698   6.963
13121TIP3   OH239239   3.541   2.339   7.540
13121TIP3    H139240   3.571   2.272   7.479
13121TIP3    H239241   3.508   2.289   7.615
13122TIP3   OH239242   3.205   1.802   7.209
13122TIP3    H139243   3.123   1.800   7.258
13122TIP3    H239244   3.273   1.801   7.276
13123TIP3   OH239245   2.637   1.855   7.216
13123TIP3    H139246   2.546   1.864   7.188
13123TIP3    H239247   2.662   1.767   7.190
13124TIP3   OH239248   2.910   1.856   6.901
13124TIP3    H139249   3.002   1.870   6.880
13124TIP3    H239250   2.863   1.877   6.821
13125TIP3   OH239251   3.694   1.878   7.412
13125TIP3    H139252   3.659   1.890   7.500
13125TIP3    H239253   3.635   1.816   7.371
13126TIP3   OH239254   2.750   1.886   6.680
13126TIP3    H139255   2.678   1.841   6.635
13126TIP3    H239256   2.803   1.923   6.610
13127TIP3   OH239257   3.872   3.561   7.626
13127TIP3    H139258   3.865   3.587   7.535
13127TIP3    H239259   3.946   3.611   7.660
13128TIP3   OH239260   6.092   7.294   0.052
13128TIP3    H139261   6.171   7.326   0.094
13128TIP3    H239262   6.025   7.297   0.120
13129TIP3   OH239263   3.290   2.128   7.305
13129TIP3    H139264   3.360   2.093   7.249
13129TIP3    H239265   3.302   2.084   7.389
13130TIP3   OH239266   2.814   1.616   7.181
13130TIP3    H139267   2.780   1.538   7.225
13130TIP3    H239268   2.860   1.583   7.104
13131TIP3   OH239269   3.265   2.022   7.599
13131TIP3    H139270   3.177   2.060   7.607
13131TIP3    H239271   3.321   2.084   7.645
13132TIP3   OH239272   3.000   2.417   6.692
13132TIP3    H139273   2.930   2.353   6.677
13132TIP3    H239274   2.984   2.451   6.780
13133TIP3   OH239275   3.892   2.660   7.332
13133TIP3    H139276   3.924   2.716   7.261
13133TIP3    H239277   3.816   2.616   7.295
13134TIP3   OH239278   3.460   1.729   6.553
13134TIP3    H139279   3.366   1.713   6.558
13134TIP3    H239280   3.470   1.822   6.573
13135TIP3   OH239281   3.428   2.750   7.688
13135TIP3    H139282   3.416   2.720   7.778
13135TIP3    H239283   3.375   2.829   7.681
13136TIP3   OH239284   3.531   1.978   6.654
13136TIP3    H139285   3.625   1.984   6.669
13136TIP3    H239286   3.510   2.055   6.602
13137TIP3   OH239287   2.696   2.438   7.365
13137TIP3    H139288   2.728   2.414   7.279
13137TIP3    H239289   2.733   2.372   7.424
13138TIP3   OH239290   3.146   2.568   6.513
13138TIP3    H139291   3.102   2.653   6.516
13138TIP3    H239292   3.094   2.513   6.571
13139TIP3   OH239293   5.840   6.974  -0.023
13139TIP3    H139294   5.855   6.964   0.070
13139TIP3    H239295   5.768   6.914  -0.043
13140TIP3   OH239296   3.301   2.469   7.997
13140TIP3    H139297   3.241   2.419   7.943
13140TIP3    H239298   3.388   2.440   7.971
13141TIP3   OH239299   3.970   2.068   6.487
13141TIP3    H139300   3.910   2.020   6.431
13141TIP3    H239301   3.970   2.157   6.452
13142TIP3   OH239302   4.183   2.920   7.566
13142TIP3    H139303   4.089   2.907   7.560
13142TIP3    H239304   4.216   2.895   7.479
13143TIP3   OH239305   3.669   2.884   6.397
13143TIP3    H139306   3.647   2.813   6.457
13143TIP3    H239307   3.684   2.841   6.313
13144TIP3   OH239308   3.665   2.509   7.246
13144TIP3    H139309   3.572   2.486   7.250
13144TIP3    H239310   3.706   2.438   7.197
13145TIP3   OH239311   2.794   2.745   6.992
13145TIP3    H139312   2.799   2.824   6.938
13145TIP3    H239313   2.700   2.726   6.997
13146TIP3   OH239314   2.358   2.049   6.694
13146TIP3    H139315   2.404   2.131   6.711
13146TIP3    H239316   2.281   2.052   6.751
13147TIP3   OH239317   2.933   2.510   6.938
13147TIP3    H139318   2.901   2.599   6.951
13147TIP3    H239319   2.895   2.460   7.010
13148TIP3   OH239320   3.066   3.086   7.460
13148TIP3    H139321   3.102   3.159   7.409
13148TIP3    H239322   3.140   3.053   7.511
13149TIP3   OH239323   2.716   2.982   6.846
13149TIP3    H139324   2.630   2.990   6.887
13149TIP3    H239325   2.750   3.072   6.845
13150TIP3   OH239326   3.467   2.724   7.419
13150TIP3    H139327   3.452   2.716   7.514
13150TIP3    H239328   3.520   2.647   7.397
13151TIP3   OH239329   3.426   2.610   6.302
13151TIP3    H139330   3.478   2.589   6.380
13151TIP3    H239331   3.336   2.587   6.327
13152TIP3   OH239332   3.686   3.224   7.460
13152TIP3    H139333   3.598   3.207   7.429
13152TIP3    H239334   3.721   3.288   7.398
13153TIP3   OH239335   3.765   3.092   6.120
13153TIP3    H139336   3.808   3.161   6.068
13153TIP3    H239337   3.685   3.133   6.153
13154TIP3   OH239338   6.050   6.492  -0.002
13154TIP3    H139339   5.954   6.488  -0.003
13154TIP3    H239340   6.075   6.423   0.060
13155TIP3   OH239341   3.588   2.549   6.522
13155TIP3    H139342   3.576   2.481   6.589
13155TIP3    H239343   3.682   2.548   6.504
13156TIP3   OH239344   2.503   2.951   7.620
13156TIP3    H139345   2.556   2.876   7.649
13156TIP3    H239346   2.532   3.023   7.676
13157TIP3   OH239347   2.794   2.593   6.301
13157TIP3    H139348   2.807   2.504   6.268
13157TIP3    H239349   2.774   2.582   6.394
13158TIP3   OH239350   2.740   2.600   6.574
13158TIP3    H139351   2.813   2.574   6.631
13158TIP3    H239352   2.740   2.696   6.577
13159TIP3   OH239353   2.474   2.297   6.776
13159TIP3    H139354   2.408   2.338   6.832
13159TIP3    H239355   2.490   2.361   6.707
13160TIP3   OH239356   3.618   1.933   7.672
13160TIP3    H139357   3.702   1.968   7.702
13160TIP3    H239358   3.607   1.852   7.722
13161TIP3   OH239359   3.502   1.683   6.831
13161TIP3    H139360   3.487   1.702   6.739
13161TIP3    H239361   3.540   1.764   6.866
13162TIP3   OH239362   3.003   2.799   6.523
13162TIP3    H139363   2.917   2.824   6.557
13162TIP3    H239364   3.022   2.864   6.455
13163TIP3   OH239365   3.195   1.860   6.935
13163TIP3    H139366   3.257   1.930   6.914
13163TIP3    H239367   3.197   1.853   7.030
13164TIP3   OH239368   3.460   2.179   7.743
13164TIP3    H139369   3.484   2.231   7.820
13164TIP3    H239370   3.515   2.101   7.750
13165TIP3   OH239371   3.339   1.591   7.038
13165TIP3    H139372   3.327   1.667   7.095
13165TIP3    H239373   3.397   1.623   6.968
13166TIP3   OH239374   2.745   2.873   6.588
13166TIP3    H139375   2.718   2.939   6.523
13166TIP3    H239376   2.731   2.916   6.673
13167TIP3   OH239377   2.849   1.587   6.829
13167TIP3    H139378   2.843   1.677   6.861
13167TIP3    H239379   2.942   1.565   6.834
13168TIP3   OH239380   4.100   2.078   7.724
13168TIP3    H139381   4.004   2.076   7.730
13168TIP3    H239382   4.120   2.043   7.637
13169TIP3   OH239383   3.752   2.274   7.114
13169TIP3    H139384   3.678   2.214   7.122
13169TIP3    H239385   3.824   2.229   7.158
13170TIP3   OH239386   2.467   2.502   6.580
13170TIP3    H139387   2.526   2.577   6.591
13170TIP3    H239388   2.508   2.448   6.514
13171TIP3   OH239389   2.408   1.779   6.716
13171TIP3    H139390   2.410   1.874   6.712
13171TIP3    H239391   2.330   1.754   6.666
13172TIP3   OH239392   3.725   3.231   7.063
13172TIP3    H139393   3.678   3.271   6.990
13172TIP3    H239394   3.817   3.250   7.045
13173TIP3   OH239395   2.796   1.496   7.588
13173TIP3    H139396   2.766   1.467   7.503
13173TIP3    H239397   2.786   1.420   7.645
13174TIP3   OH239398   2.335   2.716   6.970
13174TIP3    H139399   2.262   2.747   7.023
13174TIP3    H239400   2.318   2.753   6.883
13175TIP3   OH239401   5.760   7.874   0.040
13175TIP3    H139402   5.845   7.878   0.086
13175TIP3    H239403   5.739   7.781   0.037
13176TIP3   OH239404   6.241   7.840   0.085
13176TIP3    H139405   6.336   7.830   0.091
13176TIP3    H239406   6.215   7.785   0.011
13177TIP3   OH239407   2.958   2.797   6.215
13177TIP3    H139408   2.902   2.727   6.250
13177TIP3    H239409   3.031   2.750   6.175
13178TIP3   OH239410   3.669   3.103   7.782
13178TIP3    H139411   3.619   3.049   7.843
13178TIP3    H239412   3.705   3.174   7.835
13179TIP3   OH239413   3.394   2.839   6.123
13179TIP3    H139414   3.440   2.779   6.180
13179TIP3    H239415   3.446   2.841   6.043
13180TIP3   OH239416   5.887   7.282   0.239
13180TIP3    H139417   5.907   7.188   0.238
13180TIP3    H239418   5.802   7.289   0.196
13181TIP3   OH239419   2.602   2.315   6.432
13181TIP3    H139420   2.654   2.283   6.505
13181TIP3    H239421   2.664   2.322   6.359
13182TIP3   OH239422   3.233   2.748   8.013
13182TIP3    H139423   3.187   2.767   7.931
13182TIP3    H239424   3.260   2.656   8.004
13183TIP3   OH239425   3.111   2.511   6.243
13183TIP3    H139426   3.112   2.527   6.337
13183TIP3    H239427   3.109   2.416   6.235
13184TIP3   OH239428   3.740   2.796   7.602
13184TIP3    H139429   3.764   2.748   7.522
13184TIP3    H239430   3.647   2.779   7.613
13185TIP3   OH239431   6.003   7.024   0.225
13185TIP3    H139432   6.076   6.969   0.198
13185TIP3    H239433   6.027   7.054   0.313
13186TIP3   OH239434   2.811   2.216   6.657
13186TIP3    H139435   2.782   2.174   6.738
13186TIP3    H239436   2.846   2.144   6.604
13187TIP3   OH239437   3.077   2.285   7.887
13187TIP3    H139438   3.000   2.340   7.889
13187TIP3    H239439   3.126   2.315   7.810
13188TIP3   OH239440   2.910   2.011   6.495
13188TIP3    H139441   2.881   2.015   6.404
13188TIP3    H239442   3.005   2.017   6.490
13189TIP3   OH239443   6.861   7.304   0.017
13189TIP3    H139444   6.946   7.290  -0.023
13189TIP3    H239445   6.856   7.239   0.087
13190TIP3   OH239446   3.731   2.344   6.156
13190TIP3    H139447   3.711   2.295   6.076
13190TIP3    H239448   3.702   2.433   6.138
13191TIP3   OH239449   3.199   2.068   8.009
13191TIP3    H139450   3.203   1.990   7.952
13191TIP3    H239451   3.161   2.136   7.953
13192TIP3   OH239452   3.201   1.858   7.818
13192TIP3    H139453   3.231   1.899   7.737
13192TIP3    H239454   3.110   1.835   7.801
13193TIP3   OH239455   3.232   2.398   7.695
13193TIP3    H139456   3.310   2.396   7.640
13193TIP3    H239457   3.173   2.459   7.650
13194TIP3   OH239458   7.083   6.980   0.071
13194TIP3    H139459   7.128   6.895   0.076
13194TIP3    H239460   7.150   7.040   0.038
13195TIP3   OH239461   3.855   2.621   7.794
13195TIP3    H139462   3.807   2.690   7.748
13195TIP3    H239463   3.945   2.629   7.762
13196TIP3   OH239464   6.346   6.793   0.233
13196TIP3    H139465   6.252   6.782   0.223
13196TIP3    H239466   6.382   6.769   0.147
13197TIP3   OH239467   3.333   1.622   7.884
13197TIP3    H139468   3.287   1.703   7.860
13197TIP3    H239469   3.269   1.553   7.870
13198TIP3   OH239470   6.730   6.744   0.096
13198TIP3    H139471   6.734   6.738   0.191
13198TIP3    H239472   6.640   6.720   0.074
13199TIP3   OH239473   3.703   2.078   7.956
13199TIP3    H139474   3.628   2.076   8.015
13199TIP3    H239475   3.776   2.046   8.010
13200TIP3   OH239476   7.192   6.633   0.108
13200TIP3    H139477   7.208   6.540   0.123
13200TIP3    H239478   7.193   6.672   0.195
13201TIP3   OH239479   6.696   6.251   0.137
13201TIP3    H139480   6.763   6.182   0.137
13201TIP3    H239481   6.657   6.246   0.050
13202TIP3   OH239482   6.758   6.463   0.296
13202TIP3    H139483   6.748   6.390   0.234
13202TIP3    H239484   6.683   6.520   0.278
13203TIP3   OH239485   2.717   3.073   6.398
13203TIP3    H139486   2.812   3.070   6.383
13203TIP3    H239487   2.682   3.122   6.324
13204TIP3   OH239488   2.199   2.453   6.620
13204TIP3    H139489   2.290   2.478   6.605
13204TIP3    H239490   2.190   2.367   6.578
13205TIP3   OH239491   2.110   3.066   7.030
13205TIP3    H139492   2.043   3.008   6.992
13205TIP3    H239493   2.154   3.012   7.095
13206TIP3   OH239494   2.248   2.921   7.218
13206TIP3    H139495   2.232   2.846   7.275
13206TIP3    H239496   2.298   2.983   7.271
13207TIP3   OH239497   3.980   3.331   7.031
13207TIP3    H139498   4.006   3.411   7.076
13207TIP3    H239499   4.032   3.331   6.951
13208TIP3   OH239500   3.990   3.336   7.322
13208TIP3    H139501   3.979   3.279   7.245
13208TIP3    H239502   4.083   3.332   7.342
13209TIP3   OH239503   4.037   3.024   7.858
13209TIP3    H139504   3.974   3.025   7.930
13209TIP3    H239505   4.088   3.104   7.868
13210TIP3   OH239506   3.867   2.531   6.493
13210TIP3    H139507   3.931   2.595   6.461
13210TIP3    H239508   3.909   2.492   6.570
13211TIP3   OH239509   3.994   2.397   6.696
13211TIP3    H139510   3.929   2.357   6.754
13211TIP3    H239511   4.058   2.436   6.755
13212TIP3   OH239512   4.048   2.786   7.133
13212TIP3    H139513   4.096   2.722   7.081
13212TIP3    H239514   4.041   2.863   7.077
13213TIP3   OH239515   3.929   2.307   6.343
13213TIP3    H139516   3.862   2.307   6.274
13213TIP3    H239517   3.906   2.382   6.398
13214TIP3   OH239518   3.803   1.976   6.296
13214TIP3    H139519   3.762   2.021   6.222
13214TIP3    H239520   3.777   1.885   6.286
13215TIP3   OH239521   3.807   2.253   6.845
13215TIP3    H139522   3.816   2.158   6.837
13215TIP3    H239523   3.795   2.268   6.939
13216TIP3   OH239524   2.436   2.322   7.590
13216TIP3    H139525   2.431   2.296   7.497
13216TIP3    H239526   2.530   2.328   7.607
13217TIP3   OH239527   4.103   2.681   7.694
13217TIP3    H139528   4.165   2.608   7.694
13217TIP3    H239529   4.144   2.747   7.639
13218TIP3   OH239530   4.277   2.482   7.726
13218TIP3    H139531   4.205   2.429   7.761
13218TIP3    H239532   4.354   2.425   7.734
13219TIP3   OH239533   3.747   1.711   6.284
13219TIP3    H139534   3.820   1.681   6.338
13219TIP3    H239535   3.674   1.655   6.308
13220TIP3   OH239536   3.807   1.969   6.737
13220TIP3    H139537   3.844   1.882   6.754
13220TIP3    H239538   3.861   2.005   6.667
13221TIP3   OH239539   3.969   2.148   7.233
13221TIP3    H139540   4.051   2.171   7.189
13221TIP3    H239541   3.980   2.181   7.322
13222TIP3   OH239542   4.035   2.291   7.466
13222TIP3    H139543   3.957   2.323   7.511
13222TIP3    H239544   4.067   2.367   7.417
13223TIP3   OH239545   5.926   6.635   0.274
13223TIP3    H139546   6.008   6.605   0.234
13223TIP3    H239547   5.888   6.556   0.313
13224TIP3   OH239548   4.483   1.875   8.019
13224TIP3    H139549   4.543   1.812   7.980
13224TIP3    H239550   4.458   1.933   7.946
13225TIP3   OH239551   3.913   1.718   6.777
13225TIP3    H139552   3.962   1.705   6.858
13225TIP3    H239553   3.852   1.644   6.773
13226TIP3   OH239554   2.615   1.707   7.600
13226TIP3    H139555   2.674   1.631   7.605
13226TIP3    H239556   2.674   1.782   7.589
13227TIP3   OH239557   2.418   1.982   7.668
13227TIP3    H139558   2.464   1.970   7.585
13227TIP3    H239559   2.440   2.071   7.695
13228TIP3   OH239560   4.355   2.019   7.826
13228TIP3    H139561   4.270   2.060   7.844
13228TIP3    H239562   4.335   1.947   7.767
13229TIP3   OH239563   3.997   1.655   6.408
13229TIP3    H139564   4.034   1.584   6.356
13229TIP3    H239565   4.060   1.726   6.401
13230TIP3   OH239566   2.397   1.491   7.172
13230TIP3    H139567   2.304   1.483   7.192
13230TIP3    H239568   2.399   1.544   7.092
13231TIP3   OH239569   3.560   3.185   6.675
13231TIP3    H139570   3.606   3.169   6.592
13231TIP3    H239571   3.612   3.254   6.718
13232TIP3   OH239572   2.619   1.572   7.986
13232TIP3    H139573   2.569   1.561   8.067
13232TIP3    H239574   2.554   1.604   7.922
13233TIP3   OH239575   5.926   7.603   0.059
13233TIP3    H139576   5.835   7.581   0.041
13233TIP3    H239577   5.933   7.599   0.154
13234TIP3   OH239578   2.838   3.025   7.605
13234TIP3    H139579   2.786   3.096   7.569
13234TIP3    H239580   2.924   3.035   7.563
13235TIP3   OH239581   3.284   3.264   7.746
13235TIP3    H139582   3.321   3.267   7.834
13235TIP3    H239583   3.343   3.318   7.693
13236TIP3   OH239584   3.458   3.422   7.610
13236TIP3    H139585   3.523   3.381   7.554
13236TIP3    H239586   3.508   3.480   7.667
13237TIP3   OH239587   4.254   1.780   7.704
13237TIP3    H139588   4.165   1.777   7.669
13237TIP3    H239589   4.287   1.690   7.694
13238TIP3   OH239590   2.512   3.280   7.635
13238TIP3    H139591   2.426   3.310   7.605
13238TIP3    H239592   2.524   3.322   7.719
13239TIP3   OH239593   2.748   3.258   7.488
13239TIP3    H139594   2.664   3.270   7.533
13239TIP3    H239595   2.732   3.291   7.399
13240TIP3   OH239596   3.178   3.288   7.286
13240TIP3    H139597   3.110   3.304   7.220
13240TIP3    H239598   3.191   3.374   7.327
13241TIP3   OH239599   3.445   3.235   7.344
13241TIP3    H139600   3.352   3.247   7.325
13241TIP3    H239601   3.489   3.302   7.293
13242TIP3   OH239602   3.655   3.416   7.257
13242TIP3    H139603   3.639   3.500   7.214
13242TIP3    H239604   3.681   3.358   7.185
13243TIP3   OH239605   2.426   3.072   7.377
13243TIP3    H139606   2.449   3.050   7.467
13243TIP3    H239607   2.495   3.032   7.324
13244TIP3   OH239608   2.619   2.944   7.234
13244TIP3    H139609   2.634   2.862   7.281
13244TIP3    H239610   2.706   2.984   7.226
13245TIP3   OH239611   2.883   3.040   7.236
13245TIP3    H139612   2.915   2.952   7.218
13245TIP3    H239613   2.925   3.063   7.319
13246TIP3   OH239614   3.461   1.696   7.325
13246TIP3    H139615   3.417   1.628   7.375
13246TIP3    H239616   3.531   1.651   7.277
13247TIP3   OH239617   3.984   1.579   7.229
13247TIP3    H139618   4.022   1.627   7.156
13247TIP3    H239619   3.889   1.595   7.221
13248TIP3   OH239620   4.081   1.677   6.992
13248TIP3    H139621   4.150   1.624   6.952
13248TIP3    H239622   4.111   1.768   6.979
13249TIP3   OH239623   2.708   1.403   7.342
13249TIP3    H139624   2.617   1.376   7.340
13249TIP3    H239625   2.758   1.321   7.337
13250TIP3   OH239626   2.501   1.276   6.988
13250TIP3    H139627   2.528   1.329   6.913
13250TIP3    H239628   2.468   1.340   7.052
13251TIP3   OH239629   3.154   1.438   7.220
13251TIP3    H139630   3.209   1.486   7.158
13251TIP3    H239631   3.175   1.476   7.305
13252TIP3   OH239632   3.701   1.582   7.204
13252TIP3    H139633   3.697   1.550   7.114
13252TIP3    H239634   3.686   1.505   7.258
13253TIP3   OH239635   3.728   1.505   6.767
13253TIP3    H139636   3.644   1.550   6.774
13253TIP3    H239637   3.715   1.421   6.811
13254TIP3   OH239638   2.210   2.847   6.769
13254TIP3    H139639   2.128   2.811   6.735
13254TIP3    H239640   2.204   2.941   6.749
13255TIP3   OH239641   2.614   1.432   6.753
13255TIP3    H139642   2.659   1.371   6.694
13255TIP3    H239643   2.684   1.487   6.788
13256TIP3   OH239644   3.126   1.611   6.852
13256TIP3    H139645   3.184   1.560   6.908
13256TIP3    H239646   3.146   1.702   6.873
13257TIP3   OH239647   2.987   3.034   6.347
13257TIP3    H139648   3.073   3.061   6.315
13257TIP3    H239649   2.961   2.961   6.291
13258TIP3   OH239650   3.700   3.150   6.440
13258TIP3    H139651   3.694   3.055   6.429
13258TIP3    H239652   3.658   3.186   6.362
13259TIP3   OH239653   6.172   6.308   0.241
13259TIP3    H139654   6.142   6.235   0.295
13259TIP3    H239655   6.267   6.303   0.243
13260TIP3   OH239656   6.450   6.323   0.363
13260TIP3    H139657   6.517   6.279   0.311
13260TIP3    H239658   6.418   6.256   0.423
13261TIP3   OH239659   2.290   2.869   6.407
13261TIP3    H139660   2.290   2.902   6.496
13261TIP3    H239661   2.376   2.830   6.395
13262TIP3   OH239662   7.260   6.364   0.136
13262TIP3    H139663   7.278   6.333   0.225
13262TIP3    H239664   7.345   6.361   0.092
13263TIP3   OH239665   3.906   3.285   7.624
13263TIP3    H139666   3.829   3.307   7.570
13263TIP3    H239667   3.949   3.369   7.638
13264TIP3   OH239668   5.194   2.669   6.397
13264TIP3    H139669   5.171   2.760   6.380
13264TIP3    H239670   5.120   2.618   6.362
13265TIP3   OH239671   5.196   2.668   6.776
13265TIP3    H139672   5.226   2.641   6.863
13265TIP3    H239673   5.154   2.590   6.740
13266TIP3   OH239674   4.496   2.567   7.148
13266TIP3    H139675   4.528   2.500   7.208
13266TIP3    H239676   4.573   2.620   7.128
13267TIP3   OH239677   5.439   2.970   6.460
13267TIP3    H139678   5.424   2.903   6.525
13267TIP3    H239679   5.466   3.047   6.510
13268TIP3   OH239680   4.468   2.970   6.877
13268TIP3    H139681   4.459   2.875   6.875
13268TIP3    H239682   4.561   2.985   6.860
13269TIP3   OH239683   4.170   2.177   6.652
13269TIP3    H139684   4.127   2.261   6.668
13269TIP3    H239685   4.102   2.123   6.612
13270TIP3   OH239686   4.233   2.463   6.823
13270TIP3    H139687   4.281   2.389   6.859
13270TIP3    H239688   4.291   2.500   6.757
13271TIP3   OH239689   5.087   3.433   6.473
13271TIP3    H139690   5.134   3.363   6.427
13271TIP3    H239691   5.076   3.400   6.562
13272TIP3   OH239692   4.998   2.892   6.825
13272TIP3    H139693   5.032   2.818   6.776
13272TIP3    H239694   5.076   2.942   6.851
13273TIP3   OH239695   6.007   2.218   6.822
13273TIP3    H139696   6.035   2.297   6.868
13273TIP3    H239697   6.027   2.235   6.730
13274TIP3   OH239698   5.404   2.394   6.858
13274TIP3    H139699   5.448   2.312   6.879
13274TIP3    H239700   5.375   2.383   6.767
13275TIP3   OH239701   4.741   2.055   6.821
13275TIP3    H139702   4.725   2.130   6.763
13275TIP3    H239703   4.696   1.982   6.780
13276TIP3   OH239704   5.441   2.147   6.446
13276TIP3    H139705   5.510   2.131   6.511
13276TIP3    H239706   5.488   2.183   6.370
13277TIP3   OH239707   4.379   2.256   6.929
13277TIP3    H139708   4.460   2.240   6.978
13277TIP3    H239709   4.389   2.204   6.850
13278TIP3   OH239710   4.819   2.453   6.724
13278TIP3    H139711   4.912   2.431   6.736
13278TIP3    H239712   4.780   2.372   6.690
13279TIP3   OH239713   6.077   2.423   6.994
13279TIP3    H139714   5.997   2.470   6.973
13279TIP3    H239715   6.096   2.447   7.085
13280TIP3   OH239716   4.738   2.040   7.257
13280TIP3    H139717   4.682   2.076   7.188
13280TIP3    H239718   4.690   2.058   7.338
13281TIP3   OH239719   5.085   2.890   6.269
13281TIP3    H139720   5.046   2.870   6.184
13281TIP3    H239721   5.048   2.975   6.293
13282TIP3   OH239722   4.846   2.816   7.052
13282TIP3    H139723   4.785   2.880   7.090
13282TIP3    H239724   4.889   2.863   6.981
13283TIP3   OH239725   5.650   2.148   6.618
13283TIP3    H139726   5.638   2.103   6.701
13283TIP3    H239727   5.703   2.225   6.641
13284TIP3   OH239728   4.614   2.155   7.041
13284TIP3    H139729   4.672   2.227   7.066
13284TIP3    H239730   4.658   2.113   6.967
13285TIP3   OH239731   4.672   3.012   7.149
13285TIP3    H139732   4.652   3.094   7.105
13285TIP3    H239733   4.597   2.995   7.206
13286TIP3   OH239734   4.070   2.699   6.385
13286TIP3    H139735   4.029   2.725   6.303
13286TIP3    H239736   4.099   2.782   6.424
13287TIP3   OH239737   5.508   3.215   6.626
13287TIP3    H139738   5.422   3.204   6.666
13287TIP3    H239739   5.503   3.299   6.581
13288TIP3   OH239740   5.800   2.115   6.986
13288TIP3    H139741   5.713   2.146   6.959
13288TIP3    H239742   5.859   2.146   6.918
13289TIP3   OH239743   5.095   1.758   6.970
13289TIP3    H139744   5.086   1.664   6.986
13289TIP3    H239745   5.021   1.798   7.016
13290TIP3   OH239746   5.216   3.260   6.300
13290TIP3    H139747   5.260   3.177   6.280
13290TIP3    H239748   5.271   3.327   6.261
13291TIP3   OH239749   5.352   3.044   6.208
13291TIP3    H139750   5.326   2.965   6.160
13291TIP3    H239751   5.388   3.010   6.290
13292TIP3   OH239752   5.736   3.127   6.968
13292TIP3    H139753   5.725   3.050   6.911
13292TIP3    H239754   5.717   3.202   6.911
13293TIP3   OH239755   5.026   2.521   6.224
13293TIP3    H139756   4.948   2.573   6.204
13293TIP3    H239757   5.074   2.517   6.141
13294TIP3   OH239758   4.987   2.293   5.955
13294TIP3    H139759   5.049   2.355   5.994
13294TIP3    H239760   5.041   2.236   5.901
13295TIP3   OH239761   5.930   2.766   6.812
13295TIP3    H139762   5.848   2.815   6.821
13295TIP3    H239763   5.961   2.787   6.724
13296TIP3   OH239764   5.373   2.603   6.201
13296TIP3    H139765   5.319   2.628   6.276
13296TIP3    H239766   5.457   2.579   6.239
13297TIP3   OH239767   5.608   2.645   7.110
13297TIP3    H139768   5.608   2.726   7.160
13297TIP3    H239769   5.524   2.647   7.064
13298TIP3   OH239770   4.607   2.599   6.615
13298TIP3    H139771   4.566   2.545   6.548
13298TIP3    H239772   4.683   2.549   6.644
13299TIP3   OH239773   4.732   3.004   6.767
13299TIP3    H139774   4.715   2.973   6.678
13299TIP3    H239775   4.822   2.978   6.784
13300TIP3   OH239776   4.741   2.574   6.969
13300TIP3    H139777   4.774   2.552   6.882
13300TIP3    H239778   4.783   2.658   6.990
13301TIP3   OH239779   5.270   3.209   6.747
13301TIP3    H139780   5.253   3.290   6.796
13301TIP3    H239781   5.253   3.139   6.810
13302TIP3   OH239782   4.878   3.127   7.296
13302TIP3    H139783   4.823   3.192   7.339
13302TIP3    H239784   4.817   3.076   7.243
13303TIP3   OH239785   5.217   2.463   6.020
13303TIP3    H139786   5.273   2.519   6.074
13303TIP3    H239787   5.241   2.486   5.930
13304TIP3   OH239788   4.635   2.686   7.400
13304TIP3    H139789   4.642   2.772   7.441
13304TIP3    H239790   4.541   2.669   7.397
13305TIP3   OH239791   4.959   3.142   6.296
13305TIP3    H139792   5.035   3.194   6.319
13305TIP3    H239793   4.895   3.206   6.264
13306TIP3   OH239794   4.675   3.297   7.377
13306TIP3    H139795   4.642   3.301   7.287
13306TIP3    H239796   4.598   3.274   7.429
13307TIP3   OH239797   5.729   1.704   6.072
13307TIP3    H139798   5.650   1.722   6.123
13307TIP3    H239799   5.745   1.785   6.023
13308TIP3   OH239800   4.472   2.443   6.417
13308TIP3    H139801   4.409   2.492   6.363
13308TIP3    H239802   4.430   2.358   6.432
13309TIP3   OH239803   5.496   3.080   5.629
13309TIP3    H139804   5.540   3.160   5.601
13309TIP3    H239805   5.553   3.010   5.598
13310TIP3   OH239806   4.251   2.827   7.327
13310TIP3    H139807   4.192   2.809   7.254
13310TIP3    H239808   4.289   2.742   7.349
13311TIP3   OH239809   4.112   3.019   6.972
13311TIP3    H139810   4.203   3.011   6.943
13311TIP3    H239811   4.107   3.108   7.008
13312TIP3   OH239812   5.974   3.471   7.018
13312TIP3    H139813   5.973   3.376   7.028
13312TIP3    H239814   5.893   3.500   7.060
13313TIP3   OH239815   5.080   3.258   7.154
13313TIP3    H139816   5.081   3.350   7.181
13313TIP3    H239817   5.009   3.218   7.204
13314TIP3   OH239818   4.838   3.389   6.100
13314TIP3    H139819   4.792   3.372   6.018
13314TIP3    H239820   4.807   3.476   6.127
13315TIP3   OH239821   4.273   3.239   6.484
13315TIP3    H139822   4.331   3.229   6.560
13315TIP3    H239823   4.206   3.172   6.496
13316TIP3   OH239824   5.044   3.282   5.741
13316TIP3    H139825   5.101   3.214   5.705
13316TIP3    H239826   5.076   3.296   5.830
13317TIP3   OH239827   5.089   3.335   6.013
13317TIP3    H139828   5.003   3.346   6.053
13317TIP3    H239829   5.143   3.297   6.082
13318TIP3   OH239830   5.863   2.603   7.288
13318TIP3    H139831   5.783   2.618   7.238
13318TIP3    H239832   5.879   2.509   7.280
13319TIP3   OH239833   4.461   3.006   7.318
13319TIP3    H139834   4.510   2.991   7.399
13319TIP3    H239835   4.387   2.946   7.324
13320TIP3   OH239836   4.855   1.834   7.099
13320TIP3    H139837   4.769   1.802   7.073
13320TIP3    H239838   4.837   1.917   7.143
13321TIP3   OH239839   5.393   1.948   7.295
13321TIP3    H139840   5.461   1.923   7.357
13321TIP3    H239841   5.311   1.929   7.340
13322TIP3   OH239842   5.629   2.379   7.211
13322TIP3    H139843   5.583   2.375   7.295
13322TIP3    H239844   5.607   2.466   7.177
13323TIP3   OH239845   5.305   2.519   5.764
13323TIP3    H139846   5.274   2.483   5.681
13323TIP3    H239847   5.376   2.579   5.740
13324TIP3   OH239848   5.003   1.880   6.072
13324TIP3    H139849   4.973   1.883   6.163
13324TIP3    H239850   4.966   1.800   6.036
13325TIP3   OH239851   4.787   2.352   7.117
13325TIP3    H139852   4.741   2.373   7.199
13325TIP3    H239853   4.775   2.430   7.063
13326TIP3   OH239854   4.673   2.234   6.630
13326TIP3    H139855   4.582   2.212   6.650
13326TIP3    H239856   4.689   2.196   6.544
13327TIP3   OH239857   5.164   2.321   6.356
13327TIP3    H139858   5.111   2.392   6.319
13327TIP3    H239859   5.219   2.292   6.284
13328TIP3   OH239860   5.340   2.600   7.448
13328TIP3    H139861   5.317   2.528   7.507
13328TIP3    H239862   5.433   2.617   7.466
13329TIP3   OH239863   5.320   2.349   6.597
13329TIP3    H139864   5.262   2.385   6.529
13329TIP3    H239865   5.355   2.269   6.558
13330TIP3   OH239866   4.608   2.379   7.329
13330TIP3    H139867   4.644   2.443   7.391
13330TIP3    H239868   4.600   2.299   7.380
13331TIP3   OH239869   4.657   1.856   6.039
13331TIP3    H139870   4.652   1.853   6.134
13331TIP3    H239871   4.581   1.908   6.012
13332TIP3   OH239872   4.203   1.900   6.910
13332TIP3    H139873   4.277   1.933   6.961
13332TIP3    H239874   4.242   1.872   6.827
13333TIP3   OH239875   4.176   1.886   6.426
13333TIP3    H139876   4.222   1.919   6.349
13333TIP3    H239877   4.114   1.955   6.449
13334TIP3   OH239878   5.331   2.594   7.023
13334TIP3    H139879   5.364   2.527   6.964
13334TIP3    H239880   5.303   2.546   7.101
13335TIP3   OH239881   5.000   2.056   6.695
13335TIP3    H139882   4.918   2.056   6.746
13335TIP3    H239883   5.069   2.059   6.761
13336TIP3   OH239884   4.434   2.113   6.702
13336TIP3    H139885   4.342   2.121   6.675
13336TIP3    H239886   4.458   2.024   6.677
13337TIP3   OH239887   4.706   2.110   6.388
13337TIP3    H139888   4.799   2.126   6.370
13337TIP3    H239889   4.661   2.134   6.308
13338TIP3   OH239890   5.491   2.133   6.895
13338TIP3    H139891   5.461   2.147   6.985
13338TIP3    H239892   5.427   2.073   6.857
13339TIP3   OH239893   4.548   2.144   6.165
13339TIP3    H139894   4.475   2.100   6.122
13339TIP3    H239895   4.599   2.181   6.093
13340TIP3   OH239896   5.664   3.822   7.113
13340TIP3    H139897   5.658   3.847   7.021
13340TIP3    H239898   5.734   3.877   7.149
13341TIP3   OH239899   4.620   2.930   7.541
13341TIP3    H139900   4.702   2.962   7.580
13341TIP3    H239901   4.556   2.937   7.612
13342TIP3   OH239902   5.085   2.382   6.790
13342TIP3    H139903   5.159   2.349   6.738
13342TIP3    H239904   5.098   2.344   6.877
13343TIP3   OH239905   4.608   1.873   6.668
13343TIP3    H139906   4.576   1.795   6.713
13343TIP3    H239907   4.660   1.840   6.595
13344TIP3   OH239908   5.061   2.281   7.086
13344TIP3    H139909   4.974   2.320   7.095
13344TIP3    H239910   5.119   2.341   7.132
13345TIP3   OH239911   4.798   2.675   6.175
13345TIP3    H139912   4.728   2.611   6.163
13345TIP3    H239913   4.784   2.710   6.263
13346TIP3   OH239914   5.698   2.909   6.804
13346TIP3    H139915   5.723   2.959   6.726
13346TIP3    H239916   5.614   2.869   6.781
13347TIP3   OH239917   5.256   1.987   6.038
13347TIP3    H139918   5.161   1.972   6.044
13347TIP3    H239919   5.267   2.080   6.060
13348TIP3   OH239920   5.194   2.991   7.175
13348TIP3    H139921   5.222   2.974   7.265
13348TIP3    H239922   5.160   3.080   7.177
13349TIP3   OH239923   5.327   2.235   6.140
13349TIP3    H139924   5.421   2.241   6.155
13349TIP3    H239925   5.306   2.312   6.087
13350TIP3   OH239926   4.488   2.688   6.851
13350TIP3    H139927   4.524   2.669   6.765
13350TIP3    H239928   4.536   2.632   6.911
13351TIP3   OH239929   4.939   2.826   5.985
13351TIP3    H139930   4.895   2.911   5.995
13351TIP3    H239931   4.894   2.768   6.046
13352TIP3   OH239932   4.366   2.620   7.470
13352TIP3    H139933   4.396   2.604   7.559
13352TIP3    H239934   4.304   2.549   7.453
13353TIP3   OH239935   5.097   2.726   7.484
13353TIP3    H139936   5.039   2.673   7.430
13353TIP3    H239937   5.185   2.698   7.459
13354TIP3   OH239938   5.357   3.247   7.073
13354TIP3    H139939   5.262   3.249   7.080
13354TIP3    H239940   5.387   3.300   7.146
13355TIP3   OH239941   5.766   2.325   5.973
13355TIP3    H139942   5.706   2.275   5.916
13355TIP3    H239943   5.763   2.414   5.939
13356TIP3   OH239944   5.985   3.179   7.056
13356TIP3    H139945   5.890   3.177   7.053
13356TIP3    H239946   6.013   3.150   6.969
13357TIP3   OH239947   5.465   3.141   5.890
13357TIP3    H139948   5.449   3.065   5.946
13357TIP3    H239949   5.474   3.105   5.802
13358TIP3   OH239950   5.463   2.769   6.725
13358TIP3    H139951   5.370   2.748   6.739
13358TIP3    H239952   5.498   2.694   6.679
13359TIP3   OH239953   4.589   2.997   6.470
13359TIP3    H139954   4.595   3.080   6.424
13359TIP3    H239955   4.498   2.992   6.498
13360TIP3   OH239956   4.154   2.305   6.182
13360TIP3    H139957   4.200   2.387   6.198
13360TIP3    H239958   4.078   2.309   6.239
13361TIP3   OH239959   4.729   2.765   6.422
13361TIP3    H139960   4.695   2.854   6.434
13361TIP3    H239961   4.694   2.715   6.495
13362TIP3   OH239962   4.860   3.343   6.956
13362TIP3    H139963   4.890   3.412   6.897
13362TIP3    H239964   4.940   3.311   6.998
13363TIP3   OH239965   4.509   3.240   6.328
13363TIP3    H139966   4.425   3.245   6.373
13363TIP3    H239967   4.543   3.329   6.330
13364TIP3   OH239968   5.249   2.975   6.907
13364TIP3    H139969   5.238   2.975   7.002
13364TIP3    H239970   5.330   2.927   6.891
13365TIP3   OH239971   5.184   2.829   5.793
13365TIP3    H139972   5.270   2.826   5.836
13365TIP3    H239973   5.123   2.842   5.865
13366TIP3   OH239974   5.496   3.510   6.951
13366TIP3    H139975   5.418   3.456   6.945
13366TIP3    H239976   5.485   3.577   6.884
13367TIP3   OH239977   5.568   3.354   5.604
13367TIP3    H139978   5.608   3.427   5.556
13367TIP3    H239979   5.486   3.389   5.638
13368TIP3   OH239980   4.582   2.121   7.475
13368TIP3    H139981   4.487   2.125   7.487
13368TIP3    H239982   4.612   2.062   7.544
13369TIP3   OH239983   5.380   2.805   5.999
13369TIP3    H139984   5.369   2.740   6.069
13369TIP3    H239985   5.474   2.806   5.982
13370TIP3   OH239986   4.290   3.214   7.140
13370TIP3    H139987   4.342   3.133   7.137
13370TIP3    H239988   4.350   3.280   7.174
13371TIP3   OH239989   4.594   2.861   5.787
13371TIP3    H139990   4.585   2.780   5.738
13371TIP3    H239991   4.573   2.837   5.877
13372TIP3   OH239992   4.538   2.855   6.059
13372TIP3    H139993   4.605   2.829   6.123
13372TIP3    H239994   4.536   2.950   6.062
13373TIP3   OH239995   4.269   2.552   6.262
13373TIP3    H139996   4.205   2.593   6.320
13373TIP3    H239997   4.285   2.618   6.194
13374TIP3   OH239998   5.419   2.184   7.154
13374TIP3    H139999   5.497   2.225   7.191
13374TIP3    H240000   5.405   2.106   7.207
13375TIP3   OH240001   5.300   1.939   6.317
13375TIP3    H140002   5.285   1.960   6.225
13375TIP3    H240003   5.338   2.019   6.354
13376TIP3   OH240004   4.797   3.056   6.004
13376TIP3    H140005   4.713   3.077   6.044
13376TIP3    H240006   4.819   3.133   5.951
13377TIP3   OH240007   4.990   2.117   6.422
13377TIP3    H140008   5.052   2.187   6.401
13377TIP3    H240009   4.993   2.110   6.517
13378TIP3   OH240010   5.258   2.435   7.232
13378TIP3    H140011   5.277   2.490   7.308
13378TIP3    H240012   5.313   2.357   7.243
13379TIP3   OH240013   5.135   1.847   6.523
13379TIP3    H140014   5.125   1.920   6.584
13379TIP3    H240015   5.194   1.880   6.455
13380TIP3   OH240016   4.541   3.129   6.075
13380TIP3    H140017   4.513   3.196   6.012
13380TIP3    H240018   4.526   3.169   6.161
13381TIP3   OH240019   4.646   1.844   6.315
13381TIP3    H140020   4.640   1.933   6.349
13381TIP3    H240021   4.740   1.822   6.321
13382TIP3   OH240022   5.895   2.336   7.208
13382TIP3    H140023   5.800   2.335   7.217
13382TIP3    H240024   5.911   2.297   7.122
13383TIP3   OH240025   5.549   2.528   6.599
13383TIP3    H140026   5.474   2.471   6.610
13383TIP3    H240027   5.620   2.484   6.645
13384TIP3   OH240028   4.264   2.758   6.067
13384TIP3    H140029   4.320   2.835   6.080
13384TIP3    H240030   4.308   2.707   5.999
13385TIP3   OH240031   4.205   2.036   6.200
13385TIP3    H140032   4.207   2.131   6.199
13385TIP3    H240033   4.123   2.013   6.157
13386TIP3   OH240034   5.519   3.486   6.544
13386TIP3    H140035   5.474   3.530   6.473
13386TIP3    H240036   5.612   3.502   6.528
13387TIP3   OH240037   4.591   1.753   7.075
13387TIP3    H140038   4.562   1.723   6.989
13387TIP3    H240039   4.582   1.677   7.132
13388TIP3   OH240040   4.127   2.964   6.457
13388TIP3    H140041   4.057   3.002   6.510
13388TIP3    H240042   4.118   3.006   6.372
13389TIP3   OH240043   4.289   3.509   7.538
13389TIP3    H140044   4.374   3.519   7.580
13389TIP3    H240045   4.281   3.415   7.522
13390TIP3   OH240046   4.769   3.476   7.573
13390TIP3    H140047   4.864   3.468   7.581
13390TIP3    H240048   4.746   3.422   7.498
13391TIP3   OH240049   4.760   3.052   5.699
13391TIP3    H140050   4.692   2.996   5.737
13391TIP3    H240051   4.836   2.995   5.690
13392TIP3   OH240052   5.412   3.384   7.305
13392TIP3    H140053   5.402   3.317   7.372
13392TIP3    H240054   5.486   3.437   7.334
13393TIP3   OH240055   5.202   3.088   5.611
13393TIP3    H140056   5.270   3.049   5.666
13393TIP3    H240057   5.243   3.102   5.526
13394TIP3   OH240058   4.415   2.916   7.728
13394TIP3    H140059   4.439   2.824   7.728
13394TIP3    H240060   4.332   2.920   7.680
13395TIP3   OH240061   4.400   2.570   5.912
13395TIP3    H140062   4.454   2.542   5.986
13395TIP3    H240063   4.459   2.569   5.837
13396TIP3   OH240064   5.026   3.003   7.500
13396TIP3    H140065   4.988   3.024   7.415
13396TIP3    H240066   5.058   2.913   7.491
13397TIP3   OH240067   4.916   2.768   5.713
13397TIP3    H140068   4.908   2.791   5.805
13397TIP3    H240069   4.897   2.674   5.710
13398TIP3   OH240070   5.520   3.015   7.105
13398TIP3    H140071   5.596   3.057   7.062
13398TIP3    H240072   5.449   3.079   7.095
13399TIP3   OH240073   4.537   2.648   7.711
13399TIP3    H140074   4.616   2.604   7.681
13399TIP3    H240075   4.561   2.685   7.796
13400TIP3   OH240076   4.605   2.474   6.139
13400TIP3    H140077   4.579   2.436   6.223
13400TIP3    H240078   4.642   2.400   6.090
13401TIP3   OH240079   4.871   2.537   7.366
13401TIP3    H140080   4.797   2.598   7.373
13401TIP3    H240081   4.922   2.570   7.292
13402TIP3   OH240082   4.709   2.267   5.977
13402TIP3    H140083   4.691   2.248   5.885
13402TIP3    H240084   4.804   2.272   5.982
13403TIP3   OH240085   5.390   2.939   7.506
13403TIP3    H140086   5.470   2.921   7.457
13403TIP3    H240087   5.389   2.874   7.576
13404TIP3   OH240088   4.993   2.327   7.497
13404TIP3    H140089   4.998   2.248   7.443
13404TIP3    H240090   4.954   2.392   7.440
13405TIP3   OH240091   4.998   2.113   7.303
13405TIP3    H140092   5.028   2.156   7.223
13405TIP3    H240093   4.906   2.091   7.286
13406TIP3   OH240094   5.027   2.650   7.176
13406TIP3    H140095   5.111   2.659   7.131
13406TIP3    H240096   4.971   2.716   7.135
13407TIP3   OH240097   5.611   2.616   7.559
13407TIP3    H140098   5.658   2.534   7.570
13407TIP3    H240099   5.677   2.677   7.525
13408TIP3   OH240100   5.651   2.871   7.291
13408TIP3    H140101   5.591   2.922   7.236
13408TIP3    H240102   5.737   2.889   7.255
13409TIP3   OH240103   4.871   2.440   7.725
13409TIP3    H140104   4.804   2.373   7.740
13409TIP3    H240105   4.909   2.418   7.641
13410TIP3   OH240106   5.130   1.878   7.369
13410TIP3    H140107   5.084   1.959   7.348
13410TIP3    H240108   5.063   1.810   7.358
13411TIP3   OH240109   5.256   2.382   7.588
13411TIP3    H140110   5.253   2.371   7.683
13411TIP3    H240111   5.168   2.358   7.559
13412TIP3   OH240112   5.497   2.330   7.443
13412TIP3    H140113   5.423   2.333   7.503
13412TIP3    H240114   5.570   2.301   7.497
13413TIP3   OH240115   5.722   2.269   7.594
13413TIP3    H140116   5.738   2.176   7.612
13413TIP3    H240117   5.721   2.310   7.681
13414TIP3   OH240118   4.712   2.219   7.781
13414TIP3    H140119   4.722   2.132   7.742
13414TIP3    H240120   4.749   2.210   7.869
13415TIP3   OH240121   5.225   1.885   7.626
13415TIP3    H140122   5.294   1.819   7.625
13415TIP3    H240123   5.186   1.881   7.539
13416TIP3   OH240124   5.290   2.102   7.785
13416TIP3    H140125   5.270   2.032   7.723
13416TIP3    H240126   5.215   2.161   7.779
13417TIP3   OH240127   4.514   3.330   5.883
13417TIP3    H140128   4.608   3.327   5.870
13417TIP3    H240129   4.480   3.379   5.808
13418TIP3   OH240130   3.994   2.711   6.104
13418TIP3    H140131   4.086   2.735   6.092
13418TIP3    H240132   3.986   2.624   6.063
13419TIP3   OH240133   3.903   3.324   6.518
13419TIP3    H140134   3.838   3.264   6.481
13419TIP3    H240135   3.950   3.271   6.582
13420TIP3   OH240136   4.043   3.173   6.698
13420TIP3    H140137   4.030   3.098   6.756
13420TIP3    H240138   4.102   3.231   6.746
13421TIP3   OH240139   5.772   3.575   6.504
13421TIP3    H140140   5.793   3.609   6.590
13421TIP3    H240141   5.827   3.625   6.444
13422TIP3   OH240142   5.799   3.594   6.785
13422TIP3    H140143   5.756   3.509   6.779
13422TIP3    H240144   5.874   3.580   6.842
13423TIP3   OH240145   5.846   3.275   7.360
13423TIP3    H140146   5.773   3.281   7.421
13423TIP3    H240147   5.886   3.362   7.362
13424TIP3   OH240148   5.659   2.789   5.993
13424TIP3    H140149   5.724   2.847   5.952
13424TIP3    H240150   5.706   2.749   6.066
13425TIP3   OH240151   5.794   2.650   6.186
13425TIP3    H140152   5.726   2.612   6.241
13425TIP3    H240153   5.854   2.692   6.247
13426TIP3   OH240154   5.845   3.046   6.614
13426TIP3    H140155   5.895   2.982   6.564
13426TIP3    H240156   5.835   3.121   6.556
13427TIP3   OH240157   5.674   3.345   6.811
13427TIP3    H140158   5.606   3.390   6.861
13427TIP3    H240159   5.626   3.299   6.742
13428TIP3   OH240160   5.719   2.563   5.836
13428TIP3    H140161   5.679   2.593   5.755
13428TIP3    H240162   5.698   2.631   5.900
13429TIP3   OH240163   5.600   2.229   5.784
13429TIP3    H140164   5.561   2.280   5.713
13429TIP3    H240165   5.572   2.139   5.768
13430TIP3   OH240166   5.603   2.510   6.331
13430TIP3    H140167   5.612   2.415   6.324
13430TIP3    H240168   5.590   2.526   6.425
13431TIP3   OH240169   4.232   2.580   7.077
13431TIP3    H140170   4.228   2.554   6.984
13431TIP3    H240171   4.326   2.586   7.095
13432TIP3   OH240172   5.894   2.935   7.185
13432TIP3    H140173   5.965   2.871   7.177
13432TIP3    H240174   5.918   3.004   7.123
13433TIP3   OH240175   6.080   2.739   7.205
13433TIP3    H140176   6.005   2.693   7.242
13433TIP3    H240177   6.153   2.678   7.216
13434TIP3   OH240178   5.544   1.962   5.765
13434TIP3    H140179   5.616   1.939   5.824
13434TIP3    H240180   5.470   1.910   5.795
13435TIP3   OH240181   5.602   2.225   6.224
13435TIP3    H140182   5.640   2.139   6.240
13435TIP3    H240183   5.656   2.263   6.155
13436TIP3   OH240184   5.765   2.403   6.720
13436TIP3    H140185   5.847   2.426   6.677
13436TIP3    H240186   5.773   2.437   6.809
13437TIP3   OH240187   5.829   2.547   6.951
13437TIP3    H140188   5.752   2.578   6.999
13437TIP3    H240189   5.862   2.624   6.906
13438TIP3   OH240190   4.446   2.270   7.750
13438TIP3    H140191   4.542   2.269   7.749
13438TIP3    H240192   4.421   2.187   7.792
13439TIP3   OH240193   6.275   2.131   7.504
13439TIP3    H140194   6.338   2.069   7.468
13439TIP3    H240195   6.254   2.190   7.431
13440TIP3   OH240196   5.710   1.974   6.263
13440TIP3    H140197   5.758   1.962   6.344
13440TIP3    H240198   5.649   1.901   6.260
13441TIP3   OH240199   4.411   1.964   7.085
13441TIP3    H140200   4.470   1.888   7.092
13441TIP3    H240201   4.469   2.039   7.076
13442TIP3   OH240202   4.214   2.239   7.154
13442TIP3    H140203   4.260   2.227   7.071
13442TIP3    H240204   4.240   2.326   7.183
13443TIP3   OH240205   6.152   2.278   7.309
13443TIP3    H140206   6.069   2.317   7.336
13443TIP3    H240207   6.128   2.204   7.254
13444TIP3   OH240208   5.792   1.912   5.894
13444TIP3    H140209   5.831   1.842   5.843
13444TIP3    H240210   5.855   1.984   5.889
13445TIP3   OH240211   4.193   1.742   6.655
13445TIP3    H140212   4.101   1.739   6.680
13445TIP3    H240213   4.195   1.798   6.578
13446TIP3   OH240214   5.355   3.443   6.159
13446TIP3    H140215   5.405   3.429   6.079
13446TIP3    H240216   5.404   3.510   6.206
13447TIP3   OH240217   4.412   1.821   7.471
13447TIP3    H140218   4.364   1.817   7.554
13447TIP3    H240219   4.350   1.858   7.408
13448TIP3   OH240220   4.457   3.243   7.546
13448TIP3    H140221   4.367   3.217   7.529
13448TIP3    H240222   4.465   3.239   7.641
13449TIP3   OH240223   4.624   3.285   7.090
13449TIP3    H140224   4.567   3.344   7.041
13449TIP3    H240225   4.711   3.299   7.053
13450TIP3   OH240226   5.081   3.524   7.232
13450TIP3    H140227   5.119   3.526   7.320
13450TIP3    H240228   5.143   3.574   7.178
13451TIP3   OH240229   5.259   3.676   7.091
13451TIP3    H140230   5.329   3.626   7.048
13451TIP3    H240231   5.305   3.734   7.151
13452TIP3   OH240232   6.052   2.037   7.190
13452TIP3    H140233   5.962   2.034   7.158
13452TIP3    H240234   6.084   1.947   7.179
13453TIP3   OH240235   4.974   3.546   6.771
13453TIP3    H140236   4.902   3.560   6.709
13453TIP3    H240237   4.984   3.630   6.815
13454TIP3   OH240238   5.240   3.484   6.823
13454TIP3    H140239   5.147   3.499   6.806
13454TIP3    H240240   5.284   3.559   6.784
13455TIP3   OH240241   5.449   3.676   6.739
13455TIP3    H140242   5.435   3.760   6.695
13455TIP3    H240243   5.473   3.616   6.668
13456TIP3   OH240244   4.211   3.315   6.869
13456TIP3    H140245   4.247   3.315   6.958
13456TIP3    H240246   4.283   3.345   6.814
13457TIP3   OH240247   4.425   3.189   6.698
13457TIP3    H140248   4.436   3.123   6.766
13457TIP3    H240249   4.494   3.253   6.716
13458TIP3   OH240250   4.702   3.297   6.701
13458TIP3    H140251   4.719   3.204   6.712
13458TIP3    H240252   4.697   3.332   6.790
13459TIP3   OH240253   5.257   1.952   6.808
13459TIP3    H140254   5.213   1.885   6.860
13459TIP3    H240255   5.329   1.907   6.765
13460TIP3   OH240256   5.779   1.831   6.713
13460TIP3    H140257   5.817   1.883   6.642
13460TIP3    H240258   5.686   1.852   6.711
13461TIP3   OH240259   5.878   1.934   6.478
13461TIP3    H140260   5.948   1.882   6.439
13461TIP3    H240261   5.906   2.025   6.466
13462TIP3   OH240262   4.505   1.660   6.827
13462TIP3    H140263   4.414   1.631   6.827
13462TIP3    H240264   4.555   1.578   6.823
13463TIP3   OH240265   4.293   1.533   6.473
13463TIP3    H140266   4.322   1.588   6.401
13463TIP3    H240267   4.263   1.595   6.540
13464TIP3   OH240268   4.950   1.695   6.707
13464TIP3    H140269   5.005   1.744   6.646
13464TIP3    H240270   4.971   1.732   6.793
13465TIP3   OH240271   5.496   1.839   6.692
13465TIP3    H140272   5.493   1.807   6.602
13465TIP3    H240273   5.482   1.760   6.745
13466TIP3   OH240274   5.524   1.762   6.253
13466TIP3    H140275   5.441   1.808   6.263
13466TIP3    H240276   5.511   1.679   6.299
13467TIP3   OH240277   4.008   3.103   6.255
13467TIP3    H140278   3.925   3.069   6.220
13467TIP3    H240279   4.003   3.197   6.242
13468TIP3   OH240280   4.410   1.690   6.239
13468TIP3    H140281   4.457   1.629   6.181
13468TIP3    H240282   4.479   1.745   6.275
13469TIP3   OH240283   4.923   1.867   6.339
13469TIP3    H140284   4.982   1.818   6.396
13469TIP3    H240285   4.940   1.959   6.359
13470TIP3   OH240286   4.784   3.291   5.833
13470TIP3    H140287   4.871   3.316   5.803
13470TIP3    H240288   4.759   3.218   5.777
13471TIP3   OH240289   5.499   3.407   5.926
13471TIP3    H140290   5.491   3.312   5.919
13471TIP3    H240291   5.455   3.441   5.848
13472TIP3   OH240292   4.715   1.940   7.718
13472TIP3    H140293   4.679   1.871   7.774
13472TIP3    H240294   4.808   1.944   7.741
13473TIP3   OH240295   4.963   1.937   7.836
13473TIP3    H140296   5.047   1.920   7.794
13473TIP3    H240297   4.954   1.868   7.901
13474TIP3   OH240298   4.086   3.128   5.894
13474TIP3    H140299   4.084   3.156   5.985
13474TIP3    H240300   4.173   3.089   5.883
13475TIP3   OH240301   5.789   1.999   7.626
13475TIP3    H140302   5.805   1.969   7.715
13475TIP3    H240303   5.875   1.997   7.583
13476TIP3   OH240304   5.726   3.555   7.114
13476TIP3    H140305   5.650   3.520   7.068
13476TIP3    H240306   5.711   3.649   7.119
13477TIP3   OH240307   6.991   2.927   5.881
13477TIP3    H140308   6.967   3.018   5.864
13477TIP3    H240309   6.915   2.877   5.851
13478TIP3   OH240310   6.992   2.924   6.263
13478TIP3    H140311   7.023   2.898   6.350
13478TIP3    H240312   6.949   2.845   6.228
13479TIP3   OH240313   6.294   2.821   6.629
13479TIP3    H140314   6.322   2.753   6.691
13479TIP3    H240315   6.369   2.879   6.621
13480TIP3   OH240316   7.234   3.228   5.946
13480TIP3    H140317   7.221   3.158   6.010
13480TIP3    H240318   7.263   3.303   5.998
13481TIP3   OH240319   6.265   3.229   6.355
13481TIP3    H140320   6.252   3.134   6.358
13481TIP3    H240321   6.360   3.241   6.347
13482TIP3   OH240322   5.967   2.433   6.140
13482TIP3    H140323   5.923   2.517   6.156
13482TIP3    H240324   5.900   2.379   6.098
13483TIP3   OH240325   6.031   2.722   6.312
13483TIP3    H140326   6.078   2.646   6.347
13483TIP3    H240327   6.084   2.750   6.237
13484TIP3   OH240328   6.883   3.688   5.960
13484TIP3    H140329   6.930   3.619   5.913
13484TIP3    H240330   6.875   3.655   6.049
13485TIP3   OH240331   6.794   3.150   6.312
13485TIP3    H140332   6.826   3.074   6.264
13485TIP3    H240333   6.873   3.198   6.337
13486TIP3   OH240334   7.803   2.474   6.308
13486TIP3    H140335   7.831   2.553   6.354
13486TIP3    H240336   7.824   2.491   6.216
13487TIP3   OH240337   7.203   2.652   6.344
13487TIP3    H140338   7.245   2.569   6.366
13487TIP3    H240339   7.172   2.639   6.254
13488TIP3   OH240340   6.538   2.312   6.307
13488TIP3    H140341   6.520   2.386   6.248
13488TIP3    H240342   6.492   2.238   6.268
13489TIP3   OH240343   7.237   2.403   5.932
13489TIP3    H140344   7.304   2.387   5.998
13489TIP3    H240345   7.285   2.439   5.857
13490TIP3   OH240346   6.176   2.513   6.415
13490TIP3    H140347   6.256   2.496   6.465
13490TIP3    H240348   6.185   2.460   6.337
13491TIP3   OH240349   6.616   2.710   6.208
13491TIP3    H140350   6.708   2.687   6.222
13491TIP3    H240351   6.575   2.629   6.177
13492TIP3   OH240352   7.874   2.680   6.480
13492TIP3    H140353   7.793   2.726   6.459
13492TIP3    H240354   7.892   2.705   6.571
13493TIP3   OH240355   6.535   2.296   6.744
13493TIP3    H140356   6.478   2.333   6.676
13493TIP3    H240357   6.487   2.311   6.825
13494TIP3   OH240358   6.885   3.150   5.750
13494TIP3    H140359   6.840   3.125   5.670
13494TIP3    H240360   6.844   3.232   5.777
13495TIP3   OH240361   6.644   3.073   6.539
13495TIP3    H140362   6.581   3.135   6.577
13495TIP3    H240363   6.685   3.121   6.468
13496TIP3   OH240364   7.447   2.405   6.104
13496TIP3    H140365   7.434   2.358   6.186
13496TIP3    H240366   7.499   2.482   6.129
13497TIP3   OH240367   6.410   2.412   6.527
13497TIP3    H140368   6.469   2.483   6.553
13497TIP3    H240369   6.455   2.369   6.454
13498TIP3   OH240370   6.469   3.267   6.638
13498TIP3    H140371   6.448   3.350   6.596
13498TIP3    H240372   6.393   3.247   6.693
13499TIP3   OH240373   5.869   2.949   5.879
13499TIP3    H140374   5.818   2.966   5.799
13499TIP3    H240375   5.897   3.035   5.909
13500TIP3   OH240376   7.304   3.471   6.112
13500TIP3    H140377   7.217   3.461   6.152
13500TIP3    H240378   7.299   3.556   6.067
13501TIP3   OH240379   7.596   2.372   6.474
13501TIP3    H140380   7.509   2.402   6.447
13501TIP3    H240381   7.655   2.403   6.405
13502TIP3   OH240382   6.892   2.015   6.459
13502TIP3    H140383   6.882   1.921   6.474
13502TIP3    H240384   6.817   2.055   6.503
13503TIP3   OH240385   7.013   3.517   5.786
13503TIP3    H140386   7.058   3.434   5.767
13503TIP3    H240387   7.068   3.584   5.747
13504TIP3   OH240388   7.152   3.300   5.693
13504TIP3    H140389   7.106   3.225   5.656
13504TIP3    H240390   7.187   3.268   5.776
13505TIP3   OH240391   7.531   3.384   6.454
13505TIP3    H140392   7.521   3.307   6.398
13505TIP3    H240393   7.514   3.459   6.396
13506TIP3   OH240394   6.822   2.777   5.711
13506TIP3    H140395   6.742   2.827   5.694
13506TIP3    H240396   6.869   2.776   5.628
13507TIP3   OH240397   6.784   2.563   5.428
13507TIP3    H140398   6.847   2.613   5.480
13507TIP3    H240399   6.838   2.497   5.382
13508TIP3   OH240400   7.725   3.021   6.298
13508TIP3    H140401   7.644   3.071   6.307
13508TIP3    H240402   7.757   3.043   6.211
13509TIP3   OH240403   7.171   2.859   5.688
13509TIP3    H140404   7.115   2.885   5.761
13509TIP3    H240405   7.254   2.834   5.729
13510TIP3   OH240406   7.404   2.902   6.596
13510TIP3    H140407   7.404   2.983   6.646
13510TIP3    H240408   7.320   2.903   6.551
13511TIP3   OH240409   6.403   2.856   6.100
13511TIP3    H140410   6.361   2.802   6.034
13511TIP3    H240411   6.478   2.805   6.129
13512TIP3   OH240412   6.534   3.268   6.250
13512TIP3    H140413   6.510   3.228   6.166
13512TIP3    H240414   6.622   3.236   6.268
13513TIP3   OH240415   6.543   2.829   6.456
13513TIP3    H140416   6.573   2.809   6.367
13513TIP3    H240417   6.582   2.914   6.476
13514TIP3   OH240418   7.065   3.467   6.234
13514TIP3    H140419   7.050   3.546   6.286
13514TIP3    H240420   7.050   3.395   6.295
13515TIP3   OH240421   6.673   3.386   6.783
13515TIP3    H140422   6.615   3.450   6.825
13515TIP3    H240423   6.615   3.331   6.731
13516TIP3   OH240424   7.015   2.719   5.510
13516TIP3    H140425   7.069   2.776   5.564
13516TIP3    H240426   7.038   2.741   5.420
13517TIP3   OH240427   6.428   2.943   6.879
13517TIP3    H140428   6.434   3.028   6.924
13517TIP3    H240429   6.336   2.919   6.887
13518TIP3   OH240430   6.755   3.398   5.786
13518TIP3    H140431   6.831   3.452   5.806
13518TIP3    H240432   6.692   3.460   5.748
13519TIP3   OH240433   6.469   3.554   6.867
13519TIP3    H140434   6.438   3.555   6.776
13519TIP3    H240435   6.392   3.531   6.919
13520TIP3   OH240436   7.525   1.961   5.558
13520TIP3    H140437   7.446   1.978   5.610
13520TIP3    H240438   7.540   2.043   5.510
13521TIP3   OH240439   6.268   2.701   5.904
13521TIP3    H140440   6.206   2.749   5.849
13521TIP3    H240441   6.225   2.617   5.919
13522TIP3   OH240442   7.327   3.327   5.105
13522TIP3    H140443   7.332   3.422   5.094
13522TIP3    H240444   7.417   3.297   5.094
13523TIP3   OH240445   6.050   3.084   6.813
13523TIP3    H140446   5.985   3.064   6.746
13523TIP3    H240447   6.086   2.998   6.837
13524TIP3   OH240448   5.905   3.277   6.450
13524TIP3    H140449   6.000   3.274   6.438
13524TIP3    H240450   5.890   3.358   6.499
13525TIP3   OH240451   7.767   3.726   6.502
13525TIP3    H140452   7.769   3.631   6.515
13525TIP3    H240453   7.687   3.754   6.546
13526TIP3   OH240454   6.875   3.515   6.641
13526TIP3    H140455   6.876   3.607   6.668
13526TIP3    H240456   6.804   3.475   6.690
13527TIP3   OH240457   6.635   3.646   5.587
13527TIP3    H140458   6.589   3.626   5.506
13527TIP3    H240459   6.603   3.732   5.613
13528TIP3   OH240460   6.073   3.492   5.973
13528TIP3    H140461   6.121   3.485   6.056
13528TIP3    H240462   6.015   3.416   5.973
13529TIP3   OH240463   6.838   3.544   5.230
13529TIP3    H140464   6.895   3.476   5.193
13529TIP3    H240465   6.869   3.555   5.319
13530TIP3   OH240466   6.886   3.592   5.501
13530TIP3    H140467   6.799   3.603   5.539
13530TIP3    H240468   6.937   3.552   5.571
13531TIP3   OH240469   7.658   2.859   6.775
13531TIP3    H140470   7.578   2.873   6.725
13531TIP3    H240471   7.675   2.765   6.768
13532TIP3   OH240472   6.253   3.266   6.803
13532TIP3    H140473   6.302   3.250   6.883
13532TIP3    H240474   6.180   3.205   6.806
13533TIP3   OH240475   6.652   2.093   6.586
13533TIP3    H140476   6.566   2.059   6.559
13533TIP3    H240477   6.632   2.174   6.632
13534TIP3   OH240478   7.188   2.205   6.782
13534TIP3    H140479   7.255   2.180   6.845
13534TIP3    H240480   7.105   2.187   6.826
13535TIP3   OH240481   7.427   2.636   6.700
13535TIP3    H140482   7.380   2.631   6.783
13535TIP3    H240483   7.403   2.722   6.664
13536TIP3   OH240484   7.087   2.764   5.252
13536TIP3    H140485   7.054   2.738   5.166
13536TIP3    H240486   7.165   2.816   5.233
13537TIP3   OH240487   6.799   2.139   5.558
13537TIP3    H140488   6.769   2.141   5.649
13537TIP3    H240489   6.763   2.058   5.523
13538TIP3   OH240490   6.586   2.608   6.606
13538TIP3    H140491   6.536   2.626   6.686
13538TIP3    H240492   6.572   2.686   6.552
13539TIP3   OH240493   6.468   2.491   6.117
13539TIP3    H140494   6.377   2.469   6.137
13539TIP3    H240495   6.484   2.453   6.031
13540TIP3   OH240496   6.961   2.579   5.844
13540TIP3    H140497   6.907   2.649   5.806
13540TIP3    H240498   7.015   2.549   5.771
13541TIP3   OH240499   7.137   2.859   6.939
13541TIP3    H140500   7.112   2.786   6.996
13541TIP3    H240501   7.230   2.871   6.954
13542TIP3   OH240502   7.117   2.605   6.083
13542TIP3    H140503   7.058   2.640   6.016
13542TIP3    H240504   7.152   2.525   6.045
13543TIP3   OH240505   6.406   2.635   6.816
13543TIP3    H140506   6.431   2.699   6.882
13543TIP3    H240507   6.394   2.553   6.864
13544TIP3   OH240508   6.453   2.113   5.525
13544TIP3    H140509   6.448   2.109   5.620
13544TIP3    H240510   6.378   2.166   5.499
13545TIP3   OH240511   5.999   2.156   6.395
13545TIP3    H140512   6.072   2.189   6.448
13545TIP3    H240513   6.040   2.128   6.313
13546TIP3   OH240514   5.972   2.143   5.911
13546TIP3    H140515   6.018   2.179   5.834
13546TIP3    H240516   5.910   2.212   5.935
13547TIP3   OH240517   7.128   2.851   6.509
13547TIP3    H140518   7.161   2.783   6.450
13547TIP3    H240519   7.100   2.803   6.587
13548TIP3   OH240520   6.796   2.315   6.182
13548TIP3    H140521   6.714   2.313   6.231
13548TIP3    H240522   6.864   2.315   6.249
13549TIP3   OH240523   6.231   2.370   6.188
13549TIP3    H140524   6.139   2.379   6.162
13549TIP3    H240525   6.254   2.280   6.164
13550TIP3   OH240526   6.503   2.366   5.876
13550TIP3    H140527   6.594   2.383   5.855
13550TIP3    H240528   6.455   2.389   5.796
13551TIP3   OH240529   7.287   2.390   6.382
13551TIP3    H140530   7.257   2.404   6.472
13551TIP3    H240531   7.223   2.329   6.345
13552TIP3   OH240532   6.344   2.397   5.654
13552TIP3    H140533   6.268   2.357   5.612
13552TIP3    H240534   6.394   2.434   5.582
13553TIP3   OH240535   7.460   4.080   6.600
13553TIP3    H140536   7.456   4.103   6.507
13553TIP3    H240537   7.537   4.127   6.633
13554TIP3   OH240538   6.415   3.188   7.022
13554TIP3    H140539   6.489   3.232   7.062
13554TIP3    H240540   6.349   3.184   7.091
13555TIP3   OH240541   6.881   2.641   6.279
13555TIP3    H140542   6.954   2.604   6.229
13555TIP3    H240543   6.889   2.602   6.366
13556TIP3   OH240544   6.404   2.129   6.155
13556TIP3    H140545   6.371   2.052   6.202
13556TIP3    H240546   6.456   2.094   6.083
13557TIP3   OH240547   6.857   2.540   6.568
13557TIP3    H140548   6.769   2.575   6.581
13557TIP3    H240549   6.914   2.599   6.618
13558TIP3   OH240550   6.594   2.930   5.666
13558TIP3    H140551   6.525   2.865   5.651
13558TIP3    H240552   6.577   2.965   5.753
13559TIP3   OH240553   7.494   3.167   6.290
13559TIP3    H140554   7.519   3.215   6.212
13559TIP3    H240555   7.410   3.126   6.268
13560TIP3   OH240556   7.050   2.246   5.518
13560TIP3    H140557   6.957   2.228   5.531
13560TIP3    H240558   7.061   2.336   5.548
13561TIP3   OH240559   6.993   3.249   6.658
13561TIP3    H140560   7.014   3.225   6.749
13561TIP3    H240561   6.956   3.337   6.665
13562TIP3   OH240562   7.123   2.490   5.626
13562TIP3    H140563   7.217   2.496   5.644
13562TIP3    H240564   7.104   2.569   5.576
13563TIP3   OH240565   6.289   2.953   6.339
13563TIP3    H140566   6.323   2.925   6.254
13563TIP3    H240567   6.324   2.888   6.401
13564TIP3   OH240568   6.736   3.081   5.483
13564TIP3    H140569   6.692   3.166   5.487
13564TIP3    H240570   6.685   3.025   5.542
13565TIP3   OH240571   6.166   2.871   6.952
13565TIP3    H140572   6.186   2.859   7.045
13565TIP3    H240573   6.097   2.806   6.934
13566TIP3   OH240574   6.892   2.985   6.967
13566TIP3    H140575   6.831   2.927   6.922
13566TIP3    H240576   6.979   2.953   6.943
13567TIP3   OH240577   7.154   3.508   6.558
13567TIP3    H140578   7.058   3.505   6.567
13567TIP3    H240579   7.183   3.561   6.632
13568TIP3   OH240580   7.562   2.581   5.461
13568TIP3    H140581   7.502   2.533   5.403
13568TIP3    H240582   7.563   2.670   5.426
13569TIP3   OH240583   7.780   3.436   6.543
13569TIP3    H140584   7.684   3.433   6.539
13569TIP3    H240585   7.809   3.407   6.456
13570TIP3   OH240586   7.265   3.398   5.371
13570TIP3    H140587   7.238   3.331   5.435
13570TIP3    H240588   7.275   3.351   5.289
13571TIP3   OH240589   7.259   3.026   6.211
13571TIP3    H140590   7.166   3.004   6.225
13571TIP3    H240591   7.295   2.950   6.166
13572TIP3   OH240592   6.385   3.257   5.962
13572TIP3    H140593   6.387   3.337   5.910
13572TIP3    H240594   6.292   3.238   5.973
13573TIP3   OH240595   5.947   2.563   5.662
13573TIP3    H140596   5.993   2.645   5.679
13573TIP3    H240597   5.864   2.572   5.709
13574TIP3   OH240598   6.526   3.024   5.910
13574TIP3    H140599   6.492   3.112   5.925
13574TIP3    H240600   6.490   2.971   5.981
13575TIP3   OH240601   6.658   3.602   6.433
13575TIP3    H140602   6.694   3.674   6.381
13575TIP3    H240603   6.733   3.565   6.479
13576TIP3   OH240604   6.306   3.496   5.817
13576TIP3    H140605   6.221   3.502   5.862
13576TIP3    H240606   6.339   3.586   5.818
13577TIP3   OH240607   7.047   3.233   6.392
13577TIP3    H140608   7.036   3.232   6.487
13577TIP3    H240609   7.126   3.181   6.376
13578TIP3   OH240610   7.018   3.123   5.276
13578TIP3    H140611   7.072   3.101   5.352
13578TIP3    H240612   6.929   3.101   5.302
13579TIP3   OH240613   7.291   3.769   6.439
13579TIP3    H140614   7.214   3.713   6.433
13579TIP3    H240615   7.280   3.834   6.370
13580TIP3   OH240616   7.357   3.605   5.094
13580TIP3    H140617   7.397   3.674   5.040
13580TIP3    H240618   7.277   3.645   5.129
13581TIP3   OH240619   6.378   2.377   6.961
13581TIP3    H140620   6.283   2.382   6.975
13581TIP3    H240621   6.410   2.320   7.031
13582TIP3   OH240622   7.180   3.056   5.490
13582TIP3    H140623   7.167   2.995   5.561
13582TIP3    H240624   7.275   3.059   5.477
13583TIP3   OH240625   6.097   3.463   6.591
13583TIP3    H140626   6.147   3.387   6.623
13583TIP3    H240627   6.120   3.534   6.651
13584TIP3   OH240628   6.387   3.104   5.271
13584TIP3    H140629   6.399   3.014   5.244
13584TIP3    H240630   6.369   3.099   5.365
13585TIP3   OH240631   6.338   3.115   5.541
13585TIP3    H140632   6.399   3.084   5.609
13585TIP3    H240633   6.337   3.210   5.550
13586TIP3   OH240634   6.069   2.813   5.747
13586TIP3    H140635   6.002   2.846   5.807
13586TIP3    H240636   6.075   2.880   5.678
13587TIP3   OH240637   7.216   2.441   6.641
13587TIP3    H140638   7.293   2.481   6.680
13587TIP3    H240639   7.200   2.363   6.693
13588TIP3   OH240640   7.097   2.196   5.803
13588TIP3    H140641   7.082   2.219   5.712
13588TIP3    H240642   7.135   2.275   5.842
13589TIP3   OH240643   6.595   3.313   5.493
13589TIP3    H140644   6.510   3.335   5.531
13589TIP3    H240645   6.614   3.385   5.433
13590TIP3   OH240646   6.787   2.373   5.909
13590TIP3    H140647   6.849   2.444   5.890
13590TIP3    H240648   6.789   2.364   6.004
13591TIP3   OH240649   7.056   2.693   6.718
13591TIP3    H140650   7.071   2.746   6.796
13591TIP3    H240651   7.109   2.614   6.731
13592TIP3   OH240652   6.931   2.104   6.011
13592TIP3    H140653   6.922   2.177   6.071
13592TIP3    H240654   6.989   2.137   5.942
13593TIP3   OH240655   6.339   3.387   5.562
13593TIP3    H140656   6.310   3.453   5.499
13593TIP3    H240657   6.323   3.427   5.648
13594TIP3   OH240658   6.443   2.100   5.801
13594TIP3    H140659   6.435   2.189   5.836
13594TIP3    H240660   6.536   2.079   5.808
13595TIP3   OH240661   7.693   2.591   6.695
13595TIP3    H140662   7.598   2.591   6.706
13595TIP3    H240663   7.707   2.553   6.609
13596TIP3   OH240664   7.346   2.786   6.085
13596TIP3    H140665   7.270   2.728   6.097
13596TIP3    H240666   7.417   2.741   6.131
13597TIP3   OH240667   6.064   3.018   5.560
13597TIP3    H140668   6.124   3.093   5.565
13597TIP3    H240669   6.099   2.964   5.489
13598TIP3   OH240670   6.001   2.295   5.684
13598TIP3    H140671   6.002   2.391   5.682
13598TIP3    H240672   5.914   2.272   5.651
13599TIP3   OH240673   7.315   3.743   6.031
13599TIP3    H140674   7.270   3.787   5.960
13599TIP3    H240675   7.408   3.759   6.015
13600TIP3   OH240676   6.389   2.009   6.561
13600TIP3    H140677   6.358   1.979   6.476
13600TIP3    H240678   6.379   1.934   6.619
13601TIP3   OH240679   5.930   3.234   5.944
13601TIP3    H140680   5.857   3.261   5.999
13601TIP3    H240681   5.908   3.268   5.857
13602TIP3   OH240682   6.086   3.767   7.012
13602TIP3    H140683   6.168   3.770   7.061
13602TIP3    H240684   6.061   3.675   7.013
13603TIP3   OH240685   6.568   3.723   7.070
13603TIP3    H140686   6.663   3.733   7.062
13603TIP3    H240687   6.542   3.675   6.992
13604TIP3   OH240688   6.548   3.309   5.186
13604TIP3    H140689   6.490   3.243   5.224
13604TIP3    H240690   6.624   3.259   5.155
13605TIP3   OH240691   7.205   3.644   6.793
13605TIP3    H140692   7.197   3.574   6.858
13605TIP3    H240693   7.283   3.693   6.820
13606TIP3   OH240694   6.986   3.351   5.097
13606TIP3    H140695   7.030   3.290   5.156
13606TIP3    H240696   7.041   3.353   5.019
13607TIP3   OH240697   6.216   3.176   7.213
13607TIP3    H140698   6.232   3.082   7.221
13607TIP3    H240699   6.130   3.182   7.171
13608TIP3   OH240700   6.192   2.828   5.402
13608TIP3    H140701   6.240   2.799   5.480
13608TIP3    H240702   6.259   2.832   5.333
13609TIP3   OH240703   6.822   3.257   6.985
13609TIP3    H140704   6.781   3.276   6.900
13609TIP3    H240705   6.853   3.167   6.976
13610TIP3   OH240706   6.703   3.025   5.214
13610TIP3    H140707   6.704   3.041   5.308
13610TIP3    H240708   6.699   2.930   5.206
13611TIP3   OH240709   7.316   3.272   6.592
13611TIP3    H140710   7.392   3.314   6.550
13611TIP3    H240711   7.245   3.335   6.580
13612TIP3   OH240712   6.339   2.912   7.196
13612TIP3    H140713   6.407   2.847   7.177
13612TIP3    H240714   6.359   2.943   7.284
13613TIP3   OH240715   6.406   2.730   5.632
13613TIP3    H140716   6.372   2.694   5.713
13613TIP3    H240717   6.437   2.654   5.582
13614TIP3   OH240718   6.670   2.799   6.856
13614TIP3    H140719   6.592   2.854   6.860
13614TIP3    H240720   6.718   2.830   6.779
13615TIP3   OH240721   6.502   2.522   5.468
13615TIP3    H140722   6.473   2.528   5.377
13615TIP3    H240723   6.597   2.531   5.463
13616TIP3   OH240724   7.191   3.198   6.996
13616TIP3    H140725   7.266   3.175   6.942
13616TIP3    H240726   7.186   3.129   7.062
13617TIP3   OH240727   7.323   2.858   5.128
13617TIP3    H140728   7.302   2.809   5.049
13617TIP3    H240729   7.293   2.947   5.110
13618TIP3   OH240730   6.792   2.584   6.982
13618TIP3    H140731   6.793   2.504   6.930
13618TIP3    H240732   6.749   2.649   6.927
13619TIP3   OH240733   6.795   2.370   6.788
13619TIP3    H140734   6.823   2.411   6.707
13619TIP3    H240735   6.703   2.347   6.773
13620TIP3   OH240736   6.825   2.908   6.662
13620TIP3    H140737   6.907   2.914   6.613
13620TIP3    H240738   6.768   2.973   6.620
13621TIP3   OH240739   7.406   2.874   7.044
13621TIP3    H140740   7.450   2.791   7.063
13621TIP3    H240741   7.474   2.931   7.009
13622TIP3   OH240742   7.447   3.129   6.779
13622TIP3    H140743   7.388   3.179   6.723
13622TIP3    H240744   7.534   3.145   6.743
13623TIP3   OH240745   6.666   2.698   7.209
13623TIP3    H140746   6.600   2.631   7.229
13623TIP3    H240747   6.705   2.670   7.126
13624TIP3   OH240748   6.926   2.134   6.854
13624TIP3    H140749   6.880   2.215   6.835
13624TIP3    H240750   6.859   2.066   6.846
13625TIP3   OH240751   7.051   2.640   7.076
13625TIP3    H140752   7.047   2.627   7.170
13625TIP3    H240753   6.964   2.616   7.044
13626TIP3   OH240754   7.293   2.588   6.930
13626TIP3    H140755   7.218   2.589   6.990
13626TIP3    H240756   7.366   2.557   6.984
13627TIP3   OH240757   7.524   2.526   7.080
13627TIP3    H140758   7.535   2.433   7.099
13627TIP3    H240759   7.518   2.568   7.166
13628TIP3   OH240760   6.512   2.475   7.267
13628TIP3    H140761   6.518   2.386   7.231
13628TIP3    H240762   6.547   2.468   7.356
13629TIP3   OH240763   7.025   2.144   7.110
13629TIP3    H140764   7.090   2.074   7.110
13629TIP3    H240765   6.983   2.138   7.025
13630TIP3   OH240766   7.088   2.361   7.270
13630TIP3    H140767   7.066   2.290   7.210
13630TIP3    H240768   7.012   2.418   7.268
13631TIP3   OH240769   6.310   3.588   5.372
13631TIP3    H140770   6.404   3.584   5.356
13631TIP3    H240771   6.275   3.636   5.297
13632TIP3   OH240772   5.702   3.579   6.003
13632TIP3    H140773   5.635   3.521   5.967
13632TIP3    H240774   5.747   3.526   6.069
13633TIP3   OH240775   5.839   3.436   6.193
13633TIP3    H140776   5.825   3.360   6.250
13633TIP3    H240777   5.889   3.497   6.247
13634TIP3   OH240778   7.567   3.834   5.991
13634TIP3    H140779   7.591   3.865   6.078
13634TIP3    H240780   7.626   3.881   5.931
13635TIP3   OH240781   7.596   3.851   6.273
13635TIP3    H140782   7.552   3.767   6.267
13635TIP3    H240783   7.672   3.835   6.330
13636TIP3   OH240784   7.641   3.532   6.845
13636TIP3    H140785   7.570   3.539   6.908
13636TIP3    H240786   7.684   3.618   6.849
13637TIP3   OH240787   7.461   3.043   5.466
13637TIP3    H140788   7.526   3.108   5.437
13637TIP3    H240789   7.500   3.004   5.544
13638TIP3   OH240790   7.585   2.911   5.671
13638TIP3    H140791   7.521   2.870   5.728
13638TIP3    H240792   7.650   2.948   5.730
13639TIP3   OH240793   7.640   3.302   6.099
13639TIP3    H140794   7.693   3.238   6.052
13639TIP3    H240795   7.631   3.376   6.039
13640TIP3   OH240796   7.470   3.603   6.297
13640TIP3    H140797   7.401   3.646   6.348
13640TIP3    H240798   7.423   3.556   6.228
13641TIP3   OH240799   7.521   2.820   5.316
13641TIP3    H140800   7.453   2.821   5.249
13641TIP3    H240801   7.499   2.893   5.373
13642TIP3   OH240802   7.395   2.489   5.269
13642TIP3    H140803   7.351   2.532   5.195
13642TIP3    H240804   7.371   2.397   5.260
13643TIP3   OH240805   7.400   2.766   5.818
13643TIP3    H140806   7.408   2.671   5.811
13643TIP3    H240807   7.386   2.783   5.911
13644TIP3   OH240808   6.029   2.838   6.562
13644TIP3    H140809   6.023   2.810   6.471
13644TIP3    H240810   6.123   2.841   6.580
13645TIP3   OH240811   7.691   3.192   6.672
13645TIP3    H140812   7.761   3.127   6.664
13645TIP3    H240813   7.716   3.261   6.612
13646TIP3   OH240814   7.874   2.995   6.692
13646TIP3    H140815   7.799   2.948   6.729
13646TIP3    H240816   7.948   2.935   6.704
13647TIP3   OH240817   7.340   2.223   5.255
13647TIP3    H140818   7.414   2.196   5.309
13647TIP3    H240819   7.268   2.167   5.283
13648TIP3   OH240820   7.398   2.481   5.710
13648TIP3    H140821   7.434   2.394   5.727
13648TIP3    H240822   7.454   2.518   5.642
13649TIP3   OH240823   7.561   2.660   6.206
13649TIP3    H140824   7.643   2.683   6.164
13649TIP3    H240825   7.569   2.693   6.295
13650TIP3   OH240826   7.625   2.803   6.438
13650TIP3    H140827   7.549   2.834   6.486
13650TIP3    H240828   7.659   2.880   6.393
13651TIP3   OH240829   6.247   2.527   7.237
13651TIP3    H140830   6.342   2.523   7.239
13651TIP3    H240831   6.219   2.445   7.277
13652TIP3   OH240832   8.082   2.393   6.993
13652TIP3    H140833   8.137   2.327   6.951
13652TIP3    H240834   8.051   2.447   6.920
13653TIP3   OH240835   7.505   2.231   5.750
13653TIP3    H140836   7.554   2.219   5.831
13653TIP3    H240837   7.445   2.157   5.747
13654TIP3   OH240838   6.208   2.219   6.568
13654TIP3    H140839   6.267   2.145   6.578
13654TIP3    H240840   6.266   2.295   6.562
13655TIP3   OH240841   6.009   2.494   6.640
13655TIP3    H140842   6.056   2.487   6.557
13655TIP3    H240843   6.034   2.580   6.674
13656TIP3   OH240844   7.947   2.531   6.800
13656TIP3    H140845   7.865   2.573   6.825
13656TIP3    H240846   7.922   2.461   6.741
13657TIP3   OH240847   7.588   2.170   5.378
13657TIP3    H140848   7.627   2.097   5.330
13657TIP3    H240849   7.653   2.240   5.375
13658TIP3   OH240850   5.990   1.996   6.138
13658TIP3    H140851   5.899   1.995   6.167
13658TIP3    H240852   5.990   2.055   6.063
13659TIP3   OH240853   7.152   3.699   5.647
13659TIP3    H140854   7.201   3.686   5.566
13659TIP3    H240855   7.202   3.767   5.693
13660TIP3   OH240856   6.209   2.076   6.955
13660TIP3    H140857   6.163   2.072   7.039
13660TIP3    H240858   6.145   2.115   6.895
13661TIP3   OH240859   6.253   3.494   7.043
13661TIP3    H140860   6.165   3.473   7.011
13661TIP3    H240861   6.245   3.489   7.138
13662TIP3   OH240862   6.431   3.539   6.580
13662TIP3    H140863   6.377   3.609   6.544
13662TIP3    H240864   6.516   3.550   6.537
13663TIP3   OH240865   6.877   3.781   6.718
13663TIP3    H140866   6.916   3.784   6.806
13663TIP3    H240867   6.939   3.830   6.664
13664TIP3   OH240868   7.056   3.932   6.578
13664TIP3    H140869   7.125   3.881   6.534
13664TIP3    H240870   7.103   3.989   6.638
13665TIP3   OH240871   7.847   2.293   6.676
13665TIP3    H140872   7.757   2.291   6.644
13665TIP3    H240873   7.878   2.203   6.666
13666TIP3   OH240874   6.105   3.794   6.607
13666TIP3    H140875   6.018   3.824   6.578
13666TIP3    H240876   6.116   3.833   6.694
13667TIP3   OH240877   6.340   3.772   6.461
13667TIP3    H140878   6.257   3.785   6.507
13667TIP3    H240879   6.323   3.804   6.373
13668TIP3   OH240880   6.767   3.803   6.260
13668TIP3    H140881   6.699   3.820   6.194
13668TIP3    H240882   6.781   3.888   6.302
13669TIP3   OH240883   7.035   3.741   6.310
13669TIP3    H140884   6.942   3.756   6.292
13669TIP3    H240885   7.080   3.816   6.270
13670TIP3   OH240886   7.246   3.934   6.225
13670TIP3    H140887   7.231   4.017   6.181
13670TIP3    H240888   7.270   3.873   6.155
13671TIP3   OH240889   6.021   3.586   6.350
13671TIP3    H140890   6.042   3.563   6.440
13671TIP3    H240891   6.089   3.544   6.297
13672TIP3   OH240892   6.213   3.457   6.207
13672TIP3    H140893   6.226   3.376   6.255
13672TIP3    H240894   6.300   3.496   6.200
13673TIP3   OH240895   6.478   3.553   6.209
13673TIP3    H140896   6.507   3.463   6.194
13673TIP3    H240897   6.518   3.576   6.293
13674TIP3   OH240898   7.052   2.208   6.295
13674TIP3    H140899   7.009   2.142   6.349
13674TIP3    H240900   7.125   2.162   6.253
13675TIP3   OH240901   7.576   2.089   6.200
13675TIP3    H140902   7.613   2.141   6.128
13675TIP3    H240903   7.482   2.108   6.197
13676TIP3   OH240904   7.674   2.192   5.964
13676TIP3    H140905   7.744   2.139   5.926
13676TIP3    H240906   7.703   2.283   5.952
13677TIP3   OH240907   6.301   1.916   6.313
13677TIP3    H140908   6.210   1.887   6.314
13677TIP3    H240909   6.352   1.835   6.309
13678TIP3   OH240910   6.088   1.790   5.960
13678TIP3    H140911   6.117   1.845   5.888
13678TIP3    H240912   6.058   1.851   6.027
13679TIP3   OH240913   6.746   1.952   6.194
13679TIP3    H140914   6.803   2.002   6.134
13679TIP3    H240915   6.764   1.988   6.280
13680TIP3   OH240916   7.294   2.095   6.178
13680TIP3    H140917   7.290   2.062   6.089
13680TIP3    H240918   7.279   2.018   6.233
13681TIP3   OH240919   7.320   2.018   5.740
13681TIP3    H140920   7.236   2.064   5.751
13681TIP3    H240921   7.308   1.935   5.786
13682TIP3   OH240922   5.804   3.360   5.741
13682TIP3    H140923   5.722   3.324   5.706
13682TIP3    H240924   5.797   3.454   5.728
13683TIP3   OH240925   6.207   1.947   5.724
13683TIP3    H140926   6.254   1.886   5.667
13683TIP3    H240927   6.275   2.003   5.761
13684TIP3   OH240928   6.720   2.124   5.825
13684TIP3    H140929   6.777   2.074   5.883
13684TIP3    H240930   6.738   2.215   5.846
13685TIP3   OH240931   6.579   3.547   5.320
13685TIP3    H140932   6.665   3.573   5.288
13685TIP3    H240933   6.553   3.474   5.264
13686TIP3   OH240934   7.296   3.665   5.413
13686TIP3    H140935   7.289   3.570   5.403
13686TIP3    H240936   7.251   3.700   5.336
13687TIP3   OH240937   6.512   2.197   7.204
13687TIP3    H140938   6.474   2.129   7.260
13687TIP3    H240939   6.604   2.200   7.230
13688TIP3   OH240940   6.759   2.194   7.323
13688TIP3    H140941   6.844   2.169   7.286
13688TIP3    H240942   6.743   2.130   7.392
13689TIP3   OH240943   5.882   3.387   5.380
13689TIP3    H140944   5.877   3.410   5.473
13689TIP3    H240945   5.968   3.345   5.370
13690TIP3   OH240946   7.585   2.255   7.112
13690TIP3    H140947   7.600   2.227   7.202
13690TIP3    H240948   7.671   2.252   7.070
13691TIP3   OH240949   7.521   3.812   6.602
13691TIP3    H140950   7.445   3.778   6.555
13691TIP3    H240951   7.505   3.907   6.607
13692TIP3   OH240952   8.788   3.184   5.367
13692TIP3    H140953   8.762   3.275   5.351
13692TIP3    H240954   8.712   3.133   5.339
13693TIP3   OH240955   8.791   3.178   5.763
13693TIP3    H140956   8.823   3.147   5.848
13693TIP3    H240957   8.753   3.101   5.722
13694TIP3   OH240958   8.089   3.079   6.117
13694TIP3    H140959   8.116   3.012   6.180
13694TIP3    H240960   8.167   3.133   6.105
13695TIP3   OH240961   9.032   3.484   5.433
13695TIP3    H140962   9.017   3.411   5.493
13695TIP3    H240963   9.056   3.557   5.490
13696TIP3   OH240964   8.059   3.484   5.839
13696TIP3    H140965   8.047   3.389   5.843
13696TIP3    H240966   8.154   3.496   5.839
13697TIP3   OH240967   7.763   2.692   5.625
13697TIP3    H140968   7.720   2.775   5.642
13697TIP3    H240969   7.695   2.636   5.589
13698TIP3   OH240970   7.826   2.976   5.796
13698TIP3    H140971   7.872   2.901   5.834
13698TIP3    H240972   7.885   3.010   5.729
13699TIP3   OH240973   8.682   3.948   5.447
13699TIP3    H140974   8.727   3.878   5.400
13699TIP3    H240975   8.671   3.914   5.536
13700TIP3   OH240976   8.591   3.409   5.796
13700TIP3    H140977   8.623   3.328   5.757
13700TIP3    H240978   8.671   3.456   5.822
13701TIP3   OH240979   9.534   2.752   5.808
13701TIP3    H140980   9.595   2.804   5.861
13701TIP3    H240981   9.573   2.753   5.720
13702TIP3   OH240982   9.015   2.912   5.811
13702TIP3    H140983   9.047   2.831   5.848
13702TIP3    H240984   8.971   2.886   5.730
13703TIP3   OH240985   8.332   2.569   5.795
13703TIP3    H140986   8.317   2.643   5.736
13703TIP3    H240987   8.287   2.495   5.753
13704TIP3   OH240988   9.035   2.658   5.419
13704TIP3    H140989   9.102   2.642   5.485
13704TIP3    H240990   9.083   2.696   5.345
13705TIP3   OH240991   7.972   2.770   5.902
13705TIP3    H140992   8.052   2.753   5.952
13705TIP3    H240993   7.982   2.717   5.823
13706TIP3   OH240994   8.413   2.967   5.695
13706TIP3    H140995   8.505   2.944   5.708
13706TIP3    H240996   8.373   2.886   5.664
13707TIP3   OH240997   9.669   2.935   5.963
13707TIP3    H140998   9.586   2.982   5.958
13707TIP3    H240999   9.710   2.968   6.043
13708TIP3   OH241000   8.330   2.553   6.231
13708TIP3    H141001   8.274   2.590   6.162
13708TIP3    H241002   8.282   2.570   6.312
13709TIP3   OH241003   8.683   3.408   5.237
13709TIP3    H141004   8.637   3.379   5.158
13709TIP3    H241005   8.639   3.490   5.261
13710TIP3   OH241006   8.435   3.331   6.022
13710TIP3    H141007   8.375   3.393   6.062
13710TIP3    H241008   8.481   3.381   5.954
13711TIP3   OH241009   9.244   2.659   5.593
13711TIP3    H141010   9.223   2.618   5.677
13711TIP3    H241011   9.293   2.738   5.617
13712TIP3   OH241012   8.205   2.669   6.015
13712TIP3    H141013   8.263   2.741   6.040
13712TIP3    H241014   8.251   2.626   5.942
13713TIP3   OH241015   8.262   3.525   6.125
13713TIP3    H141016   8.242   3.610   6.086
13713TIP3    H241017   8.188   3.505   6.181
13714TIP3   OH241018   7.664   3.213   5.359
13714TIP3    H141019   7.621   3.239   5.277
13714TIP3    H241020   7.694   3.296   5.397
13715TIP3   OH241021   9.101   3.729   5.600
13715TIP3    H141022   9.016   3.715   5.641
13715TIP3    H241023   9.092   3.814   5.556
13716TIP3   OH241024   9.372   2.620   5.975
13716TIP3    H141025   9.284   2.646   5.949
13716TIP3    H241026   9.429   2.660   5.910
13717TIP3   OH241027   8.688   2.271   5.944
13717TIP3    H141028   8.678   2.177   5.961
13717TIP3    H241029   8.614   2.311   5.989
13718TIP3   OH241030   8.809   3.774   5.273
13718TIP3    H141031   8.853   3.691   5.256
13718TIP3    H241032   8.864   3.840   5.232
13719TIP3   OH241033   8.949   3.558   5.180
13719TIP3    H141034   8.905   3.483   5.142
13719TIP3    H241035   8.984   3.526   5.263
13720TIP3   OH241036   9.327   3.642   5.938
13720TIP3    H141037   9.312   3.563   5.886
13720TIP3    H241038   9.308   3.714   5.878
13721TIP3   OH241039   8.618   3.035   5.197
13721TIP3    H141040   8.539   3.085   5.177
13721TIP3    H241041   8.666   3.031   5.115
13722TIP3   OH241042   8.580   2.818   4.916
13722TIP3    H141043   8.644   2.869   4.967
13722TIP3    H241044   8.633   2.754   4.868
13723TIP3   OH241045   9.521   3.280   5.788
13723TIP3    H141046   9.438   3.327   5.797
13723TIP3    H241047   9.547   3.295   5.697
13724TIP3   OH241048   8.968   3.117   5.174
13724TIP3    H141049   8.912   3.141   5.248
13724TIP3    H241050   9.050   3.089   5.214
13725TIP3   OH241051   9.212   3.167   6.077
13725TIP3    H141052   9.203   3.249   6.125
13725TIP3    H241053   9.122   3.141   6.056
13726TIP3   OH241054   8.201   3.113   5.587
13726TIP3    H141055   8.160   3.058   5.522
13726TIP3    H241056   8.277   3.063   5.618
13727TIP3   OH241057   8.333   3.528   5.735
13727TIP3    H141058   8.308   3.482   5.655
13727TIP3    H241059   8.421   3.496   5.756
13728TIP3   OH241060   8.333   3.088   5.940
13728TIP3    H141061   8.370   3.065   5.855
13728TIP3    H241062   8.377   3.170   5.964
13729TIP3   OH241063   8.863   3.723   5.721
13729TIP3    H141064   8.849   3.800   5.775
13729TIP3    H241065   8.849   3.649   5.780
13730TIP3   OH241066   8.470   3.643   6.267
13730TIP3    H141067   8.415   3.705   6.314
13730TIP3    H241068   8.408   3.588   6.218
13731TIP3   OH241069   8.809   2.977   4.997
13731TIP3    H141070   8.866   3.033   5.050
13731TIP3    H241071   8.833   2.999   4.907
13732TIP3   OH241072   8.224   3.202   6.369
13732TIP3    H141073   8.232   3.287   6.413
13732TIP3    H241074   8.131   3.180   6.375
13733TIP3   OH241075   8.551   3.655   5.269
13733TIP3    H141076   8.626   3.708   5.294
13733TIP3    H241077   8.487   3.719   5.236
13734TIP3   OH241078   8.265   3.811   6.353
13734TIP3    H141079   8.232   3.809   6.263
13734TIP3    H241080   8.189   3.790   6.408
13735TIP3   OH241081   9.330   2.234   5.074
13735TIP3    H141082   9.243   2.248   5.110
13735TIP3    H241083   9.337   2.297   5.002
13736TIP3   OH241084   8.065   2.957   5.390
13736TIP3    H141085   8.000   3.002   5.336
13736TIP3    H241086   8.026   2.871   5.409
13737TIP3   OH241087   9.123   3.585   4.593
13737TIP3    H141088   9.128   3.680   4.580
13737TIP3    H241089   9.213   3.554   4.581
13738TIP3   OH241090   7.846   3.340   6.300
13738TIP3    H141091   7.782   3.318   6.232
13738TIP3    H241092   7.882   3.255   6.326
13739TIP3   OH241093   7.701   3.535   5.934
13739TIP3    H141094   7.796   3.527   5.924
13739TIP3    H241095   7.689   3.613   5.988
13740TIP3   OH241096   9.556   3.987   5.983
13740TIP3    H141097   9.564   3.892   5.996
13740TIP3    H241098   9.478   4.012   6.032
13741TIP3   OH241099   8.666   3.776   6.124
13741TIP3    H141100   8.669   3.866   6.156
13741TIP3    H241101   8.598   3.734   6.177
13742TIP3   OH241102   8.432   3.904   5.072
13742TIP3    H141103   8.384   3.882   4.993
13742TIP3    H241104   8.397   3.989   5.099
13743TIP3   OH241105   7.870   3.748   5.461
13743TIP3    H141106   7.918   3.741   5.544
13743TIP3    H241107   7.809   3.674   5.462
13744TIP3   OH241108   8.637   3.802   4.716
13744TIP3    H141109   8.692   3.733   4.680
13744TIP3    H241110   8.665   3.811   4.807
13745TIP3   OH241111   8.683   3.849   4.987
13745TIP3    H141112   8.595   3.862   5.025
13745TIP3    H241113   8.732   3.805   5.056
13746TIP3   OH241114   9.458   3.121   6.251
13746TIP3    H141115   9.376   3.135   6.203
13746TIP3    H241116   9.473   3.027   6.246
13747TIP3   OH241117   8.050   3.524   6.292
13747TIP3    H141118   8.100   3.509   6.372
13747TIP3    H241119   7.977   3.461   6.297
13748TIP3   OH241120   8.448   2.348   6.073
13748TIP3    H141121   8.362   2.315   6.047
13748TIP3    H241122   8.430   2.431   6.117
13749TIP3   OH241123   8.983   2.459   6.272
13749TIP3    H141124   9.050   2.432   6.335
13749TIP3    H241125   8.900   2.440   6.316
13750TIP3   OH241126   9.222   2.899   6.189
13750TIP3    H141127   9.173   2.891   6.270
13750TIP3    H241128   9.179   2.971   6.142
13751TIP3   OH241129   8.882   3.027   4.740
13751TIP3    H141130   8.849   2.997   4.655
13751TIP3    H241131   8.966   3.069   4.719
13752TIP3   OH241132   8.593   2.397   5.045
13752TIP3    H141133   8.565   2.397   5.136
13752TIP3    H241134   8.559   2.315   5.009
13753TIP3   OH241135   8.378   2.866   6.090
13753TIP3    H141136   8.332   2.886   6.172
13753TIP3    H241137   8.366   2.945   6.037
13754TIP3   OH241138   8.264   2.747   5.603
13754TIP3    H141139   8.174   2.723   5.624
13754TIP3    H241140   8.280   2.709   5.517
13755TIP3   OH241141   8.756   2.835   5.328
13755TIP3    H141142   8.703   2.905   5.290
13755TIP3    H241143   8.811   2.805   5.256
13756TIP3   OH241144   8.944   3.147   6.483
13756TIP3    H141145   8.914   3.059   6.502
13756TIP3    H241146   8.992   3.139   6.400
13757TIP3   OH241147   8.904   2.857   5.566
13757TIP3    H141148   8.847   2.890   5.495
13757TIP3    H241149   8.944   2.778   5.529
13758TIP3   OH241150   8.198   2.892   6.303
13758TIP3    H141151   8.233   2.956   6.365
13758TIP3    H241152   8.190   2.811   6.353
13759TIP3   OH241153   8.248   2.369   5.011
13759TIP3    H141154   8.246   2.365   5.107
13759TIP3    H241155   8.172   2.421   4.987
13760TIP3   OH241156   7.796   2.415   5.880
13760TIP3    H141157   7.868   2.447   5.934
13760TIP3    H241158   7.838   2.382   5.801
13761TIP3   OH241159   7.768   2.398   5.398
13761TIP3    H141160   7.816   2.432   5.323
13761TIP3    H241161   7.707   2.468   5.422
13762TIP3   OH241162   8.590   2.571   5.668
13762TIP3    H141163   8.510   2.570   5.721
13762TIP3    H241164   8.661   2.574   5.731
13763TIP3   OH241165   8.027   2.626   5.674
13763TIP3    H141166   7.935   2.634   5.648
13763TIP3    H241167   8.051   2.536   5.652
13764TIP3   OH241168   8.298   2.622   5.363
13764TIP3    H141169   8.391   2.638   5.345
13764TIP3    H241170   8.254   2.647   5.281
13765TIP3   OH241171   9.086   2.641   5.859
13765TIP3    H141172   9.061   2.656   5.950
13765TIP3    H241173   9.018   2.584   5.824
13766TIP3   OH241174   8.137   2.657   5.139
13766TIP3    H141175   8.064   2.614   5.095
13766TIP3    H241176   8.190   2.693   5.068
13767TIP3   OH241177   9.256   4.337   6.087
13767TIP3    H141178   9.253   4.358   5.994
13767TIP3    H241179   9.331   4.385   6.120
13768TIP3   OH241180   8.213   3.448   6.513
13768TIP3    H141181   8.293   3.477   6.556
13768TIP3    H241182   8.147   3.445   6.582
13769TIP3   OH241183   8.678   2.896   5.758
13769TIP3    H141184   8.752   2.865   5.706
13769TIP3    H241185   8.697   2.866   5.847
13770TIP3   OH241186   8.199   2.386   5.641
13770TIP3    H141187   8.167   2.309   5.688
13770TIP3    H241188   8.255   2.351   5.572
13771TIP3   OH241189   8.651   2.788   6.064
13771TIP3    H141190   8.565   2.831   6.067
13771TIP3    H241191   8.712   2.857   6.089
13772TIP3   OH241192   8.387   3.188   5.150
13772TIP3    H141193   8.319   3.122   5.137
13772TIP3    H241194   8.373   3.221   5.238
13773TIP3   OH241195   9.288   3.424   5.778
13773TIP3    H141196   9.307   3.469   5.696
13773TIP3    H241197   9.205   3.378   5.761
13774TIP3   OH241198   8.847   2.502   5.008
13774TIP3    H141199   8.753   2.486   5.019
13774TIP3    H241200   8.858   2.593   5.035
13775TIP3   OH241201   8.798   3.518   6.141
13775TIP3    H141202   8.809   3.471   6.223
13775TIP3    H241203   8.747   3.596   6.164
13776TIP3   OH241204   8.921   2.747   5.112
13776TIP3    H141205   9.015   2.751   5.129
13776TIP3    H241206   8.903   2.825   5.060
13777TIP3   OH241207   8.082   3.206   5.824
13777TIP3    H141208   8.119   3.181   5.740
13777TIP3    H241209   8.125   3.149   5.888
13778TIP3   OH241210   8.531   3.337   4.969
13778TIP3    H141211   8.488   3.422   4.974
13778TIP3    H241212   8.481   3.281   5.028
13779TIP3   OH241213   7.960   3.130   6.440
13779TIP3    H141214   7.983   3.118   6.532
13779TIP3    H241215   7.894   3.063   6.423
13780TIP3   OH241216   8.685   3.241   6.456
13780TIP3    H141217   8.632   3.187   6.398
13780TIP3    H241218   8.775   3.213   6.439
13781TIP3   OH241219   8.949   3.782   6.034
13781TIP3    H141220   8.857   3.761   6.049
13781TIP3    H241221   8.978   3.822   6.116
13782TIP3   OH241222   9.353   2.829   4.959
13782TIP3    H141223   9.293   2.781   4.901
13782TIP3    H241224   9.381   2.904   4.907
13783TIP3   OH241225   9.577   3.687   6.020
13783TIP3    H141226   9.481   3.688   6.021
13783TIP3    H241227   9.599   3.652   5.934
13784TIP3   OH241228   9.060   3.656   4.859
13784TIP3    H141229   9.036   3.588   4.923
13784TIP3    H241230   9.073   3.608   4.778
13785TIP3   OH241231   9.055   3.285   5.694
13785TIP3    H141232   8.966   3.261   5.719
13785TIP3    H241233   9.091   3.207   5.653
13786TIP3   OH241234   8.180   3.512   5.446
13786TIP3    H141235   8.182   3.594   5.395
13786TIP3    H241236   8.087   3.496   5.462
13787TIP3   OH241237   7.744   2.819   5.153
13787TIP3    H141238   7.792   2.899   5.172
13787TIP3    H241239   7.669   2.821   5.212
13788TIP3   OH241240   8.322   3.280   5.395
13788TIP3    H141241   8.287   3.368   5.411
13788TIP3    H241242   8.289   3.227   5.467
13789TIP3   OH241243   8.454   3.857   5.920
13789TIP3    H141244   8.494   3.928   5.870
13789TIP3    H241245   8.526   3.819   5.970
13790TIP3   OH241246   8.101   3.754   5.303
13790TIP3    H141247   8.017   3.758   5.348
13790TIP3    H241248   8.134   3.844   5.304
13791TIP3   OH241249   8.846   3.490   5.878
13791TIP3    H141250   8.830   3.491   5.972
13791TIP3    H241251   8.916   3.426   5.866
13792TIP3   OH241252   8.814   3.384   4.762
13792TIP3    H141253   8.869   3.361   4.837
13792TIP3    H241254   8.726   3.356   4.789
13793TIP3   OH241255   9.090   4.024   5.929
13793TIP3    H141256   9.016   3.963   5.930
13793TIP3    H241257   9.070   4.085   5.858
13794TIP3   OH241258   9.152   3.861   4.580
13794TIP3    H141259   9.187   3.927   4.520
13794TIP3    H241260   9.073   3.901   4.617
13795TIP3   OH241261   8.174   2.634   6.448
13795TIP3    H141262   8.079   2.640   6.460
13795TIP3    H241263   8.203   2.574   6.517
13796TIP3   OH241264   8.975   3.316   4.978
13796TIP3    H141265   8.961   3.253   5.048
13796TIP3    H241266   9.070   3.316   4.963
13797TIP3   OH241267   7.893   3.719   6.080
13797TIP3    H141268   7.943   3.643   6.110
13797TIP3    H241269   7.917   3.789   6.140
13798TIP3   OH241270   8.181   3.363   4.760
13798TIP3    H141271   8.196   3.273   4.730
13798TIP3    H241272   8.163   3.354   4.854
13799TIP3   OH241273   8.128   3.370   5.032
13799TIP3    H141274   8.196   3.340   5.092
13799TIP3    H241275   8.131   3.466   5.039
13800TIP3   OH241276   7.861   3.065   5.235
13800TIP3    H141277   7.796   3.105   5.293
13800TIP3    H241278   7.878   3.131   5.168
13801TIP3   OH241279   9.015   2.682   6.112
13801TIP3    H141280   9.056   2.752   6.164
13801TIP3    H241281   8.998   2.613   6.175
13802TIP3   OH241282   8.890   2.454   5.291
13802TIP3    H141283   8.878   2.476   5.199
13802TIP3    H241284   8.929   2.532   5.330
13803TIP3   OH241285   8.390   3.569   4.980
13803TIP3    H141286   8.306   3.592   5.019
13803TIP3    H241287   8.408   3.640   4.918
13804TIP3   OH241288   8.581   2.631   5.396
13804TIP3    H141289   8.644   2.700   5.377
13804TIP3    H241290   8.584   2.620   5.491
13805TIP3   OH241291   8.726   2.359   5.497
13805TIP3    H141292   8.722   2.429   5.562
13805TIP3    H241293   8.785   2.393   5.429
13806TIP3   OH241294   8.135   3.645   5.048
13806TIP3    H141295   8.105   3.711   4.986
13806TIP3    H241296   8.120   3.684   5.134
13807TIP3   OH241297   8.240   2.357   5.287
13807TIP3    H141298   8.233   2.445   5.323
13807TIP3    H241299   8.332   2.334   5.294
13808TIP3   OH241300   9.486   2.849   6.183
13808TIP3    H141301   9.390   2.851   6.189
13808TIP3    H241302   9.503   2.820   6.094
13809TIP3   OH241303   9.135   3.045   5.566
13809TIP3    H141304   9.059   2.994   5.592
13809TIP3    H241305   9.208   3.007   5.614
13810TIP3   OH241306   7.856   3.273   5.039
13810TIP3    H141307   7.917   3.346   5.052
13810TIP3    H241308   7.898   3.218   4.974
13811TIP3   OH241309   7.798   2.550   5.173
13811TIP3    H141310   7.800   2.645   5.169
13811TIP3    H241311   7.712   2.526   5.138
13812TIP3   OH241312   9.110   4.002   5.519
13812TIP3    H141313   9.066   4.045   5.446
13812TIP3    H241314   9.203   4.018   5.502
13813TIP3   OH241315   8.184   2.266   6.048
13813TIP3    H141316   8.155   2.235   5.963
13813TIP3    H241317   8.175   2.190   6.106
13814TIP3   OH241318   7.724   3.487   5.428
13814TIP3    H141319   7.654   3.517   5.487
13814TIP3    H241320   7.701   3.525   5.343
13815TIP3   OH241321   7.882   4.025   6.501
13815TIP3    H141322   7.966   4.028   6.547
13815TIP3    H241323   7.859   3.933   6.499
13816TIP3   OH241324   8.365   3.995   6.540
13816TIP3    H141325   8.457   3.975   6.555
13816TIP3    H241326   8.339   3.936   6.469
13817TIP3   OH241327   8.345   3.565   4.673
13817TIP3    H141328   8.287   3.500   4.712
13817TIP3    H241329   8.420   3.514   4.643
13818TIP3   OH241330   9.005   3.896   6.278
13818TIP3    H141331   8.993   3.829   6.345
13818TIP3    H241332   9.079   3.948   6.309
13819TIP3   OH241333   8.784   3.609   4.585
13819TIP3    H141334   8.821   3.544   4.644
13819TIP3    H241335   8.838   3.605   4.507
13820TIP3   OH241336   8.010   3.431   6.699
13820TIP3    H141337   8.029   3.338   6.705
13820TIP3    H241338   7.925   3.436   6.657
13821TIP3   OH241339   7.992   3.084   4.893
13821TIP3    H141340   8.042   3.052   4.968
13821TIP3    H241341   8.056   3.090   4.822
13822TIP3   OH241342   8.621   3.517   6.472
13822TIP3    H141343   8.578   3.535   6.388
13822TIP3    H241344   8.647   3.425   6.466
13823TIP3   OH241345   8.497   3.281   4.701
13823TIP3    H141346   8.500   3.297   4.795
13823TIP3    H241347   8.497   3.186   4.693
13824TIP3   OH241348   9.117   3.530   6.086
13824TIP3    H141349   9.185   3.578   6.040
13824TIP3    H241350   9.036   3.578   6.068
13825TIP3   OH241351   8.131   3.167   6.684
13825TIP3    H141352   8.205   3.111   6.660
13825TIP3    H241353   8.154   3.201   6.771
13826TIP3   OH241354   8.197   2.987   5.116
13826TIP3    H141355   8.171   2.950   5.200
13826TIP3    H241356   8.233   2.913   5.067
13827TIP3   OH241357   8.455   3.047   6.347
13827TIP3    H141358   8.384   3.110   6.351
13827TIP3    H241359   8.508   3.075   6.272
13828TIP3   OH241360   8.299   2.781   4.955
13828TIP3    H141361   8.271   2.784   4.863
13828TIP3    H241362   8.394   2.787   4.951
13829TIP3   OH241363   8.992   3.451   6.482
13829TIP3    H141364   9.063   3.439   6.419
13829TIP3    H241365   8.964   3.361   6.504
13830TIP3   OH241366   9.118   3.116   4.615
13830TIP3    H141367   9.098   3.064   4.537
13830TIP3    H241368   9.086   3.204   4.593
13831TIP3   OH241369   8.590   2.839   6.467
13831TIP3    H141370   8.589   2.759   6.414
13831TIP3    H241371   8.544   2.904   6.414
13832TIP3   OH241372   8.589   2.625   6.280
13832TIP3    H141373   8.620   2.668   6.200
13832TIP3    H241374   8.498   2.603   6.261
13833TIP3   OH241375   8.609   3.148   6.156
13833TIP3    H141376   8.703   3.146   6.137
13833TIP3    H241377   8.575   3.217   6.100
13834TIP3   OH241378   9.240   3.130   6.556
13834TIP3    H141379   9.257   3.045   6.515
13834TIP3    H241380   9.285   3.194   6.501
13835TIP3   OH241381   9.243   3.390   6.275
13835TIP3    H141382   9.184   3.434   6.214
13835TIP3    H241383   9.329   3.399   6.235
13836TIP3   OH241384   8.469   2.950   6.700
13836TIP3    H141385   8.399   2.887   6.715
13836TIP3    H241386   8.501   2.930   6.612
13837TIP3   OH241387   8.721   2.390   6.343
13837TIP3    H141388   8.676   2.472   6.322
13837TIP3    H241389   8.654   2.322   6.332
13838TIP3   OH241390   8.845   2.894   6.559
13838TIP3    H141391   8.822   2.879   6.651
13838TIP3    H241392   8.766   2.871   6.511
13839TIP3   OH241393   9.095   2.854   6.422
13839TIP3    H141394   9.011   2.851   6.468
13839TIP3    H241395   9.157   2.812   6.482
13840TIP3   OH241396   9.327   2.787   6.594
13840TIP3    H141397   9.339   2.693   6.583
13840TIP3    H241398   9.303   2.798   6.686
13841TIP3   OH241399   8.307   2.732   6.753
13841TIP3    H141400   8.312   2.644   6.716
13841TIP3    H241401   8.340   2.722   6.843
13842TIP3   OH241402   8.819   2.396   6.597
13842TIP3    H141403   8.886   2.327   6.594
13842TIP3    H241404   8.778   2.393   6.511
13843TIP3   OH241405   8.871   2.603   6.769
13843TIP3    H141406   8.853   2.540   6.699
13843TIP3    H241407   8.811   2.675   6.752
13844TIP3   OH241408   8.106   3.847   4.859
13844TIP3    H141409   8.200   3.840   4.842
13844TIP3    H241410   8.071   3.893   4.783
13845TIP3   OH241411   7.587   3.226   5.075
13845TIP3    H141412   7.679   3.249   5.064
13845TIP3    H241413   7.579   3.139   5.036
13846TIP3   OH241414   7.500   3.835   5.490
13846TIP3    H141415   7.433   3.778   5.454
13846TIP3    H241416   7.544   3.782   5.556
13847TIP3   OH241417   7.637   3.691   5.680
13847TIP3    H141418   7.622   3.616   5.738
13847TIP3    H241419   7.686   3.753   5.733
13848TIP3   OH241420   9.363   4.095   5.477
13848TIP3    H141421   9.387   4.120   5.566
13848TIP3    H241422   9.431   4.135   5.422
13849TIP3   OH241423   9.395   4.106   5.759
13849TIP3    H141424   9.346   4.024   5.754
13849TIP3    H241425   9.467   4.088   5.819
13850TIP3   OH241426   9.438   3.790   6.331
13850TIP3    H141427   9.366   3.793   6.394
13850TIP3    H241428   9.479   3.876   6.337
13851TIP3   OH241429   9.250   3.304   4.952
13851TIP3    H141430   9.317   3.368   4.927
13851TIP3    H241431   9.287   3.260   5.029
13852TIP3   OH241432   9.366   3.167   5.155
13852TIP3    H141433   9.301   3.123   5.209
13852TIP3    H241434   9.426   3.208   5.218
13853TIP3   OH241435   9.435   3.555   5.581
13853TIP3    H141436   9.480   3.498   5.519
13853TIP3    H241437   9.417   3.635   5.531
13854TIP3   OH241438   9.265   3.862   5.780
13854TIP3    H141439   9.199   3.901   5.837
13854TIP3    H241440   9.215   3.813   5.715
13855TIP3   OH241441   9.324   3.087   4.795
13855TIP3    H141442   9.250   3.078   4.734
13855TIP3    H241443   9.295   3.154   4.857
13856TIP3   OH241444   9.177   2.749   4.767
13856TIP3    H141445   9.165   2.787   4.680
13856TIP3    H241446   9.156   2.656   4.756
13857TIP3   OH241447   9.195   3.020   5.303
13857TIP3    H141448   9.203   2.925   5.295
13857TIP3    H241449   9.178   3.035   5.396
13858TIP3   OH241450   7.825   3.097   6.047
13858TIP3    H141451   7.821   3.068   5.956
13858TIP3    H241452   7.919   3.100   6.067
13859TIP3   OH241453   9.488   3.448   6.159
13859TIP3    H141454   9.558   3.383   6.150
13859TIP3    H241455   9.511   3.518   6.098
13860TIP3   OH241456   9.681   3.258   6.181
13860TIP3    H141457   9.601   3.216   6.212
13860TIP3    H241458   9.748   3.189   6.188
13861TIP3   OH241459   9.131   2.483   4.748
13861TIP3    H141460   9.206   2.448   4.796
13861TIP3    H241461   9.059   2.424   4.769
13862TIP3   OH241462   9.196   2.740   5.195
13862TIP3    H141463   9.234   2.654   5.214
13862TIP3    H241464   9.249   2.774   5.123
13863TIP3   OH241465   9.348   2.931   5.683
13863TIP3    H141466   9.430   2.963   5.645
13863TIP3    H241467   9.360   2.941   5.777
13864TIP3   OH241468   9.425   3.059   5.927
13864TIP3    H141469   9.347   3.087   5.975
13864TIP3    H241470   9.454   3.138   5.881
13865TIP3   OH241471   8.040   2.782   6.724
13865TIP3    H141472   8.136   2.779   6.724
13865TIP3    H241473   8.014   2.700   6.766
13866TIP3   OH241474   9.299   2.488   5.244
13866TIP3    H141475   9.338   2.477   5.332
13866TIP3    H241476   9.239   2.415   5.235
13867TIP3   OH241477   8.003   2.476   6.055
13867TIP3    H141478   8.062   2.401   6.065
13867TIP3    H241479   8.062   2.552   6.049
13868TIP3   OH241480   7.806   2.751   6.127
13868TIP3    H141481   7.853   2.743   6.044
13868TIP3    H241482   7.833   2.836   6.162
13869TIP3   OH241483   9.727   2.776   6.304
13869TIP3    H141484   9.651   2.832   6.320
13869TIP3    H241485   9.699   2.717   6.234
13870TIP3   OH241486   9.384   2.410   4.855
13870TIP3    H141487   9.425   2.325   4.839
13870TIP3    H241488   9.433   2.471   4.800
13871TIP3   OH241489   7.786   2.253   5.626
13871TIP3    H141490   7.695   2.251   5.655
13871TIP3    H241491   7.786   2.311   5.551
13872TIP3   OH241492   8.947   3.958   5.131
13872TIP3    H141493   9.000   3.941   5.054
13872TIP3    H241494   9.000   4.017   5.185
13873TIP3   OH241495   8.005   2.334   6.443
13873TIP3    H141496   7.958   2.328   6.526
13873TIP3    H241497   7.942   2.372   6.382
13874TIP3   OH241498   8.047   3.760   6.522
13874TIP3    H141499   7.957   3.732   6.503
13874TIP3    H241500   8.059   3.742   6.615
13875TIP3   OH241501   8.225   3.795   6.065
13875TIP3    H141502   8.174   3.868   6.030
13875TIP3    H241503   8.312   3.804   6.025
13876TIP3   OH241504   8.673   4.041   6.207
13876TIP3    H141505   8.712   4.039   6.294
13876TIP3    H241506   8.737   4.089   6.154
13877TIP3   OH241507   8.852   4.190   6.063
13877TIP3    H141508   8.920   4.134   6.024
13877TIP3    H241509   8.900   4.246   6.124
13878TIP3   OH241510   9.635   2.550   6.169
13878TIP3    H141511   9.551   2.559   6.123
13878TIP3    H241512   9.669   2.466   6.139
13879TIP3   OH241513   7.901   4.052   6.091
13879TIP3    H141514   7.814   4.084   6.066
13879TIP3    H241515   7.913   4.083   6.181
13880TIP3   OH241516   8.137   4.031   5.948
13880TIP3    H141517   8.054   4.042   5.994
13880TIP3    H241518   8.119   4.062   5.859
13881TIP3   OH241519   8.565   4.062   5.744
13881TIP3    H141520   8.494   4.078   5.682
13881TIP3    H241521   8.577   4.145   5.790
13882TIP3   OH241522   8.832   4.000   5.794
13882TIP3    H141523   8.738   4.012   5.777
13882TIP3    H241524   8.873   4.079   5.758
13883TIP3   OH241525   9.045   4.192   5.713
13883TIP3    H141526   9.029   4.274   5.666
13883TIP3    H241527   9.067   4.129   5.644
13884TIP3   OH241528   7.817   3.842   5.837
13884TIP3    H141529   7.838   3.820   5.927
13884TIP3    H241530   7.885   3.800   5.785
13885TIP3   OH241531   8.010   3.714   5.693
13885TIP3    H141532   8.022   3.632   5.740
13885TIP3    H241533   8.097   3.752   5.688
13886TIP3   OH241534   8.276   3.809   5.696
13886TIP3    H141535   8.304   3.718   5.683
13886TIP3    H241536   8.316   3.833   5.780
13887TIP3   OH241537   8.847   2.463   5.775
13887TIP3    H141538   8.806   2.398   5.832
13887TIP3    H241539   8.923   2.419   5.738
13888TIP3   OH241540   9.371   2.351   5.707
13888TIP3    H141541   9.406   2.399   5.632
13888TIP3    H241542   9.276   2.364   5.703
13889TIP3   OH241543   9.462   2.446   5.469
13889TIP3    H141544   9.544   2.401   5.448
13889TIP3    H241545   9.483   2.539   5.460
13890TIP3   OH241546   8.097   2.172   5.800
13890TIP3    H141547   8.006   2.143   5.801
13890TIP3    H241548   8.148   2.091   5.797
13891TIP3   OH241549   7.880   2.047   5.446
13891TIP3    H141550   7.913   2.102   5.375
13891TIP3    H241551   7.854   2.108   5.515
13892TIP3   OH241552   8.541   2.210   5.681
13892TIP3    H141553   8.597   2.258   5.620
13892TIP3    H241554   8.562   2.245   5.767
13893TIP3   OH241555   9.084   2.351   5.666
13893TIP3    H141556   9.096   2.317   5.577
13893TIP3    H241557   9.073   2.273   5.721
13894TIP3   OH241558   9.107   2.280   5.230
13894TIP3    H141559   9.023   2.324   5.244
13894TIP3    H241560   9.097   2.195   5.274
13895TIP3   OH241561   7.600   3.616   5.226
13895TIP3    H141562   7.517   3.580   5.193
13895TIP3    H241563   7.592   3.710   5.213
13896TIP3   OH241564   8.003   2.206   5.210
13896TIP3    H141565   8.049   2.142   5.154
13896TIP3    H241566   8.073   2.260   5.247
13897TIP3   OH241567   8.516   2.381   5.312
13897TIP3    H141568   8.574   2.331   5.370
13897TIP3    H241569   8.534   2.472   5.333
13898TIP3   OH241570   8.375   3.805   4.805
13898TIP3    H141571   8.462   3.828   4.773
13898TIP3    H241572   8.349   3.730   4.750
13899TIP3   OH241573   9.095   3.921   4.899
13899TIP3    H141574   9.089   3.825   4.893
13899TIP3    H241575   9.045   3.952   4.824
13900TIP3   OH241576   8.307   2.455   6.693
13900TIP3    H141577   8.270   2.386   6.748
13900TIP3    H241578   8.399   2.458   6.717
13901TIP3   OH241579   8.555   2.453   6.811
13901TIP3    H141580   8.638   2.431   6.770
13901TIP3    H241581   8.541   2.384   6.876
13902TIP3   OH241582   7.678   3.642   4.867
13902TIP3    H141583   7.674   3.668   4.959
13902TIP3    H241584   7.765   3.602   4.858
13903TIP3   OH241585   9.380   2.518   6.598
13903TIP3    H141586   9.399   2.483   6.685
13903TIP3    H241587   9.463   2.514   6.552
13904TIP3   OH241588   9.316   4.069   6.090
13904TIP3    H141589   9.240   4.033   6.044
13904TIP3    H241590   9.297   4.163   6.097
13905TIP3   OH241591   9.537   2.950   5.129
13905TIP3    H141592   9.473   3.021   5.130
13905TIP3    H241593   9.494   2.880   5.079
13906TIP3   OH241594   9.599   3.236   5.283
13906TIP3    H141595   9.625   3.154   5.324
13906TIP3    H241596   9.634   3.232   5.194
13907TIP3   OH241597   9.451   3.476   4.871
13907TIP3    H141598   9.436   3.477   4.776
13907TIP3    H241599   9.488   3.563   4.889
13908TIP3   OH241600   9.641   3.581   5.773
13908TIP3    H141601   9.568   3.553   5.718
13908TIP3    H241602   9.673   3.499   5.811
13909TIP3   OH241603   9.502   3.795   5.418
13909TIP3    H141604   9.598   3.794   5.415
13909TIP3    H241605   9.481   3.870   5.474
13910TIP3   OH241606   9.630   4.015   4.969
13910TIP3    H141607   9.690   4.009   5.044
13910TIP3    H241608   9.593   3.928   4.961
13911TIP3   OH241609   9.785   3.804   5.801
13911TIP3    H141610   9.818   3.782   5.888
13911TIP3    H241611   9.722   3.735   5.781
13912TIP3   OH241612   9.557   2.688   5.397
13912TIP3    H141613   9.622   2.734   5.450
13912TIP3    H241614   9.569   2.723   5.309
13913TIP3   OH241615   9.741   3.378   5.930
13913TIP3    H141616   9.761   3.349   6.019
13913TIP3    H241617   9.673   3.318   5.900
13914TIP3   OH241618   9.522   3.148   4.618
13914TIP3    H141619   9.596   3.138   4.679
13914TIP3    H241620   9.446   3.124   4.670
13915TIP3   OH241621   9.684   3.981   5.573
13915TIP3    H141622   9.721   3.905   5.618
13915TIP3    H241623   9.709   4.056   5.626
13916TIP3   OH241624   9.521   3.750   4.919
13916TIP3    H141625   9.442   3.767   4.970
13916TIP3    H241626   9.501   3.785   4.832
13917TIP3   OH241627   9.673   4.275   5.987
13917TIP3    H141628   9.761   4.264   6.023
13917TIP3    H241629   9.639   4.185   5.981
13918TIP3   OH241630   9.806   3.716   6.173
13918TIP3    H141631   9.835   3.635   6.214
13918TIP3    H241632   9.723   3.694   6.131
13919TIP3   OH241633   9.380   3.486   4.556
13919TIP3    H141634   9.475   3.480   4.567
13919TIP3    H241635   9.356   3.407   4.508
13920TIP3   OH241636   9.294   4.096   4.976
13920TIP3    H141637   9.229   4.035   4.940
13920TIP3    H241638   9.341   4.045   5.042
13921TIP3   OH241639   9.420   3.953   5.173
13921TIP3    H141640   9.412   3.874   5.227
13921TIP3    H241641   9.478   4.010   5.224
13922TIP3   OH241642   9.644   3.349   5.531
13922TIP3    H141643   9.618   3.317   5.444
13922TIP3    H241644   9.726   3.395   5.516
13923TIP3   OH241645   0.021   3.028   6.193
13923TIP3    H141646   0.110   3.063   6.202
13923TIP3    H241647   0.017   2.955   6.254
13924TIP3   OH241648   9.594   3.028   5.582
13924TIP3    H141649   9.655   2.955   5.591
13924TIP3    H241650   9.637   3.100   5.628
13925TIP3   OH241651   9.544   2.562   5.098
13925TIP3    H141652   9.451   2.547   5.115
13925TIP3    H241653   9.549   2.580   5.004
13926TIP3   OH241654   0.035   4.030   6.030
13926TIP3    H141655  -0.043   3.992   5.990
13926TIP3    H241656   0.045   3.982   6.113
13927TIP3   OH241657   9.687   4.305   5.576
13927TIP3    H141658   9.602   4.343   5.555
13927TIP3    H241659   9.707   4.337   5.664
13928TIP3   OH241660   0.140   4.296   5.447
13928TIP3    H141661   0.050   4.295   5.479
13928TIP3    H241662   0.132   4.319   5.354
13929TIP3   OH241663   9.615   4.099   5.323
13929TIP3    H141664   9.638   4.078   5.414
13929TIP3    H241665   9.688   4.063   5.272
13930TIP3   OH241666   0.020   3.988   5.166
13930TIP3    H141667   0.037   3.894   5.177
13930TIP3    H241668   0.106   4.029   5.177
13931TIP3   OH241669   9.396   3.867   4.713
13931TIP3    H141670   9.313   3.832   4.680
13931TIP3    H241671   9.391   3.961   4.696
13932TIP3   OH241672   9.500   3.917   4.369
13932TIP3    H141673   9.466   3.931   4.458
13932TIP3    H241674   9.550   3.835   4.376
13933TIP3   OH241675   1.239   3.970   7.060
13933TIP3    H141676   1.215   4.061   7.042
13933TIP3    H241677   1.165   3.919   7.026
13934TIP3   OH241678   1.240   3.969   7.439
13934TIP3    H141679   1.270   3.942   7.525
13934TIP3    H241680   1.197   3.891   7.403
13935TIP3   OH241681   0.539   3.866   7.800
13935TIP3    H141682   0.564   3.797   7.862
13935TIP3    H241683   0.613   3.926   7.800
13936TIP3   OH241684   1.483   4.273   7.123
13936TIP3    H141685   1.470   4.203   7.188
13936TIP3    H241686   1.512   4.348   7.174
13937TIP3   OH241687   0.520   4.273   7.531
13937TIP3    H141688   0.504   4.179   7.535
13937TIP3    H241689   0.616   4.280   7.527
13938TIP3   OH241690   0.174   3.476   7.317
13938TIP3    H141691   0.174   3.569   7.341
13938TIP3    H241692   0.164   3.430   7.400
13939TIP3   OH241693   0.285   3.763   7.484
13939TIP3    H141694   0.333   3.691   7.524
13939TIP3    H241695   0.342   3.795   7.414
13940TIP3   OH241696   1.132   4.732   7.139
13940TIP3    H141697   1.177   4.665   7.087
13940TIP3    H241698   1.129   4.697   7.228
13941TIP3   OH241699   1.043   4.195   7.488
13941TIP3    H141700   1.075   4.119   7.440
13941TIP3    H241701   1.122   4.243   7.513
13942TIP3   OH241702   2.053   3.517   7.486
13942TIP3    H141703   2.080   3.598   7.530
13942TIP3    H241704   2.071   3.533   7.393
13943TIP3   OH241705   1.450   3.695   7.521
13943TIP3    H141706   1.494   3.613   7.541
13943TIP3    H241707   1.419   3.684   7.431
13944TIP3   OH241708   0.787   3.357   7.485
13944TIP3    H141709   0.770   3.431   7.426
13944TIP3    H241710   0.742   3.283   7.444
13945TIP3   OH241711   1.486   3.449   7.110
13945TIP3    H141712   1.555   3.433   7.174
13945TIP3    H241713   1.532   3.484   7.033
13946TIP3   OH241714   0.426   3.555   7.587
13946TIP3    H141715   0.500   3.542   7.646
13946TIP3    H241716   0.445   3.498   7.512
13947TIP3   OH241717   0.865   3.755   7.382
13947TIP3    H141718   0.957   3.732   7.398
13947TIP3    H241719   0.825   3.674   7.352
13948TIP3   OH241720   2.123   3.724   7.660
13948TIP3    H141721   2.042   3.771   7.637
13948TIP3    H241722   2.146   3.758   7.747
13949TIP3   OH241723   0.783   3.341   7.921
13949TIP3    H141724   0.727   3.377   7.852
13949TIP3    H241725   0.735   3.360   8.002
13950TIP3   OH241726   1.131   4.191   6.930
13950TIP3    H141727   1.092   4.169   6.846
13950TIP3    H241728   1.090   4.275   6.954
13951TIP3   OH241729   0.894   4.117   7.717
13951TIP3    H141730   0.831   4.178   7.755
13951TIP3    H241731   0.935   4.166   7.646
13952TIP3   OH241732   1.696   3.450   7.281
13952TIP3    H141733   1.685   3.402   7.363
13952TIP3    H241734   1.748   3.527   7.305
13953TIP3   OH241735   0.659   3.456   7.706
13953TIP3    H141736   0.716   3.529   7.729
13953TIP3    H241737   0.703   3.414   7.631
13954TIP3   OH241738   0.719   4.308   7.812
13954TIP3    H141739   0.700   4.394   7.773
13954TIP3    H241740   0.644   4.290   7.869
13955TIP3   OH241741   0.167   4.021   6.997
13955TIP3    H141742   0.082   4.051   6.962
13955TIP3    H241743   0.181   4.074   7.075
13956TIP3   OH241744   1.551   4.516   7.289
13956TIP3    H141745   1.464   4.506   7.328
13956TIP3    H241746   1.548   4.600   7.244
13957TIP3   OH241747   1.845   3.415   7.650
13957TIP3    H141748   1.758   3.444   7.623
13957TIP3    H241749   1.904   3.446   7.582
13958TIP3   OH241750   1.143   3.060   7.637
13958TIP3    H141751   1.128   2.966   7.647
13958TIP3    H241752   1.067   3.101   7.680
13959TIP3   OH241753   1.259   4.562   6.962
13959TIP3    H141754   1.303   4.480   6.944
13959TIP3    H241755   1.316   4.629   6.923
13960TIP3   OH241756   1.397   4.346   6.871
13960TIP3    H141757   1.365   4.268   6.826
13960TIP3    H241758   1.433   4.313   6.954
13961TIP3   OH241759   1.779   4.428   7.631
13961TIP3    H141760   1.770   4.352   7.574
13961TIP3    H241761   1.763   4.503   7.574
13962TIP3   OH241762   1.071   3.823   6.888
13962TIP3    H141763   0.992   3.873   6.868
13962TIP3    H241764   1.118   3.819   6.805
13963TIP3   OH241765   1.033   3.606   6.608
13963TIP3    H141766   1.098   3.658   6.656
13963TIP3    H241767   1.085   3.541   6.559
13964TIP3   OH241768   1.974   4.065   7.475
13964TIP3    H141769   1.893   4.115   7.483
13964TIP3    H241770   2.007   4.087   7.388
13965TIP3   OH241771   1.419   3.904   6.865
13965TIP3    H141772   1.364   3.929   6.939
13965TIP3    H241773   1.502   3.879   6.904
13966TIP3   OH241774   1.652   3.946   7.773
13966TIP3    H141775   1.653   4.028   7.823
13966TIP3    H241776   1.568   3.948   7.726
13967TIP3   OH241777   0.653   3.901   7.277
13967TIP3    H141778   0.610   3.846   7.212
13967TIP3    H241779   0.729   3.850   7.306
13968TIP3   OH241780   0.787   4.317   7.423
13968TIP3    H141781   0.762   4.271   7.343
13968TIP3    H241782   0.874   4.283   7.444
13969TIP3   OH241783   0.797   3.872   7.632
13969TIP3    H141784   0.824   3.855   7.542
13969TIP3    H241785   0.833   3.958   7.653
13970TIP3   OH241786   1.311   4.511   7.410
13970TIP3    H141787   1.300   4.591   7.463
13970TIP3    H241788   1.298   4.440   7.472
13971TIP3   OH241789   0.923   4.430   7.957
13971TIP3    H141790   0.868   4.494   8.003
13971TIP3    H241791   0.861   4.377   7.907
13972TIP3   OH241792   1.262   3.765   6.686
13972TIP3    H141793   1.318   3.821   6.739
13972TIP3    H241794   1.285   3.785   6.596
13973TIP3   OH241795   3.955   8.610   0.053
13973TIP3    H141796   3.960   8.697   0.091
13973TIP3    H241797   3.863   8.584   0.063
13974TIP3   OH241798   1.002   4.444   6.963
13974TIP3    H141799   1.081   4.496   6.980
13974TIP3    H241800   0.940   4.506   6.925
13975TIP3   OH241801   3.989   9.221   0.042
13975TIP3    H141802   3.955   9.216  -0.048
13975TIP3    H241803   3.920   9.182   0.096
13976TIP3   OH241804   1.775   3.006   6.736
13976TIP3    H141805   1.695   3.023   6.786
13976TIP3    H241806   1.790   3.086   6.686
13977TIP3   OH241807   0.518   3.743   7.087
13977TIP3    H141808   0.461   3.787   7.024
13977TIP3    H241809   0.478   3.657   7.100
13978TIP3   OH241810   1.576   4.372   6.285
13978TIP3    H141811   1.582   4.466   6.269
13978TIP3    H241812   1.666   4.340   6.273
13979TIP3   OH241813   0.301   4.140   7.985
13979TIP3    H141814   0.250   4.105   7.911
13979TIP3    H241815   0.335   4.063   8.030
13980TIP3   OH241816   2.017   4.771   7.682
13980TIP3    H141817   2.017   4.676   7.694
13980TIP3    H241818   1.936   4.801   7.724
13981TIP3   OH241819   1.121   4.561   7.815
13981TIP3    H141820   1.123   4.652   7.845
13981TIP3    H241821   1.053   4.520   7.867
13982TIP3   OH241822   0.881   4.689   6.764
13982TIP3    H141823   0.839   4.669   6.681
13982TIP3    H241824   0.851   4.777   6.786
13983TIP3   OH241825   0.361   4.525   7.119
13983TIP3    H141826   0.380   4.500   7.210
13983TIP3    H241827   0.276   4.485   7.101
13984TIP3   OH241828   1.086   4.588   6.407
13984TIP3    H141829   1.143   4.521   6.369
13984TIP3    H241830   1.119   4.599   6.496
13985TIP3   OH241831   1.134   4.638   6.678
13985TIP3    H141832   1.047   4.646   6.719
13985TIP3    H241833   1.188   4.596   6.745
13986TIP3   OH241834   1.906   3.901   7.954
13986TIP3    H141835   1.828   3.920   7.902
13986TIP3    H241836   1.921   3.807   7.942
13987TIP3   OH241837   3.777   8.935  -0.022
13987TIP3    H141838   3.822   8.928   0.062
13987TIP3    H241839   3.705   8.872  -0.016
13988TIP3   OH241840   0.902   3.135   7.764
13988TIP3    H141841   0.817   3.101   7.737
13988TIP3    H241842   0.882   3.219   7.806
13989TIP3   OH241843   1.436   3.249   7.958
13989TIP3    H141844   1.502   3.225   8.022
13989TIP3    H241845   1.352   3.232   8.001
13990TIP3   OH241846   1.676   3.681   7.876
13990TIP3    H141847   1.627   3.677   7.958
13990TIP3    H241848   1.653   3.766   7.839
13991TIP3   OH241849   1.336   3.811   6.430
13991TIP3    H141850   1.301   3.784   6.345
13991TIP3    H241851   1.417   3.858   6.408
13992TIP3   OH241852   1.047   3.181   6.733
13992TIP3    H141853   1.013   3.179   6.822
13992TIP3    H241854   1.011   3.103   6.692
13993TIP3   OH241855   0.835   3.652   7.783
13993TIP3    H141856   0.785   3.671   7.862
13993TIP3    H241857   0.823   3.729   7.727
13994TIP3   OH241858   0.717   3.535   7.294
13994TIP3    H141859   0.626   3.514   7.312
13994TIP3    H241860   0.734   3.498   7.208
13995TIP3   OH241861   1.210   3.624   7.021
13995TIP3    H141862   1.157   3.694   6.982
13995TIP3    H241863   1.264   3.593   6.948
13996TIP3   OH241864   4.651   8.520   0.109
13996TIP3    H141865   4.628   8.449   0.170
13996TIP3    H241866   4.743   8.538   0.128
13997TIP3   OH241867   1.365   3.651   7.260
13997TIP3    H141868   1.306   3.686   7.193
13997TIP3    H241869   1.400   3.570   7.222
13998TIP3   OH241870   3.926   8.301  -0.012
13998TIP3    H141871   3.934   8.369   0.055
13998TIP3    H241872   3.909   8.221   0.037
13999TIP3   OH241873   0.706   3.158   6.704
13999TIP3    H141874   0.698   3.150   6.799
13999TIP3    H241875   0.628   3.205   6.677
14000TIP3   OH241876   0.246   3.223   7.539
14000TIP3    H141877   0.301   3.244   7.614
14000TIP3    H241878   0.287   3.147   7.499
14001TIP3   OH241879   0.235   3.212   7.106
14001TIP3    H141880   0.270   3.225   7.018
14001TIP3    H241881   0.181   3.290   7.122
14002TIP3   OH241882   1.377   3.895   7.686
14002TIP3    H141883   1.409   3.827   7.627
14002TIP3    H241884   1.347   3.847   7.763
14003TIP3   OH241885   1.046   3.358   7.360
14003TIP3    H141886   0.962   3.357   7.407
14003TIP3    H241887   1.112   3.363   7.428
14004TIP3   OH241888   0.476   3.411   7.357
14004TIP3    H141889   0.386   3.404   7.323
14004TIP3    H241890   0.512   3.323   7.344
14005TIP3   OH241891   0.751   3.413   7.052
14005TIP3    H141892   0.843   3.425   7.031
14005TIP3    H241893   0.705   3.435   6.970
14006TIP3   OH241894   1.537   3.433   7.560
14006TIP3    H141895   1.504   3.448   7.649
14006TIP3    H241896   1.473   3.373   7.521
14007TIP3   OH241897   0.588   3.446   6.828
14007TIP3    H141898   0.520   3.398   6.781
14007TIP3    H241899   0.644   3.483   6.759
14008TIP3   OH241900   1.704   5.123   7.775
14008TIP3    H141901   1.702   5.148   7.683
14008TIP3    H241902   1.782   5.166   7.811
14009TIP3   OH241903   3.941   8.849   0.199
14009TIP3    H141904   4.019   8.883   0.242
14009TIP3    H241905   3.871   8.859   0.263
14010TIP3   OH241906   1.130   3.684   7.454
14010TIP3    H141907   1.203   3.649   7.402
14010TIP3    H241908   1.142   3.646   7.540
14011TIP3   OH241909   0.653   3.176   7.332
14011TIP3    H141910   0.619   3.098   7.376
14011TIP3    H241911   0.700   3.142   7.255
14012TIP3   OH241912   1.105   3.581   7.751
14012TIP3    H141913   1.018   3.619   7.758
14012TIP3    H241914   1.162   3.644   7.795
14013TIP3   OH241915   0.840   3.975   6.840
14013TIP3    H141916   0.771   3.911   6.827
14013TIP3    H241917   0.826   4.009   6.929
14014TIP3   OH241918   1.743   4.211   7.467
14014TIP3    H141919   1.768   4.260   7.389
14014TIP3    H241920   1.659   4.171   7.445
14015TIP3   OH241921   1.300   3.287   6.703
14015TIP3    H141922   1.206   3.270   6.709
14015TIP3    H241923   1.309   3.380   6.724
14016TIP3   OH241924   1.241   4.293   7.838
14016TIP3    H141925   1.265   4.272   7.928
14016TIP3    H241926   1.204   4.381   7.843
14017TIP3   OH241927   1.371   3.536   6.805
14017TIP3    H141928   1.466   3.541   6.819
14017TIP3    H241929   1.352   3.613   6.751
14018TIP3   OH241930   0.540   4.000   7.515
14018TIP3    H141931   0.577   3.968   7.432
14018TIP3    H241932   0.566   3.934   7.579
14019TIP3   OH241933   0.985   4.125   6.660
14019TIP3    H141934   0.941   4.210   6.665
14019TIP3    H241935   0.935   4.069   6.719
14020TIP3   OH241936   3.704   8.536   0.128
14020TIP3    H141937   3.713   8.529   0.223
14020TIP3    H241938   3.616   8.504   0.109
14021TIP3   OH241939   4.407   8.648   0.147
14021TIP3    H141940   4.345   8.593   0.099
14021TIP3    H241941   4.493   8.618   0.117
14022TIP3   OH241942   1.401   4.551   7.735
14022TIP3    H141943   1.306   4.550   7.744
14022TIP3    H241944   1.432   4.603   7.809
14023TIP3   OH241945   1.811   3.626   6.637
14023TIP3    H141946   1.751   3.578   6.581
14023TIP3    H241947   1.812   3.714   6.601
14024TIP3   OH241948   2.028   4.478   7.721
14024TIP3    H141949   1.932   4.477   7.716
14024TIP3    H241950   2.057   4.451   7.634
14025TIP3   OH241951   1.509   4.443   6.547
14025TIP3    H141952   1.489   4.371   6.608
14025TIP3    H241953   1.525   4.400   6.464
14026TIP3   OH241954   1.507   4.071   7.388
14026TIP3    H141955   1.415   4.049   7.402
14026TIP3    H241956   1.543   3.995   7.343
14027TIP3   OH241957   0.638   4.301   7.136
14027TIP3    H141958   0.643   4.380   7.082
14027TIP3    H241959   0.544   4.290   7.153
14028TIP3   OH241960   0.199   3.611   6.849
14028TIP3    H141961   0.268   3.678   6.854
14028TIP3    H241962   0.127   3.646   6.902
14029TIP3   OH241963   0.775   4.067   7.086
14029TIP3    H141964   0.742   4.156   7.101
14029TIP3    H241965   0.740   4.015   7.158
14030TIP3   OH241966   0.907   4.648   7.607
14030TIP3    H141967   0.949   4.718   7.557
14030TIP3    H241968   0.979   4.609   7.657
14031TIP3   OH241969   0.586   4.546   6.980
14031TIP3    H141970   0.502   4.543   7.026
14031TIP3    H241971   0.611   4.639   6.982
14032TIP3   OH241972   1.294   4.278   7.569
14032TIP3    H141973   1.284   4.277   7.664
14032TIP3    H241974   1.374   4.227   7.553
14033TIP3   OH241975   1.266   4.170   6.454
14033TIP3    H141976   1.321   4.148   6.529
14033TIP3    H241977   1.177   4.144   6.481
14034TIP3   OH241978   1.540   4.812   7.616
14034TIP3    H141979   1.463   4.757   7.610
14034TIP3    H241980   1.528   4.878   7.548
14035TIP3   OH241981   1.606   4.649   6.271
14035TIP3    H141982   1.650   4.716   6.218
14035TIP3    H241983   1.527   4.692   6.303
14036TIP3   OH241984   3.901   8.038   0.144
14036TIP3    H141985   3.809   8.052   0.165
14036TIP3    H241986   3.931   7.976   0.210
14037TIP3   OH241987   1.429   4.106   6.671
14037TIP3    H141988   1.416   4.040   6.738
14037TIP3    H241989   1.523   4.105   6.654
14038TIP3   OH241990   0.379   4.530   7.761
14038TIP3    H141991   0.405   4.438   7.767
14038TIP3    H241992   0.378   4.561   7.851
14039TIP3   OH241993   0.632   4.151   6.451
14039TIP3    H141994   0.648   4.062   6.419
14039TIP3    H241995   0.615   4.140   6.545
14040TIP3   OH241996   0.583   4.158   6.725
14040TIP3    H141997   0.654   4.130   6.782
14040TIP3    H241998   0.586   4.254   6.729
14041TIP3   OH241999   0.338   3.841   6.904
14041TIP3    H142000   0.274   3.890   6.955
14041TIP3    H242001   0.362   3.900   6.832
14042TIP3   OH242002   1.464   3.487   7.818
14042TIP3    H142003   1.542   3.527   7.856
14042TIP3    H242004   1.449   3.408   7.870
14043TIP3   OH242005   1.342   3.241   6.982
14043TIP3    H142006   1.327   3.260   6.889
14043TIP3    H242007   1.380   3.322   7.017
14044TIP3   OH242008   0.844   4.356   6.672
14044TIP3    H142009   0.758   4.381   6.707
14044TIP3    H242010   0.863   4.423   6.607
14045TIP3   OH242011   1.036   3.419   7.086
14045TIP3    H142012   1.098   3.489   7.066
14045TIP3    H242013   1.039   3.413   7.182
14046TIP3   OH242014   1.303   3.737   7.894
14046TIP3    H142015   1.321   3.792   7.970
14046TIP3    H242016   1.358   3.660   7.907
14047TIP3   OH242017   1.180   3.149   7.189
14047TIP3    H142018   1.165   3.226   7.244
14047TIP3    H242019   1.237   3.181   7.119
14048TIP3   OH242020   0.585   4.431   6.733
14048TIP3    H142021   0.556   4.500   6.672
14048TIP3    H242022   0.582   4.472   6.819
14049TIP3   OH242023   0.688   3.146   6.982
14049TIP3    H142024   0.689   3.236   7.014
14049TIP3    H242025   0.780   3.119   6.984
14050TIP3   OH242026   1.941   3.633   7.874
14050TIP3    H142027   1.846   3.633   7.881
14050TIP3    H242028   1.958   3.606   7.784
14051TIP3   OH242029   1.594   3.830   7.263
14051TIP3    H142030   1.519   3.772   7.273
14051TIP3    H242031   1.665   3.785   7.308
14052TIP3   OH242032   0.320   4.070   6.720
14052TIP3    H142033   0.391   4.131   6.737
14052TIP3    H242034   0.355   4.010   6.654
14053TIP3   OH242035   0.245   3.336   6.866
14053TIP3    H142036   0.247   3.432   6.866
14053TIP3    H242037   0.179   3.313   6.801
14054TIP3   OH242038   1.564   4.788   7.208
14054TIP3    H142039   1.519   4.832   7.136
14054TIP3    H242040   1.657   4.804   7.192
14055TIP3   OH242041   0.642   3.049   7.739
14055TIP3    H142042   0.609   3.024   7.653
14055TIP3    H242043   0.622   2.974   7.795
14056TIP3   OH242044   0.200   4.245   7.152
14056TIP3    H142045   0.113   4.284   7.149
14056TIP3    H242046   0.242   4.272   7.070
14057TIP3   OH242047   7.345   0.168   0.229
14057TIP3    H142048   7.437   0.149   0.244
14057TIP3    H242049   7.319   0.108   0.160
14058TIP3   OH242050   0.797   4.353   6.364
14058TIP3    H142051   0.741   4.285   6.401
14058TIP3    H242052   0.873   4.306   6.331
14059TIP3   OH242053   1.455   4.686   7.969
14059TIP3    H142054   1.446   4.618   8.036
14059TIP3    H242055   1.531   4.737   7.997
14060TIP3   OH242056   1.234   4.397   6.274
14060TIP3    H142057   1.278   4.336   6.332
14060TIP3    H242058   1.287   4.398   6.194
14061TIP3   OH242059   3.747   8.823   0.395
14061TIP3    H142060   3.785   8.735   0.394
14061TIP3    H242061   3.654   8.810   0.378
14062TIP3   OH242062   0.448   3.872   6.583
14062TIP3    H142063   0.500   3.838   6.656
14062TIP3    H242064   0.509   3.878   6.510
14063TIP3   OH242065   4.340   8.925   0.160
14063TIP3    H142066   4.297   8.943   0.076
14063TIP3    H242067   4.369   8.834   0.153
14064TIP3   OH242068   0.947   4.069   6.392
14064TIP3    H142069   0.953   4.085   6.486
14064TIP3    H242070   0.949   3.974   6.383
14065TIP3   OH242071   1.565   4.316   7.769
14065TIP3    H142072   1.640   4.358   7.726
14065TIP3    H242073   1.493   4.379   7.758
14066TIP3   OH242074   3.838   8.558   0.389
14066TIP3    H142075   3.917   8.518   0.351
14066TIP3    H242076   3.867   8.596   0.472
14067TIP3   OH242077   0.651   3.775   6.806
14067TIP3    H142078   0.624   3.734   6.888
14067TIP3    H242079   0.687   3.703   6.754
14068TIP3   OH242080   4.191   8.465   0.034
14068TIP3    H142081   4.111   8.518   0.036
14068TIP3    H242082   4.237   8.493  -0.045
14069TIP3   OH242083   0.751   3.570   6.645
14069TIP3    H142084   0.723   3.571   6.554
14069TIP3    H242085   0.847   3.574   6.641
14070TIP3   OH242086   4.701   8.861   0.168
14070TIP3    H142087   4.782   8.843   0.119
14070TIP3    H242088   4.700   8.795   0.237
14071TIP3   OH242089   1.570   3.902   6.307
14071TIP3    H142090   1.553   3.853   6.227
14071TIP3    H242091   1.541   3.991   6.287
14072TIP3   OH242092   4.309   8.248   0.156
14072TIP3    H142093   4.307   8.170   0.101
14072TIP3    H242094   4.267   8.316   0.103
14073TIP3   OH242095   1.043   3.412   7.965
14073TIP3    H142096   1.072   3.457   7.886
14073TIP3    H242097   0.951   3.392   7.949
14074TIP3   OH242098   1.075   3.952   7.837
14074TIP3    H142099   1.157   3.962   7.789
14074TIP3    H242100   1.016   4.016   7.798
14075TIP3   OH242101   4.924   8.538   0.222
14075TIP3    H142102   4.974   8.456   0.224
14075TIP3    H242103   4.985   8.603   0.187
14076TIP3   OH242104   1.696   4.171   7.954
14076TIP3    H142105   1.636   4.222   7.899
14076TIP3    H242106   1.783   4.190   7.918
14077TIP3   OH242107   4.187   8.359   0.388
14077TIP3    H142108   4.118   8.294   0.402
14077TIP3    H242109   4.220   8.341   0.301
14078TIP3   OH242110   4.440   7.800   0.035
14078TIP3    H142111   4.397   7.882   0.010
14078TIP3    H242112   4.375   7.732   0.020
14079TIP3   OH242113   4.567   8.301   0.250
14079TIP3    H142114   4.555   8.295   0.345
14079TIP3    H242115   4.481   8.279   0.214
14080TIP3   OH242116   4.807   8.249   0.104
14080TIP3    H142117   4.732   8.255   0.163
14080TIP3    H242118   4.880   8.223   0.160
14081TIP3   OH242119   5.037   8.192   0.258
14081TIP3    H142120   5.049   8.099   0.275
14081TIP3    H242121   5.033   8.232   0.344
14082TIP3   OH242122   4.022   8.146   0.438
14082TIP3    H142123   4.029   8.058   0.399
14082TIP3    H242124   4.062   8.136   0.525
14083TIP3   OH242125   4.536   7.802   0.290
14083TIP3    H142126   4.605   7.736   0.282
14083TIP3    H242127   4.494   7.805   0.204
14084TIP3   OH242128   4.599   8.022   0.448
14084TIP3    H142129   4.578   7.955   0.383
14084TIP3    H242130   4.527   8.084   0.443
14085TIP3   OH242131   0.558   4.638   6.549
14085TIP3    H142132   0.652   4.627   6.535
14085TIP3    H242133   0.527   4.682   6.470
14086TIP3   OH242134   0.051   4.031   6.705
14086TIP3    H142135   0.141   4.045   6.733
14086TIP3    H242136   0.043   3.936   6.697
14087TIP3   OH242137   1.814   4.881   7.167
14087TIP3    H142138   1.839   4.912   7.254
14087TIP3    H242139   1.876   4.923   7.107
14088TIP3   OH242140   1.843   4.897   7.449
14088TIP3    H142141   1.803   4.810   7.445
14088TIP3    H242142   1.920   4.885   7.504
14089TIP3   OH242143   5.157   9.196   0.022
14089TIP3    H142144   5.084   9.203   0.084
14089TIP3    H242145   5.199   9.282   0.024
14090TIP3   OH242146   1.708   4.089   6.643
14090TIP3    H142147   1.773   4.152   6.611
14090TIP3    H242148   1.749   4.050   6.720
14091TIP3   OH242149   1.835   3.956   6.847
14091TIP3    H142150   1.770   3.914   6.904
14091TIP3    H242151   1.899   3.994   6.907
14092TIP3   OH242152   1.888   4.346   7.276
14092TIP3    H142153   1.940   4.283   7.227
14092TIP3    H242154   1.881   4.422   7.218
14093TIP3   OH242155   1.719   4.646   7.475
14093TIP3    H142156   1.651   4.691   7.525
14093TIP3    H242157   1.671   4.600   7.405
14094TIP3   OH242158   1.769   3.865   6.493
14094TIP3    H142159   1.702   3.865   6.425
14094TIP3    H242160   1.746   3.939   6.549
14095TIP3   OH242161   1.642   3.535   6.448
14095TIP3    H142162   1.604   3.577   6.371
14095TIP3    H242163   1.618   3.442   6.439
14096TIP3   OH242164   1.648   3.811   6.994
14096TIP3    H142165   1.656   3.716   6.986
14096TIP3    H242166   1.635   3.826   7.088
14097TIP3   OH242167   0.279   3.925   7.716
14097TIP3    H142168   0.273   3.875   7.634
14097TIP3    H242169   0.367   3.907   7.749
14098TIP3   OH242170   1.939   4.236   7.848
14098TIP3    H142171   2.010   4.172   7.839
14098TIP3    H242172   1.963   4.308   7.790
14099TIP3   OH242173   2.121   4.039   7.868
14099TIP3    H142174   2.048   3.993   7.907
14099TIP3    H242175   2.196   3.980   7.879
14100TIP3   OH242176   1.587   3.270   6.434
14100TIP3    H142177   1.660   3.239   6.489
14100TIP3    H242178   1.514   3.212   6.457
14101TIP3   OH242179   1.647   3.526   6.887
14101TIP3    H142180   1.685   3.440   6.904
14101TIP3    H242181   1.702   3.562   6.817
14102TIP3   OH242182   1.810   3.704   7.384
14102TIP3    H142183   1.892   3.727   7.340
14102TIP3    H242184   1.819   3.739   7.473
14103TIP3   OH242185   1.874   3.848   7.616
14103TIP3    H142186   1.798   3.880   7.663
14103TIP3    H242187   1.908   3.925   7.569
14104TIP3   OH242188   3.751   8.168   0.419
14104TIP3    H142189   3.842   8.191   0.401
14104TIP3    H242190   3.756   8.103   0.489
14105TIP3   OH242191   5.594   8.054   0.168
14105TIP3    H142192   5.652   7.991   0.125
14105TIP3    H242193   5.564   8.111   0.097
14106TIP3   OH242194   1.754   3.276   6.928
14106TIP3    H142195   1.802   3.262   7.009
14106TIP3    H242196   1.693   3.202   6.923
14107TIP3   OH242197   0.453   3.253   7.729
14107TIP3    H142198   0.519   3.186   7.745
14107TIP3    H242199   0.500   3.336   7.739
14108TIP3   OH242200   0.294   3.551   7.841
14108TIP3    H142201   0.313   3.535   7.748
14108TIP3    H242202   0.254   3.638   7.843
14109TIP3   OH242203   2.195   3.575   7.980
14109TIP3    H142204   2.113   3.619   8.001
14109TIP3    H242205   2.170   3.507   7.918
14110TIP3   OH242206   1.838   3.212   6.558
14110TIP3    H142207   1.874   3.142   6.505
14110TIP3    H242208   1.901   3.283   6.550
14111TIP3   OH242209   0.234   3.030   7.301
14111TIP3    H142210   0.152   3.057   7.341
14111TIP3    H242211   0.248   3.093   7.231
14112TIP3   OH242212   1.398   4.748   6.822
14112TIP3    H142213   1.447   4.730   6.742
14112TIP3    H242214   1.452   4.809   6.871
14113TIP3   OH242215   3.722   7.747   0.147
14113TIP3    H142216   3.657   7.739   0.217
14113TIP3    H242217   3.674   7.785   0.074
14114TIP3   OH242218   3.796   9.131   0.217
14114TIP3    H142219   3.713   9.175   0.198
14114TIP3    H242220   3.800   9.126   0.312
14115TIP3   OH242221   0.688   4.578   7.760
14115TIP3    H142222   0.626   4.642   7.725
14115TIP3    H242223   0.770   4.597   7.714
14116TIP3   OH242224   1.126   4.828   7.896
14116TIP3    H142225   1.165   4.826   7.983
14116TIP3    H242226   1.190   4.876   7.843
14117TIP3   OH242227   1.305   4.979   7.754
14117TIP3    H142228   1.374   4.926   7.712
14117TIP3    H242229   1.352   5.036   7.814
14118TIP3   OH242230   2.094   3.339   7.854
14118TIP3    H142231   2.006   3.341   7.817
14118TIP3    H242232   2.124   3.249   7.841
14119TIP3   OH242233   0.586   4.819   7.645
14119TIP3    H142234   0.499   4.821   7.686
14119TIP3    H242235   0.571   4.850   7.556
14120TIP3   OH242236   1.017   4.849   7.436
14120TIP3    H142237   0.952   4.868   7.369
14120TIP3    H242238   1.031   4.932   7.481
14121TIP3   OH242239   1.285   4.786   7.487
14121TIP3    H142240   1.193   4.802   7.468
14121TIP3    H242241   1.331   4.859   7.447
14122TIP3   OH242242   1.488   4.976   7.401
14122TIP3    H142243   1.478   5.060   7.357
14122TIP3    H242244   1.519   4.916   7.332
14123TIP3   OH242245   0.318   4.654   7.515
14123TIP3    H142246   0.335   4.618   7.602
14123TIP3    H242247   0.368   4.598   7.456
14124TIP3   OH242248   0.469   4.484   7.370
14124TIP3    H142249   0.478   4.406   7.425
14124TIP3    H242250   0.557   4.522   7.369
14125TIP3   OH242251   0.732   4.599   7.388
14125TIP3    H142252   0.759   4.509   7.369
14125TIP3    H242253   0.774   4.620   7.471
14126TIP3   OH242254   1.306   3.256   7.478
14126TIP3    H142255   1.259   3.188   7.526
14126TIP3    H242256   1.372   3.208   7.427
14127TIP3   OH242257   1.826   3.137   7.381
14127TIP3    H142258   1.863   3.186   7.308
14127TIP3    H242259   1.732   3.151   7.374
14128TIP3   OH242260   1.923   3.234   7.143
14128TIP3    H142261   1.992   3.182   7.102
14128TIP3    H242262   1.950   3.325   7.130
14129TIP3   OH242263   0.548   2.961   7.491
14129TIP3    H142264   0.457   2.931   7.488
14129TIP3    H242265   0.600   2.881   7.485
14130TIP3   OH242266   0.349   2.830   7.148
14130TIP3    H142267   0.366   2.882   7.070
14130TIP3    H242268   0.312   2.892   7.211
14131TIP3   OH242269   0.996   2.995   7.371
14131TIP3    H142270   1.050   3.042   7.308
14131TIP3    H242271   1.013   3.039   7.454
14132TIP3   OH242272   1.544   3.139   7.353
14132TIP3    H142273   1.536   3.109   7.263
14132TIP3    H242274   1.528   3.062   7.406
14133TIP3   OH242275   1.569   3.064   6.918
14133TIP3    H142276   1.484   3.107   6.923
14133TIP3    H242277   1.556   2.979   6.961
14134TIP3   OH242278   0.462   2.991   6.897
14134TIP3    H142279   0.516   2.922   6.857
14134TIP3    H242280   0.526   3.050   6.937
14135TIP3   OH242281   0.966   3.170   7.000
14135TIP3    H142282   1.022   3.115   7.053
14135TIP3    H242283   0.989   3.260   7.024
14136TIP3   OH242284   0.826   4.593   6.496
14136TIP3    H142285   0.914   4.616   6.465
14136TIP3    H242286   0.801   4.518   6.441
14137TIP3   OH242287   1.541   4.708   6.591
14137TIP3    H142288   1.536   4.613   6.581
14137TIP3    H242289   1.501   4.743   6.511
14138TIP3   OH242290   4.026   7.864   0.377
14138TIP3    H142291   3.989   7.792   0.429
14138TIP3    H242292   4.117   7.868   0.404
14139TIP3   OH242293   4.276   7.855   0.498
14139TIP3    H142294   4.358   7.837   0.452
14139TIP3    H242295   4.265   7.780   0.557
14140TIP3   OH242296   0.148   4.435   6.595
14140TIP3    H142297   0.170   4.526   6.617
14140TIP3    H242298   0.230   4.398   6.562
14141TIP3   OH242299   5.101   7.920   0.286
14141TIP3    H142300   5.121   7.891   0.375
14141TIP3    H242301   5.185   7.920   0.241
14142TIP3   OH242302   1.769   4.857   7.779
14142TIP3    H142303   1.693   4.824   7.731
14142TIP3    H242304   1.757   4.952   7.783
14143TIP3   OH242305   3.033   4.228   6.545
14143TIP3    H142306   3.009   4.318   6.524
14143TIP3    H242307   2.961   4.175   6.512
14144TIP3   OH242308   3.041   4.226   6.924
14144TIP3    H142309   3.066   4.197   7.012
14144TIP3    H242310   2.995   4.151   6.887
14145TIP3   OH242311   2.338   4.123   7.293
14145TIP3    H142312   2.368   4.056   7.355
14145TIP3    H242313   2.412   4.182   7.283
14146TIP3   OH242314   3.290   4.521   6.609
14146TIP3    H142315   3.259   4.458   6.674
14146TIP3    H242316   3.302   4.602   6.658
14147TIP3   OH242317   2.307   4.529   7.018
14147TIP3    H142318   2.297   4.434   7.020
14147TIP3    H242319   2.402   4.542   7.011
14148TIP3   OH242320   2.011   3.735   6.803
14148TIP3    H142321   1.967   3.819   6.818
14148TIP3    H242322   1.944   3.680   6.763
14149TIP3   OH242323   2.075   4.022   6.973
14149TIP3    H142324   2.121   3.946   7.009
14149TIP3    H242325   2.131   4.054   6.903
14150TIP3   OH242326   2.930   4.992   6.626
14150TIP3    H142327   2.974   4.925   6.574
14150TIP3    H242328   2.920   4.953   6.713
14151TIP3   OH242329   2.837   4.452   6.975
14151TIP3    H142330   2.869   4.378   6.923
14151TIP3    H242331   2.917   4.498   7.002
14152TIP3   OH242332   3.843   3.775   6.972
14152TIP3    H142333   3.872   3.855   7.015
14152TIP3    H242334   3.871   3.784   6.881
14153TIP3   OH242335   3.247   3.952   7.007
14153TIP3    H142336   3.290   3.869   7.028
14153TIP3    H242337   3.217   3.941   6.917
14154TIP3   OH242338   2.583   3.613   6.971
14154TIP3    H142339   2.566   3.687   6.913
14154TIP3    H242340   2.538   3.539   6.930
14155TIP3   OH242341   3.281   3.705   6.597
14155TIP3    H142342   3.350   3.689   6.661
14155TIP3    H242343   3.327   3.740   6.520
14156TIP3   OH242344   2.220   3.814   7.079
14156TIP3    H142345   2.300   3.797   7.128
14156TIP3    H242346   2.229   3.761   7.000
14157TIP3   OH242347   2.660   4.011   6.873
14157TIP3    H142348   2.753   3.989   6.885
14157TIP3    H242349   2.620   3.931   6.840
14158TIP3   OH242350   3.916   3.981   7.146
14158TIP3    H142351   3.833   4.026   7.129
14158TIP3    H242352   3.943   4.012   7.232
14159TIP3   OH242353   2.579   3.598   7.408
14159TIP3    H142354   2.523   3.633   7.338
14159TIP3    H242355   2.530   3.616   7.489
14160TIP3   OH242356   2.927   4.447   6.416
14160TIP3    H142357   2.894   4.427   6.329
14160TIP3    H242358   2.885   4.530   6.440
14161TIP3   OH242359   2.687   4.374   7.204
14161TIP3    H142360   2.626   4.437   7.241
14161TIP3    H242361   2.730   4.422   7.132
14162TIP3   OH242362   3.491   3.707   6.768
14162TIP3    H142363   3.481   3.656   6.849
14162TIP3    H242364   3.545   3.782   6.793
14163TIP3   OH242365   2.455   3.713   7.191
14163TIP3    H142366   2.513   3.785   7.216
14163TIP3    H242367   2.499   3.671   7.117
14164TIP3   OH242368   2.513   4.567   7.300
14164TIP3    H142369   2.493   4.651   7.259
14164TIP3    H242370   2.438   4.549   7.357
14165TIP3   OH242371   1.910   4.257   6.535
14165TIP3    H142372   1.872   4.280   6.451
14165TIP3    H242373   1.941   4.340   6.572
14166TIP3   OH242374   3.353   4.773   6.776
14166TIP3    H142375   3.268   4.761   6.817
14166TIP3    H242376   3.345   4.855   6.728
14167TIP3   OH242377   3.641   3.670   7.140
14167TIP3    H142378   3.554   3.698   7.112
14167TIP3    H242379   3.700   3.700   7.071
14168TIP3   OH242380   2.940   3.316   7.125
14168TIP3    H142381   2.925   3.222   7.135
14168TIP3    H242382   2.864   3.356   7.167
14169TIP3   OH242383   3.059   4.819   6.458
14169TIP3    H142384   3.102   4.736   6.433
14169TIP3    H242385   3.110   4.886   6.413
14170TIP3   OH242386   3.192   4.602   6.360
14170TIP3    H142387   3.163   4.527   6.308
14170TIP3    H242388   3.230   4.563   6.439
14171TIP3   OH242389   3.577   4.685   7.118
14171TIP3    H142390   3.561   4.609   7.063
14171TIP3    H242391   3.556   4.760   7.062
14172TIP3   OH242392   2.867   4.080   6.375
14172TIP3    H142393   2.788   4.131   6.358
14172TIP3    H242394   2.913   4.078   6.291
14173TIP3   OH242395   2.831   3.861   6.099
14173TIP3    H142396   2.896   3.914   6.146
14173TIP3    H242397   2.884   3.800   6.048
14174TIP3   OH242398   3.764   4.323   6.975
14174TIP3    H142399   3.688   4.380   6.984
14174TIP3    H242400   3.765   4.297   6.883
14175TIP3   OH242401   3.216   4.160   6.353
14175TIP3    H142402   3.159   4.187   6.425
14175TIP3    H242403   3.298   4.135   6.395
14176TIP3   OH242404   3.448   4.203   7.260
14176TIP3    H142405   3.449   4.284   7.311
14176TIP3    H242406   3.364   4.204   7.215
14177TIP3   OH242407   2.446   4.157   6.766
14177TIP3    H142408   2.404   4.103   6.700
14177TIP3    H242409   2.523   4.107   6.793
14178TIP3   OH242410   2.576   4.567   6.914
14178TIP3    H142411   2.555   4.530   6.828
14178TIP3    H242412   2.665   4.536   6.932
14179TIP3   OH242413   2.587   4.130   7.119
14179TIP3    H142414   2.617   4.110   7.030
14179TIP3    H242415   2.626   4.215   7.139
14180TIP3   OH242416   3.116   4.766   6.899
14180TIP3    H142417   3.097   4.846   6.947
14180TIP3    H242418   3.096   4.696   6.961
14181TIP3   OH242419   2.719   4.684   7.445
14181TIP3    H142420   2.665   4.749   7.491
14181TIP3    H242421   2.657   4.632   7.394
14182TIP3   OH242422   3.060   4.018   6.175
14182TIP3    H142423   3.113   4.078   6.226
14182TIP3    H242424   3.083   4.037   6.084
14183TIP3   OH242425   2.474   4.244   7.547
14183TIP3    H142426   2.482   4.330   7.589
14183TIP3    H242427   2.381   4.224   7.552
14184TIP3   OH242428   2.799   4.703   6.456
14184TIP3    H142429   2.878   4.755   6.467
14184TIP3    H242430   2.739   4.760   6.408
14185TIP3   OH242431   2.515   4.852   7.529
14185TIP3    H142432   2.481   4.855   7.440
14185TIP3    H242433   2.439   4.832   7.584
14186TIP3   OH242434   3.571   3.263   6.222
14186TIP3    H142435   3.491   3.280   6.273
14186TIP3    H242436   3.585   3.343   6.172
14187TIP3   OH242437   2.310   4.001   6.572
14187TIP3    H142438   2.251   4.050   6.514
14187TIP3    H242439   2.270   3.914   6.580
14188TIP3   OH242440   3.376   4.629   5.768
14188TIP3    H142441   3.377   4.723   5.751
14188TIP3    H242442   3.468   4.604   5.764
14189TIP3   OH242443   2.094   4.384   7.478
14189TIP3    H142444   2.031   4.364   7.409
14189TIP3    H242445   2.132   4.299   7.501
14190TIP3   OH242446   1.951   4.578   7.114
14190TIP3    H142447   2.045   4.571   7.100
14190TIP3    H242448   1.940   4.658   7.166
14191TIP3   OH242449   3.811   5.028   7.166
14191TIP3    H142450   3.813   4.933   7.181
14191TIP3    H242451   3.731   5.057   7.209
14192TIP3   OH242452   2.920   4.816   7.303
14192TIP3    H142453   2.922   4.908   7.330
14192TIP3    H242454   2.850   4.777   7.355
14193TIP3   OH242455   2.665   4.942   6.253
14193TIP3    H142456   2.629   4.938   6.165
14193TIP3    H242457   2.653   5.034   6.280
14194TIP3   OH242458   2.116   4.794   6.638
14194TIP3    H142459   2.166   4.787   6.720
14194TIP3    H242460   2.061   4.716   6.638
14195TIP3   OH242461   2.934   4.923   6.195
14195TIP3    H142462   2.841   4.910   6.214
14195TIP3    H242463   2.974   4.838   6.215
14196TIP3   OH242464   3.703   4.159   7.440
14196TIP3    H142465   3.622   4.175   7.391
14196TIP3    H242466   3.719   4.065   7.431
14197TIP3   OH242467   2.300   4.566   7.467
14197TIP3    H142468   2.349   4.554   7.548
14197TIP3    H242469   2.226   4.506   7.475
14198TIP3   OH242470   2.697   3.392   7.250
14198TIP3    H142471   2.612   3.359   7.223
14198TIP3    H242472   2.678   3.476   7.294
14199TIP3   OH242473   3.232   3.507   7.445
14199TIP3    H142474   3.297   3.483   7.511
14199TIP3    H242475   3.148   3.489   7.488
14200TIP3   OH242476   3.471   3.938   7.363
14200TIP3    H142477   3.424   3.933   7.446
14200TIP3    H242478   3.447   4.023   7.327
14201TIP3   OH242479   3.133   4.057   5.917
14201TIP3    H142480   3.101   4.033   5.830
14201TIP3    H242481   3.186   4.135   5.902
14202TIP3   OH242482   2.844   3.438   6.222
14202TIP3    H142483   2.812   3.440   6.312
14202TIP3    H242484   2.807   3.358   6.185
14203TIP3   OH242485   2.629   3.909   7.269
14203TIP3    H142486   2.581   3.929   7.349
14203TIP3    H242487   2.617   3.987   7.214
14204TIP3   OH242488   2.514   3.791   6.781
14204TIP3    H142489   2.423   3.770   6.800
14204TIP3    H242490   2.530   3.755   6.694
14205TIP3   OH242491   3.005   3.881   6.508
14205TIP3    H142492   2.951   3.950   6.469
14205TIP3    H242493   3.059   3.850   6.435
14206TIP3   OH242494   3.181   4.156   7.597
14206TIP3    H142495   3.158   4.085   7.657
14206TIP3    H242496   3.273   4.176   7.617
14207TIP3   OH242497   3.162   3.908   6.746
14207TIP3    H142498   3.102   3.942   6.679
14207TIP3    H242499   3.197   3.827   6.708
14208TIP3   OH242500   2.451   3.937   7.479
14208TIP3    H142501   2.475   4.004   7.543
14208TIP3    H242502   2.440   3.857   7.530
14209TIP3   OH242503   2.498   3.414   6.189
14209TIP3    H142504   2.491   3.412   6.285
14209TIP3    H242505   2.424   3.467   6.160
14210TIP3   OH242506   2.043   3.458   7.061
14210TIP3    H142507   2.118   3.491   7.110
14210TIP3    H242508   2.080   3.429   6.977
14211TIP3   OH242509   2.018   3.444   6.577
14211TIP3    H142510   2.062   3.477   6.499
14211TIP3    H242511   1.955   3.512   6.601
14212TIP3   OH242512   3.176   4.152   7.174
14212TIP3    H142513   3.207   4.084   7.114
14212TIP3    H242514   3.144   4.104   7.250
14213TIP3   OH242515   2.841   3.614   6.846
14213TIP3    H142516   2.758   3.614   6.894
14213TIP3    H242517   2.908   3.619   6.915
14214TIP3   OH242518   2.274   3.670   6.853
14214TIP3    H142519   2.183   3.680   6.826
14214TIP3    H242520   2.298   3.581   6.827
14215TIP3   OH242521   2.548   3.670   6.538
14215TIP3    H142522   2.640   3.685   6.516
14215TIP3    H242523   2.500   3.691   6.458
14216TIP3   OH242524   3.333   3.689   7.047
14216TIP3    H142525   3.300   3.705   7.136
14216TIP3    H242526   3.269   3.630   7.007
14217TIP3   OH242527   2.387   3.698   6.317
14217TIP3    H142528   2.315   3.656   6.270
14217TIP3    H242529   2.440   3.738   6.249
14218TIP3   OH242530   3.509   5.381   7.262
14218TIP3    H142531   3.508   5.398   7.168
14218TIP3    H242532   3.588   5.425   7.293
14219TIP3   OH242533   2.462   4.489   7.690
14219TIP3    H142534   2.542   4.521   7.732
14219TIP3    H242535   2.395   4.492   7.759
14220TIP3   OH242536   2.926   3.941   6.941
14220TIP3    H142537   2.998   3.907   6.889
14220TIP3    H242538   2.938   3.902   7.028
14221TIP3   OH242539   2.451   3.431   6.819
14221TIP3    H142540   2.417   3.353   6.862
14221TIP3    H242541   2.496   3.398   6.741
14222TIP3   OH242542   2.902   3.838   7.237
14222TIP3    H142543   2.814   3.876   7.245
14222TIP3    H242544   2.958   3.900   7.282
14223TIP3   OH242545   2.635   4.228   6.328
14223TIP3    H142546   2.563   4.167   6.315
14223TIP3    H242547   2.621   4.264   6.416
14224TIP3   OH242548   3.535   4.467   6.953
14224TIP3    H142549   3.556   4.509   6.870
14224TIP3    H242550   3.451   4.423   6.938
14225TIP3   OH242551   3.097   3.544   6.190
14225TIP3    H142552   3.003   3.528   6.195
14225TIP3    H242553   3.106   3.637   6.210
14226TIP3   OH242554   3.040   4.552   7.324
14226TIP3    H142555   3.060   4.531   7.416
14226TIP3    H242556   2.999   4.638   7.328
14227TIP3   OH242557   3.168   3.792   6.292
14227TIP3    H142558   3.263   3.799   6.305
14227TIP3    H242559   3.146   3.869   6.239
14228TIP3   OH242560   2.331   4.251   7.002
14228TIP3    H142561   2.366   4.227   6.917
14228TIP3    H242562   2.372   4.189   7.064
14229TIP3   OH242563   2.805   4.391   6.173
14229TIP3    H142564   2.753   4.471   6.159
14229TIP3    H242565   2.742   4.329   6.210
14230TIP3   OH242566   2.211   4.172   7.616
14230TIP3    H142567   2.232   4.162   7.709
14230TIP3    H242568   2.141   4.108   7.600
14231TIP3   OH242569   2.938   4.285   7.635
14231TIP3    H142570   2.877   4.231   7.584
14231TIP3    H242571   3.025   4.256   7.607
14232TIP3   OH242572   3.198   4.808   7.220
14232TIP3    H142573   3.103   4.807   7.230
14232TIP3    H242574   3.230   4.858   7.296
14233TIP3   OH242575   3.607   3.882   6.124
14233TIP3    H142576   3.548   3.833   6.067
14233TIP3    H242577   3.607   3.971   6.089
14234TIP3   OH242578   3.826   4.736   7.207
14234TIP3    H142579   3.730   4.734   7.202
14234TIP3    H242580   3.856   4.710   7.120
14235TIP3   OH242581   3.321   4.696   6.035
14235TIP3    H142582   3.277   4.631   6.090
14235TIP3    H242583   3.319   4.658   5.947
14236TIP3   OH242584   3.304   4.326   6.878
14236TIP3    H142585   3.212   4.306   6.891
14236TIP3    H242586   3.338   4.250   6.829
14237TIP3   OH242587   2.432   4.558   6.629
14237TIP3    H142588   2.437   4.637   6.574
14237TIP3    H242589   2.338   4.539   6.633
14238TIP3   OH242590   1.996   3.863   6.331
14238TIP3    H142591   2.042   3.945   6.347
14238TIP3    H242592   1.919   3.867   6.388
14239TIP3   OH242593   2.570   4.324   6.575
14239TIP3    H142594   2.538   4.413   6.588
14239TIP3    H242595   2.532   4.274   6.648
14240TIP3   OH242596   2.702   4.901   7.096
14240TIP3    H142597   2.739   4.974   7.047
14240TIP3    H242598   2.775   4.867   7.147
14241TIP3   OH242599   2.351   4.798   6.481
14241TIP3    H142600   2.266   4.804   6.524
14241TIP3    H242601   2.384   4.888   6.481
14242TIP3   OH242602   3.090   4.532   7.057
14242TIP3    H142603   3.078   4.534   7.152
14242TIP3    H242604   3.170   4.481   7.043
14243TIP3   OH242605   3.058   4.382   5.942
14243TIP3    H142606   3.109   4.386   6.023
14243TIP3    H242607   2.970   4.410   5.968
14244TIP3   OH242608   3.338   5.068   7.101
14244TIP3    H142609   3.261   5.013   7.098
14244TIP3    H242610   3.323   5.134   7.033
14245TIP3   OH242611   3.400   4.910   5.750
14245TIP3    H142612   3.438   4.984   5.704
14245TIP3    H242613   3.321   4.945   5.792
14246TIP3   OH242614   2.422   3.678   7.626
14246TIP3    H142615   2.327   3.685   7.637
14246TIP3    H242616   2.451   3.619   7.696
14247TIP3   OH242617   3.226   4.369   6.166
14247TIP3    H142618   3.214   4.299   6.230
14247TIP3    H242619   3.319   4.366   6.144
14248TIP3   OH242620   2.139   4.764   7.257
14248TIP3    H142621   2.193   4.690   7.286
14248TIP3    H242622   2.165   4.837   7.314
14249TIP3   OH242623   2.379   4.421   5.959
14249TIP3    H142624   2.438   4.378   5.897
14249TIP3    H242625   2.407   4.391   6.045
14250TIP3   OH242626   2.379   4.411   6.237
14250TIP3    H142627   2.461   4.393   6.284
14250TIP3    H242628   2.379   4.506   6.225
14251TIP3   OH242629   2.111   4.110   6.413
14251TIP3    H142630   2.046   4.153   6.469
14251TIP3    H242631   2.129   4.174   6.344
14252TIP3   OH242632   3.260   3.743   7.305
14252TIP3    H142633   3.337   3.784   7.344
14252TIP3    H242634   3.245   3.665   7.358
14253TIP3   OH242635   3.139   3.497   6.468
14253TIP3    H142636   3.124   3.516   6.376
14253TIP3    H242637   3.177   3.578   6.503
14254TIP3   OH242638   2.641   4.607   6.148
14254TIP3    H142639   2.557   4.641   6.177
14254TIP3    H242640   2.665   4.664   6.074
14255TIP3   OH242641   2.833   3.674   6.572
14255TIP3    H142642   2.894   3.745   6.552
14255TIP3    H242643   2.835   3.669   6.668
14256TIP3   OH242644   3.099   3.993   7.381
14256TIP3    H142645   3.117   4.049   7.457
14256TIP3    H242646   3.154   3.916   7.395
14257TIP3   OH242647   2.976   3.405   6.675
14257TIP3    H142648   2.962   3.481   6.732
14257TIP3    H242649   3.035   3.438   6.606
14258TIP3   OH242650   2.384   4.687   6.223
14258TIP3    H142651   2.361   4.753   6.158
14258TIP3    H242652   2.370   4.729   6.308
14259TIP3   OH242653   2.486   3.401   6.467
14259TIP3    H142654   2.480   3.492   6.498
14259TIP3    H242655   2.580   3.380   6.471
14260TIP3   OH242656   3.737   3.892   7.360
14260TIP3    H142657   3.641   3.892   7.368
14260TIP3    H242658   3.754   3.858   7.273
14261TIP3   OH242659   3.390   4.086   6.748
14261TIP3    H142660   3.312   4.031   6.758
14261TIP3    H242661   3.459   4.040   6.795
14262TIP3   OH242662   2.105   4.318   6.219
14262TIP3    H142663   2.169   4.387   6.232
14262TIP3    H242664   2.140   4.265   6.148
14263TIP3   OH242665   2.044   3.593   6.353
14263TIP3    H142666   2.048   3.688   6.349
14263TIP3    H242667   1.966   3.570   6.304
14264TIP3   OH242668   3.358   5.046   6.697
14264TIP3    H142669   3.311   5.089   6.626
14264TIP3    H242670   3.450   5.063   6.678
14265TIP3   OH242671   2.434   3.311   7.225
14265TIP3    H142672   2.403   3.282   7.139
14265TIP3    H242673   2.423   3.234   7.281
14266TIP3   OH242674   1.975   4.533   6.607
14266TIP3    H142675   1.900   4.562   6.660
14266TIP3    H242676   1.957   4.568   6.520
14267TIP3   OH242677   2.134   5.071   7.675
14267TIP3    H142678   2.217   5.076   7.723
14267TIP3    H242679   2.111   4.978   7.676
14268TIP3   OH242680   2.610   5.033   7.728
14268TIP3    H142681   2.706   5.029   7.732
14268TIP3    H242682   2.587   4.982   7.650
14269TIP3   OH242683   3.257   4.939   7.453
14269TIP3    H142684   3.245   4.873   7.521
14269TIP3    H242685   3.329   4.993   7.484
14270TIP3   OH242686   2.258   4.476   7.877
14270TIP3    H142687   2.277   4.382   7.880
14270TIP3    H242688   2.173   4.482   7.835
14271TIP3   OH242689   2.237   4.125   6.069
14271TIP3    H142690   2.295   4.095   6.139
14271TIP3    H242691   2.296   4.144   5.996
14272TIP3   OH242692   2.869   4.562   7.650
14272TIP3    H142693   2.826   4.581   7.566
14272TIP3    H242694   2.899   4.471   7.641
14273TIP3   OH242695   3.361   4.571   7.255
14273TIP3    H142696   3.435   4.618   7.215
14273TIP3    H242697   3.287   4.632   7.246
14274TIP3   OH242698   2.380   4.208   7.862
14274TIP3    H142699   2.458   4.159   7.837
14274TIP3    H242700   2.402   4.245   7.948
14275TIP3   OH242701   2.443   4.029   6.291
14275TIP3    H142702   2.418   3.989   6.374
14275TIP3    H242703   2.482   3.958   6.240
14276TIP3   OH242704   2.714   4.098   7.519
14276TIP3    H142705   2.638   4.155   7.524
14276TIP3    H242706   2.763   4.129   7.443
14277TIP3   OH242707   2.548   3.825   6.137
14277TIP3    H142708   2.517   3.824   6.047
14277TIP3    H242709   2.644   3.832   6.129
14278TIP3   OH242710   3.230   4.497   7.656
14278TIP3    H142711   3.312   4.481   7.609
14278TIP3    H242712   3.229   4.433   7.727
14279TIP3   OH242713   3.384   4.165   5.784
14279TIP3    H142714   3.348   4.116   5.710
14279TIP3    H242715   3.342   4.251   5.778
14280TIP3   OH242716   2.837   3.885   7.645
14280TIP3    H142717   2.838   3.807   7.590
14280TIP3    H242718   2.795   3.952   7.591
14281TIP3   OH242719   2.839   3.669   7.452
14281TIP3    H142720   2.868   3.714   7.372
14281TIP3    H242721   2.747   3.648   7.436
14282TIP3   OH242722   2.869   4.209   7.326
14282TIP3    H142723   2.951   4.218   7.278
14282TIP3    H242724   2.811   4.274   7.286
14283TIP3   OH242725   3.452   4.175   7.709
14283TIP3    H142726   3.502   4.094   7.718
14283TIP3    H242727   3.516   4.238   7.676
14284TIP3   OH242728   3.493   4.427   7.440
14284TIP3    H142729   3.432   4.478   7.386
14284TIP3    H242730   3.579   4.446   7.404
14285TIP3   OH242731   2.716   3.995   7.877
14285TIP3    H142732   2.646   3.932   7.891
14285TIP3    H242733   2.750   3.975   7.790
14286TIP3   OH242734   2.970   3.435   7.520
14286TIP3    H142735   2.926   3.517   7.498
14286TIP3    H242736   2.903   3.368   7.508
14287TIP3   OH242737   3.097   3.938   7.738
14287TIP3    H142738   3.089   3.932   7.834
14287TIP3    H242739   3.011   3.916   7.705
14288TIP3   OH242740   3.337   3.885   7.593
14288TIP3    H142741   3.263   3.892   7.652
14288TIP3    H242742   3.410   3.859   7.649
14289TIP3   OH242743   3.565   3.827   7.746
14289TIP3    H142744   3.577   3.734   7.766
14289TIP3    H242745   3.562   3.869   7.831
14290TIP3   OH242746   2.554   3.777   7.930
14290TIP3    H142747   2.562   3.689   7.893
14290TIP3    H242748   2.588   3.768   8.019
14291TIP3   OH242749   3.067   3.442   7.777
14291TIP3    H142750   3.133   3.372   7.772
14291TIP3    H242751   3.025   3.441   7.691
14292TIP3   OH242752   3.129   3.658   7.939
14292TIP3    H142753   3.110   3.591   7.874
14292TIP3    H242754   3.056   3.719   7.932
14293TIP3   OH242755   2.375   4.892   6.033
14293TIP3    H142756   2.460   4.895   5.990
14293TIP3    H242757   2.314   4.923   5.966
14294TIP3   OH242758   1.836   4.269   6.255
14294TIP3    H142759   1.927   4.294   6.241
14294TIP3    H242760   1.828   4.182   6.215
14295TIP3   OH242761   1.745   4.881   6.669
14295TIP3    H142762   1.680   4.821   6.631
14295TIP3    H242763   1.791   4.829   6.734
14296TIP3   OH242764   1.883   4.738   6.857
14296TIP3    H142765   1.872   4.661   6.913
14296TIP3    H242766   1.935   4.799   6.909
14297TIP3   OH242767   3.611   5.132   6.656
14297TIP3    H142768   3.641   5.170   6.739
14297TIP3    H242769   3.671   5.167   6.590
14298TIP3   OH242770   3.642   5.156   6.941
14298TIP3    H142771   3.596   5.073   6.930
14298TIP3    H242772   3.718   5.135   6.995
14299TIP3   OH242773   3.687   4.832   7.509
14299TIP3    H142774   3.614   4.838   7.571
14299TIP3    H242775   3.728   4.918   7.512
14300TIP3   OH242776   3.504   4.344   6.128
14300TIP3    H142777   3.564   4.412   6.097
14300TIP3    H242778   3.548   4.306   6.204
14301TIP3   OH242779   3.629   4.207   6.336
14301TIP3    H142780   3.556   4.160   6.377
14301TIP3    H242781   3.668   4.258   6.407
14302TIP3   OH242782   3.686   4.595   6.753
14302TIP3    H142783   3.710   4.587   6.661
14302TIP3    H242784   3.647   4.682   6.760
14303TIP3   OH242785   3.514   4.903   6.961
14303TIP3    H142786   3.450   4.951   7.014
14303TIP3    H242787   3.462   4.861   6.892
14304TIP3   OH242788   3.566   4.120   5.981
14304TIP3    H142789   3.503   4.120   5.909
14304TIP3    H242790   3.543   4.196   6.034
14305TIP3   OH242791   3.443   3.790   5.933
14305TIP3    H142792   3.395   3.836   5.863
14305TIP3    H242793   3.417   3.698   5.923
14306TIP3   OH242794   3.447   4.066   6.481
14306TIP3    H142795   3.452   3.971   6.471
14306TIP3    H242796   3.431   4.079   6.574
14307TIP3   OH242797   2.074   4.139   7.226
14307TIP3    H142798   2.068   4.112   7.134
14307TIP3    H242799   2.167   4.143   7.244
14308TIP3   OH242800   3.736   4.493   7.334
14308TIP3    H142801   3.806   4.428   7.327
14308TIP3    H242802   3.763   4.565   7.277
14309TIP3   OH242803   3.918   4.296   7.353
14309TIP3    H142804   3.844   4.250   7.393
14309TIP3    H242805   3.993   4.238   7.366
14310TIP3   OH242806   3.384   3.525   5.920
14310TIP3    H142807   3.457   3.496   5.974
14310TIP3    H242808   3.311   3.468   5.944
14311TIP3   OH242809   3.445   3.785   6.375
14311TIP3    H142810   3.481   3.698   6.393
14311TIP3    H242811   3.499   3.819   6.304
14312TIP3   OH242812   3.604   3.962   6.871
14312TIP3    H142813   3.685   3.989   6.827
14312TIP3    H242814   3.613   3.993   6.961
14313TIP3   OH242815   3.667   4.103   7.106
14313TIP3    H142816   3.589   4.132   7.153
14313TIP3    H242817   3.703   4.182   7.067
14314TIP3   OH242818   2.287   3.824   7.897
14314TIP3    H142819   2.383   3.824   7.899
14314TIP3    H242820   2.262   3.743   7.942
14315TIP3   OH242821   4.118   3.689   7.657
14315TIP3    H142822   4.181   3.628   7.617
14315TIP3    H242823   4.094   3.748   7.586
14316TIP3   OH242824   3.549   3.533   6.415
14316TIP3    H142825   3.598   3.519   6.495
14316TIP3    H242826   3.489   3.459   6.410
14317TIP3   OH242827   2.253   3.521   7.234
14317TIP3    H142828   2.313   3.446   7.242
14317TIP3    H242829   2.310   3.597   7.226
14318TIP3   OH242830   2.055   3.795   7.306
14318TIP3    H142831   2.101   3.787   7.222
14318TIP3    H242832   2.078   3.883   7.336
14319TIP3   OH242833   3.992   3.835   7.465
14319TIP3    H142834   3.908   3.877   7.485
14319TIP3    H242835   3.969   3.763   7.407
14320TIP3   OH242836   3.633   3.470   6.044
14320TIP3    H142837   3.671   3.398   5.994
14320TIP3    H242838   3.697   3.541   6.038
14321TIP3   OH242839   2.034   3.301   6.807
14321TIP3    H142840   1.942   3.296   6.831
14321TIP3    H242841   2.036   3.356   6.729
14322TIP3   OH242842   3.211   5.000   6.321
14322TIP3    H142843   3.241   4.977   6.233
14322TIP3    H242844   3.266   5.073   6.347
14323TIP3   OH242845   2.253   3.375   7.620
14323TIP3    H142846   2.206   3.374   7.703
14323TIP3    H242847   2.192   3.416   7.558
14324TIP3   OH242848   2.296   4.798   7.697
14324TIP3    H142849   2.204   4.776   7.680
14324TIP3    H242850   2.305   4.793   7.792
14325TIP3   OH242851   2.474   4.838   7.240
14325TIP3    H142852   2.424   4.912   7.206
14325TIP3    H242853   2.560   4.848   7.200
14326TIP3   OH242854   2.925   5.084   7.379
14326TIP3    H142855   2.959   5.086   7.468
14326TIP3    H242856   2.985   5.139   7.328
14327TIP3   OH242857   3.101   5.239   7.236
14327TIP3    H142858   3.172   5.182   7.205
14327TIP3    H242859   3.142   5.295   7.302
14328TIP3   OH242860   3.885   3.597   7.349
14328TIP3    H142861   3.800   3.599   7.306
14328TIP3    H242862   3.917   3.508   7.336
14329TIP3   OH242863   2.148   5.095   7.269
14329TIP3    H142864   2.061   5.126   7.245
14329TIP3    H242865   2.166   5.135   7.354
14330TIP3   OH242866   2.385   5.074   7.125
14330TIP3    H142867   2.302   5.086   7.171
14330TIP3    H242868   2.369   5.106   7.037
14331TIP3   OH242869   2.812   5.104   6.924
14331TIP3    H142870   2.745   5.121   6.858
14331TIP3    H242871   2.825   5.188   6.968
14332TIP3   OH242872   3.080   5.042   6.971
14332TIP3    H142873   2.986   5.055   6.956
14332TIP3    H242874   3.121   5.119   6.932
14333TIP3   OH242875   3.296   5.241   6.887
14333TIP3    H142876   3.273   5.320   6.839
14333TIP3    H242877   3.316   5.177   6.819
14334TIP3   OH242878   2.064   4.887   7.014
14334TIP3    H142879   2.086   4.865   7.104
14334TIP3    H242880   2.133   4.846   6.962
14335TIP3   OH242881   2.257   4.759   6.870
14335TIP3    H142882   2.271   4.676   6.917
14335TIP3    H242883   2.344   4.798   6.863
14336TIP3   OH242884   2.523   4.855   6.873
14336TIP3    H142885   2.552   4.766   6.855
14336TIP3    H242886   2.563   4.878   6.957
14337TIP3   OH242887   3.101   3.512   6.964
14337TIP3    H142888   3.055   3.444   7.013
14337TIP3    H242889   3.168   3.465   6.914
14338TIP3   OH242890   3.622   3.392   6.867
14338TIP3    H142891   3.660   3.441   6.794
14338TIP3    H242892   3.527   3.408   6.859
14339TIP3   OH242893   3.719   3.493   6.630
14339TIP3    H142894   3.787   3.439   6.590
14339TIP3    H242895   3.748   3.583   6.616
14340TIP3   OH242896   2.345   3.218   6.978
14340TIP3    H142897   2.254   3.190   6.977
14340TIP3    H242898   2.395   3.136   6.973
14341TIP3   OH242899   2.137   3.091   6.625
14341TIP3    H142900   2.164   3.145   6.551
14341TIP3    H242901   2.104   3.153   6.690
14342TIP3   OH242902   2.793   3.251   6.857
14342TIP3    H142903   2.847   3.300   6.795
14342TIP3    H242904   2.808   3.294   6.942
14343TIP3   OH242905   3.339   3.397   6.840
14343TIP3    H142906   3.334   3.367   6.750
14343TIP3    H242907   3.323   3.318   6.893
14344TIP3   OH242908   3.365   3.320   6.404
14344TIP3    H142909   3.281   3.365   6.411
14344TIP3    H242910   3.352   3.236   6.448
14345TIP3   OH242911   1.847   4.661   6.406
14345TIP3    H142912   1.765   4.624   6.372
14345TIP3    H242913   1.840   4.755   6.387
14346TIP3   OH242914   2.251   3.246   6.390
14346TIP3    H142915   2.297   3.186   6.331
14346TIP3    H242916   2.320   3.302   6.425
14347TIP3   OH242917   2.763   3.425   6.489
14347TIP3    H142918   2.822   3.375   6.545
14347TIP3    H242919   2.781   3.516   6.510
14348TIP3   OH242920   3.338   4.964   6.079
14348TIP3    H142921   3.337   4.869   6.068
14348TIP3    H242922   3.293   4.997   6.001
14349TIP3   OH242923   2.556   3.497   7.867
14349TIP3    H142924   2.519   3.430   7.924
14349TIP3    H242925   2.648   3.502   7.892
14350TIP3   OH242926   2.803   3.496   7.986
14350TIP3    H142927   2.887   3.477   7.945
14350TIP3    H242928   2.792   3.426   8.051
14351TIP3   OH242929   1.932   4.686   6.043
14351TIP3    H142930   1.938   4.704   6.136
14351TIP3    H242931   2.012   4.639   6.022
14352TIP3   OH242932   3.632   3.554   7.775
14352TIP3    H142933   3.649   3.530   7.866
14352TIP3    H242934   3.719   3.558   7.734
14353TIP3   OH242935   3.566   5.113   7.265
14353TIP3    H142936   3.490   5.078   7.219
14353TIP3    H242937   3.550   5.207   7.272
14354TIP3   OH242938   4.833   4.478   6.035
14354TIP3    H142939   4.808   4.568   6.016
14354TIP3    H242940   4.758   4.426   6.003
14355TIP3   OH242941   4.828   4.482   6.416
14355TIP3    H142942   4.863   4.458   6.502
14355TIP3    H242943   4.790   4.402   6.381
14356TIP3   OH242944   4.134   4.390   6.775
14356TIP3    H142945   4.137   4.324   6.844
14356TIP3    H242946   4.219   4.433   6.779
14357TIP3   OH242947   5.070   4.791   6.096
14357TIP3    H142948   5.062   4.717   6.156
14357TIP3    H242949   5.107   4.861   6.149
14358TIP3   OH242950   4.115   4.741   6.522
14358TIP3    H142951   4.131   4.698   6.437
14358TIP3    H242952   4.187   4.803   6.532
14359TIP3   OH242953   3.805   3.992   6.292
14359TIP3    H142954   3.758   4.076   6.299
14359TIP3    H242955   3.742   3.932   6.253
14360TIP3   OH242956   4.635   4.708   6.461
14360TIP3    H142957   4.669   4.630   6.417
14360TIP3    H242958   4.714   4.757   6.487
14361TIP3   OH242959   5.646   4.032   6.460
14361TIP3    H142960   5.671   4.112   6.507
14361TIP3    H242961   5.663   4.052   6.368
14362TIP3   OH242962   5.044   4.211   6.493
14362TIP3    H142963   5.086   4.128   6.517
14362TIP3    H242964   5.012   4.196   6.404
14363TIP3   OH242965   4.381   3.869   6.454
14363TIP3    H142966   4.363   3.943   6.396
14363TIP3    H242967   4.336   3.795   6.414
14364TIP3   OH242968   5.078   3.960   6.083
14364TIP3    H142969   5.146   3.944   6.149
14364TIP3    H242970   5.126   3.997   6.008
14365TIP3   OH242971   4.023   4.091   6.571
14365TIP3    H142972   4.101   4.053   6.612
14365TIP3    H242973   4.013   4.043   6.488
14366TIP3   OH242974   4.452   4.268   6.368
14366TIP3    H142975   4.546   4.248   6.376
14366TIP3    H242976   4.414   4.189   6.330
14367TIP3   OH242977   5.714   4.239   6.632
14367TIP3    H142978   5.633   4.285   6.611
14367TIP3    H242979   5.733   4.265   6.722
14368TIP3   OH242980   4.384   3.892   6.910
14368TIP3    H142981   4.329   3.867   6.835
14368TIP3    H242982   4.324   3.892   6.985
14369TIP3   OH242983   4.720   4.684   5.899
14369TIP3    H142984   4.691   4.660   5.812
14369TIP3    H242985   4.693   4.776   5.909
14370TIP3   OH242986   4.484   4.631   6.689
14370TIP3    H142987   4.425   4.696   6.728
14370TIP3    H242988   4.530   4.680   6.620
14371TIP3   OH242989   5.288   3.963   6.255
14371TIP3    H142990   5.272   3.917   6.338
14371TIP3    H242991   5.339   4.040   6.280
14372TIP3   OH242992   4.248   3.966   6.671
14372TIP3    H142993   4.309   4.029   6.708
14372TIP3    H242994   4.297   3.925   6.599
14373TIP3   OH242995   4.307   4.824   6.787
14373TIP3    H142996   4.290   4.911   6.749
14373TIP3    H242997   4.233   4.807   6.844
14374TIP3   OH242998   3.707   4.514   6.025
14374TIP3    H142999   3.666   4.535   5.941
14374TIP3    H243000   3.732   4.599   6.061
14375TIP3   OH243001   5.145   5.029   6.262
14375TIP3    H143002   5.059   5.017   6.303
14375TIP3    H243003   5.140   5.114   6.219
14376TIP3   OH243004   5.437   3.927   6.623
14376TIP3    H143005   5.350   3.960   6.598
14376TIP3    H243006   5.496   3.960   6.555
14377TIP3   OH243007   4.730   3.567   6.613
14377TIP3    H143008   4.726   3.472   6.622
14377TIP3    H243009   4.664   3.600   6.673
14378TIP3   OH243010   4.965   4.864   5.842
14378TIP3    H143011   4.962   4.783   5.792
14378TIP3    H243012   5.006   4.839   5.926
14379TIP3   OH243013   5.372   4.943   6.604
14379TIP3    H143014   5.362   4.864   6.550
14379TIP3    H243015   5.358   5.016   6.543
14380TIP3   OH243016   4.663   4.336   5.861
14380TIP3    H143017   4.583   4.387   5.844
14380TIP3    H243018   4.709   4.334   5.778
14381TIP3   OH243019   4.626   4.120   5.582
14381TIP3    H143020   4.690   4.171   5.632
14381TIP3    H243021   4.679   4.058   5.532
14382TIP3   OH243022   5.567   4.579   6.448
14382TIP3    H143023   5.486   4.628   6.459
14382TIP3    H243024   5.598   4.602   6.361
14383TIP3   OH243025   5.012   4.418   5.838
14383TIP3    H143026   4.956   4.441   5.912
14383TIP3    H243027   5.095   4.392   5.878
14384TIP3   OH243028   5.243   4.452   6.743
14384TIP3    H143029   5.252   4.529   6.800
14384TIP3    H243030   5.159   4.465   6.700
14385TIP3   OH243031   4.242   4.417   6.249
14385TIP3    H143032   4.201   4.361   6.184
14385TIP3    H243033   4.316   4.366   6.282
14386TIP3   OH243034   4.366   4.818   6.401
14386TIP3    H143035   4.352   4.788   6.312
14386TIP3    H243036   4.455   4.790   6.422
14387TIP3   OH243037   4.362   4.398   6.602
14387TIP3    H143038   4.401   4.365   6.521
14387TIP3    H243039   4.416   4.472   6.626
14388TIP3   OH243040   4.906   5.023   6.382
14388TIP3    H143041   4.890   5.103   6.433
14388TIP3    H243042   4.891   4.952   6.445
14389TIP3   OH243043   4.515   4.945   6.929
14389TIP3    H143044   4.461   5.007   6.977
14389TIP3    H243045   4.452   4.891   6.881
14390TIP3   OH243046   4.856   4.277   5.660
14390TIP3    H143047   4.910   4.334   5.714
14390TIP3    H243048   4.879   4.298   5.570
14391TIP3   OH243049   4.266   4.507   7.026
14391TIP3    H143050   4.278   4.591   7.071
14391TIP3    H243051   4.175   4.483   7.044
14392TIP3   OH243052   4.310   5.112   7.017
14392TIP3    H143053   4.278   5.111   6.927
14392TIP3    H243054   4.233   5.091   7.070
14393TIP3   OH243055   5.366   3.519   5.709
14393TIP3    H143056   5.287   3.536   5.761
14393TIP3    H243057   5.381   3.600   5.661
14394TIP3   OH243058   4.108   4.258   6.054
14394TIP3    H143059   4.045   4.304   5.999
14394TIP3    H243060   4.068   4.173   6.070
14395TIP3   OH243061   5.178   4.883   5.251
14395TIP3    H143062   5.173   4.977   5.237
14395TIP3    H243063   5.272   4.863   5.251
14396TIP3   OH243064   3.889   4.639   6.964
14396TIP3    H143065   3.821   4.613   6.902
14396TIP3    H243066   3.926   4.556   6.995
14397TIP3   OH243067   3.759   4.831   6.601
14397TIP3    H143068   3.852   4.851   6.589
14397TIP3    H243069   3.724   4.907   6.647
14398TIP3   OH243070   5.608   5.283   6.652
14398TIP3    H143071   5.611   5.189   6.667
14398TIP3    H243072   5.529   5.312   6.696
14399TIP3   OH243073   4.714   5.076   6.788
14399TIP3    H143074   4.716   5.166   6.819
14399TIP3    H243075   4.646   5.034   6.840
14400TIP3   OH243076   4.480   5.215   5.733
14400TIP3    H143077   4.411   5.181   5.676
14400TIP3    H243078   4.448   5.300   5.761
14401TIP3   OH243079   4.732   5.118   5.704
14401TIP3    H143080   4.642   5.136   5.679
14401TIP3    H243081   4.769   5.072   5.628
14402TIP3   OH243082   5.507   4.417   6.918
14402TIP3    H143083   5.418   4.435   6.888
14402TIP3    H243084   5.514   4.321   6.918
14403TIP3   OH243085   4.097   4.824   6.955
14403TIP3    H143086   4.147   4.810   7.036
14403TIP3    H243087   4.024   4.762   6.962
14404TIP3   OH243088   5.024   3.762   6.932
14404TIP3    H143089   5.092   3.738   6.995
14404TIP3    H243090   4.942   3.743   6.977
14405TIP3   OH243091   5.269   4.193   6.849
14405TIP3    H143092   5.223   4.189   6.933
14405TIP3    H243093   5.247   4.279   6.814
14406TIP3   OH243094   4.926   4.323   5.401
14406TIP3    H143095   4.896   4.292   5.316
14406TIP3    H243096   5.004   4.375   5.382
14407TIP3   OH243097   4.640   3.696   5.709
14407TIP3    H143098   4.610   3.697   5.800
14407TIP3    H243099   4.603   3.616   5.673
14408TIP3   OH243100   4.425   4.168   6.750
14408TIP3    H143101   4.383   4.183   6.834
14408TIP3    H243102   4.408   4.248   6.700
14409TIP3   OH243103   4.309   4.050   6.267
14409TIP3    H143104   4.218   4.026   6.287
14409TIP3    H243105   4.325   4.011   6.181
14410TIP3   OH243106   4.801   4.137   5.994
14410TIP3    H143107   4.748   4.207   5.956
14410TIP3    H243108   4.856   4.106   5.922
14411TIP3   OH243109   4.971   4.415   7.086
14411TIP3    H143110   4.955   4.342   7.146
14411TIP3    H243111   5.060   4.445   7.107
14412TIP3   OH243112   4.958   4.164   6.233
14412TIP3    H143113   4.899   4.198   6.166
14412TIP3    H243114   4.993   4.083   6.195
14413TIP3   OH243115   4.231   4.198   6.962
14413TIP3    H143116   4.278   4.256   7.021
14413TIP3    H243117   4.232   4.113   7.005
14414TIP3   OH243118   4.293   3.671   5.675
14414TIP3    H143119   4.290   3.667   5.770
14414TIP3    H243120   4.218   3.724   5.650
14415TIP3   OH243121   3.843   3.716   6.546
14415TIP3    H143122   3.920   3.744   6.596
14415TIP3    H243123   3.879   3.680   6.465
14416TIP3   OH243124   3.812   3.699   6.062
14416TIP3    H143125   3.860   3.732   5.986
14416TIP3    H243126   3.751   3.769   6.085
14417TIP3   OH243127   4.962   4.409   6.657
14417TIP3    H143128   5.000   4.342   6.599
14417TIP3    H243129   4.940   4.362   6.737
14418TIP3   OH243130   4.637   3.874   6.332
14418TIP3    H143131   4.555   3.871   6.381
14418TIP3    H243132   4.705   3.873   6.399
14419TIP3   OH243133   4.071   3.929   6.342
14419TIP3    H143134   3.979   3.934   6.315
14419TIP3    H243135   4.099   3.841   6.319
14420TIP3   OH243136   4.343   3.925   6.026
14420TIP3    H143137   4.436   3.940   6.006
14420TIP3    H243138   4.297   3.948   5.945
14421TIP3   OH243139   5.127   3.947   6.531
14421TIP3    H143140   5.099   3.962   6.621
14421TIP3    H243141   5.062   3.887   6.495
14422TIP3   OH243142   4.182   3.957   5.803
14422TIP3    H143143   4.109   3.915   5.759
14422TIP3    H243144   4.235   3.995   5.733
14423TIP3   OH243145   5.300   5.639   6.751
14423TIP3    H143146   5.299   5.660   6.657
14423TIP3    H243147   5.378   5.682   6.784
14424TIP3   OH243148   4.259   4.748   7.177
14424TIP3    H143149   4.339   4.777   7.219
14424TIP3    H243150   4.193   4.748   7.247
14425TIP3   OH243151   4.721   4.200   6.429
14425TIP3    H143152   4.794   4.161   6.380
14425TIP3    H243153   4.727   4.161   6.516
14426TIP3   OH243154   4.243   3.690   6.304
14426TIP3    H143155   4.204   3.616   6.352
14426TIP3    H243156   4.297   3.648   6.238
14427TIP3   OH243157   4.700   4.102   6.710
14427TIP3    H143158   4.611   4.132   6.729
14427TIP3    H243159   4.756   4.156   6.765
14428TIP3   OH243160   4.433   4.487   5.814
14428TIP3    H143161   4.362   4.424   5.800
14428TIP3    H243162   4.417   4.522   5.902
14429TIP3   OH243163   5.336   4.725   6.441
14429TIP3    H143164   5.360   4.773   6.362
14429TIP3    H243165   5.252   4.684   6.419
14430TIP3   OH243166   4.892   3.803   5.670
14430TIP3    H143167   4.798   3.786   5.681
14430TIP3    H243168   4.902   3.894   5.697
14431TIP3   OH243169   4.829   4.805   6.811
14431TIP3    H143170   4.866   4.784   6.897
14431TIP3    H243171   4.797   4.895   6.820
14432TIP3   OH243172   4.964   4.048   5.777
14432TIP3    H143173   5.058   4.053   5.794
14432TIP3    H243174   4.945   4.126   5.725
14433TIP3   OH243175   4.598   4.649   5.656
14433TIP3    H143176   4.546   4.729   5.649
14433TIP3    H243177   4.538   4.584   5.692
14434TIP3   OH243178   4.007   4.433   7.105
14434TIP3    H143179   4.036   4.424   7.197
14434TIP3    H243180   3.939   4.366   7.095
14435TIP3   OH243181   4.731   4.541   7.120
14435TIP3    H143182   4.675   4.484   7.067
14435TIP3    H243183   4.820   4.514   7.097
14436TIP3   OH243184   4.993   5.070   6.706
14436TIP3    H143185   4.898   5.066   6.717
14436TIP3    H243186   5.024   5.118   6.783
14437TIP3   OH243187   5.403   4.138   5.612
14437TIP3    H143188   5.343   4.090   5.554
14437TIP3    H243189   5.404   4.227   5.576
14438TIP3   OH243190   5.621   4.994   6.693
14438TIP3    H143191   5.526   4.990   6.691
14438TIP3    H243192   5.648   4.965   6.606
14439TIP3   OH243193   5.119   4.954   5.524
14439TIP3    H143194   5.080   4.885   5.578
14439TIP3    H243195   5.104   4.925   5.434
14440TIP3   OH243196   5.100   4.586   6.358
14440TIP3    H143197   5.008   4.563   6.375
14440TIP3    H243198   5.136   4.508   6.316
14441TIP3   OH243199   4.221   4.813   6.126
14441TIP3    H143200   4.229   4.896   6.079
14441TIP3    H243201   4.129   4.788   6.117
14442TIP3   OH243202   3.789   4.122   5.818
14442TIP3    H143203   3.836   4.203   5.835
14442TIP3    H243204   3.714   4.124   5.877
14443TIP3   OH243205   4.367   4.585   6.061
14443TIP3    H143206   4.328   4.670   6.078
14443TIP3    H243207   4.334   4.528   6.130
14444TIP3   OH243208   4.500   5.158   6.587
14444TIP3    H143209   4.537   5.228   6.534
14444TIP3    H243210   4.574   5.122   6.635
14445TIP3   OH243211   4.887   4.791   6.544
14445TIP3    H143212   4.874   4.791   6.638
14445TIP3    H243213   4.968   4.742   6.530
14446TIP3   OH243214   4.853   4.666   5.428
14446TIP3    H143215   4.912   4.653   5.502
14446TIP3    H243216   4.765   4.657   5.466
14447TIP3   OH243217   5.131   5.326   6.592
14447TIP3    H143218   5.056   5.267   6.588
14447TIP3    H243219   5.117   5.389   6.522
14448TIP3   OH243220   5.195   5.164   5.242
14448TIP3    H143221   5.225   5.232   5.181
14448TIP3    H243222   5.115   5.198   5.280
14449TIP3   OH243223   4.211   3.936   7.119
14449TIP3    H143224   4.117   3.938   7.136
14449TIP3    H243225   4.246   3.876   7.184
14450TIP3   OH243226   5.022   4.623   5.648
14450TIP3    H143227   5.009   4.555   5.714
14450TIP3    H243228   5.116   4.620   5.629
14451TIP3   OH243229   3.937   5.022   6.748
14451TIP3    H143230   3.990   4.947   6.778
14451TIP3    H243231   3.966   5.095   6.803
14452TIP3   OH243232   4.156   4.674   5.717
14452TIP3    H143233   4.241   4.642   5.749
14452TIP3    H243234   4.169   4.768   5.705
14453TIP3   OH243235   3.905   4.368   5.899
14453TIP3    H143236   3.840   4.410   5.956
14453TIP3    H243237   3.922   4.433   5.830
14454TIP3   OH243238   5.058   3.997   6.790
14454TIP3    H143239   5.133   4.040   6.833
14454TIP3    H243240   5.041   3.920   6.844
14455TIP3   OH243241   4.938   3.754   5.953
14455TIP3    H143242   4.923   3.776   5.862
14455TIP3    H243243   4.976   3.833   5.992
14456TIP3   OH243244   4.446   4.881   5.653
14456TIP3    H143245   4.359   4.892   5.691
14456TIP3    H243246   4.454   4.953   5.590
14457TIP3   OH243247   4.628   3.931   6.060
14457TIP3    H143248   4.690   4.001   6.040
14457TIP3    H243249   4.630   3.922   6.155
14458TIP3   OH243250   4.896   4.251   6.870
14458TIP3    H143251   4.914   4.306   6.946
14458TIP3    H243252   4.950   4.173   6.883
14459TIP3   OH243253   4.772   3.662   6.161
14459TIP3    H143254   4.764   3.735   6.222
14459TIP3    H243255   4.830   3.695   6.092
14460TIP3   OH243256   4.185   4.948   5.709
14460TIP3    H143257   4.151   5.012   5.647
14460TIP3    H243258   4.149   4.974   5.794
14461TIP3   OH243259   4.284   3.658   5.950
14461TIP3    H143260   4.276   3.746   5.988
14461TIP3    H243261   4.377   3.636   5.958
14462TIP3   OH243262   5.534   4.142   6.844
14462TIP3    H143263   5.439   4.144   6.856
14462TIP3    H243264   5.545   4.113   6.754
14463TIP3   OH243265   5.187   4.343   6.235
14463TIP3    H143266   5.111   4.287   6.248
14463TIP3    H243267   5.258   4.299   6.282
14464TIP3   OH243268   3.903   4.577   5.702
14464TIP3    H143269   3.971   4.639   5.726
14464TIP3    H243270   3.943   4.522   5.635
14465TIP3   OH243271   3.842   3.851   5.836
14465TIP3    H143272   3.844   3.946   5.833
14465TIP3    H243273   3.757   3.827   5.798
14466TIP3   OH243274   5.154   5.302   6.179
14466TIP3    H143275   5.113   5.349   6.107
14466TIP3    H243276   5.248   5.317   6.167
14467TIP3   OH243277   3.771   4.770   6.108
14467TIP3    H143278   3.693   4.821   6.129
14467TIP3    H243279   3.815   4.821   6.039
14468TIP3   OH243280   3.927   5.327   7.166
14468TIP3    H143281   4.012   5.330   7.211
14468TIP3    H243282   3.905   5.234   7.161
14469TIP3   OH243283   4.409   5.295   7.204
14469TIP3    H143284   4.501   5.276   7.220
14469TIP3    H243285   4.384   5.237   7.133
14470TIP3   OH243286   5.049   5.198   6.943
14470TIP3    H143287   5.038   5.129   7.008
14470TIP3    H243288   5.125   5.247   6.972
14471TIP3   OH243289   4.894   4.929   5.310
14471TIP3    H143290   4.883   4.834   5.308
14471TIP3    H243291   4.906   4.954   5.218
14472TIP3   OH243292   4.056   4.734   7.364
14472TIP3    H143293   4.075   4.640   7.372
14472TIP3    H243294   3.970   4.738   7.323
14473TIP3   OH243295   4.039   4.388   5.556
14473TIP3    H143296   4.090   4.358   5.631
14473TIP3    H243297   4.102   4.397   5.485
14474TIP3   OH243298   4.663   4.818   7.137
14474TIP3    H143299   4.626   4.835   7.050
14474TIP3    H243300   4.697   4.728   7.131
14475TIP3   OH243301   5.153   4.831   6.737
14475TIP3    H143302   5.232   4.872   6.700
14475TIP3    H243303   5.085   4.898   6.729
14476TIP3   OH243304   4.178   4.465   7.345
14476TIP3    H143305   4.253   4.410   7.323
14476TIP3    H243306   4.198   4.501   7.431
14477TIP3   OH243307   4.243   4.286   5.781
14477TIP3    H143308   4.215   4.247   5.864
14477TIP3    H243309   4.277   4.213   5.730
14478TIP3   OH243310   4.502   4.349   6.999
14478TIP3    H143311   4.433   4.416   7.009
14478TIP3    H243312   4.558   4.382   6.929
14479TIP3   OH243313   4.343   4.081   5.619
14479TIP3    H143314   4.314   4.087   5.527
14479TIP3    H243315   4.438   4.089   5.614
14480TIP3   OH243316   5.039   4.751   7.138
14480TIP3    H143317   5.128   4.769   7.105
14480TIP3    H243318   5.053   4.699   7.217
14481TIP3   OH243319   5.168   4.416   5.278
14481TIP3    H143320   5.150   4.368   5.197
14481TIP3    H243321   5.135   4.504   5.263
14482TIP3   OH243322   4.629   4.141   7.134
14482TIP3    H143323   4.636   4.061   7.081
14482TIP3    H243324   4.588   4.205   7.076
14483TIP3   OH243325   4.646   3.934   6.939
14483TIP3    H143326   4.672   3.967   6.853
14483TIP3    H243327   4.553   3.912   6.929
14484TIP3   OH243328   4.662   4.463   6.814
14484TIP3    H143329   4.748   4.466   6.771
14484TIP3    H243330   4.612   4.532   6.771
14485TIP3   OH243331   5.288   4.664   6.905
14485TIP3    H143332   5.227   4.725   6.864
14485TIP3    H243333   5.375   4.696   6.881
14486TIP3   OH243334   4.507   4.255   7.360
14486TIP3    H143335   4.442   4.188   7.378
14486TIP3    H243336   4.546   4.230   7.276
14487TIP3   OH243337   4.756   3.690   7.002
14487TIP3    H143338   4.719   3.776   6.985
14487TIP3    H243339   4.688   3.628   6.975
14488TIP3   OH243340   4.894   4.194   7.224
14488TIP3    H143341   4.893   4.184   7.320
14488TIP3    H243342   4.805   4.169   7.198
14489TIP3   OH243343   5.135   4.143   7.079
14489TIP3    H143344   5.061   4.147   7.140
14489TIP3    H243345   5.210   4.122   7.135
14490TIP3   OH243346   5.362   4.087   7.235
14490TIP3    H143347   5.372   3.995   7.259
14490TIP3    H243348   5.358   4.133   7.319
14491TIP3   OH243349   4.350   4.038   7.420
14491TIP3    H143350   4.353   3.950   7.381
14491TIP3    H243351   4.386   4.026   7.508
14492TIP3   OH243352   4.861   3.698   7.259
14492TIP3    H143353   4.929   3.631   7.255
14492TIP3    H243354   4.817   3.692   7.174
14493TIP3   OH243355   4.923   3.911   7.427
14493TIP3    H143356   4.905   3.845   7.360
14493TIP3    H243357   4.851   3.974   7.418
14494TIP3   OH243358   4.146   5.143   5.512
14494TIP3    H143359   4.242   5.147   5.510
14494TIP3    H243360   4.119   5.191   5.434
14495TIP3   OH243361   3.637   4.521   5.750
14495TIP3    H143362   3.724   4.555   5.731
14495TIP3    H243363   3.631   4.439   5.701
14496TIP3   OH243364   3.541   5.139   6.151
14496TIP3    H143365   3.475   5.079   6.115
14496TIP3    H243366   3.585   5.088   6.219
14497TIP3   OH243367   3.670   5.003   6.346
14497TIP3    H143368   3.670   4.919   6.390
14497TIP3    H243369   3.732   5.057   6.396
14498TIP3   OH243370   5.404   5.398   6.140
14498TIP3    H143371   5.433   5.423   6.228
14498TIP3    H243372   5.470   5.435   6.082
14499TIP3   OH243373   5.439   5.409   6.422
14499TIP3    H143374   5.393   5.325   6.418
14499TIP3    H243375   5.512   5.393   6.482
14500TIP3   OH243376   5.484   5.089   6.994
14500TIP3    H143377   5.412   5.089   7.057
14500TIP3    H243378   5.523   5.176   7.003
14501TIP3   OH243379   5.301   4.600   5.617
14501TIP3    H143380   5.364   4.666   5.588
14501TIP3    H243381   5.341   4.561   5.695
14502TIP3   OH243382   5.427   4.469   5.821
14502TIP3    H143383   5.362   4.427   5.878
14502TIP3    H243384   5.490   4.507   5.882
14503TIP3   OH243385   5.480   4.860   6.248
14503TIP3    H143386   5.533   4.796   6.202
14503TIP3    H243387   5.473   4.934   6.188
14504TIP3   OH243388   5.311   5.163   6.445
14504TIP3    H143389   5.244   5.201   6.501
14504TIP3    H243390   5.262   5.112   6.379
14505TIP3   OH243391   5.364   4.378   5.466
14505TIP3    H143392   5.296   4.377   5.399
14505TIP3    H243393   5.340   4.450   5.524
14506TIP3   OH243394   5.236   4.047   5.420
14506TIP3    H143395   5.194   4.091   5.345
14506TIP3    H243396   5.211   3.955   5.410
14507TIP3   OH243397   5.241   4.324   5.968
14507TIP3    H143398   5.249   4.229   5.961
14507TIP3    H243399   5.227   4.340   6.062
14508TIP3   OH243400   5.532   4.750   6.819
14508TIP3    H143401   5.603   4.686   6.813
14508TIP3    H243402   5.562   4.823   6.766
14509TIP3   OH243403   5.720   4.556   6.836
14509TIP3    H143404   5.644   4.512   6.873
14509TIP3    H243405   5.793   4.495   6.850
14510TIP3   OH243406   5.181   3.782   5.406
14510TIP3    H143407   5.255   3.754   5.460
14510TIP3    H243408   5.109   3.725   5.433
14511TIP3   OH243409   5.239   4.039   5.861
14511TIP3    H143410   5.276   3.952   5.878
14511TIP3    H243411   5.295   4.075   5.792
14512TIP3   OH243412   5.402   4.217   6.356
14512TIP3    H143413   5.484   4.240   6.314
14512TIP3    H243414   5.409   4.252   6.445
14513TIP3   OH243415   5.465   4.359   6.586
14513TIP3    H143416   5.391   4.389   6.639
14513TIP3    H243417   5.498   4.439   6.545
14514TIP3   OH243418   4.084   4.083   7.385
14514TIP3    H143419   4.180   4.083   7.385
14514TIP3    H243420   4.059   4.002   7.430
14515TIP3   OH243421   5.926   3.952   7.143
14515TIP3    H143422   5.979   3.885   7.099
14515TIP3    H243423   5.891   4.006   7.072
14516TIP3   OH243424   5.346   3.789   5.900
14516TIP3    H143425   5.395   3.776   5.981
14516TIP3    H243426   5.286   3.715   5.897
14517TIP3   OH243427   4.050   3.777   6.725
14517TIP3    H143428   4.103   3.699   6.737
14517TIP3    H243429   4.114   3.847   6.708
14518TIP3   OH243430   3.846   4.070   6.790
14518TIP3    H143431   3.885   4.051   6.705
14518TIP3    H243432   3.917   4.109   6.841
14519TIP3   OH243433   5.790   4.090   6.954
14519TIP3    H143434   5.713   4.134   6.990
14519TIP3    H243435   5.755   4.026   6.893
14520TIP3   OH243436   5.429   3.728   5.529
14520TIP3    H143437   5.467   3.655   5.480
14520TIP3    H243438   5.494   3.797   5.525
14521TIP3   OH243439   3.828   3.559   6.293
14521TIP3    H143440   3.735   3.553   6.316
14521TIP3    H243441   3.829   3.613   6.215
14522TIP3   OH243442   4.966   5.249   5.821
14522TIP3    H143443   5.008   5.224   5.739
14522TIP3    H243444   5.027   5.313   5.860
14523TIP3   OH243445   4.026   3.616   7.109
14523TIP3    H143446   3.994   3.639   7.196
14523TIP3    H243447   3.972   3.668   7.049
14524TIP3   OH243448   4.090   5.062   7.184
14524TIP3    H143449   4.000   5.034   7.168
14524TIP3    H243450   4.105   5.043   7.277
14525TIP3   OH243451   4.270   5.094   6.728
14525TIP3    H143452   4.218   5.165   6.691
14525TIP3    H243453   4.357   5.105   6.689
14526TIP3   OH243454   4.718   5.342   6.870
14526TIP3    H143455   4.757   5.338   6.958
14526TIP3    H243456   4.782   5.390   6.817
14527TIP3   OH243457   4.898   5.491   6.727
14527TIP3    H143458   4.967   5.437   6.688
14527TIP3    H243459   4.945   5.548   6.788
14528TIP3   OH243460   5.688   3.852   6.826
14528TIP3    H143461   5.598   3.855   6.794
14528TIP3    H243462   5.715   3.761   6.814
14529TIP3   OH243463   3.945   5.351   6.755
14529TIP3    H143464   3.860   5.385   6.729
14529TIP3    H243465   3.957   5.384   6.845
14530TIP3   OH243466   4.183   5.331   6.612
14530TIP3    H143467   4.099   5.342   6.656
14530TIP3    H243468   4.168   5.360   6.522
14531TIP3   OH243469   4.611   5.365   6.410
14531TIP3    H143470   4.537   5.377   6.350
14531TIP3    H243471   4.622   5.450   6.452
14532TIP3   OH243472   4.877   5.298   6.457
14532TIP3    H143473   4.784   5.311   6.438
14532TIP3    H243474   4.920   5.378   6.425
14533TIP3   OH243475   5.086   5.492   6.376
14533TIP3    H143476   5.073   5.575   6.330
14533TIP3    H243477   5.112   5.430   6.307
14534TIP3   OH243478   3.855   5.146   6.507
14534TIP3    H143479   3.880   5.125   6.597
14534TIP3    H243480   3.926   5.110   6.453
14535TIP3   OH243481   4.060   5.029   6.384
14535TIP3    H143482   4.071   4.936   6.364
14535TIP3    H243483   4.128   5.073   6.334
14536TIP3   OH243484   4.333   5.119   6.352
14536TIP3    H143485   4.350   5.026   6.340
14536TIP3    H243486   4.364   5.137   6.441
14537TIP3   OH243487   4.893   3.765   6.445
14537TIP3    H143488   4.850   3.699   6.500
14537TIP3    H243489   4.965   3.719   6.403
14538TIP3   OH243490   5.418   3.646   6.350
14538TIP3    H143491   5.454   3.698   6.279
14538TIP3    H243492   5.324   3.665   6.348
14539TIP3   OH243493   5.515   3.750   6.114
14539TIP3    H143494   5.585   3.697   6.076
14539TIP3    H243495   5.544   3.840   6.102
14540TIP3   OH243496   4.138   3.479   6.443
14540TIP3    H143497   4.050   3.445   6.457
14540TIP3    H243498   4.195   3.404   6.458
14541TIP3   OH243499   3.926   3.347   6.109
14541TIP3    H143500   3.958   3.403   6.038
14541TIP3    H243501   3.901   3.409   6.178
14542TIP3   OH243502   4.586   3.509   6.341
14542TIP3    H143503   4.647   3.560   6.287
14542TIP3    H243504   4.601   3.540   6.430
14543TIP3   OH243505   5.135   3.654   6.328
14543TIP3    H143506   5.130   3.620   6.239
14543TIP3    H243507   5.121   3.576   6.383
14544TIP3   OH243508   5.160   3.576   5.890
14544TIP3    H143509   5.077   3.622   5.901
14544TIP3    H243510   5.149   3.493   5.936
14545TIP3   OH243511   3.640   4.912   5.891
14545TIP3    H143512   3.556   4.881   5.857
14545TIP3    H243513   3.639   5.007   5.876
14546TIP3   OH243514   4.048   3.506   5.874
14546TIP3    H143515   4.094   3.444   5.818
14546TIP3    H243516   4.117   3.561   5.911
14547TIP3   OH243517   4.561   3.681   5.975
14547TIP3    H143518   4.617   3.632   6.034
14547TIP3    H243519   4.579   3.773   5.997
14548TIP3   OH243520   4.423   5.103   5.466
14548TIP3    H143521   4.489   5.156   5.421
14548TIP3    H243522   4.382   5.052   5.397
14549TIP3   OH243523   5.124   5.224   5.577
14549TIP3    H143524   5.129   5.130   5.557
14549TIP3    H243525   5.088   5.263   5.498
14550TIP3   OH243526   4.349   3.770   7.361
14550TIP3    H143527   4.315   3.686   7.393
14550TIP3    H243528   4.443   3.766   7.381
14551TIP3   OH243529   4.601   3.753   7.475
14551TIP3    H143530   4.684   3.736   7.430
14551TIP3    H243531   4.592   3.681   7.537
14552TIP3   OH243532   3.744   4.956   5.533
14552TIP3    H143533   3.694   4.988   5.608
14552TIP3    H243534   3.811   4.899   5.571
14553TIP3   OH243535   5.425   3.812   7.263
14553TIP3    H143536   5.443   3.784   7.353
14553TIP3    H243537   5.510   3.812   7.220
14554TIP3   OH243538   5.364   5.371   6.748
14554TIP3    H143539   5.286   5.336   6.707
14554TIP3    H243540   5.345   5.465   6.759
14555TIP3   OH243541   6.626   4.741   5.519
14555TIP3    H143542   6.603   4.832   5.498
14555TIP3    H243543   6.552   4.689   5.487
14556TIP3   OH243544   6.631   4.739   5.900
14556TIP3    H143545   6.659   4.711   5.987
14556TIP3    H243546   6.586   4.663   5.863
14557TIP3   OH243547   5.931   4.635   6.264
14557TIP3    H143548   5.958   4.568   6.327
14557TIP3    H243549   6.003   4.697   6.262
14558TIP3   OH243550   6.874   5.039   5.583
14558TIP3    H143551   6.856   4.972   5.649
14558TIP3    H243552   6.900   5.116   5.634
14559TIP3   OH243553   5.900   5.043   5.991
14559TIP3    H143554   5.889   4.948   5.994
14559TIP3    H243555   5.995   5.055   5.986
14560TIP3   OH243556   5.604   4.250   5.776
14560TIP3    H143557   5.559   4.333   5.792
14560TIP3    H243558   5.537   4.193   5.739
14561TIP3   OH243559   5.668   4.535   5.947
14561TIP3    H143560   5.713   4.459   5.984
14561TIP3    H243561   5.725   4.566   5.877
14562TIP3   OH243562   6.520   5.502   5.598
14562TIP3    H143563   6.566   5.435   5.548
14562TIP3    H243564   6.513   5.467   5.687
14563TIP3   OH243565   6.430   4.966   5.949
14563TIP3    H143566   6.462   4.890   5.899
14563TIP3    H243567   6.510   5.013   5.974
14564TIP3   OH243568   7.442   4.288   5.946
14564TIP3    H143569   7.469   4.368   5.992
14564TIP3    H243570   7.459   4.307   5.854
14565TIP3   OH243571   6.840   4.466   5.981
14565TIP3    H143572   6.882   4.383   6.003
14565TIP3    H243573   6.809   4.454   5.891
14566TIP3   OH243574   6.176   4.127   5.944
14566TIP3    H143575   6.157   4.201   5.886
14566TIP3    H243576   6.130   4.053   5.905
14567TIP3   OH243577   6.874   4.218   5.570
14567TIP3    H143578   6.943   4.202   5.635
14567TIP3    H243579   6.920   4.254   5.494
14568TIP3   OH243580   5.813   4.328   6.052
14568TIP3    H143581   5.893   4.311   6.102
14568TIP3    H243582   5.822   4.274   5.974
14569TIP3   OH243583   6.253   4.525   5.844
14569TIP3    H143584   6.345   4.502   5.859
14569TIP3    H243585   6.213   4.444   5.813
14570TIP3   OH243586   7.512   4.496   6.117
14570TIP3    H143587   7.431   4.541   6.095
14570TIP3    H243588   7.527   4.517   6.209
14571TIP3   OH243589   6.171   4.111   6.381
14571TIP3    H143590   6.115   4.147   6.313
14571TIP3    H243591   6.123   4.127   6.463
14572TIP3   OH243592   6.517   4.959   5.390
14572TIP3    H143593   6.487   4.939   5.302
14572TIP3    H243594   6.476   5.043   5.412
14573TIP3   OH243595   6.280   4.887   6.178
14573TIP3    H143596   6.218   4.949   6.216
14573TIP3    H243597   6.322   4.936   6.107
14574TIP3   OH243598   7.085   4.219   5.741
14574TIP3    H143599   7.069   4.173   5.824
14574TIP3    H243600   7.135   4.297   5.767
14575TIP3   OH243601   6.048   4.227   6.165
14575TIP3    H143602   6.106   4.298   6.190
14575TIP3    H243603   6.093   4.184   6.091
14576TIP3   OH243604   6.104   5.079   6.274
14576TIP3    H143605   6.083   5.164   6.234
14576TIP3    H243606   6.030   5.061   6.331
14577TIP3   OH243607   5.506   4.770   5.516
14577TIP3    H143608   5.464   4.791   5.433
14577TIP3    H243609   5.533   4.855   5.551
14578TIP3   OH243610   6.942   5.287   5.752
14578TIP3    H143611   6.855   5.275   5.790
14578TIP3    H243612   6.936   5.369   5.704
14579TIP3   OH243613   7.233   4.187   6.111
14579TIP3    H143614   7.145   4.215   6.084
14579TIP3    H243615   7.291   4.218   6.042
14580TIP3   OH243616   6.530   3.829   6.097
14580TIP3    H143617   6.518   3.735   6.110
14580TIP3    H243618   6.455   3.870   6.140
14581TIP3   OH243619   6.649   5.332   5.423
14581TIP3    H143620   6.691   5.249   5.404
14581TIP3    H243621   6.707   5.398   5.386
14582TIP3   OH243622   6.783   5.115   5.332
14582TIP3    H143623   6.759   5.040   5.279
14582TIP3    H243624   6.819   5.078   5.412
14583TIP3   OH243625   7.169   5.199   6.091
14583TIP3    H143626   7.158   5.122   6.035
14583TIP3    H243627   7.151   5.273   6.033
14584TIP3   OH243628   6.457   4.592   5.347
14584TIP3    H143629   6.379   4.645   5.331
14584TIP3    H243630   6.505   4.594   5.265
14585TIP3   OH243631   6.422   4.375   5.071
14585TIP3    H143632   6.485   4.428   5.120
14585TIP3    H243633   6.475   4.315   5.020
14586TIP3   OH243634   7.363   4.837   5.936
14586TIP3    H143635   7.282   4.886   5.944
14586TIP3    H243636   7.395   4.858   5.848
14587TIP3   OH243637   6.807   4.670   5.326
14587TIP3    H143638   6.752   4.699   5.398
14587TIP3    H243639   6.891   4.649   5.368
14588TIP3   OH243640   7.041   4.717   6.233
14588TIP3    H143641   7.041   4.798   6.284
14588TIP3    H243642   6.957   4.717   6.187
14589TIP3   OH243643   6.040   4.670   5.739
14589TIP3    H143644   5.998   4.616   5.673
14589TIP3    H243645   6.116   4.620   5.767
14590TIP3   OH243646   6.170   5.083   5.887
14590TIP3    H143647   6.147   5.042   5.803
14590TIP3    H243648   6.258   5.051   5.906
14591TIP3   OH243649   6.181   4.643   6.092
14591TIP3    H143650   6.211   4.624   6.003
14591TIP3    H243651   6.219   4.728   6.113
14592TIP3   OH243652   6.702   5.281   5.871
14592TIP3    H143653   6.688   5.360   5.923
14592TIP3    H243654   6.687   5.209   5.932
14593TIP3   OH243655   6.311   5.200   6.417
14593TIP3    H143656   6.256   5.262   6.464
14593TIP3    H243657   6.249   5.146   6.368
14594TIP3   OH243658   6.653   4.532   5.147
14594TIP3    H143659   6.706   4.590   5.201
14594TIP3    H243660   6.674   4.556   5.057
14595TIP3   OH243661   6.065   4.759   6.517
14595TIP3    H143662   6.075   4.843   6.561
14595TIP3    H243663   5.973   4.736   6.528
14596TIP3   OH243664   6.389   5.216   5.427
14596TIP3    H143665   6.469   5.267   5.443
14596TIP3    H243666   6.329   5.278   5.386
14597TIP3   OH243667   6.106   5.369   6.504
14597TIP3    H143668   6.073   5.366   6.414
14597TIP3    H243669   6.031   5.347   6.559
14598TIP3   OH243670   7.162   3.775   5.196
14598TIP3    H143671   7.083   3.792   5.247
14598TIP3    H243672   7.178   3.856   5.148
14599TIP3   OH243673   5.904   4.514   5.543
14599TIP3    H143674   5.842   4.560   5.486
14599TIP3    H243675   5.864   4.428   5.559
14600TIP3   OH243676   6.963   5.147   4.744
14600TIP3    H143677   6.963   5.240   4.724
14600TIP3    H243678   7.054   5.120   4.734
14601TIP3   OH243679   5.688   4.896   6.450
14601TIP3    H143680   5.623   4.874   6.384
14601TIP3    H243681   5.725   4.812   6.477
14602TIP3   OH243682   5.543   5.093   6.084
14602TIP3    H143683   5.637   5.083   6.073
14602TIP3    H243684   5.534   5.170   6.141
14603TIP3   OH243685   7.405   5.542   6.140
14603TIP3    H143686   7.406   5.447   6.150
14603TIP3    H243687   7.324   5.569   6.183
14604TIP3   OH243688   6.510   5.330   6.276
14604TIP3    H143689   6.512   5.421   6.305
14604TIP3    H243690   6.441   5.289   6.327
14605TIP3   OH243691   6.268   5.458   5.224
14605TIP3    H143692   6.223   5.440   5.142
14605TIP3    H243693   6.240   5.546   5.248
14606TIP3   OH243694   5.710   5.306   5.611
14606TIP3    H143695   5.758   5.299   5.694
14606TIP3    H243696   5.652   5.231   5.611
14607TIP3   OH243697   6.465   5.367   4.910
14607TIP3    H143698   6.538   5.332   4.860
14607TIP3    H243699   6.501   5.382   4.998
14608TIP3   OH243700   6.528   5.414   5.164
14608TIP3    H143701   6.439   5.419   5.198
14608TIP3    H243702   6.577   5.366   5.231
14609TIP3   OH243703   7.296   4.674   6.412
14609TIP3    H143704   7.215   4.690   6.363
14609TIP3    H243705   7.311   4.580   6.403
14610TIP3   OH243706   5.892   5.080   6.442
14610TIP3    H143707   5.942   5.067   6.522
14610TIP3    H243708   5.819   5.019   6.448
14611TIP3   OH243709   6.289   3.907   6.223
14611TIP3    H143710   6.204   3.873   6.196
14611TIP3    H243711   6.269   3.989   6.269
14612TIP3   OH243712   6.824   4.020   6.419
14612TIP3    H143713   6.891   3.994   6.482
14612TIP3    H243714   6.741   4.001   6.462
14613TIP3   OH243715   7.066   4.452   6.338
14613TIP3    H143716   7.017   4.446   6.420
14613TIP3    H243717   7.040   4.537   6.301
14614TIP3   OH243718   6.723   4.580   4.888
14614TIP3    H143719   6.693   4.549   4.803
14614TIP3    H243720   6.803   4.630   4.869
14615TIP3   OH243721   6.436   3.951   5.195
14615TIP3    H143722   6.406   3.954   5.286
14615TIP3    H243723   6.399   3.871   5.159
14616TIP3   OH243724   6.223   4.422   6.243
14616TIP3    H143725   6.174   4.441   6.323
14616TIP3    H243726   6.209   4.500   6.188
14617TIP3   OH243727   6.106   4.304   5.754
14617TIP3    H143728   6.015   4.282   5.774
14617TIP3    H243729   6.121   4.267   5.667
14618TIP3   OH243730   6.597   4.394   5.481
14618TIP3    H143731   6.543   4.464   5.443
14618TIP3    H243732   6.651   4.364   5.408
14619TIP3   OH243733   6.773   4.670   6.571
14619TIP3    H143734   6.749   4.599   6.631
14619TIP3    H243735   6.865   4.687   6.591
14620TIP3   OH243736   6.755   4.420   5.720
14620TIP3    H143737   6.695   4.456   5.654
14620TIP3    H243738   6.788   4.340   5.681
14621TIP3   OH243739   6.043   4.449   6.452
14621TIP3    H143740   6.063   4.515   6.519
14621TIP3    H243741   6.030   4.368   6.502
14622TIP3   OH243742   6.090   3.928   5.162
14622TIP3    H143743   6.085   3.924   5.258
14622TIP3    H243744   6.014   3.980   5.136
14623TIP3   OH243745   5.636   3.973   6.030
14623TIP3    H143746   5.709   4.004   6.084
14623TIP3    H243747   5.678   3.939   5.951
14624TIP3   OH243748   5.610   3.956   5.549
14624TIP3    H143749   5.656   3.992   5.472
14624TIP3    H243750   5.548   4.025   5.573
14625TIP3   OH243751   6.767   4.665   6.147
14625TIP3    H143752   6.799   4.597   6.088
14625TIP3    H243753   6.737   4.617   6.224
14626TIP3   OH243754   6.434   4.127   5.820
14626TIP3    H143755   6.351   4.127   5.868
14626TIP3    H243756   6.501   4.131   5.888
14627TIP3   OH243757   5.868   4.184   5.824
14627TIP3    H143758   5.776   4.193   5.799
14627TIP3    H243759   5.891   4.094   5.803
14628TIP3   OH243760   6.140   4.181   5.512
14628TIP3    H143761   6.232   4.198   5.491
14628TIP3    H243762   6.093   4.204   5.431
14629TIP3   OH243763   6.925   4.203   6.018
14629TIP3    H143764   6.895   4.218   6.108
14629TIP3    H243765   6.860   4.143   5.981
14630TIP3   OH243766   5.979   4.213   5.290
14630TIP3    H143767   5.907   4.170   5.245
14630TIP3    H243768   6.032   4.251   5.220
14631TIP3   OH243769   7.097   5.894   6.236
14631TIP3    H143770   7.092   5.915   6.143
14631TIP3    H243771   7.172   5.945   6.269
14632TIP3   OH243772   6.055   5.005   6.661
14632TIP3    H143773   6.134   5.035   6.707
14632TIP3    H243774   5.988   5.000   6.729
14633TIP3   OH243775   6.518   4.455   5.916
14633TIP3    H143776   6.590   4.418   5.865
14633TIP3    H243777   6.527   4.416   6.002
14634TIP3   OH243778   6.042   3.944   5.793
14634TIP3    H143779   6.007   3.867   5.839
14634TIP3    H243780   6.091   3.907   5.719
14635TIP3   OH243781   6.494   4.354   6.207
14635TIP3    H143782   6.406   4.390   6.218
14635TIP3    H243783   6.550   4.414   6.255
14636TIP3   OH243784   6.224   4.740   5.302
14636TIP3    H143785   6.153   4.677   5.291
14636TIP3    H243786   6.211   4.777   5.389
14637TIP3   OH243787   7.131   4.980   5.928
14637TIP3    H143788   7.155   5.029   5.849
14637TIP3    H243789   7.047   4.939   5.906
14638TIP3   OH243790   6.689   4.059   5.159
14638TIP3    H143791   6.595   4.042   5.168
14638TIP3    H243792   6.699   4.151   5.184
14639TIP3   OH243793   6.633   5.065   6.298
14639TIP3    H143794   6.650   5.041   6.389
14639TIP3    H243795   6.591   5.151   6.304
14640TIP3   OH243796   6.760   4.304   5.263
14640TIP3    H143797   6.854   4.313   5.280
14640TIP3    H243798   6.738   4.383   5.214
14641TIP3   OH243799   5.924   4.766   5.976
14641TIP3    H143800   5.960   4.738   5.892
14641TIP3    H243801   5.960   4.704   6.040
14642TIP3   OH243802   6.391   4.905   5.152
14642TIP3    H143803   6.338   4.982   5.134
14642TIP3    H243804   6.328   4.841   5.187
14643TIP3   OH243805   5.804   4.684   6.589
14643TIP3    H143806   5.824   4.676   6.682
14643TIP3    H243807   5.733   4.622   6.573
14644TIP3   OH243808   6.530   4.800   6.607
14644TIP3    H143809   6.468   4.743   6.561
14644TIP3    H243810   6.616   4.768   6.580
14645TIP3   OH243811   6.790   5.324   6.193
14645TIP3    H143812   6.695   5.319   6.203
14645TIP3    H243813   6.820   5.374   6.269
14646TIP3   OH243814   7.201   4.394   5.097
14646TIP3    H143815   7.141   4.347   5.039
14646TIP3    H243816   7.200   4.484   5.063
14647TIP3   OH243817   7.418   5.251   6.180
14647TIP3    H143818   7.322   5.248   6.176
14647TIP3    H243819   7.447   5.222   6.093
14648TIP3   OH243820   6.900   5.211   5.009
14648TIP3    H143821   6.872   5.139   5.066
14648TIP3    H243822   6.913   5.170   4.924
14649TIP3   OH243823   6.896   4.840   5.849
14649TIP3    H143824   6.804   4.818   5.863
14649TIP3    H243825   6.932   4.765   5.803
14650TIP3   OH243826   6.023   5.072   5.601
14650TIP3    H143827   6.027   5.150   5.546
14650TIP3    H243828   5.929   5.054   5.610
14651TIP3   OH243829   5.582   4.381   5.296
14651TIP3    H143830   5.633   4.457   5.322
14651TIP3    H243831   5.509   4.379   5.358
14652TIP3   OH243832   6.161   4.836   5.548
14652TIP3    H143833   6.130   4.925   5.562
14652TIP3    H243834   6.126   4.786   5.621
14653TIP3   OH243835   6.294   5.416   6.070
14653TIP3    H143836   6.333   5.487   6.019
14653TIP3    H243837   6.368   5.379   6.119
14654TIP3   OH243838   5.942   5.312   5.453
14654TIP3    H143839   5.858   5.317   5.499
14654TIP3    H243840   5.976   5.402   5.455
14655TIP3   OH243841   6.683   5.047   6.030
14655TIP3    H143842   6.673   5.048   6.125
14655TIP3    H243843   6.762   4.995   6.014
14656TIP3   OH243844   6.929   5.583   6.077
14656TIP3    H143845   6.853   5.526   6.073
14656TIP3    H243846   6.915   5.647   6.007
14657TIP3   OH243847   6.993   5.422   4.729
14657TIP3    H143848   7.025   5.486   4.666
14657TIP3    H243849   6.907   5.454   4.755
14658TIP3   OH243850   6.014   4.190   6.598
14658TIP3    H143851   5.920   4.200   6.613
14658TIP3    H243852   6.044   4.133   6.669
14659TIP3   OH243853   6.825   4.887   5.143
14659TIP3    H143854   6.806   4.813   5.201
14659TIP3    H243855   6.917   4.875   5.118
14660TIP3   OH243856   5.733   5.277   6.232
14660TIP3    H143857   5.782   5.200   6.259
14660TIP3    H243858   5.758   5.346   6.294
14661TIP3   OH243859   6.014   4.906   4.908
14661TIP3    H143860   6.039   4.817   4.885
14661TIP3    H243861   6.006   4.905   5.004
14662TIP3   OH243862   5.964   4.928   5.194
14662TIP3    H143863   6.045   4.900   5.238
14662TIP3    H243864   5.970   5.023   5.190
14663TIP3   OH243865   5.701   4.622   5.386
14663TIP3    H143866   5.638   4.665   5.443
14663TIP3    H243867   5.725   4.689   5.322
14664TIP3   OH243868   6.854   4.255   6.277
14664TIP3    H143869   6.931   4.295   6.319
14664TIP3    H243870   6.837   4.177   6.330
14665TIP3   OH243871   6.734   4.010   5.440
14665TIP3    H143872   6.718   4.032   5.349
14665TIP3    H243873   6.771   4.090   5.478
14666TIP3   OH243874   6.228   5.124   5.127
14666TIP3    H143875   6.142   5.148   5.162
14666TIP3    H243876   6.253   5.199   5.073
14667TIP3   OH243877   6.425   4.187   5.546
14667TIP3    H143878   6.486   4.258   5.526
14667TIP3    H243879   6.426   4.180   5.642
14668TIP3   OH243880   6.692   4.507   6.355
14668TIP3    H143881   6.708   4.562   6.431
14668TIP3    H243882   6.746   4.429   6.369
14669TIP3   OH243883   6.568   3.919   5.648
14669TIP3    H143884   6.556   3.994   5.707
14669TIP3    H243885   6.627   3.952   5.580
14670TIP3   OH243886   5.973   5.202   5.200
14670TIP3    H143887   5.943   5.269   5.138
14670TIP3    H243888   5.959   5.242   5.286
14671TIP3   OH243889   6.080   3.915   5.438
14671TIP3    H143890   6.073   4.004   5.473
14671TIP3    H243891   6.172   3.893   5.445
14672TIP3   OH243892   7.331   4.405   6.331
14672TIP3    H143893   7.236   4.407   6.343
14672TIP3    H243894   7.343   4.366   6.245
14673TIP3   OH243895   6.983   4.599   5.723
14673TIP3    H143896   6.907   4.543   5.734
14673TIP3    H243897   7.053   4.554   5.769
14674TIP3   OH243898   5.701   4.838   5.183
14674TIP3    H143899   5.771   4.899   5.205
14674TIP3    H243900   5.741   4.778   5.120
14675TIP3   OH243901   5.637   4.110   5.324
14675TIP3    H143902   5.639   4.206   5.316
14675TIP3    H243903   5.555   4.084   5.282
14676TIP3   OH243904   6.951   5.559   5.669
14676TIP3    H143905   6.906   5.603   5.598
14676TIP3    H243906   7.044   5.574   5.652
14677TIP3   OH243907   6.027   3.824   6.198
14677TIP3    H143908   5.996   3.794   6.113
14677TIP3    H243909   6.016   3.748   6.256
14678TIP3   OH243910   5.565   5.048   5.579
14678TIP3    H143911   5.492   5.074   5.635
14678TIP3    H243912   5.542   5.083   5.493
14679TIP3   OH243913   5.723   5.584   6.650
14679TIP3    H143914   5.807   5.586   6.698
14679TIP3    H243915   5.699   5.491   6.649
14680TIP3   OH243916   6.207   5.552   6.690
14680TIP3    H143917   6.299   5.532   6.704
14680TIP3    H243918   6.179   5.493   6.620
14681TIP3   OH243919   6.846   5.455   6.429
14681TIP3    H143920   6.835   5.387   6.495
14681TIP3    H243921   6.920   5.507   6.459
14682TIP3   OH243922   5.853   4.991   6.848
14682TIP3    H143923   5.870   4.897   6.859
14682TIP3    H243924   5.766   4.996   6.810
14683TIP3   OH243925   5.835   4.643   5.050
14683TIP3    H143926   5.890   4.611   5.121
14683TIP3    H243927   5.895   4.653   4.975
14684TIP3   OH243928   6.463   5.076   6.622
14684TIP3    H143929   6.418   5.092   6.539
14684TIP3    H243930   6.492   4.984   6.616
14685TIP3   OH243931   6.954   5.085   6.230
14685TIP3    H143932   7.027   5.129   6.186
14685TIP3    H243933   6.880   5.145   6.220
14686TIP3   OH243934   5.977   4.727   6.833
14686TIP3    H143935   6.045   4.662   6.817
14686TIP3    H243936   5.996   4.761   6.920
14687TIP3   OH243937   6.032   4.542   5.265
14687TIP3    H143938   6.011   4.502   5.350
14687TIP3    H243939   6.072   4.471   5.215
14688TIP3   OH243940   6.308   4.614   6.495
14688TIP3    H143941   6.230   4.668   6.498
14688TIP3    H243942   6.355   4.644   6.417
14689TIP3   OH243943   6.140   4.338   5.106
14689TIP3    H143944   6.111   4.343   5.014
14689TIP3    H243945   6.235   4.346   5.101
14690TIP3   OH243946   6.824   5.012   6.629
14690TIP3    H143947   6.904   4.990   6.581
14690TIP3    H243948   6.819   4.947   6.699
14691TIP3   OH243949   6.965   4.670   4.766
14691TIP3    H143950   6.945   4.625   4.684
14691TIP3    H243951   6.935   4.760   4.753
14692TIP3   OH243952   6.432   4.398   6.617
14692TIP3    H143953   6.429   4.319   6.564
14692TIP3    H243954   6.388   4.464   6.564
14693TIP3   OH243955   6.432   4.183   6.425
14693TIP3    H143956   6.460   4.226   6.344
14693TIP3    H243957   6.340   4.162   6.410
14694TIP3   OH243958   6.462   4.722   6.299
14694TIP3    H143959   6.544   4.730   6.251
14694TIP3    H243960   6.404   4.787   6.258
14695TIP3   OH243961   7.044   4.687   6.682
14695TIP3    H143962   7.092   4.605   6.693
14695TIP3    H243963   7.109   4.748   6.648
14696TIP3   OH243964   7.085   4.942   6.416
14696TIP3    H143965   7.024   4.992   6.361
14696TIP3    H243966   7.171   4.960   6.379
14697TIP3   OH243967   6.310   4.508   6.850
14697TIP3    H143968   6.240   4.446   6.866
14697TIP3    H243969   6.343   4.485   6.763
14698TIP3   OH243970   6.563   3.949   6.494
14698TIP3    H143971   6.518   4.031   6.472
14698TIP3    H243972   6.496   3.881   6.483
14699TIP3   OH243973   6.689   4.452   6.713
14699TIP3    H143974   6.680   4.444   6.807
14699TIP3    H243975   6.603   4.429   6.678
14700TIP3   OH243976   6.930   4.400   6.567
14700TIP3    H143977   6.855   4.404   6.626
14700TIP3    H243978   7.002   4.371   6.622
14701TIP3   OH243979   7.161   4.342   6.718
14701TIP3    H143980   7.172   4.249   6.736
14701TIP3    H243981   7.156   4.382   6.805
14702TIP3   OH243982   6.149   4.289   6.903
14702TIP3    H143983   6.153   4.200   6.868
14702TIP3    H243984   6.181   4.281   6.993
14703TIP3   OH243985   6.659   3.954   6.751
14703TIP3    H143986   6.728   3.888   6.745
14703TIP3    H243987   6.617   3.953   6.665
14704TIP3   OH243988   6.723   4.173   6.911
14704TIP3    H143989   6.702   4.104   6.848
14704TIP3    H243990   6.649   4.233   6.906
14705TIP3   OH243991   5.940   5.404   5.010
14705TIP3    H143992   6.034   5.389   4.999
14705TIP3    H243993   5.913   5.447   4.929
14706TIP3   OH243994   5.439   4.787   5.249
14706TIP3    H143995   5.527   4.813   5.223
14706TIP3    H243996   5.426   4.701   5.209
14707TIP3   OH243997   5.338   5.393   5.640
14707TIP3    H143998   5.269   5.335   5.607
14707TIP3    H243999   5.383   5.340   5.706
14708TIP3   OH244000   5.475   5.250   5.831
14708TIP3    H144001   5.465   5.173   5.887
14708TIP3    H244002   5.527   5.311   5.883
14709TIP3   OH244003   7.204   5.648   5.628
14709TIP3    H144004   7.231   5.681   5.713
14709TIP3    H244005   7.263   5.692   5.566
14710TIP3   OH244006   7.233   5.666   5.911
14710TIP3    H144007   7.187   5.583   5.902
14710TIP3    H244008   7.308   5.646   5.967
14711TIP3   OH244009   7.279   5.345   6.484
14711TIP3    H144010   7.206   5.351   6.546
14711TIP3    H244011   7.319   5.432   6.486
14712TIP3   OH244012   7.102   4.854   5.101
14712TIP3    H144013   7.164   4.922   5.075
14712TIP3    H244014   7.140   4.817   5.181
14713TIP3   OH244015   7.225   4.723   5.308
14713TIP3    H144016   7.158   4.684   5.364
14713TIP3    H244017   7.286   4.764   5.369
14714TIP3   OH244018   7.279   5.117   5.739
14714TIP3    H144019   7.329   5.053   5.688
14714TIP3    H244020   7.269   5.192   5.680
14715TIP3   OH244021   7.107   5.418   5.934
14715TIP3    H144022   7.038   5.460   5.985
14715TIP3    H244023   7.061   5.370   5.865
14716TIP3   OH244024   7.160   4.632   4.954
14716TIP3    H144025   7.093   4.632   4.885
14716TIP3    H244026   7.138   4.706   5.010
14717TIP3   OH244027   7.035   4.303   4.905
14717TIP3    H144028   6.989   4.349   4.834
14717TIP3    H244029   7.009   4.211   4.894
14718TIP3   OH244030   7.039   4.581   5.456
14718TIP3    H144031   7.044   4.486   5.448
14718TIP3    H244032   7.024   4.597   5.549
14719TIP3   OH244033   5.666   4.656   6.197
14719TIP3    H144034   5.661   4.626   6.106
14719TIP3    H244035   5.760   4.657   6.217
14720TIP3   OH244036   7.328   5.006   6.309
14720TIP3    H144037   7.399   4.942   6.300
14720TIP3    H244038   7.352   5.075   6.248
14721TIP3   OH244039   7.513   4.810   6.328
14721TIP3    H144040   7.437   4.765   6.365
14721TIP3    H244041   7.586   4.749   6.340
14722TIP3   OH244042   6.977   4.037   4.892
14722TIP3    H144043   7.049   4.009   4.949
14722TIP3    H244044   6.903   3.982   4.918
14723TIP3   OH244045   7.036   4.296   5.349
14723TIP3    H144046   7.073   4.209   5.365
14723TIP3    H244047   7.090   4.332   5.279
14724TIP3   OH244048   7.199   4.473   5.844
14724TIP3    H144049   7.281   4.497   5.801
14724TIP3    H244050   7.206   4.508   5.933
14725TIP3   OH244051   7.262   4.618   6.075
14725TIP3    H144052   7.185   4.648   6.123
14725TIP3    H244053   7.295   4.696   6.030
14726TIP3   OH244054   5.882   4.338   6.868
14726TIP3    H144055   5.978   4.336   6.874
14726TIP3    H244056   5.854   4.260   6.915
14727TIP3   OH244057   7.715   4.206   6.629
14727TIP3    H144058   7.773   4.141   6.589
14727TIP3    H244059   7.687   4.261   6.556
14728TIP3   OH244060   7.144   4.045   5.386
14728TIP3    H144061   7.191   4.032   5.468
14728TIP3    H244062   7.082   3.972   5.383
14729TIP3   OH244063   5.845   4.033   6.203
14729TIP3    H144064   5.904   3.959   6.214
14729TIP3    H244065   5.903   4.109   6.199
14730TIP3   OH244066   5.647   4.308   6.277
14730TIP3    H144067   5.694   4.303   6.194
14730TIP3    H244068   5.671   4.393   6.314
14731TIP3   OH244069   7.585   4.347   6.436
14731TIP3    H144070   7.502   4.389   6.460
14731TIP3    H244071   7.560   4.276   6.378
14732TIP3   OH244072   7.226   3.983   5.018
14732TIP3    H144073   7.263   3.911   4.967
14732TIP3    H244074   7.290   4.054   5.011
14733TIP3   OH244075   5.627   3.812   5.778
14733TIP3    H144076   5.536   3.809   5.806
14733TIP3    H244077   5.626   3.869   5.701
14734TIP3   OH244078   6.794   5.515   5.288
14734TIP3    H144079   6.837   5.496   5.204
14734TIP3    H244080   6.846   5.584   5.328
14735TIP3   OH244081   5.846   3.889   6.592
14735TIP3    H144082   5.801   3.886   6.676
14735TIP3    H244083   5.783   3.930   6.532
14736TIP3   OH244084   5.887   5.318   6.673
14736TIP3    H144085   5.797   5.290   6.654
14736TIP3    H244086   5.899   5.298   6.766
14737TIP3   OH244087   6.067   5.352   6.216
14737TIP3    H144088   6.016   5.424   6.180
14737TIP3    H244089   6.153   5.361   6.175
14738TIP3   OH244090   6.514   5.596   6.356
14738TIP3    H144091   6.552   5.595   6.444
14738TIP3    H244092   6.577   5.646   6.304
14739TIP3   OH244093   6.693   5.748   6.215
14739TIP3    H144094   6.761   5.695   6.172
14739TIP3    H244095   6.741   5.804   6.275
14740TIP3   OH244096   7.485   4.108   6.314
14740TIP3    H144097   7.395   4.106   6.281
14740TIP3    H244098   7.516   4.018   6.304
14741TIP3   OH244099   5.741   5.611   6.240
14741TIP3    H144100   5.654   5.643   6.217
14741TIP3    H244101   5.753   5.638   6.331
14742TIP3   OH244102   5.978   5.588   6.098
14742TIP3    H144103   5.895   5.600   6.144
14742TIP3    H244104   5.961   5.619   6.009
14743TIP3   OH244105   6.405   5.618   5.897
14743TIP3    H144106   6.337   5.635   5.831
14743TIP3    H244107   6.419   5.703   5.939
14744TIP3   OH244108   6.673   5.557   5.948
14744TIP3    H144109   6.580   5.570   5.930
14744TIP3    H244110   6.716   5.631   5.905
14745TIP3   OH244111   6.884   5.749   5.862
14745TIP3    H144112   6.868   5.832   5.817
14745TIP3    H244113   6.908   5.688   5.792
14746TIP3   OH244114   5.657   5.400   5.989
14746TIP3    H144115   5.680   5.377   6.079
14746TIP3    H244116   5.724   5.359   5.935
14747TIP3   OH244117   5.849   5.273   5.844
14747TIP3    H144118   5.862   5.190   5.891
14747TIP3    H244119   5.937   5.310   5.838
14748TIP3   OH244120   6.116   5.367   5.847
14748TIP3    H144121   6.144   5.277   5.831
14748TIP3    H244122   6.156   5.391   5.930
14749TIP3   OH244123   6.692   4.024   5.936
14749TIP3    H144124   6.646   3.957   5.987
14749TIP3    H244125   6.761   3.976   5.889
14750TIP3   OH244126   7.214   3.904   5.837
14750TIP3    H144127   7.250   3.955   5.765
14750TIP3    H244128   7.120   3.921   5.834
14751TIP3   OH244129   7.311   4.006   5.601
14751TIP3    H144130   7.382   3.953   5.563
14751TIP3    H244131   7.340   4.096   5.589
14752TIP3   OH244132   5.938   3.730   5.950
14752TIP3    H144133   5.847   3.701   5.951
14752TIP3    H244134   5.989   3.649   5.947
14753TIP3   OH244135   5.724   3.606   5.595
14753TIP3    H144136   5.755   3.662   5.524
14753TIP3    H244137   5.696   3.667   5.664
14754TIP3   OH244138   6.384   3.765   5.830
14754TIP3    H144139   6.441   3.815   5.771
14754TIP3    H244140   6.399   3.803   5.917
14755TIP3   OH244141   6.933   3.910   5.814
14755TIP3    H144142   6.925   3.877   5.725
14755TIP3    H244143   6.917   3.833   5.869
14756TIP3   OH244144   6.957   3.833   5.377
14756TIP3    H144145   6.874   3.879   5.387
14756TIP3    H244146   6.944   3.750   5.423
14757TIP3   OH244147   5.440   5.172   5.374
14757TIP3    H144148   5.356   5.138   5.343
14757TIP3    H244149   5.436   5.266   5.355
14758TIP3   OH244150   5.844   3.763   5.361
14758TIP3    H144151   5.890   3.700   5.305
14758TIP3    H244152   5.913   3.817   5.398
14759TIP3   OH244153   6.357   3.938   5.462
14759TIP3    H144154   6.414   3.888   5.521
14759TIP3    H244155   6.375   4.029   5.483
14760TIP3   OH244156   6.203   5.359   4.953
14760TIP3    H144157   6.296   5.379   4.937
14760TIP3    H244158   6.179   5.299   4.883
14761TIP3   OH244159   6.935   5.477   5.054
14761TIP3    H144160   6.927   5.383   5.042
14761TIP3    H244161   6.892   5.515   4.977
14762TIP3   OH244162   6.149   4.013   6.840
14762TIP3    H144163   6.109   3.946   6.896
14762TIP3    H244164   6.240   4.016   6.867
14763TIP3   OH244165   6.395   4.010   6.961
14763TIP3    H144166   6.479   3.987   6.920
14763TIP3    H244167   6.382   3.941   7.026
14764TIP3   OH244168   5.555   5.230   5.038
14764TIP3    H144169   5.493   5.257   5.105
14764TIP3    H244170   5.608   5.162   5.079
14765TIP3   OH244171   7.222   4.070   6.749
14765TIP3    H144172   7.239   4.041   6.838
14765TIP3    H244173   7.308   4.068   6.706
14766TIP3   OH244174   7.159   5.626   6.239
14766TIP3    H144175   7.083   5.591   6.192
14766TIP3    H244176   7.141   5.720   6.244
14767TIP3   OH244177   8.428   4.999   5.002
14767TIP3    H144178   8.402   5.090   4.990
14767TIP3    H244179   8.351   4.948   4.978
14768TIP3   OH244180   8.438   4.989   5.381
14768TIP3    H144181   8.457   4.969   5.473
14768TIP3    H244182   8.382   4.916   5.352
14769TIP3   OH244183   7.728   4.892   5.752
14769TIP3    H144184   7.757   4.825   5.814
14769TIP3    H244185   7.800   4.954   5.747
14770TIP3   OH244186   8.665   5.312   5.061
14770TIP3    H144187   8.648   5.236   5.116
14770TIP3    H244188   8.695   5.379   5.122
14771TIP3   OH244189   7.697   5.298   5.484
14771TIP3    H144190   7.682   5.203   5.486
14771TIP3    H244191   7.791   5.307   5.465
14772TIP3   OH244192   7.401   4.506   5.262
14772TIP3    H144193   7.357   4.590   5.280
14772TIP3    H244194   7.333   4.450   5.226
14773TIP3   OH244195   7.463   4.792   5.434
14773TIP3    H144196   7.511   4.717   5.470
14773TIP3    H244197   7.520   4.826   5.365
14774TIP3   OH244198   8.333   5.742   5.074
14774TIP3    H144199   8.332   5.648   5.060
14774TIP3    H244200   8.293   5.755   5.160
14775TIP3   OH244201   8.230   5.220   5.447
14775TIP3    H144202   8.251   5.154   5.381
14775TIP3    H244203   8.313   5.263   5.466
14776TIP3   OH244204   9.237   4.548   5.430
14776TIP3    H144205   9.264   4.624   5.481
14776TIP3    H244206   9.259   4.571   5.340
14777TIP3   OH244207   8.642   4.725   5.467
14777TIP3    H144208   8.677   4.639   5.489
14777TIP3    H244209   8.604   4.713   5.379
14778TIP3   OH244210   7.973   4.383   5.430
14778TIP3    H144211   7.953   4.457   5.372
14778TIP3    H244212   7.927   4.309   5.391
14779TIP3   OH244213   8.672   4.473   5.058
14779TIP3    H144214   8.741   4.456   5.122
14779TIP3    H244215   8.718   4.512   4.984
14780TIP3   OH244216   7.609   4.584   5.539
14780TIP3    H144217   7.689   4.567   5.589
14780TIP3    H244218   7.618   4.531   5.461
14781TIP3   OH244219   8.051   4.782   5.328
14781TIP3    H144220   8.141   4.757   5.347
14781TIP3    H244221   8.008   4.701   5.299
14782TIP3   OH244222   9.306   4.753   5.601
14782TIP3    H144223   9.224   4.798   5.581
14782TIP3    H244224   9.319   4.766   5.695
14783TIP3   OH244225   7.968   4.368   5.868
14783TIP3    H144226   7.911   4.403   5.800
14783TIP3    H244227   7.920   4.383   5.950
14784TIP3   OH244228   8.328   5.228   4.869
14784TIP3    H144229   8.272   5.190   4.801
14784TIP3    H244230   8.268   5.280   4.922
14785TIP3   OH244231   8.076   5.143   5.666
14785TIP3    H144232   8.013   5.206   5.701
14785TIP3    H244233   8.115   5.187   5.591
14786TIP3   OH244234   8.888   4.476   5.229
14786TIP3    H144235   8.861   4.428   5.306
14786TIP3    H244236   8.927   4.557   5.263
14787TIP3   OH244237   7.844   4.483   5.650
14787TIP3    H144238   7.902   4.555   5.676
14787TIP3    H244239   7.889   4.440   5.578
14788TIP3   OH244240   7.903   5.336   5.765
14788TIP3    H144241   7.880   5.414   5.716
14788TIP3    H244242   7.827   5.318   5.821
14789TIP3   OH244243   7.304   5.027   5.000
14789TIP3    H144244   7.259   5.049   4.918
14789TIP3    H244245   7.329   5.112   5.037
14790TIP3   OH244246   8.739   5.542   5.231
14790TIP3    H144247   8.655   5.530   5.276
14790TIP3    H244248   8.733   5.629   5.193
14791TIP3   OH244249   9.029   4.447   5.599
14791TIP3    H144250   8.940   4.473   5.572
14791TIP3    H244251   9.085   4.477   5.527
14792TIP3   OH244252   8.326   4.087   5.583
14792TIP3    H144253   8.316   3.993   5.598
14792TIP3    H244254   8.250   4.126   5.627
14793TIP3   OH244255   8.579   5.389   4.810
14793TIP3    H144256   8.526   5.312   4.788
14793TIP3    H244257   8.611   5.371   4.898
14794TIP3   OH244258   8.965   5.456   5.578
14794TIP3    H144259   8.952   5.378   5.523
14794TIP3    H244260   8.946   5.529   5.519
14795TIP3   OH244261   8.256   4.849   4.837
14795TIP3    H144262   8.174   4.895   4.821
14795TIP3    H244263   8.298   4.845   4.751
14796TIP3   OH244264   8.218   4.634   4.553
14796TIP3    H144265   8.282   4.684   4.604
14796TIP3    H244266   8.270   4.568   4.506
14797TIP3   OH244267   9.159   5.093   5.420
14797TIP3    H144268   9.078   5.141   5.432
14797TIP3    H244269   9.189   5.118   5.333
14798TIP3   OH244270   8.606   4.933   4.809
14798TIP3    H144271   8.549   4.956   4.882
14798TIP3    H244272   8.688   4.908   4.851
14799TIP3   OH244273   8.838   4.974   5.719
14799TIP3    H144274   8.837   5.055   5.769
14799TIP3    H244275   8.753   4.972   5.675
14800TIP3   OH244276   7.833   4.926   5.227
14800TIP3    H144277   7.795   4.874   5.157
14800TIP3    H244278   7.912   4.879   5.252
14801TIP3   OH244279   7.958   5.314   5.393
14801TIP3    H144280   7.957   5.332   5.299
14801TIP3    H244281   8.050   5.295   5.412
14802TIP3   OH244282   7.980   4.899   5.579
14802TIP3    H144283   8.005   4.885   5.488
14802TIP3    H244284   8.014   4.986   5.600
14803TIP3   OH244285   8.506   5.537   5.358
14803TIP3    H144286   8.483   5.616   5.407
14803TIP3    H244287   8.485   5.465   5.418
14804TIP3   OH244288   8.107   5.457   5.905
14804TIP3    H144289   8.051   5.520   5.951
14804TIP3    H244290   8.047   5.403   5.854
14805TIP3   OH244291   8.449   4.788   4.635
14805TIP3    H144292   8.502   4.846   4.689
14805TIP3    H244293   8.472   4.811   4.545
14806TIP3   OH244294   7.862   5.014   6.005
14806TIP3    H144295   7.870   5.099   6.049
14806TIP3    H244296   7.769   4.991   6.013
14807TIP3   OH244297   7.903   5.627   5.991
14807TIP3    H144298   7.872   5.624   5.901
14807TIP3    H244299   7.826   5.603   6.044
14808TIP3   OH244300   8.958   4.032   4.683
14808TIP3    H144301   8.879   4.044   4.736
14808TIP3    H244302   8.971   4.116   4.640
14809TIP3   OH244303   7.704   4.769   5.021
14809TIP3    H144304   7.638   4.818   4.972
14809TIP3    H244305   7.659   4.688   5.047
14810TIP3   OH244306   8.760   5.406   4.254
14810TIP3    H144307   8.765   5.498   4.225
14810TIP3    H244308   8.846   5.370   4.232
14811TIP3   OH244309   7.484   5.154   5.937
14811TIP3    H144310   7.419   5.135   5.870
14811TIP3    H244311   7.520   5.068   5.960
14812TIP3   OH244312   7.339   5.347   5.575
14812TIP3    H144313   7.433   5.342   5.560
14812TIP3    H244314   7.326   5.428   5.624
14813TIP3   OH244315   9.201   5.797   5.627
14813TIP3    H144316   9.202   5.702   5.641
14813TIP3    H244317   9.121   5.826   5.670
14814TIP3   OH244318   8.308   5.586   5.764
14814TIP3    H144319   8.309   5.677   5.793
14814TIP3    H244320   8.237   5.545   5.813
14815TIP3   OH244321   8.105   5.748   4.677
14815TIP3    H144322   8.038   5.699   4.632
14815TIP3    H244323   8.057   5.811   4.731
14816TIP3   OH244324   7.505   5.563   5.102
14816TIP3    H144325   7.556   5.553   5.182
14816TIP3    H244326   7.447   5.486   5.102
14817TIP3   OH244327   8.280   5.613   4.361
14817TIP3    H144328   8.334   5.555   4.307
14817TIP3    H244329   8.279   5.572   4.447
14818TIP3   OH244330   9.093   4.932   5.898
14818TIP3    H144331   9.010   4.946   5.852
14818TIP3    H244332   9.108   4.837   5.891
14819TIP3   OH244333   7.688   5.338   5.930
14819TIP3    H144334   7.738   5.320   6.010
14819TIP3    H244335   7.615   5.276   5.934
14820TIP3   OH244336   8.085   4.165   5.709
14820TIP3    H144337   8.000   4.130   5.682
14820TIP3    H244338   8.065   4.245   5.756
14821TIP3   OH244339   8.621   4.277   5.906
14821TIP3    H144340   8.688   4.250   5.968
14821TIP3    H244341   8.538   4.257   5.950
14822TIP3   OH244342   8.864   4.710   5.827
14822TIP3    H144343   8.814   4.703   5.908
14822TIP3    H244344   8.835   4.793   5.789
14823TIP3   OH244345   8.528   4.844   4.384
14823TIP3    H144346   8.487   4.815   4.303
14823TIP3    H244347   8.607   4.890   4.356
14824TIP3   OH244348   8.235   4.208   4.683
14824TIP3    H144349   8.203   4.211   4.773
14824TIP3    H244350   8.196   4.129   4.645
14825TIP3   OH244351   8.020   4.679   5.731
14825TIP3    H144352   7.970   4.697   5.810
14825TIP3    H244353   8.007   4.756   5.676
14826TIP3   OH244354   7.902   4.561   5.241
14826TIP3    H144355   7.811   4.540   5.262
14826TIP3    H244356   7.916   4.523   5.155
14827TIP3   OH244357   8.396   4.652   4.969
14827TIP3    H144358   8.341   4.722   4.932
14827TIP3    H244359   8.446   4.619   4.895
14828TIP3   OH244360   8.570   4.927   6.059
14828TIP3    H144361   8.544   4.857   6.118
14828TIP3    H244362   8.663   4.942   6.079
14829TIP3   OH244363   8.552   4.677   5.207
14829TIP3    H144364   8.490   4.711   5.142
14829TIP3    H244365   8.584   4.596   5.169
14830TIP3   OH244366   7.841   4.706   5.939
14830TIP3    H144367   7.860   4.771   6.006
14830TIP3    H244368   7.827   4.624   5.988
14831TIP3   OH244369   7.888   4.186   4.648
14831TIP3    H144370   7.882   4.180   4.744
14831TIP3    H244371   7.811   4.236   4.622
14832TIP3   OH244372   7.432   4.229   5.518
14832TIP3    H144373   7.506   4.260   5.571
14832TIP3    H244374   7.472   4.197   5.437
14833TIP3   OH244375   7.406   4.214   5.035
14833TIP3    H144376   7.453   4.250   4.959
14833TIP3    H244377   7.344   4.282   5.059
14834TIP3   OH244378   8.568   4.923   5.634
14834TIP3    H144379   8.598   4.855   5.574
14834TIP3    H244380   8.535   4.875   5.710
14835TIP3   OH244381   8.230   4.386   5.306
14835TIP3    H144382   8.146   4.384   5.352
14835TIP3    H244383   8.296   4.386   5.376
14836TIP3   OH244384   7.664   4.441   5.311
14836TIP3    H144385   7.572   4.451   5.286
14836TIP3    H244386   7.686   4.350   5.289
14837TIP3   OH244387   7.936   4.437   4.999
14837TIP3    H144388   8.028   4.455   4.976
14837TIP3    H244389   7.887   4.460   4.920
14838TIP3   OH244390   8.719   4.459   5.502
14838TIP3    H144391   8.693   4.474   5.593
14838TIP3    H244392   8.653   4.398   5.469
14839TIP3   OH244393   7.777   4.469   4.779
14839TIP3    H144394   7.701   4.428   4.738
14839TIP3    H244395   7.827   4.504   4.705
14840TIP3   OH244396   8.894   6.151   5.723
14840TIP3    H144397   8.889   6.174   5.630
14840TIP3    H244398   8.970   6.199   5.756
14841TIP3   OH244399   7.850   5.261   6.149
14841TIP3    H144400   7.930   5.291   6.194
14841TIP3    H244401   7.784   5.258   6.218
14842TIP3   OH244402   8.315   4.713   5.406
14842TIP3    H144403   8.385   4.669   5.357
14842TIP3    H244404   8.319   4.674   5.493
14843TIP3   OH244405   7.839   4.199   5.280
14843TIP3    H144406   7.803   4.124   5.327
14843TIP3    H244407   7.887   4.162   5.207
14844TIP3   OH244408   8.290   4.613   5.688
14844TIP3    H144409   8.201   4.644   5.704
14844TIP3    H244410   8.345   4.671   5.741
14845TIP3   OH244411   8.028   4.998   4.787
14845TIP3    H144412   7.958   4.934   4.770
14845TIP3    H244413   8.007   5.035   4.872
14846TIP3   OH244414   8.928   5.236   5.415
14846TIP3    H144415   8.950   5.286   5.336
14846TIP3    H244416   8.843   5.196   5.395
14847TIP3   OH244417   8.484   4.316   4.644
14847TIP3    H144418   8.391   4.296   4.655
14847TIP3    H244419   8.491   4.408   4.672
14848TIP3   OH244420   8.436   5.326   5.783
14848TIP3    H144421   8.442   5.294   5.873
14848TIP3    H244422   8.387   5.408   5.789
14849TIP3   OH244423   8.556   4.561   4.750
14849TIP3    H144424   8.650   4.570   4.767
14849TIP3    H244425   8.533   4.640   4.701
14850TIP3   OH244426   7.716   5.019   5.465
14850TIP3    H144427   7.754   4.998   5.380
14850TIP3    H244428   7.757   4.956   5.525
14851TIP3   OH244429   8.169   5.152   4.608
14851TIP3    H144430   8.125   5.237   4.612
14851TIP3    H244431   8.117   5.095   4.665
14852TIP3   OH244432   7.600   4.941   6.076
14852TIP3    H144433   7.618   4.929   6.169
14852TIP3    H244434   7.529   4.879   6.057
14853TIP3   OH244435   8.325   5.056   6.094
14853TIP3    H144436   8.262   5.000   6.049
14853TIP3    H244437   8.411   5.024   6.067
14854TIP3   OH244438   8.589   5.585   5.678
14854TIP3    H144439   8.494   5.575   5.689
14854TIP3    H244440   8.616   5.633   5.756
14855TIP3   OH244441   9.002   4.640   4.577
14855TIP3    H144442   8.938   4.603   4.516
14855TIP3    H244443   9.003   4.734   4.556
14856TIP3   OH244444   9.213   5.506   5.667
14856TIP3    H144445   9.117   5.504   5.663
14856TIP3    H244446   9.242   5.478   5.580
14857TIP3   OH244447   8.665   5.465   4.531
14857TIP3    H144448   8.680   5.373   4.551
14857TIP3    H244449   8.688   5.473   4.438
14858TIP3   OH244450   8.694   5.097   5.333
14858TIP3    H144451   8.602   5.075   5.350
14858TIP3    H244452   8.729   5.020   5.289
14859TIP3   OH244453   7.379   4.635   4.786
14859TIP3    H144454   7.428   4.714   4.808
14859TIP3    H244455   7.304   4.635   4.845
14860TIP3   OH244456   7.962   5.100   5.026
14860TIP3    H144457   7.984   5.190   5.050
14860TIP3    H244458   7.916   5.065   5.102
14861TIP3   OH244459   8.091   5.669   5.559
14861TIP3    H144460   8.126   5.740   5.506
14861TIP3    H244461   8.167   5.634   5.606
14862TIP3   OH244462   7.712   5.575   4.909
14862TIP3    H144463   7.642   5.567   4.974
14862TIP3    H244464   7.766   5.647   4.941
14863TIP3   OH244465   8.484   5.303   5.516
14863TIP3    H144466   8.470   5.307   5.611
14863TIP3    H244467   8.561   5.248   5.505
14864TIP3   OH244468   8.449   5.200   4.401
14864TIP3    H144469   8.503   5.174   4.476
14864TIP3    H244470   8.361   5.169   4.424
14865TIP3   OH244471   8.726   5.838   5.564
14865TIP3    H144472   8.650   5.780   5.561
14865TIP3    H244473   8.711   5.902   5.494
14866TIP3   OH244474   8.788   5.679   4.223
14866TIP3    H144475   8.818   5.741   4.156
14866TIP3    H244476   8.714   5.722   4.264
14867TIP3   OH244477   7.811   4.448   6.085
14867TIP3    H144478   7.716   4.454   6.097
14867TIP3    H244479   7.840   4.389   6.155
14868TIP3   OH244480   8.617   5.140   4.617
14868TIP3    H144481   8.597   5.075   4.685
14868TIP3    H244482   8.711   5.129   4.601
14869TIP3   OH244483   7.529   5.536   5.717
14869TIP3    H144484   7.578   5.457   5.739
14869TIP3    H244485   7.558   5.601   5.781
14870TIP3   OH244486   7.814   5.166   4.385
14870TIP3    H144487   7.835   5.074   4.370
14870TIP3    H244488   7.794   5.172   4.478
14871TIP3   OH244489   7.771   5.187   4.661
14871TIP3    H144490   7.823   5.156   4.736
14871TIP3    H244491   7.770   5.282   4.670
14872TIP3   OH244492   7.498   4.881   4.873
14872TIP3    H144493   7.433   4.919   4.932
14872TIP3    H244494   7.513   4.949   4.807
14873TIP3   OH244495   8.654   4.509   5.762
14873TIP3    H144496   8.727   4.550   5.808
14873TIP3    H244497   8.632   4.431   5.814
14874TIP3   OH244498   8.532   4.266   4.927
14874TIP3    H144499   8.513   4.288   4.836
14874TIP3    H244500   8.566   4.347   4.965
14875TIP3   OH244501   8.035   5.389   4.616
14875TIP3    H144502   7.956   5.400   4.668
14875TIP3    H244503   8.034   5.462   4.554
14876TIP3   OH244504   8.223   4.444   5.034
14876TIP3    H144505   8.283   4.516   5.016
14876TIP3    H244506   8.222   4.436   5.129
14877TIP3   OH244507   8.490   4.764   5.840
14877TIP3    H144508   8.503   4.820   5.917
14877TIP3    H244509   8.541   4.685   5.859
14878TIP3   OH244510   8.364   4.176   5.136
14878TIP3    H144511   8.351   4.251   5.194
14878TIP3    H244512   8.422   4.209   5.067
14879TIP3   OH244513   7.774   5.456   4.679
14879TIP3    H144514   7.742   5.523   4.618
14879TIP3    H244515   7.753   5.491   4.766
14880TIP3   OH244516   7.876   4.170   4.924
14880TIP3    H144517   7.868   4.259   4.960
14880TIP3    H244518   7.969   4.150   4.931
14881TIP3   OH244519   9.127   4.662   5.815
14881TIP3    H144520   9.033   4.666   5.832
14881TIP3    H244521   9.135   4.612   5.734
14882TIP3   OH244522   8.779   4.855   5.206
14882TIP3    H144523   8.700   4.803   5.222
14882TIP3    H244524   8.848   4.811   5.256
14883TIP3   OH244525   7.495   5.095   4.673
14883TIP3    H144526   7.560   5.161   4.695
14883TIP3    H244527   7.541   5.035   4.614
14884TIP3   OH244528   7.435   4.366   4.806
14884TIP3    H144529   7.433   4.462   4.803
14884TIP3    H244530   7.348   4.340   4.776
14885TIP3   OH244531   8.750   5.811   5.154
14885TIP3    H144532   8.704   5.859   5.085
14885TIP3    H244533   8.843   5.829   5.137
14886TIP3   OH244534   7.824   4.080   5.685
14886TIP3    H144535   7.792   4.050   5.600
14886TIP3    H244536   7.813   4.005   5.743
14887TIP3   OH244537   7.356   5.301   5.068
14887TIP3    H144538   7.282   5.332   5.119
14887TIP3    H244539   7.342   5.337   4.980
14888TIP3   OH244540   7.518   5.839   6.138
14888TIP3    H144541   7.603   5.839   6.183
14888TIP3    H244542   7.493   5.746   6.135
14889TIP3   OH244543   8.005   5.806   6.179
14889TIP3    H144544   8.097   5.784   6.187
14889TIP3    H244545   7.972   5.751   6.109
14890TIP3   OH244546   7.982   5.376   4.309
14890TIP3    H144547   7.927   5.308   4.349
14890TIP3    H244548   8.055   5.327   4.271
14891TIP3   OH244549   8.641   5.712   5.917
14891TIP3    H144550   8.631   5.644   5.983
14891TIP3    H244551   8.717   5.763   5.945
14892TIP3   OH244552   8.422   5.428   4.223
14892TIP3    H144553   8.462   5.358   4.274
14892TIP3    H244554   8.468   5.426   4.139
14893TIP3   OH244555   7.648   5.247   6.336
14893TIP3    H144556   7.666   5.154   6.343
14893TIP3    H244557   7.562   5.252   6.294
14894TIP3   OH244558   7.639   4.914   4.535
14894TIP3    H144559   7.685   4.868   4.605
14894TIP3    H244560   7.696   4.904   4.458
14895TIP3   OH244561   8.258   5.333   6.109
14895TIP3    H144562   8.212   5.349   6.026
14895TIP3    H244563   8.286   5.241   6.103
14896TIP3   OH244564   8.132   5.092   4.342
14896TIP3    H144565   8.134   5.108   4.436
14896TIP3    H244566   8.134   4.997   4.334
14897TIP3   OH244567   8.751   5.339   5.716
14897TIP3    H144568   8.822   5.389   5.674
14897TIP3    H244569   8.674   5.396   5.709
14898TIP3   OH244570   7.770   4.983   6.321
14898TIP3    H144571   7.840   4.922   6.300
14898TIP3    H244572   7.792   5.017   6.407
14899TIP3   OH244573   7.837   4.801   4.754
14899TIP3    H144574   7.805   4.768   4.837
14899TIP3    H244575   7.868   4.723   4.707
14900TIP3   OH244576   8.105   4.871   5.982
14900TIP3    H144577   8.026   4.925   5.986
14900TIP3    H244578   8.151   4.902   5.904
14901TIP3   OH244579   7.936   4.594   4.592
14901TIP3    H144580   7.906   4.595   4.501
14901TIP3    H244581   8.031   4.601   4.587
14902TIP3   OH244582   8.622   5.269   6.117
14902TIP3    H144583   8.699   5.244   6.067
14902TIP3    H244584   8.615   5.203   6.186
14903TIP3   OH244585   8.759   4.932   4.255
14903TIP3    H144586   8.738   4.881   4.177
14903TIP3    H244587   8.729   5.021   4.235
14904TIP3   OH244588   8.227   4.656   6.105
14904TIP3    H144589   8.225   4.576   6.053
14904TIP3    H244590   8.184   4.721   6.051
14905TIP3   OH244591   8.228   4.442   5.912
14905TIP3    H144592   8.255   4.482   5.829
14905TIP3    H244593   8.136   4.419   5.898
14906TIP3   OH244594   8.260   4.981   5.787
14906TIP3    H144595   8.339   4.988   5.734
14906TIP3    H244596   8.199   5.044   5.747
14907TIP3   OH244597   8.840   4.944   6.168
14907TIP3    H144598   8.885   4.861   6.184
14907TIP3    H244599   8.908   5.002   6.134
14908TIP3   OH244600   8.881   5.199   5.904
14908TIP3    H144601   8.821   5.248   5.848
14908TIP3    H244602   8.968   5.216   5.866
14909TIP3   OH244603   8.104   4.767   6.336
14909TIP3    H144604   8.036   4.702   6.353
14909TIP3    H244605   8.140   4.743   6.250
14910TIP3   OH244606   8.359   4.205   5.978
14910TIP3    H144607   8.312   4.287   5.958
14910TIP3    H244608   8.292   4.137   5.969
14911TIP3   OH244609   8.484   4.710   6.199
14911TIP3    H144610   8.477   4.698   6.293
14911TIP3    H244611   8.398   4.686   6.165
14912TIP3   OH244612   8.726   4.657   6.054
14912TIP3    H144613   8.651   4.660   6.112
14912TIP3    H244614   8.798   4.626   6.109
14913TIP3   OH244615   8.961   4.599   6.204
14913TIP3    H144616   8.970   4.505   6.221
14913TIP3    H244617   8.953   4.639   6.291
14914TIP3   OH244618   7.946   4.546   6.390
14914TIP3    H144619   7.950   4.458   6.354
14914TIP3    H244620   7.980   4.537   6.479
14915TIP3   OH244621   8.458   4.215   6.235
14915TIP3    H144622   8.524   4.146   6.234
14915TIP3    H244623   8.416   4.209   6.149
14916TIP3   OH244624   8.522   4.432   6.393
14916TIP3    H144625   8.501   4.361   6.333
14916TIP3    H244626   8.445   4.489   6.390
14917TIP3   OH244627   7.737   5.653   4.484
14917TIP3    H144628   7.832   5.648   4.477
14917TIP3    H244629   7.711   5.707   4.409
14918TIP3   OH244630   7.227   5.043   4.730
14918TIP3    H144631   7.315   5.070   4.705
14918TIP3    H244632   7.211   4.963   4.679
14919TIP3   OH244633   7.136   5.651   5.126
14919TIP3    H144634   7.069   5.593   5.091
14919TIP3    H244635   7.182   5.598   5.192
14920TIP3   OH244636   7.272   5.507   5.317
14920TIP3    H144637   7.258   5.430   5.372
14920TIP3    H244638   7.323   5.567   5.371
14921TIP3   OH244639   9.003   5.901   5.115
14921TIP3    H144640   9.022   5.933   5.204
14921TIP3    H244641   9.055   5.957   5.058
14922TIP3   OH244642   9.030   5.921   5.395
14922TIP3    H144643   8.985   5.837   5.392
14922TIP3    H244644   9.103   5.906   5.456
14923TIP3   OH244645   9.077   5.602   5.970
14923TIP3    H144646   9.003   5.608   6.031
14923TIP3    H244647   9.118   5.688   5.973
14924TIP3   OH244648   8.892   5.119   4.589
14924TIP3    H144649   8.962   5.177   4.559
14924TIP3    H244650   8.929   5.076   4.666
14925TIP3   OH244651   9.013   4.988   4.790
14925TIP3    H144652   8.955   4.935   4.846
14925TIP3    H244653   9.088   5.009   4.846
14926TIP3   OH244654   9.075   5.375   5.225
14926TIP3    H144655   9.126   5.311   5.175
14926TIP3    H244656   9.061   5.448   5.164
14927TIP3   OH244657   8.902   5.674   5.420
14927TIP3    H144658   8.835   5.717   5.473
14927TIP3    H244659   8.853   5.627   5.352
14928TIP3   OH244660   8.956   4.892   4.440
14928TIP3    H144661   8.889   4.891   4.372
14928TIP3    H244662   8.932   4.964   4.498
14929TIP3   OH244663   8.829   4.559   4.389
14929TIP3    H144664   8.782   4.605   4.319
14929TIP3    H244665   8.801   4.467   4.380
14930TIP3   OH244666   8.836   4.834   4.941
14930TIP3    H144667   8.835   4.739   4.935
14930TIP3    H244668   8.821   4.852   5.034
14931TIP3   OH244669   7.462   4.909   5.686
14931TIP3    H144670   7.456   4.882   5.594
14931TIP3    H244671   7.557   4.912   5.703
14932TIP3   OH244672   9.125   5.263   5.796
14932TIP3    H144673   9.195   5.199   5.787
14932TIP3    H244674   9.149   5.334   5.737
14933TIP3   OH244675   9.309   5.066   5.811
14933TIP3    H144676   9.234   5.021   5.850
14933TIP3    H244677   9.382   5.006   5.826
14934TIP3   OH244678   8.774   4.290   4.385
14934TIP3    H144679   8.834   4.256   4.451
14934TIP3    H244680   8.692   4.241   4.399
14935TIP3   OH244681   8.833   4.552   4.835
14935TIP3    H144682   8.868   4.464   4.849
14935TIP3    H244683   8.887   4.588   4.764
14936TIP3   OH244684   8.994   4.728   5.331
14936TIP3    H144685   9.076   4.754   5.291
14936TIP3    H244686   8.998   4.762   5.420
14937TIP3   OH244687   9.056   4.873   5.560
14937TIP3    H144688   8.981   4.903   5.611
14937TIP3    H244689   9.089   4.953   5.518
14938TIP3   OH244690   7.680   4.598   6.362
14938TIP3    H144691   7.775   4.593   6.362
14938TIP3    H244692   7.652   4.515   6.402
14939TIP3   OH244693   9.516   4.466   6.116
14939TIP3    H144694   9.569   4.397   6.077
14939TIP3    H244695   9.485   4.518   6.042
14940TIP3   OH244696   8.943   4.298   4.872
14940TIP3    H144697   8.983   4.287   4.958
14940TIP3    H244698   8.877   4.229   4.867
14941TIP3   OH244699   7.641   4.290   5.690
14941TIP3    H144700   7.701   4.215   5.702
14941TIP3    H244701   7.699   4.366   5.686
14942TIP3   OH244702   7.444   4.565   5.765
14942TIP3    H144703   7.490   4.558   5.681
14942TIP3    H244704   7.466   4.652   5.797
14943TIP3   OH244705   9.382   4.603   5.922
14943TIP3    H144706   9.299   4.644   5.947
14943TIP3    H244707   9.357   4.531   5.865
14944TIP3   OH244708   9.053   4.240   4.512
14944TIP3    H144709   9.060   4.161   4.459
14944TIP3    H244710   9.073   4.311   4.450
14945TIP3   OH244711   7.423   4.069   5.264
14945TIP3    H144712   7.332   4.065   5.292
14945TIP3    H244713   7.422   4.126   5.188
14946TIP3   OH244714   7.643   4.148   6.080
14946TIP3    H144715   7.596   4.143   6.164
14946TIP3    H244716   7.579   4.186   6.019
14947TIP3   OH244717   7.683   5.575   6.161
14947TIP3    H144718   7.595   5.547   6.138
14947TIP3    H244719   7.692   5.554   6.254
14948TIP3   OH244720   7.863   5.611   5.706
14948TIP3    H144721   7.810   5.682   5.668
14948TIP3    H244722   7.948   5.619   5.662
14949TIP3   OH244723   8.311   5.852   5.845
14949TIP3    H144724   8.350   5.853   5.932
14949TIP3    H244725   8.373   5.901   5.790
14950TIP3   OH244726   8.488   6.003   5.701
14950TIP3    H144727   8.557   5.950   5.660
14950TIP3    H244728   8.535   6.062   5.760
14951TIP3   OH244729   9.281   4.362   5.800
14951TIP3    H144730   9.190   4.356   5.772
14951TIP3    H244731   9.315   4.273   5.792
14952TIP3   OH244732   7.539   5.869   5.727
14952TIP3    H144733   7.452   5.899   5.701
14952TIP3    H244734   7.546   5.894   5.819
14953TIP3   OH244735   7.776   5.848   5.587
14953TIP3    H144736   7.692   5.859   5.632
14953TIP3    H244737   7.758   5.874   5.496
14954TIP3   OH244738   8.204   5.878   5.375
14954TIP3    H144739   8.126   5.892   5.321
14954TIP3    H244740   8.216   5.960   5.422
14955TIP3   OH244741   8.469   5.814   5.433
14955TIP3    H144742   8.376   5.826   5.414
14955TIP3    H244743   8.511   5.892   5.395
14956TIP3   OH244744   8.682   6.006   5.349
14956TIP3    H144745   8.665   6.088   5.304
14956TIP3    H244746   8.702   5.944   5.278
14957TIP3   OH244747   7.454   5.658   5.476
14957TIP3    H144748   7.476   5.633   5.565
14957TIP3    H244749   7.521   5.616   5.422
14958TIP3   OH244750   7.647   5.530   5.335
14958TIP3    H144751   7.661   5.446   5.378
14958TIP3    H244752   7.735   5.566   5.323
14959TIP3   OH244753   7.915   5.633   5.315
14959TIP3    H144754   7.951   5.564   5.260
14959TIP3    H244755   7.956   5.621   5.401
14960TIP3   OH244756   8.489   4.279   5.422
14960TIP3    H144757   8.442   4.216   5.476
14960TIP3    H244758   8.555   4.228   5.376
14961TIP3   OH244759   9.011   4.160   5.319
14961TIP3    H144760   9.041   4.216   5.248
14961TIP3    H244761   8.916   4.173   5.321
14962TIP3   OH244762   9.114   4.273   5.082
14962TIP3    H144763   9.181   4.211   5.051
14962TIP3    H244764   9.162   4.351   5.107
14963TIP3   OH244765   7.735   3.987   5.436
14963TIP3    H144766   7.643   3.959   5.438
14963TIP3    H244767   7.785   3.905   5.434
14964TIP3   OH244768   7.522   3.861   5.084
14964TIP3    H144769   7.550   3.917   5.012
14964TIP3    H244770   7.491   3.922   5.152
14965TIP3   OH244771   8.180   4.023   5.316
14965TIP3    H144772   8.239   4.074   5.260
14965TIP3    H244773   8.194   4.058   5.404
14966TIP3   OH244774   8.732   4.165   5.299
14966TIP3    H144775   8.720   4.128   5.212
14966TIP3    H244776   8.716   4.091   5.358
14967TIP3   OH244777   8.754   4.091   4.864
14967TIP3    H144778   8.669   4.135   4.875
14967TIP3    H244779   8.743   4.008   4.910
14968TIP3   OH244780   7.237   5.427   4.860
14968TIP3    H144781   7.152   5.395   4.831
14968TIP3    H244782   7.234   5.522   4.846
14969TIP3   OH244783   7.639   4.019   4.847
14969TIP3    H144784   7.686   3.956   4.791
14969TIP3    H244785   7.709   4.073   4.885
14970TIP3   OH244786   8.154   4.195   4.947
14970TIP3    H144787   8.207   4.144   5.007
14970TIP3    H244788   8.172   4.286   4.971
14971TIP3   OH244789   8.006   5.615   4.437
14971TIP3    H144790   8.089   5.651   4.404
14971TIP3    H244791   7.988   5.540   4.380
14972TIP3   OH244792   7.945   4.270   6.330
14972TIP3    H144793   7.907   4.201   6.384
14972TIP3    H244794   8.037   4.272   6.355
14973TIP3   OH244795   8.193   4.265   6.448
14973TIP3    H144796   8.277   4.241   6.409
14973TIP3    H244797   8.177   4.199   6.516
14974TIP3   OH244798   7.353   5.480   4.525
14974TIP3    H144799   7.290   5.515   4.587
14974TIP3    H244800   7.392   5.404   4.569
14975TIP3   OH244801   9.018   4.327   6.236
14975TIP3    H144802   9.033   4.298   6.326
14975TIP3    H244803   9.104   4.322   6.194
14976TIP3   OH244804   8.956   5.883   5.723
14976TIP3    H144805   8.879   5.848   5.679
14976TIP3    H244806   8.938   5.977   5.731
14977TIP3   OH244807   9.526   5.146   5.236
14977TIP3    H144808   9.551   5.078   5.298
14977TIP3    H244809   9.592   5.214   5.247
14978TIP3   OH244810   9.484   5.555   4.965
14978TIP3    H144811   9.477   5.460   4.969
14978TIP3    H244812   9.579   5.571   4.962
14979TIP3   OH244813   9.261   5.049   4.917
14979TIP3    H144814   9.314   4.980   4.956
14979TIP3    H244815   9.318   5.090   4.852
14980TIP3   OH244816   0.181   5.992   4.571
14980TIP3    H144817   0.270   5.988   4.537
14980TIP3    H244818   0.191   5.986   4.666
14981TIP3   OH244819   0.172   5.493   4.917
14981TIP3    H144820   0.173   5.431   4.844
14981TIP3    H244821   0.263   5.498   4.945
14982TIP3   OH244822   9.737   4.642   4.929
14982TIP3    H144823   9.755   4.703   4.858
14982TIP3    H244824   9.724   4.558   4.885
14983TIP3   OH244825   9.413   4.846   5.024
14983TIP3    H144826   9.488   4.840   5.083
14983TIP3    H244827   9.408   4.760   4.982
14984TIP3   OH244828   0.009   5.055   4.804
14984TIP3    H144829   0.102   5.040   4.821
14984TIP3    H244830  -0.025   4.970   4.778
14985TIP3   OH244831   9.760   4.623   5.362
14985TIP3    H144832   9.703   4.658   5.293
14985TIP3    H244833   9.711   4.637   5.443
14986TIP3   OH244834   0.044   5.409   5.142
14986TIP3    H144835  -0.013   5.473   5.185
14986TIP3    H244836   0.086   5.458   5.071
14987TIP3   OH244837   9.632   4.743   5.151
14987TIP3    H144838   9.695   4.812   5.174
14987TIP3    H244839   9.671   4.698   5.077
14988TIP3   OH244840   9.690   5.602   5.250
14988TIP3    H144841   9.670   5.689   5.215
14988TIP3    H244842   9.617   5.581   5.307
14989TIP3   OH244843   9.097   5.283   4.482
14989TIP3    H144844   9.055   5.306   4.399
14989TIP3    H244845   9.128   5.367   4.517
14990TIP3   OH244846   9.610   5.203   4.696
14990TIP3    H144847   9.568   5.144   4.633
14990TIP3    H244848   9.683   5.152   4.731
14991TIP3   OH244849   9.737   5.616   4.847
14991TIP3    H144850   9.717   5.567   4.767
14991TIP3    H244851   9.820   5.579   4.877
14992TIP3   OH244852   9.778   5.155   5.066
14992TIP3    H144853   9.793   5.144   4.972
14992TIP3    H244854   9.801   5.246   5.084
14993TIP3   OH244855   0.098   5.714   5.394
14993TIP3    H144856   0.043   5.776   5.441
14993TIP3    H244857   0.036   5.660   5.344
14994TIP3   OH244858   9.649   5.279   5.487
14994TIP3    H144859   9.659   5.362   5.534
14994TIP3    H244860   9.559   5.252   5.505
14995TIP3   OH244861   0.123   5.771   4.396
14995TIP3    H144862   0.218   5.758   4.397
14995TIP3    H244863   0.095   5.738   4.311
14996TIP3   OH244864   9.699   5.881   5.478
14996TIP3    H144865   9.662   5.881   5.389
14996TIP3    H244866   9.624   5.861   5.535
14997TIP3   OH244867   9.489   5.024   4.517
14997TIP3    H144868   9.434   5.080   4.462
14997TIP3    H244869   9.448   4.937   4.511
14998TIP3   OH244870   9.280   5.409   5.423
14998TIP3    H144871   9.212   5.389   5.359
14998TIP3    H244872   9.315   5.324   5.449
14999TIP3   OH244873   9.134   5.610   5.052
14999TIP3    H144874   9.230   5.604   5.052
14999TIP3    H244875   9.115   5.685   5.108
15000TIP3   OH244876   0.285   5.841   5.242
15000TIP3    H144877   0.299   5.930   5.274
15000TIP3    H244878   0.222   5.803   5.302
15001TIP3   OH244879   0.015   5.978   4.239
15001TIP3    H144880   0.017   5.937   4.153
15001TIP3    H244881   0.034   6.070   4.222
15002TIP3   OH244882   9.306   5.818   4.582
15002TIP3    H144883   9.352   5.812   4.666
15002TIP3    H244884   9.246   5.744   4.583
15003TIP3   OH244885   9.482   5.594   5.417
15003TIP3    H144886   9.531   5.582   5.498
15003TIP3    H244887   9.409   5.532   5.422
15004TIP3   OH244888   0.066   4.422   5.206
15004TIP3    H144889  -0.020   4.390   5.178
15004TIP3    H244890   0.047   4.499   5.259
15005TIP3   OH244891   9.819   4.930   5.211
15005TIP3    H144892   9.772   4.948   5.293
15005TIP3    H244893   9.808   5.010   5.160
15006TIP3   OH244894   9.702   4.816   4.722
15006TIP3    H144895   9.607   4.809   4.732
15006TIP3    H244896   9.719   4.787   4.632
15007TIP3   OH244897   9.637   4.958   5.425
15007TIP3    H144898   9.655   5.023   5.493
15007TIP3    H244899   9.622   4.876   5.473
15008TIP3   OH244900   9.672   4.477   4.139
15008TIP3    H144901   9.641   4.417   4.207
15008TIP3    H244902   9.604   4.474   4.072
15009TIP3   OH244903   9.251   4.526   4.550
15009TIP3    H144904   9.272   4.536   4.458
15009TIP3    H244905   9.162   4.560   4.559
15010TIP3   OH244906   9.701   4.724   4.466
15010TIP3    H144907   9.782   4.715   4.416
15010TIP3    H244908   9.633   4.735   4.399
15011TIP3   OH244909   9.542   4.734   4.254
15011TIP3    H144910   9.481   4.685   4.200
15011TIP3    H244911   9.613   4.760   4.194
15012TIP3   OH244912   9.647   5.517   5.636
15012TIP3    H144913   9.726   5.545   5.682
15012TIP3    H244914   9.579   5.516   5.704
15013TIP3   OH244915   9.603   4.453   4.746
15013TIP3    H144916   9.594   4.382   4.810
15013TIP3    H244917   9.681   4.430   4.695
15014TIP3   OH244918   9.774   5.288   4.274
15014TIP3    H144919   9.732   5.202   4.268
15014TIP3    H244920   9.806   5.293   4.363
15015TIP3   OH244921   0.384   5.584   5.327
15015TIP3    H144922   0.415   5.620   5.410
15015TIP3    H244923   0.341   5.657   5.283
15016TIP3   OH244924   9.516   5.280   4.952
15016TIP3    H144925   9.547   5.252   4.866
15016TIP3    H244926   9.552   5.215   5.013
15017TIP3   OH244927   9.397   5.196   5.562
15017TIP3    H144928   9.417   5.187   5.655
15017TIP3    H244929   9.326   5.133   5.547
15018TIP3   OH244930   9.612   5.581   4.567
15018TIP3    H144931   9.610   5.662   4.516
15018TIP3    H244932   9.519   5.561   4.583
15019TIP3   OH244933   9.182   4.888   4.281
15019TIP3    H144934   9.225   4.972   4.295
15019TIP3    H244935   9.104   4.891   4.336
15020TIP3   OH244936   9.790   5.370   4.558
15020TIP3    H144937   9.735   5.448   4.543
15020TIP3    H244938   9.732   5.308   4.601
15021TIP3   OH244939   0.087   5.926   5.043
15021TIP3    H144940   0.123   6.001   4.996
15021TIP3    H244941   0.160   5.894   5.097
15022TIP3   OH244942   9.540   5.825   4.432
15022TIP3    H144943   9.455   5.827   4.475
15022TIP3    H244944   9.571   5.915   4.435
15023TIP3   OH244945   9.606   4.705   5.576
15023TIP3    H144946   9.511   4.711   5.587
15023TIP3    H244947   9.634   4.642   5.643
15024TIP3   OH244948   9.328   5.789   5.203
15024TIP3    H144949   9.376   5.715   5.241
15024TIP3    H244950   9.343   5.861   5.263
15025TIP3   OH244951   9.621   5.431   3.886
15025TIP3    H144952   9.636   5.342   3.855
15025TIP3    H244953   9.600   5.421   3.978
15026TIP3   OH244954   9.564   5.436   4.157
15026TIP3    H144955   9.643   5.401   4.197
15026TIP3    H244956   9.570   5.530   4.171
15027TIP3   OH244957   9.297   5.139   4.359
15027TIP3    H144958   9.230   5.178   4.416
15027TIP3    H244959   9.312   5.204   4.291
15028TIP3   OH244960   0.033   5.689   4.152
15028TIP3    H144961  -0.062   5.688   4.168
15028TIP3    H244962   0.041   5.714   4.060
15029TIP3   OH244963   9.562   5.714   4.172
15029TIP3    H144964   9.533   5.777   4.106
15029TIP3    H244965   9.544   5.757   4.256
15030TIP3   OH244966   9.673   4.432   4.420
15030TIP3    H144967   9.637   4.516   4.452
15030TIP3    H244968   9.756   4.456   4.380
15031TIP3   OH244969   9.289   5.346   4.166
15031TIP3    H144970   9.353   5.416   4.177
15031TIP3    H244971   9.327   5.288   4.100
15032TIP3   OH244972   9.221   4.615   4.303
15032TIP3    H144973   9.230   4.710   4.296
15032TIP3    H244974   9.150   4.593   4.242
15033TIP3   OH244975   9.602   4.338   5.174
15033TIP3    H144976   9.581   4.300   5.089
15033TIP3    H244977   9.605   4.263   5.234
15034TIP3   OH244978   9.160   5.557   4.551
15034TIP3    H144979   9.093   5.589   4.611
15034TIP3    H244980   9.138   5.596   4.467
15035TIP3   OH244981   9.316   6.096   5.624
15035TIP3    H144982   9.399   6.099   5.670
15035TIP3    H244983   9.292   6.004   5.622
15036TIP3   OH244984   0.001   6.073   5.653
15036TIP3    H144985   0.086   6.043   5.685
15036TIP3    H244986  -0.027   6.007   5.590
15037TIP3   OH244987   9.769   5.646   3.805
15037TIP3    H144988   9.714   5.572   3.832
15037TIP3    H244989   9.858   5.611   3.810
15038TIP3   OH244990   9.445   5.503   5.821
15038TIP3    H144991   9.461   5.409   5.831
15038TIP3    H244992   9.358   5.508   5.781
15039TIP3   OH244993   9.420   5.158   4.022
15039TIP3    H144994   9.475   5.126   4.094
15039TIP3    H244995   9.479   5.165   3.948
15040TIP3   OH244996   0.257   5.598   5.589
15040TIP3    H144997   0.204   5.622   5.514
15040TIP3    H244998   0.236   5.505   5.604
15041TIP3   OH244999   9.569   5.235   5.805
15041TIP3    H145000   9.642   5.174   5.789
15041TIP3    H245001   9.587   5.273   5.891
15042TIP3   OH245002   9.634   5.050   4.246
15042TIP3    H145003   9.601   5.011   4.327
15042TIP3    H245004   9.664   4.976   4.194
15043TIP3   OH245005   0.076   5.134   5.487
15043TIP3    H145006  -0.004   5.186   5.494
15043TIP3    H245007   0.122   5.171   5.412
15044TIP3   OH245008   9.727   4.847   4.086
15044TIP3    H145009   9.689   4.841   3.998
15044TIP3    H245010   9.821   4.856   4.071
15045TIP3   OH245011   0.227   4.945   5.600
15045TIP3    H145012   0.239   4.852   5.584
15045TIP3    H245013   0.146   4.967   5.554
15046TIP3   OH245014   0.206   4.735   5.410
15046TIP3    H145015   0.259   4.699   5.339
15046TIP3    H245016   0.125   4.684   5.407
15047TIP3   OH245017   0.201   5.248   5.287
15047TIP3    H145018   0.248   5.206   5.215
15047TIP3    H245019   0.147   5.315   5.245
15048TIP3   OH245020   0.065   5.045   5.809
15048TIP3    H145021   0.011   4.970   5.836
15048TIP3    H245022   0.117   5.011   5.736
15049TIP3   OH245023   9.747   4.806   5.875
15049TIP3    H145024   9.743   4.718   5.838
15049TIP3    H245025   9.776   4.792   5.966
15050TIP3   OH245026   9.536   5.914   3.983
15050TIP3    H145027   9.631   5.917   3.972
15050TIP3    H245028   9.502   5.963   3.908
15051TIP3   OH245029   9.019   5.294   4.203
15051TIP3    H145030   9.110   5.319   4.188
15051TIP3    H245031   9.009   5.209   4.161
15052TIP3   OH245032   8.934   5.907   4.614
15052TIP3    H145033   8.875   5.848   4.567
15052TIP3    H245034   8.975   5.852   4.681
15053TIP3   OH245035   9.067   5.758   4.805
15053TIP3    H145036   9.061   5.685   4.867
15053TIP3    H245037   9.114   5.826   4.853
15054TIP3   OH245038   9.259   5.167   5.170
15054TIP3    H145039   9.252   5.140   5.079
15054TIP3    H245040   9.353   5.169   5.188
15055TIP3   OH245041   9.477   4.855   5.851
15055TIP3    H145042   9.573   4.849   5.850
15055TIP3    H245043   9.449   4.772   5.889
15056TIP3   OH245044   9.428   4.553   5.166
15056TIP3    H145045   9.478   4.472   5.178
15056TIP3    H245046   9.492   4.623   5.178
15057TIP3   OH245047   9.239   4.824   5.251
15057TIP3    H145048   9.293   4.826   5.172
15057TIP3    H245049   9.257   4.908   5.295
15058TIP3   OH245050   9.193   4.359   4.764
15058TIP3    H145051   9.123   4.332   4.823
15058TIP3    H245052   9.156   4.349   4.677
15059TIP3   OH245053   9.436   4.410   5.568
15059TIP3    H145054   9.390   4.398   5.651
15059TIP3    H245055   9.369   4.444   5.508
15060TIP3   OH245056   9.482   5.831   5.642
15060TIP3    H145057   9.390   5.804   5.632
15060TIP3    H245058   9.502   5.814   5.734
15061TIP3   OH245059   9.658   5.866   5.188
15061TIP3    H145060   9.605   5.938   5.154
15061TIP3    H245061   9.743   5.877   5.145
15062TIP3   OH245062   0.325   6.108   5.323
15062TIP3    H145063   0.338   6.102   5.417
15062TIP3    H245064   0.394   6.166   5.292
15063TIP3   OH245065   9.335   6.122   5.216
15063TIP3    H145066   9.248   6.153   5.190
15063TIP3    H245067   9.347   6.157   5.304
15064TIP3   OH245068   9.570   6.101   5.070
15064TIP3    H145069   9.488   6.111   5.119
15064TIP3    H245070   9.551   6.136   4.983
15065TIP3   OH245071   0.184   6.133   4.864
15065TIP3    H145072   0.111   6.151   4.804
15065TIP3    H245073   0.200   6.216   4.908
15066TIP3   OH245074   0.449   6.091   4.900
15066TIP3    H145075   0.355   6.083   4.885
15066TIP3    H245076   0.467   6.185   4.887
15067TIP3   OH245077   9.250   5.913   4.958
15067TIP3    H145078   9.270   5.891   5.049
15067TIP3    H245079   9.319   5.871   4.908
15068TIP3   OH245080   9.443   5.784   4.815
15068TIP3    H145081   9.453   5.703   4.865
15068TIP3    H245082   9.531   5.821   4.811
15069TIP3   OH245083   9.711   5.885   4.815
15069TIP3    H145084   9.728   5.791   4.806
15069TIP3    H245085   9.748   5.909   4.900
15070TIP3   OH245086   9.517   4.250   4.913
15070TIP3    H145087   9.429   4.217   4.928
15070TIP3    H245088   9.573   4.172   4.918
15071TIP3   OH245089   9.331   4.107   4.563
15071TIP3    H145090   9.353   4.165   4.491
15071TIP3    H245091   9.272   4.159   4.618
15072TIP3   OH245092   9.026   5.693   4.358
15072TIP3    H145093   8.948   5.656   4.317
15072TIP3    H245094   9.027   5.785   4.329
15073TIP3   OH245095   9.430   4.279   4.345
15073TIP3    H145096   9.461   4.212   4.286
15073TIP3    H245097   9.510   4.322   4.377
15074TIP3   OH245098   0.008   5.883   3.938
15074TIP3    H145099   0.096   5.910   3.912
15074TIP3    H245100  -0.014   5.813   3.877
15075TIP3   OH245101   9.707   4.529   5.799
15075TIP3    H145102   9.666   4.462   5.854
15075TIP3    H245103   9.799   4.528   5.825
15076TIP3   OH245104   0.144   4.526   5.929
15076TIP3    H145105   0.238   4.535   5.917
15076TIP3    H245106   0.134   4.458   5.995
15077TIP3   OH245107   9.112   5.711   3.990
15077TIP3    H145108   9.110   5.745   4.080
15077TIP3    H245109   9.199   5.672   3.981
15078TIP3   OH245110   0.876   5.785   6.696
15078TIP3    H145111   0.851   5.876   6.680
15078TIP3    H245112   0.802   5.734   6.664
15079TIP3   OH245113   0.881   5.780   7.075
15079TIP3    H145114   0.911   5.756   7.163
15079TIP3    H245115   0.841   5.699   7.041
15080TIP3   OH245116   1.117   6.089   6.760
15080TIP3    H145117   1.108   6.015   6.820
15080TIP3    H245118   1.151   6.160   6.815
15081TIP3   OH245119   0.767   6.549   6.771
15081TIP3    H145120   0.812   6.477   6.726
15081TIP3    H245121   0.752   6.516   6.859
15082TIP3   OH245122   0.668   5.960   7.102
15082TIP3    H145123   0.742   5.906   7.074
15082TIP3    H245124   0.708   6.038   7.140
15083TIP3   OH245125   1.686   5.334   7.123
15083TIP3    H145126   1.715   5.412   7.171
15083TIP3    H245127   1.712   5.351   7.032
15084TIP3   OH245128   1.085   5.513   7.158
15084TIP3    H145129   1.130   5.432   7.182
15084TIP3    H245130   1.057   5.498   7.067
15085TIP3   OH245131   0.461   5.169   7.126
15085TIP3    H145132   0.424   5.248   7.086
15085TIP3    H245133   0.423   5.097   7.075
15086TIP3   OH245134   1.122   5.263   6.746
15086TIP3    H145135   1.189   5.247   6.813
15086TIP3    H245136   1.171   5.297   6.671
15087TIP3   OH245137   0.502   5.578   7.037
15087TIP3    H145138   0.594   5.550   7.041
15087TIP3    H245139   0.457   5.505   6.995
15088TIP3   OH245140   1.759   5.539   7.294
15088TIP3    H145141   1.677   5.585   7.281
15088TIP3    H245142   1.787   5.563   7.383
15089TIP3   OH245143   0.768   6.006   6.567
15089TIP3    H145144   0.732   5.981   6.482
15089TIP3    H245145   0.724   6.088   6.588
15090TIP3   OH245146   1.330   5.267   6.919
15090TIP3    H145147   1.326   5.214   6.999
15090TIP3    H245148   1.386   5.341   6.942
15091TIP3   OH245149   1.189   6.331   6.927
15091TIP3    H145150   1.102   6.319   6.967
15091TIP3    H245151   1.183   6.415   6.882
15092TIP3   OH245152   1.481   5.229   7.286
15092TIP3    H145153   1.396   5.264   7.258
15092TIP3    H245154   1.543   5.261   7.220
15093TIP3   OH245155   0.775   4.869   7.269
15093TIP3    H145156   0.774   4.775   7.286
15093TIP3    H245157   0.706   4.904   7.324
15094TIP3   OH245158   0.894   6.375   6.597
15094TIP3    H145159   0.939   6.293   6.581
15094TIP3    H245160   0.951   6.442   6.561
15095TIP3   OH245161   1.033   6.161   6.508
15095TIP3    H145162   1.006   6.082   6.462
15095TIP3    H245163   1.069   6.129   6.591
15096TIP3   OH245164   1.415   6.245   7.267
15096TIP3    H145165   1.407   6.165   7.214
15096TIP3    H245166   1.404   6.317   7.204
15097TIP3   OH245167   0.709   5.637   6.524
15097TIP3    H145168   0.631   5.685   6.499
15097TIP3    H245169   0.760   5.631   6.443
15098TIP3   OH245170   0.671   5.420   6.245
15098TIP3    H145171   0.736   5.472   6.293
15098TIP3    H245172   0.723   5.356   6.197
15099TIP3   OH245173   1.610   5.880   7.112
15099TIP3    H145174   1.529   5.931   7.121
15099TIP3    H245175   1.642   5.901   7.024
15100TIP3   OH245176   1.057   5.719   6.502
15100TIP3    H145177   1.002   5.743   6.577
15100TIP3    H245178   1.140   5.692   6.540
15101TIP3   OH245179   1.290   5.760   7.411
15101TIP3    H145180   1.293   5.838   7.467
15101TIP3    H245181   1.207   5.768   7.364
15102TIP3   OH245182   0.429   5.677   7.279
15102TIP3    H145183   0.462   5.641   7.197
15102TIP3    H245184   0.485   5.753   7.296
15103TIP3   OH245185   0.949   6.329   7.051
15103TIP3    H145186   0.937   6.400   7.114
15103TIP3    H245187   0.936   6.249   7.102
15104TIP3   OH245188   0.897   5.582   6.324
15104TIP3    H145189   0.955   5.636   6.377
15104TIP3    H245190   0.921   5.602   6.233
15105TIP3   OH245191   0.633   6.266   6.606
15105TIP3    H145192   0.720   6.301   6.624
15105TIP3    H245193   0.590   6.334   6.554
15106TIP3   OH245194   1.412   4.821   6.372
15106TIP3    H145195   1.333   4.838   6.424
15106TIP3    H245196   1.425   4.902   6.322
15107TIP3   OH245197   1.214   6.187   5.922
15107TIP3    H145198   1.220   6.281   5.907
15107TIP3    H245199   1.303   6.155   5.909
15108TIP3   OH245200   1.649   6.585   7.312
15108TIP3    H145201   1.655   6.490   7.326
15108TIP3    H245202   1.571   6.611   7.359
15109TIP3   OH245203   0.781   6.356   7.460
15109TIP3    H145204   0.782   6.447   7.490
15109TIP3    H245205   0.688   6.336   7.447
15110TIP3   OH245206   0.540   6.487   6.423
15110TIP3    H145207   0.518   6.460   6.334
15110TIP3    H245208   0.542   6.583   6.419
15111TIP3   OH245209   0.728   6.402   6.045
15111TIP3    H145210   0.782   6.334   6.004
15111TIP3    H245211   0.766   6.413   6.132
15112TIP3   OH245212   0.785   6.447   6.315
15112TIP3    H145213   0.705   6.444   6.367
15112TIP3    H245214   0.852   6.407   6.371
15113TIP3   OH245215   1.537   5.718   7.588
15113TIP3    H145216   1.464   5.722   7.526
15113TIP3    H245217   1.566   5.627   7.585
15114TIP3   OH245218   0.532   4.952   7.402
15114TIP3    H145219   0.460   4.912   7.353
15114TIP3    H245220   0.531   5.044   7.375
15115TIP3   OH245221   1.076   5.064   7.595
15115TIP3    H145222   1.145   5.039   7.656
15115TIP3    H245223   0.994   5.044   7.641
15116TIP3   OH245224   1.303   5.490   7.507
15116TIP3    H145225   1.264   5.488   7.594
15116TIP3    H245226   1.291   5.581   7.478
15117TIP3   OH245227   0.972   5.629   6.067
15117TIP3    H145228   0.938   5.599   5.983
15117TIP3    H245229   1.056   5.671   6.046
15118TIP3   OH245230   0.683   5.000   6.371
15118TIP3    H145231   0.656   4.999   6.463
15118TIP3    H245232   0.650   4.918   6.335
15119TIP3   OH245233   0.462   5.454   7.429
15119TIP3    H145234   0.412   5.480   7.507
15119TIP3    H245235   0.451   5.527   7.368
15120TIP3   OH245236   0.349   5.342   6.935
15120TIP3    H145237   0.254   5.352   6.927
15120TIP3    H245238   0.376   5.300   6.853
15121TIP3   OH245239   0.846   5.438   6.657
15121TIP3    H145240   0.795   5.508   6.618
15121TIP3    H245241   0.902   5.406   6.586
15122TIP3   OH245242   1.025   5.716   7.749
15122TIP3    H145243   1.001   5.644   7.808
15122TIP3    H245244   1.118   5.731   7.766
15123TIP3   OH245245   1.001   5.464   6.897
15123TIP3    H145246   0.943   5.496   6.827
15123TIP3    H245247   1.039   5.384   6.861
15124TIP3   OH245248   0.344   4.977   6.340
15124TIP3    H145249   0.337   4.973   6.436
15124TIP3    H245250   0.253   4.982   6.310
15125TIP3   OH245251   1.004   5.710   7.322
15125TIP3    H145252   1.042   5.645   7.263
15125TIP3    H245253   0.985   5.661   7.403
15126TIP3   OH245254   0.699   5.181   6.990
15126TIP3    H145255   0.619   5.180   7.043
15126TIP3    H245256   0.770   5.170   7.053
15127TIP3   OH245257   0.393   5.231   6.686
15127TIP3    H145258   0.488   5.242   6.677
15127TIP3    H245259   0.357   5.266   6.605
15128TIP3   OH245260   1.171   5.253   7.198
15128TIP3    H145261   1.139   5.264   7.287
15128TIP3    H245262   1.111   5.188   7.159
15129TIP3   OH245263   0.210   5.288   6.463
15129TIP3    H145264   0.175   5.200   6.452
15129TIP3    H245265   0.270   5.300   6.389
15130TIP3   OH245266   1.343   6.943   7.413
15130TIP3    H145267   1.344   6.961   7.319
15130TIP3    H245268   1.423   6.985   7.447
15131TIP3   OH245269   0.769   5.500   7.089
15131TIP3    H145270   0.840   5.464   7.035
15131TIP3    H245271   0.781   5.459   7.175
15132TIP3   OH245272   0.325   4.991   6.970
15132TIP3    H145273   0.258   4.925   6.986
15132TIP3    H245274   0.374   4.958   6.895
15133TIP3   OH245275   0.743   5.394   7.389
15133TIP3    H145276   0.657   5.434   7.398
15133TIP3    H245277   0.802   5.454   7.433
15134TIP3   OH245278   0.481   5.785   6.463
15134TIP3    H145279   0.410   5.721   6.458
15134TIP3    H245280   0.474   5.822   6.551
15135TIP3   OH245281   1.379   6.028   7.105
15135TIP3    H145282   1.405   6.075   7.025
15135TIP3    H245283   1.297   5.984   7.081
15136TIP3   OH245284   0.937   5.103   6.338
15136TIP3    H145285   0.843   5.087   6.346
15136TIP3    H245286   0.947   5.195   6.362
15137TIP3   OH245287   0.875   6.098   7.478
15137TIP3    H145288   0.907   6.085   7.568
15137TIP3    H245289   0.842   6.187   7.477
15138TIP3   OH245290   1.009   5.351   6.441
15138TIP3    H145291   1.103   5.353   6.458
15138TIP3    H245292   0.993   5.428   6.387
15139TIP3   OH245293   0.631   5.935   6.293
15139TIP3    H145294   0.591   6.021   6.304
15139TIP3    H245295   0.579   5.877   6.349
15140TIP3   OH245296   0.790   5.851   7.790
15140TIP3    H145297   0.732   5.782   7.756
15140TIP3    H245298   0.878   5.823   7.764
15141TIP3   OH245299   1.041   6.381   7.366
15141TIP3    H145300   0.949   6.360   7.383
15141TIP3    H245301   1.072   6.424   7.445
15142TIP3   OH245302   1.446   5.440   6.276
15142TIP3    H145303   1.386   5.391   6.219
15142TIP3    H245304   1.449   5.528   6.238
15143TIP3   OH245305   1.665   6.297   7.355
15143TIP3    H145306   1.570   6.291   7.353
15143TIP3    H245307   1.693   6.266   7.269
15144TIP3   OH245308   1.146   6.257   6.185
15144TIP3    H145309   1.128   6.185   6.246
15144TIP3    H245310   1.162   6.214   6.101
15145TIP3   OH245311   1.145   5.886   7.023
15145TIP3    H145312   1.053   5.862   7.037
15145TIP3    H245313   1.183   5.809   6.980
15146TIP3   OH245314   0.452   5.882   6.710
15146TIP3    H145315   0.440   5.974   6.735
15146TIP3    H245316   0.427   5.833   6.789
15147TIP3   OH245317   0.938   6.096   7.207
15147TIP3    H145318   0.920   6.089   7.301
15147TIP3    H245319   1.013   6.039   7.192
15148TIP3   OH245320   0.904   5.987   6.090
15148TIP3    H145321   0.958   5.964   6.166
15148TIP3    H245322   0.817   5.956   6.113
15149TIP3   OH245323   1.177   6.631   7.260
15149TIP3    H145324   1.105   6.568   7.259
15149TIP3    H245325   1.159   6.689   7.186
15150TIP3   OH245326   1.244   6.464   5.908
15150TIP3    H145327   1.285   6.531   5.853
15150TIP3    H245328   1.164   6.505   5.940
15151TIP3   OH245329   1.066   5.922   6.309
15151TIP3    H145330   1.052   5.855   6.376
15151TIP3    H245331   1.160   5.919   6.292
15152TIP3   OH245332   0.325   5.937   6.117
15152TIP3    H145333   0.346   5.859   6.067
15152TIP3    H245334   0.303   5.904   6.204
15153TIP3   OH245335   1.095   5.303   7.457
15153TIP3    H145336   1.176   5.345   7.487
15153TIP3    H245337   1.088   5.224   7.510
15154TIP3   OH245338   0.976   5.058   6.619
15154TIP3    H145339   0.968   5.077   6.526
15154TIP3    H245340   1.019   5.136   6.655
15155TIP3   OH245341   0.495   6.166   6.316
15155TIP3    H145342   0.401   6.172   6.335
15155TIP3    H245343   0.505   6.205   6.229
15156TIP3   OH245344   0.668   5.237   6.723
15156TIP3    H145345   0.733   5.303   6.701
15156TIP3    H245346   0.678   5.223   6.817
15157TIP3   OH245347   0.937   5.553   7.534
15157TIP3    H145348   0.960   5.604   7.612
15157TIP3    H245349   0.992   5.475   7.539
15158TIP3   OH245350   0.817   4.963   6.824
15158TIP3    H145351   0.813   5.035   6.887
15158TIP3    H245352   0.875   4.995   6.755
15159TIP3   OH245353   0.336   4.973   6.622
15159TIP3    H145354   0.351   5.059   6.662
15159TIP3    H245355   0.422   4.931   6.622
15160TIP3   OH245356   1.573   5.455   7.505
15160TIP3    H145357   1.477   5.448   7.511
15160TIP3    H245358   1.595   5.412   7.422
15161TIP3   OH245359   1.230   5.645   6.899
15161TIP3    H145360   1.156   5.586   6.911
15161TIP3    H245361   1.303   5.603   6.944
15162TIP3   OH245362   1.199   6.605   6.846
15162TIP3    H145363   1.155   6.651   6.774
15162TIP3    H245364   1.292   6.619   6.831
15163TIP3   OH245365   0.466   6.158   6.023
15163TIP3    H145366   0.421   6.078   6.051
15163TIP3    H245367   0.528   6.127   5.956
15164TIP3   OH245368   1.097   6.501   7.607
15164TIP3    H145369   1.089   6.429   7.669
15164TIP3    H245370   1.175   6.548   7.635
15165TIP3   OH245371   0.874   6.212   5.911
15165TIP3    H145372   0.916   6.149   5.970
15165TIP3    H245373   0.928   6.210   5.832
15166TIP3   OH245374   0.727   6.126   7.788
15166TIP3    H145375   0.659   6.107   7.722
15166TIP3    H245376   0.763   6.040   7.810
15167TIP3   OH245377   0.602   5.876   6.025
15167TIP3    H145378   0.603   5.894   6.119
15167TIP3    H245379   0.601   5.781   6.018
15168TIP3   OH245380   1.202   6.131   7.404
15168TIP3    H145381   1.278   6.172   7.364
15168TIP3    H245382   1.131   6.194   7.390
15169TIP3   OH245383   0.295   5.585   6.446
15169TIP3    H145384   0.263   5.532   6.519
15169TIP3    H245385   0.327   5.521   6.383
15170TIP3   OH245386   0.630   5.663   7.662
15170TIP3    H145387   0.542   5.701   7.665
15170TIP3    H245388   0.664   5.686   7.576
15171TIP3   OH245389   0.394   5.384   6.281
15171TIP3    H145390   0.368   5.391   6.189
15171TIP3    H245391   0.489   5.388   6.279
15172TIP3   OH245392   1.075   6.051   7.805
15172TIP3    H145393   1.156   6.033   7.757
15172TIP3    H245394   1.074   5.987   7.876
15173TIP3   OH245395   1.206   5.718   5.944
15173TIP3    H145396   1.190   5.667   5.864
15173TIP3    H245397   1.177   5.806   5.922
15174TIP3   OH245398   0.690   5.427   7.809
15174TIP3    H145399   0.679   5.352   7.750
15174TIP3    H245400   0.661   5.503   7.758
15175TIP3   OH245401   0.673   5.223   7.597
15175TIP3    H145402   0.713   5.267   7.522
15175TIP3    H245403   0.579   5.228   7.581
15176TIP3   OH245404   0.706   5.784   7.426
15176TIP3    H145405   0.796   5.759   7.404
15176TIP3    H245406   0.705   5.879   7.416
15177TIP3   OH245407   1.295   5.733   7.858
15177TIP3    H145408   1.337   5.647   7.870
15177TIP3    H245409   1.364   5.788   7.821
15178TIP3   OH245410   1.331   5.987   7.593
15178TIP3    H145411   1.275   6.038   7.534
15178TIP3    H245412   1.419   6.000   7.559
15179TIP3   OH245413   0.812   4.992   7.670
15179TIP3    H145414   0.764   5.072   7.648
15179TIP3    H245415   0.746   4.923   7.665
15180TIP3   OH245416   0.938   5.501   7.892
15180TIP3    H145417   0.936   5.492   7.988
15180TIP3    H245418   0.852   5.471   7.863
15181TIP3   OH245419   1.175   5.449   7.742
15181TIP3    H145420   1.102   5.449   7.804
15181TIP3    H245421   1.250   5.418   7.794
15182TIP3   OH245422   1.385   5.381   7.898
15182TIP3    H145423   1.415   5.291   7.910
15182TIP3    H245424   1.397   5.422   7.984
15183TIP3   OH245425   0.909   5.002   7.926
15183TIP3    H145426   0.977   4.935   7.926
15183TIP3    H245427   0.869   4.996   7.839
15184TIP3   OH245428   7.504   0.597   0.086
15184TIP3    H145429   7.485   0.527   0.023
15184TIP3    H245430   7.432   0.659   0.077
15185TIP3   OH245431   1.449   6.700   6.805
15185TIP3    H145432   1.479   6.725   6.892
15185TIP3    H245433   1.517   6.734   6.746
15186TIP3   OH245434   1.484   6.709   7.087
15186TIP3    H145435   1.436   6.627   7.080
15186TIP3    H245436   1.557   6.689   7.146
15187TIP3   OH245437   1.521   6.396   7.652
15187TIP3    H145438   1.454   6.397   7.721
15187TIP3    H245439   1.567   6.479   7.662
15188TIP3   OH245440   1.345   5.905   6.282
15188TIP3    H145441   1.412   5.965   6.250
15188TIP3    H245442   1.383   5.864   6.358
15189TIP3   OH245443   1.469   5.773   6.485
15189TIP3    H145444   1.407   5.728   6.542
15189TIP3    H245445   1.536   5.807   6.545
15190TIP3   OH245446   1.523   6.161   6.910
15190TIP3    H145447   1.579   6.096   6.868
15190TIP3    H245448   1.516   6.232   6.847
15191TIP3   OH245449   1.356   6.465   7.106
15191TIP3    H145450   1.287   6.497   7.165
15191TIP3    H245451   1.309   6.414   7.041
15192TIP3   OH245452   1.408   5.681   6.130
15192TIP3    H145453   1.339   5.679   6.063
15192TIP3    H245454   1.383   5.754   6.187
15193TIP3   OH245455   1.275   5.352   6.085
15193TIP3    H145456   1.241   5.388   6.003
15193TIP3    H245457   1.254   5.259   6.081
15194TIP3   OH245458   1.284   5.625   6.631
15194TIP3    H145459   1.295   5.530   6.623
15194TIP3    H245460   1.272   5.640   6.725
15195TIP3   OH245461   1.575   6.050   7.483
15195TIP3    H145462   1.641   5.980   7.479
15195TIP3    H245463   1.608   6.118   7.425
15196TIP3   OH245464   1.758   5.855   7.503
15196TIP3    H145465   1.689   5.811   7.552
15196TIP3    H245466   1.835   5.798   7.514
15197TIP3   OH245467   1.223   5.087   6.076
15197TIP3    H145468   1.301   5.056   6.122
15197TIP3    H245469   1.155   5.024   6.097
15198TIP3   OH245470   1.284   5.340   6.523
15198TIP3    H145471   1.319   5.253   6.541
15198TIP3    H245472   1.340   5.375   6.454
15199TIP3   OH245473   1.445   5.522   7.019
15199TIP3    H145474   1.528   5.543   6.976
15199TIP3    H245475   1.456   5.552   7.109
15200TIP3   OH245476   1.508   5.662   7.250
15200TIP3    H145477   1.433   5.695   7.300
15200TIP3    H245478   1.545   5.739   7.208
15201TIP3   OH245479   1.951   5.230   7.809
15201TIP3    H145480   2.016   5.180   7.760
15201TIP3    H245481   1.937   5.309   7.757
15202TIP3   OH245482   1.389   5.091   6.566
15202TIP3    H145483   1.440   5.078   6.645
15202TIP3    H245484   1.331   5.015   6.561
15203TIP3   OH245485   1.842   5.397   7.616
15203TIP3    H145486   1.772   5.430   7.673
15203TIP3    H245487   1.800   5.327   7.565
15204TIP3   OH245488   1.473   5.028   6.191
15204TIP3    H145489   1.511   4.954   6.143
15204TIP3    H245490   1.540   5.097   6.187
15205TIP3   OH245491   1.036   6.564   6.461
15205TIP3    H145492   1.083   6.545   6.380
15205TIP3    H245493   1.094   6.623   6.509
15206TIP3   OH245494   0.790   6.617   7.539
15206TIP3    H145495   0.812   6.634   7.631
15206TIP3    H245496   0.845   6.677   7.490
15207TIP3   OH245497   0.941   6.801   7.393
15207TIP3    H145498   0.996   6.740   7.344
15207TIP3    H245499   1.001   6.844   7.454
15208TIP3   OH245500   1.731   5.153   7.490
15208TIP3    H145501   1.641   5.149   7.458
15208TIP3    H245502   1.765   5.064   7.479
15209TIP3   OH245503   0.661   6.693   7.035
15209TIP3    H145504   0.565   6.693   7.034
15209TIP3    H245505   0.684   6.770   7.087
15210TIP3   OH245506   0.917   6.618   7.131
15210TIP3    H145507   0.834   6.620   7.085
15210TIP3    H245508   0.974   6.675   7.080
15211TIP3   OH245509   1.127   6.791   7.038
15211TIP3    H145510   1.119   6.875   6.993
15211TIP3    H245511   1.159   6.731   6.970
15212TIP3   OH245512   0.935   5.065   7.105
15212TIP3    H145513   0.896   4.996   7.159
15212TIP3    H245514   1.011   5.024   7.064
15213TIP3   OH245515   1.461   4.949   7.014
15213TIP3    H145516   1.500   4.999   6.942
15213TIP3    H245517   1.368   4.969   7.009
15214TIP3   OH245518   1.559   5.053   6.778
15214TIP3    H145519   1.628   4.998   6.741
15214TIP3    H245520   1.589   5.142   6.765
15215TIP3   OH245521   0.635   4.819   7.006
15215TIP3    H145522   0.694   4.864   6.946
15215TIP3    H245523   0.667   4.843   7.093
15216TIP3   OH245524   1.174   4.954   6.992
15216TIP3    H145525   1.180   4.919   6.903
15216TIP3    H245526   1.163   4.877   7.047
15217TIP3   OH245527   1.206   4.877   6.554
15217TIP3    H145528   1.119   4.918   6.562
15217TIP3    H245529   1.197   4.793   6.600
15218TIP3   OH245530   0.122   4.731   6.577
15218TIP3    H145531   0.125   4.714   6.483
15218TIP3    H245532   0.155   4.821   6.586
15219TIP3   OH245533   0.611   4.983   6.639
15219TIP3    H145534   0.668   4.932   6.696
15219TIP3    H245535   0.632   5.074   6.661
15220TIP3   OH245536   0.478   6.419   6.164
15220TIP3    H145537   0.564   6.415   6.122
15220TIP3    H245538   0.417   6.389   6.096
15221TIP3   OH245539   1.178   6.522   6.228
15221TIP3    H145540   1.173   6.427   6.218
15221TIP3    H245541   1.138   6.557   6.149
15222TIP3   OH245542   7.176   0.410   0.122
15222TIP3    H145543   7.258   0.405   0.073
15222TIP3    H245544   7.190   0.355   0.199
15223TIP3   OH245545   1.471   5.116   7.925
15223TIP3    H145546   1.490   5.086   8.014
15223TIP3    H245547   1.556   5.116   7.881
15224TIP3   OH245548   1.407   6.674   7.415
15224TIP3    H145549   1.331   6.637   7.371
15224TIP3    H245550   1.387   6.767   7.422
15225TIP3   OH245551   2.673   6.043   6.183
15225TIP3    H145552   2.646   6.133   6.164
15225TIP3    H245553   2.601   5.990   6.150
15226TIP3   OH245554   2.671   6.041   6.566
15226TIP3    H145555   2.704   6.011   6.650
15226TIP3    H245556   2.632   5.964   6.526
15227TIP3   OH245557   1.973   5.936   6.931
15227TIP3    H145558   2.000   5.867   6.993
15227TIP3    H245559   2.049   5.993   6.925
15228TIP3   OH245560   2.916   6.345   6.246
15228TIP3    H145561   2.902   6.272   6.306
15228TIP3    H245562   2.946   6.416   6.302
15229TIP3   OH245563   1.944   6.344   6.655
15229TIP3    H145564   1.933   6.249   6.657
15229TIP3    H245565   2.039   6.357   6.651
15230TIP3   OH245566   1.648   5.552   6.439
15230TIP3    H145567   1.601   5.635   6.453
15230TIP3    H245568   1.582   5.493   6.403
15231TIP3   OH245569   1.712   5.835   6.610
15231TIP3    H145570   1.756   5.759   6.648
15231TIP3    H245571   1.769   5.863   6.539
15232TIP3   OH245572   2.567   6.804   6.263
15232TIP3    H145573   2.611   6.737   6.211
15232TIP3    H245574   2.562   6.766   6.351
15233TIP3   OH245575   2.475   6.268   6.611
15233TIP3    H145576   2.506   6.189   6.566
15233TIP3    H245577   2.556   6.314   6.635
15234TIP3   OH245578   3.483   5.584   6.608
15234TIP3    H145579   3.509   5.665   6.653
15234TIP3    H245580   3.508   5.598   6.517
15235TIP3   OH245581   2.885   5.766   6.644
15235TIP3    H145582   2.928   5.683   6.664
15235TIP3    H245583   2.853   5.755   6.554
15236TIP3   OH245584   2.219   5.429   6.607
15236TIP3    H145585   2.202   5.502   6.548
15236TIP3    H245586   2.175   5.354   6.567
15237TIP3   OH245587   2.918   5.522   6.232
15237TIP3    H145588   2.985   5.504   6.298
15237TIP3    H245589   2.967   5.553   6.156
15238TIP3   OH245590   1.858   5.629   6.715
15238TIP3    H145591   1.938   5.612   6.765
15238TIP3    H245592   1.867   5.575   6.637
15239TIP3   OH245593   2.298   5.827   6.510
15239TIP3    H145594   2.390   5.804   6.523
15239TIP3    H245595   2.257   5.746   6.478
15240TIP3   OH245596   3.546   5.785   6.799
15240TIP3    H145597   3.471   5.837   6.771
15240TIP3    H245598   3.586   5.835   6.870
15241TIP3   OH245599   2.216   5.412   7.044
15241TIP3    H145600   2.158   5.448   6.977
15241TIP3    H245601   2.169   5.425   7.126
15242TIP3   OH245602   2.565   6.264   6.054
15242TIP3    H145603   2.525   6.237   5.971
15242TIP3    H245604   2.521   6.346   6.076
15243TIP3   OH245605   2.326   6.189   6.839
15243TIP3    H145606   2.263   6.250   6.879
15243TIP3    H245607   2.367   6.239   6.769
15244TIP3   OH245608   3.126   5.524   6.404
15244TIP3    H145609   3.131   5.460   6.475
15244TIP3    H245610   3.184   5.595   6.431
15245TIP3   OH245611   2.091   5.528   6.828
15245TIP3    H145612   2.151   5.598   6.854
15245TIP3    H245613   2.135   5.485   6.754
15246TIP3   OH245614   2.149   6.381   6.939
15246TIP3    H145615   2.126   6.465   6.899
15246TIP3    H245616   2.075   6.360   6.996
15247TIP3   OH245617   1.547   6.071   6.173
15247TIP3    H145618   1.508   6.096   6.089
15247TIP3    H245619   1.580   6.153   6.209
15248TIP3   OH245620   2.986   6.588   6.416
15248TIP3    H145621   2.898   6.576   6.454
15248TIP3    H245622   2.980   6.671   6.369
15249TIP3   OH245623   3.265   5.503   6.780
15249TIP3    H145624   3.181   5.510   6.736
15249TIP3    H245625   3.330   5.524   6.713
15250TIP3   OH245626   2.574   5.130   6.759
15250TIP3    H145627   2.564   5.036   6.774
15250TIP3    H245628   2.499   5.169   6.804
15251TIP3   OH245629   2.691   6.634   6.085
15251TIP3    H145630   2.735   6.551   6.069
15251TIP3    H245631   2.749   6.700   6.047
15252TIP3   OH245632   2.830   6.418   5.995
15252TIP3    H145633   2.798   6.340   5.950
15252TIP3    H245634   2.866   6.385   6.078
15253TIP3   OH245635   3.214   6.500   6.754
15253TIP3    H145636   3.202   6.422   6.700
15253TIP3    H245637   3.197   6.574   6.695
15254TIP3   OH245638   2.505   5.897   6.011
15254TIP3    H145639   2.426   5.944   5.988
15254TIP3    H245640   2.553   5.887   5.929
15255TIP3   OH245641   2.465   5.677   5.732
15255TIP3    H145642   2.532   5.728   5.779
15255TIP3    H245643   2.515   5.612   5.683
15256TIP3   OH245644   3.408   6.140   6.602
15256TIP3    H145645   3.325   6.187   6.609
15256TIP3    H245646   3.438   6.158   6.513
15257TIP3   OH245647   2.853   5.977   5.988
15257TIP3    H145648   2.797   6.000   6.063
15257TIP3    H245649   2.936   5.949   6.027
15258TIP3   OH245650   3.089   6.020   6.883
15258TIP3    H145651   3.088   6.096   6.941
15258TIP3    H245652   2.999   6.012   6.852
15259TIP3   OH245653   2.087   5.974   6.402
15259TIP3    H145654   2.043   5.918   6.337
15259TIP3    H245655   2.161   5.922   6.432
15260TIP3   OH245656   2.217   6.387   6.549
15260TIP3    H145657   2.192   6.342   6.468
15260TIP3    H245658   2.304   6.354   6.569
15261TIP3   OH245659   2.221   5.946   6.755
15261TIP3    H145660   2.254   5.922   6.669
15261TIP3    H245661   2.265   6.028   6.776
15262TIP3   OH245662   2.744   6.584   6.535
15262TIP3    H145663   2.734   6.660   6.591
15262TIP3    H245664   2.732   6.509   6.593
15263TIP3   OH245665   2.355   6.504   7.078
15263TIP3    H145666   2.299   6.564   7.128
15263TIP3    H245667   2.294   6.448   7.032
15264TIP3   OH245668   2.693   5.839   5.810
15264TIP3    H145669   2.751   5.893   5.863
15264TIP3    H245670   2.717   5.859   5.720
15265TIP3   OH245671   2.109   6.065   7.176
15265TIP3    H145672   2.118   6.145   7.227
15265TIP3    H245673   2.019   6.037   7.190
15266TIP3   OH245674   2.435   6.516   6.088
15266TIP3    H145675   2.514   6.566   6.105
15266TIP3    H245676   2.375   6.579   6.047
15267TIP3   OH245677   2.149   6.673   7.168
15267TIP3    H145678   2.118   6.666   7.078
15267TIP3    H245679   2.073   6.650   7.222
15268TIP3   OH245680   3.211   5.078   5.859
15268TIP3    H145681   3.128   5.084   5.906
15268TIP3    H245682   3.217   5.159   5.809
15269TIP3   OH245683   1.948   5.818   6.210
15269TIP3    H145684   1.884   5.858   6.151
15269TIP3    H245685   1.917   5.728   6.220
15270TIP3   OH245686   3.009   6.444   5.408
15270TIP3    H145687   3.016   6.538   5.394
15270TIP3    H245688   3.099   6.412   5.395
15271TIP3   OH245689   1.733   6.198   7.114
15271TIP3    H145690   1.671   6.173   7.046
15271TIP3    H245691   1.772   6.115   7.143
15272TIP3   OH245692   1.587   6.397   6.743
15272TIP3    H145693   1.681   6.379   6.734
15272TIP3    H245694   1.582   6.470   6.805
15273TIP3   OH245695   3.449   6.842   6.803
15273TIP3    H145696   3.451   6.747   6.813
15273TIP3    H245697   3.368   6.869   6.847
15274TIP3   OH245698   2.553   6.634   6.938
15274TIP3    H145699   2.555   6.724   6.969
15274TIP3    H245700   2.485   6.591   6.990
15275TIP3   OH245701   2.313   6.760   5.889
15275TIP3    H145702   2.271   6.739   5.806
15275TIP3    H245703   2.284   6.849   5.909
15276TIP3   OH245704   1.754   6.608   6.276
15276TIP3    H145705   1.803   6.600   6.358
15276TIP3    H245706   1.702   6.528   6.272
15277TIP3   OH245707   2.520   6.659   5.531
15277TIP3    H145708   2.576   6.592   5.493
15277TIP3    H245709   2.552   6.669   5.620
15278TIP3   OH245710   2.567   6.709   5.803
15278TIP3    H145711   2.480   6.717   5.843
15278TIP3    H245712   2.620   6.665   5.869
15279TIP3   OH245713   1.935   6.385   7.108
15279TIP3    H145714   1.988   6.367   7.185
15279TIP3    H245715   1.864   6.321   7.111
15280TIP3   OH245716   2.333   5.208   6.886
15280TIP3    H145717   2.248   5.174   6.859
15280TIP3    H245718   2.313   5.288   6.934
15281TIP3   OH245719   2.869   5.322   7.082
15281TIP3    H145720   2.936   5.295   7.145
15281TIP3    H245721   2.786   5.302   7.125
15282TIP3   OH245722   2.770   5.887   5.555
15282TIP3    H145723   2.734   5.856   5.472
15282TIP3    H245724   2.853   5.929   5.531
15283TIP3   OH245725   2.478   5.263   5.858
15283TIP3    H145726   2.447   5.257   5.948
15283TIP3    H245727   2.470   5.174   5.823
15284TIP3   OH245728   2.266   5.724   6.906
15284TIP3    H145729   2.219   5.742   6.988
15284TIP3    H245730   2.252   5.802   6.853
15285TIP3   OH245731   2.149   5.608   6.418
15285TIP3    H145732   2.060   5.582   6.438
15285TIP3    H245733   2.167   5.570   6.332
15286TIP3   OH245734   2.644   5.697   6.147
15286TIP3    H145735   2.591   5.765   6.105
15286TIP3    H245736   2.698   5.662   6.076
15287TIP3   OH245737   2.805   5.971   7.228
15287TIP3    H145738   2.780   5.904   7.291
15287TIP3    H245739   2.891   6.001   7.258
15288TIP3   OH245740   2.800   5.723   6.382
15288TIP3    H145741   2.738   5.752   6.315
15288TIP3    H245742   2.837   5.642   6.346
15289TIP3   OH245743   2.085   5.750   7.118
15289TIP3    H145744   2.117   5.810   7.186
15289TIP3    H245745   2.075   5.666   7.163
15290TIP3   OH245746   2.137   5.228   5.824
15290TIP3    H145747   2.135   5.223   5.919
15290TIP3    H245748   2.057   5.276   5.800
15291TIP3   OH245749   1.681   5.276   6.694
15291TIP3    H145750   1.755   5.305   6.747
15291TIP3    H245751   1.721   5.239   6.615
15292TIP3   OH245752   1.654   5.256   6.213
15292TIP3    H145753   1.702   5.289   6.137
15292TIP3    H245754   1.594   5.327   6.236
15293TIP3   OH245755   2.812   5.968   6.808
15293TIP3    H145756   2.846   5.900   6.750
15293TIP3    H245757   2.782   5.920   6.885
15294TIP3   OH245758   2.480   5.436   6.485
15294TIP3    H145759   2.398   5.429   6.534
15294TIP3    H245760   2.548   5.427   6.550
15295TIP3   OH245761   1.913   5.484   6.489
15295TIP3    H145762   1.821   5.490   6.462
15295TIP3    H245763   1.939   5.395   6.467
15296TIP3   OH245764   2.183   5.485   6.177
15296TIP3    H145765   2.276   5.495   6.159
15296TIP3    H245766   2.140   5.506   6.093
15297TIP3   OH245767   2.974   5.505   6.690
15297TIP3    H145768   2.934   5.517   6.776
15297TIP3    H245769   2.916   5.445   6.644
15298TIP3   OH245770   2.021   5.520   5.952
15298TIP3    H145771   1.950   5.472   5.908
15298TIP3    H245772   2.075   5.554   5.881
15299TIP3   OH245773   3.141   7.197   6.900
15299TIP3    H145774   3.139   7.217   6.807
15299TIP3    H245775   3.218   7.243   6.932
15300TIP3   OH245776   2.098   6.311   7.325
15300TIP3    H145777   2.179   6.335   7.371
15300TIP3    H245778   2.034   6.300   7.395
15301TIP3   OH245779   2.563   5.759   6.580
15301TIP3    H145780   2.631   5.717   6.528
15301TIP3    H245781   2.569   5.717   6.666
15302TIP3   OH245782   2.085   5.246   6.455
15302TIP3    H145783   2.053   5.169   6.502
15302TIP3    H245784   2.141   5.210   6.386
15303TIP3   OH245785   2.538   5.657   6.865
15303TIP3    H145786   2.449   5.690   6.880
15303TIP3    H245787   2.594   5.716   6.915
15304TIP3   OH245788   2.270   6.048   5.963
15304TIP3    H145789   2.203   5.981   5.951
15304TIP3    H245790   2.258   6.080   6.052
15305TIP3   OH245791   3.176   6.283   6.591
15305TIP3    H145792   3.199   6.331   6.512
15305TIP3    H245793   3.093   6.239   6.570
15306TIP3   OH245794   2.730   5.367   5.817
15306TIP3    H145795   2.638   5.345   5.831
15306TIP3    H245796   2.739   5.455   5.851
15307TIP3   OH245797   2.681   6.368   6.960
15307TIP3    H145798   2.695   6.336   7.049
15307TIP3    H245799   2.636   6.452   6.972
15308TIP3   OH245800   2.804   5.609   5.931
15308TIP3    H145801   2.899   5.609   5.945
15308TIP3    H245802   2.788   5.684   5.875
15309TIP3   OH245803   1.969   6.068   6.638
15309TIP3    H145804   2.006   6.040   6.555
15309TIP3    H245805   2.006   6.008   6.703
15310TIP3   OH245806   2.418   6.197   5.784
15310TIP3    H145807   2.374   6.282   5.790
15310TIP3    H245808   2.368   6.140   5.842
15311TIP3   OH245809   1.847   5.990   7.255
15311TIP3    H145810   1.874   5.980   7.347
15311TIP3    H245811   1.783   5.921   7.241
15312TIP3   OH245812   2.568   6.103   7.268
15312TIP3    H145813   2.505   6.042   7.230
15312TIP3    H245814   2.653   6.070   7.239
15313TIP3   OH245815   2.835   6.634   6.853
15313TIP3    H145816   2.741   6.621   6.865
15313TIP3    H245817   2.864   6.679   6.932
15314TIP3   OH245818   3.245   5.696   5.761
15314TIP3    H145819   3.185   5.647   5.705
15314TIP3    H245820   3.245   5.784   5.724
15315TIP3   OH245821   3.462   6.554   6.841
15315TIP3    H145822   3.367   6.549   6.838
15315TIP3    H245823   3.491   6.524   6.755
15316TIP3   OH245824   2.945   6.513   5.672
15316TIP3    H145825   2.922   6.443   5.734
15316TIP3    H245826   2.958   6.468   5.589
15317TIP3   OH245827   2.941   6.142   6.510
15317TIP3    H145828   2.849   6.119   6.526
15317TIP3    H245829   2.978   6.065   6.467
15318TIP3   OH245830   2.067   6.373   6.265
15318TIP3    H145831   2.070   6.452   6.210
15318TIP3    H245832   1.974   6.352   6.271
15319TIP3   OH245833   1.629   5.679   5.966
15319TIP3    H145834   1.679   5.758   5.986
15319TIP3    H245835   1.556   5.680   6.027
15320TIP3   OH245836   2.207   6.139   6.210
15320TIP3    H145837   2.174   6.227   6.228
15320TIP3    H245838   2.175   6.085   6.282
15321TIP3   OH245839   2.340   6.717   6.734
15321TIP3    H145840   2.380   6.786   6.682
15321TIP3    H245841   2.412   6.678   6.783
15322TIP3   OH245842   1.986   6.614   6.116
15322TIP3    H145843   1.902   6.618   6.163
15322TIP3    H245844   2.019   6.704   6.118
15323TIP3   OH245845   2.730   6.350   6.692
15323TIP3    H145846   2.719   6.349   6.787
15323TIP3    H245847   2.804   6.292   6.675
15324TIP3   OH245848   2.700   6.244   5.578
15324TIP3    H145849   2.755   6.220   5.652
15324TIP3    H245850   2.612   6.214   5.602
15325TIP3   OH245851   2.974   6.886   6.744
15325TIP3    H145852   2.900   6.825   6.741
15325TIP3    H245853   2.958   6.947   6.672
15326TIP3   OH245854   3.040   6.721   5.394
15326TIP3    H145855   3.081   6.790   5.341
15326TIP3    H245856   2.960   6.761   5.428
15327TIP3   OH245857   2.061   5.491   7.261
15327TIP3    H145858   1.969   5.503   7.282
15327TIP3    H245859   2.097   5.440   7.333
15328TIP3   OH245860   2.862   6.179   5.794
15328TIP3    H145861   2.847   6.113   5.862
15328TIP3    H245862   2.956   6.176   5.778
15329TIP3   OH245863   1.778   6.580   6.896
15329TIP3    H145864   1.825   6.499   6.915
15329TIP3    H245865   1.807   6.641   6.964
15330TIP3   OH245866   2.065   6.222   5.575
15330TIP3    H145867   2.082   6.134   5.543
15330TIP3    H245868   2.047   6.210   5.669
15331TIP3   OH245869   2.011   6.230   5.849
15331TIP3    H145870   2.084   6.197   5.901
15331TIP3    H245871   2.018   6.325   5.856
15332TIP3   OH245872   1.747   5.922   6.048
15332TIP3    H145873   1.683   5.964   6.106
15332TIP3    H245874   1.766   5.989   5.982
15333TIP3   OH245875   2.895   5.559   6.954
15333TIP3    H145876   2.971   5.582   7.008
15333TIP3    H245877   2.865   5.475   6.989
15334TIP3   OH245878   2.753   5.326   6.107
15334TIP3    H145879   2.761   5.331   6.012
15334TIP3    H245880   2.808   5.397   6.139
15335TIP3   OH245881   2.276   6.428   5.796
15335TIP3    H145882   2.191   6.454   5.832
15335TIP3    H245883   2.295   6.494   5.729
15336TIP3   OH245884   2.464   5.492   6.211
15336TIP3    H145885   2.531   5.557   6.189
15336TIP3    H245886   2.470   5.482   6.306
15337TIP3   OH245887   2.732   5.808   7.011
15337TIP3    H145888   2.746   5.859   7.091
15337TIP3    H245889   2.783   5.728   7.025
15338TIP3   OH245890   2.613   5.219   6.313
15338TIP3    H145891   2.606   5.294   6.373
15338TIP3    H245892   2.667   5.252   6.241
15339TIP3   OH245893   2.020   6.504   5.861
15339TIP3    H145894   1.991   6.571   5.799
15339TIP3    H245895   2.005   6.544   5.947
15340TIP3   OH245896   2.125   5.216   6.100
15340TIP3    H145897   2.119   5.304   6.138
15340TIP3    H245898   2.217   5.192   6.107
15341TIP3   OH245899   3.325   5.702   7.007
15341TIP3    H145900   3.260   5.654   6.956
15341TIP3    H245901   3.399   5.712   6.948
15342TIP3   OH245902   3.027   5.901   6.386
15342TIP3    H145903   2.951   5.844   6.395
15342TIP3    H245904   3.097   5.856   6.432
15343TIP3   OH245905   1.742   6.134   5.852
15343TIP3    H145906   1.808   6.202   5.866
15343TIP3    H245907   1.782   6.075   5.788
15344TIP3   OH245908   1.683   5.409   5.990
15344TIP3    H145909   1.683   5.504   5.983
15344TIP3    H245910   1.605   5.380   5.943
15345TIP3   OH245911   2.995   6.861   6.333
15345TIP3    H145912   2.951   6.906   6.261
15345TIP3    H245913   3.089   6.876   6.316
15346TIP3   OH245914   2.069   5.126   6.862
15346TIP3    H145915   2.040   5.094   6.777
15346TIP3    H245916   2.061   5.050   6.921
15347TIP3   OH245917   1.614   6.354   6.244
15347TIP3    H145918   1.539   6.377   6.298
15347TIP3    H245919   1.591   6.386   6.157
15348TIP3   OH245920   1.768   6.883   7.314
15348TIP3    H145921   1.853   6.883   7.359
15348TIP3    H245922   1.743   6.791   7.310
15349TIP3   OH245923   2.252   6.855   7.351
15349TIP3    H145924   2.343   6.830   7.367
15349TIP3    H245925   2.223   6.796   7.282
15350TIP3   OH245926   2.231   6.424   5.489
15350TIP3    H145927   2.174   6.357   5.526
15350TIP3    H245928   2.306   6.376   5.456
15351TIP3   OH245929   2.888   6.758   7.094
15351TIP3    H145930   2.877   6.689   7.159
15351TIP3    H245931   2.965   6.807   7.123
15352TIP3   OH245932   2.668   6.468   5.398
15352TIP3    H145933   2.709   6.405   5.457
15352TIP3    H245934   2.723   6.467   5.320
15353TIP3   OH245935   1.897   6.294   7.513
15353TIP3    H145936   1.919   6.202   7.528
15353TIP3    H245937   1.812   6.292   7.470
15354TIP3   OH245938   1.877   5.944   5.708
15354TIP3    H145939   1.927   5.908   5.781
15354TIP3    H245940   1.940   5.950   5.636
15355TIP3   OH245941   2.507   6.377   7.286
15355TIP3    H145942   2.463   6.391   7.202
15355TIP3    H245943   2.536   6.286   7.284
15356TIP3   OH245944   2.380   6.140   5.516
15356TIP3    H145945   2.386   6.155   5.610
15356TIP3    H245946   2.384   6.045   5.507
15357TIP3   OH245947   3.000   6.386   6.898
15357TIP3    H145948   3.072   6.430   6.853
15357TIP3    H245949   2.925   6.443   6.884
15358TIP3   OH245950   2.022   6.028   7.495
15358TIP3    H145951   2.078   5.950   7.486
15358TIP3    H245952   2.038   6.059   7.584
15359TIP3   OH245953   2.083   5.845   5.930
15359TIP3    H145954   2.059   5.803   6.013
15359TIP3    H245955   2.120   5.774   5.877
15360TIP3   OH245956   2.351   5.914   7.155
15360TIP3    H145957   2.274   5.971   7.160
15360TIP3    H245958   2.400   5.946   7.079
15361TIP3   OH245959   2.185   5.642   5.769
15361TIP3    H145960   2.157   5.641   5.677
15361TIP3    H245961   2.280   5.645   5.765
15362TIP3   OH245962   2.869   6.315   7.293
15362TIP3    H145963   2.952   6.299   7.247
15362TIP3    H245964   2.867   6.250   7.363
15363TIP3   OH245965   3.003   5.975   5.430
15363TIP3    H145966   2.986   5.924   5.351
15363TIP3    H245967   2.973   6.063   5.408
15364TIP3   OH245968   2.474   5.699   7.283
15364TIP3    H145969   2.475   5.618   7.232
15364TIP3    H245970   2.430   5.763   7.227
15365TIP3   OH245971   2.476   5.486   7.087
15365TIP3    H145972   2.503   5.526   7.004
15365TIP3    H245973   2.384   5.463   7.074
15366TIP3   OH245974   2.507   6.025   6.962
15366TIP3    H145975   2.589   6.027   6.912
15366TIP3    H245976   2.451   6.089   6.919
15367TIP3   OH245977   3.131   6.242   7.082
15367TIP3    H145978   3.069   6.289   7.027
15367TIP3    H245979   3.217   6.259   7.042
15368TIP3   OH245980   2.345   5.822   7.503
15368TIP3    H145981   2.277   5.760   7.527
15368TIP3    H245982   2.387   5.784   7.426
15369TIP3   OH245983   2.611   5.252   7.154
15369TIP3    H145984   2.563   5.334   7.136
15369TIP3    H245985   2.544   5.184   7.148
15370TIP3   OH245986   2.733   5.759   7.371
15370TIP3    H145987   2.743   5.724   7.460
15370TIP3    H245988   2.644   5.735   7.346
15371TIP3   OH245989   3.003   5.708   7.252
15371TIP3    H145990   2.912   5.735   7.261
15371TIP3    H245991   3.017   5.645   7.323
15372TIP3   OH245992   3.242   5.640   7.382
15372TIP3    H145993   3.227   5.546   7.393
15372TIP3    H245994   3.197   5.680   7.457
15373TIP3   OH245995   2.197   5.591   7.562
15373TIP3    H145996   2.201   5.500   7.533
15373TIP3    H245997   2.223   5.588   7.654
15374TIP3   OH245998   2.673   5.232   7.426
15374TIP3    H145999   2.761   5.194   7.426
15374TIP3    H246000   2.652   5.245   7.333
15375TIP3   OH246001   1.992   6.708   5.674
15375TIP3    H146002   2.086   6.699   5.659
15375TIP3    H246003   1.959   6.753   5.596
15376TIP3   OH246004   1.473   6.084   5.890
15376TIP3    H146005   1.565   6.107   5.877
15376TIP3    H246006   1.465   5.997   5.851
15377TIP3   OH246007   1.382   6.695   6.305
15377TIP3    H146008   1.317   6.635   6.269
15377TIP3    H246009   1.429   6.643   6.371
15378TIP3   OH246010   1.519   6.552   6.496
15378TIP3    H146011   1.511   6.474   6.551
15378TIP3    H246012   1.571   6.613   6.549
15379TIP3   OH246013   3.247   6.954   6.291
15379TIP3    H146014   3.275   6.983   6.377
15379TIP3    H246015   3.311   6.992   6.231
15380TIP3   OH246016   3.278   6.967   6.574
15380TIP3    H146017   3.232   6.884   6.567
15380TIP3    H246018   3.354   6.948   6.630
15381TIP3   OH246019   3.323   6.648   7.147
15381TIP3    H146020   3.251   6.653   7.210
15381TIP3    H246021   3.364   6.734   7.151
15382TIP3   OH246022   3.141   6.161   5.768
15382TIP3    H146023   3.209   6.222   5.737
15382TIP3    H246024   3.180   6.120   5.845
15383TIP3   OH246025   3.266   6.029   5.972
15383TIP3    H146026   3.202   5.984   6.027
15383TIP3    H246027   3.330   6.064   6.033
15384TIP3   OH246028   3.323   6.419   6.401
15384TIP3    H146029   3.373   6.353   6.354
15384TIP3    H246030   3.313   6.490   6.338
15385TIP3   OH246031   3.152   6.721   6.596
15385TIP3    H146032   3.083   6.759   6.650
15385TIP3    H246033   3.106   6.671   6.529
15386TIP3   OH246034   3.203   5.938   5.616
15386TIP3    H146035   3.135   5.935   5.549
15386TIP3    H246036   3.178   6.011   5.673
15387TIP3   OH246037   3.074   5.606   5.571
15387TIP3    H146038   3.034   5.640   5.490
15387TIP3    H246039   3.051   5.513   5.571
15388TIP3   OH246040   3.082   5.881   6.117
15388TIP3    H146041   3.089   5.786   6.108
15388TIP3    H246042   3.069   5.894   6.211
15389TIP3   OH246043   1.710   5.962   6.859
15389TIP3    H146044   1.707   5.928   6.769
15389TIP3    H246045   1.803   5.961   6.881
15390TIP3   OH246046   3.372   6.310   6.973
15390TIP3    H146047   3.441   6.243   6.967
15390TIP3    H246048   3.398   6.376   6.909
15391TIP3   OH246049   3.542   6.101   7.007
15391TIP3    H146050   3.476   6.033   7.015
15391TIP3    H246051   3.625   6.055   7.017
15392TIP3   OH246052   3.017   5.342   5.568
15392TIP3    H146053   3.096   5.310   5.611
15392TIP3    H246054   2.954   5.270   5.577
15393TIP3   OH246055   3.081   5.597   6.011
15393TIP3    H146056   3.116   5.510   6.030
15393TIP3    H246057   3.137   5.630   5.940
15394TIP3   OH246058   3.244   5.779   6.509
15394TIP3    H146059   3.326   5.801   6.466
15394TIP3    H246060   3.253   5.811   6.599
15395TIP3   OH246061   3.312   5.921   6.747
15395TIP3    H146062   3.233   5.950   6.794
15395TIP3    H246063   3.338   5.998   6.696
15396TIP3   OH246064   1.928   5.640   7.522
15396TIP3    H146065   2.022   5.647   7.537
15396TIP3    H246066   1.901   5.563   7.570
15397TIP3   OH246067   3.757   5.506   7.289
15397TIP3    H146068   3.817   5.440   7.255
15397TIP3    H246069   3.739   5.564   7.215
15398TIP3   OH246070   3.184   5.348   6.053
15398TIP3    H146071   3.233   5.330   6.133
15398TIP3    H246072   3.124   5.273   6.045
15399TIP3   OH246073   1.888   5.335   6.869
15399TIP3    H146074   1.946   5.260   6.879
15399TIP3    H246075   1.948   5.410   6.863
15400TIP3   OH246076   1.688   5.612   6.937
15400TIP3    H146077   1.738   5.602   6.856
15400TIP3    H246078   1.724   5.690   6.978
15401TIP3   OH246079   3.627   5.651   7.092
15401TIP3    H146080   3.545   5.676   7.135
15401TIP3    H246081   3.604   5.574   7.040
15402TIP3   OH246082   3.274   5.286   5.676
15402TIP3    H146083   3.313   5.214   5.626
15402TIP3    H246084   3.338   5.356   5.671
15403TIP3   OH246085   1.672   5.117   6.444
15403TIP3    H146086   1.580   5.111   6.468
15403TIP3    H246087   1.673   5.172   6.366
15404TIP3   OH246088   2.833   6.819   5.947
15404TIP3    H146089   2.879   6.800   5.866
15404TIP3    H246090   2.889   6.881   5.993
15405TIP3   OH246091   1.889   5.189   7.255
15405TIP3    H146092   1.848   5.190   7.342
15405TIP3    H246093   1.825   5.229   7.197
15406TIP3   OH246094   1.930   6.627   7.338
15406TIP3    H146095   1.844   6.591   7.316
15406TIP3    H246096   1.948   6.594   7.426
15407TIP3   OH246097   2.111   6.654   6.879
15407TIP3    H146098   2.062   6.728   6.843
15407TIP3    H246099   2.198   6.661   6.840
15408TIP3   OH246100   2.558   6.901   7.022
15408TIP3    H146101   2.598   6.897   7.109
15408TIP3    H246102   2.622   6.948   6.968
15409TIP3   OH246103   2.737   7.050   6.877
15409TIP3    H146104   2.803   6.996   6.834
15409TIP3    H246105   2.787   7.105   6.938
15410TIP3   OH246106   3.527   5.407   6.979
15410TIP3    H146107   3.438   5.396   6.946
15410TIP3    H246108   3.567   5.320   6.971
15411TIP3   OH246109   1.786   6.923   6.898
15411TIP3    H146110   1.695   6.949   6.882
15411TIP3    H246111   1.797   6.932   6.992
15412TIP3   OH246112   2.024   6.892   6.763
15412TIP3    H146113   1.940   6.903   6.807
15412TIP3    H246114   2.007   6.917   6.672
15413TIP3   OH246115   2.449   6.920   6.561
15413TIP3    H146116   2.382   6.937   6.494
15413TIP3    H246117   2.463   7.004   6.603
15414TIP3   OH246118   2.718   6.860   6.613
15414TIP3    H146119   2.625   6.872   6.592
15414TIP3    H246120   2.762   6.932   6.568
15415TIP3   OH246121   2.927   7.050   6.525
15415TIP3    H146122   2.913   7.132   6.479
15415TIP3    H246123   2.953   6.988   6.456
15416TIP3   OH246124   1.703   6.702   6.654
15416TIP3    H146125   1.726   6.677   6.743
15416TIP3    H246126   1.769   6.660   6.599
15417TIP3   OH246127   1.894   6.574   6.509
15417TIP3    H146128   1.906   6.490   6.553
15417TIP3    H246129   1.982   6.610   6.502
15418TIP3   OH246130   2.162   6.668   6.512
15418TIP3    H146131   2.189   6.579   6.493
15418TIP3    H246132   2.204   6.690   6.594
15419TIP3   OH246133   2.735   5.325   6.598
15419TIP3    H146134   2.691   5.257   6.649
15419TIP3    H246135   2.804   5.278   6.550
15420TIP3   OH246136   3.258   5.225   6.514
15420TIP3    H146137   3.296   5.262   6.434
15420TIP3    H246138   3.164   5.220   6.495
15421TIP3   OH246139   3.357   5.307   6.268
15421TIP3    H146140   3.424   5.253   6.227
15421TIP3    H246141   3.385   5.397   6.253
15422TIP3   OH246142   1.982   5.032   6.614
15422TIP3    H146143   1.891   5.002   6.615
15422TIP3    H246144   2.034   4.951   6.611
15423TIP3   OH246145   1.766   4.905   6.262
15423TIP3    H146146   1.801   4.958   6.190
15423TIP3    H246147   1.742   4.969   6.329
15424TIP3   OH246148   2.424   5.072   6.495
15424TIP3    H146149   2.484   5.113   6.432
15424TIP3    H246150   2.452   5.105   6.580
15425TIP3   OH246151   2.978   5.209   6.473
15425TIP3    H146152   2.973   5.173   6.384
15425TIP3    H246153   2.962   5.133   6.530
15426TIP3   OH246154   3.003   5.133   6.039
15426TIP3    H146155   2.914   5.147   6.008
15426TIP3    H246156   2.997   5.054   6.093
15427TIP3   OH246157   1.484   6.475   6.041
15427TIP3    H146158   1.403   6.438   6.007
15427TIP3    H246159   1.476   6.569   6.024
15428TIP3   OH246160   1.889   5.065   6.024
15428TIP3    H146161   1.932   5.000   5.969
15428TIP3    H246162   1.961   5.117   6.060
15429TIP3   OH246163   2.401   5.240   6.126
15429TIP3    H146164   2.459   5.188   6.181
15429TIP3    H246165   2.423   5.331   6.148
15430TIP3   OH246166   2.260   6.664   5.619
15430TIP3    H146167   2.348   6.687   5.589
15430TIP3    H246168   2.235   6.589   5.565
15431TIP3   OH246169   2.975   6.779   5.714
15431TIP3    H146170   2.970   6.684   5.705
15431TIP3    H246171   2.933   6.814   5.636
15432TIP3   OH246172   2.196   5.313   7.501
15432TIP3    H146173   2.156   5.248   7.559
15432TIP3    H246174   2.288   5.316   7.528
15433TIP3   OH246175   2.444   5.312   7.620
15433TIP3    H146176   2.524   5.295   7.571
15433TIP3    H246177   2.439   5.240   7.683
15434TIP3   OH246178   1.567   6.502   5.682
15434TIP3    H146179   1.565   6.523   5.775
15434TIP3    H246180   1.651   6.459   5.668
15435TIP3   OH246181   3.270   5.368   7.403
15435TIP3    H146182   3.278   5.349   7.497
15435TIP3    H246183   3.360   5.365   7.371
15436TIP3   OH246184   3.203   6.928   6.903
15436TIP3    H146185   3.127   6.893   6.856
15436TIP3    H246186   3.185   7.022   6.908
15437TIP3   OH246187   4.469   6.300   5.669
15437TIP3    H146188   4.442   6.390   5.651
15437TIP3    H246189   4.396   6.247   5.637
15438TIP3   OH246190   4.468   6.297   6.052
15438TIP3    H146191   4.500   6.268   6.137
15438TIP3    H246192   4.428   6.220   6.013
15439TIP3   OH246193   3.770   6.196   6.420
15439TIP3    H146194   3.798   6.127   6.480
15439TIP3    H246195   3.850   6.245   6.401
15440TIP3   OH246196   4.713   6.601   5.733
15440TIP3    H146197   4.698   6.529   5.793
15440TIP3    H246198   4.741   6.674   5.788
15441TIP3   OH246199   3.742   6.602   6.143
15441TIP3    H146200   3.730   6.507   6.145
15441TIP3    H246201   3.837   6.613   6.135
15442TIP3   OH246202   3.444   5.811   5.927
15442TIP3    H146203   3.395   5.892   5.939
15442TIP3    H246204   3.380   5.749   5.892
15443TIP3   OH246205   3.509   6.093   6.098
15443TIP3    H146206   3.553   6.017   6.135
15443TIP3    H246207   3.562   6.117   6.022
15444TIP3   OH246208   4.363   7.061   5.749
15444TIP3    H146209   4.408   6.993   5.699
15444TIP3    H246210   4.355   7.025   5.837
15445TIP3   OH246211   4.271   6.523   6.099
15445TIP3    H146212   4.302   6.445   6.053
15445TIP3    H246213   4.352   6.570   6.123
15446TIP3   OH246214   5.279   5.847   6.095
15446TIP3    H146215   5.309   5.926   6.140
15446TIP3    H246216   5.302   5.861   6.004
15447TIP3   OH246217   4.683   6.025   6.130
15447TIP3    H146218   4.722   5.941   6.153
15447TIP3    H246219   4.648   6.012   6.042
15448TIP3   OH246220   4.012   5.685   6.096
15448TIP3    H146221   3.998   5.755   6.033
15448TIP3    H246222   3.973   5.608   6.055
15449TIP3   OH246223   4.717   5.776   5.722
15449TIP3    H146224   4.787   5.759   5.784
15449TIP3    H246225   4.761   5.809   5.644
15450TIP3   OH246226   3.654   5.885   6.202
15450TIP3    H146227   3.734   5.866   6.251
15450TIP3    H246228   3.661   5.831   6.124
15451TIP3   OH246229   4.093   6.083   5.999
15451TIP3    H146230   4.185   6.060   6.010
15451TIP3    H246231   4.053   6.002   5.966
15452TIP3   OH246232   5.353   6.053   6.267
15452TIP3    H146233   5.271   6.098   6.247
15452TIP3    H246234   5.368   6.070   6.360
15453TIP3   OH246235   4.014   5.671   6.532
15453TIP3    H146236   3.956   5.703   6.462
15453TIP3    H246237   3.964   5.686   6.613
15454TIP3   OH246238   4.363   6.522   5.539
15454TIP3    H146239   4.321   6.495   5.458
15454TIP3    H246240   4.319   6.604   5.563
15455TIP3   OH246241   4.123   6.446   6.327
15455TIP3    H146242   4.060   6.507   6.365
15455TIP3    H246243   4.163   6.494   6.255
15456TIP3   OH246244   4.928   5.771   5.900
15456TIP3    H146245   4.907   5.747   5.991
15456TIP3    H246246   4.979   5.851   5.908
15457TIP3   OH246247   3.888   5.784   6.315
15457TIP3    H146248   3.949   5.854   6.339
15457TIP3    H246249   3.929   5.740   6.241
15458TIP3   OH246250   3.946   6.639   6.426
15458TIP3    H146251   3.924   6.722   6.384
15458TIP3    H246252   3.871   6.619   6.482
15459TIP3   OH246253   3.345   6.328   5.659
15459TIP3    H146254   3.303   6.352   5.577
15459TIP3    H246255   3.375   6.411   5.696
15460TIP3   OH246256   4.782   6.845   5.902
15460TIP3    H146257   4.696   6.833   5.941
15460TIP3    H246258   4.776   6.928   5.855
15461TIP3   OH246259   5.073   5.744   6.259
15461TIP3    H146260   4.987   5.777   6.233
15461TIP3    H246261   5.133   5.778   6.192
15462TIP3   OH246262   4.380   5.386   6.255
15462TIP3    H146263   4.363   5.292   6.265
15462TIP3    H246264   4.298   5.428   6.281
15463TIP3   OH246265   4.489   6.890   5.573
15463TIP3    H146266   4.533   6.807   5.556
15463TIP3    H246267   4.546   6.956   5.534
15464TIP3   OH246268   4.628   6.674   5.481
15464TIP3    H146269   4.591   6.597   5.439
15464TIP3    H246270   4.664   6.641   5.564
15465TIP3   OH246271   5.009   6.757   6.241
15465TIP3    H146272   4.998   6.679   6.186
15465TIP3    H246273   4.993   6.830   6.181
15466TIP3   OH246274   4.301   6.153   5.499
15466TIP3    H146275   4.221   6.201   5.477
15466TIP3    H246276   4.348   6.145   5.416
15467TIP3   OH246277   4.261   5.934   5.218
15467TIP3    H146278   4.327   5.985   5.266
15467TIP3    H246279   4.312   5.869   5.170
15468TIP3   OH246280   5.204   6.397   6.088
15468TIP3    H146281   5.122   6.445   6.096
15468TIP3    H246282   5.234   6.415   5.999
15469TIP3   OH246283   4.649   6.233   5.475
15469TIP3    H146284   4.594   6.257   5.549
15469TIP3    H246285   4.732   6.205   5.515
15470TIP3   OH246286   4.882   6.275   6.383
15470TIP3    H146287   4.881   6.355   6.434
15470TIP3    H246288   4.798   6.274   6.338
15471TIP3   OH246289   3.882   6.230   5.888
15471TIP3    H146290   3.838   6.174   5.824
15471TIP3    H246291   3.956   6.177   5.918
15472TIP3   OH246292   4.012   6.641   6.037
15472TIP3    H146293   3.989   6.599   5.954
15472TIP3    H246294   4.100   6.609   6.056
15473TIP3   OH246295   4.016   6.203   6.244
15473TIP3    H146296   4.048   6.178   6.157
15473TIP3    H246297   4.060   6.286   6.263
15474TIP3   OH246298   4.542   6.840   6.022
15474TIP3    H146299   4.529   6.917   6.076
15474TIP3    H246300   4.528   6.766   6.081
15475TIP3   OH246301   4.151   6.761   6.567
15475TIP3    H146302   4.094   6.822   6.614
15475TIP3    H246303   4.091   6.706   6.518
15476TIP3   OH246304   4.489   6.096   5.296
15476TIP3    H146305   4.546   6.150   5.350
15476TIP3    H246306   4.513   6.116   5.206
15477TIP3   OH246307   3.909   6.318   6.671
15477TIP3    H146308   3.913   6.403   6.715
15477TIP3    H246309   3.816   6.296   6.671
15478TIP3   OH246310   4.231   6.772   5.575
15478TIP3    H146311   4.310   6.824   5.592
15478TIP3    H246312   4.170   6.833   5.534
15479TIP3   OH246313   3.946   6.932   6.655
15479TIP3    H146314   3.916   6.927   6.565
15479TIP3    H246315   3.870   6.907   6.708
15480TIP3   OH246316   5.009   5.341   5.349
15480TIP3    H146317   4.921   5.309   5.328
15480TIP3    H246318   5.020   5.418   5.293
15481TIP3   OH246319   3.744   6.075   5.696
15481TIP3    H146320   3.680   6.117   5.638
15481TIP3    H246321   3.711   5.986   5.708
15482TIP3   OH246322   4.805   6.700   4.894
15482TIP3    H146323   4.811   6.795   4.880
15482TIP3    H246324   4.895   6.669   4.882
15483TIP3   OH246325   3.528   6.457   6.599
15483TIP3    H146326   3.464   6.436   6.532
15483TIP3    H246327   3.564   6.372   6.626
15484TIP3   OH246328   3.383   6.652   6.234
15484TIP3    H146329   3.477   6.639   6.223
15484TIP3    H246330   3.375   6.729   6.290
15485TIP3   OH246331   5.244   7.098   6.289
15485TIP3    H146332   5.247   7.003   6.301
15485TIP3    H246333   5.164   7.125   6.335
15486TIP3   OH246334   4.351   6.889   6.426
15486TIP3    H146335   4.352   6.980   6.456
15486TIP3    H246336   4.282   6.847   6.477
15487TIP3   OH246337   4.112   7.017   5.375
15487TIP3    H146338   4.068   6.997   5.293
15487TIP3    H246339   4.081   7.105   5.398
15488TIP3   OH246340   3.551   6.864   5.762
15488TIP3    H146341   3.599   6.857   5.844
15488TIP3    H246342   3.496   6.786   5.760
15489TIP3   OH246343   4.317   6.916   5.017
15489TIP3    H146344   4.373   6.849   4.980
15489TIP3    H246345   4.348   6.926   5.107
15490TIP3   OH246346   4.364   6.965   5.289
15490TIP3    H146347   4.277   6.975   5.328
15490TIP3    H246348   4.416   6.922   5.357
15491TIP3   OH246349   5.136   6.232   6.561
15491TIP3    H146350   5.055   6.244   6.511
15491TIP3    H246351   5.155   6.139   6.556
15492TIP3   OH246352   3.732   6.640   6.594
15492TIP3    H146353   3.783   6.622   6.673
15492TIP3    H246354   3.660   6.578   6.596
15493TIP3   OH246355   4.130   5.464   6.374
15493TIP3    H146356   4.047   5.430   6.342
15493TIP3    H246357   4.108   5.546   6.419
15494TIP3   OH246358   4.666   5.581   6.571
15494TIP3    H146359   4.734   5.551   6.631
15494TIP3    H246360   4.584   5.558   6.614
15495TIP3   OH246361   4.905   6.009   6.487
15495TIP3    H146362   4.858   6.003   6.570
15495TIP3    H246363   4.880   6.094   6.451
15496TIP3   OH246364   4.568   6.141   5.041
15496TIP3    H146365   4.531   6.112   4.958
15496TIP3    H246366   4.648   6.187   5.017
15497TIP3   OH246367   4.271   5.519   5.343
15497TIP3    H146368   4.247   5.518   5.436
15497TIP3    H246369   4.247   5.432   5.312
15498TIP3   OH246370   4.063   5.981   6.394
15498TIP3    H146371   4.014   5.999   6.474
15498TIP3    H246372   4.049   6.058   6.339
15499TIP3   OH246373   3.945   5.865   5.904
15499TIP3    H146374   3.856   5.838   5.925
15499TIP3    H246375   3.962   5.826   5.819
15500TIP3   OH246376   4.439   5.953   5.635
15500TIP3    H146377   4.386   6.021   5.593
15500TIP3    H246378   4.494   5.920   5.564
15501TIP3   OH246379   4.615   6.230   6.725
15501TIP3    H146380   4.590   6.158   6.782
15501TIP3    H246381   4.708   6.243   6.742
15502TIP3   OH246382   4.597   5.979   5.869
15502TIP3    H146383   4.535   6.010   5.803
15502TIP3    H246384   4.632   5.898   5.832
15503TIP3   OH246385   3.882   6.008   6.604
15503TIP3    H146386   3.918   6.069   6.668
15503TIP3    H246387   3.874   5.925   6.651
15504TIP3   OH246388   3.932   5.482   5.310
15504TIP3    H146389   3.928   5.480   5.406
15504TIP3    H246390   3.857   5.535   5.284
15505TIP3   OH246391   3.475   5.533   6.184
15505TIP3    H146392   3.554   5.559   6.231
15505TIP3    H246393   3.508   5.495   6.102
15506TIP3   OH246394   3.452   5.513   5.700
15506TIP3    H146395   3.499   5.547   5.623
15506TIP3    H246396   3.390   5.583   5.722
15507TIP3   OH246397   4.608   6.223   6.297
15507TIP3    H146398   4.640   6.156   6.237
15507TIP3    H246399   4.578   6.175   6.374
15508TIP3   OH246400   4.280   5.704   5.970
15508TIP3    H146401   4.198   5.673   6.009
15508TIP3    H246402   4.346   5.687   6.037
15509TIP3   OH246403   3.709   5.740   5.975
15509TIP3    H146404   3.617   5.746   5.949
15509TIP3    H246405   3.735   5.650   5.954
15510TIP3   OH246406   3.980   5.742   5.664
15510TIP3    H146407   4.073   5.753   5.644
15510TIP3    H246408   3.936   5.762   5.581
15511TIP3   OH246409   4.762   5.758   6.169
15511TIP3    H146410   4.737   5.775   6.259
15511TIP3    H246411   4.692   5.703   6.134
15512TIP3   OH246412   3.819   5.776   5.441
15512TIP3    H146413   3.747   5.729   5.399
15512TIP3    H246414   3.871   5.809   5.368
15513TIP3   OH246415   4.937   7.453   6.387
15513TIP3    H146416   4.934   7.474   6.294
15513TIP3    H246417   5.014   7.500   6.419
15514TIP3   OH246418   3.895   6.564   6.813
15514TIP3    H146419   3.975   6.592   6.858
15514TIP3    H246420   3.829   6.561   6.883
15515TIP3   OH246421   4.362   6.019   6.068
15515TIP3    H146422   4.424   5.972   6.012
15515TIP3    H246423   4.365   5.973   6.152
15516TIP3   OH246424   3.883   5.498   5.942
15516TIP3    H146425   3.852   5.422   5.990
15516TIP3    H246426   3.954   5.465   5.888
15517TIP3   OH246427   4.336   5.913   6.354
15517TIP3    H146428   4.247   5.946   6.368
15517TIP3    H246429   4.391   5.972   6.406
15518TIP3   OH246430   4.068   6.304   5.451
15518TIP3    H146431   4.000   6.238   5.439
15518TIP3    H246432   4.054   6.337   5.540
15519TIP3   OH246433   4.971   6.539   6.078
15519TIP3    H146434   4.995   6.587   5.999
15519TIP3    H246435   4.888   6.497   6.056
15520TIP3   OH246436   4.521   5.639   5.300
15520TIP3    H146437   4.432   5.606   5.312
15520TIP3    H246438   4.521   5.724   5.345
15521TIP3   OH246439   4.475   6.624   6.446
15521TIP3    H146440   4.493   6.595   6.536
15521TIP3    H246441   4.432   6.709   6.457
15522TIP3   OH246442   4.600   5.872   5.425
15522TIP3    H146443   4.695   5.867   5.433
15522TIP3    H246444   4.585   5.945   5.365
15523TIP3   OH246445   3.767   6.326   6.125
15523TIP3    H146446   3.800   6.298   6.040
15523TIP3    H246447   3.803   6.261   6.186
15524TIP3   OH246448   4.215   6.453   5.271
15524TIP3    H146449   4.170   6.538   5.276
15524TIP3    H246450   4.164   6.397   5.329
15525TIP3   OH246451   3.642   6.249   6.742
15525TIP3    H146452   3.670   6.232   6.832
15525TIP3    H246453   3.577   6.181   6.724
15526TIP3   OH246454   4.371   6.358   6.756
15526TIP3    H146455   4.311   6.301   6.709
15526TIP3    H246456   4.458   6.326   6.733
15527TIP3   OH246457   4.632   6.887   6.343
15527TIP3    H146458   4.537   6.877   6.353
15527TIP3    H246459   4.659   6.936   6.421
15528TIP3   OH246460   5.043   5.951   5.247
15528TIP3    H146461   4.983   5.900   5.192
15528TIP3    H246462   5.041   6.039   5.210
15529TIP3   OH246463   5.258   6.810   6.328
15529TIP3    H146464   5.163   6.805   6.326
15529TIP3    H246465   5.286   6.780   6.242
15530TIP3   OH246466   4.743   6.770   5.159
15530TIP3    H146467   4.716   6.701   5.221
15530TIP3    H246468   4.754   6.725   5.076
15531TIP3   OH246469   4.737   6.398   5.998
15531TIP3    H146470   4.645   6.376   6.013
15531TIP3    H246471   4.774   6.322   5.954
15532TIP3   OH246472   3.863   6.630   5.752
15532TIP3    H146473   3.866   6.709   5.697
15532TIP3    H246474   3.770   6.609   5.759
15533TIP3   OH246475   3.426   5.935   5.455
15533TIP3    H146476   3.474   6.015   5.474
15533TIP3    H246477   3.351   5.936   5.514
15534TIP3   OH246478   4.004   6.396   5.697
15534TIP3    H146479   3.970   6.484   5.714
15534TIP3    H246480   3.969   6.342   5.769
15535TIP3   OH246481   4.135   6.974   6.221
15535TIP3    H146482   4.174   7.044   6.169
15535TIP3    H246483   4.210   6.935   6.267
15536TIP3   OH246484   3.783   6.870   5.604
15536TIP3    H146485   3.698   6.874   5.649
15536TIP3    H246486   3.815   6.960   5.606
15537TIP3   OH246487   4.526   6.607   6.179
15537TIP3    H146488   4.514   6.605   6.274
15537TIP3    H246489   4.601   6.550   6.162
15538TIP3   OH246490   4.496   6.499   5.064
15538TIP3    H146491   4.550   6.476   5.139
15538TIP3    H246492   4.407   6.472   5.089
15539TIP3   OH246493   4.769   7.142   6.229
15539TIP3    H146494   4.695   7.083   6.225
15539TIP3    H246495   4.755   7.205   6.158
15540TIP3   OH246496   4.836   6.978   4.881
15540TIP3    H146497   4.877   7.046   4.827
15540TIP3    H246498   4.756   7.018   4.915
15541TIP3   OH246499   3.855   5.752   6.751
15541TIP3    H146500   3.760   5.745   6.759
15541TIP3    H246501   3.889   5.690   6.817
15542TIP3   OH246502   4.659   6.434   5.280
15542TIP3    H146503   4.644   6.369   5.349
15542TIP3    H246504   4.753   6.432   5.265
15543TIP3   OH246505   3.573   6.836   6.381
15543TIP3    H146506   3.622   6.757   6.406
15543TIP3    H246507   3.603   6.903   6.443
15544TIP3   OH246508   3.862   6.478   5.062
15544TIP3    H146509   3.877   6.390   5.030
15544TIP3    H246510   3.843   6.467   5.156
15545TIP3   OH246511   3.809   6.486   5.334
15545TIP3    H146512   3.880   6.455   5.390
15545TIP3    H246513   3.814   6.581   5.341
15546TIP3   OH246514   3.544   6.181   5.536
15546TIP3    H146515   3.479   6.221   5.594
15546TIP3    H246516   3.560   6.247   5.469
15547TIP3   OH246517   4.694   5.815   6.429
15547TIP3    H146518   4.773   5.852   6.469
15547TIP3    H246519   4.677   5.736   6.480
15548TIP3   OH246520   4.553   5.579   5.585
15548TIP3    H146521   4.557   5.590   5.490
15548TIP3    H246522   4.606   5.651   5.619
15549TIP3   OH246523   4.073   6.684   5.283
15549TIP3    H146524   3.988   6.709   5.319
15549TIP3    H246525   4.091   6.752   5.217
15550TIP3   OH246526   4.264   5.745   5.697
15550TIP3    H146527   4.328   5.813   5.676
15550TIP3    H246528   4.265   5.740   5.793
15551TIP3   OH246529   4.534   6.066   6.505
15551TIP3    H146530   4.553   6.117   6.584
15551TIP3    H246531   4.585   5.986   6.516
15552TIP3   OH246532   4.418   5.478   5.800
15552TIP3    H146533   4.398   5.554   5.855
15552TIP3    H246534   4.470   5.514   5.727
15553TIP3   OH246535   3.817   6.761   5.349
15553TIP3    H146536   3.788   6.827   5.286
15553TIP3    H246537   3.801   6.800   5.435
15554TIP3   OH246538   3.922   5.474   5.584
15554TIP3    H146539   3.913   5.559   5.627
15554TIP3    H246540   4.014   5.450   5.596
15555TIP3   OH246541   5.171   5.966   6.480
15555TIP3    H146542   5.076   5.966   6.492
15555TIP3    H246543   5.184   5.920   6.397
15556TIP3   OH246544   4.823   6.158   5.872
15556TIP3    H146545   4.747   6.101   5.883
15556TIP3    H246546   4.894   6.114   5.919
15557TIP3   OH246547   3.538   6.390   5.339
15557TIP3    H146548   3.603   6.459   5.353
15557TIP3    H246549   3.578   6.332   5.275
15558TIP3   OH246550   3.481   5.665   5.473
15558TIP3    H146551   3.477   5.760   5.469
15558TIP3    H246552   3.398   5.635   5.434
15559TIP3   OH246553   4.792   7.117   5.820
15559TIP3    H146554   4.747   7.161   5.748
15559TIP3    H246555   4.885   7.132   5.802
15560TIP3   OH246556   3.864   5.383   6.350
15560TIP3    H146557   3.841   5.348   6.264
15560TIP3    H246558   3.856   5.307   6.408
15561TIP3   OH246559   3.409   6.608   5.731
15561TIP3    H146560   3.335   6.633   5.785
15561TIP3    H246561   3.387   6.642   5.644
15562TIP3   OH246562   3.563   7.139   6.803
15562TIP3    H146563   3.649   7.138   6.846
15562TIP3    H246564   3.538   7.047   6.797
15563TIP3   OH246565   4.057   7.109   6.841
15563TIP3    H146566   4.146   7.075   6.850
15563TIP3    H246567   4.018   7.058   6.770
15564TIP3   OH246568   4.027   6.681   4.975
15564TIP3    H146569   3.970   6.614   5.012
15564TIP3    H246570   4.102   6.632   4.942
15565TIP3   OH246571   4.680   7.017   6.584
15565TIP3    H146572   4.672   6.945   6.647
15565TIP3    H246573   4.760   7.063   6.610
15566TIP3   OH246574   4.465   6.725   4.885
15566TIP3    H146575   4.505   6.661   4.944
15566TIP3    H246576   4.519   6.723   4.806
15567TIP3   OH246577   3.692   6.548   6.999
15567TIP3    H146578   3.708   6.454   7.011
15567TIP3    H246579   3.607   6.553   6.957
15568TIP3   OH246580   3.673   6.201   5.194
15568TIP3    H146581   3.723   6.165   5.267
15568TIP3    H246582   3.737   6.206   5.122
15569TIP3   OH246583   4.301   6.633   6.773
15569TIP3    H146584   4.260   6.647   6.688
15569TIP3    H246585   4.333   6.542   6.769
15570TIP3   OH246586   4.179   6.397   5.003
15570TIP3    H146587   4.182   6.412   5.097
15570TIP3    H246588   4.180   6.302   4.994
15571TIP3   OH246589   4.795   6.644   6.381
15571TIP3    H146590   4.869   6.687   6.337
15571TIP3    H246591   4.722   6.703   6.367
15572TIP3   OH246592   3.809   6.272   6.986
15572TIP3    H146593   3.888   6.224   6.960
15572TIP3    H246594   3.831   6.310   7.071
15573TIP3   OH246595   3.881   6.101   5.418
15573TIP3    H146596   3.853   6.061   5.500
15573TIP3    H246597   3.916   6.029   5.366
15574TIP3   OH246598   4.146   6.169   6.643
15574TIP3    H146599   4.070   6.228   6.648
15574TIP3    H246600   4.196   6.200   6.568
15575TIP3   OH246601   3.980   5.898   5.255
15575TIP3    H146602   3.953   5.900   5.163
15575TIP3    H246603   4.076   5.903   5.251
15576TIP3   OH246604   4.668   6.571   6.781
15576TIP3    H146605   4.745   6.546   6.730
15576TIP3    H246606   4.661   6.504   6.849
15577TIP3   OH246607   4.801   6.231   4.916
15577TIP3    H146608   4.782   6.180   4.837
15577TIP3    H246609   4.770   6.319   4.896
15578TIP3   OH246610   4.268   5.956   6.771
15578TIP3    H146611   4.272   5.876   6.718
15578TIP3    H246612   4.227   6.021   6.714
15579TIP3   OH246613   4.273   5.745   6.577
15579TIP3    H146614   4.302   5.782   6.494
15579TIP3    H246615   4.182   5.719   6.561
15580TIP3   OH246616   4.302   6.281   6.452
15580TIP3    H146617   4.384   6.282   6.403
15580TIP3    H246618   4.246   6.345   6.408
15581TIP3   OH246619   4.885   6.245   6.833
15581TIP3    H146620   4.928   6.161   6.848
15581TIP3    H246621   4.954   6.301   6.798
15582TIP3   OH246622   4.925   6.501   6.568
15582TIP3    H146623   4.866   6.551   6.511
15582TIP3    H246624   5.012   6.516   6.531
15583TIP3   OH246625   4.144   6.070   6.998
15583TIP3    H146626   4.079   6.002   7.015
15583TIP3    H246627   4.183   6.045   6.914
15584TIP3   OH246628   4.404   5.507   6.643
15584TIP3    H146629   4.358   5.588   6.621
15584TIP3    H246630   4.339   5.438   6.631
15585TIP3   OH246631   4.528   6.013   6.863
15585TIP3    H146632   4.525   5.999   6.957
15585TIP3    H246633   4.442   5.987   6.831
15586TIP3   OH246634   4.772   5.961   6.718
15586TIP3    H146635   4.697   5.960   6.777
15586TIP3    H246636   4.845   5.929   6.771
15587TIP3   OH246637   4.998   5.898   6.868
15587TIP3    H146638   5.013   5.805   6.885
15587TIP3    H246639   4.996   5.938   6.955
15588TIP3   OH246640   3.988   5.849   7.055
15588TIP3    H146641   3.993   5.761   7.017
15588TIP3    H246642   4.025   5.839   7.143
15589TIP3   OH246643   4.501   5.515   6.900
15589TIP3    H146644   4.568   5.448   6.899
15589TIP3    H246645   4.460   5.510   6.813
15590TIP3   OH246646   4.565   5.732   7.059
15590TIP3    H146647   4.546   5.661   6.998
15590TIP3    H246648   4.489   5.790   7.053
15591TIP3   OH246649   3.788   6.963   5.160
15591TIP3    H146650   3.882   6.956   5.144
15591TIP3    H246651   3.754   7.009   5.083
15592TIP3   OH246652   3.268   6.341   5.377
15592TIP3    H146653   3.360   6.364   5.365
15592TIP3    H246654   3.260   6.254   5.338
15593TIP3   OH246655   3.178   6.952   5.793
15593TIP3    H146656   3.113   6.892   5.756
15593TIP3    H246657   3.225   6.899   5.858
15594TIP3   OH246658   3.316   6.808   5.981
15594TIP3    H146659   3.305   6.731   6.037
15594TIP3    H246660   3.368   6.869   6.035
15595TIP3   OH246661   5.045   7.206   5.778
15595TIP3    H146662   5.069   7.238   5.865
15595TIP3    H246663   5.104   7.251   5.718
15596TIP3   OH246664   5.075   7.223   6.061
15596TIP3    H146665   5.029   7.140   6.053
15596TIP3    H246666   5.148   7.205   6.120
15597TIP3   OH246667   5.118   6.906   6.632
15597TIP3    H146668   5.047   6.910   6.696
15597TIP3    H246669   5.161   6.991   6.637
15598TIP3   OH246670   4.938   6.416   5.254
15598TIP3    H146671   5.005   6.479   5.225
15598TIP3    H246672   4.977   6.376   5.332
15599TIP3   OH246673   5.063   6.285   5.459
15599TIP3    H146674   4.998   6.241   5.514
15599TIP3    H246675   5.126   6.321   5.521
15600TIP3   OH246676   5.119   6.675   5.888
15600TIP3    H146677   5.170   6.609   5.842
15600TIP3    H246678   5.108   6.746   5.825
15601TIP3   OH246679   4.948   6.977   6.083
15601TIP3    H146680   4.879   7.016   6.136
15601TIP3    H246681   4.902   6.928   6.014
15602TIP3   OH246682   4.999   6.193   5.102
15602TIP3    H146683   4.931   6.194   5.035
15602TIP3    H246684   4.975   6.266   5.160
15603TIP3   OH246685   4.874   5.857   5.057
15603TIP3    H146686   4.833   5.903   4.983
15603TIP3    H246687   4.842   5.767   5.050
15604TIP3   OH246688   4.879   6.138   5.604
15604TIP3    H146689   4.884   6.043   5.594
15604TIP3    H246690   4.865   6.151   5.698
15605TIP3   OH246691   3.506   6.212   6.348
15605TIP3    H146692   3.502   6.182   6.258
15605TIP3    H246693   3.600   6.216   6.368
15606TIP3   OH246694   5.169   6.564   6.459
15606TIP3    H146695   5.238   6.497   6.452
15606TIP3    H246696   5.196   6.632   6.397
15607TIP3   OH246697   5.354   6.369   6.479
15607TIP3    H146698   5.279   6.322   6.515
15607TIP3    H246699   5.427   6.309   6.491
15608TIP3   OH246700   4.877   5.855   5.499
15608TIP3    H146701   4.912   5.768   5.518
15608TIP3    H246702   4.933   5.888   5.428
15609TIP3   OH246703   5.039   6.032   5.993
15609TIP3    H146704   5.121   6.055   5.951
15609TIP3    H246705   5.047   6.065   6.082
15610TIP3   OH246706   5.103   6.175   6.225
15610TIP3    H146707   5.027   6.206   6.274
15610TIP3    H246708   5.137   6.254   6.181
15611TIP3   OH246709   3.722   5.899   7.023
15611TIP3    H146710   3.818   5.897   7.023
15611TIP3    H246711   3.697   5.815   7.061
15612TIP3   OH246712   5.552   5.761   6.778
15612TIP3    H146713   5.613   5.697   6.741
15612TIP3    H246714   5.530   5.819   6.705
15613TIP3   OH246715   4.983   5.608   5.541
15613TIP3    H146716   5.032   5.588   5.622
15613TIP3    H246717   4.927   5.532   5.528
15614TIP3   OH246718   3.685   5.592   6.362
15614TIP3    H146719   3.742   5.515   6.366
15614TIP3    H246720   3.746   5.666   6.350
15615TIP3   OH246721   3.490   5.869   6.430
15615TIP3    H146722   3.533   5.851   6.346
15615TIP3    H246723   3.520   5.956   6.454
15616TIP3   OH246724   5.427   5.907   6.582
15616TIP3    H146725   5.343   5.945   6.610
15616TIP3    H246726   5.403   5.832   6.529
15617TIP3   OH246727   5.091   5.543   5.168
15617TIP3    H146728   5.119   5.474   5.108
15617TIP3    H246729   5.149   5.616   5.150
15618TIP3   OH246730   3.466   5.383   5.937
15618TIP3    H146731   3.374   5.366   5.954
15618TIP3    H246732   3.467   5.431   5.854
15619TIP3   OH246733   4.630   7.074   5.434
15619TIP3    H146734   4.678   7.057   5.353
15619TIP3    H246735   4.683   7.138   5.480
15620TIP3   OH246736   3.689   5.455   6.747
15620TIP3    H146737   3.637   5.445   6.827
15620TIP3    H246738   3.625   5.486   6.682
15621TIP3   OH246739   3.728   6.879   6.825
15621TIP3    H146740   3.639   6.849   6.802
15621TIP3    H246741   3.739   6.853   6.916
15622TIP3   OH246742   3.908   6.912   6.368
15622TIP3    H146743   3.857   6.983   6.331
15622TIP3    H246744   3.994   6.920   6.327
15623TIP3   OH246745   4.356   7.155   6.511
15623TIP3    H146746   4.398   7.154   6.597
15623TIP3    H246747   4.418   7.202   6.455
15624TIP3   OH246748   4.534   7.305   6.366
15624TIP3    H146749   4.600   7.253   6.320
15624TIP3    H246750   4.583   7.361   6.425
15625TIP3   OH246751   5.326   5.665   6.464
15625TIP3    H146752   5.235   5.659   6.434
15625TIP3    H246753   5.360   5.575   6.455
15626TIP3   OH246754   3.582   7.168   6.391
15626TIP3    H146755   3.496   7.201   6.364
15626TIP3    H246756   3.592   7.197   6.482
15627TIP3   OH246757   3.819   7.146   6.248
15627TIP3    H146758   3.735   7.158   6.294
15627TIP3    H246759   3.802   7.177   6.159
15628TIP3   OH246760   4.245   7.175   6.047
15628TIP3    H146761   4.177   7.192   5.981
15628TIP3    H246762   4.259   7.260   6.089
15629TIP3   OH246763   4.513   7.116   6.099
15629TIP3    H146764   4.420   7.129   6.079
15629TIP3    H246765   4.557   7.189   6.056
15630TIP3   OH246766   4.725   7.307   6.013
15630TIP3    H146767   4.709   7.389   5.967
15630TIP3    H246768   4.749   7.245   5.943
15631TIP3   OH246769   3.498   6.958   6.139
15631TIP3    H146770   3.521   6.934   6.229
15631TIP3    H246771   3.565   6.917   6.085
15632TIP3   OH246772   3.690   6.830   5.995
15632TIP3    H146773   3.703   6.748   6.042
15632TIP3    H246774   3.778   6.867   5.988
15633TIP3   OH246775   3.957   6.925   5.997
15633TIP3    H146776   3.985   6.835   5.980
15633TIP3    H246777   3.998   6.948   6.080
15634TIP3   OH246778   4.534   5.586   6.090
15634TIP3    H146779   4.484   5.522   6.140
15634TIP3    H246780   4.594   5.534   6.036
15635TIP3   OH246781   5.046   5.469   5.984
15635TIP3    H146782   5.106   5.504   5.919
15635TIP3    H246783   4.971   5.528   5.982
15636TIP3   OH246784   5.157   5.564   5.757
15636TIP3    H146785   5.223   5.511   5.713
15636TIP3    H246786   5.183   5.655   5.740
15637TIP3   OH246787   3.792   5.277   6.105
15637TIP3    H146788   3.703   5.243   6.104
15637TIP3    H246789   3.846   5.202   6.079
15638TIP3   OH246790   3.569   5.161   5.743
15638TIP3    H146791   3.593   5.221   5.673
15638TIP3    H246792   3.538   5.217   5.814
15639TIP3   OH246793   4.203   5.402   5.977
15639TIP3    H146794   4.288   5.395   5.933
15639TIP3    H246795   4.190   5.316   6.017
15640TIP3   OH246796   4.750   5.437   5.960
15640TIP3    H146797   4.777   5.457   5.871
15640TIP3    H246798   4.830   5.403   6.002
15641TIP3   OH246799   4.795   5.404   5.558
15641TIP3    H146800   4.722   5.425   5.499
15641TIP3    H246801   4.788   5.310   5.573
15642TIP3   OH246802   3.281   6.731   5.527
15642TIP3    H146803   3.199   6.694   5.494
15642TIP3    H246804   3.273   6.825   5.511
15643TIP3   OH246805   3.680   5.334   5.516
15643TIP3    H146806   3.724   5.271   5.458
15643TIP3    H246807   3.752   5.384   5.554
15644TIP3   OH246808   4.201   5.494   5.612
15644TIP3    H146809   4.245   5.444   5.680
15644TIP3    H246810   4.221   5.586   5.632
15645TIP3   OH246811   4.057   6.920   5.106
15645TIP3    H146812   4.144   6.944   5.075
15645TIP3    H246813   4.031   6.846   5.051
15646TIP3   OH246814   4.773   7.036   5.201
15646TIP3    H146815   4.767   6.941   5.192
15646TIP3    H246816   4.730   7.071   5.123
15647TIP3   OH246817   3.988   5.572   6.996
15647TIP3    H146818   3.954   5.499   7.048
15647TIP3    H246819   4.081   5.574   7.017
15648TIP3   OH246820   4.238   5.567   7.111
15648TIP3    H146821   4.321   5.544   7.070
15648TIP3    H246822   4.224   5.500   7.178
15649TIP3   OH246823   3.362   6.760   5.168
15649TIP3    H146824   3.360   6.781   5.261
15649TIP3    H246825   3.447   6.716   5.156
15650TIP3   OH246826   5.063   5.629   6.900
15650TIP3    H146827   5.079   5.597   6.989
15650TIP3    H246828   5.149   5.625   6.858
15651TIP3   OH246829   4.998   7.185   6.390
15651TIP3    H146830   4.923   7.150   6.342
15651TIP3    H246831   4.981   7.279   6.395
15652TIP3   OH246832   6.262   6.555   5.158
15652TIP3    H146833   6.238   6.646   5.138
15652TIP3    H246834   6.191   6.503   5.122
15653TIP3   OH246835   6.209   6.562   5.560
15653TIP3    H146836   6.285   6.548   5.617
15653TIP3    H246837   6.212   6.490   5.497
15654TIP3   OH246838   5.566   6.448   5.903
15654TIP3    H146839   5.591   6.381   5.967
15654TIP3    H246840   5.644   6.503   5.895
15655TIP3   OH246841   6.509   6.860   5.225
15655TIP3    H146842   6.509   6.779   5.277
15655TIP3    H246843   6.547   6.926   5.282
15656TIP3   OH246844   5.538   6.858   5.627
15656TIP3    H146845   5.522   6.764   5.629
15656TIP3    H246846   5.633   6.867   5.628
15657TIP3   OH246847   5.242   6.067   5.414
15657TIP3    H146848   5.191   6.148   5.427
15657TIP3    H246849   5.178   6.005   5.379
15658TIP3   OH246850   5.307   6.350   5.585
15658TIP3    H146851   5.350   6.274   5.622
15658TIP3    H246852   5.357   6.370   5.506
15659TIP3   OH246853   6.158   7.319   5.234
15659TIP3    H146854   6.202   7.248   5.187
15659TIP3    H246855   6.153   7.288   5.324
15660TIP3   OH246856   6.084   6.800   5.613
15660TIP3    H146857   6.081   6.711   5.577
15660TIP3    H246858   6.175   6.828   5.601
15661TIP3   OH246859   7.080   6.102   5.584
15661TIP3    H146860   7.107   6.184   5.626
15661TIP3    H246861   7.094   6.118   5.491
15662TIP3   OH246862   6.475   6.283   5.619
15662TIP3    H146863   6.520   6.202   5.643
15662TIP3    H246864   6.443   6.267   5.531
15663TIP3   OH246865   5.811   5.942   5.582
15663TIP3    H146866   5.794   6.015   5.522
15663TIP3    H246867   5.767   5.867   5.541
15664TIP3   OH246868   6.510   6.033   5.207
15664TIP3    H146869   6.577   6.015   5.273
15664TIP3    H246870   6.558   6.069   5.133
15665TIP3   OH246871   5.450   6.142   5.689
15665TIP3    H146872   5.530   6.123   5.739
15665TIP3    H246873   5.458   6.088   5.611
15666TIP3   OH246874   5.890   6.339   5.487
15666TIP3    H146875   5.982   6.316   5.498
15666TIP3    H246876   5.850   6.259   5.453
15667TIP3   OH246877   7.150   6.313   5.754
15667TIP3    H146878   7.069   6.357   5.730
15667TIP3    H246879   7.159   6.329   5.848
15668TIP3   OH246880   5.809   5.926   6.018
15668TIP3    H146881   5.751   5.960   5.950
15668TIP3    H246882   5.762   5.940   6.099
15669TIP3   OH246883   6.157   6.778   5.027
15669TIP3    H146884   6.117   6.752   4.944
15669TIP3    H246885   6.113   6.860   5.050
15670TIP3   OH246886   5.928   6.714   5.818
15670TIP3    H146887   5.850   6.757   5.853
15670TIP3    H246888   5.929   6.737   5.725
15671TIP3   OH246889   6.720   6.035   5.379
15671TIP3    H146890   6.713   5.985   5.461
15671TIP3    H246891   6.770   6.113   5.403
15672TIP3   OH246892   5.684   6.041   5.801
15672TIP3    H146893   5.745   6.111   5.827
15672TIP3    H246894   5.727   5.998   5.728
15673TIP3   OH246895   5.731   6.887   5.899
15673TIP3    H146896   5.710   6.974   5.866
15673TIP3    H246897   5.661   6.866   5.961
15674TIP3   OH246898   5.141   6.585   5.146
15674TIP3    H146899   5.099   6.608   5.063
15674TIP3    H246900   5.171   6.668   5.182
15675TIP3   OH246901   6.573   7.111   5.390
15675TIP3    H146902   6.484   7.090   5.417
15675TIP3    H246903   6.565   7.196   5.346
15676TIP3   OH246904   6.870   6.004   5.749
15676TIP3    H146905   6.782   6.029   5.720
15676TIP3    H246906   6.928   6.033   5.679
15677TIP3   OH246907   6.166   5.643   5.732
15677TIP3    H146908   6.157   5.549   5.748
15677TIP3    H246909   6.092   5.682   5.777
15678TIP3   OH246910   6.283   7.146   5.058
15678TIP3    H146911   6.328   7.063   5.043
15678TIP3    H246912   6.340   7.212   5.019
15679TIP3   OH246913   6.424   6.931   4.971
15679TIP3    H146914   6.389   6.853   4.928
15679TIP3    H246915   6.458   6.899   5.054
15680TIP3   OH246916   6.813   7.002   5.710
15680TIP3    H146917   6.769   6.930   5.665
15680TIP3    H246918   6.797   7.079   5.655
15681TIP3   OH246919   6.096   6.409   4.984
15681TIP3    H146920   6.017   6.458   4.961
15681TIP3    H246921   6.145   6.402   4.902
15682TIP3   OH246922   6.058   6.190   4.706
15682TIP3    H146923   6.123   6.241   4.754
15682TIP3    H246924   6.110   6.126   4.656
15683TIP3   OH246925   6.980   6.663   5.571
15683TIP3    H146926   6.892   6.701   5.568
15683TIP3    H246927   7.017   6.680   5.484
15684TIP3   OH246928   6.444   6.491   4.962
15684TIP3    H146929   6.391   6.512   5.039
15684TIP3    H246930   6.528   6.462   4.999
15685TIP3   OH246931   6.679   6.529   5.868
15685TIP3    H146932   6.679   6.612   5.916
15685TIP3    H246933   6.614   6.542   5.799
15686TIP3   OH246934   5.679   6.486   5.375
15686TIP3    H146935   5.635   6.431   5.310
15686TIP3    H246936   5.753   6.433   5.405
15687TIP3   OH246937   5.814   6.897   5.524
15687TIP3    H146938   5.775   6.867   5.442
15687TIP3    H246939   5.904   6.864   5.521
15688TIP3   OH246940   5.816   6.457   5.731
15688TIP3    H146941   5.845   6.428   5.644
15688TIP3    H246942   5.867   6.536   5.748
15689TIP3   OH246943   6.324   7.095   5.507
15689TIP3    H146944   6.330   7.178   5.554
15689TIP3    H246945   6.339   7.029   5.574
15690TIP3   OH246946   5.952   7.005   6.014
15690TIP3    H146947   5.926   7.076   6.073
15690TIP3    H246948   5.871   6.958   5.995
15691TIP3   OH246949   6.287   6.350   4.785
15691TIP3    H146950   6.343   6.405   4.839
15691TIP3    H246951   6.311   6.371   4.695
15692TIP3   OH246952   5.703   6.579   6.151
15692TIP3    H146953   5.709   6.660   6.201
15692TIP3    H246954   5.612   6.551   6.161
15693TIP3   OH246955   6.026   7.031   5.065
15693TIP3    H146956   6.106   7.080   5.078
15693TIP3    H246957   5.967   7.092   5.020
15694TIP3   OH246958   5.744   7.181   6.141
15694TIP3    H146959   5.706   7.173   6.053
15694TIP3    H246960   5.671   7.161   6.200
15695TIP3   OH246961   6.801   5.588   4.844
15695TIP3    H146962   6.717   5.610   4.883
15695TIP3    H246963   6.813   5.650   4.773
15696TIP3   OH246964   5.540   6.332   5.183
15696TIP3    H146965   5.477   6.374   5.125
15696TIP3    H246966   5.507   6.243   5.196
15697TIP3   OH246967   6.602   6.956   4.382
15697TIP3    H146968   6.608   7.051   4.367
15697TIP3    H246969   6.691   6.924   4.369
15698TIP3   OH246970   5.325   6.712   6.086
15698TIP3    H146971   5.260   6.691   6.020
15698TIP3    H246972   5.362   6.628   6.113
15699TIP3   OH246973   5.178   6.908   5.720
15699TIP3    H146974   5.273   6.900   5.712
15699TIP3    H246975   5.164   6.986   5.774
15700TIP3   OH246976   7.041   7.356   5.774
15700TIP3    H146977   7.044   7.260   5.784
15700TIP3    H246978   6.962   7.382   5.820
15701TIP3   OH246979   5.908   7.274   4.861
15701TIP3    H146980   5.863   7.252   4.780
15701TIP3    H246981   5.876   7.361   4.884
15702TIP3   OH246982   5.347   7.121   5.247
15702TIP3    H146983   5.392   7.113   5.331
15702TIP3    H246984   5.291   7.044   5.244
15703TIP3   OH246985   6.114   7.174   4.504
15703TIP3    H146986   6.169   7.105   4.467
15703TIP3    H246987   6.144   7.182   4.594
15704TIP3   OH246988   6.161   7.223   4.775
15704TIP3    H146989   6.073   7.232   4.814
15704TIP3    H246990   6.212   7.179   4.843
15705TIP3   OH246991   6.932   6.488   6.048
15705TIP3    H146992   6.852   6.503   5.998
15705TIP3    H246993   6.949   6.394   6.039
15706TIP3   OH246994   5.530   6.894   6.079
15706TIP3    H146995   5.580   6.880   6.159
15706TIP3    H246996   5.458   6.832   6.083
15707TIP3   OH246997   5.926   5.721   5.860
15707TIP3    H146998   5.840   5.687   5.833
15707TIP3    H246999   5.906   5.802   5.906
15708TIP3   OH247000   6.462   5.836   6.056
15708TIP3    H147001   6.529   5.807   6.118
15708TIP3    H247002   6.379   5.815   6.099
15709TIP3   OH247003   6.703   6.266   5.976
15709TIP3    H147004   6.654   6.262   6.058
15709TIP3    H247005   6.678   6.350   5.937
15710TIP3   OH247006   6.363   6.398   4.529
15710TIP3    H147007   6.326   6.369   4.445
15710TIP3    H247008   6.444   6.443   4.505
15711TIP3   OH247009   6.068   5.774   4.832
15711TIP3    H147010   6.042   5.778   4.924
15711TIP3    H247011   6.054   5.683   4.806
15712TIP3   OH247012   5.859   6.237   5.881
15712TIP3    H147013   5.810   6.254   5.962
15712TIP3    H247014   5.842   6.314   5.826
15713TIP3   OH247015   5.741   6.121   5.391
15713TIP3    H147016   5.652   6.095   5.412
15713TIP3    H247017   5.759   6.082   5.306
15714TIP3   OH247018   6.234   6.208   5.117
15714TIP3    H147019   6.182   6.277   5.077
15714TIP3    H247020   6.290   6.175   5.047
15715TIP3   OH247021   6.409   6.487   6.212
15715TIP3    H147022   6.386   6.415   6.269
15715TIP3    H247023   6.503   6.501   6.227
15716TIP3   OH247024   6.380   6.230   5.364
15716TIP3    H147025   6.328   6.265   5.291
15716TIP3    H247026   6.424   6.154   5.327
15717TIP3   OH247027   5.679   6.264   6.090
15717TIP3    H147028   5.708   6.324   6.160
15717TIP3    H247029   5.666   6.180   6.135
15718TIP3   OH247030   5.727   5.739   4.798
15718TIP3    H147031   5.724   5.738   4.894
15718TIP3    H247032   5.652   5.792   4.772
15719TIP3   OH247033   5.270   5.791   5.672
15719TIP3    H147034   5.350   5.815   5.718
15719TIP3    H247035   5.300   5.755   5.588
15720TIP3   OH247036   5.257   5.774   5.187
15720TIP3    H147037   5.299   5.812   5.109
15720TIP3    H247038   5.191   5.839   5.212
15721TIP3   OH247039   6.381   6.481   5.781
15721TIP3    H147040   6.424   6.420   5.721
15721TIP3    H247041   6.367   6.430   5.861
15722TIP3   OH247042   6.069   5.942   5.456
15722TIP3    H147043   5.989   5.941   5.508
15722TIP3    H247044   6.140   5.946   5.520
15723TIP3   OH247045   5.505   5.997   5.462
15723TIP3    H147046   5.413   6.005   5.436
15723TIP3    H247047   5.528   5.907   5.441
15724TIP3   OH247048   5.776   5.997   5.151
15724TIP3    H147049   5.869   6.010   5.133
15724TIP3    H247050   5.732   6.019   5.068
15725TIP3   OH247051   6.563   6.020   5.660
15725TIP3    H147052   6.528   6.031   5.749
15725TIP3    H247053   6.501   5.959   5.618
15726TIP3   OH247054   5.616   6.031   4.928
15726TIP3    H147055   5.543   5.986   4.886
15726TIP3    H247056   5.667   6.066   4.856
15727TIP3   OH247057   6.732   7.710   5.873
15727TIP3    H147058   6.731   7.730   5.779
15727TIP3    H247059   6.806   7.761   5.908
15728TIP3   OH247060   5.692   6.821   6.301
15728TIP3    H147061   5.771   6.849   6.347
15728TIP3    H247062   5.625   6.816   6.369
15729TIP3   OH247063   6.151   6.258   5.547
15729TIP3    H147064   6.227   6.233   5.496
15729TIP3    H247065   6.168   6.224   5.635
15730TIP3   OH247066   5.679   5.758   5.430
15730TIP3    H147067   5.643   5.682   5.476
15730TIP3    H247068   5.733   5.720   5.361
15731TIP3   OH247069   6.132   6.166   5.844
15731TIP3    H147070   6.044   6.202   5.857
15731TIP3    H247071   6.189   6.225   5.894
15732TIP3   OH247072   5.863   6.562   4.937
15732TIP3    H147073   5.796   6.495   4.925
15732TIP3    H247074   5.850   6.594   5.026
15733TIP3   OH247075   6.319   5.885   4.772
15733TIP3    H147076   6.229   5.859   4.793
15733TIP3    H247077   6.330   5.969   4.818
15734TIP3   OH247078   6.230   6.902   5.951
15734TIP3    H147079   6.266   6.823   5.993
15734TIP3    H247080   6.269   6.975   6.000
15735TIP3   OH247081   6.395   6.118   4.903
15735TIP3    H147082   6.490   6.119   4.920
15735TIP3    H247083   6.380   6.196   4.850
15736TIP3   OH247084   5.568   6.586   5.612
15736TIP3    H147085   5.598   6.554   5.527
15736TIP3    H247086   5.595   6.518   5.674
15737TIP3   OH247087   6.011   6.710   4.758
15737TIP3    H147088   5.967   6.795   4.764
15737TIP3    H247089   5.960   6.653   4.816
15738TIP3   OH247090   5.440   6.502   6.227
15738TIP3    H147091   5.462   6.489   6.319
15738TIP3    H247092   5.373   6.436   6.209
15739TIP3   OH247093   6.168   6.616   6.242
15739TIP3    H147094   6.107   6.555   6.200
15739TIP3    H247095   6.255   6.582   6.220
15740TIP3   OH247096   6.421   7.140   5.833
15740TIP3    H147097   6.337   7.186   5.832
15740TIP3    H247098   6.468   7.179   5.906
15741TIP3   OH247099   6.838   6.207   4.733
15741TIP3    H147100   6.779   6.156   4.677
15741TIP3    H247101   6.837   6.295   4.696
15742TIP3   OH247102   7.052   7.069   5.814
15742TIP3    H147103   6.957   7.059   5.807
15742TIP3    H247104   7.086   7.038   5.730
15743TIP3   OH247105   6.538   7.028   4.647
15743TIP3    H147106   6.513   6.959   4.709
15743TIP3    H247107   6.550   6.982   4.564
15744TIP3   OH247108   5.661   6.891   5.248
15744TIP3    H147109   5.665   6.966   5.190
15744TIP3    H247110   5.569   6.864   5.247
15745TIP3   OH247111   5.223   6.191   4.942
15745TIP3    H147112   5.270   6.272   4.961
15745TIP3    H247113   5.147   6.193   5.000
15746TIP3   OH247114   5.799   6.654   5.185
15746TIP3    H147115   5.766   6.742   5.204
15746TIP3    H247116   5.765   6.600   5.255
15747TIP3   OH247117   5.580   7.125   5.092
15747TIP3    H147118   5.495   7.130   5.136
15747TIP3    H247119   5.613   7.215   5.092
15748TIP3   OH247120   6.339   6.857   5.677
15748TIP3    H147121   6.370   6.839   5.766
15748TIP3    H247122   6.411   6.832   5.620
15749TIP3   OH247123   6.292   6.757   4.551
15749TIP3    H147124   6.347   6.733   4.626
15749TIP3    H247125   6.204   6.727   4.575
15750TIP3   OH247126   6.563   7.401   5.717
15750TIP3    H147127   6.486   7.346   5.704
15750TIP3    H247128   6.558   7.466   5.647
15751TIP3   OH247129   6.632   7.234   4.368
15751TIP3    H147130   6.674   7.303   4.317
15751TIP3    H247131   6.551   7.273   4.401
15752TIP3   OH247132   5.652   6.008   6.235
15752TIP3    H147133   5.557   6.012   6.248
15752TIP3    H247134   5.683   5.949   6.304
15753TIP3   OH247135   6.455   6.690   4.767
15753TIP3    H147136   6.440   6.625   4.835
15753TIP3    H247137   6.549   6.688   4.752
15754TIP3   OH247138   5.373   7.092   5.867
15754TIP3    H147139   5.418   7.013   5.898
15754TIP3    H247140   5.390   7.157   5.936
15755TIP3   OH247141   5.659   6.735   4.549
15755TIP3    H147142   5.673   6.647   4.516
15755TIP3    H247143   5.639   6.724   4.642
15756TIP3   OH247144   5.605   6.743   4.822
15756TIP3    H147145   5.678   6.711   4.876
15756TIP3    H247146   5.610   6.838   4.827
15757TIP3   OH247147   5.340   6.437   5.022
15757TIP3    H147148   5.275   6.478   5.080
15757TIP3    H247149   5.356   6.503   4.954
15758TIP3   OH247150   6.487   6.074   5.919
15758TIP3    H147151   6.569   6.109   5.953
15758TIP3    H247152   6.473   5.993   5.969
15759TIP3   OH247153   6.359   5.832   5.074
15759TIP3    H147154   6.359   5.850   4.980
15759TIP3    H247155   6.405   5.906   5.113
15760TIP3   OH247156   5.869   6.942   4.771
15760TIP3    H147157   5.784   6.967   4.806
15760TIP3    H247158   5.886   7.006   4.701
15761TIP3   OH247159   6.058   6.004   5.183
15761TIP3    H147160   6.123   6.071   5.163
15761TIP3    H247161   6.062   5.993   5.278
15762TIP3   OH247162   6.328   6.319   5.993
15762TIP3    H147163   6.350   6.371   6.071
15762TIP3    H247164   6.382   6.241   6.001
15763TIP3   OH247165   6.205   5.733   5.284
15763TIP3    H147166   6.199   5.805   5.346
15763TIP3    H247167   6.261   5.766   5.214
15764TIP3   OH247168   5.613   7.017   4.835
15764TIP3    H147169   5.584   7.083   4.772
15764TIP3    H247170   5.597   7.057   4.921
15765TIP3   OH247171   5.719   5.730   5.073
15765TIP3    H147172   5.710   5.817   5.112
15765TIP3    H247173   5.812   5.708   5.083
15766TIP3   OH247174   6.968   6.221   5.966
15766TIP3    H147175   6.874   6.222   5.981
15766TIP3    H247176   6.979   6.178   5.882
15767TIP3   OH247177   6.627   6.393   5.338
15767TIP3    H147178   6.545   6.365   5.378
15767TIP3    H247179   6.695   6.364   5.400
15768TIP3   OH247180   5.334   6.646   4.826
15768TIP3    H147181   5.398   6.716   4.838
15768TIP3    H247182   5.374   6.588   4.761
15769TIP3   OH247183   5.278   5.923   4.960
15769TIP3    H147184   5.275   6.018   4.956
15769TIP3    H247185   5.195   5.894   4.921
15770TIP3   OH247186   6.585   7.379   5.306
15770TIP3    H147187   6.543   7.423   5.233
15770TIP3    H247188   6.679   7.392   5.291
15771TIP3   OH247189   5.662   5.638   5.836
15771TIP3    H147190   5.633   5.607   5.751
15771TIP3    H247191   5.653   5.563   5.894
15772TIP3   OH247192   5.205   6.865   5.217
15772TIP3    H147193   5.132   6.889   5.273
15772TIP3    H247194   5.181   6.899   5.131
15773TIP3   OH247195   5.360   7.397   6.289
15773TIP3    H147196   5.445   7.399   6.334
15773TIP3    H247197   5.337   7.304   6.285
15774TIP3   OH247198   5.844   7.366   6.328
15774TIP3    H147199   5.936   7.346   6.342
15774TIP3    H247200   5.817   7.309   6.257
15775TIP3   OH247201   5.824   6.937   4.463
15775TIP3    H147202   5.766   6.870   4.499
15775TIP3    H247203   5.898   6.888   4.428
15776TIP3   OH247204   6.486   7.267   6.065
15776TIP3    H147205   6.475   7.201   6.133
15776TIP3    H247206   6.559   7.320   6.094
15777TIP3   OH247207   6.261   6.982   4.373
15777TIP3    H147208   6.300   6.917   4.431
15777TIP3    H247209   6.315   6.979   4.294
15778TIP3   OH247210   5.489   6.805   6.486
15778TIP3    H147211   5.508   6.712   6.495
15778TIP3    H247212   5.403   6.808   6.444
15779TIP3   OH247213   5.470   6.458   4.681
15779TIP3    H147214   5.520   6.422   4.754
15779TIP3    H247215   5.533   6.463   4.609
15780TIP3   OH247216   6.096   6.889   6.256
15780TIP3    H147217   6.061   6.895   6.167
15780TIP3    H247218   6.132   6.800   6.262
15781TIP3   OH247219   5.975   6.653   4.490
15781TIP3    H147220   5.979   6.668   4.584
15781TIP3    H247221   5.977   6.558   4.481
15782TIP3   OH247222   6.584   6.917   5.892
15782TIP3    H147223   6.646   6.900   5.821
15782TIP3    H247224   6.528   6.988   5.858
15783TIP3   OH247225   5.614   6.541   6.469
15783TIP3    H147226   5.682   6.476   6.451
15783TIP3    H247227   5.634   6.573   6.556
15784TIP3   OH247228   5.678   6.358   4.905
15784TIP3    H147229   5.650   6.317   4.987
15784TIP3    H247230   5.713   6.285   4.853
15785TIP3   OH247231   5.944   6.427   6.130
15785TIP3    H147232   5.868   6.485   6.134
15785TIP3    H247233   5.994   6.459   6.055
15786TIP3   OH247234   5.777   6.154   4.742
15786TIP3    H147235   5.749   6.157   4.650
15786TIP3    H247236   5.872   6.159   4.737
15787TIP3   OH247237   6.463   6.825   6.263
15787TIP3    H147238   6.544   6.804   6.217
15787TIP3    H247239   6.457   6.761   6.334
15788TIP3   OH247240   6.596   6.488   4.403
15788TIP3    H147241   6.579   6.437   4.324
15788TIP3    H247242   6.566   6.576   4.382
15789TIP3   OH247243   6.066   6.212   6.257
15789TIP3    H147244   6.068   6.132   6.205
15789TIP3    H247245   6.024   6.276   6.201
15790TIP3   OH247246   6.068   6.000   6.065
15790TIP3    H147247   6.099   6.039   5.983
15790TIP3    H247248   5.977   5.976   6.048
15791TIP3   OH247249   6.108   6.542   5.940
15791TIP3    H147250   6.181   6.523   5.882
15791TIP3    H247251   6.050   6.598   5.888
15792TIP3   OH247252   6.681   6.503   6.319
15792TIP3    H147253   6.725   6.419   6.331
15792TIP3    H247254   6.748   6.560   6.282
15793TIP3   OH247255   6.724   6.756   6.058
15793TIP3    H147256   6.665   6.813   6.008
15793TIP3    H247257   6.810   6.771   6.019
15794TIP3   OH247258   5.941   6.326   6.483
15794TIP3    H147259   5.875   6.260   6.503
15794TIP3    H247260   5.980   6.299   6.400
15795TIP3   OH247261   6.201   5.763   6.129
15795TIP3    H147262   6.154   5.845   6.109
15795TIP3    H247263   6.134   5.695   6.120
15796TIP3   OH247264   6.325   6.269   6.350
15796TIP3    H147265   6.319   6.256   6.444
15796TIP3    H247266   6.238   6.243   6.317
15797TIP3   OH247267   6.568   6.219   6.207
15797TIP3    H147268   6.492   6.218   6.265
15797TIP3    H247269   6.640   6.186   6.260
15798TIP3   OH247270   6.801   6.157   6.355
15798TIP3    H147271   6.810   6.063   6.373
15798TIP3    H247272   6.794   6.197   6.442
15799TIP3   OH247273   5.787   6.105   6.541
15799TIP3    H147274   5.790   6.016   6.505
15799TIP3    H247275   5.822   6.096   6.630
15800TIP3   OH247276   6.299   5.772   6.385
15800TIP3    H147277   6.364   5.703   6.384
15800TIP3    H247278   6.257   5.767   6.299
15801TIP3   OH247279   6.363   5.989   6.544
15801TIP3    H147280   6.342   5.918   6.484
15801TIP3    H247281   6.286   6.047   6.541
15802TIP3   OH247282   5.584   7.221   4.647
15802TIP3    H147283   5.678   7.213   4.631
15802TIP3    H247284   5.550   7.265   4.569
15803TIP3   OH247285   5.065   6.597   4.864
15803TIP3    H147286   5.157   6.620   4.851
15803TIP3    H247287   5.057   6.510   4.825
15804TIP3   OH247288   4.976   7.209   5.279
15804TIP3    H147289   4.910   7.150   5.242
15804TIP3    H247290   5.021   7.155   5.344
15805TIP3   OH247291   5.113   7.065   5.468
15805TIP3    H147292   5.100   6.988   5.524
15805TIP3    H247293   5.162   7.126   5.523
15806TIP3   OH247294   6.837   7.473   5.264
15806TIP3    H147295   6.867   7.496   5.352
15806TIP3    H247296   6.906   7.503   5.206
15807TIP3   OH247297   6.871   7.480   5.548
15807TIP3    H147298   6.825   7.397   5.540
15807TIP3    H247299   6.946   7.460   5.604
15808TIP3   OH247300   6.917   7.162   6.122
15808TIP3    H147301   6.844   7.169   6.184
15808TIP3    H247302   6.955   7.250   6.120
15809TIP3   OH247303   6.734   6.673   4.741
15809TIP3    H147304   6.801   6.735   4.711
15809TIP3    H247305   6.772   6.633   4.819
15810TIP3   OH247306   6.861   6.544   4.944
15810TIP3    H147307   6.796   6.497   4.997
15810TIP3    H247308   6.923   6.579   5.008
15811TIP3   OH247309   6.946   6.950   5.380
15811TIP3    H147310   6.967   6.867   5.338
15811TIP3    H247311   6.885   6.993   5.319
15812TIP3   OH247312   6.746   7.234   5.567
15812TIP3    H147313   6.677   7.268   5.624
15812TIP3    H247314   6.700   7.182   5.501
15813TIP3   OH247315   6.795   6.450   4.589
15813TIP3    H147316   6.727   6.450   4.522
15813TIP3    H247317   6.772   6.523   4.647
15814TIP3   OH247318   6.671   6.107   4.541
15814TIP3    H147319   6.629   6.156   4.470
15814TIP3    H247320   6.638   6.017   4.531
15815TIP3   OH247321   6.676   6.391   5.078
15815TIP3    H147322   6.682   6.295   5.069
15815TIP3    H247323   6.663   6.405   5.171
15816TIP3   OH247324   5.302   6.471   5.834
15816TIP3    H147325   5.298   6.439   5.743
15816TIP3    H247326   5.396   6.471   5.854
15817TIP3   OH247327   6.966   6.821   5.948
15817TIP3    H147328   7.035   6.756   5.938
15817TIP3    H247329   6.983   6.886   5.880
15818TIP3   OH247330   7.150   6.625   5.966
15818TIP3    H147331   7.074   6.579   6.002
15818TIP3    H247332   7.222   6.563   5.978
15819TIP3   OH247333   6.671   6.109   4.982
15819TIP3    H147334   6.705   6.023   5.003
15819TIP3    H247335   6.729   6.143   4.915
15820TIP3   OH247336   6.838   6.286   5.487
15820TIP3    H147337   6.919   6.311   5.442
15820TIP3    H247338   6.845   6.325   5.574
15821TIP3   OH247339   6.902   6.437   5.713
15821TIP3    H147340   6.823   6.463   5.760
15821TIP3    H247341   6.929   6.516   5.666
15822TIP3   OH247342   5.521   6.158   6.514
15822TIP3    H147343   5.617   6.152   6.514
15822TIP3    H247344   5.493   6.075   6.552
15823TIP3   OH247345   7.357   6.024   6.267
15823TIP3    H147346   7.412   5.956   6.226
15823TIP3    H247347   7.325   6.076   6.193
15824TIP3   OH247348   6.775   5.863   5.029
15824TIP3    H147349   6.825   5.847   5.109
15824TIP3    H247350   6.720   5.785   5.019
15825TIP3   OH247351   5.482   5.849   5.845
15825TIP3    H147352   5.540   5.772   5.853
15825TIP3    H247353   5.542   5.923   5.837
15826TIP3   OH247354   5.283   6.124   5.914
15826TIP3    H147355   5.329   6.111   5.831
15826TIP3    H247356   5.316   6.207   5.947
15827TIP3   OH247357   7.221   6.160   6.074
15827TIP3    H147358   7.138   6.202   6.096
15827TIP3    H247359   7.198   6.089   6.015
15828TIP3   OH247360   6.891   5.779   4.664
15828TIP3    H147361   6.843   5.736   4.593
15828TIP3    H247362   6.930   5.856   4.622
15829TIP3   OH247363   5.262   5.641   5.426
15829TIP3    H147364   5.169   5.621   5.439
15829TIP3    H247365   5.265   5.687   5.342
15830TIP3   OH247366   6.425   7.331   4.920
15830TIP3    H147367   6.475   7.313   4.841
15830TIP3    H247368   6.480   7.391   4.970
15831TIP3   OH247369   5.484   5.709   6.231
15831TIP3    H147370   5.437   5.700   6.314
15831TIP3    H247371   5.419   5.744   6.170
15832TIP3   OH247372   5.524   7.134   6.309
15832TIP3    H147373   5.434   7.105   6.291
15832TIP3    H247374   5.539   7.111   6.401
15833TIP3   OH247375   5.698   7.161   5.852
15833TIP3    H147376   5.637   7.225   5.815
15833TIP3    H247377   5.784   7.200   5.839
15834TIP3   OH247378   6.145   7.420   5.992
15834TIP3    H147379   6.186   7.405   6.078
15834TIP3    H247380   6.214   7.461   5.940
15835TIP3   OH247381   6.334   7.560   5.851
15835TIP3    H147382   6.405   7.511   5.809
15835TIP3    H247383   6.378   7.618   5.913
15836TIP3   OH247384   7.121   5.922   5.951
15836TIP3    H147385   7.031   5.920   5.918
15836TIP3    H247386   7.153   5.832   5.940
15837TIP3   OH247387   5.382   7.426   5.878
15837TIP3    H147388   5.295   7.456   5.851
15837TIP3    H247389   5.391   7.456   5.968
15838TIP3   OH247390   5.616   7.397   5.732
15838TIP3    H147391   5.534   7.411   5.780
15838TIP3    H247392   5.598   7.434   5.645
15839TIP3   OH247393   6.056   7.441   5.516
15839TIP3    H147394   5.977   7.454   5.463
15839TIP3    H247395   6.061   7.519   5.571
15840TIP3   OH247396   6.313   7.367   5.587
15840TIP3    H147397   6.221   7.381   5.566
15840TIP3    H247398   6.358   7.442   5.547
15841TIP3   OH247399   6.520   7.563   5.501
15841TIP3    H147400   6.505   7.646   5.455
15841TIP3    H247401   6.545   7.502   5.431
15842TIP3   OH247402   5.294   7.216   5.626
15842TIP3    H147403   5.318   7.192   5.716
15842TIP3    H247404   5.360   7.173   5.572
15843TIP3   OH247405   5.482   7.086   5.481
15843TIP3    H147406   5.497   7.004   5.528
15843TIP3    H247407   5.570   7.121   5.467
15844TIP3   OH247408   5.745   7.184   5.468
15844TIP3    H147409   5.784   7.097   5.458
15844TIP3    H247410   5.769   7.210   5.557
15845TIP3   OH247411   6.327   5.837   5.569
15845TIP3    H147412   6.284   5.770   5.622
15845TIP3    H247413   6.399   5.791   5.526
15846TIP3   OH247414   6.851   5.725   5.479
15846TIP3    H147415   6.888   5.771   5.404
15846TIP3    H247416   6.756   5.737   5.469
15847TIP3   OH247417   6.950   5.821   5.240
15847TIP3    H147418   7.019   5.769   5.200
15847TIP3    H247419   6.976   5.912   5.226
15848TIP3   OH247420   5.575   5.546   5.588
15848TIP3    H147421   5.484   5.517   5.587
15848TIP3    H247422   5.626   5.464   5.584
15849TIP3   OH247423   5.378   5.416   5.235
15849TIP3    H147424   5.390   5.475   5.160
15849TIP3    H247425   5.328   5.467   5.299
15850TIP3   OH247426   6.018   5.583   5.467
15850TIP3    H147427   6.077   5.630   5.408
15850TIP3    H247428   6.040   5.616   5.554
15851TIP3   OH247429   6.567   5.724   5.451
15851TIP3    H147430   6.567   5.691   5.361
15851TIP3    H247431   6.553   5.646   5.505
15852TIP3   OH247432   6.595   5.649   5.022
15852TIP3    H147433   6.505   5.682   5.014
15852TIP3    H247434   6.586   5.569   5.074
15853TIP3   OH247435   5.078   6.988   5.014
15853TIP3    H147436   4.996   6.950   4.982
15853TIP3    H247437   5.069   7.082   4.998
15854TIP3   OH247438   5.479   5.586   4.995
15854TIP3    H147439   5.528   5.519   4.949
15854TIP3    H247440   5.546   5.639   5.038
15855TIP3   OH247441   5.996   5.753   5.099
15855TIP3    H147442   6.053   5.703   5.157
15855TIP3    H247443   6.013   5.844   5.121
15856TIP3   OH247444   5.853   7.177   4.592
15856TIP3    H147445   5.940   7.201   4.561
15856TIP3    H247446   5.827   7.103   4.538
15857TIP3   OH247447   6.570   7.293   4.687
15857TIP3    H147448   6.565   7.198   4.680
15857TIP3    H247449   6.526   7.326   4.609
15858TIP3   OH247450   5.785   5.829   6.481
15858TIP3    H147451   5.748   5.759   6.534
15858TIP3    H247452   5.878   5.830   6.505
15859TIP3   OH247453   6.034   5.823   6.598
15859TIP3    H147454   6.118   5.797   6.559
15859TIP3    H247455   6.018   5.758   6.666
15860TIP3   OH247456   5.159   7.016   4.654
15860TIP3    H147457   5.155   7.037   4.748
15860TIP3    H247458   5.244   6.974   4.643
15861TIP3   OH247459   6.859   5.885   6.386
15861TIP3    H147460   6.875   5.856   6.476
15861TIP3    H247461   6.945   5.880   6.344
15862TIP3   OH247462   6.796   7.442   5.875
15862TIP3    H147463   6.720   7.406   5.829
15862TIP3    H247464   6.777   7.536   5.881
15863TIP3   OH247465   8.061   6.812   4.643
15863TIP3    H147466   8.036   6.903   4.625
15863TIP3    H247467   7.987   6.761   4.611
15864TIP3   OH247468   8.063   6.809   5.024
15864TIP3    H147469   8.093   6.783   5.111
15864TIP3    H247470   8.019   6.731   4.989
15865TIP3   OH247471   7.366   6.707   5.387
15865TIP3    H147472   7.391   6.638   5.449
15865TIP3    H247473   7.440   6.767   5.385
15866TIP3   OH247474   8.305   7.113   4.707
15866TIP3    H147475   8.290   7.043   4.770
15866TIP3    H247476   8.333   7.188   4.760
15867TIP3   OH247477   7.335   7.116   5.115
15867TIP3    H147478   7.322   7.021   5.118
15867TIP3    H247479   7.430   7.127   5.111
15868TIP3   OH247480   7.039   6.326   4.900
15868TIP3    H147481   6.989   6.406   4.913
15868TIP3    H247482   6.975   6.262   4.868
15869TIP3   OH247483   7.103   6.607   5.069
15869TIP3    H147484   7.146   6.531   5.108
15869TIP3    H247485   7.157   6.627   4.992
15870TIP3   OH247486   7.956   7.576   4.722
15870TIP3    H147487   8.000   7.507   4.673
15870TIP3    H247488   7.947   7.540   4.810
15871TIP3   OH247489   7.864   7.037   5.071
15871TIP3    H147490   7.895   6.960   5.024
15871TIP3    H247491   7.944   7.083   5.097
15872TIP3   OH247492   8.876   6.359   5.069
15872TIP3    H147493   8.902   6.439   5.116
15872TIP3    H247494   8.891   6.380   4.977
15873TIP3   OH247495   8.276   6.538   5.104
15873TIP3    H147496   8.314   6.454   5.127
15873TIP3    H247497   8.242   6.526   5.016
15874TIP3   OH247498   7.610   6.198   5.067
15874TIP3    H147499   7.589   6.271   5.008
15874TIP3    H247500   7.565   6.123   5.029
15875TIP3   OH247501   8.308   6.289   4.695
15875TIP3    H147502   8.377   6.273   4.759
15875TIP3    H247503   8.354   6.327   4.620
15876TIP3   OH247504   7.246   6.399   5.176
15876TIP3    H147505   7.325   6.380   5.226
15876TIP3    H247506   7.253   6.344   5.098
15877TIP3   OH247507   7.686   6.596   4.967
15877TIP3    H147508   7.777   6.572   4.983
15877TIP3    H247509   7.645   6.515   4.937
15878TIP3   OH247510   8.945   6.566   5.242
15878TIP3    H147511   8.864   6.611   5.220
15878TIP3    H247512   8.963   6.591   5.332
15879TIP3   OH247513   7.606   6.183   5.506
15879TIP3    H147514   7.548   6.217   5.437
15879TIP3    H247515   7.557   6.198   5.587
15880TIP3   OH247516   7.955   7.035   4.512
15880TIP3    H147517   7.913   7.009   4.430
15880TIP3    H247518   7.912   7.116   4.537
15881TIP3   OH247519   7.714   6.959   5.302
15881TIP3    H147520   7.651   7.020   5.340
15881TIP3    H247521   7.755   7.008   5.230
15882TIP3   OH247522   8.518   6.292   4.865
15882TIP3    H147523   8.502   6.244   4.947
15882TIP3    H247524   8.569   6.368   4.892
15883TIP3   OH247525   7.482   6.297   5.288
15883TIP3    H147526   7.541   6.368   5.313
15883TIP3    H247527   7.526   6.254   5.214
15884TIP3   OH247528   7.538   7.151   5.399
15884TIP3    H147529   7.516   7.235   5.358
15884TIP3    H247530   7.463   7.131   5.455
15885TIP3   OH247531   6.938   6.840   4.632
15885TIP3    H147532   6.895   6.865   4.550
15885TIP3    H247533   6.968   6.923   4.670
15886TIP3   OH247534   8.374   7.358   4.875
15886TIP3    H147535   8.288   7.346   4.914
15886TIP3    H247536   8.368   7.441   4.829
15887TIP3   OH247537   8.666   6.259   5.235
15887TIP3    H147538   8.578   6.286   5.208
15887TIP3    H247539   8.724   6.288   5.165
15888TIP3   OH247540   7.964   5.899   5.222
15888TIP3    H147541   7.951   5.805   5.238
15888TIP3    H247542   7.888   5.940   5.263
15889TIP3   OH247543   8.082   7.404   4.547
15889TIP3    H147544   8.126   7.321   4.529
15889TIP3    H247545   8.138   7.470   4.507
15890TIP3   OH247546   8.221   7.187   4.455
15890TIP3    H147547   8.181   7.111   4.413
15890TIP3    H247548   8.256   7.154   4.538
15891TIP3   OH247549   8.601   7.270   5.215
15891TIP3    H147550   8.591   7.192   5.159
15891TIP3    H247551   8.585   7.344   5.156
15892TIP3   OH247552   7.892   6.664   4.472
15892TIP3    H147553   7.812   6.714   4.454
15892TIP3    H247554   7.938   6.661   4.389
15893TIP3   OH247555   7.856   6.446   4.192
15893TIP3    H147556   7.920   6.499   4.240
15893TIP3    H247557   7.909   6.383   4.144
15894TIP3   OH247558   8.796   6.906   5.059
15894TIP3    H147559   8.714   6.956   5.068
15894TIP3    H247560   8.828   6.929   4.972
15895TIP3   OH247561   8.242   6.745   4.449
15895TIP3    H147562   8.186   6.770   4.522
15895TIP3    H247563   8.325   6.720   4.490
15896TIP3   OH247564   8.474   6.788   5.357
15896TIP3    H147565   8.474   6.869   5.408
15896TIP3    H247566   8.390   6.788   5.312
15897TIP3   OH247567   7.474   6.742   4.861
15897TIP3    H147568   7.431   6.687   4.795
15897TIP3    H247569   7.549   6.691   4.890
15898TIP3   OH247570   7.606   7.157   5.009
15898TIP3    H147571   7.580   7.112   4.929
15898TIP3    H247572   7.694   7.123   5.029
15899TIP3   OH247573   7.618   6.713   5.217
15899TIP3    H147574   7.644   6.694   5.127
15899TIP3    H247575   7.654   6.800   5.236
15900TIP3   OH247576   8.135   7.352   4.995
15900TIP3    H147577   8.122   7.430   5.049
15900TIP3    H247578   8.120   7.279   5.056
15901TIP3   OH247579   7.744   7.272   5.540
15901TIP3    H147580   7.689   7.334   5.587
15901TIP3    H247581   7.682   7.217   5.492
15902TIP3   OH247582   8.085   6.604   4.271
15902TIP3    H147583   8.140   6.661   4.324
15902TIP3    H247584   8.108   6.625   4.181
15903TIP3   OH247585   7.498   6.829   5.641
15903TIP3    H147586   7.505   6.914   5.686
15903TIP3    H247587   7.406   6.806   5.650
15904TIP3   OH247588   7.824   7.284   4.548
15904TIP3    H147589   7.902   7.337   4.566
15904TIP3    H247590   7.763   7.345   4.507
15905TIP3   OH247591   7.539   7.441   5.627
15905TIP3    H147592   7.507   7.437   5.537
15905TIP3    H247593   7.463   7.418   5.681
15906TIP3   OH247594   8.597   5.845   4.323
15906TIP3    H147595   8.519   5.863   4.376
15906TIP3    H247596   8.612   5.926   4.274
15907TIP3   OH247597   7.338   6.586   4.666
15907TIP3    H147598   7.274   6.630   4.610
15907TIP3    H247599   7.300   6.500   4.684
15908TIP3   OH247600   8.398   7.213   3.869
15908TIP3    H147601   8.403   7.308   3.854
15908TIP3    H247602   8.487   7.182   3.856
15909TIP3   OH247603   7.128   6.971   5.578
15909TIP3    H147604   7.060   6.962   5.511
15909TIP3    H247605   7.156   6.881   5.596
15910TIP3   OH247606   6.977   7.183   5.183
15910TIP3    H147607   7.064   7.145   5.194
15910TIP3    H247608   6.965   7.239   5.260
15911TIP3   OH247609   8.837   7.612   5.263
15911TIP3    H147610   8.839   7.517   5.275
15911TIP3    H247611   8.757   7.640   5.307
15912TIP3   OH247612   7.943   7.402   5.399
15912TIP3    H147613   7.945   7.493   5.429
15912TIP3    H247614   7.874   7.361   5.451
15913TIP3   OH247615   7.704   7.530   4.349
15913TIP3    H147616   7.661   7.508   4.266
15913TIP3    H247617   7.672   7.618   4.370
15914TIP3   OH247618   7.143   7.378   4.736
15914TIP3    H147619   7.191   7.371   4.819
15914TIP3    H247620   7.090   7.299   4.733
15915TIP3   OH247621   7.910   7.430   3.991
15915TIP3    H147622   7.965   7.362   3.954
15915TIP3    H247623   7.941   7.439   4.081
15916TIP3   OH247624   7.956   7.479   4.263
15916TIP3    H147625   7.868   7.488   4.301
15916TIP3    H247626   8.007   7.435   4.331
15917TIP3   OH247627   8.729   6.744   5.537
15917TIP3    H147628   8.648   6.760   5.487
15917TIP3    H247629   8.744   6.649   5.528
15918TIP3   OH247630   7.326   7.154   5.567
15918TIP3    H147631   7.376   7.136   5.647
15918TIP3    H247632   7.254   7.092   5.569
15919TIP3   OH247633   7.723   5.980   5.345
15919TIP3    H147634   7.639   5.943   5.318
15919TIP3    H247635   7.700   6.059   5.394
15920TIP3   OH247636   8.257   6.091   5.543
15920TIP3    H147637   8.323   6.064   5.606
15920TIP3    H247638   8.173   6.072   5.585
15921TIP3   OH247639   8.500   6.524   5.463
15921TIP3    H147640   8.450   6.518   5.544
15921TIP3    H247641   8.473   6.608   5.425
15922TIP3   OH247642   8.160   6.651   4.015
15922TIP3    H147643   8.123   6.625   3.931
15922TIP3    H247644   8.239   6.701   3.992
15923TIP3   OH247645   7.870   6.023   4.320
15923TIP3    H147646   7.840   6.026   4.411
15923TIP3    H247647   7.834   5.941   4.286
15924TIP3   OH247648   7.658   6.493   5.368
15924TIP3    H147649   7.606   6.510   5.447
15924TIP3    H247650   7.644   6.570   5.313
15925TIP3   OH247651   7.537   6.377   4.878
15925TIP3    H147652   7.447   6.352   4.899
15925TIP3    H247653   7.553   6.338   4.791
15926TIP3   OH247654   8.032   6.466   4.605
15926TIP3    H147655   7.977   6.535   4.568
15926TIP3    H247656   8.085   6.435   4.532
15927TIP3   OH247657   8.206   6.742   5.697
15927TIP3    H147658   8.182   6.670   5.755
15927TIP3    H247659   8.299   6.758   5.715
15928TIP3   OH247660   8.189   6.492   4.844
15928TIP3    H147661   8.129   6.527   4.778
15928TIP3    H247662   8.222   6.411   4.806
15929TIP3   OH247663   7.478   6.520   5.576
15929TIP3    H147664   7.495   6.585   5.644
15929TIP3    H247665   7.463   6.438   5.623
15930TIP3   OH247666   7.528   5.999   4.286
15930TIP3    H147667   7.518   5.997   4.382
15930TIP3    H247668   7.451   6.048   4.256
15931TIP3   OH247669   7.066   6.049   5.158
15931TIP3    H147670   7.147   6.071   5.203
15931TIP3    H247671   7.094   6.011   5.075
15932TIP3   OH247672   7.056   6.035   4.674
15932TIP3    H147673   7.095   6.073   4.595
15932TIP3    H247674   6.988   6.097   4.700
15933TIP3   OH247675   8.201   6.737   5.270
15933TIP3    H147676   8.233   6.669   5.211
15933TIP3    H247677   8.170   6.689   5.347
15934TIP3   OH247678   7.869   6.202   4.943
15934TIP3    H147679   7.783   6.196   4.986
15934TIP3    H247680   7.931   6.204   5.016
15935TIP3   OH247681   7.301   6.254   4.947
15935TIP3    H147682   7.210   6.264   4.922
15935TIP3    H247683   7.322   6.163   4.928
15936TIP3   OH247684   7.574   6.254   4.636
15936TIP3    H147685   7.666   6.270   4.611
15936TIP3    H247686   7.525   6.275   4.556
15937TIP3   OH247687   8.355   6.273   5.142
15937TIP3    H147688   8.328   6.288   5.232
15937TIP3    H247689   8.289   6.213   5.107
15938TIP3   OH247690   7.414   6.286   4.416
15938TIP3    H147691   7.340   6.241   4.376
15938TIP3    H247692   7.464   6.320   4.342
15939TIP3   OH247693   8.530   7.966   5.361
15939TIP3    H147694   8.527   7.988   5.268
15939TIP3    H247695   8.608   8.010   5.394
15940TIP3   OH247696   7.487   7.077   5.786
15940TIP3    H147697   7.567   7.105   5.831
15940TIP3    H247698   7.421   7.071   5.855
15941TIP3   OH247699   7.952   6.528   5.042
15941TIP3    H147700   8.022   6.485   4.992
15941TIP3    H247701   7.957   6.488   5.128
15942TIP3   OH247702   7.478   6.012   4.918
15942TIP3    H147703   7.438   5.939   4.966
15942TIP3    H247704   7.531   5.970   4.851
15943TIP3   OH247705   7.928   6.427   5.326
15943TIP3    H147706   7.839   6.459   5.341
15943TIP3    H247707   7.983   6.485   5.378
15944TIP3   OH247708   7.663   6.815   4.426
15944TIP3    H147709   7.594   6.750   4.412
15944TIP3    H247710   7.647   6.849   4.514
15945TIP3   OH247711   8.565   7.052   5.052
15945TIP3    H147712   8.589   7.101   4.973
15945TIP3    H247713   8.481   7.011   5.030
15946TIP3   OH247714   8.122   6.129   4.284
15946TIP3    H147715   8.028   6.113   4.292
15946TIP3    H247716   8.133   6.222   4.307
15947TIP3   OH247717   8.068   7.137   5.421
15947TIP3    H147718   8.084   7.110   5.511
15947TIP3    H247719   8.025   7.222   5.429
15948TIP3   OH247720   8.194   6.376   4.388
15948TIP3    H147721   8.288   6.383   4.404
15948TIP3    H247722   8.172   6.454   4.337
15949TIP3   OH247723   7.362   6.842   5.100
15949TIP3    H147724   7.395   6.810   5.016
15949TIP3    H247725   7.388   6.775   5.163
15950TIP3   OH247726   7.808   6.967   4.247
15950TIP3    H147727   7.763   7.051   4.251
15950TIP3    H247728   7.756   6.910   4.304
15951TIP3   OH247729   7.236   6.751   5.712
15951TIP3    H147730   7.252   6.741   5.806
15951TIP3    H247731   7.162   6.693   5.694
15952TIP3   OH247732   7.962   6.870   5.732
15952TIP3    H147733   7.899   6.814   5.687
15952TIP3    H247734   8.048   6.839   5.704
15953TIP3   OH247735   8.224   7.398   5.316
15953TIP3    H147736   8.129   7.391   5.327
15953TIP3    H247737   8.253   7.446   5.393
15954TIP3   OH247738   8.633   6.466   4.221
15954TIP3    H147739   8.572   6.419   4.165
15954TIP3    H247740   8.634   6.555   4.186
15955TIP3   OH247741   8.850   7.321   5.304
15955TIP3    H147742   8.755   7.318   5.299
15955TIP3    H247743   8.879   7.293   5.217
15956TIP3   OH247744   8.336   7.284   4.134
15956TIP3    H147745   8.309   7.215   4.194
15956TIP3    H247746   8.347   7.240   4.049
15957TIP3   OH247747   8.329   6.912   4.972
15957TIP3    H147748   8.237   6.889   4.987
15957TIP3    H247749   8.365   6.836   4.927
15958TIP3   OH247750   7.456   7.142   4.723
15958TIP3    H147751   7.457   7.222   4.670
15958TIP3    H247752   7.363   7.122   4.735
15959TIP3   OH247753   7.020   6.448   4.431
15959TIP3    H147754   7.066   6.529   4.449
15959TIP3    H247755   6.943   6.450   4.488
15960TIP3   OH247756   7.597   6.909   4.671
15960TIP3    H147757   7.563   6.997   4.687
15960TIP3    H247758   7.562   6.856   4.742
15961TIP3   OH247759   7.728   7.486   5.194
15961TIP3    H147760   7.767   7.557   5.143
15961TIP3    H247761   7.801   7.449   5.243
15962TIP3   OH247762   7.375   7.383   4.578
15962TIP3    H147763   7.291   7.387   4.623
15962TIP3    H247764   7.407   7.473   4.579
15963TIP3   OH247765   8.117   7.118   5.153
15963TIP3    H147766   8.106   7.119   5.248
15963TIP3    H247767   8.195   7.065   5.138
15964TIP3   OH247768   8.088   7.011   4.037
15964TIP3    H147769   8.141   6.988   4.113
15964TIP3    H247770   7.999   6.986   4.060
15965TIP3   OH247771   8.362   7.654   5.202
15965TIP3    H147772   8.286   7.595   5.199
15965TIP3    H247773   8.347   7.717   5.132
15966TIP3   OH247774   8.427   7.490   3.854
15966TIP3    H147775   8.466   7.556   3.796
15966TIP3    H247776   8.349   7.531   3.889
15967TIP3   OH247777   7.446   6.264   5.723
15967TIP3    H147778   7.351   6.269   5.732
15967TIP3    H247779   7.474   6.202   5.790
15968TIP3   OH247780   8.251   6.945   4.253
15968TIP3    H147781   8.238   6.881   4.323
15968TIP3    H247782   8.345   6.945   4.238
15969TIP3   OH247783   7.165   7.349   5.356
15969TIP3    H147784   7.212   7.269   5.378
15969TIP3    H247785   7.195   7.413   5.421
15970TIP3   OH247786   7.456   6.991   4.036
15970TIP3    H147787   7.469   6.902   4.003
15970TIP3    H247788   7.436   6.980   4.129
15971TIP3   OH247789   7.401   7.000   4.309
15971TIP3    H147790   7.472   6.969   4.366
15971TIP3    H247791   7.405   7.095   4.313
15972TIP3   OH247792   7.137   6.695   4.510
15972TIP3    H147793   7.071   6.734   4.568
15972TIP3    H247794   7.152   6.761   4.443
15973TIP3   OH247795   8.289   6.325   5.401
15973TIP3    H147796   8.364   6.365   5.444
15973TIP3    H247797   8.270   6.247   5.453
15974TIP3   OH247798   8.177   6.081   4.562
15974TIP3    H147799   8.153   6.103   4.472
15974TIP3    H247800   8.207   6.164   4.600
15975TIP3   OH247801   7.666   7.198   4.257
15975TIP3    H147802   7.580   7.222   4.292
15975TIP3    H247803   7.683   7.263   4.188
15976TIP3   OH247804   7.863   6.256   4.670
15976TIP3    H147805   7.921   6.330   4.652
15976TIP3    H247806   7.860   6.253   4.766
15977TIP3   OH247807   8.126   6.579   5.478
15977TIP3    H147808   8.142   6.634   5.555
15977TIP3    H247809   8.179   6.500   5.494
15978TIP3   OH247810   8.008   5.998   4.782
15978TIP3    H147811   7.983   6.078   4.829
15978TIP3    H247812   8.062   6.028   4.710
15979TIP3   OH247813   7.409   7.273   4.322
15979TIP3    H147814   7.380   7.339   4.259
15979TIP3    H247815   7.394   7.313   4.408
15980TIP3   OH247816   7.514   5.986   4.560
15980TIP3    H147817   7.503   6.072   4.600
15980TIP3    H247818   7.607   5.965   4.571
15981TIP3   OH247819   8.764   6.476   5.456
15981TIP3    H147820   8.669   6.477   5.468
15981TIP3    H247821   8.777   6.439   5.369
15982TIP3   OH247822   8.416   6.671   4.846
15982TIP3    H147823   8.340   6.615   4.858
15982TIP3    H247824   8.486   6.626   4.893
15983TIP3   OH247825   7.130   6.903   4.313
15983TIP3    H147826   7.194   6.973   4.325
15983TIP3    H247827   7.170   6.845   4.248
15984TIP3   OH247828   7.075   6.180   4.444
15984TIP3    H147829   7.071   6.276   4.442
15984TIP3    H247830   6.990   6.152   4.408
15985TIP3   OH247831   8.385   7.631   4.793
15985TIP3    H147832   8.340   7.674   4.721
15985TIP3    H247833   8.478   7.647   4.777
15986TIP3   OH247834   7.461   5.895   5.322
15986TIP3    H147835   7.431   5.864   5.237
15986TIP3    H247836   7.451   5.819   5.380
15987TIP3   OH247837   7.003   7.123   4.704
15987TIP3    H147838   6.931   7.146   4.762
15987TIP3    H247839   6.976   7.156   4.618
15988TIP3   OH247840   7.155   7.648   5.775
15988TIP3    H147841   7.241   7.647   5.817
15988TIP3    H247842   7.129   7.556   5.770
15989TIP3   OH247843   7.639   7.620   5.816
15989TIP3    H147844   7.732   7.603   5.827
15989TIP3    H247845   7.613   7.562   5.744
15990TIP3   OH247846   7.620   7.194   3.950
15990TIP3    H147847   7.563   7.126   3.985
15990TIP3    H247848   7.694   7.146   3.913
15991TIP3   OH247849   8.278   7.526   5.553
15991TIP3    H147850   8.268   7.458   5.619
15991TIP3    H247851   8.354   7.577   5.582
15992TIP3   OH247852   8.057   7.238   3.859
15992TIP3    H147853   8.100   7.174   3.916
15992TIP3    H247854   8.109   7.238   3.779
15993TIP3   OH247855   7.284   7.061   5.972
15993TIP3    H147856   7.302   6.968   5.979
15993TIP3    H247857   7.198   7.066   5.930
15994TIP3   OH247858   7.266   6.715   4.167
15994TIP3    H147859   7.316   6.679   4.240
15994TIP3    H247860   7.329   6.720   4.095
15995TIP3   OH247861   7.894   7.146   5.747
15995TIP3    H147862   7.851   7.162   5.663
15995TIP3    H247863   7.924   7.055   5.742
15996TIP3   OH247864   7.773   6.911   3.977
15996TIP3    H147865   7.775   6.926   4.071
15996TIP3    H247866   7.772   6.816   3.968
15997TIP3   OH247867   8.387   7.156   5.353
15997TIP3    H147868   8.460   7.200   5.310
15997TIP3    H247869   8.313   7.216   5.343
15998TIP3   OH247870   7.407   6.800   5.958
15998TIP3    H147871   7.475   6.736   5.936
15998TIP3    H247872   7.430   6.831   6.045
15999TIP3   OH247873   7.475   6.614   4.392
15999TIP3    H147874   7.444   6.576   4.474
15999TIP3    H247875   7.508   6.540   4.341
16000TIP3   OH247876   7.742   6.686   5.621
16000TIP3    H147877   7.662   6.739   5.623
16000TIP3    H247878   7.788   6.715   5.542
16001TIP3   OH247879   7.572   6.409   4.228
16001TIP3    H147880   7.543   6.413   4.137
16001TIP3    H247881   7.668   6.416   4.223
16002TIP3   OH247882   8.258   7.083   5.753
16002TIP3    H147883   8.338   7.062   5.705
16002TIP3    H247884   8.254   7.017   5.823
16003TIP3   OH247885   8.394   6.743   3.890
16003TIP3    H147886   8.374   6.694   3.811
16003TIP3    H247887   8.364   6.832   3.872
16004TIP3   OH247888   7.865   6.470   5.742
16004TIP3    H147889   7.863   6.390   5.690
16004TIP3    H247890   7.821   6.535   5.688
16005TIP3   OH247891   7.865   6.257   5.549
16005TIP3    H147892   7.892   6.296   5.466
16005TIP3    H247893   7.774   6.232   5.535
16006TIP3   OH247894   7.896   6.794   5.423
16006TIP3    H147895   7.977   6.799   5.373
16006TIP3    H247896   7.838   6.858   5.382
16007TIP3   OH247897   8.478   6.759   5.808
16007TIP3    H147898   8.524   6.675   5.814
16007TIP3    H247899   8.543   6.819   5.773
16008TIP3   OH247900   8.519   7.013   5.539
16008TIP3    H147901   8.458   7.063   5.484
16008TIP3    H247902   8.605   7.030   5.502
16009TIP3   OH247903   7.742   6.580   5.974
16009TIP3    H147904   7.674   6.515   5.990
16009TIP3    H247905   7.776   6.559   5.887
16010TIP3   OH247906   7.996   6.021   5.616
16010TIP3    H147907   7.949   6.102   5.595
16010TIP3    H247908   7.930   5.952   5.607
16011TIP3   OH247909   8.122   6.524   5.836
16011TIP3    H147910   8.112   6.513   5.931
16011TIP3    H247911   8.036   6.501   5.800
16012TIP3   OH247912   8.363   6.472   5.691
16012TIP3    H147913   8.288   6.475   5.749
16012TIP3    H247914   8.435   6.442   5.746
16013TIP3   OH247915   8.595   6.415   5.843
16013TIP3    H147916   8.605   6.321   5.857
16013TIP3    H247917   8.589   6.452   5.931
16014TIP3   OH247918   7.583   6.361   6.027
16014TIP3    H147919   7.584   6.273   5.990
16014TIP3    H247920   7.616   6.349   6.117
16015TIP3   OH247921   8.095   6.029   5.872
16015TIP3    H147922   8.160   5.959   5.870
16015TIP3    H247923   8.052   6.025   5.787
16016TIP3   OH247924   8.157   6.244   6.034
16016TIP3    H147925   8.138   6.174   5.972
16016TIP3    H247926   8.082   6.303   6.028
16017TIP3   OH247927   7.381   7.477   4.136
16017TIP3    H147928   7.475   7.469   4.120
16017TIP3    H247929   7.347   7.521   4.058
16018TIP3   OH247930   6.861   6.854   4.350
16018TIP3    H147931   6.953   6.877   4.338
16018TIP3    H247932   6.852   6.767   4.311
16019TIP3   OH247933   6.772   7.467   4.765
16019TIP3    H147934   6.706   7.408   4.730
16019TIP3    H247935   6.818   7.415   4.831
16020TIP3   OH247936   6.907   7.324   4.956
16020TIP3    H147937   6.901   7.246   5.011
16020TIP3    H247938   6.959   7.386   5.007
16021TIP3   OH247939   8.635   7.726   4.751
16021TIP3    H147940   8.663   7.751   4.839
16021TIP3    H247941   8.703   7.761   4.693
16022TIP3   OH247942   8.668   7.737   5.033
16022TIP3    H147943   8.622   7.653   5.028
16022TIP3    H247944   8.743   7.719   5.091
16023TIP3   OH247945   8.712   7.417   5.607
16023TIP3    H147946   8.639   7.424   5.669
16023TIP3    H247947   8.754   7.503   5.609
16024TIP3   OH247948   8.531   6.929   4.228
16024TIP3    H147949   8.596   6.993   4.198
16024TIP3    H247950   8.571   6.889   4.305
16025TIP3   OH247951   8.657   6.795   4.431
16025TIP3    H147952   8.592   6.754   4.488
16025TIP3    H247953   8.721   6.834   4.491
16026TIP3   OH247954   8.711   7.188   4.860
16026TIP3    H147955   8.763   7.124   4.812
16026TIP3    H247956   8.701   7.262   4.800
16027TIP3   OH247957   8.540   7.490   5.056
16027TIP3    H147958   8.472   7.530   5.110
16027TIP3    H247959   8.493   7.441   4.989
16028TIP3   OH247960   8.592   6.705   4.078
16028TIP3    H147961   8.524   6.704   4.010
16028TIP3    H247962   8.569   6.779   4.134
16029TIP3   OH247963   8.467   6.375   4.030
16029TIP3    H147964   8.423   6.419   3.957
16029TIP3    H247965   8.441   6.283   4.021
16030TIP3   OH247966   8.471   6.652   4.579
16030TIP3    H147967   8.478   6.557   4.572
16030TIP3    H247968   8.457   6.668   4.672
16031TIP3   OH247969   7.098   6.717   5.323
16031TIP3    H147970   7.094   6.692   5.231
16031TIP3    H247971   7.192   6.723   5.341
16032TIP3   OH247972   8.762   7.077   5.432
16032TIP3    H147973   8.832   7.013   5.424
16032TIP3    H247974   8.787   7.148   5.372
16033TIP3   OH247975   8.945   6.880   5.451
16033TIP3    H147976   8.870   6.834   5.489
16033TIP3    H247977   9.018   6.820   5.463
16034TIP3   OH247978   8.410   6.109   4.019
16034TIP3    H147979   8.481   6.079   4.075
16034TIP3    H247980   8.335   6.054   4.041
16035TIP3   OH247981   8.469   6.368   4.472
16035TIP3    H147982   8.506   6.281   4.487
16035TIP3    H247983   8.523   6.405   4.402
16036TIP3   OH247984   8.632   6.544   4.968
16036TIP3    H147985   8.714   6.568   4.925
16036TIP3    H247986   8.639   6.578   5.057
16037TIP3   OH247987   8.696   6.688   5.199
16037TIP3    H147988   8.619   6.719   5.247
16037TIP3    H247989   8.728   6.766   5.154
16038TIP3   OH247990   7.317   6.413   6.004
16038TIP3    H147991   7.412   6.407   6.001
16038TIP3    H247992   7.289   6.330   6.041
16039TIP3   OH247993   9.150   6.278   5.754
16039TIP3    H147994   9.207   6.213   5.713
16039TIP3    H247995   9.120   6.332   5.681
16040TIP3   OH247996   8.575   6.117   4.511
16040TIP3    H147997   8.624   6.109   4.593
16040TIP3    H247998   8.516   6.042   4.511
16041TIP3   OH247999   7.280   6.104   5.328
16041TIP3    H148000   7.338   6.028   5.338
16041TIP3    H248001   7.339   6.179   5.323
16042TIP3   OH248002   7.082   6.381   5.404
16042TIP3    H148003   7.126   6.368   5.320
16042TIP3    H248004   7.104   6.471   5.428
16043TIP3   OH248005   9.018   6.417   5.561
16043TIP3    H148006   8.936   6.460   5.586
16043TIP3    H248007   8.992   6.347   5.502
16044TIP3   OH248008   8.660   6.052   4.144
16044TIP3    H148009   8.695   5.983   4.089
16044TIP3    H248010   8.722   6.124   4.134
16045TIP3   OH248011   7.059   5.903   4.914
16045TIP3    H148012   6.968   5.875   4.924
16045TIP3    H248013   7.063   5.942   4.827
16046TIP3   OH248014   8.222   7.587   4.408
16046TIP3    H148015   8.269   7.569   4.327
16046TIP3    H248016   8.279   7.649   4.455
16047TIP3   OH248017   7.281   5.965   5.719
16047TIP3    H148018   7.231   5.956   5.801
16047TIP3    H248019   7.218   6.001   5.657
16048TIP3   OH248020   7.320   7.392   5.799
16048TIP3    H148021   7.232   7.361   5.775
16048TIP3    H248022   7.331   7.366   5.890
16049TIP3   OH248023   7.500   7.424   5.341
16049TIP3    H148024   7.448   7.495   5.304
16049TIP3    H248025   7.586   7.433   5.299
16050TIP3   OH248026   7.947   7.669   5.480
16050TIP3    H148027   7.986   7.666   5.568
16050TIP3    H248028   8.011   7.717   5.428
16051TIP3   OH248029   8.127   7.818   5.338
16051TIP3    H148030   8.195   7.765   5.297
16051TIP3    H248031   8.173   7.875   5.399
16052TIP3   OH248032   8.919   6.179   5.437
16052TIP3    H148033   8.828   6.179   5.406
16052TIP3    H248034   8.948   6.088   5.426
16053TIP3   OH248035   7.176   7.685   5.363
16053TIP3    H148036   7.089   7.716   5.340
16053TIP3    H248037   7.186   7.707   5.455
16054TIP3   OH248038   7.412   7.660   5.222
16054TIP3    H148039   7.329   7.671   5.269
16054TIP3    H248040   7.394   7.689   5.133
16055TIP3   OH248041   7.838   7.689   5.020
16055TIP3    H148042   7.770   7.706   4.955
16055TIP3    H248043   7.851   7.773   5.064
16056TIP3   OH248044   8.106   7.628   5.071
16056TIP3    H148045   8.013   7.641   5.052
16056TIP3    H248046   8.150   7.704   5.031
16057TIP3   OH248047   8.318   7.820   4.986
16057TIP3    H148048   8.302   7.903   4.940
16057TIP3    H248049   8.342   7.758   4.917
16058TIP3   OH248050   7.092   7.474   5.113
16058TIP3    H148051   7.112   7.446   5.203
16058TIP3    H248052   7.156   7.429   5.059
16059TIP3   OH248053   7.282   7.344   4.968
16059TIP3    H148054   7.293   7.261   5.015
16059TIP3    H248055   7.371   7.379   4.963
16060TIP3   OH248056   7.551   7.438   4.971
16060TIP3    H148057   7.577   7.348   4.954
16060TIP3    H248058   7.591   7.461   5.054
16061TIP3   OH248059   8.126   6.096   5.068
16061TIP3    H148060   8.075   6.034   5.120
16061TIP3    H248061   8.181   6.042   5.012
16062TIP3   OH248062   8.651   5.977   4.965
16062TIP3    H148063   8.686   6.018   4.887
16062TIP3    H248064   8.556   5.987   4.957
16063TIP3   OH248065   8.743   6.076   4.723
16063TIP3    H148066   8.816   6.026   4.685
16063TIP3    H248067   8.771   6.168   4.715
16064TIP3   OH248068   7.373   5.803   5.075
16064TIP3    H148069   7.281   5.776   5.074
16064TIP3    H248070   7.422   5.721   5.071
16065TIP3   OH248071   7.175   5.671   4.713
16065TIP3    H148072   7.187   5.737   4.645
16065TIP3    H248073   7.112   5.711   4.774
16066TIP3   OH248074   7.814   5.856   4.947
16066TIP3    H148075   7.885   5.902   4.902
16066TIP3    H248076   7.829   5.873   5.040
16067TIP3   OH248077   8.373   5.974   4.933
16067TIP3    H148078   8.325   5.957   4.852
16067TIP3    H248079   8.365   5.893   4.984
16068TIP3   OH248080   8.378   5.901   4.506
16068TIP3    H148081   8.315   5.971   4.524
16068TIP3    H248082   8.327   5.820   4.511
16069TIP3   OH248083   6.874   7.242   4.499
16069TIP3    H148084   6.793   7.203   4.465
16069TIP3    H248085   6.862   7.336   4.488
16070TIP3   OH248086   7.274   5.841   4.478
16070TIP3    H148087   7.323   5.774   4.432
16070TIP3    H248088   7.340   5.892   4.524
16071TIP3   OH248089   7.792   6.007   4.585
16071TIP3    H148090   7.839   5.955   4.650
16071TIP3    H248091   7.812   6.098   4.609
16072TIP3   OH248092   7.649   7.433   4.081
16072TIP3    H148093   7.735   7.459   4.049
16072TIP3    H248094   7.623   7.360   4.025
16073TIP3   OH248095   8.366   7.550   4.175
16073TIP3    H148096   8.361   7.455   4.166
16073TIP3    H248097   8.322   7.584   4.097
16074TIP3   OH248098   7.581   6.087   5.969
16074TIP3    H148099   7.544   6.015   6.021
16074TIP3    H248100   7.674   6.088   5.993
16075TIP3   OH248101   7.831   6.082   6.087
16075TIP3    H148102   7.912   6.055   6.044
16075TIP3    H248103   7.814   6.014   6.152
16076TIP3   OH248104   6.958   7.274   4.145
16076TIP3    H148105   6.956   7.284   4.240
16076TIP3    H248106   7.041   7.231   4.127
16077TIP3   OH248107   8.654   6.145   5.865
16077TIP3    H148108   8.667   6.113   5.954
16077TIP3    H248109   8.740   6.140   5.825
16078TIP3   OH248110   8.592   7.698   5.362
16078TIP3    H148111   8.515   7.663   5.317
16078TIP3    H248112   8.574   7.792   5.369
16079TIP3   OH248113   0.063   7.066   4.116
16079TIP3    H148114   0.067   7.159   4.138
16079TIP3    H248115  -0.030   7.049   4.102
16080TIP3   OH248116   0.008   7.061   4.530
16080TIP3    H148117   0.079   7.047   4.593
16080TIP3    H248118   0.023   6.996   4.462
16081TIP3   OH248119   9.160   6.965   4.878
16081TIP3    H148120   9.190   6.898   4.940
16081TIP3    H248121   9.235   7.022   4.865
16082TIP3   OH248122   9.131   7.370   4.603
16082TIP3    H148123   9.119   7.275   4.605
16082TIP3    H248124   9.225   7.383   4.592
16083TIP3   OH248125   8.833   6.576   4.386
16083TIP3    H148126   8.790   6.660   4.404
16083TIP3    H248127   8.764   6.522   4.347
16084TIP3   OH248128   8.897   6.863   4.556
16084TIP3    H148129   8.944   6.788   4.594
16084TIP3    H248130   8.957   6.898   4.491
16085TIP3   OH248131   9.744   7.817   4.225
16085TIP3    H148132   9.787   7.749   4.172
16085TIP3    H248133   9.739   7.779   4.313
16086TIP3   OH248134   9.651   7.299   4.565
16086TIP3    H148135   9.685   7.220   4.522
16086TIP3    H248136   9.729   7.353   4.580
16087TIP3   OH248137   0.275   6.814   4.591
16087TIP3    H148138   0.271   6.721   4.614
16087TIP3    H248139   0.256   6.816   4.497
16088TIP3   OH248140   9.404   6.455   4.557
16088TIP3    H148141   9.387   6.529   4.499
16088TIP3    H248142   9.359   6.382   4.516
16089TIP3   OH248143   0.291   6.542   4.199
16089TIP3    H148144   0.367   6.517   4.251
16089TIP3    H248145   0.325   6.605   4.135
16090TIP3   OH248146   9.042   6.655   4.664
16090TIP3    H148147   9.123   6.640   4.713
16090TIP3    H248148   9.052   6.603   4.585
16091TIP3   OH248149   9.482   6.851   4.457
16091TIP3    H148150   9.574   6.829   4.469
16091TIP3    H248151   9.442   6.770   4.424
16092TIP3   OH248152   9.400   6.438   4.992
16092TIP3    H148153   9.345   6.476   4.924
16092TIP3    H248154   9.352   6.454   5.074
16093TIP3   OH248155   9.511   7.213   4.789
16093TIP3    H148156   9.451   7.280   4.823
16093TIP3    H248157   9.555   7.256   4.716
16094TIP3   OH248158   9.277   6.555   4.777
16094TIP3    H148159   9.334   6.628   4.801
16094TIP3    H248160   9.321   6.513   4.702
16095TIP3   OH248161   9.335   7.408   4.887
16095TIP3    H148162   9.315   7.491   4.843
16095TIP3    H248163   9.259   7.391   4.942
16096TIP3   OH248164   8.733   7.098   4.120
16096TIP3    H148165   8.692   7.122   4.037
16096TIP3    H248166   8.763   7.181   4.157
16097TIP3   OH248167   9.754   6.155   4.717
16097TIP3    H148168   9.737   6.062   4.731
16097TIP3    H248169   9.678   6.199   4.755
16098TIP3   OH248170   0.129   7.683   4.056
16098TIP3    H148171   0.102   7.595   4.083
16098TIP3    H248172   0.098   7.691   3.966
16099TIP3   OH248173   9.671   6.901   3.944
16099TIP3    H148174   9.595   6.959   3.945
16099TIP3    H248175   9.726   6.935   3.874
16100TIP3   OH248176   9.647   6.703   3.674
16100TIP3    H148177   9.696   6.746   3.744
16100TIP3    H248178   9.711   6.645   3.632
16101TIP3   OH248179   9.267   6.996   4.353
16101TIP3    H148180   9.229   6.943   4.284
16101TIP3    H248181   9.345   6.949   4.381
16102TIP3   OH248182   9.398   7.408   4.499
16102TIP3    H148183   9.383   7.371   4.412
16102TIP3    H248184   9.487   7.381   4.522
16103TIP3   OH248185   9.407   6.973   4.702
16103TIP3    H148186   9.440   6.952   4.615
16103TIP3    H248187   9.449   7.056   4.724
16104TIP3   OH248188   0.092   7.633   4.489
16104TIP3    H148189   0.139   7.692   4.548
16104TIP3    H248190   0.108   7.546   4.525
16105TIP3   OH248191   9.538   7.526   5.034
16105TIP3    H148192   9.480   7.590   5.075
16105TIP3    H248193   9.480   7.473   4.980
16106TIP3   OH248194   0.098   6.868   3.767
16106TIP3    H148195   0.129   6.932   3.830
16106TIP3    H248196   0.111   6.909   3.682
16107TIP3   OH248197   9.296   7.084   5.132
16107TIP3    H148198   9.304   7.170   5.174
16107TIP3    H248199   9.203   7.064   5.137
16108TIP3   OH248200   9.656   7.599   3.997
16108TIP3    H148201   9.683   7.523   4.048
16108TIP3    H248202   9.564   7.612   4.020
16109TIP3   OH248203   9.335   7.697   5.114
16109TIP3    H148204   9.304   7.696   5.024
16109TIP3    H248205   9.258   7.675   5.167
16110TIP3   OH248206   9.135   6.840   4.151
16110TIP3    H148207   9.074   6.890   4.096
16110TIP3    H248208   9.090   6.757   4.167
16111TIP3   OH248209   8.917   7.225   5.061
16111TIP3    H148210   8.853   7.204   4.993
16111TIP3    H248211   8.954   7.140   5.086
16112TIP3   OH248212   8.773   7.421   4.694
16112TIP3    H148213   8.867   7.409   4.682
16112TIP3    H248214   8.765   7.497   4.751
16113TIP3   OH248215   9.740   7.655   4.890
16113TIP3    H148216   9.741   7.747   4.915
16113TIP3    H248217   9.670   7.616   4.942
16114TIP3   OH248218   9.491   7.806   3.821
16114TIP3    H148219   9.445   7.777   3.742
16114TIP3    H248220   9.451   7.891   3.842
16115TIP3   OH248221   8.939   7.635   4.223
16115TIP3    H148222   8.988   7.627   4.305
16115TIP3    H248223   8.884   7.557   4.221
16116TIP3   OH248224   9.710   7.690   3.498
16116TIP3    H148225   9.776   7.628   3.466
16116TIP3    H248226   9.736   7.707   3.588
16117TIP3   OH248227   9.741   7.730   3.771
16117TIP3    H148228   9.653   7.759   3.796
16117TIP3    H248229   9.758   7.655   3.827
16118TIP3   OH248230   9.121   7.409   5.053
16118TIP3    H148231   9.171   7.393   5.133
16118TIP3    H248232   9.048   7.347   5.059
16119TIP3   OH248233   9.518   6.235   4.832
16119TIP3    H148234   9.431   6.202   4.808
16119TIP3    H248235   9.500   6.318   4.876
16120TIP3   OH248236   0.243   6.345   5.037
16120TIP3    H148237   0.289   6.342   5.121
16120TIP3    H248238   0.152   6.326   5.058
16121TIP3   OH248239   9.673   6.280   3.809
16121TIP3    H148240   9.640   6.283   3.899
16121TIP3    H248241   9.631   6.203   3.771
16122TIP3   OH248242   9.452   6.751   4.851
16122TIP3    H148243   9.404   6.771   4.932
16122TIP3    H248244   9.439   6.829   4.797
16123TIP3   OH248245   9.336   6.630   4.365
16123TIP3    H148246   9.245   6.611   4.384
16123TIP3    H248247   9.351   6.593   4.278
16124TIP3   OH248248   0.019   6.713   4.083
16124TIP3    H148249  -0.034   6.786   4.052
16124TIP3    H248250   0.084   6.700   4.014
16125TIP3   OH248251   0.204   6.995   5.179
16125TIP3    H148252   0.175   6.929   5.242
16125TIP3    H248253   0.294   7.016   5.205
16126TIP3   OH248254   0.163   6.748   4.348
16126TIP3    H148255   0.137   6.804   4.275
16126TIP3    H248256   0.199   6.670   4.306
16127TIP3   OH248257   9.274   6.778   5.063
16127TIP3    H148258   9.295   6.845   5.128
16127TIP3    H248259   9.260   6.698   5.114
16128TIP3   OH248260   9.322   6.256   3.773
16128TIP3    H148261   9.313   6.253   3.869
16128TIP3    H248262   9.247   6.307   3.744
16129TIP3   OH248263   8.865   6.299   4.643
16129TIP3    H148264   8.938   6.332   4.696
16129TIP3    H248265   8.906   6.273   4.561
16130TIP3   OH248266   8.841   6.285   4.161
16130TIP3    H148267   8.884   6.319   4.083
16130TIP3    H248268   8.777   6.353   4.185
16131TIP3   OH248269   0.177   7.000   4.758
16131TIP3    H148270   0.228   6.944   4.699
16131TIP3    H248271   0.157   6.944   4.833
16132TIP3   OH248272   9.659   6.440   4.434
16132TIP3    H148273   9.576   6.451   4.479
16132TIP3    H248274   9.723   6.483   4.490
16133TIP3   OH248275   9.095   6.512   4.436
16133TIP3    H148276   9.004   6.523   4.411
16133TIP3    H248277   9.117   6.422   4.411
16134TIP3   OH248278   9.368   6.505   4.123
16134TIP3    H148279   9.460   6.526   4.106
16134TIP3    H248280   9.322   6.532   4.043
16135TIP3   OH248281   0.267   6.546   4.633
16135TIP3    H148282   0.264   6.550   4.729
16135TIP3    H248283   0.218   6.467   4.611
16136TIP3   OH248284   9.210   6.538   3.901
16136TIP3    H148285   9.136   6.497   3.856
16136TIP3    H248286   9.262   6.577   3.831
16137TIP3   OH248287   9.284   7.332   5.273
16137TIP3    H148288   9.364   7.363   5.316
16137TIP3    H248289   9.218   7.329   5.342
16138TIP3   OH248290   9.739   6.748   4.516
16138TIP3    H148291   9.820   6.748   4.464
16138TIP3    H248292   9.770   6.742   4.606
16139TIP3   OH248293   9.277   6.269   4.403
16139TIP3    H148294   9.238   6.192   4.444
16139TIP3    H248295   9.306   6.239   4.317
16140TIP3   OH248296   9.724   6.676   4.832
16140TIP3    H148297   9.637   6.714   4.827
16140TIP3    H248298   9.779   6.744   4.871
16141TIP3   OH248299   9.459   7.069   3.914
16141TIP3    H148300   9.386   7.008   3.899
16141TIP3    H248301   9.442   7.107   4.000
16142TIP3   OH248302   0.119   6.399   3.763
16142TIP3    H148303   0.029   6.377   3.787
16142TIP3    H248304   0.133   6.485   3.800
16143TIP3   OH248305   0.059   7.385   4.917
16143TIP3    H148306   0.072   7.378   5.011
16143TIP3    H248307   0.028   7.475   4.903
16144TIP3   OH248308   0.213   6.640   3.861
16144TIP3    H148309   0.302   6.671   3.881
16144TIP3    H248310   0.172   6.713   3.813
16145TIP3   OH248311   9.151   7.090   4.587
16145TIP3    H148312   9.187   7.067   4.501
16145TIP3    H248313   9.196   7.033   4.649
16146TIP3   OH248314   9.594   7.215   3.721
16146TIP3    H148315   9.563   7.304   3.736
16146TIP3    H248316   9.556   7.164   3.793
16147TIP3   OH248317   9.032   7.013   5.201
16147TIP3    H148318   9.054   7.003   5.293
16147TIP3    H248319   8.963   6.949   5.184
16148TIP3   OH248320   9.758   7.125   5.218
16148TIP3    H148321   9.695   7.073   5.169
16148TIP3    H248322   9.844   7.098   5.186
16149TIP3   OH248323   0.226   7.650   4.810
16149TIP3    H148324   0.131   7.646   4.801
16149TIP3    H248325   0.241   7.706   4.886
16150TIP3   OH248326   9.253   7.402   4.213
16150TIP3    H148327   9.256   7.481   4.159
16150TIP3    H248328   9.160   7.379   4.218
16151TIP3   OH248329   8.817   6.703   3.917
16151TIP3    H148330   8.863   6.785   3.933
16151TIP3    H248331   8.740   6.707   3.974
16152TIP3   OH248332   9.381   7.160   4.153
16152TIP3    H148333   9.364   7.252   4.172
16152TIP3    H248334   9.353   7.113   4.231
16153TIP3   OH248335   9.525   7.743   4.680
16153TIP3    H148336   9.565   7.812   4.627
16153TIP3    H248337   9.599   7.701   4.724
16154TIP3   OH248338   9.171   7.641   4.064
16154TIP3    H148339   9.087   7.644   4.109
16154TIP3    H248340   9.203   7.731   4.066
16155TIP3   OH248341   0.107   7.385   4.640
16155TIP3    H148342   0.107   7.378   4.735
16155TIP3    H248343   0.176   7.325   4.612
16156TIP3   OH248344   9.244   6.518   5.210
16156TIP3    H148345   9.150   6.526   5.222
16156TIP3    H248346   9.273   6.460   5.281
16157TIP3   OH248347   8.961   7.606   4.842
16157TIP3    H148348   9.013   7.528   4.864
16157TIP3    H248349   8.991   7.672   4.904
16158TIP3   OH248350   9.249   7.249   3.523
16158TIP3    H148351   9.266   7.160   3.491
16158TIP3    H248352   9.235   7.238   3.617
16159TIP3   OH248353   9.198   7.255   3.797
16159TIP3    H148354   9.272   7.228   3.851
16159TIP3    H248355   9.201   7.351   3.800
16160TIP3   OH248356   8.933   6.951   3.997
16160TIP3    H148357   8.867   6.991   4.054
16160TIP3    H248358   8.950   7.016   3.929
16161TIP3   OH248359   0.322   6.580   4.918
16161TIP3    H148360   0.346   6.632   4.995
16161TIP3    H248361   0.277   6.504   4.953
16162TIP3   OH248362   0.135   6.352   4.057
16162TIP3    H148363   0.153   6.360   3.963
16162TIP3    H248364   0.191   6.418   4.097
16163TIP3   OH248365   9.459   7.453   3.742
16163TIP3    H148366   9.374   7.480   3.778
16163TIP3    H248367   9.480   7.521   3.678
16164TIP3   OH248368   9.648   6.514   4.157
16164TIP3    H148369   9.711   6.582   4.133
16164TIP3    H248370   9.653   6.508   4.252
16165TIP3   OH248371   0.121   6.830   4.968
16165TIP3    H148372   0.129   6.896   5.036
16165TIP3    H248373   0.188   6.765   4.989
16166TIP3   OH248374  -0.004   6.251   4.263
16166TIP3    H148375  -0.024   6.328   4.317
16166TIP3    H248376   0.050   6.284   4.191
16167TIP3   OH248377   9.201   7.529   3.809
16167TIP3    H148378   9.175   7.597   3.746
16167TIP3    H248379   9.188   7.570   3.895
16168TIP3   OH248380   9.310   6.242   4.053
16168TIP3    H148381   9.303   6.333   4.081
16168TIP3    H248382   9.404   6.223   4.056
16169TIP3   OH248383   8.927   7.159   3.801
16169TIP3    H148384   8.990   7.230   3.814
16169TIP3    H248385   8.967   7.103   3.735
16170TIP3   OH248386   8.867   6.434   3.935
16170TIP3    H148387   8.869   6.529   3.933
16170TIP3    H248388   8.785   6.410   3.892
16171TIP3   OH248389   9.259   6.151   4.808
16171TIP3    H148390   9.225   6.122   4.724
16171TIP3    H248391   9.246   6.076   4.867
16172TIP3   OH248392   8.797   7.378   4.191
16172TIP3    H148393   8.722   7.403   4.245
16172TIP3    H248394   8.777   7.412   4.104
16173TIP3   OH248395   8.954   7.910   5.260
16173TIP3    H148396   9.037   7.912   5.307
16173TIP3    H248397   8.930   7.817   5.258
16174TIP3   OH248398   9.434   7.875   5.307
16174TIP3    H148399   9.529   7.871   5.307
16174TIP3    H248400   9.407   7.819   5.234
16175TIP3   OH248401   9.415   7.451   3.437
16175TIP3    H148402   9.357   7.385   3.475
16175TIP3    H248403   9.488   7.402   3.400
16176TIP3   OH248404   0.275   7.783   5.050
16176TIP3    H148405   0.256   7.710   5.109
16176TIP3    H248406   0.353   7.825   5.086
16177TIP3   OH248407   9.081   7.316   5.460
16177TIP3    H148408   9.099   7.223   5.466
16177TIP3    H248409   8.995   7.322   5.419
16178TIP3   OH248410   9.062   6.970   3.655
16178TIP3    H148411   9.115   6.940   3.729
16178TIP3    H248412   9.124   6.976   3.582
16179TIP3   OH248413   9.692   7.403   5.233
16179TIP3    H148414   9.649   7.422   5.149
16179TIP3    H248415   9.720   7.312   5.225
16180TIP3   OH248416   9.563   7.165   3.458
16180TIP3    H148417   9.575   7.187   3.550
16180TIP3    H248418   9.557   7.070   3.456
16181TIP3   OH248419   9.202   7.052   5.445
16181TIP3    H148420   9.276   6.996   5.423
16181TIP3    H248421   9.224   7.087   5.532
16182TIP3   OH248422   9.264   6.871   3.876
16182TIP3    H148423   9.240   6.835   3.961
16182TIP3    H248424   9.301   6.797   3.827
16183TIP3   OH248425   9.539   6.941   5.103
16183TIP3    H148426   9.461   6.996   5.107
16183TIP3    H248427   9.586   6.972   5.025
16184TIP3   OH248428   9.368   6.664   3.716
16184TIP3    H148429   9.337   6.670   3.625
16184TIP3    H248430   9.462   6.676   3.709
16185TIP3   OH248431   0.245   7.340   5.246
16185TIP3    H148432   0.320   7.320   5.191
16185TIP3    H248433   0.246   7.272   5.314
16186TIP3   OH248434   9.663   6.728   5.227
16186TIP3    H148435   9.658   6.648   5.175
16186TIP3    H248436   9.620   6.794   5.174
16187TIP3   OH248437   9.660   6.507   5.039
16187TIP3    H148438   9.688   6.557   4.962
16187TIP3    H248439   9.568   6.487   5.023
16188TIP3   OH248440   9.697   7.051   4.907
16188TIP3    H148441   9.777   7.059   4.855
16188TIP3    H248442   9.636   7.114   4.869
16189TIP3   OH248443   0.484   7.018   5.297
16189TIP3    H148444   0.520   6.929   5.298
16189TIP3    H248445   0.560   7.074   5.281
16190TIP3   OH248446   9.537   6.835   5.458
16190TIP3    H148447   9.468   6.771   5.474
16190TIP3    H248448   9.571   6.813   5.372
16191TIP3   OH248449   9.790   6.274   5.097
16191TIP3    H148450   9.743   6.356   5.080
16191TIP3    H248451   9.722   6.206   5.090
16192TIP3   OH248452   0.120   6.777   5.321
16192TIP3    H148453   0.108   6.770   5.415
16192TIP3    H248454   0.034   6.758   5.284
16193TIP3   OH248455   0.351   6.695   5.171
16193TIP3    H148456   0.274   6.722   5.221
16193TIP3    H248457   0.421   6.689   5.237
16194TIP3   OH248458   0.568   6.666   5.355
16194TIP3    H148459   0.615   6.590   5.391
16194TIP3    H248460   0.568   6.730   5.426
16195TIP3   OH248461   9.378   6.617   5.514
16195TIP3    H148462   9.383   6.528   5.479
16195TIP3    H248463   9.411   6.609   5.604
16196TIP3   OH248464   0.100   6.291   5.350
16196TIP3    H148465   0.153   6.211   5.354
16196TIP3    H248466   0.049   6.282   5.270
16197TIP3   OH248467   0.158   6.505   5.516
16197TIP3    H148468   0.135   6.435   5.455
16197TIP3    H248469   0.082   6.563   5.516
16198TIP3   OH248470   9.177   7.734   3.623
16198TIP3    H148471   9.271   7.725   3.605
16198TIP3    H248472   9.142   7.777   3.545
16199TIP3   OH248473   8.658   7.110   3.839
16199TIP3    H148474   8.749   7.134   3.826
16199TIP3    H248475   8.649   7.023   3.798
16200TIP3   OH248476   8.566   7.724   4.254
16200TIP3    H148477   8.502   7.664   4.216
16200TIP3    H248478   8.613   7.671   4.318
16201TIP3   OH248479   8.704   7.580   4.442
16201TIP3    H148480   8.693   7.501   4.496
16201TIP3    H248481   8.757   7.639   4.496
16202TIP3   OH248482   8.896   6.982   4.809
16202TIP3    H148483   8.891   6.953   4.717
16202TIP3    H248484   8.989   6.985   4.828
16203TIP3   OH248485   9.111   6.667   5.483
16203TIP3    H148486   9.207   6.664   5.485
16203TIP3    H248487   9.085   6.585   5.525
16204TIP3   OH248488   9.076   6.360   4.813
16204TIP3    H148489   9.137   6.288   4.826
16204TIP3    H248490   9.132   6.438   4.809
16205TIP3   OH248491   8.877   6.635   4.889
16205TIP3    H148492   8.923   6.630   4.805
16205TIP3    H248493   8.899   6.722   4.924
16206TIP3   OH248494   8.856   6.138   4.388
16206TIP3    H148495   8.765   6.137   4.415
16206TIP3    H248496   8.858   6.196   4.312
16207TIP3   OH248497   9.076   6.216   5.202
16207TIP3    H148498   9.030   6.212   5.286
16207TIP3    H248499   9.013   6.257   5.143
16208TIP3   OH248500   9.116   7.646   5.284
16208TIP3    H148501   9.027   7.617   5.264
16208TIP3    H248502   9.128   7.627   5.377
16209TIP3   OH248503   9.297   7.681   4.827
16209TIP3    H148504   9.248   7.755   4.790
16209TIP3    H248505   9.384   7.689   4.787
16210TIP3   OH248506   9.745   7.924   4.971
16210TIP3    H148507   9.782   7.928   5.059
16210TIP3    H248508   9.806   7.974   4.917
16211TIP3   OH248509   0.122   8.075   4.824
16211TIP3    H148510   0.145   8.011   4.756
16211TIP3    H248511   0.202   8.125   4.838
16212TIP3   OH248512   8.969   7.940   4.850
16212TIP3    H148513   8.882   7.973   4.829
16212TIP3    H248514   8.983   7.965   4.941
16213TIP3   OH248515   9.206   7.915   4.710
16213TIP3    H148516   9.122   7.928   4.754
16213TIP3    H248517   9.190   7.945   4.620
16214TIP3   OH248518   9.631   7.940   4.507
16214TIP3    H148519   9.564   7.962   4.442
16214TIP3    H248520   9.650   8.023   4.552
16215TIP3   OH248521   0.104   7.910   4.587
16215TIP3    H148522   0.018   7.893   4.549
16215TIP3    H248523   0.149   7.965   4.523
16216TIP3   OH248524   8.888   7.728   4.600
16216TIP3    H148525   8.912   7.706   4.690
16216TIP3    H248526   8.955   7.687   4.546
16217TIP3   OH248527   9.079   7.600   4.456
16217TIP3    H148528   9.092   7.517   4.501
16217TIP3    H248529   9.167   7.637   4.450
16218TIP3   OH248530   9.345   7.694   4.460
16218TIP3    H148531   9.377   7.607   4.438
16218TIP3    H248532   9.389   7.717   4.542
16219TIP3   OH248533   0.127   6.317   4.545
16219TIP3    H148534   0.064   6.261   4.590
16219TIP3    H248535   0.152   6.268   4.467
16220TIP3   OH248536   9.168   6.057   4.559
16220TIP3    H148537   9.076   6.031   4.559
16220TIP3    H248538   9.216   5.974   4.557
16221TIP3   OH248539   8.966   5.932   4.213
16221TIP3    H148540   8.988   5.985   4.136
16221TIP3    H248541   8.926   5.994   4.274
16222TIP3   OH248542   9.659   6.079   4.454
16222TIP3    H148543   9.676   6.140   4.381
16222TIP3    H248544   9.623   6.135   4.523
16223TIP3   OH248545   8.668   7.502   3.989
16223TIP3    H148546   8.587   7.464   3.956
16223TIP3    H248547   8.663   7.595   3.967
16224TIP3   OH248548   9.073   6.087   3.975
16224TIP3    H148549   9.119   6.028   3.915
16224TIP3    H248550   9.141   6.143   4.011
16225TIP3   OH248551   9.587   6.265   4.073
16225TIP3    H148552   9.651   6.219   4.127
16225TIP3    H248553   9.600   6.357   4.094
16226TIP3   OH248554   9.443   7.691   3.563
16226TIP3    H148555   9.529   7.717   3.531
16226TIP3    H248556   9.418   7.617   3.509
16227TIP3   OH248557   9.379   6.339   5.453
16227TIP3    H148558   9.340   6.271   5.508
16227TIP3    H248559   9.471   6.342   5.479
16228TIP3   OH248560   9.626   6.335   5.573
16228TIP3    H148561   9.712   6.308   5.539
16228TIP3    H248562   9.607   6.270   5.641
16229TIP3   OH248563   8.750   7.526   3.628
16229TIP3    H148564   8.751   7.552   3.721
16229TIP3    H248565   8.836   7.485   3.615
16230TIP3   OH248566   0.819   7.891   6.391
16230TIP3    H148567   0.864   7.836   6.456
16230TIP3    H248568   0.850   7.980   6.409
16231TIP3   OH248569   1.325   7.151   6.758
16231TIP3    H148570   1.355   7.231   6.801
16231TIP3    H248571   1.348   7.163   6.666
16232TIP3   OH248572   0.801   7.323   6.786
16232TIP3    H148573   0.833   7.236   6.810
16232TIP3    H248574   0.773   7.314   6.695
16233TIP3   OH248575   0.755   7.079   6.386
16233TIP3    H148576   0.826   7.061   6.447
16233TIP3    H248577   0.800   7.106   6.306
16234TIP3   OH248578   1.396   7.363   6.918
16234TIP3    H148579   1.311   7.404   6.906
16234TIP3    H248580   1.404   7.353   7.013
16235TIP3   OH248581   0.970   7.080   6.552
16235TIP3    H148582   0.955   7.033   6.633
16235TIP3    H248583   1.028   7.153   6.576
16236TIP3   OH248584   1.128   7.050   6.931
16236TIP3    H148585   1.040   7.079   6.907
16236TIP3    H248586   1.183   7.078   6.857
16237TIP3   OH248587   0.662   7.953   6.160
16237TIP3    H148588   0.666   7.896   6.083
16237TIP3    H248589   0.740   7.932   6.210
16238TIP3   OH248590   1.068   8.063   6.911
16238TIP3    H148591   1.034   7.981   6.873
16238TIP3    H248592   1.041   8.131   6.849
16239TIP3   OH248593   1.269   7.690   6.750
16239TIP3    H148594   1.183   7.730   6.761
16239TIP3    H248595   1.294   7.710   6.660
16240TIP3   OH248596   0.703   7.538   6.149
16240TIP3    H148597   0.648   7.471   6.189
16240TIP3    H248598   0.793   7.510   6.170
16241TIP3   OH248599   0.948   7.589   7.030
16241TIP3    H148600   0.941   7.656   7.097
16241TIP3    H248601   0.861   7.587   6.989
16242TIP3   OH248602   0.600   7.363   5.950
16242TIP3    H148603   0.595   7.444   6.000
16242TIP3    H248604   0.590   7.390   5.859
16243TIP3   OH248605   1.050   6.636   6.009
16243TIP3    H148606   0.971   6.653   6.061
16243TIP3    H248607   1.064   6.716   5.959
16244TIP3   OH248608   0.852   8.004   5.559
16244TIP3    H148609   0.861   8.099   5.545
16244TIP3    H248610   0.941   7.970   5.546
16245TIP3   OH248611   1.305   8.392   6.952
16245TIP3    H148612   1.305   8.298   6.971
16245TIP3    H248613   1.215   8.420   6.971
16246TIP3   OH248614   1.189   7.537   7.215
16246TIP3    H148615   1.100   7.547   7.179
16246TIP3    H248616   1.201   7.443   7.222
16247TIP3   OH248617   0.726   6.882   7.254
16247TIP3    H148618   0.802   6.830   7.281
16247TIP3    H248619   0.651   6.827   7.274
16248TIP3   OH248620   0.966   7.305   7.163
16248TIP3    H148621   0.947   7.316   7.256
16248TIP3    H248622   0.919   7.376   7.120
16249TIP3   OH248623   0.603   7.457   5.690
16249TIP3    H148624   0.580   7.409   5.610
16249TIP3    H248625   0.693   7.486   5.675
16250TIP3   OH248626   0.651   7.283   6.540
16250TIP3    H148627   0.565   7.296   6.501
16250TIP3    H248628   0.684   7.204   6.498
16251TIP3   OH248629   0.822   7.052   6.808
16251TIP3    H148630   0.824   7.053   6.904
16251TIP3    H248631   0.750   6.991   6.787
16252TIP3   OH248632   1.040   7.826   6.740
16252TIP3    H148633   1.065   7.880   6.666
16252TIP3    H248634   0.946   7.839   6.750
16253TIP3   OH248635   0.537   6.923   5.974
16253TIP3    H148636   0.455   6.972   5.973
16253TIP3    H248637   0.604   6.988   5.991
16254TIP3   OH248638   0.677   7.129   6.064
16254TIP3    H148639   0.764   7.158   6.091
16254TIP3    H248640   0.637   7.208   6.026
16255TIP3   OH248641   1.084   7.254   5.913
16255TIP3    H148642   1.024   7.206   5.856
16255TIP3    H248643   1.087   7.342   5.875
16256TIP3   OH248644   1.313   8.109   6.996
16256TIP3    H148645   1.217   8.107   6.993
16256TIP3    H248646   1.341   8.079   6.909
16257TIP3   OH248647   0.790   8.070   5.824
16257TIP3    H148648   0.763   7.996   5.878
16257TIP3    H248649   0.808   8.032   5.738
16258TIP3   OH248650   0.772   7.703   6.628
16258TIP3    H148651   0.712   7.667   6.693
16258TIP3    H248652   0.820   7.627   6.595
16259TIP3   OH248653   0.876   8.283   5.543
16259TIP3    H148654   0.933   8.346   5.499
16259TIP3    H248655   0.788   8.317   5.530
16260TIP3   OH248656   0.710   7.755   5.957
16260TIP3    H148657   0.692   7.680   6.014
16260TIP3    H248658   0.801   7.743   5.930
16261TIP3   OH248659   0.829   7.073   7.071
16261TIP3    H148660   0.869   7.150   7.111
16261TIP3    H248661   0.805   7.017   7.145
16262TIP3   OH248662   0.630   6.859   6.244
16262TIP3    H148663   0.600   6.895   6.161
16262TIP3    H248664   0.651   6.936   6.297
16263TIP3   OH248665   1.230   7.261   7.133
16263TIP3    H148666   1.137   7.269   7.151
16263TIP3    H248667   1.235   7.204   7.056
16264TIP3   OH248668   0.873   7.462   6.530
16264TIP3    H148669   0.799   7.401   6.534
16264TIP3    H248670   0.943   7.419   6.578
16265TIP3   OH248671   0.898   8.357   6.466
16265TIP3    H148672   0.809   8.389   6.451
16265TIP3    H248673   0.949   8.437   6.482
16266TIP3   OH248674   0.844   7.534   5.580
16266TIP3    H148675   0.833   7.480   5.502
16266TIP3    H248676   0.821   7.623   5.552
16267TIP3   OH248677   0.960   7.509   7.455
16267TIP3    H148678   0.980   7.462   7.536
16267TIP3    H248679   0.980   7.600   7.475
16268TIP3   OH248680   0.973   7.794   7.209
16268TIP3    H148681   0.916   7.861   7.172
16268TIP3    H248682   1.060   7.815   7.175
16269TIP3   OH248683   0.788   7.197   7.421
16269TIP3    H148684   0.767   7.282   7.384
16269TIP3    H248685   0.876   7.208   7.457
16270TIP3   OH248686   1.034   7.193   7.532
16270TIP3    H148687   1.062   7.106   7.559
16270TIP3    H248688   1.023   7.241   7.615
16271TIP3   OH248689   1.154   8.600   6.448
16271TIP3    H148690   1.118   8.566   6.529
16271TIP3    H248691   1.097   8.566   6.380
16272TIP3   OH248692   1.101   8.512   6.706
16272TIP3    H148693   1.084   8.421   6.729
16272TIP3    H248694   1.181   8.534   6.754
16273TIP3   OH248695   1.162   8.210   7.287
16273TIP3    H148696   1.108   8.207   7.366
16273TIP3    H248697   1.208   8.294   7.292
16274TIP3   OH248698   0.982   7.720   5.917
16274TIP3    H148699   1.049   7.781   5.885
16274TIP3    H248700   1.022   7.679   5.994
16275TIP3   OH248701   1.106   7.589   6.122
16275TIP3    H148702   1.046   7.541   6.178
16275TIP3    H248703   1.173   7.622   6.181
16276TIP3   OH248704   1.150   7.975   6.539
16276TIP3    H148705   1.210   7.912   6.501
16276TIP3    H248706   1.164   8.055   6.488
16277TIP3   OH248707   0.963   8.259   6.740
16277TIP3    H148708   0.911   8.329   6.781
16277TIP3    H248709   0.945   8.268   6.646
16278TIP3   OH248710   1.044   7.495   5.768
16278TIP3    H148711   0.977   7.493   5.700
16278TIP3    H248712   1.020   7.569   5.823
16279TIP3   OH248713   0.918   7.166   5.718
16279TIP3    H148714   0.881   7.201   5.637
16279TIP3    H248715   0.894   7.073   5.717
16280TIP3   OH248716   0.928   7.433   6.264
16280TIP3    H148717   0.938   7.338   6.253
16280TIP3    H248718   0.919   7.445   6.358
16281TIP3   OH248719   1.217   7.867   7.121
16281TIP3    H148720   1.284   7.800   7.113
16281TIP3    H248721   1.243   7.935   7.058
16282TIP3   OH248722   1.404   7.673   7.138
16282TIP3    H148723   1.327   7.627   7.170
16282TIP3    H248724   1.477   7.613   7.155
16283TIP3   OH248725   0.860   6.902   5.718
16283TIP3    H148726   0.941   6.872   5.759
16283TIP3    H248727   0.796   6.833   5.737
16284TIP3   OH248728   0.936   7.162   6.168
16284TIP3    H148729   0.968   7.074   6.187
16284TIP3    H248730   0.986   7.190   6.092
16285TIP3   OH248731   1.085   7.334   6.652
16285TIP3    H148732   1.169   7.357   6.613
16285TIP3    H248733   1.090   7.366   6.742
16286TIP3   OH248734   1.149   7.473   6.883
16286TIP3    H148735   1.077   7.509   6.935
16286TIP3    H248736   1.188   7.550   6.841
16287TIP3   OH248737   1.599   7.063   7.442
16287TIP3    H148738   1.657   6.997   7.405
16287TIP3    H248739   1.576   7.120   7.368
16288TIP3   OH248740   1.027   6.906   6.202
16288TIP3    H148741   1.076   6.891   6.282
16288TIP3    H248742   0.967   6.832   6.196
16289TIP3   OH248743   1.479   7.213   7.247
16289TIP3    H148744   1.393   7.247   7.271
16289TIP3    H248745   1.460   7.139   7.190
16290TIP3   OH248746   1.111   6.843   5.827
16290TIP3    H148747   1.148   6.769   5.779
16290TIP3    H248748   1.178   6.911   5.823
16291TIP3   OH248749   1.373   6.963   7.128
16291TIP3    H148750   1.283   6.958   7.096
16291TIP3    H248751   1.407   6.874   7.119
16292TIP3   OH248752   0.625   6.853   6.769
16292TIP3    H148753   0.612   6.776   6.825
16292TIP3    H248754   0.696   6.828   6.710
16293TIP3   OH248755   1.101   6.770   6.653
16293TIP3    H148756   1.139   6.817   6.579
16293TIP3    H248757   1.007   6.783   6.644
16294TIP3   OH248758   1.196   6.866   6.415
16294TIP3    H148759   1.266   6.812   6.378
16294TIP3    H248760   1.227   6.956   6.402
16295TIP3   OH248761   0.827   6.759   6.616
16295TIP3    H148762   0.836   6.723   6.528
16295TIP3    H248763   0.812   6.682   6.671
16296TIP3   OH248764   0.844   6.693   6.188
16296TIP3    H148765   0.763   6.741   6.203
16296TIP3    H248766   0.832   6.610   6.233
16297TIP3   OH248767   0.821   8.340   5.849
16297TIP3    H148768   0.815   8.245   5.863
16297TIP3    H248769   0.778   8.355   5.765
16298TIP3   OH248770   1.109   6.928   7.566
16298TIP3    H148771   1.127   6.898   7.655
16298TIP3    H248772   1.194   6.926   7.522
16299TIP3   OH248773   1.049   8.474   6.999
16299TIP3    H148774   0.966   8.437   7.027
16299TIP3    H248775   1.058   8.554   7.050
16300TIP3   OH248776   2.308   7.856   5.822
16300TIP3    H148777   2.284   7.946   5.804
16300TIP3    H248778   2.235   7.804   5.786
16301TIP3   OH248779   2.306   7.857   6.203
16301TIP3    H148780   2.340   7.827   6.287
16301TIP3    H248781   2.271   7.778   6.162
16302TIP3   OH248782   1.612   7.762   6.567
16302TIP3    H148783   1.646   7.739   6.654
16302TIP3    H248784   1.683   7.810   6.525
16303TIP3   OH248785   2.551   8.158   5.884
16303TIP3    H148786   2.542   8.087   5.947
16303TIP3    H248787   2.584   8.232   5.935
16304TIP3   OH248788   1.585   8.155   6.295
16304TIP3    H148789   1.575   8.060   6.296
16304TIP3    H248790   1.679   8.169   6.285
16305TIP3   OH248791   1.285   7.367   6.078
16305TIP3    H148792   1.237   7.449   6.089
16305TIP3    H248793   1.220   7.307   6.041
16306TIP3   OH248794   1.348   7.651   6.248
16306TIP3    H148795   1.394   7.575   6.284
16306TIP3    H248796   1.402   7.680   6.175
16307TIP3   OH248797   2.203   8.619   5.899
16307TIP3    H148798   2.248   8.551   5.848
16307TIP3    H248799   2.197   8.583   5.988
16308TIP3   OH248800   2.112   8.079   6.251
16308TIP3    H148801   2.146   8.003   6.205
16308TIP3    H248802   2.191   8.129   6.276
16309TIP3   OH248803   3.121   7.404   6.245
16309TIP3    H148804   3.150   7.483   6.290
16309TIP3    H248805   3.145   7.418   6.153
16310TIP3   OH248806   2.518   7.582   6.283
16310TIP3    H148807   2.564   7.501   6.304
16310TIP3    H248808   2.489   7.569   6.192
16311TIP3   OH248809   1.854   7.242   6.246
16311TIP3    H148810   1.840   7.314   6.185
16311TIP3    H248811   1.812   7.167   6.205
16312TIP3   OH248812   2.555   7.335   5.870
16312TIP3    H148813   2.622   7.319   5.936
16312TIP3    H248814   2.603   7.369   5.794
16313TIP3   OH248815   1.496   7.444   6.352
16313TIP3    H148816   1.576   7.424   6.400
16313TIP3    H248817   1.501   7.390   6.273
16314TIP3   OH248818   1.934   7.639   6.151
16314TIP3    H148819   2.027   7.618   6.160
16314TIP3    H248820   1.894   7.559   6.116
16315TIP3   OH248821   3.193   7.609   6.419
16315TIP3    H148822   3.113   7.655   6.398
16315TIP3    H248823   3.215   7.637   6.508
16316TIP3   OH248824   1.851   7.233   6.690
16316TIP3    H148825   1.792   7.266   6.622
16316TIP3    H248826   1.795   7.185   6.751
16317TIP3   OH248827   2.198   8.075   5.693
16317TIP3    H148828   2.165   8.056   5.605
16317TIP3    H248829   2.159   8.160   5.716
16318TIP3   OH248830   1.964   8.002   6.478
16318TIP3    H148831   1.903   8.067   6.514
16318TIP3    H248832   2.008   8.048   6.407
16319TIP3   OH248833   2.763   7.337   6.042
16319TIP3    H148834   2.764   7.281   6.119
16319TIP3    H248835   2.820   7.411   6.066
16320TIP3   OH248836   1.729   7.339   6.465
16320TIP3    H148837   1.789   7.410   6.488
16320TIP3    H248838   1.770   7.296   6.390
16321TIP3   OH248839   1.788   8.197   6.574
16321TIP3    H148840   1.768   8.280   6.532
16321TIP3    H248841   1.712   8.179   6.631
16322TIP3   OH248842   1.183   7.887   5.811
16322TIP3    H148843   1.147   7.910   5.725
16322TIP3    H248844   1.215   7.970   5.847
16323TIP3   OH248845   2.622   8.402   6.052
16323TIP3    H148846   2.534   8.392   6.089
16323TIP3    H248847   2.618   8.485   6.005
16324TIP3   OH248848   2.914   7.305   6.412
16324TIP3    H148849   2.828   7.332   6.381
16324TIP3    H248850   2.974   7.334   6.343
16325TIP3   OH248851   2.210   6.943   6.394
16325TIP3    H148852   2.205   6.849   6.411
16325TIP3    H248853   2.135   6.980   6.440
16326TIP3   OH248854   2.328   8.448   5.722
16326TIP3    H148855   2.373   8.365   5.705
16326TIP3    H248856   2.385   8.515   5.684
16327TIP3   OH248857   2.465   8.231   5.633
16327TIP3    H148858   2.441   8.154   5.583
16327TIP3    H248859   2.501   8.197   5.715
16328TIP3   OH248860   2.849   8.314   6.392
16328TIP3    H148861   2.841   8.237   6.335
16328TIP3    H248862   2.835   8.389   6.334
16329TIP3   OH248863   2.142   7.709   5.649
16329TIP3    H148864   2.063   7.760   5.628
16329TIP3    H248865   2.190   7.704   5.567
16330TIP3   OH248866   2.104   7.491   5.369
16330TIP3    H148867   2.168   7.543   5.417
16330TIP3    H248868   2.156   7.427   5.320
16331TIP3   OH248869   3.043   7.950   6.236
16331TIP3    H148870   2.963   8.002   6.244
16331TIP3    H248871   3.077   7.972   6.149
16332TIP3   OH248872   2.489   7.789   5.627
16332TIP3    H148873   2.435   7.814   5.702
16332TIP3    H248874   2.573   7.764   5.665
16333TIP3   OH248875   2.723   7.832   6.535
16333TIP3    H148876   2.724   7.913   6.586
16333TIP3    H248877   2.641   7.835   6.487
16334TIP3   OH248878   1.720   7.787   6.041
16334TIP3    H148879   1.678   7.732   5.975
16334TIP3    H248880   1.796   7.736   6.069
16335TIP3   OH248881   1.850   8.193   6.190
16335TIP3    H148882   1.830   8.158   6.103
16335TIP3    H248883   1.939   8.164   6.208
16336TIP3   OH248884   1.857   7.763   6.393
16336TIP3    H148885   1.888   7.738   6.305
16336TIP3    H248886   1.901   7.846   6.411
16337TIP3   OH248887   2.380   8.397   6.171
16337TIP3    H148888   2.369   8.476   6.225
16337TIP3    H248889   2.368   8.325   6.233
16338TIP3   OH248890   1.993   8.316   6.720
16338TIP3    H148891   1.937   8.379   6.764
16338TIP3    H248892   1.932   8.262   6.669
16339TIP3   OH248893   2.331   7.651   5.448
16339TIP3    H148894   2.388   7.706   5.501
16339TIP3    H248895   2.355   7.671   5.357
16340TIP3   OH248896   1.741   7.868   6.826
16340TIP3    H148897   1.757   7.955   6.862
16340TIP3    H248898   1.648   7.852   6.841
16341TIP3   OH248899   2.071   8.331   5.727
16341TIP3    H148900   2.152   8.381   5.741
16341TIP3    H248901   2.012   8.393   5.684
16342TIP3   OH248902   1.790   8.485   6.803
16342TIP3    H148903   1.756   8.486   6.713
16342TIP3    H248904   1.714   8.462   6.857
16343TIP3   OH248905   2.845   6.892   5.496
16343TIP3    H148906   2.766   6.908   5.548
16343TIP3    H248907   2.859   6.972   5.447
16344TIP3   OH248908   1.583   7.632   5.849
16344TIP3    H148909   1.523   7.676   5.790
16344TIP3    H248910   1.551   7.542   5.854
16345TIP3   OH248911   2.649   8.259   5.044
16345TIP3    H148912   2.653   8.354   5.033
16345TIP3    H248913   2.737   8.228   5.022
16346TIP3   OH248914   1.371   8.009   6.753
16346TIP3    H148915   1.309   7.990   6.683
16346TIP3    H248916   1.407   7.923   6.776
16347TIP3   OH248917   1.235   8.207   6.398
16347TIP3    H148918   1.322   8.187   6.364
16347TIP3    H248919   1.248   8.285   6.452
16348TIP3   OH248920   3.083   8.656   6.439
16348TIP3    H148921   3.087   8.561   6.450
16348TIP3    H248922   3.003   8.682   6.484
16349TIP3   OH248923   2.193   8.446   6.577
16349TIP3    H148924   2.195   8.537   6.606
16349TIP3    H248925   2.124   8.405   6.629
16350TIP3   OH248926   1.952   8.574   5.526
16350TIP3    H148927   1.909   8.555   5.443
16350TIP3    H248928   1.921   8.661   5.550
16351TIP3   OH248929   1.391   8.422   5.911
16351TIP3    H148930   1.445   8.413   5.990
16351TIP3    H248931   1.332   8.347   5.914
16352TIP3   OH248932   2.158   8.474   5.167
16352TIP3    H148933   2.214   8.406   5.129
16352TIP3    H248934   2.190   8.484   5.256
16353TIP3   OH248935   2.205   8.524   5.438
16353TIP3    H148936   2.119   8.533   5.479
16353TIP3    H248937   2.259   8.482   5.505
16354TIP3   OH248938   2.974   7.786   6.716
16354TIP3    H148939   2.898   7.802   6.660
16354TIP3    H248940   2.993   7.693   6.705
16355TIP3   OH248941   1.575   8.194   6.742
16355TIP3    H148942   1.624   8.181   6.823
16355TIP3    H248943   1.501   8.134   6.750
16356TIP3   OH248944   1.971   7.022   6.521
16356TIP3    H148945   1.885   6.988   6.498
16356TIP3    H248946   1.954   7.109   6.557
16357TIP3   OH248947   2.508   7.138   6.720
16357TIP3    H148948   2.577   7.109   6.779
16357TIP3    H248949   2.427   7.114   6.764
16358TIP3   OH248950   2.743   7.564   6.635
16358TIP3    H148951   2.699   7.562   6.720
16358TIP3    H248952   2.725   7.652   6.601
16359TIP3   OH248953   2.406   7.697   5.191
16359TIP3    H148954   2.372   7.670   5.106
16359TIP3    H248955   2.487   7.744   5.170
16360TIP3   OH248956   2.116   7.070   5.496
16360TIP3    H148957   2.087   7.070   5.587
16360TIP3    H248958   2.082   6.988   5.460
16361TIP3   OH248959   1.903   7.541   6.539
16361TIP3    H148960   1.900   7.584   6.624
16361TIP3    H248961   1.888   7.611   6.476
16362TIP3   OH248962   1.787   7.422   6.055
16362TIP3    H148963   1.697   7.397   6.074
16362TIP3    H248964   1.805   7.384   5.969
16363TIP3   OH248965   2.280   7.510   5.782
16363TIP3    H148966   2.227   7.579   5.742
16363TIP3    H248967   2.335   7.478   5.710
16364TIP3   OH248968   2.458   7.788   6.874
16364TIP3    H148969   2.435   7.716   6.932
16364TIP3    H248970   2.551   7.803   6.890
16365TIP3   OH248971   2.434   7.536   6.020
16365TIP3    H148972   2.377   7.569   5.951
16365TIP3    H248973   2.471   7.456   5.984
16366TIP3   OH248974   1.772   7.044   5.462
16366TIP3    H148975   1.768   7.038   5.558
16366TIP3    H248976   1.694   7.094   5.438
16367TIP3   OH248977   1.317   7.091   6.332
16367TIP3    H148978   1.393   7.118   6.383
16367TIP3    H248979   1.354   7.055   6.251
16368TIP3   OH248980   1.291   7.071   5.851
16368TIP3    H148981   1.338   7.103   5.774
16368TIP3    H248982   1.230   7.141   5.873
16369TIP3   OH248983   2.443   7.779   6.448
16369TIP3    H148984   2.477   7.712   6.388
16369TIP3    H248985   2.418   7.730   6.526
16370TIP3   OH248986   2.116   7.251   6.121
16370TIP3    H148987   2.036   7.243   6.172
16370TIP3    H248988   2.187   7.240   6.184
16371TIP3   OH248989   1.549   7.298   6.127
16371TIP3    H148990   1.457   7.304   6.099
16371TIP3    H248991   1.575   7.209   6.103
16372TIP3   OH248992   1.821   7.300   5.814
16372TIP3    H148993   1.914   7.311   5.794
16372TIP3    H248994   1.777   7.321   5.731
16373TIP3   OH248995   2.606   7.322   6.325
16373TIP3    H148996   2.569   7.333   6.413
16373TIP3    H248997   2.549   7.259   6.282
16374TIP3   OH248998   1.659   7.332   5.590
16374TIP3    H148999   1.588   7.286   5.545
16374TIP3    H249000   1.713   7.368   5.520
16375TIP3   OH249001   2.778   9.011   6.537
16375TIP3    H149002   2.775   9.030   6.443
16375TIP3    H249003   2.857   9.057   6.568
16376TIP3   OH249004   1.737   8.116   6.964
16376TIP3    H149005   1.818   8.148   7.005
16376TIP3    H249006   1.671   8.120   7.033
16377TIP3   OH249007   2.202   7.571   6.215
16377TIP3    H149008   2.270   7.537   6.158
16377TIP3    H249009   2.216   7.527   6.299
16378TIP3   OH249010   1.724   7.059   6.092
16378TIP3    H149011   1.691   6.982   6.138
16378TIP3    H249012   1.777   7.024   6.021
16379TIP3   OH249013   2.179   7.463   6.509
16379TIP3    H149014   2.093   7.504   6.512
16379TIP3    H249015   2.237   7.524   6.554
16380TIP3   OH249016   1.909   7.861   5.601
16380TIP3    H149017   1.840   7.797   5.588
16380TIP3    H249018   1.896   7.894   5.690
16381TIP3   OH249019   2.812   8.098   6.229
16381TIP3    H149020   2.839   8.146   6.150
16381TIP3    H249021   2.730   8.056   6.204
16382TIP3   OH249022   2.370   7.173   5.463
16382TIP3    H149023   2.276   7.158   5.470
16382TIP3    H249024   2.380   7.266   5.486
16383TIP3   OH249025   2.304   8.175   6.601
16383TIP3    H149026   2.343   8.163   6.688
16383TIP3    H249027   2.275   8.266   6.601
16384TIP3   OH249028   2.442   7.422   5.565
16384TIP3    H149029   2.536   7.425   5.581
16384TIP3    H249030   2.424   7.499   5.512
16385TIP3   OH249031   1.606   7.878   6.276
16385TIP3    H149032   1.638   7.859   6.187
16385TIP3    H249033   1.649   7.811   6.330
16386TIP3   OH249034   2.056   8.011   5.422
16386TIP3    H149035   2.012   8.096   5.426
16386TIP3    H249036   2.005   7.955   5.480
16387TIP3   OH249037   1.485   7.792   6.893
16387TIP3    H149038   1.492   7.777   6.987
16387TIP3    H249039   1.414   7.736   6.864
16388TIP3   OH249040   2.214   7.910   6.902
16388TIP3    H149041   2.169   7.876   6.824
16388TIP3    H249042   2.305   7.884   6.891
16389TIP3   OH249043   2.471   8.435   6.498
16389TIP3    H149044   2.376   8.437   6.505
16389TIP3    H249045   2.501   8.489   6.571
16390TIP3   OH249046   2.881   7.511   5.399
16390TIP3    H149047   2.820   7.463   5.342
16390TIP3    H249048   2.882   7.600   5.363
16391TIP3   OH249049   3.098   8.366   6.480
16391TIP3    H149050   3.003   8.362   6.475
16391TIP3    H249051   3.128   8.338   6.394
16392TIP3   OH249052   2.567   8.330   5.303
16392TIP3    H149053   2.566   8.259   5.368
16392TIP3    H249054   2.598   8.289   5.223
16393TIP3   OH249055   2.577   7.956   6.150
16393TIP3    H149056   2.484   7.934   6.161
16393TIP3    H249057   2.615   7.881   6.105
16394TIP3   OH249058   1.706   8.187   5.902
16394TIP3    H149059   1.712   8.267   5.849
16394TIP3    H249060   1.612   8.172   5.911
16395TIP3   OH249061   1.269   7.492   5.606
16395TIP3    H149062   1.316   7.573   5.623
16395TIP3    H249063   1.193   7.495   5.664
16396TIP3   OH249064   1.843   7.952   5.847
16396TIP3    H149065   1.812   8.041   5.862
16396TIP3    H249066   1.809   7.902   5.921
16397TIP3   OH249067   1.977   8.531   6.371
16397TIP3    H149068   2.013   8.603   6.320
16397TIP3    H249069   2.052   8.495   6.418
16398TIP3   OH249070   1.626   8.427   5.755
16398TIP3    H149071   1.541   8.434   5.798
16398TIP3    H249072   1.661   8.516   5.756
16399TIP3   OH249073   2.365   8.164   6.331
16399TIP3    H149074   2.355   8.160   6.426
16399TIP3    H249075   2.444   8.113   6.312
16400TIP3   OH249076   2.336   8.054   5.215
16400TIP3    H149077   2.392   8.034   5.290
16400TIP3    H249078   2.248   8.029   5.243
16401TIP3   OH249079   2.609   8.701   6.379
16401TIP3    H149080   2.532   8.643   6.370
16401TIP3    H249081   2.599   8.765   6.308
16402TIP3   OH249082   2.669   8.535   5.028
16402TIP3    H149083   2.725   8.605   4.994
16402TIP3    H249084   2.589   8.580   5.055
16403TIP3   OH249085   2.499   7.992   5.433
16403TIP3    H149086   2.487   7.925   5.500
16403TIP3    H249087   2.593   7.990   5.414
16404TIP3   OH249088   1.407   8.382   6.538
16404TIP3    H149089   1.473   8.320   6.568
16404TIP3    H249090   1.433   8.465   6.577
16405TIP3   OH249091   1.703   8.037   5.212
16405TIP3    H149092   1.720   7.948   5.181
16405TIP3    H249093   1.684   8.026   5.305
16406TIP3   OH249094   1.649   8.044   5.487
16406TIP3    H149095   1.724   8.015   5.540
16406TIP3    H249096   1.652   8.139   5.490
16407TIP3   OH249097   1.384   7.738   5.686
16407TIP3    H149098   1.320   7.781   5.743
16407TIP3    H249099   1.403   7.803   5.618
16408TIP3   OH249100   2.527   7.379   6.586
16408TIP3    H149101   2.613   7.412   6.612
16408TIP3    H249102   2.517   7.297   6.635
16409TIP3   OH249103   2.411   7.128   5.743
16409TIP3    H149104   2.400   7.148   5.649
16409TIP3    H249105   2.452   7.207   5.779
16410TIP3   OH249106   1.912   8.241   5.432
16410TIP3    H149107   1.828   8.268   5.469
16410TIP3    H249108   1.933   8.309   5.369
16411TIP3   OH249109   2.103   7.305   5.847
16411TIP3    H149110   2.167   7.373   5.826
16411TIP3    H249111   2.108   7.296   5.942
16412TIP3   OH249112   2.370   7.621   6.659
16412TIP3    H149113   2.399   7.671   6.735
16412TIP3    H249114   2.425   7.542   6.660
16413TIP3   OH249115   2.250   7.034   5.947
16413TIP3    H149116   2.246   7.107   6.010
16413TIP3    H249117   2.307   7.065   5.878
16414TIP3   OH249118   1.656   8.317   5.499
16414TIP3    H149119   1.629   8.384   5.436
16414TIP3    H249120   1.642   8.359   5.585
16415TIP3   OH249121   1.761   7.030   5.739
16415TIP3    H149122   1.756   7.119   5.774
16415TIP3    H249123   1.854   7.007   5.745
16416TIP3   OH249124   3.011   7.522   6.634
16416TIP3    H149125   2.915   7.520   6.641
16416TIP3    H249126   3.030   7.483   6.549
16417TIP3   OH249127   2.664   7.717   6.025
16417TIP3    H149128   2.590   7.656   6.034
16417TIP3    H249129   2.736   7.673   6.069
16418TIP3   OH249130   1.378   7.947   5.491
16418TIP3    H149131   1.440   8.019   5.503
16418TIP3    H249132   1.419   7.891   5.425
16419TIP3   OH249133   1.319   7.222   5.628
16419TIP3    H149134   1.320   7.317   5.621
16419TIP3    H249135   1.241   7.196   5.579
16420TIP3   OH249136   2.633   8.675   5.970
16420TIP3    H149137   2.589   8.719   5.898
16420TIP3    H249138   2.726   8.691   5.955
16421TIP3   OH249139   1.706   6.941   6.501
16421TIP3    H149140   1.678   6.909   6.416
16421TIP3    H249141   1.699   6.865   6.559
16422TIP3   OH249142   1.245   8.161   5.884
16422TIP3    H149143   1.168   8.193   5.930
16422TIP3    H249144   1.236   8.196   5.795
16423TIP3   OH249145   1.404   8.694   6.956
16423TIP3    H149146   1.489   8.701   6.999
16423TIP3    H249147   1.389   8.599   6.948
16424TIP3   OH249148   1.889   8.661   6.997
16424TIP3    H149149   1.983   8.646   7.000
16424TIP3    H249150   1.859   8.609   6.923
16425TIP3   OH249151   1.868   8.239   5.125
16425TIP3    H149152   1.811   8.171   5.162
16425TIP3    H249153   1.943   8.191   5.091
16426TIP3   OH249154   2.523   8.573   6.733
16426TIP3    H149155   2.516   8.503   6.798
16426TIP3    H249156   2.601   8.622   6.759
16427TIP3   OH249157   2.306   8.282   5.034
16427TIP3    H149158   2.350   8.224   5.096
16427TIP3    H249159   2.362   8.283   4.957
16428TIP3   OH249160   1.537   8.108   7.153
16428TIP3    H149161   1.550   8.013   7.162
16428TIP3    H249162   1.452   8.116   7.108
16429TIP3   OH249163   1.514   7.758   5.345
16429TIP3    H149164   1.566   7.725   5.418
16429TIP3    H249165   1.576   7.765   5.272
16430TIP3   OH249166   2.141   8.189   6.925
16430TIP3    H149167   2.103   8.210   6.839
16430TIP3    H249168   2.175   8.100   6.915
16431TIP3   OH249169   2.017   7.954   5.153
16431TIP3    H149170   2.023   7.970   5.247
16431TIP3    H249171   2.019   7.859   5.145
16432TIP3   OH249172   2.634   8.204   6.530
16432TIP3    H149173   2.712   8.240   6.487
16432TIP3    H249174   2.566   8.270   6.516
16433TIP3   OH249175   1.678   7.823   7.138
16433TIP3    H149176   1.765   7.783   7.147
16433TIP3    H249177   1.665   7.870   7.220
16434TIP3   OH249178   1.720   7.659   5.567
16434TIP3    H149179   1.696   7.616   5.649
16434TIP3    H249180   1.757   7.589   5.513
16435TIP3   OH249181   1.954   7.702   6.772
16435TIP3    H149182   1.895   7.776   6.789
16435TIP3    H249183   2.024   7.738   6.718
16436TIP3   OH249184   1.822   7.455   5.406
16436TIP3    H149185   1.794   7.458   5.315
16436TIP3    H249186   1.917   7.460   5.402
16437TIP3   OH249187   2.505   8.125   6.929
16437TIP3    H149188   2.585   8.108   6.879
16437TIP3    H249189   2.507   8.060   7.000
16438TIP3   OH249190   2.639   7.788   5.067
16438TIP3    H149191   2.622   7.740   4.987
16438TIP3    H249192   2.612   7.878   5.048
16439TIP3   OH249193   2.100   7.505   6.922
16439TIP3    H149194   2.115   7.423   6.875
16439TIP3    H249195   2.082   7.569   6.853
16440TIP3   OH249196   2.113   7.304   6.731
16440TIP3    H149197   2.146   7.339   6.648
16440TIP3    H249198   2.022   7.281   6.714
16441TIP3   OH249199   2.135   7.836   6.618
16441TIP3    H149200   2.219   7.832   6.572
16441TIP3    H249201   2.084   7.900   6.569
16442TIP3   OH249202   2.727   7.804   6.984
16442TIP3    H149203   2.770   7.719   6.994
16442TIP3    H249204   2.794   7.861   6.947
16443TIP3   OH249205   2.765   8.059   6.716
16443TIP3    H149206   2.707   8.110   6.660
16443TIP3    H249207   2.853   8.075   6.681
16444TIP3   OH249208   1.930   7.637   7.100
16444TIP3    H149209   1.917   7.574   7.171
16444TIP3    H249210   2.016   7.615   7.063
16445TIP3   OH249211   2.246   7.065   6.793
16445TIP3    H149212   2.198   7.145   6.773
16445TIP3    H249213   2.181   6.995   6.783
16446TIP3   OH249214   2.370   7.571   7.014
16446TIP3    H149215   2.376   7.561   7.109
16446TIP3    H249216   2.283   7.537   6.991
16447TIP3   OH249217   2.615   7.523   6.870
16447TIP3    H149218   2.540   7.517   6.929
16447TIP3    H249219   2.689   7.490   6.921
16448TIP3   OH249220   2.838   7.457   7.019
16448TIP3    H149221   2.853   7.364   7.035
16448TIP3    H249222   2.837   7.496   7.107
16449TIP3   OH249223   1.839   7.397   7.194
16449TIP3    H149224   1.830   7.306   7.164
16449TIP3    H249225   1.872   7.390   7.284
16450TIP3   OH249226   2.343   7.074   7.049
16450TIP3    H149227   2.410   7.007   7.050
16450TIP3    H249228   2.302   7.067   6.963
16451TIP3   OH249229   2.407   7.289   7.208
16451TIP3    H149230   2.390   7.216   7.148
16451TIP3    H249231   2.330   7.345   7.201
16452TIP3   OH249232   1.629   8.517   5.309
16452TIP3    H149233   1.723   8.513   5.294
16452TIP3    H249234   1.595   8.566   5.234
16453TIP3   OH249235   1.109   7.896   5.530
16453TIP3    H149236   1.200   7.923   5.516
16453TIP3    H249237   1.103   7.810   5.490
16454TIP3   OH249238   1.028   8.506   5.933
16454TIP3    H149239   0.959   8.450   5.898
16454TIP3    H249240   1.066   8.455   6.005
16455TIP3   OH249241   1.150   8.365   6.134
16455TIP3    H149242   1.150   8.289   6.192
16455TIP3    H249243   1.214   8.425   6.172
16456TIP3   OH249244   2.883   8.770   5.929
16456TIP3    H149245   2.915   8.801   6.014
16456TIP3    H249246   2.947   8.802   5.866
16457TIP3   OH249247   2.915   8.783   6.214
16457TIP3    H149248   2.871   8.699   6.204
16457TIP3    H249249   2.993   8.763   6.265
16458TIP3   OH249250   2.960   8.463   6.784
16458TIP3    H149251   2.888   8.469   6.847
16458TIP3    H249252   3.002   8.548   6.787
16459TIP3   OH249253   2.777   7.977   5.403
16459TIP3    H149254   2.833   8.050   5.378
16459TIP3    H249255   2.821   7.937   5.478
16460TIP3   OH249256   2.904   7.843   5.607
16460TIP3    H149257   2.841   7.801   5.665
16460TIP3    H249258   2.970   7.880   5.666
16461TIP3   OH249259   2.957   8.231   6.036
16461TIP3    H149260   3.011   8.167   5.989
16461TIP3    H249261   2.954   8.307   5.978
16462TIP3   OH249262   2.789   8.533   6.234
16462TIP3    H149263   2.720   8.574   6.285
16462TIP3    H249264   2.744   8.485   6.165
16463TIP3   OH249265   2.838   7.749   5.255
16463TIP3    H149266   2.771   7.749   5.186
16463TIP3    H249267   2.818   7.825   5.309
16464TIP3   OH249268   2.711   7.421   5.209
16464TIP3    H149269   2.673   7.462   5.131
16464TIP3    H249270   2.688   7.328   5.201
16465TIP3   OH249271   2.718   7.696   5.756
16465TIP3    H149272   2.728   7.601   5.748
16465TIP3    H249273   2.706   7.711   5.850
16466TIP3   OH249274   1.347   7.776   6.496
16466TIP3    H149275   1.339   7.743   6.407
16466TIP3    H249276   1.441   7.779   6.513
16467TIP3   OH249277   3.009   8.122   6.609
16467TIP3    H149278   3.079   8.057   6.603
16467TIP3    H249279   3.035   8.191   6.549
16468TIP3   OH249280   3.190   7.925   6.634
16468TIP3    H149281   3.117   7.875   6.670
16468TIP3    H249282   3.265   7.867   6.643
16469TIP3   OH249283   2.657   7.155   5.196
16469TIP3    H149284   2.733   7.126   5.247
16469TIP3    H249285   2.587   7.095   5.220
16470TIP3   OH249286   2.717   7.411   5.648
16470TIP3    H149287   2.754   7.324   5.665
16470TIP3    H249288   2.773   7.447   5.579
16471TIP3   OH249289   2.880   7.592   6.144
16471TIP3    H149290   2.962   7.615   6.101
16471TIP3    H249291   2.890   7.624   6.234
16472TIP3   OH249292   2.945   7.733   6.377
16472TIP3    H149293   2.868   7.766   6.423
16472TIP3    H249294   2.979   7.810   6.330
16473TIP3   OH249295   1.578   7.464   7.176
16473TIP3    H149296   1.670   7.444   7.193
16473TIP3    H249297   1.530   7.386   7.203
16474TIP3   OH249298   3.400   7.323   6.930
16474TIP3    H149299   3.456   7.257   6.890
16474TIP3    H249300   3.370   7.377   6.857
16475TIP3   OH249301   2.823   7.161   5.689
16475TIP3    H149302   2.873   7.148   5.769
16475TIP3    H249303   2.764   7.086   5.685
16476TIP3   OH249304   1.525   7.150   6.509
16476TIP3    H149305   1.581   7.072   6.516
16476TIP3    H249306   1.586   7.223   6.498
16477TIP3   OH249307   1.328   7.426   6.575
16477TIP3    H149308   1.376   7.413   6.493
16477TIP3    H249309   1.358   7.510   6.608
16478TIP3   OH249310   3.265   7.461   6.738
16478TIP3    H149311   3.181   7.502   6.757
16478TIP3    H249312   3.244   7.389   6.678
16479TIP3   OH249313   2.907   7.099   5.316
16479TIP3    H149314   2.944   7.026   5.267
16479TIP3    H249315   2.973   7.168   5.311
16480TIP3   OH249316   1.308   6.935   6.084
16480TIP3    H149317   1.216   6.926   6.106
16480TIP3    H249318   1.309   6.987   6.004
16481TIP3   OH249319   2.469   8.633   5.584
16481TIP3    H149320   2.517   8.614   5.503
16481TIP3    H249321   2.526   8.694   5.631
16482TIP3   OH249322   1.527   7.008   6.892
16482TIP3    H149323   1.483   7.000   6.976
16482TIP3    H249324   1.461   7.045   6.834
16483TIP3   OH249325   1.576   8.427   6.973
16483TIP3    H149326   1.486   8.404   6.953
16483TIP3    H249327   1.583   8.420   7.068
16484TIP3   OH249328   1.748   8.468   6.515
16484TIP3    H149329   1.698   8.541   6.480
16484TIP3    H249330   1.835   8.478   6.475
16485TIP3   OH249331   2.197   8.712   6.657
16485TIP3    H149332   2.235   8.713   6.745
16485TIP3    H249333   2.259   8.761   6.604
16486TIP3   OH249334   2.375   8.863   6.516
16486TIP3    H149335   2.442   8.812   6.471
16486TIP3    H249336   2.423   8.919   6.576
16487TIP3   OH249337   3.166   7.221   6.615
16487TIP3    H149338   3.076   7.217   6.582
16487TIP3    H249339   3.200   7.132   6.605
16488TIP3   OH249340   1.424   8.718   6.545
16488TIP3    H149341   1.338   8.739   6.507
16488TIP3    H249342   1.428   8.769   6.626
16489TIP3   OH249343   1.659   8.701   6.398
16489TIP3    H149344   1.577   8.714   6.445
16489TIP3    H249345   1.643   8.736   6.311
16490TIP3   OH249346   2.085   8.733   6.198
16490TIP3    H149347   2.019   8.750   6.131
16490TIP3    H249348   2.100   8.818   6.240
16491TIP3   OH249349   2.354   8.672   6.250
16491TIP3    H149350   2.262   8.687   6.230
16491TIP3    H249351   2.400   8.744   6.206
16492TIP3   OH249352   2.563   8.863   6.162
16492TIP3    H149353   2.549   8.947   6.117
16492TIP3    H249354   2.590   8.803   6.093
16493TIP3   OH249355   1.345   8.505   6.259
16493TIP3    H149356   1.352   8.507   6.354
16493TIP3    H249357   1.425   8.461   6.230
16494TIP3   OH249358   1.546   8.374   6.131
16494TIP3    H149359   1.560   8.296   6.183
16494TIP3    H249360   1.631   8.418   6.129
16495TIP3   OH249361   1.800   8.484   6.148
16495TIP3    H149362   1.833   8.396   6.130
16495TIP3    H249363   1.840   8.509   6.231
16496TIP3   OH249364   2.368   7.137   6.230
16496TIP3    H149365   2.328   7.069   6.284
16496TIP3    H249366   2.442   7.094   6.188
16497TIP3   OH249367   2.894   7.025   6.141
16497TIP3    H149368   2.932   7.071   6.066
16497TIP3    H249369   2.800   7.038   6.131
16498TIP3   OH249370   2.992   7.122   5.903
16498TIP3    H149371   3.061   7.067   5.865
16498TIP3    H249372   3.023   7.212   5.890
16499TIP3   OH249373   1.620   6.847   6.254
16499TIP3    H149374   1.529   6.817   6.253
16499TIP3    H249375   1.671   6.766   6.250
16500TIP3   OH249376   1.405   6.720   5.898
16500TIP3    H149377   1.438   6.773   5.825
16500TIP3    H249378   1.380   6.783   5.965
16501TIP3   OH249379   2.062   6.887   6.132
16501TIP3    H149380   2.121   6.931   6.070
16501TIP3    H249381   2.093   6.915   6.218
16502TIP3   OH249382   2.610   7.025   6.115
16502TIP3    H149383   2.612   6.990   6.026
16502TIP3    H249384   2.597   6.949   6.171
16503TIP3   OH249385   2.639   6.948   5.678
16503TIP3    H149386   2.554   6.990   5.685
16503TIP3    H249387   2.629   6.864   5.723
16504TIP3   OH249388   1.121   8.289   5.680
16504TIP3    H149389   1.037   8.257   5.648
16504TIP3    H249390   1.119   8.383   5.665
16505TIP3   OH249391   1.526   6.879   5.662
16505TIP3    H149392   1.571   6.814   5.606
16505TIP3    H249393   1.597   6.932   5.698
16506TIP3   OH249394   2.037   7.055   5.763
16506TIP3    H149395   2.095   7.003   5.819
16506TIP3    H249396   2.059   7.146   5.785
16507TIP3   OH249397   1.899   8.478   5.258
16507TIP3    H149398   1.986   8.501   5.226
16507TIP3    H249399   1.872   8.404   5.202
16508TIP3   OH249400   2.609   8.593   5.349
16508TIP3    H149401   2.604   8.497   5.343
16508TIP3    H249402   2.571   8.625   5.267
16509TIP3   OH249403   1.834   7.129   7.158
16509TIP3    H149404   1.797   7.053   7.204
16509TIP3    H249405   1.928   7.126   7.180
16510TIP3   OH249406   2.087   7.126   7.264
16510TIP3    H149407   2.168   7.096   7.222
16510TIP3    H249408   2.069   7.061   7.332
16511TIP3   OH249409   1.201   8.310   5.319
16511TIP3    H149410   1.205   8.346   5.407
16511TIP3    H249411   1.287   8.272   5.305
16512TIP3   OH249412   2.904   7.188   7.050
16512TIP3    H149413   2.920   7.157   7.139
16512TIP3    H249414   2.989   7.182   7.007
16513TIP3   OH249415   2.837   8.742   6.543
16513TIP3    H149416   2.763   8.708   6.493
16513TIP3    H249417   2.822   8.837   6.545
16514TIP3   OH249418   4.106   8.114   5.306
16514TIP3    H149419   4.081   8.205   5.288
16514TIP3    H249420   4.031   8.063   5.276
16515TIP3   OH249421   4.108   8.110   5.688
16515TIP3    H149422   4.138   8.084   5.775
16515TIP3    H249423   4.064   8.033   5.653
16516TIP3   OH249424   3.407   8.008   6.056
16516TIP3    H149425   3.436   7.941   6.118
16516TIP3    H249426   3.483   8.065   6.044
16517TIP3   OH249427   4.350   8.415   5.370
16517TIP3    H149428   4.335   8.345   5.433
16517TIP3    H249429   4.378   8.489   5.423
16518TIP3   OH249430   3.377   8.414   5.781
16518TIP3    H149431   3.367   8.319   5.782
16518TIP3    H249432   3.472   8.428   5.775
16519TIP3   OH249433   3.081   7.621   5.565
16519TIP3    H149434   3.038   7.705   5.578
16519TIP3    H249435   3.014   7.566   5.525
16520TIP3   OH249436   3.144   7.907   5.734
16520TIP3    H149437   3.192   7.832   5.770
16520TIP3    H249438   3.201   7.941   5.666
16521TIP3   OH249439   4.000   8.876   5.385
16521TIP3    H149440   4.046   8.807   5.338
16521TIP3    H249441   3.991   8.842   5.474
16522TIP3   OH249442   3.909   8.338   5.734
16522TIP3    H149443   3.941   8.261   5.688
16522TIP3    H249444   3.988   8.385   5.761
16523TIP3   OH249445   4.920   7.661   5.733
16523TIP3    H149446   4.947   7.741   5.778
16523TIP3    H249447   4.939   7.677   5.641
16524TIP3   OH249448   4.318   7.838   5.768
16524TIP3    H149449   4.360   7.755   5.790
16524TIP3    H249450   4.287   7.826   5.679
16525TIP3   OH249451   3.653   7.498   5.732
16525TIP3    H149452   3.636   7.572   5.673
16525TIP3    H249453   3.608   7.424   5.691
16526TIP3   OH249454   4.352   7.590   5.357
16526TIP3    H149455   4.420   7.574   5.423
16526TIP3    H249456   4.400   7.626   5.282
16527TIP3   OH249457   3.291   7.699   5.840
16527TIP3    H149458   3.372   7.683   5.889
16527TIP3    H249459   3.300   7.647   5.761
16528TIP3   OH249460   3.732   7.897   5.633
16528TIP3    H149461   3.823   7.874   5.647
16528TIP3    H249462   3.691   7.816   5.601
16529TIP3   OH249463   4.990   7.868   5.904
16529TIP3    H149464   4.909   7.913   5.882
16529TIP3    H249465   5.006   7.889   5.996
16530TIP3   OH249466   3.650   7.484   6.168
16530TIP3    H149467   3.593   7.520   6.100
16530TIP3    H249468   3.602   7.500   6.250
16531TIP3   OH249469   4.002   8.337   5.173
16531TIP3    H149470   3.954   8.309   5.096
16531TIP3    H249471   3.959   8.419   5.200
16532TIP3   OH249472   3.758   8.259   5.965
16532TIP3    H149473   3.696   8.320   6.004
16532TIP3    H249474   3.799   8.309   5.894
16533TIP3   OH249475   4.562   7.593   5.528
16533TIP3    H149476   4.550   7.542   5.608
16533TIP3    H249477   4.614   7.668   5.555
16534TIP3   OH249478   3.525   7.598   5.952
16534TIP3    H149479   3.583   7.670   5.977
16534TIP3    H249480   3.570   7.556   5.878
16535TIP3   OH249481   3.581   8.450   6.062
16535TIP3    H149482   3.563   8.536   6.023
16535TIP3    H249483   3.507   8.434   6.120
16536TIP3   OH249484   4.419   8.658   5.537
16536TIP3    H149485   4.333   8.647   5.578
16536TIP3    H249486   4.413   8.743   5.493
16537TIP3   OH249487   4.711   7.561   5.899
16537TIP3    H149488   4.623   7.588   5.871
16537TIP3    H249489   4.769   7.590   5.829
16538TIP3   OH249490   4.007   7.201   5.883
16538TIP3    H149491   3.997   7.107   5.898
16538TIP3    H249492   3.932   7.240   5.927
16539TIP3   OH249493   4.129   8.704   5.211
16539TIP3    H149494   4.173   8.622   5.193
16539TIP3    H249495   4.185   8.771   5.171
16540TIP3   OH249496   4.268   8.488   5.117
16540TIP3    H149497   4.219   8.413   5.082
16540TIP3    H249498   4.303   8.456   5.201
16541TIP3   OH249499   4.647   8.571   5.878
16541TIP3    H149500   4.635   8.494   5.824
16541TIP3    H249501   4.630   8.645   5.820
16542TIP3   OH249502   3.939   7.963   5.136
16542TIP3    H149503   3.860   8.013   5.121
16542TIP3    H249504   3.984   7.962   5.052
16543TIP3   OH249505   3.899   7.750   4.852
16543TIP3    H149506   3.962   7.800   4.904
16543TIP3    H249507   3.952   7.685   4.806
16544TIP3   OH249508   4.841   8.209   5.723
16544TIP3    H149509   4.759   8.258   5.732
16544TIP3    H249510   4.872   8.230   5.635
16545TIP3   OH249511   4.286   8.047   5.112
16545TIP3    H149512   4.230   8.072   5.185
16545TIP3    H249513   4.369   8.021   5.153
16546TIP3   OH249514   4.519   8.089   6.020
16546TIP3    H149515   4.518   8.170   6.070
16546TIP3    H249516   4.435   8.089   5.974
16547TIP3   OH249517   3.519   8.044   5.526
16547TIP3    H149518   3.475   7.990   5.461
16547TIP3    H249519   3.594   7.992   5.554
16548TIP3   OH249520   3.647   8.456   5.674
16548TIP3    H149521   3.623   8.415   5.591
16548TIP3    H249522   3.735   8.423   5.693
16549TIP3   OH249523   3.655   8.017   5.879
16549TIP3    H149524   3.686   7.996   5.791
16549TIP3    H249525   3.696   8.100   5.900
16550TIP3   OH249526   4.180   8.653   5.659
16550TIP3    H149527   4.166   8.732   5.712
16550TIP3    H249528   4.165   8.581   5.720
16551TIP3   OH249529   3.789   8.593   6.191
16551TIP3    H149530   3.733   8.643   6.251
16551TIP3    H249531   3.733   8.522   6.160
16552TIP3   OH249532   4.131   7.906   4.934
16552TIP3    H149533   4.185   7.963   4.988
16552TIP3    H249534   4.153   7.928   4.844
16553TIP3   OH249535   3.544   8.131   6.308
16553TIP3    H149536   3.554   8.216   6.351
16553TIP3    H249537   3.450   8.112   6.314
16554TIP3   OH249538   3.871   8.583   5.212
16554TIP3    H149539   3.946   8.640   5.231
16554TIP3    H249540   3.806   8.641   5.172
16555TIP3   OH249541   3.581   8.750   6.291
16555TIP3    H149542   3.552   8.740   6.201
16555TIP3    H249543   3.505   8.724   6.344
16556TIP3   OH249544   4.641   7.148   4.984
16556TIP3    H149545   4.562   7.164   5.035
16556TIP3    H249546   4.654   7.229   4.934
16557TIP3   OH249547   3.385   7.886   5.334
16557TIP3    H149548   3.323   7.933   5.278
16557TIP3    H249549   3.345   7.799   5.346
16558TIP3   OH249550   4.442   8.514   4.530
16558TIP3    H149551   4.448   8.609   4.517
16558TIP3    H249552   4.532   8.483   4.519
16559TIP3   OH249553   3.165   8.271   6.238
16559TIP3    H149554   3.103   8.248   6.168
16559TIP3    H249555   3.202   8.187   6.265
16560TIP3   OH249556   3.022   8.460   5.880
16560TIP3    H149557   3.115   8.452   5.858
16560TIP3    H249558   3.016   8.543   5.928
16561TIP3   OH249559   4.882   8.913   5.927
16561TIP3    H149560   4.884   8.818   5.939
16561TIP3    H249561   4.802   8.941   5.971
16562TIP3   OH249562   3.992   8.706   6.058
16562TIP3    H149563   3.992   8.796   6.090
16562TIP3    H249564   3.921   8.663   6.106
16563TIP3   OH249565   3.752   8.835   5.010
16563TIP3    H149566   3.701   8.811   4.933
16563TIP3    H249567   3.718   8.920   5.036
16564TIP3   OH249568   3.186   8.679   5.388
16564TIP3    H149569   3.222   8.657   5.474
16564TIP3    H249570   3.129   8.605   5.366
16565TIP3   OH249571   3.954   8.732   4.654
16565TIP3    H149572   4.010   8.663   4.618
16565TIP3    H249573   3.983   8.741   4.744
16566TIP3   OH249574   4.002   8.778   4.924
16566TIP3    H149575   3.914   8.790   4.962
16566TIP3    H249576   4.052   8.736   4.994
16567TIP3   OH249577   4.773   8.045   6.200
16567TIP3    H149578   4.693   8.061   6.150
16567TIP3    H249579   4.790   7.952   6.190
16568TIP3   OH249580   3.370   8.455   6.234
16568TIP3    H149581   3.423   8.436   6.311
16568TIP3    H249582   3.298   8.392   6.237
16569TIP3   OH249583   3.767   7.279   6.010
16569TIP3    H149584   3.681   7.245   5.983
16569TIP3    H249585   3.747   7.361   6.056
16570TIP3   OH249586   4.303   7.392   6.206
16570TIP3    H149587   4.370   7.365   6.268
16570TIP3    H249588   4.220   7.373   6.250
16571TIP3   OH249589   4.544   7.825   6.125
16571TIP3    H149590   4.495   7.818   6.207
16571TIP3    H249591   4.518   7.909   6.088
16572TIP3   OH249592   4.200   7.953   4.674
16572TIP3    H149593   4.169   7.924   4.588
16572TIP3    H249594   4.281   8.001   4.656
16573TIP3   OH249595   3.913   7.326   4.982
16573TIP3    H149596   3.884   7.327   5.073
16573TIP3    H249597   3.878   7.245   4.946
16574TIP3   OH249598   3.699   7.794   6.028
16574TIP3    H149599   3.656   7.816   6.111
16574TIP3    H249600   3.686   7.872   5.974
16575TIP3   OH249601   3.584   7.678   5.542
16575TIP3    H149602   3.494   7.655   5.562
16575TIP3    H249603   3.600   7.640   5.456
16576TIP3   OH249604   4.077   7.766   5.270
16576TIP3    H149605   4.023   7.835   5.231
16576TIP3    H249606   4.131   7.735   5.197
16577TIP3   OH249607   4.260   8.042   6.353
16577TIP3    H149608   4.226   7.978   6.416
16577TIP3    H249609   4.351   8.056   6.380
16578TIP3   OH249610   4.233   7.793   5.507
16578TIP3    H149611   4.173   7.826   5.440
16578TIP3    H249612   4.267   7.711   5.470
16579TIP3   OH249613   3.517   7.822   6.240
16579TIP3    H149614   3.557   7.886   6.299
16579TIP3    H249615   3.509   7.742   6.292
16580TIP3   OH249616   3.567   7.300   4.949
16580TIP3    H149617   3.565   7.295   5.044
16580TIP3    H249618   3.491   7.352   4.925
16581TIP3   OH249619   3.114   7.345   5.820
16581TIP3    H149620   3.189   7.376   5.871
16581TIP3    H249621   3.153   7.313   5.738
16582TIP3   OH249622   3.087   7.328   5.336
16582TIP3    H149623   3.134   7.361   5.260
16582TIP3    H249624   3.026   7.398   5.360
16583TIP3   OH249625   4.245   8.038   5.934
16583TIP3    H149626   4.277   7.970   5.875
16583TIP3    H249627   4.215   7.991   6.012
16584TIP3   OH249628   3.911   7.503   5.607
16584TIP3    H149629   3.829   7.500   5.656
16584TIP3    H249630   3.979   7.501   5.674
16585TIP3   OH249631   3.346   7.556   5.613
16585TIP3    H149632   3.254   7.563   5.588
16585TIP3    H249633   3.370   7.466   5.590
16586TIP3   OH249634   3.617   7.554   5.300
16586TIP3    H149635   3.710   7.569   5.280
16586TIP3    H249636   3.571   7.576   5.220
16587TIP3   OH249637   4.403   7.576   5.807
16587TIP3    H149638   4.372   7.590   5.896
16587TIP3    H249639   4.340   7.515   5.769
16588TIP3   OH249640   3.458   7.584   5.078
16588TIP3    H149641   3.383   7.544   5.034
16588TIP3    H249642   3.509   7.622   5.007
16589TIP3   OH249643   7.841   0.028   6.024
16589TIP3    H149644   7.839   0.049   5.930
16589TIP3    H249645   7.919   0.074   6.057
16590TIP3   OH249646   3.539   8.376   6.451
16590TIP3    H149647   3.626   8.397   6.484
16590TIP3    H249648   3.482   8.380   6.527
16591TIP3   OH249649   3.997   7.828   5.703
16591TIP3    H149650   4.068   7.789   5.652
16591TIP3    H249651   4.005   7.788   5.790
16592TIP3   OH249652   3.519   7.316   5.580
16592TIP3    H149653   3.486   7.239   5.626
16592TIP3    H249654   3.571   7.281   5.508
16593TIP3   OH249655   3.972   7.726   5.995
16593TIP3    H149656   3.884   7.762   6.006
16593TIP3    H249657   4.029   7.786   6.043
16594TIP3   OH249658   3.714   8.113   5.092
16594TIP3    H149659   3.641   8.053   5.075
16594TIP3    H249660   3.694   8.151   5.178
16595TIP3   OH249661   4.609   8.353   5.715
16595TIP3    H149662   4.633   8.402   5.636
16595TIP3    H249663   4.526   8.312   5.694
16596TIP3   OH249664   4.165   7.433   4.944
16596TIP3    H149665   4.072   7.414   4.956
16596TIP3    H249666   4.175   7.523   4.973
16597TIP3   OH249667   4.114   8.440   6.084
16597TIP3    H149668   4.117   8.404   6.173
16597TIP3    H249669   4.066   8.522   6.092
16598TIP3   OH249670   4.238   7.677   5.052
16598TIP3    H149671   4.332   7.682   5.069
16598TIP3    H249672   4.219   7.756   5.001
16599TIP3   OH249673   3.401   8.137   5.763
16599TIP3    H149674   3.436   8.113   5.677
16599TIP3    H249675   3.443   8.076   5.824
16600TIP3   OH249676   3.849   8.267   4.907
16600TIP3    H149677   3.807   8.353   4.913
16600TIP3    H249678   3.798   8.212   4.966
16601TIP3   OH249679   3.278   8.063   6.380
16601TIP3    H149680   3.306   8.049   6.471
16601TIP3    H249681   3.215   7.993   6.364
16602TIP3   OH249682   4.006   8.143   6.407
16602TIP3    H149683   3.948   8.123   6.333
16602TIP3    H249684   4.094   8.134   6.371
16603TIP3   OH249685   4.269   8.701   5.978
16603TIP3    H149686   4.174   8.691   5.990
16603TIP3    H249687   4.297   8.749   6.056
16604TIP3   OH249688   4.678   7.767   4.885
16604TIP3    H149689   4.617   7.719   4.828
16604TIP3    H249690   4.679   7.856   4.850
16605TIP3   OH249691   4.896   8.623   5.967
16605TIP3    H149692   4.801   8.620   5.964
16605TIP3    H249693   4.924   8.594   5.880
16606TIP3   OH249694   4.379   8.585   4.796
16606TIP3    H149695   4.353   8.519   4.860
16606TIP3    H249696   4.390   8.537   4.714
16607TIP3   OH249697   4.374   8.213   5.635
16607TIP3    H149698   4.282   8.191   5.650
16607TIP3    H249699   4.410   8.136   5.590
16608TIP3   OH249700   3.497   8.442   5.387
16608TIP3    H149701   3.496   8.524   5.337
16608TIP3    H249702   3.408   8.408   5.379
16609TIP3   OH249703   3.061   7.744   5.090
16609TIP3    H149704   3.112   7.824   5.107
16609TIP3    H249705   2.986   7.751   5.149
16610TIP3   OH249706   3.641   8.212   5.335
16610TIP3    H149707   3.607   8.300   5.351
16610TIP3    H249708   3.605   8.159   5.406
16611TIP3   OH249709   3.772   8.787   5.858
16611TIP3    H149710   3.812   8.858   5.807
16611TIP3    H249711   3.844   8.750   5.908
16612TIP3   OH249712   3.422   8.683   5.241
16612TIP3    H149713   3.336   8.684   5.284
16612TIP3    H249714   3.451   8.774   5.242
16613TIP3   OH249715   4.162   8.419   5.817
16613TIP3    H149716   4.151   8.421   5.912
16613TIP3    H249717   4.241   8.367   5.802
16614TIP3   OH249718   4.133   8.312   4.700
16614TIP3    H149719   4.187   8.289   4.776
16614TIP3    H249720   4.044   8.288   4.726
16615TIP3   OH249721   4.407   8.955   5.866
16615TIP3    H149722   4.332   8.896   5.863
16615TIP3    H249723   4.392   9.018   5.795
16616TIP3   OH249724   4.473   8.792   4.518
16616TIP3    H149725   4.518   8.863   4.471
16616TIP3    H249726   4.392   8.832   4.551
16617TIP3   OH249727   3.493   7.564   6.387
16617TIP3    H149728   3.398   7.568   6.396
16617TIP3    H249729   3.522   7.503   6.455
16618TIP3   OH249730   4.296   8.244   4.912
16618TIP3    H149731   4.281   8.182   4.985
16618TIP3    H249732   4.391   8.245   4.901
16619TIP3   OH249733   3.210   8.652   6.020
16619TIP3    H149734   3.259   8.572   6.041
16619TIP3    H249735   3.246   8.718   6.079
16620TIP3   OH249736   3.503   8.291   4.691
16620TIP3    H149737   3.515   8.200   4.665
16620TIP3    H249738   3.491   8.287   4.786
16621TIP3   OH249739   3.471   8.297   4.958
16621TIP3    H149740   3.491   8.264   5.046
16621TIP3    H249741   3.449   8.390   4.972
16622TIP3   OH249742   3.192   7.976   5.164
16622TIP3    H149743   3.141   8.040   5.213
16622TIP3    H249744   3.229   8.027   5.091
16623TIP3   OH249745   4.332   7.627   6.065
16623TIP3    H149746   4.409   7.667   6.106
16623TIP3    H249747   4.315   7.549   6.118
16624TIP3   OH249748   4.210   7.384   5.229
16624TIP3    H149749   4.197   7.405   5.136
16624TIP3    H249750   4.249   7.463   5.266
16625TIP3   OH249751   3.716   8.503   4.918
16625TIP3    H149752   3.629   8.514   4.956
16625TIP3    H249753   3.724   8.576   4.856
16626TIP3   OH249754   3.902   7.561   5.334
16626TIP3    H149755   3.964   7.632   5.315
16626TIP3    H249756   3.904   7.552   5.429
16627TIP3   OH249757   4.169   7.879   6.142
16627TIP3    H149758   4.188   7.935   6.217
16627TIP3    H249759   4.223   7.801   6.155
16628TIP3   OH249760   4.045   7.291   5.435
16628TIP3    H149761   4.036   7.365   5.495
16628TIP3    H249762   4.104   7.323   5.367
16629TIP3   OH249763   3.455   8.574   4.984
16629TIP3    H149764   3.423   8.641   4.924
16629TIP3    H249765   3.437   8.609   5.071
16630TIP3   OH249766   3.558   7.287   5.225
16630TIP3    H149767   3.551   7.376   5.260
16630TIP3    H249768   3.651   7.265   5.232
16631TIP3   OH249769   4.809   7.778   6.118
16631TIP3    H149770   4.714   7.780   6.131
16631TIP3    H249771   4.821   7.736   6.033
16632TIP3   OH249772   4.461   7.971   5.509
16632TIP3    H149773   4.385   7.915   5.521
16632TIP3    H249774   4.531   7.927   5.556
16633TIP3   OH249775   3.117   7.478   5.111
16633TIP3    H149776   3.119   7.573   5.108
16633TIP3    H249777   3.034   7.454   5.070
16634TIP3   OH249778   4.430   8.931   5.456
16634TIP3    H149779   4.384   8.975   5.385
16634TIP3    H249780   4.523   8.947   5.440
16635TIP3   OH249781   3.503   7.196   5.986
16635TIP3    H149782   3.474   7.165   5.901
16635TIP3    H249783   3.494   7.120   6.044
16636TIP3   OH249784   3.200   8.954   6.443
16636TIP3    H149785   3.287   8.956   6.484
16636TIP3    H249786   3.180   8.861   6.434
16637TIP3   OH249787   3.683   8.926   6.480
16637TIP3    H149788   3.774   8.900   6.496
16637TIP3    H249789   3.654   8.869   6.409
16638TIP3   OH249790   3.663   8.495   4.610
16638TIP3    H149791   3.602   8.431   4.648
16638TIP3    H249792   3.740   8.443   4.585
16639TIP3   OH249793   4.322   8.829   6.216
16639TIP3    H149794   4.311   8.760   6.282
16639TIP3    H249795   4.398   8.878   6.246
16640TIP3   OH249796   4.101   8.538   4.522
16640TIP3    H149797   4.142   8.476   4.582
16640TIP3    H249798   4.158   8.538   4.445
16641TIP3   OH249799   3.328   8.364   6.640
16641TIP3    H149800   3.352   8.272   6.642
16641TIP3    H249801   3.244   8.367   6.593
16642TIP3   OH249802   3.312   7.990   4.819
16642TIP3    H149803   3.357   7.988   4.904
16642TIP3    H249804   3.382   8.011   4.756
16643TIP3   OH249805   3.820   8.212   4.638
16643TIP3    H149806   3.818   8.228   4.732
16643TIP3    H249807   3.813   8.117   4.630
16644TIP3   OH249808   4.433   8.455   6.017
16644TIP3    H149809   4.504   8.503   5.974
16644TIP3    H249810   4.357   8.513   6.009
16645TIP3   OH249811   3.450   8.093   6.621
16645TIP3    H149812   3.530   8.052   6.590
16645TIP3    H249813   3.473   8.129   6.706
16646TIP3   OH249814   3.520   7.917   5.057
16646TIP3    H149815   3.489   7.879   5.139
16646TIP3    H249816   3.551   7.843   5.005
16647TIP3   OH249817   3.776   7.972   6.273
16647TIP3    H149818   3.709   8.039   6.287
16647TIP3    H249819   3.832   8.008   6.204
16648TIP3   OH249820   3.617   7.709   4.893
16648TIP3    H149821   3.587   7.715   4.802
16648TIP3    H249822   3.712   7.718   4.888
16649TIP3   OH249823   4.306   8.387   6.417
16649TIP3    H149824   4.383   8.358   6.368
16649TIP3    H249825   4.294   8.320   6.485
16650TIP3   OH249826   4.438   8.045   4.553
16650TIP3    H149827   4.419   7.995   4.474
16650TIP3    H249828   4.407   8.134   4.534
16651TIP3   OH249829   3.909   7.770   6.406
16651TIP3    H149830   3.909   7.691   6.352
16651TIP3    H249831   3.866   7.836   6.352
16652TIP3   OH249832   3.910   7.556   6.213
16652TIP3    H149833   3.938   7.599   6.132
16652TIP3    H249834   3.818   7.534   6.197
16653TIP3   OH249835   3.938   8.095   6.092
16653TIP3    H149836   4.019   8.099   6.041
16653TIP3    H249837   3.880   8.158   6.049
16654TIP3   OH249838   4.526   8.058   6.472
16654TIP3    H149839   4.573   7.975   6.473
16654TIP3    H249840   4.588   8.121   6.436
16655TIP3   OH249841   4.563   8.314   6.204
16655TIP3    H149842   4.503   8.364   6.149
16655TIP3    H249843   4.650   8.332   6.167
16656TIP3   OH249844   3.784   7.879   6.639
16656TIP3    H149845   3.717   7.812   6.649
16656TIP3    H249846   3.818   7.867   6.550
16657TIP3   OH249847   4.041   7.322   6.283
16657TIP3    H149848   3.995   7.403   6.260
16657TIP3    H249849   3.976   7.253   6.271
16658TIP3   OH249850   4.168   7.826   6.497
16658TIP3    H149851   4.155   7.832   6.591
16658TIP3    H249852   4.082   7.804   6.461
16659TIP3   OH249853   4.409   7.771   6.353
16659TIP3    H149854   4.333   7.778   6.411
16659TIP3    H249855   4.480   7.742   6.410
16660TIP3   OH249856   4.639   7.715   6.507
16660TIP3    H149857   4.651   7.621   6.522
16660TIP3    H249858   4.637   7.754   6.595
16661TIP3   OH249859   3.623   7.661   6.691
16661TIP3    H149860   3.628   7.573   6.654
16661TIP3    H249861   3.657   7.651   6.780
16662TIP3   OH249862   4.141   7.330   6.538
16662TIP3    H149863   4.206   7.261   6.535
16662TIP3    H249864   4.098   7.327   6.452
16663TIP3   OH249865   4.197   7.545   6.704
16663TIP3    H149866   4.184   7.476   6.639
16663TIP3    H249867   4.124   7.605   6.691
16664TIP3   OH249868   3.425   8.782   4.798
16664TIP3    H149869   3.519   8.772   4.782
16664TIP3    H249870   3.392   8.825   4.719
16665TIP3   OH249871   2.901   8.175   4.971
16665TIP3    H149872   2.957   8.200   5.044
16665TIP3    H249873   2.914   8.081   4.961
16666TIP3   OH249874   2.812   8.767   5.428
16666TIP3    H149875   2.749   8.704   5.394
16666TIP3    H249876   2.863   8.717   5.492
16667TIP3   OH249877   2.949   8.635   5.620
16667TIP3    H149878   2.942   8.548   5.659
16667TIP3    H249879   3.006   8.683   5.679
16668TIP3   OH249880   4.681   9.023   5.415
16668TIP3    H149881   4.706   9.053   5.502
16668TIP3    H249882   4.743   9.067   5.355
16669TIP3   OH249883   4.711   9.038   5.697
16669TIP3    H149884   4.666   8.954   5.692
16669TIP3    H249885   4.787   9.021   5.754
16670TIP3   OH249886   4.757   8.719   6.271
16670TIP3    H149887   4.685   8.724   6.333
16670TIP3    H249888   4.798   8.805   6.274
16671TIP3   OH249889   4.576   8.231   4.891
16671TIP3    H149890   4.642   8.294   4.862
16671TIP3    H249891   4.615   8.191   4.969
16672TIP3   OH249892   4.701   8.098   5.096
16672TIP3    H149893   4.636   8.056   5.152
16672TIP3    H249894   4.764   8.136   5.156
16673TIP3   OH249895   4.755   8.489   5.525
16673TIP3    H149896   4.808   8.425   5.477
16673TIP3    H249897   4.746   8.563   5.464
16674TIP3   OH249898   4.585   8.790   5.721
16674TIP3    H149899   4.516   8.832   5.773
16674TIP3    H249900   4.537   8.742   5.653
16675TIP3   OH249901   4.637   8.008   4.739
16675TIP3    H149902   4.568   8.007   4.673
16675TIP3    H249903   4.613   8.081   4.797
16676TIP3   OH249904   4.509   7.677   4.694
16676TIP3    H149905   4.468   7.717   4.617
16676TIP3    H249906   4.486   7.585   4.688
16677TIP3   OH249907   4.516   7.953   5.242
16677TIP3    H149908   4.523   7.858   5.234
16677TIP3    H249909   4.502   7.968   5.336
16678TIP3   OH249910   3.143   8.026   5.986
16678TIP3    H149911   3.139   7.998   5.895
16678TIP3    H249912   3.237   8.030   6.005
16679TIP3   OH249913   4.806   8.379   6.096
16679TIP3    H149914   4.876   8.314   6.088
16679TIP3    H249915   4.831   8.448   6.035
16680TIP3   OH249916   4.990   8.182   6.115
16680TIP3    H149917   4.915   8.137   6.153
16680TIP3    H249918   5.063   8.122   6.128
16681TIP3   OH249919   4.454   7.412   4.682
16681TIP3    H149920   4.528   7.382   4.734
16681TIP3    H249921   4.382   7.354   4.707
16682TIP3   OH249922   4.513   7.668   5.135
16682TIP3    H149923   4.550   7.581   5.153
16682TIP3    H249924   4.569   7.704   5.066
16683TIP3   OH249925   4.676   7.847   5.631
16683TIP3    H149926   4.759   7.870   5.589
16683TIP3    H249927   4.684   7.880   5.720
16684TIP3   OH249928   4.741   7.990   5.863
16684TIP3    H149929   4.664   8.021   5.911
16684TIP3    H249930   4.774   8.068   5.818
16685TIP3   OH249931   3.357   7.712   6.662
16685TIP3    H149932   3.452   7.710   6.660
16685TIP3    H249933   3.332   7.629   6.703
16686TIP3   OH249934   5.193   7.578   6.417
16686TIP3    H149935   5.252   7.513   6.377
16686TIP3    H249936   5.165   7.633   6.343
16687TIP3   OH249937   4.620   7.418   5.175
16687TIP3    H149938   4.668   7.405   5.256
16687TIP3    H249939   4.560   7.344   5.171
16688TIP3   OH249940   3.322   7.407   5.996
16688TIP3    H149941   3.380   7.331   6.003
16688TIP3    H249942   3.381   7.482   5.987
16689TIP3   OH249943   3.125   7.682   6.064
16689TIP3    H149944   3.171   7.671   5.981
16689TIP3    H249945   3.154   7.767   6.097
16690TIP3   OH249946   5.062   7.718   6.223
16690TIP3    H149947   4.979   7.760   6.245
16690TIP3    H249948   5.039   7.646   6.165
16691TIP3   OH249949   4.703   7.356   4.803
16691TIP3    H149950   4.740   7.283   4.754
16691TIP3    H249951   4.769   7.425   4.798
16692TIP3   OH249952   3.105   7.188   5.567
16692TIP3    H149953   3.013   7.182   5.592
16692TIP3    H249954   3.105   7.243   5.489
16693TIP3   OH249955   4.266   8.888   5.070
16693TIP3    H149956   4.317   8.873   4.990
16693TIP3    H249957   4.318   8.952   5.119
16694TIP3   OH249958   3.325   7.268   6.383
16694TIP3    H149959   3.276   7.258   6.465
16694TIP3    H249960   3.261   7.302   6.321
16695TIP3   OH249961   3.361   8.699   6.458
16695TIP3    H149962   3.275   8.661   6.442
16695TIP3    H249963   3.385   8.667   6.545
16696TIP3   OH249964   3.542   8.724   6.004
16696TIP3    H149965   3.495   8.798   5.966
16696TIP3    H249966   3.630   8.730   5.966
16697TIP3   OH249967   3.992   8.971   6.147
16697TIP3    H149968   4.032   8.969   6.234
16697TIP3    H249969   4.056   9.018   6.093
16698TIP3   OH249970   4.171   9.120   6.002
16698TIP3    H149971   4.238   9.066   5.960
16698TIP3    H249972   4.220   9.176   6.062
16699TIP3   OH249973   4.962   7.479   6.101
16699TIP3    H149974   4.872   7.476   6.069
16699TIP3    H249975   4.994   7.389   6.090
16700TIP3   OH249976   3.219   8.983   6.027
16700TIP3    H149977   3.133   9.016   6.003
16700TIP3    H249978   3.230   9.011   6.118
16701TIP3   OH249979   3.457   8.960   5.885
16701TIP3    H149980   3.373   8.972   5.931
16701TIP3    H249981   3.440   8.991   5.796
16702TIP3   OH249982   3.884   8.991   5.683
16702TIP3    H149983   3.814   9.007   5.619
16702TIP3    H249984   3.897   9.075   5.726
16703TIP3   OH249985   4.151   8.929   5.734
16703TIP3    H149986   4.058   8.943   5.716
16703TIP3    H249987   4.195   9.005   5.694
16704TIP3   OH249988   4.361   9.120   5.650
16704TIP3    H149989   4.347   9.203   5.604
16704TIP3    H249990   4.386   9.059   5.580
16705TIP3   OH249991   3.135   8.772   5.779
16705TIP3    H149992   3.160   8.750   5.868
16705TIP3    H249993   3.202   8.732   5.724
16706TIP3   OH249994   3.323   8.643   5.632
16706TIP3    H149995   3.340   8.560   5.677
16706TIP3    H249996   3.410   8.683   5.622
16707TIP3   OH249997   3.594   8.741   5.634
16707TIP3    H149998   3.620   8.650   5.617
16707TIP3    H249999   3.635   8.762   5.717
16708TIP3   OH250000   4.168   7.395   5.721
16708TIP3    H150001   4.124   7.328   5.773
16708TIP3    H250002   4.239   7.348   5.676
16709TIP3   OH250003   4.692   7.280   5.626
16709TIP3    H150004   4.728   7.329   5.552
16709TIP3    H250005   4.598   7.294   5.621
16710TIP3   OH250006   4.789   7.379   5.389
16710TIP3    H150007   4.859   7.326   5.351
16710TIP3    H250008   4.819   7.469   5.376
16711TIP3   OH250009   3.416   7.102   5.738
16711TIP3    H150010   3.325   7.073   5.739
16711TIP3    H250011   3.467   7.021   5.735
16712TIP3   OH250012   3.201   6.977   5.385
16712TIP3    H150013   3.233   7.031   5.313
16712TIP3    H250014   3.175   7.039   5.452
16713TIP3   OH250015   3.860   7.140   5.618
16713TIP3    H150016   3.918   7.188   5.558
16713TIP3    H250017   3.881   7.175   5.705
16714TIP3   OH250018   4.410   7.282   5.601
16714TIP3    H150019   4.406   7.247   5.512
16714TIP3    H250020   4.395   7.205   5.657
16715TIP3   OH250021   4.435   7.205   5.165
16715TIP3    H150022   4.350   7.248   5.174
16715TIP3    H250023   4.424   7.121   5.210
16716TIP3   OH250024   2.927   8.582   5.150
16716TIP3    H150025   2.872   8.504   5.149
16716TIP3    H250026   2.866   8.654   5.163
16717TIP3   OH250027   3.322   7.135   5.148
16717TIP3    H150028   3.368   7.072   5.093
16717TIP3    H250029   3.392   7.189   5.185
16718TIP3   OH250030   3.835   7.311   5.249
16718TIP3    H150031   3.891   7.260   5.306
16718TIP3    H250032   3.854   7.402   5.272
16719TIP3   OH250033   3.692   8.735   4.741
16719TIP3    H150034   3.780   8.758   4.712
16719TIP3    H250035   3.667   8.660   4.687
16720TIP3   OH250036   4.411   8.851   4.837
16720TIP3    H150037   4.404   8.756   4.829
16720TIP3    H250038   4.367   8.885   4.759
16721TIP3   OH250039   3.626   7.385   6.632
16721TIP3    H150040   3.591   7.314   6.686
16721TIP3    H250041   3.719   7.388   6.655
16722TIP3   OH250042   3.876   7.385   6.750
16722TIP3    H150043   3.956   7.358   6.705
16722TIP3    H250044   3.860   7.316   6.815
16723TIP3   OH250045   3.002   8.578   4.816
16723TIP3    H150046   2.996   8.576   4.912
16723TIP3    H250047   3.084   8.533   4.796
16724TIP3   OH250048   4.701   7.444   6.537
16724TIP3    H150049   4.719   7.412   6.625
16724TIP3    H250050   4.785   7.440   6.492
16725TIP3   OH250051   4.636   8.999   6.027
16725TIP3    H150052   4.560   8.964   5.980
16725TIP3    H250053   4.619   9.093   6.032
16726TIP3   OH250054   5.903   8.371   4.791
16726TIP3    H150055   5.878   8.462   4.774
16726TIP3    H250056   5.828   8.320   4.762
16727TIP3   OH250057   5.904   8.366   5.174
16727TIP3    H150058   5.934   8.341   5.262
16727TIP3    H250059   5.861   8.288   5.140
16728TIP3   OH250060   5.205   8.264   5.540
16728TIP3    H150061   5.233   8.197   5.602
16728TIP3    H250062   5.280   8.324   5.534
16729TIP3   OH250063   6.147   8.671   4.857
16729TIP3    H150064   6.131   8.601   4.921
16729TIP3    H250065   6.173   8.746   4.910
16730TIP3   OH250066   5.174   8.672   5.265
16730TIP3    H150067   5.163   8.577   5.268
16730TIP3    H250068   5.269   8.684   5.261
16731TIP3   OH250069   4.878   7.880   5.051
16731TIP3    H150070   4.833   7.962   5.066
16731TIP3    H250071   4.812   7.822   5.014
16732TIP3   OH250072   4.942   8.164   5.221
16732TIP3    H150073   4.987   8.088   5.258
16732TIP3    H250074   4.998   8.193   5.149
16733TIP3   OH250075   5.794   9.131   4.871
16733TIP3    H150076   5.841   9.062   4.825
16733TIP3    H250077   5.786   9.100   4.961
16734TIP3   OH250078   5.705   8.594   5.222
16734TIP3    H150079   5.737   8.517   5.175
16734TIP3    H250080   5.784   8.641   5.248
16735TIP3   OH250081   6.714   7.918   5.219
16735TIP3    H150082   6.742   7.996   5.267
16735TIP3    H250083   6.736   7.936   5.128
16736TIP3   OH250084   6.115   8.096   5.254
16736TIP3    H150085   6.156   8.013   5.277
16736TIP3    H250086   6.083   8.083   5.165
16737TIP3   OH250087   5.450   7.756   5.218
16737TIP3    H150088   5.431   7.829   5.160
16737TIP3    H250089   5.405   7.681   5.179
16738TIP3   OH250090   6.147   7.846   4.845
16738TIP3    H150091   6.214   7.829   4.911
16738TIP3    H250092   6.195   7.882   4.770
16739TIP3   OH250093   5.087   7.957   5.326
16739TIP3    H150094   5.167   7.939   5.376
16739TIP3    H250095   5.095   7.903   5.248
16740TIP3   OH250096   5.527   8.154   5.119
16740TIP3    H150097   5.619   8.131   5.134
16740TIP3    H250098   5.487   8.073   5.088
16741TIP3   OH250099   6.785   8.125   5.390
16741TIP3    H150100   6.703   8.169   5.370
16741TIP3    H250101   6.803   8.146   5.482
16742TIP3   OH250102   5.446   7.740   5.656
16742TIP3    H150103   5.389   7.775   5.587
16742TIP3    H250104   5.399   7.756   5.737
16743TIP3   OH250105   5.798   8.594   4.660
16743TIP3    H150106   5.752   8.568   4.581
16743TIP3    H250107   5.755   8.676   4.687
16744TIP3   OH250108   5.555   8.516   5.451
16744TIP3    H150109   5.492   8.578   5.490
16744TIP3    H250110   5.596   8.566   5.381
16745TIP3   OH250111   6.359   7.850   5.014
16745TIP3    H150112   6.346   7.798   5.094
16745TIP3    H250113   6.409   7.926   5.043
16746TIP3   OH250114   5.322   7.855   5.439
16746TIP3    H150115   5.380   7.927   5.464
16746TIP3    H250116   5.367   7.812   5.365
16747TIP3   OH250117   5.379   8.709   5.548
16747TIP3    H150118   5.358   8.794   5.508
16747TIP3    H250119   5.304   8.690   5.604
16748TIP3   OH250120   4.779   8.400   4.783
16748TIP3    H150121   4.736   8.425   4.701
16748TIP3    H250122   4.809   8.482   4.821
16749TIP3   OH250123   6.216   8.915   5.023
16749TIP3    H150124   6.130   8.903   5.064
16749TIP3    H250125   6.209   9.000   4.979
16750TIP3   OH250126   6.507   7.818   5.387
16750TIP3    H150127   6.420   7.844   5.357
16750TIP3    H250128   6.565   7.847   5.317
16751TIP3   OH250129   5.804   7.461   5.368
16751TIP3    H150130   5.794   7.366   5.378
16751TIP3    H250131   5.728   7.498   5.414
16752TIP3   OH250132   5.925   8.960   4.698
16752TIP3    H150133   5.970   8.877   4.679
16752TIP3    H250134   5.980   9.027   4.659
16753TIP3   OH250135   6.064   8.743   4.604
16753TIP3    H150136   6.015   8.668   4.569
16753TIP3    H250137   6.100   8.711   4.687
16754TIP3   OH250138   6.443   8.828   5.365
16754TIP3    H150139   6.431   8.750   5.310
16754TIP3    H250140   6.425   8.902   5.307
16755TIP3   OH250141   5.733   8.221   4.622
16755TIP3    H150142   5.653   8.271   4.605
16755TIP3    H250143   5.778   8.218   4.538
16756TIP3   OH250144   5.695   8.005   4.343
16756TIP3    H150145   5.760   8.056   4.392
16756TIP3    H250146   5.746   7.940   4.295
16757TIP3   OH250147   6.637   8.465   5.209
16757TIP3    H150148   6.555   8.514   5.219
16757TIP3    H250149   6.668   8.487   5.122
16758TIP3   OH250150   6.084   8.304   4.600
16758TIP3    H150151   6.026   8.328   4.673
16758TIP3    H250152   6.166   8.278   4.642
16759TIP3   OH250153   6.315   8.345   5.507
16759TIP3    H150154   6.315   8.426   5.558
16759TIP3    H250155   6.231   8.346   5.462
16760TIP3   OH250156   5.315   8.300   5.012
16760TIP3    H150157   5.272   8.245   4.947
16760TIP3    H250158   5.390   8.249   5.041
16761TIP3   OH250159   5.445   8.712   5.161
16761TIP3    H150160   5.422   8.669   5.078
16761TIP3    H250161   5.533   8.680   5.180
16762TIP3   OH250162   5.454   8.272   5.367
16762TIP3    H150163   5.484   8.252   5.278
16762TIP3    H250164   5.493   8.357   5.387
16763TIP3   OH250165   5.978   8.909   5.145
16763TIP3    H150166   5.962   8.989   5.196
16763TIP3    H250167   5.962   8.838   5.207
16764TIP3   OH250168   5.585   8.829   5.691
16764TIP3    H150169   5.530   8.891   5.738
16764TIP3    H250170   5.523   8.775   5.642
16765TIP3   OH250171   5.927   8.162   4.422
16765TIP3    H150172   5.980   8.221   4.475
16765TIP3    H250173   5.950   8.183   4.332
16766TIP3   OH250174   5.340   8.388   5.792
16766TIP3    H150175   5.348   8.473   5.836
16766TIP3    H250176   5.247   8.365   5.801
16767TIP3   OH250177   5.666   8.842   4.697
16767TIP3    H150178   5.742   8.896   4.718
16767TIP3    H250179   5.603   8.903   4.659
16768TIP3   OH250180   5.381   8.997   5.777
16768TIP3    H150181   5.348   8.996   5.688
16768TIP3    H250182   5.305   8.976   5.832
16769TIP3   OH250183   6.436   7.406   4.470
16769TIP3    H150184   6.356   7.416   4.523
16769TIP3    H250185   6.445   7.489   4.425
16770TIP3   OH250186   5.178   8.144   4.817
16770TIP3    H150187   5.115   8.189   4.761
16770TIP3    H250188   5.141   8.057   4.832
16771TIP3   OH250189   6.238   8.771   4.016
16771TIP3    H150190   6.243   8.866   4.004
16771TIP3    H250191   6.328   8.741   4.007
16772TIP3   OH250192   4.961   8.526   5.724
16772TIP3    H150193   4.897   8.506   5.657
16772TIP3    H250194   4.998   8.441   5.749
16773TIP3   OH250195   4.816   8.723   5.357
16773TIP3    H150196   4.911   8.714   5.348
16773TIP3    H250197   4.804   8.800   5.412
16774TIP3   OH250198   6.679   9.169   5.414
16774TIP3    H150199   6.680   9.074   5.428
16774TIP3    H250200   6.599   9.198   5.457
16775TIP3   OH250201   5.785   8.959   5.550
16775TIP3    H150202   5.787   9.050   5.579
16775TIP3    H250203   5.716   8.918   5.602
16776TIP3   OH250204   5.546   9.089   4.498
16776TIP3    H150205   5.500   9.069   4.417
16776TIP3    H250206   5.514   9.175   4.523
16777TIP3   OH250207   4.984   8.935   4.886
16777TIP3    H150208   5.033   8.929   4.968
16777TIP3    H250209   4.927   8.859   4.887
16778TIP3   OH250210   5.750   8.988   4.141
16778TIP3    H150211   5.807   8.920   4.104
16778TIP3    H250212   5.780   8.998   4.231
16779TIP3   OH250213   5.797   9.034   4.413
16779TIP3    H150214   5.710   9.046   4.451
16779TIP3    H250215   5.849   8.995   4.483
16780TIP3   OH250216   6.570   8.302   5.686
16780TIP3    H150217   6.489   8.317   5.637
16780TIP3    H250218   6.587   8.209   5.678
16781TIP3   OH250219   5.166   8.709   5.715
16781TIP3    H150220   5.216   8.694   5.796
16781TIP3    H250221   5.093   8.648   5.721
16782TIP3   OH250222   5.563   7.535   5.498
16782TIP3    H150223   5.478   7.501   5.471
16782TIP3    H250224   5.543   7.617   5.543
16783TIP3   OH250225   6.098   7.649   5.694
16783TIP3    H150226   6.166   7.620   5.755
16783TIP3    H250227   6.016   7.627   5.738
16784TIP3   OH250228   6.340   8.081   5.613
16784TIP3    H150229   6.291   8.075   5.695
16784TIP3    H250230   6.315   8.165   5.575
16785TIP3   OH250231   6.005   8.204   4.166
16785TIP3    H150232   5.965   8.181   4.083
16785TIP3    H250233   6.077   8.263   4.142
16786TIP3   OH250234   5.711   7.581   4.470
16786TIP3    H150235   5.680   7.582   4.560
16786TIP3    H250236   5.674   7.501   4.433
16787TIP3   OH250237   5.497   8.051   5.517
16787TIP3    H150238   5.448   8.070   5.598
16787TIP3    H250239   5.483   8.129   5.463
16788TIP3   OH250240   5.379   7.935   5.028
16788TIP3    H150241   5.289   7.911   5.049
16788TIP3    H250242   5.395   7.896   4.942
16789TIP3   OH250243   5.873   8.024   4.756
16789TIP3    H150244   5.819   8.093   4.718
16789TIP3    H250245   5.925   7.991   4.683
16790TIP3   OH250246   6.047   8.299   5.846
16790TIP3    H150247   6.023   8.228   5.906
16790TIP3    H250248   6.140   8.316   5.865
16791TIP3   OH250249   6.029   8.050   4.994
16791TIP3    H150250   5.968   8.082   4.927
16791TIP3    H250251   6.064   7.968   4.957
16792TIP3   OH250252   5.317   8.078   5.727
16792TIP3    H150253   5.341   8.143   5.792
16792TIP3    H250254   5.305   7.997   5.776
16793TIP3   OH250255   5.366   7.558   4.436
16793TIP3    H150256   5.360   7.552   4.531
16793TIP3    H250257   5.288   7.607   4.410
16794TIP3   OH250258   4.910   7.603   5.305
16794TIP3    H150259   4.985   7.632   5.357
16794TIP3    H250260   4.949   7.567   5.225
16795TIP3   OH250261   4.884   7.584   4.824
16795TIP3    H150262   4.931   7.619   4.747
16795TIP3    H250263   4.823   7.654   4.847
16796TIP3   OH250264   6.041   8.295   5.421
16796TIP3    H150265   6.073   8.227   5.361
16796TIP3    H250266   6.011   8.247   5.498
16797TIP3   OH250267   5.708   7.761   5.094
16797TIP3    H150268   5.626   7.757   5.143
16797TIP3    H250269   5.776   7.756   5.161
16798TIP3   OH250270   5.142   7.812   5.099
16798TIP3    H150271   5.050   7.821   5.073
16798TIP3    H250272   5.165   7.722   5.077
16799TIP3   OH250273   5.413   7.811   4.787
16799TIP3    H150274   5.506   7.825   4.766
16799TIP3    H250275   5.367   7.833   4.705
16800TIP3   OH250276   6.198   7.833   5.294
16800TIP3    H150277   6.167   7.847   5.383
16800TIP3    H250278   6.136   7.771   5.256
16801TIP3   OH250279   5.253   7.844   4.565
16801TIP3    H150280   5.180   7.799   4.522
16801TIP3    H250281   5.305   7.879   4.493
16802TIP3   OH250282   9.638   0.284   5.511
16802TIP3    H150283   9.634   0.307   5.418
16802TIP3    H250284   9.715   0.330   5.544
16803TIP3   OH250285   5.329   8.633   5.937
16803TIP3    H150286   5.408   8.663   5.980
16803TIP3    H250287   5.262   8.632   6.006
16804TIP3   OH250288   5.793   8.086   5.191
16804TIP3    H150289   5.863   8.045   5.139
16804TIP3    H250290   5.799   8.045   5.277
16805TIP3   OH250291   5.317   7.572   5.067
16805TIP3    H150292   5.281   7.496   5.113
16805TIP3    H250293   5.366   7.535   4.994
16806TIP3   OH250294   5.768   7.983   5.480
16806TIP3    H150295   5.680   8.018   5.493
16806TIP3    H250296   5.825   8.042   5.529
16807TIP3   OH250297   5.503   8.373   4.576
16807TIP3    H150298   5.434   8.309   4.562
16807TIP3    H250299   5.488   8.407   4.664
16808TIP3   OH250300   6.405   8.609   5.202
16808TIP3    H150301   6.429   8.658   5.123
16808TIP3    H250302   6.321   8.568   5.181
16809TIP3   OH250303   5.961   7.688   4.433
16809TIP3    H150304   5.868   7.668   4.443
16809TIP3    H250305   5.968   7.779   4.460
16810TIP3   OH250306   5.906   8.694   5.571
16810TIP3    H150307   5.927   8.670   5.661
16810TIP3    H250308   5.866   8.781   5.578
16811TIP3   OH250309   6.033   7.934   4.539
16811TIP3    H150310   6.126   7.941   4.558
16811TIP3    H250311   6.012   8.014   4.490
16812TIP3   OH250312   5.199   8.395   5.249
16812TIP3    H150313   5.235   8.368   5.165
16812TIP3    H250314   5.235   8.332   5.312
16813TIP3   OH250315   5.649   8.524   4.396
16813TIP3    H150316   5.604   8.609   4.400
16813TIP3    H250317   5.597   8.468   4.454
16814TIP3   OH250318   5.077   8.315   5.864
16814TIP3    H150319   5.098   8.303   5.957
16814TIP3    H250320   5.008   8.251   5.846
16815TIP3   OH250321   5.804   8.427   5.883
16815TIP3    H150322   5.742   8.372   5.835
16815TIP3    H250323   5.890   8.397   5.856
16816TIP3   OH250324   6.064   8.953   5.467
16816TIP3    H150325   5.969   8.949   5.478
16816TIP3    H250326   6.095   9.003   5.543
16817TIP3   OH250327   6.488   8.016   4.363
16817TIP3    H150328   6.424   7.968   4.311
16817TIP3    H250329   6.485   8.105   4.328
16818TIP3   OH250330   6.691   8.879   5.454
16818TIP3    H150331   6.596   8.876   5.450
16818TIP3    H250332   6.719   8.850   5.367
16819TIP3   OH250333   6.179   8.840   4.284
16819TIP3    H150334   6.148   8.774   4.346
16819TIP3    H250335   6.188   8.793   4.201
16820TIP3   OH250336   6.170   8.470   5.121
16820TIP3    H150337   6.078   8.447   5.137
16820TIP3    H250338   6.206   8.393   5.077
16821TIP3   OH250339   5.297   8.700   4.872
16821TIP3    H150340   5.299   8.780   4.820
16821TIP3    H250341   5.203   8.683   4.886
16822TIP3   OH250342   4.860   8.006   4.578
16822TIP3    H150343   4.908   8.086   4.597
16822TIP3    H250344   4.784   8.008   4.637
16823TIP3   OH250345   5.438   8.467   4.821
16823TIP3    H150346   5.403   8.555   4.836
16823TIP3    H250347   5.403   8.415   4.893
16824TIP3   OH250348   5.569   9.044   5.344
16824TIP3    H150349   5.607   9.116   5.294
16824TIP3    H250350   5.642   9.008   5.394
16825TIP3   OH250351   5.217   8.940   4.728
16825TIP3    H150352   5.132   8.946   4.773
16825TIP3    H250353   5.251   9.030   4.729
16826TIP3   OH250354   5.958   8.676   5.304
16826TIP3    H150355   5.946   8.677   5.399
16826TIP3    H250356   6.037   8.624   5.290
16827TIP3   OH250357   5.929   8.568   4.186
16827TIP3    H150358   5.981   8.545   4.263
16827TIP3    H250359   5.840   8.544   4.210
16828TIP3   OH250360   6.204   9.210   5.350
16828TIP3    H150361   6.127   9.154   5.347
16828TIP3    H250362   6.189   9.275   5.281
16829TIP3   OH250363   6.270   9.048   4.006
16829TIP3    H150364   6.311   9.115   3.951
16829TIP3    H250365   6.191   9.090   4.040
16830TIP3   OH250366   5.289   7.821   5.873
16830TIP3    H150367   5.194   7.826   5.884
16830TIP3    H250368   5.318   7.761   5.942
16831TIP3   OH250369   6.092   8.500   4.400
16831TIP3    H150370   6.078   8.438   4.473
16831TIP3    H250371   6.187   8.502   4.388
16832TIP3   OH250372   5.007   8.906   5.504
16832TIP3    H150373   5.058   8.830   5.534
16832TIP3    H250374   5.033   8.976   5.564
16833TIP3   OH250375   5.298   8.549   4.186
16833TIP3    H150376   5.309   8.460   4.154
16833TIP3    H250377   5.278   8.539   4.279
16834TIP3   OH250378   5.243   8.557   4.458
16834TIP3    H150379   5.312   8.528   4.517
16834TIP3    H250380   5.246   8.653   4.464
16835TIP3   OH250381   4.977   8.252   4.660
16835TIP3    H150382   4.912   8.292   4.718
16835TIP3    H250383   4.993   8.318   4.592
16836TIP3   OH250384   6.127   7.884   5.553
16836TIP3    H150385   6.206   7.922   5.592
16836TIP3    H250386   6.110   7.805   5.605
16837TIP3   OH250387   6.006   7.639   4.716
16837TIP3    H150388   5.991   7.661   4.624
16837TIP3    H250389   6.044   7.719   4.753
16838TIP3   OH250390   5.506   8.755   4.406
16838TIP3    H150391   5.421   8.780   4.443
16838TIP3    H250392   5.524   8.822   4.340
16839TIP3   OH250393   5.698   7.818   4.821
16839TIP3    H150394   5.761   7.888   4.802
16839TIP3    H250395   5.700   7.809   4.916
16840TIP3   OH250396   5.967   8.136   5.628
16840TIP3    H150397   5.985   8.190   5.705
16840TIP3    H250398   6.020   8.057   5.642
16841TIP3   OH250399   5.841   7.547   4.922
16841TIP3    H150400   5.834   7.621   4.983
16841TIP3    H250401   5.900   7.579   4.853
16842TIP3   OH250402   5.250   8.831   4.473
16842TIP3    H150403   5.221   8.897   4.410
16842TIP3    H250404   5.235   8.871   4.559
16843TIP3   OH250405   5.354   7.543   4.712
16843TIP3    H150406   5.348   7.632   4.748
16843TIP3    H250407   5.446   7.520   4.718
16844TIP3   OH250408   6.606   8.035   5.605
16844TIP3    H150409   6.511   8.036   5.617
16844TIP3    H250410   6.619   7.991   5.521
16845TIP3   OH250411   6.257   8.229   4.996
16845TIP3    H150412   6.180   8.173   5.009
16845TIP3    H250413   6.328   8.184   5.042
16846TIP3   OH250414   4.971   8.460   4.464
16846TIP3    H150415   5.033   8.532   4.477
16846TIP3    H250416   5.012   8.404   4.399
16847TIP3   OH250417   4.914   7.736   4.599
16847TIP3    H150418   4.913   7.832   4.594
16847TIP3    H250419   4.832   7.709   4.557
16848TIP3   OH250420   6.228   9.187   4.943
16848TIP3    H150421   6.182   9.231   4.871
16848TIP3    H250422   6.321   9.200   4.924
16849TIP3   OH250423   5.301   7.453   5.472
16849TIP3    H150424   5.271   7.422   5.387
16849TIP3    H250425   5.290   7.377   5.530
16850TIP3   OH250426   4.840   8.675   4.854
16850TIP3    H150427   4.769   8.703   4.911
16850TIP3    H250428   4.818   8.711   4.768
16851TIP3   OH250429   4.998   9.211   5.926
16851TIP3    H150430   5.082   9.214   5.972
16851TIP3    H250431   4.975   9.118   5.923
16852TIP3   OH250432   5.479   9.179   5.968
16852TIP3    H150433   5.573   9.163   5.978
16852TIP3    H250434   5.453   9.122   5.895
16853TIP3   OH250435   5.461   8.753   4.100
16853TIP3    H150436   5.405   8.685   4.136
16853TIP3    H250437   5.535   8.705   4.063
16854TIP3   OH250438   6.120   9.083   5.702
16854TIP3    H150439   6.109   9.016   5.770
16854TIP3    H250440   6.195   9.135   5.733
16855TIP3   OH250441   5.900   8.795   4.009
16855TIP3    H150442   5.941   8.732   4.069
16855TIP3    H250443   5.960   8.800   3.935
16856TIP3   OH250444   5.126   8.619   6.124
16856TIP3    H150445   5.144   8.525   6.130
16856TIP3    H250446   5.040   8.624   6.082
16857TIP3   OH250447   5.106   8.271   4.317
16857TIP3    H150448   5.157   8.238   4.391
16857TIP3    H250449   5.169   8.278   4.245
16858TIP3   OH250450   5.735   8.704   5.897
16858TIP3    H150451   5.693   8.721   5.813
16858TIP3    H250452   5.766   8.613   5.891
16859TIP3   OH250453   5.616   8.469   4.126
16859TIP3    H150454   5.615   8.485   4.220
16859TIP3    H250455   5.614   8.374   4.118
16860TIP3   OH250456   6.228   8.714   5.503
16860TIP3    H150457   6.302   8.759   5.461
16860TIP3    H250458   6.155   8.775   5.494
16861TIP3   OH250459   5.247   8.354   6.108
16861TIP3    H150460   5.320   8.296   6.086
16861TIP3    H250461   5.270   8.388   6.195
16862TIP3   OH250462   5.314   8.173   4.542
16862TIP3    H150463   5.286   8.133   4.624
16862TIP3    H250464   5.349   8.100   4.490
16863TIP3   OH250465   5.581   8.242   5.768
16863TIP3    H150466   5.504   8.298   5.772
16863TIP3    H250467   5.629   8.272   5.691
16864TIP3   OH250468   5.413   7.968   4.379
16864TIP3    H150469   5.384   7.970   4.288
16864TIP3    H250470   5.509   7.974   4.374
16865TIP3   OH250471   6.098   8.640   5.903
16865TIP3    H150472   6.180   8.621   5.857
16865TIP3    H250473   6.095   8.575   5.973
16866TIP3   OH250474   6.239   8.302   4.037
16866TIP3    H150475   6.214   8.253   3.959
16866TIP3    H250476   6.208   8.391   4.022
16867TIP3   OH250477   5.704   8.027   5.893
16867TIP3    H150478   5.704   7.947   5.840
16867TIP3    H250479   5.662   8.093   5.838
16868TIP3   OH250480   5.706   7.814   5.699
16868TIP3    H150481   5.734   7.855   5.618
16868TIP3    H250482   5.614   7.791   5.684
16869TIP3   OH250483   5.735   8.351   5.574
16869TIP3    H150484   5.818   8.358   5.526
16869TIP3    H250485   5.678   8.416   5.532
16870TIP3   OH250486   6.320   8.315   5.959
16870TIP3    H150487   6.366   8.231   5.959
16870TIP3    H250488   6.384   8.378   5.927
16871TIP3   OH250489   6.359   8.570   5.689
16871TIP3    H150490   6.299   8.621   5.634
16871TIP3    H250491   6.445   8.588   5.652
16872TIP3   OH250492   5.582   8.138   6.124
16872TIP3    H150493   5.514   8.073   6.139
16872TIP3    H250494   5.617   8.116   6.038
16873TIP3   OH250495   5.835   7.579   5.768
16873TIP3    H150496   5.793   7.662   5.746
16873TIP3    H250497   5.767   7.513   5.756
16874TIP3   OH250498   5.963   8.081   5.987
16874TIP3    H150499   5.954   8.071   6.081
16874TIP3    H250500   5.876   8.058   5.952
16875TIP3   OH250501   6.205   8.030   5.842
16875TIP3    H150502   6.129   8.032   5.900
16875TIP3    H250503   6.277   8.000   5.897
16876TIP3   OH250504   6.434   7.973   5.998
16876TIP3    H150505   6.446   7.879   6.009
16876TIP3    H250506   6.431   8.008   6.087
16877TIP3   OH250507   5.423   7.918   6.178
16877TIP3    H150508   5.427   7.830   6.141
16877TIP3    H250509   5.458   7.908   6.267
16878TIP3   OH250510   5.932   7.587   6.025
16878TIP3    H150511   6.001   7.521   6.024
16878TIP3    H250512   5.893   7.583   5.938
16879TIP3   OH250513   5.999   7.803   6.183
16879TIP3    H150514   5.979   7.732   6.122
16879TIP3    H250515   5.923   7.861   6.177
16880TIP3   OH250516   5.221   9.032   4.283
16880TIP3    H150517   5.315   9.026   4.268
16880TIP3    H250518   5.188   9.079   4.206
16881TIP3   OH250519   4.702   8.412   4.500
16881TIP3    H150520   4.794   8.435   4.488
16881TIP3    H250521   4.694   8.325   4.461
16882TIP3   OH250522   4.614   9.023   4.916
16882TIP3    H150523   4.547   8.964   4.880
16882TIP3    H250524   4.659   8.970   4.982
16883TIP3   OH250525   4.751   8.878   5.104
16883TIP3    H150526   4.738   8.803   5.162
16883TIP3    H250527   4.801   8.940   5.157
16884TIP3   OH250528   9.754   0.031   4.903
16884TIP3    H150529   9.766   0.063   4.992
16884TIP3    H250530   9.781   0.104   4.847
16885TIP3   OH250531   9.774   0.054   5.182
16885TIP3    H150532   9.729  -0.031   5.180
16885TIP3    H250533   9.846   0.040   5.244
16886TIP3   OH250534   6.552   8.975   5.757
16886TIP3    H150535   6.480   8.981   5.820
16886TIP3    H250536   6.594   9.061   5.760
16887TIP3   OH250537   6.373   8.483   4.376
16887TIP3    H150538   6.437   8.549   4.347
16887TIP3    H250539   6.412   8.446   4.455
16888TIP3   OH250540   6.497   8.352   4.582
16888TIP3    H150541   6.432   8.312   4.640
16888TIP3    H250542   6.561   8.391   4.642
16889TIP3   OH250543   6.552   8.746   5.013
16889TIP3    H150544   6.604   8.682   4.965
16889TIP3    H250545   6.534   8.815   4.949
16890TIP3   OH250546   6.381   9.047   5.207
16890TIP3    H150547   6.314   9.089   5.261
16890TIP3    H250548   6.332   8.999   5.140
16891TIP3   OH250549   6.428   8.256   4.228
16891TIP3    H150550   6.363   8.264   4.159
16891TIP3    H250551   6.411   8.329   4.287
16892TIP3   OH250552   6.349   7.918   4.138
16892TIP3    H150553   6.278   7.977   4.113
16892TIP3    H250554   6.305   7.835   4.158
16893TIP3   OH250555   6.312   8.208   4.730
16893TIP3    H150556   6.317   8.112   4.726
16893TIP3    H250557   6.298   8.228   4.823
16894TIP3   OH250558   4.940   8.283   5.472
16894TIP3    H150559   4.935   8.254   5.381
16894TIP3    H250560   5.034   8.285   5.491
16895TIP3   OH250561   6.602   8.635   5.582
16895TIP3    H150562   6.672   8.570   5.575
16895TIP3    H250563   6.629   8.705   5.524
16896TIP3   OH250564   6.787   8.438   5.602
16896TIP3    H150565   6.711   8.393   5.639
16896TIP3    H250566   6.860   8.377   5.614
16897TIP3   OH250567   6.241   7.679   4.184
16897TIP3    H150568   6.315   7.634   4.224
16897TIP3    H250569   6.168   7.618   4.192
16898TIP3   OH250570   6.309   7.922   4.624
16898TIP3    H150571   6.342   7.834   4.641
16898TIP3    H250572   6.371   7.960   4.563
16899TIP3   OH250573   6.472   8.103   5.118
16899TIP3    H150574   6.555   8.127   5.076
16899TIP3    H250575   6.480   8.136   5.207
16900TIP3   OH250576   6.536   8.246   5.349
16900TIP3    H150577   6.460   8.277   5.398
16900TIP3    H250578   6.569   8.325   5.305
16901TIP3   OH250579   5.157   7.970   6.151
16901TIP3    H150580   5.252   7.965   6.149
16901TIP3    H250581   5.130   7.887   6.190
16902TIP3   OH250582   7.002   7.833   5.906
16902TIP3    H150583   7.056   7.769   5.860
16902TIP3    H250584   6.967   7.889   5.837
16903TIP3   OH250585   6.420   7.673   4.659
16903TIP3    H150586   6.465   7.661   4.742
16903TIP3    H250587   6.357   7.601   4.655
16904TIP3   OH250588   5.119   7.662   5.479
16904TIP3    H150589   5.178   7.587   5.489
16904TIP3    H250590   5.178   7.738   5.473
16905TIP3   OH250591   4.921   7.938   5.551
16905TIP3    H150592   4.968   7.929   5.468
16905TIP3    H250593   4.948   8.023   5.585
16906TIP3   OH250594   6.859   7.971   5.718
16906TIP3    H150595   6.776   8.015   5.737
16906TIP3    H250596   6.836   7.902   5.656
16907TIP3   OH250597   6.504   7.612   4.276
16907TIP3    H150598   6.519   7.528   4.232
16907TIP3    H250599   6.591   7.641   4.302
16908TIP3   OH250600   4.902   7.445   5.055
16908TIP3    H150601   4.810   7.438   5.080
16908TIP3    H250602   4.901   7.499   4.976
16909TIP3   OH250603   6.064   9.142   4.558
16909TIP3    H150604   6.112   9.129   4.477
16909TIP3    H250605   6.112   9.213   4.603
16910TIP3   OH250606   5.122   7.521   5.868
16910TIP3    H150607   5.074   7.514   5.951
16910TIP3    H250608   5.058   7.558   5.807
16911TIP3   OH250609   5.162   8.946   5.946
16911TIP3    H150610   5.072   8.919   5.927
16911TIP3    H250611   5.173   8.929   6.039
16912TIP3   OH250612   5.341   8.981   5.489
16912TIP3    H150613   5.290   9.053   5.454
16912TIP3    H250614   5.427   8.991   5.449
16913TIP3   OH250615   9.056  -0.014   5.630
16913TIP3    H150616   9.093  -0.015   5.718
16913TIP3    H250617   9.119   0.036   5.578
16914TIP3   OH250618   9.235   0.137   5.489
16914TIP3    H150619   9.304   0.084   5.448
16914TIP3    H250620   9.281   0.194   5.550
16915TIP3   OH250621   6.759   7.734   5.588
16915TIP3    H150622   6.669   7.730   5.555
16915TIP3    H250623   6.792   7.645   5.578
16916TIP3   OH250624   8.282  -0.002   5.516
16916TIP3    H150625   8.195   0.031   5.491
16916TIP3    H250626   8.295   0.032   5.604
16917TIP3   OH250627   5.251   9.215   5.372
16917TIP3    H150628   5.168   9.227   5.418
16917TIP3    H250629   5.235   9.249   5.284
16918TIP3   OH250630   8.946   0.007   5.170
16918TIP3    H150631   8.877   0.025   5.105
16918TIP3    H250632   8.959   0.092   5.213
16919TIP3   OH250633   5.947   9.184   5.219
16919TIP3    H150634   5.853   9.199   5.203
16919TIP3    H250635   5.990   9.262   5.182
16920TIP3   OH250636   9.425   0.138   5.137
16920TIP3    H150637   9.409   0.221   5.092
16920TIP3    H250638   9.446   0.077   5.066
16921TIP3   OH250639   4.932   9.029   5.262
16921TIP3    H150640   4.954   9.006   5.352
16921TIP3    H250641   5.000   8.987   5.209
16922TIP3   OH250642   5.124   8.901   5.117
16922TIP3    H150643   5.137   8.819   5.165
16922TIP3    H250644   5.212   8.939   5.113
16923TIP3   OH250645   5.390   8.995   5.121
16923TIP3    H150646   5.419   8.905   5.107
16923TIP3    H250647   5.430   9.021   5.204
16924TIP3   OH250648   5.964   7.652   5.205
16924TIP3    H150649   5.921   7.586   5.260
16924TIP3    H250650   6.036   7.604   5.163
16925TIP3   OH250651   6.486   7.537   5.111
16925TIP3    H150652   6.522   7.586   5.037
16925TIP3    H250653   6.392   7.550   5.105
16926TIP3   OH250654   6.584   7.638   4.875
16926TIP3    H150655   6.655   7.582   4.841
16926TIP3    H250656   6.617   7.727   4.863
16927TIP3   OH250657   5.212   7.359   5.225
16927TIP3    H150658   5.120   7.331   5.226
16927TIP3    H250659   5.262   7.278   5.221
16928TIP3   OH250660   4.999   7.233   4.872
16928TIP3    H150661   5.029   7.288   4.800
16928TIP3    H250662   4.971   7.295   4.939
16929TIP3   OH250663   5.657   7.396   5.104
16929TIP3    H150664   5.715   7.443   5.044
16929TIP3    H250665   5.676   7.433   5.190
16930TIP3   OH250666   6.206   7.538   5.087
16930TIP3    H150667   6.202   7.501   4.999
16930TIP3    H250668   6.191   7.464   5.145
16931TIP3   OH250669   6.232   7.463   4.652
16931TIP3    H150670   6.147   7.505   4.661
16931TIP3    H250671   6.222   7.379   4.697
16932TIP3   OH250672   4.716   8.801   4.651
16932TIP3    H150673   4.634   8.765   4.617
16932TIP3    H250674   4.706   8.896   4.641
16933TIP3   OH250675   5.118   7.392   4.635
16933TIP3    H150676   5.163   7.328   4.579
16933TIP3    H250677   5.188   7.445   4.671
16934TIP3   OH250678   5.631   7.568   4.736
16934TIP3    H150679   5.687   7.516   4.794
16934TIP3    H250680   5.651   7.659   4.759
16935TIP3   OH250681   5.489   8.992   4.231
16935TIP3    H150682   5.576   9.016   4.199
16935TIP3    H250683   5.464   8.917   4.176
16936TIP3   OH250684   6.206   9.107   4.325
16936TIP3    H150685   6.200   9.012   4.314
16936TIP3    H250686   6.163   9.143   4.247
16937TIP3   OH250687   5.423   7.642   6.118
16937TIP3    H150688   5.385   7.573   6.173
16937TIP3    H250689   5.516   7.644   6.142
16938TIP3   OH250690   5.672   7.638   6.236
16938TIP3    H150691   5.755   7.614   6.195
16938TIP3    H250692   5.656   7.571   6.302
16939TIP3   OH250693   4.795   8.828   4.293
16939TIP3    H150694   4.794   8.850   4.386
16939TIP3    H250695   4.880   8.787   4.278
16940TIP3   OH250696   6.495   7.702   6.023
16940TIP3    H150697   6.511   7.670   6.112
16940TIP3    H250698   6.581   7.695   5.980
16941TIP3   OH250699   9.701   0.017   5.510
16941TIP3    H150700   9.623  -0.019   5.466
16941TIP3    H250701   9.683   0.110   5.519
16942TIP3   OH250702   7.698   8.627   4.281
16942TIP3    H150703   7.670   8.716   4.261
16942TIP3    H250704   7.628   8.572   4.245
16943TIP3   OH250705   7.696   8.626   4.664
16943TIP3    H150706   7.729   8.597   4.749
16943TIP3    H250707   7.658   8.548   4.624
16944TIP3   OH250708   7.000   8.521   5.027
16944TIP3    H150709   7.025   8.453   5.088
16944TIP3    H250710   7.076   8.579   5.022
16945TIP3   OH250711   7.948   8.924   4.344
16945TIP3    H150712   7.926   8.856   4.407
16945TIP3    H250713   7.967   9.001   4.398
16946TIP3   OH250714   6.677   8.134   4.537
16946TIP3    H150715   6.630   8.216   4.553
16946TIP3    H250716   6.611   8.077   4.496
16947TIP3   OH250717   6.738   8.419   4.707
16947TIP3    H150718   6.784   8.345   4.746
16947TIP3    H250719   6.795   8.449   4.637
16948TIP3   OH250720   1.052   0.147   4.357
16948TIP3    H150721   1.099   0.079   4.308
16948TIP3    H250722   1.057   0.119   4.448
16949TIP3   OH250723   7.500   8.851   4.707
16949TIP3    H150724   7.533   8.772   4.665
16949TIP3    H250725   7.579   8.899   4.733
16950TIP3   OH250726   8.508   8.174   4.709
16950TIP3    H150727   8.538   8.251   4.756
16950TIP3    H250728   8.535   8.188   4.618
16951TIP3   OH250729   7.913   8.353   4.740
16951TIP3    H150730   7.951   8.269   4.764
16951TIP3    H250731   7.879   8.339   4.651
16952TIP3   OH250732   7.245   8.012   4.705
16952TIP3    H150733   7.228   8.085   4.645
16952TIP3    H250734   7.199   7.938   4.665
16953TIP3   OH250735   7.945   8.106   4.333
16953TIP3    H150736   8.017   8.088   4.394
16953TIP3    H250737   7.989   8.139   4.255
16954TIP3   OH250738   6.884   8.214   4.813
16954TIP3    H150739   6.963   8.197   4.864
16954TIP3    H250740   6.894   8.160   4.735
16955TIP3   OH250741   7.323   8.412   4.606
16955TIP3    H150742   7.415   8.389   4.620
16955TIP3    H250743   7.283   8.331   4.575
16956TIP3   OH250744   8.580   8.384   4.873
16956TIP3    H150745   8.495   8.427   4.858
16956TIP3    H250746   8.594   8.390   4.967
16957TIP3   OH250747   7.242   7.997   5.141
16957TIP3    H150748   7.184   8.033   5.074
16957TIP3    H250749   7.195   8.011   5.224
16958TIP3   OH250750   7.586   8.846   4.154
16958TIP3    H150751   7.556   8.825   4.065
16958TIP3    H250752   7.546   8.931   4.174
16959TIP3   OH250753   7.351   8.773   4.937
16959TIP3    H150754   7.289   8.834   4.977
16959TIP3    H250755   7.397   8.824   4.871
16960TIP3   OH250756   8.161   8.105   4.502
16960TIP3    H150757   8.140   8.053   4.580
16960TIP3    H250758   8.203   8.184   4.536
16961TIP3   OH250759   7.117   8.112   4.925
16961TIP3    H150760   7.176   8.183   4.951
16961TIP3    H250761   7.162   8.069   4.852
16962TIP3   OH250762   7.174   8.967   5.032
16962TIP3    H150763   7.154   9.056   5.002
16962TIP3    H250764   7.101   8.944   5.089
16963TIP3   OH250765   6.573   8.655   4.269
16963TIP3    H150766   6.532   8.678   4.186
16963TIP3    H250767   6.602   8.739   4.306
16964TIP3   OH250768   8.011   9.171   4.513
16964TIP3    H150769   7.926   9.157   4.554
16964TIP3    H250770   8.002   9.253   4.466
16965TIP3   OH250771   8.302   8.077   4.876
16965TIP3    H150772   8.214   8.100   4.845
16965TIP3    H250773   8.359   8.104   4.804
16966TIP3   OH250774   7.599   7.714   4.856
16966TIP3    H150775   7.590   7.620   4.873
16966TIP3    H250776   7.524   7.753   4.901
16967TIP3   OH250777   7.717   9.216   4.184
16967TIP3    H150778   7.761   9.133   4.164
16967TIP3    H250779   7.774   9.283   4.146
16968TIP3   OH250780   7.854   8.999   4.094
16968TIP3    H150781   7.832   8.923   4.041
16968TIP3    H250782   7.892   8.963   4.174
16969TIP3   OH250783   8.237   9.086   4.850
16969TIP3    H150784   8.224   9.007   4.797
16969TIP3    H250785   8.219   9.159   4.791
16970TIP3   OH250786   7.531   8.481   4.110
16970TIP3    H150787   7.453   8.528   4.083
16970TIP3    H250788   7.580   8.468   4.029
16971TIP3   OH250789   7.490   8.257   3.829
16971TIP3    H150790   7.558   8.310   3.871
16971TIP3    H250791   7.539   8.190   3.782
16972TIP3   OH250792   8.433   8.724   4.697
16972TIP3    H150793   8.352   8.772   4.708
16972TIP3    H250794   8.457   8.737   4.605
16973TIP3   OH250795   7.880   8.562   4.087
16973TIP3    H150796   7.824   8.585   4.161
16973TIP3    H250797   7.962   8.534   4.127
16974TIP3   OH250798   8.112   8.603   4.993
16974TIP3    H150799   8.110   8.682   5.046
16974TIP3    H250800   8.027   8.602   4.949
16975TIP3   OH250801   7.116   8.562   4.494
16975TIP3    H150802   7.069   8.506   4.433
16975TIP3    H250803   7.189   8.508   4.526
16976TIP3   OH250804   7.224   8.934   4.605
16976TIP3    H150805   7.248   8.844   4.582
16976TIP3    H250806   7.295   8.963   4.663
16977TIP3   OH250807   7.249   8.529   4.853
16977TIP3    H150808   7.282   8.506   4.766
16977TIP3    H250809   7.291   8.612   4.874
16978TIP3   OH250810   7.773   9.166   4.633
16978TIP3    H150811   7.759   9.246   4.684
16978TIP3    H250812   7.758   9.095   4.695
16979TIP3   OH250813   7.381   9.087   5.176
16979TIP3    H150814   7.326   9.148   5.225
16979TIP3    H250815   7.319   9.031   5.131
16980TIP3   OH250816   7.715   8.422   3.911
16980TIP3    H150817   7.775   8.475   3.963
16980TIP3    H250818   7.740   8.439   3.820
16981TIP3   OH250819   7.135   8.647   5.276
16981TIP3    H150820   7.143   8.731   5.323
16981TIP3    H250821   7.044   8.622   5.288
16982TIP3   OH250822   7.457   9.105   4.195
16982TIP3    H150823   7.539   9.153   4.203
16982TIP3    H250824   7.400   9.161   4.143
16983TIP3   OH250825   0.643   0.013   5.265
16983TIP3    H150826   0.606   0.014   5.176
16983TIP3    H250827   0.568  -0.006   5.322
16984TIP3   OH250828   8.235   7.661   3.959
16984TIP3    H150829   8.154   7.677   4.007
16984TIP3    H250830   8.248   7.740   3.907
16985TIP3   OH250831   6.972   8.404   4.310
16985TIP3    H150832   6.911   8.447   4.250
16985TIP3    H250833   6.938   8.315   4.320
16986TIP3   OH250834   8.033   9.028   3.506
16986TIP3    H150835   8.032   9.121   3.483
16986TIP3    H250836   8.122   9.000   3.488
16987TIP3   OH250837   6.758   8.783   5.211
16987TIP3    H150838   6.692   8.760   5.146
16987TIP3    H250839   6.794   8.698   5.238
16988TIP3   OH250840   6.606   8.985   4.843
16988TIP3    H150841   6.699   8.979   4.866
16988TIP3    H250842   6.574   9.061   4.892
16989TIP3   OH250843   1.929   0.177   4.890
16989TIP3    H150844   1.940   0.085   4.912
16989TIP3    H250845   1.852   0.205   4.940
16990TIP3   OH250846   7.579   9.216   5.034
16990TIP3    H150847   7.583   9.306   5.066
16990TIP3    H250848   7.512   9.174   5.088
16991TIP3   OH250849   0.808   0.105   3.987
16991TIP3    H150850   0.765   0.086   3.904
16991TIP3    H250851   0.777   0.193   4.011
16992TIP3   OH250852   6.782   9.188   4.377
16992TIP3    H150853   6.755   9.217   4.464
16992TIP3    H250854   6.726   9.112   4.358
16993TIP3   OH250855   7.546   9.243   3.628
16993TIP3    H150856   7.602   9.176   3.589
16993TIP3    H250857   7.578   9.253   3.717
16994TIP3   OH250858   1.059   0.050   3.900
16994TIP3    H150859   0.972   0.063   3.939
16994TIP3    H250860   1.112   0.012   3.970
16995TIP3   OH250861   8.368   8.563   5.169
16995TIP3    H150862   8.283   8.572   5.125
16995TIP3    H250863   8.386   8.469   5.167
16996TIP3   OH250864   6.961   8.966   5.200
16996TIP3    H150865   7.011   8.956   5.281
16996TIP3    H250866   6.889   8.903   5.207
16997TIP3   OH250867   7.358   7.793   4.983
16997TIP3    H150868   7.273   7.759   4.957
16997TIP3    H250869   7.338   7.873   5.031
16998TIP3   OH250870   7.895   7.906   5.180
16998TIP3    H150871   7.963   7.880   5.242
16998TIP3    H250872   7.813   7.886   5.224
16999TIP3   OH250873   8.137   8.339   5.101
16999TIP3    H150874   8.088   8.330   5.183
16999TIP3    H250875   8.108   8.423   5.065
17000TIP3   OH250876   7.805   8.479   3.664
17000TIP3    H150877   7.759   8.452   3.584
17000TIP3    H250878   7.885   8.519   3.633
17001TIP3   OH250879   7.507   7.835   3.958
17001TIP3    H150880   7.474   7.834   4.048
17001TIP3    H250881   7.469   7.757   3.918
17002TIP3   OH250882   7.292   8.308   5.004
17002TIP3    H150883   7.244   8.326   5.085
17002TIP3    H250884   7.278   8.386   4.950
17003TIP3   OH250885   7.177   8.193   4.515
17003TIP3    H150886   7.086   8.168   4.535
17003TIP3    H250887   7.193   8.155   4.428
17004TIP3   OH250888   7.668   8.280   4.243
17004TIP3    H150889   7.616   8.349   4.203
17004TIP3    H250890   7.724   8.248   4.172
17005TIP3   OH250891   7.844   8.556   5.332
17005TIP3    H150892   7.819   8.486   5.392
17005TIP3    H250893   7.936   8.574   5.353
17006TIP3   OH250894   7.825   8.308   4.479
17006TIP3    H150895   7.763   8.338   4.412
17006TIP3    H250896   7.861   8.227   4.443
17007TIP3   OH250897   7.111   8.334   5.214
17007TIP3    H150898   7.140   8.397   5.280
17007TIP3    H250899   7.101   8.252   5.262
17008TIP3   OH250900   7.164   7.815   3.922
17008TIP3    H150901   7.158   7.812   4.018
17008TIP3    H250902   7.085   7.861   3.894
17009TIP3   OH250903   6.713   7.858   4.785
17009TIP3    H150904   6.776   7.892   4.848
17009TIP3    H250905   6.766   7.818   4.716
17010TIP3   OH250906   7.838   8.551   4.907
17010TIP3    H150907   7.870   8.483   4.848
17010TIP3    H250908   7.809   8.504   4.985
17011TIP3   OH250909   7.505   8.020   4.582
17011TIP3    H150910   7.423   8.013   4.632
17011TIP3    H250911   7.574   8.011   4.648
17012TIP3   OH250912   6.941   8.070   4.587
17012TIP3    H150913   6.849   8.077   4.561
17012TIP3    H250914   6.965   7.980   4.565
17013TIP3   OH250915   7.209   8.069   4.272
17013TIP3    H150916   7.303   8.079   4.256
17013TIP3    H250917   7.168   8.090   4.188
17014TIP3   OH250918   7.995   8.090   4.780
17014TIP3    H150919   7.965   8.103   4.870
17014TIP3    H250920   7.933   8.028   4.743
17015TIP3   OH250921   7.046   8.099   4.042
17015TIP3    H150922   6.983   8.054   3.985
17015TIP3    H250923   7.107   8.141   3.981
17016TIP3   OH250924   1.631   0.537   4.990
17016TIP3    H150925   1.628   0.552   4.896
17016TIP3    H250926   1.682   0.611   5.024
17017TIP3   OH250927   7.125   8.892   5.422
17017TIP3    H150928   7.205   8.920   5.468
17017TIP3    H250929   7.058   8.889   5.491
17018TIP3   OH250930   7.589   8.344   4.678
17018TIP3    H150931   7.656   8.301   4.625
17018TIP3    H250932   7.595   8.302   4.763
17019TIP3   OH250933   7.108   7.829   4.553
17019TIP3    H150934   7.078   7.751   4.600
17019TIP3    H250935   7.167   7.795   4.486
17020TIP3   OH250936   7.565   8.242   4.964
17020TIP3    H150937   7.476   8.275   4.980
17020TIP3    H250938   7.621   8.299   5.016
17021TIP3   OH250939   7.296   8.630   4.056
17021TIP3    H150940   7.228   8.565   4.044
17021TIP3    H250941   7.285   8.661   4.146
17022TIP3   OH250942   8.200   8.865   4.690
17022TIP3    H150943   8.221   8.914   4.611
17022TIP3    H250944   8.116   8.822   4.671
17023TIP3   OH250945   7.759   7.937   3.935
17023TIP3    H150946   7.666   7.918   3.932
17023TIP3    H250947   7.766   8.031   3.920
17024TIP3   OH250948   7.702   8.950   5.059
17024TIP3    H150949   7.724   8.923   5.148
17024TIP3    H250950   7.662   9.036   5.069
17025TIP3   OH250951   7.832   8.199   4.035
17025TIP3    H150952   7.927   8.199   4.035
17025TIP3    H250953   7.808   8.261   3.967
17026TIP3   OH250954   6.994   8.650   4.731
17026TIP3    H150955   7.034   8.617   4.650
17026TIP3    H250956   7.029   8.594   4.800
17027TIP3   OH250957   7.447   8.783   3.884
17027TIP3    H150958   7.401   8.867   3.887
17027TIP3    H250959   7.395   8.725   3.940
17028TIP3   OH250960   6.873   8.573   5.351
17028TIP3    H150961   6.895   8.561   5.443
17028TIP3    H250962   6.805   8.507   5.334
17029TIP3   OH250963   7.601   8.686   5.367
17029TIP3    H150964   7.540   8.627   5.322
17029TIP3    H250965   7.688   8.654   5.343
17030TIP3   OH250966   7.860   9.209   4.952
17030TIP3    H150967   7.765   9.205   4.963
17030TIP3    H250968   7.890   9.259   5.028
17031TIP3   OH250969   8.271   8.277   3.854
17031TIP3    H150970   8.212   8.232   3.793
17031TIP3    H250971   8.272   8.368   3.824
17032TIP3   OH250972   8.484   9.133   4.941
17032TIP3    H150973   8.389   9.129   4.935
17032TIP3    H250974   8.515   9.107   4.854
17033TIP3   OH250975   7.975   9.094   3.771
17033TIP3    H150976   7.943   9.023   3.827
17033TIP3    H250977   7.983   9.054   3.684
17034TIP3   OH250978   7.967   8.726   4.609
17034TIP3    H150979   7.875   8.704   4.624
17034TIP3    H250980   8.002   8.649   4.564
17035TIP3   OH250981   6.649   8.264   4.060
17035TIP3    H150982   6.704   8.339   4.080
17035TIP3    H250983   6.579   8.267   4.124
17036TIP3   OH250984   7.239   8.720   4.303
17036TIP3    H150985   7.225   8.812   4.323
17036TIP3    H250986   7.196   8.673   4.374
17037TIP3   OH250987   0.833   0.057   4.825
17037TIP3    H150988   0.868   0.133   4.779
17037TIP3    H250989   0.906   0.027   4.879
17038TIP3   OH250990   7.019   9.194   4.223
17038TIP3    H150991   6.933   9.200   4.263
17038TIP3    H250992   7.052   9.284   4.223
17039TIP3   OH250993   7.752   8.933   4.791
17039TIP3    H150994   7.741   8.933   4.886
17039TIP3    H250995   7.830   8.879   4.776
17040TIP3   OH250996   7.726   8.827   3.675
17040TIP3    H150997   7.779   8.804   3.751
17040TIP3    H250998   7.638   8.796   3.697
17041TIP3   OH250999   1.468   0.229   4.837
17041TIP3    H151000   1.391   0.172   4.833
17041TIP3    H251001   1.454   0.294   4.768
17042TIP3   OH251002   1.514   0.062   3.481
17042TIP3    H151003   1.551   0.119   3.414
17042TIP3    H251004   1.441   0.112   3.518
17043TIP3   OH251005   7.085   8.078   5.359
17043TIP3    H151006   6.990   8.083   5.371
17043TIP3    H251007   7.116   8.019   5.427
17044TIP3   OH251008   7.887   8.768   3.897
17044TIP3    H151009   7.873   8.697   3.959
17044TIP3    H251010   7.980   8.762   3.875
17045TIP3   OH251011   6.814   9.153   4.994
17045TIP3    H151012   6.856   9.087   5.050
17045TIP3    H251013   6.821   9.235   5.043
17046TIP3   OH251014   7.091   8.806   3.672
17046TIP3    H151015   7.109   8.718   3.640
17046TIP3    H251016   7.071   8.794   3.765
17047TIP3   OH251017   7.039   8.813   3.946
17047TIP3    H151018   7.117   8.784   3.994
17047TIP3    H251019   7.041   8.908   3.951
17048TIP3   OH251020   6.773   8.507   4.146
17048TIP3    H151021   6.709   8.550   4.203
17048TIP3    H251022   6.791   8.572   4.077
17049TIP3   OH251023   7.924   8.141   5.040
17049TIP3    H151024   8.001   8.179   5.081
17049TIP3    H251025   7.906   8.062   5.091
17050TIP3   OH251026   7.799   7.898   4.205
17050TIP3    H151027   7.784   7.914   4.112
17050TIP3    H251028   7.837   7.979   4.238
17051TIP3   OH251029   7.302   9.012   3.895
17051TIP3    H151030   7.216   9.039   3.929
17051TIP3    H251031   7.322   9.077   3.829
17052TIP3   OH251032   7.491   8.075   4.308
17052TIP3    H151033   7.555   8.142   4.286
17052TIP3    H251034   7.498   8.067   4.403
17053TIP3   OH251035   7.764   8.393   5.116
17053TIP3    H151036   7.781   8.446   5.193
17053TIP3    H251037   7.815   8.313   5.129
17054TIP3   OH251038   7.638   7.804   4.409
17054TIP3    H151039   7.631   7.878   4.469
17054TIP3    H251040   7.696   7.835   4.339
17055TIP3   OH251041   7.045   9.087   3.961
17055TIP3    H151042   7.017   9.153   3.898
17055TIP3    H251043   7.033   9.129   4.046
17056TIP3   OH251044   7.148   7.801   4.200
17056TIP3    H151045   7.147   7.890   4.235
17056TIP3    H251046   7.239   7.773   4.205
17057TIP3   OH251047   8.400   8.292   5.085
17057TIP3    H151048   8.307   8.296   5.104
17057TIP3    H251049   8.407   8.237   5.007
17058TIP3   OH251050   8.052   8.484   4.483
17058TIP3    H151051   7.974   8.430   4.493
17058TIP3    H251052   8.120   8.438   4.531
17059TIP3   OH251053   6.767   8.716   3.951
17059TIP3    H151054   6.828   8.789   3.962
17059TIP3    H251055   6.808   8.660   3.886
17060TIP3   OH251056   1.475   0.199   4.429
17060TIP3    H151057   1.428   0.244   4.359
17060TIP3    H251058   1.567   0.209   4.406
17061TIP3   OH251059   7.095   7.710   4.959
17061TIP3    H151060   7.066   7.676   4.875
17061TIP3    H251061   7.088   7.635   5.019
17062TIP3   OH251062   6.638   8.932   4.343
17062TIP3    H151063   6.565   8.960   4.398
17062TIP3    H251064   6.616   8.965   4.256
17063TIP3   OH251065   0.261   0.229   5.411
17063TIP3    H151066   0.344   0.233   5.459
17063TIP3    H251067   0.237   0.136   5.411
17064TIP3   OH251068   0.746   0.196   5.453
17064TIP3    H151069   0.838   0.173   5.464
17064TIP3    H251070   0.716   0.140   5.381
17065TIP3   OH251071   7.257   9.008   3.586
17065TIP3    H151072   7.201   8.940   3.622
17065TIP3    H251073   7.332   8.961   3.550
17066TIP3   OH251074   1.385   0.100   5.185
17066TIP3    H151075   1.370   0.031   5.250
17066TIP3    H251076   1.455   0.153   5.222
17067TIP3   OH251077   7.693   9.052   3.495
17067TIP3    H151078   7.736   8.988   3.551
17067TIP3    H251079   7.745   9.053   3.415
17068TIP3   OH251080   6.923   8.875   5.610
17068TIP3    H151081   6.941   8.782   5.619
17068TIP3    H251082   6.836   8.880   5.569
17069TIP3   OH251083   6.902   8.527   3.805
17069TIP3    H151084   6.955   8.495   3.878
17069TIP3    H251085   6.963   8.532   3.731
17070TIP3   OH251086   7.533   8.961   5.383
17070TIP3    H151087   7.490   8.975   5.299
17070TIP3    H251088   7.564   8.870   5.380
17071TIP3   OH251089   7.407   8.723   3.615
17071TIP3    H151090   7.413   8.738   3.709
17071TIP3    H251091   7.415   8.628   3.606
17072TIP3   OH251092   8.024   8.970   4.990
17072TIP3    H151093   8.097   9.016   4.948
17072TIP3    H251094   7.950   9.030   4.981
17073TIP3   OH251095   7.046   8.610   5.594
17073TIP3    H151096   7.118   8.550   5.575
17073TIP3    H251097   7.066   8.645   5.681
17074TIP3   OH251098   7.109   8.429   4.027
17074TIP3    H151099   7.085   8.386   4.109
17074TIP3    H251100   7.147   8.360   3.973
17075TIP3   OH251101   7.376   8.497   5.253
17075TIP3    H151102   7.300   8.555   5.258
17075TIP3    H251103   7.426   8.528   5.178
17076TIP3   OH251104   7.212   8.226   3.868
17076TIP3    H151105   7.186   8.222   3.776
17076TIP3    H251106   7.308   8.227   3.866
17077TIP3   OH251107   7.895   8.895   5.389
17077TIP3    H151108   7.976   8.871   5.344
17077TIP3    H251109   7.888   8.833   5.462
17078TIP3   OH251110   8.033   8.557   3.524
17078TIP3    H151111   8.008   8.505   3.448
17078TIP3    H251112   8.001   8.645   3.504
17079TIP3   OH251113   7.499   8.284   5.381
17079TIP3    H151114   7.501   8.204   5.328
17079TIP3    H251115   7.457   8.349   5.325
17080TIP3   OH251116   7.502   8.071   5.187
17080TIP3    H151117   7.530   8.110   5.104
17080TIP3    H251118   7.411   8.047   5.172
17081TIP3   OH251119   7.531   8.606   5.060
17081TIP3    H151120   7.614   8.611   5.013
17081TIP3    H251121   7.476   8.672   5.018
17082TIP3   OH251122   8.115   8.572   5.441
17082TIP3    H151123   8.157   8.490   5.467
17082TIP3    H251124   8.186   8.627   5.410
17083TIP3   OH251125   8.156   8.828   5.177
17083TIP3    H151126   8.095   8.878   5.122
17083TIP3    H251127   8.242   8.844   5.139
17084TIP3   OH251128   7.375   8.396   5.609
17084TIP3    H151129   7.308   8.330   5.627
17084TIP3    H251130   7.413   8.370   5.525
17085TIP3   OH251131   7.634   7.834   5.253
17085TIP3    H151132   7.587   7.916   5.233
17085TIP3    H251133   7.567   7.766   5.244
17086TIP3   OH251134   7.759   8.339   5.473
17086TIP3    H151135   7.756   8.328   5.568
17086TIP3    H251136   7.672   8.314   5.443
17087TIP3   OH251137   8.000   8.285   5.327
17087TIP3    H151138   7.926   8.288   5.387
17087TIP3    H251139   8.073   8.255   5.381
17088TIP3   OH251140   8.228   8.224   5.475
17088TIP3    H151141   8.241   8.131   5.496
17088TIP3    H251142   8.223   8.267   5.561
17089TIP3   OH251143   7.217   8.175   5.664
17089TIP3    H151144   7.223   8.087   5.628
17089TIP3    H251145   7.256   8.168   5.752
17090TIP3   OH251146   7.730   7.843   5.510
17090TIP3    H151147   7.797   7.774   5.509
17090TIP3    H251148   7.690   7.838   5.424
17091TIP3   OH251149   7.794   8.059   5.671
17091TIP3    H151150   7.774   7.989   5.609
17091TIP3    H251151   7.719   8.118   5.666
17092TIP3   OH251152   0.484   0.045   3.769
17092TIP3    H151153   0.579   0.043   3.755
17092TIP3    H251154   0.450   0.096   3.696
17093TIP3   OH251155   6.499   8.667   3.991
17093TIP3    H151156   6.590   8.693   3.977
17093TIP3    H251157   6.491   8.581   3.949
17094TIP3   OH251158   6.410   9.275   4.403
17094TIP3    H151159   6.342   9.218   4.365
17094TIP3    H251160   6.454   9.220   4.467
17095TIP3   OH251161   6.556   9.134   4.591
17095TIP3    H151162   6.532   9.059   4.646
17095TIP3    H251163   6.602   9.193   4.650
17096TIP3   OH251164   1.733   0.280   4.379
17096TIP3    H151165   1.745   0.313   4.468
17096TIP3    H251166   1.755   0.355   4.323
17097TIP3   OH251167   1.790   0.302   4.660
17097TIP3    H151168   1.735   0.223   4.658
17097TIP3    H251169   1.854   0.285   4.728
17098TIP3   OH251170   1.815  -0.001   5.242
17098TIP3    H151171   1.743  -0.003   5.305
17098TIP3    H251172   1.853   0.086   5.251
17099TIP3   OH251173   8.164   8.746   3.863
17099TIP3    H151174   8.232   8.807   3.832
17099TIP3    H251175   8.203   8.705   3.940
17100TIP3   OH251176   8.288   8.613   4.068
17100TIP3    H151177   8.219   8.560   4.108
17100TIP3    H251178   8.350   8.630   4.139
17101TIP3   OH251179   8.348   9.001   4.502
17101TIP3    H151180   8.384   8.938   4.439
17101TIP3    H251181   8.329   9.078   4.449
17102TIP3   OH251182   1.644   0.066   4.691
17102TIP3    H151183   1.578   0.108   4.746
17102TIP3    H251184   1.594   0.018   4.625
17103TIP3   OH251185   8.229   8.523   3.712
17103TIP3    H151186   8.162   8.518   3.644
17103TIP3    H251187   8.201   8.596   3.767
17104TIP3   OH251188   8.103   8.189   3.663
17104TIP3    H151189   8.052   8.231   3.594
17104TIP3    H251190   8.078   8.096   3.658
17105TIP3   OH251191   8.114   8.462   4.215
17105TIP3    H151192   8.110   8.367   4.203
17105TIP3    H251193   8.095   8.475   4.308
17106TIP3   OH251194   6.736   8.541   4.958
17106TIP3    H151195   6.732   8.511   4.867
17106TIP3    H251196   6.830   8.543   4.978
17107TIP3   OH251197   8.398   8.890   5.065
17107TIP3    H151198   8.468   8.825   5.060
17107TIP3    H251199   8.427   8.962   5.009
17108TIP3   OH251200   8.586   8.697   5.088
17108TIP3    H151201   8.509   8.652   5.123
17108TIP3    H251202   8.658   8.635   5.099
17109TIP3   OH251203   8.048   7.923   3.656
17109TIP3    H151204   8.115   7.889   3.715
17109TIP3    H251205   7.969   7.873   3.676
17110TIP3   OH251206   8.114   8.185   4.111
17110TIP3    H151207   8.145   8.096   4.125
17110TIP3    H251208   8.165   8.216   4.036
17111TIP3   OH251209   8.268   8.359   4.604
17111TIP3    H151210   8.347   8.390   4.560
17111TIP3    H251211   8.276   8.391   4.694
17112TIP3   OH251212   8.330   8.503   4.833
17112TIP3    H151213   8.255   8.531   4.886
17112TIP3    H251214   8.364   8.584   4.795
17113TIP3   OH251215   6.952   8.224   5.636
17113TIP3    H151216   7.047   8.221   5.636
17113TIP3    H251217   6.926   8.142   5.679
17114TIP3   OH251218   8.784   8.087   5.387
17114TIP3    H151219   8.844   8.023   5.349
17114TIP3    H251220   8.760   8.143   5.313
17115TIP3   OH251221   8.210   7.931   4.150
17115TIP3    H151222   8.257   7.912   4.232
17115TIP3    H251223   8.148   7.858   4.141
17116TIP3   OH251224   6.913   7.919   4.963
17116TIP3    H151225   6.971   7.843   4.976
17116TIP3    H251226   6.973   7.994   4.960
17117TIP3   OH251227   6.717   8.195   5.037
17117TIP3    H151228   6.765   8.188   4.955
17117TIP3    H251229   6.745   8.278   5.075
17118TIP3   OH251230   8.656   8.233   5.194
17118TIP3    H151231   8.574   8.273   5.223
17118TIP3    H251232   8.630   8.159   5.140
17119TIP3   OH251233   8.301   7.866   3.784
17119TIP3    H151234   8.331   7.795   3.727
17119TIP3    H251235   8.361   7.938   3.766
17120TIP3   OH251236   6.683   7.701   4.513
17120TIP3    H151237   6.607   7.685   4.569
17120TIP3    H251238   6.675   7.792   4.486
17121TIP3   OH251239   1.331   0.156   4.049
17121TIP3    H151240   1.373   0.141   3.964
17121TIP3    H251241   1.377   0.232   4.085
17122TIP3   OH251242   6.918   7.782   5.357
17122TIP3    H151243   6.870   7.770   5.438
17122TIP3    H251244   6.852   7.814   5.295
17123TIP3   OH251245   6.958   9.200   5.432
17123TIP3    H151246   6.867   9.176   5.415
17123TIP3    H251247   6.970   9.186   5.526
17124TIP3   OH251248   0.606  -0.005   4.971
17124TIP3    H151249   0.554   0.070   4.941
17124TIP3    H251250   0.692   0.009   4.933
17125TIP3   OH251251   1.052   0.241   5.118
17125TIP3    H151252   1.090   0.241   5.206
17125TIP3    H251253   1.113   0.292   5.065
17126TIP3   OH251254   1.230   0.392   4.977
17126TIP3    H151255   1.299   0.342   4.934
17126TIP3    H251256   1.276   0.452   5.036
17127TIP3   OH251257   8.555   7.991   5.074
17127TIP3    H151258   8.464   7.985   5.045
17127TIP3    H251259   8.589   7.902   5.066
17128TIP3   OH251260   0.276   0.250   5.005
17128TIP3    H151261   0.190   0.282   4.980
17128TIP3    H251262   0.293   0.291   5.090
17129TIP3   OH251263   0.507   0.222   4.851
17129TIP3    H151264   0.430   0.242   4.904
17129TIP3    H251265   0.495   0.273   4.771
17130TIP3   OH251266   0.941   0.263   4.658
17130TIP3    H151267   0.877   0.284   4.590
17130TIP3    H251268   0.957   0.347   4.702
17131TIP3   OH251269   1.209   0.203   4.706
17131TIP3    H151270   1.115   0.216   4.692
17131TIP3    H251271   1.251   0.279   4.667
17132TIP3   OH251272   1.423   0.395   4.621
17132TIP3    H151273   1.409   0.480   4.578
17132TIP3    H251274   1.436   0.333   4.550
17133TIP3   OH251275   0.211   0.041   4.746
17133TIP3    H151276   0.202   0.010   4.836
17133TIP3    H251277   0.303   0.066   4.738
17134TIP3   OH251278   7.162   9.215   4.615
17134TIP3    H151279   7.252   9.201   4.584
17134TIP3    H251280   7.171   9.279   4.685
17135TIP3   OH251281   7.759   7.908   4.694
17135TIP3    H151282   7.716   7.841   4.747
17135TIP3    H251283   7.830   7.861   4.649
17136TIP3   OH251284   8.284   7.794   4.599
17136TIP3    H151285   8.319   7.844   4.526
17136TIP3    H251286   8.189   7.805   4.593
17137TIP3   OH251287   8.384   7.898   4.363
17137TIP3    H151288   8.453   7.844   4.324
17137TIP3    H251289   8.412   7.988   4.349
17138TIP3   OH251290   7.006   7.614   4.710
17138TIP3    H151291   6.917   7.581   4.717
17138TIP3    H251292   7.061   7.536   4.708
17139TIP3   OH251293   6.788   7.489   4.359
17139TIP3    H151294   6.833   7.539   4.291
17139TIP3    H251295   6.766   7.554   4.426
17140TIP3   OH251296   7.449   7.657   4.592
17140TIP3    H151297   7.509   7.700   4.532
17140TIP3    H251298   7.477   7.686   4.679
17141TIP3   OH251299   8.003   7.795   4.574
17141TIP3    H151300   7.996   7.760   4.486
17141TIP3    H251301   7.988   7.720   4.631
17142TIP3   OH251302   8.028   7.719   4.139
17142TIP3    H151303   7.942   7.761   4.143
17142TIP3    H251304   8.016   7.635   4.184
17143TIP3   OH251305   6.510   9.061   4.144
17143TIP3    H151306   6.429   9.022   4.110
17143TIP3    H251307   6.503   9.154   4.122
17144TIP3   OH251308   6.916   7.651   4.129
17144TIP3    H151309   6.956   7.584   4.073
17144TIP3    H251310   6.990   7.702   4.161
17145TIP3   OH251311   7.424   7.824   4.225
17145TIP3    H151312   7.483   7.772   4.280
17145TIP3    H251313   7.446   7.915   4.246
17146TIP3   OH251314   7.287   9.247   3.719
17146TIP3    H151315   7.373   9.273   3.687
17146TIP3    H251316   7.261   9.174   3.663
17147TIP3   OH251317   1.463   0.121   3.810
17147TIP3    H151318   1.457   0.026   3.799
17147TIP3    H251319   1.423   0.157   3.731
17148TIP3   OH251320   7.218   7.901   5.604
17148TIP3    H151321   7.182   7.830   5.658
17148TIP3    H251322   7.311   7.903   5.628
17149TIP3   OH251323   7.468   7.896   5.719
17149TIP3    H151324   7.552   7.873   5.678
17149TIP3    H251325   7.454   7.829   5.786
17150TIP3   OH251326   6.589   9.081   3.778
17150TIP3    H151327   6.590   9.117   3.867
17150TIP3    H251328   6.677   9.043   3.767
17151TIP3   OH251329   8.292   7.955   5.510
17151TIP3    H151330   8.308   7.926   5.600
17151TIP3    H251331   8.378   7.952   5.468
17152TIP3   OH251332   1.691   0.269   5.007
17152TIP3    H151333   1.617   0.235   4.956
17152TIP3    H251334   1.679   0.364   5.005
17153TIP3   OH251335   8.794   8.773   4.517
17153TIP3    H151336   8.819   8.703   4.578
17153TIP3    H251337   8.859   8.841   4.530
17154TIP3   OH251338   8.757   9.218   4.270
17154TIP3    H151339   8.738   9.125   4.258
17154TIP3    H251340   8.852   9.223   4.271
17155TIP3   OH251341   8.599   8.599   4.174
17155TIP3    H151342   8.613   8.645   4.257
17155TIP3    H251343   8.600   8.668   4.107
17156TIP3   OH251344   9.030   8.270   4.198
17156TIP3    H151345   9.023   8.339   4.131
17156TIP3    H251346   8.998   8.192   4.154
17157TIP3   OH251347   9.120   8.682   4.098
17157TIP3    H151348   9.214   8.662   4.088
17157TIP3    H251349   9.076   8.602   4.072
17158TIP3   OH251350   9.035   8.254   4.626
17158TIP3    H151351   8.975   8.290   4.560
17158TIP3    H251352   8.990   8.266   4.709
17159TIP3   OH251353   8.903   8.373   4.412
17159TIP3    H151354   8.962   8.444   4.437
17159TIP3    H251355   8.948   8.329   4.340
17160TIP3   OH251356   8.372   8.908   3.756
17160TIP3    H151357   8.320   8.934   3.679
17160TIP3    H251358   8.391   8.991   3.800
17161TIP3   OH251359   9.387   7.959   4.348
17161TIP3    H151360   9.384   7.866   4.369
17161TIP3    H251361   9.313   7.997   4.395
17162TIP3   OH251362   8.878   8.796   4.005
17162TIP3    H151363   8.838   8.756   3.928
17162TIP3    H251364   8.970   8.770   4.001
17163TIP3   OH251365   9.036   8.802   4.331
17163TIP3    H151366   9.050   8.759   4.247
17163TIP3    H251367   9.064   8.893   4.317
17164TIP3   OH251368   8.927   8.904   4.753
17164TIP3    H151369   8.937   8.986   4.801
17164TIP3    H251370   8.838   8.874   4.773
17165TIP3   OH251371   8.758   8.654   3.795
17165TIP3    H151372   8.706   8.710   3.739
17165TIP3    H251373   8.732   8.565   3.772
17166TIP3   OH251374   8.547   9.033   4.698
17166TIP3    H151375   8.476   9.011   4.637
17166TIP3    H251376   8.580   8.948   4.726
17167TIP3   OH251377   1.865  -0.013   4.338
17167TIP3    H151378   1.960  -0.014   4.333
17167TIP3    H251379   1.844   0.069   4.383
17168TIP3   OH251380   8.751   9.208   4.683
17168TIP3    H151381   8.789   9.204   4.771
17168TIP3    H251382   8.681   9.143   4.684
17169TIP3   OH251383   9.151   8.046   4.472
17169TIP3    H151384   9.065   8.015   4.445
17169TIP3    H251385   9.134   8.129   4.517
17170TIP3   OH251386   9.692   8.156   4.658
17170TIP3    H151387   9.760   8.141   4.724
17170TIP3    H251388   9.610   8.145   4.706
17171TIP3   OH251389   9.292   8.080   3.447
17171TIP3    H151390   9.257   8.087   3.535
17171TIP3    H251391   9.249   8.003   3.410
17172TIP3   OH251392   9.078   8.572   4.487
17172TIP3    H151393   9.033   8.582   4.570
17172TIP3    H251394   9.057   8.653   4.439
17173TIP3   OH251395   8.959   8.438   3.994
17173TIP3    H151396   8.900   8.368   3.966
17173TIP3    H251397   9.018   8.452   3.920
17174TIP3   OH251398   8.904   8.589   4.704
17174TIP3    H151399   8.936   8.649   4.772
17174TIP3    H251400   8.897   8.505   4.748
17175TIP3   OH251401   8.951   8.066   3.415
17175TIP3    H151402   8.944   8.061   3.510
17175TIP3    H251403   8.872   8.112   3.387
17176TIP3   OH251404   8.551   8.182   4.231
17176TIP3    H151405   8.591   8.153   4.312
17176TIP3    H251406   8.533   8.102   4.182
17177TIP3   OH251407   8.482   8.101   3.804
17177TIP3    H151408   8.523   8.134   3.724
17177TIP3    H251409   8.414   8.165   3.825
17178TIP3   OH251410   9.282   8.297   4.074
17178TIP3    H151411   9.212   8.270   4.133
17178TIP3    H251412   9.362   8.263   4.115
17179TIP3   OH251413   9.005   8.319   3.756
17179TIP3    H151414   9.097   8.340   3.743
17179TIP3    H251415   8.963   8.345   3.674
17180TIP3   OH251416   8.835   8.355   3.541
17180TIP3    H151417   8.759   8.304   3.514
17180TIP3    H251418   8.876   8.383   3.459
17181TIP3   OH251419   8.915   9.138   4.902
17181TIP3    H151420   8.989   9.186   4.939
17181TIP3    H251421   8.849   9.137   4.972
17182TIP3   OH251422   8.920   8.085   4.038
17182TIP3    H151423   8.879   8.012   4.083
17182TIP3    H251424   8.964   8.046   3.963
17183TIP3   OH251425   9.355   8.474   4.468
17183TIP3    H151426   9.274   8.524   4.458
17183TIP3    H251427   9.423   8.541   4.478
17184TIP3   OH251428   8.773   8.901   4.232
17184TIP3    H151429   8.803   8.873   4.146
17184TIP3    H251430   8.830   8.856   4.294
17185TIP3   OH251431   8.670   8.826   4.836
17185TIP3    H151432   8.695   8.815   4.928
17185TIP3    H251433   8.601   8.761   4.822
17186TIP3   OH251434   8.454   8.518   3.555
17186TIP3    H151435   8.498   8.602   3.568
17186TIP3    H251436   8.377   8.522   3.610
17187TIP3   OH251437   8.880   8.335   4.844
17187TIP3    H151438   8.786   8.341   4.862
17187TIP3    H251439   8.915   8.278   4.912
17188TIP3   OH251440   2.120   0.140   4.496
17188TIP3    H151441   2.130   0.066   4.556
17188TIP3    H251442   2.155   0.215   4.545
17189TIP3   OH251443   8.576   8.766   3.628
17189TIP3    H151444   8.512   8.818   3.677
17189TIP3    H251445   8.637   8.830   3.592
17190TIP3   OH251446   9.286   8.327   3.801
17190TIP3    H151447   9.374   8.361   3.781
17190TIP3    H251448   9.284   8.323   3.896
17191TIP3   OH251449   9.427   8.071   3.901
17191TIP3    H151450   9.425   8.116   3.986
17191TIP3    H251451   9.493   8.119   3.850
17192TIP3   OH251452   8.943   8.055   3.691
17192TIP3    H151453   8.943   8.145   3.723
17192TIP3    H251454   9.035   8.028   3.694
17193TIP3   OH251455   8.506   8.249   3.576
17193TIP3    H151456   8.501   8.345   3.570
17193TIP3    H251457   8.429   8.218   3.529
17194TIP3   OH251458   8.884   7.969   4.449
17194TIP3    H151459   8.861   7.934   4.363
17194TIP3    H251460   8.882   7.892   4.507
17195TIP3   OH251461   8.403   9.167   3.840
17195TIP3    H151462   8.331   9.220   3.874
17195TIP3    H251463   8.414   9.196   3.750
17196TIP3   OH251464   8.721   9.122   5.088
17196TIP3    H151465   8.731   9.026   5.092
17196TIP3    H251466   8.632   9.135   5.056
17197TIP3   OH251467   8.844   8.858   5.077
17197TIP3    H151468   8.923   8.805   5.065
17197TIP3    H251469   8.839   8.873   5.171
17198TIP3   OH251470   8.897   8.653   3.493
17198TIP3    H151471   8.861   8.615   3.573
17198TIP3    H251472   8.965   8.592   3.465
17199TIP3   OH251473   9.165   8.746   4.734
17199TIP3    H151474   9.095   8.808   4.756
17199TIP3    H251475   9.182   8.759   4.641
17200TIP3   OH251476   9.289   8.533   4.873
17200TIP3    H151477   9.296   8.455   4.818
17200TIP3    H251478   9.257   8.601   4.813
17201TIP3   OH251479   9.292   8.323   4.684
17201TIP3    H151480   9.326   8.364   4.604
17201TIP3    H251481   9.202   8.299   4.662
17202TIP3   OH251482   9.153   8.660   5.079
17202TIP3    H151483   9.096   8.588   5.105
17202TIP3    H251484   9.202   8.626   5.004
17203TIP3   OH251485   9.428   8.090   4.741
17203TIP3    H151486   9.381   8.171   4.722
17203TIP3    H251487   9.363   8.021   4.730
17204TIP3   OH251488   9.545   8.616   4.951
17204TIP3    H151489   9.542   8.605   5.046
17204TIP3    H251490   9.460   8.584   4.921
17205TIP3   OH251491   9.015   8.430   5.147
17205TIP3    H151492   9.019   8.342   5.111
17205TIP3    H251493   9.049   8.421   5.237
17206TIP3   OH251494   9.525   8.093   4.994
17206TIP3    H151495   9.595   8.028   4.992
17206TIP3    H251496   9.487   8.090   4.906
17207TIP3   OH251497   9.559   8.298   5.168
17207TIP3    H151498   9.555   8.236   5.096
17207TIP3    H251499   9.525   8.380   5.131
17208TIP3   OH251500   8.292   8.923   3.469
17208TIP3    H151501   8.385   8.945   3.461
17208TIP3    H251502   8.285   8.835   3.432
17209TIP3   OH251503   1.657   0.293   3.900
17209TIP3    H151504   1.597   0.230   3.858
17209TIP3    H251505   1.724   0.238   3.941
17210TIP3   OH251506   1.813   0.144   4.073
17210TIP3    H151507   1.789   0.073   4.133
17210TIP3    H251508   1.811   0.223   4.127
17211TIP3   OH251509   8.538   8.784   4.428
17211TIP3    H151510   8.547   8.835   4.348
17211TIP3    H251511   8.626   8.785   4.467
17212TIP3   OH251512   8.751   8.485   5.124
17212TIP3    H151513   8.846   8.480   5.124
17212TIP3    H251514   8.722   8.403   5.163
17213TIP3   OH251515   8.710   8.183   4.461
17213TIP3    H151516   8.761   8.102   4.467
17213TIP3    H251517   8.775   8.252   4.449
17214TIP3   OH251518   8.514   8.458   4.505
17214TIP3    H151519   8.592   8.405   4.489
17214TIP3    H251520   8.546   8.532   4.556
17215TIP3   OH251521   8.485   7.977   4.047
17215TIP3    H151522   8.393   7.950   4.051
17215TIP3    H251523   8.495   8.018   3.961
17216TIP3   OH251524   8.713   8.038   4.844
17216TIP3    H151525   8.667   8.026   4.927
17216TIP3    H251526   8.645   8.069   4.784
17217TIP3   OH251527   2.212   0.188   4.919
17217TIP3    H151528   2.118   0.197   4.901
17217TIP3    H251529   2.219   0.199   5.014
17218TIP3   OH251530   9.489   8.153   4.166
17218TIP3    H151531   9.478   8.089   4.235
17218TIP3    H251532   9.584   8.160   4.153
17219TIP3   OH251533   8.803   7.873   4.199
17219TIP3    H151534   8.713   7.841   4.198
17219TIP3    H251535   8.857   7.794   4.195
17220TIP3   OH251536   8.598   7.744   3.845
17220TIP3    H151537   8.625   7.797   3.770
17220TIP3    H251538   8.561   7.806   3.907
17221TIP3   OH251539   9.245   7.914   4.083
17221TIP3    H151540   9.306   7.955   4.022
17221TIP3    H251541   9.278   7.939   4.169
17222TIP3   OH251542   0.057   7.986   4.037
17222TIP3    H151543  -0.009   7.972   3.969
17222TIP3    H251544   0.037   7.921   4.104
17223TIP3   OH251545   1.741   0.069   3.633
17223TIP3    H151546   1.669   0.014   3.602
17223TIP3    H251547   1.724   0.155   3.595
17224TIP3   OH251548   8.710   7.903   3.610
17224TIP3    H151549   8.755   7.840   3.553
17224TIP3    H251550   8.781   7.955   3.648
17225TIP3   OH251551   9.216   8.080   3.714
17225TIP3    H151552   9.276   8.029   3.769
17225TIP3    H251553   9.235   8.171   3.735
17226TIP3   OH251554   9.016   8.157   5.091
17226TIP3    H151555   8.979   8.086   5.144
17226TIP3    H251556   9.109   8.158   5.114
17227TIP3   OH251557   9.264   8.154   5.211
17227TIP3    H151558   9.349   8.136   5.171
17227TIP3    H251559   9.252   8.084   5.275
17228TIP3   OH251560   0.983   8.977   6.398
17228TIP3    H151561   0.942   9.060   6.419
17228TIP3    H251562   0.992   8.978   6.302
17229TIP3   OH251563   1.244   8.880   7.085
17229TIP3    H151564   1.299   8.815   7.041
17229TIP3    H251565   1.204   8.930   7.014
17230TIP3   OH251566   1.104   9.018   6.893
17230TIP3    H151567   1.016   9.057   6.896
17230TIP3    H251568   1.095   8.945   6.831
17231TIP3   OH251569   0.746   8.663   5.470
17231TIP3    H151570   0.782   8.587   5.423
17231TIP3    H251571   0.813   8.731   5.461
17232TIP3   OH251572   1.009   8.782   6.759
17232TIP3    H151573   0.918   8.788   6.731
17232TIP3    H251574   1.031   8.689   6.752
17233TIP3   OH251575   0.827   8.665   6.035
17233TIP3    H151576   0.909   8.628   6.003
17233TIP3    H251577   0.844   8.760   6.038
17234TIP3   OH251578   0.908   9.179   5.713
17234TIP3    H151579   0.895   9.268   5.746
17234TIP3    H251580   0.851   9.124   5.768
17235TIP3   OH251581   6.024  -0.023   5.881
17235TIP3    H151582   6.055   0.056   5.927
17235TIP3    H251583   6.048  -0.009   5.790
17236TIP3   OH251584   5.426   0.158   5.911
17236TIP3    H151585   5.467   0.075   5.936
17236TIP3    H251586   5.388   0.141   5.825
17237TIP3   OH251587   1.495   9.057   5.882
17237TIP3    H151588   1.479   9.131   5.823
17237TIP3    H251589   1.449   8.983   5.842
17238TIP3   OH251590   2.192   9.144   5.509
17238TIP3    H151591   2.261   9.128   5.574
17238TIP3    H251592   2.238   9.182   5.434
17239TIP3   OH251593   1.120   9.240   5.993
17239TIP3    H151594   1.201   9.238   6.043
17239TIP3    H251595   1.142   9.203   5.908
17240TIP3   OH251596   4.852   0.220   5.769
17240TIP3    H151597   4.935   0.183   5.799
17240TIP3    H251598   4.801   0.144   5.740
17241TIP3   OH251599   6.108   0.177   6.057
17241TIP3    H151600   6.031   0.224   6.024
17241TIP3    H251601   6.118   0.209   6.147
17242TIP3   OH251602   1.491   9.042   6.320
17242TIP3    H151603   1.432   9.072   6.251
17242TIP3    H251604   1.443   9.057   6.401
17243TIP3   OH251605   2.402   9.153   5.677
17243TIP3    H151606   2.398   9.099   5.756
17243TIP3    H251607   2.451   9.230   5.703
17244TIP3   OH251608   1.367   9.152   6.103
17244TIP3    H151609   1.423   9.227   6.120
17244TIP3    H251610   1.407   9.108   6.028
17245TIP3   OH251611   2.552   9.119   6.050
17245TIP3    H151612   2.465   9.145   6.019
17245TIP3    H251613   2.612   9.148   5.981
17246TIP3   OH251614   1.849   8.760   6.034
17246TIP3    H151615   1.838   8.666   6.047
17246TIP3    H251616   1.775   8.800   6.079
17247TIP3   OH251617   5.029   0.025   5.063
17247TIP3    H151618   5.060   0.114   5.079
17247TIP3    H251619   5.054   0.006   4.973
17248TIP3   OH251620   5.653   0.403   6.157
17248TIP3    H151621   5.668   0.487   6.113
17248TIP3    H251622   5.564   0.377   6.130
17249TIP3   OH251623   2.475   8.708   5.130
17249TIP3    H151624   2.399   8.712   5.189
17249TIP3    H251625   2.492   8.799   5.106
17250TIP3   OH251626   5.876   0.364   6.344
17250TIP3    H151627   5.797   0.362   6.289
17250TIP3    H251628   5.905   0.273   6.349
17251TIP3   OH251629   1.610   8.836   6.161
17251TIP3    H151630   1.524   8.802   6.136
17251TIP3    H251631   1.590   8.920   6.205
17252TIP3   OH251632   2.144   8.952   6.356
17252TIP3    H151633   2.211   8.923   6.418
17252TIP3    H251634   2.061   8.931   6.399
17253TIP3   OH251635   5.652   0.129   6.276
17253TIP3    H151636   5.605   0.124   6.360
17253TIP3    H251637   5.624   0.212   6.239
17254TIP3   OH251638   1.762   8.876   5.133
17254TIP3    H151639   1.728   8.884   5.222
17254TIP3    H251640   1.721   8.797   5.099
17255TIP3   OH251641   4.801   0.124   6.169
17255TIP3    H151642   4.744   0.130   6.246
17255TIP3    H251643   4.776   0.199   6.115
17256TIP3   OH251644   1.426   9.235   5.693
17256TIP3    H151645   1.334   9.213   5.709
17256TIP3    H251646   1.444   9.201   5.606
17257TIP3   OH251647   5.194   0.086   5.420
17257TIP3    H151648   5.114   0.135   5.403
17257TIP3    H251649   5.230   0.065   5.334
17258TIP3   OH251650   5.366   0.347   6.514
17258TIP3    H151651   5.359   0.267   6.565
17258TIP3    H251652   5.456   0.377   6.529
17259TIP3   OH251653   5.331   0.099   5.658
17259TIP3    H151654   5.272   0.121   5.586
17259TIP3    H251655   5.377   0.021   5.628
17260TIP3   OH251656   4.644   0.141   6.415
17260TIP3    H151657   4.593   0.187   6.482
17260TIP3    H251658   4.620   0.049   6.425
17261TIP3   OH251659   1.412   8.857   5.101
17261TIP3    H151660   1.406   8.857   5.197
17261TIP3    H251661   1.338   8.910   5.072
17262TIP3   OH251662   0.959   8.900   5.952
17262TIP3    H151663   1.017   8.936   6.019
17262TIP3    H251664   1.017   8.856   5.890
17263TIP3   OH251665   0.929   8.900   5.495
17263TIP3    H151666   0.968   8.917   5.409
17263TIP3    H251667   0.894   8.985   5.523
17264TIP3   OH251668   5.397   0.343   6.105
17264TIP3    H151669   5.402   0.281   6.033
17264TIP3    H251670   5.328   0.309   6.161
17265TIP3   OH251671   1.752   9.052   5.757
17265TIP3    H151672   1.669   9.056   5.803
17265TIP3    H251673   1.818   9.068   5.824
17266TIP3   OH251674   1.184   9.117   5.754
17266TIP3    H151675   1.092   9.115   5.726
17266TIP3    H251676   1.216   9.028   5.739
17267TIP3   OH251677   1.463   9.113   5.452
17267TIP3    H151678   1.553   9.134   5.425
17267TIP3    H251679   1.410   9.134   5.375
17268TIP3   OH251680   2.240   9.136   5.960
17268TIP3    H151681   2.206   9.148   6.049
17268TIP3    H251682   2.180   9.073   5.920
17269TIP3   OH251683   1.283   9.121   5.237
17269TIP3    H151684   1.223   9.086   5.171
17269TIP3    H251685   1.330   9.191   5.192
17270TIP3   OH251686   5.099   0.124   5.847
17270TIP3    H151687   5.181   0.107   5.802
17270TIP3    H251688   5.119   0.113   5.940
17271TIP3   OH251689   1.358   8.876   5.731
17271TIP3    H151690   1.327   8.797   5.775
17271TIP3    H251691   1.407   8.844   5.655
17272TIP3   OH251692   5.077   0.037   6.152
17272TIP3    H151693   4.991   0.078   6.144
17272TIP3    H251694   5.132   0.104   6.194
17273TIP3   OH251695   2.002   9.004   5.092
17273TIP3    H151696   1.912   8.976   5.106
17273TIP3    H251697   2.004   9.096   5.119
17274TIP3   OH251698   5.348   0.019   5.183
17274TIP3    H151699   5.436   0.007   5.219
17274TIP3    H251700   5.347   0.110   5.152
17275TIP3   OH251701   5.110   0.363   6.626
17275TIP3    H151702   5.043   0.389   6.563
17275TIP3    H251703   5.184   0.337   6.572
17276TIP3   OH251704   5.777   0.081   5.046
17276TIP3    H151705   5.720   0.047   4.977
17276TIP3    H251706   5.798   0.170   5.017
17277TIP3   OH251707   1.341   9.120   6.542
17277TIP3    H151708   1.246   9.124   6.556
17277TIP3    H251709   1.370   9.049   6.599
17278TIP3   OH251710   2.166   9.192   6.221
17278TIP3    H151711   2.251   9.223   6.252
17278TIP3    H251712   2.152   9.110   6.269
17279TIP3   OH251713   2.054   8.939   5.376
17279TIP3    H151714   2.034   8.966   5.287
17279TIP3    H251715   2.091   9.017   5.418
17280TIP3   OH251716   1.751   9.116   5.485
17280TIP3    H151717   1.814   9.186   5.470
17280TIP3    H251718   1.747   9.109   5.580
17281TIP3   OH251719   5.268   0.194   6.292
17281TIP3    H151720   5.297   0.243   6.369
17281TIP3    H251721   5.320   0.114   6.294
17282TIP3   OH251722   1.886   8.848   5.587
17282TIP3    H151723   1.871   8.922   5.645
17282TIP3    H251724   1.945   8.881   5.519
17283TIP3   OH251725   1.398   8.844   5.378
17283TIP3    H151726   1.389   8.935   5.405
17283TIP3    H251727   1.492   8.826   5.384
17284TIP3   OH251728   5.920   0.100   6.273
17284TIP3    H151729   5.825   0.092   6.282
17284TIP3    H251730   5.938   0.061   6.187
17285TIP3   OH251731   5.559   0.276   5.642
17285TIP3    H151732   5.489   0.218   5.673
17285TIP3    H251733   5.635   0.252   5.696
17286TIP3   OH251734   0.947   9.036   5.265
17286TIP3    H151735   0.969   9.127   5.246
17286TIP3    H251736   0.879   9.014   5.203
17287TIP3   OH251737   1.349   8.752   6.136
17287TIP3    H151738   1.316   8.727   6.049
17287TIP3    H251739   1.337   8.673   6.189
17288TIP3   OH251740   4.580   0.409   6.765
17288TIP3    H151741   4.601   0.315   6.764
17288TIP3    H251742   4.560   0.428   6.857
17289TIP3   OH251743   4.905   0.247   6.396
17289TIP3    H151744   4.813   0.230   6.415
17289TIP3    H251745   4.911   0.246   6.300
17290TIP3   OH251746   4.709   0.030   5.082
17290TIP3    H151747   4.683  -0.014   5.001
17290TIP3    H251748   4.804   0.039   5.075
17291TIP3   OH251749   5.022   0.066   6.566
17291TIP3    H151750   5.025  -0.016   6.515
17291TIP3    H251751   4.984   0.130   6.505
17292TIP3   OH251752   1.751   9.108   6.365
17292TIP3    H151753   1.779   9.156   6.287
17292TIP3    H251754   1.659   9.089   6.350
17293TIP3   OH251755   5.639   0.384   6.615
17293TIP3    H151756   5.655   0.292   6.636
17293TIP3    H251757   5.725   0.418   6.591
17294TIP3   OH251758   4.883   0.203   6.782
17294TIP3    H151759   4.825   0.127   6.792
17294TIP3    H251760   4.933   0.184   6.703
17295TIP3   OH251761   1.883   8.877   6.431
17295TIP3    H151762   1.838   8.959   6.409
17295TIP3    H251763   1.817   8.809   6.420
17296TIP3   OH251764   5.283   0.122   6.647
17296TIP3    H151765   5.276   0.120   6.743
17296TIP3    H251766   5.194   0.103   6.616
17297TIP3   OH251767   5.524   0.095   6.511
17297TIP3    H151768   5.445   0.082   6.564
17297TIP3    H251769   5.595   0.060   6.564
17298TIP3   OH251770   5.751   0.032   6.658
17298TIP3    H151771   5.762  -0.062   6.674
17298TIP3    H251772   5.745   0.071   6.745
17299TIP3   OH251773   1.471   9.219   6.844
17299TIP3    H151774   1.471   9.134   6.801
17299TIP3    H251775   1.505   9.201   6.932
17300TIP3   OH251776   1.978   8.885   6.688
17300TIP3    H151777   2.046   8.818   6.685
17300TIP3    H251778   1.937   8.883   6.602
17301TIP3   OH251779   2.043   9.101   6.848
17301TIP3    H151780   2.023   9.032   6.786
17301TIP3    H251781   1.969   9.162   6.842
17302TIP3   OH251782   2.365   9.222   4.821
17302TIP3    H151783   2.335   9.298   4.770
17302TIP3    H251784   2.285   9.179   4.850
17303TIP3   OH251785   5.651   0.250   5.393
17303TIP3    H151786   5.653   0.155   5.404
17303TIP3    H251787   5.629   0.285   5.479
17304TIP3   OH251788   6.086   0.524   6.281
17304TIP3    H151789   6.012   0.467   6.303
17304TIP3    H251790   6.162   0.466   6.280
17305TIP3   OH251791   2.291   8.953   4.839
17305TIP3    H151792   2.337   8.901   4.905
17305TIP3    H251793   2.202   8.919   4.838
17306TIP3   OH251794   2.345   9.214   5.284
17306TIP3    H151795   2.385   9.128   5.298
17306TIP3    H251796   2.407   9.261   5.229
17307TIP3   OH251797   5.782   0.162   5.771
17307TIP3    H151798   5.863   0.187   5.727
17307TIP3    H251799   5.793   0.194   5.861
17308TIP3   OH251800   5.857   0.289   6.002
17308TIP3    H151801   5.781   0.317   6.054
17308TIP3    H251802   5.907   0.369   5.987
17309TIP3   OH251803   4.473   0.037   6.808
17309TIP3    H151804   4.568   0.030   6.815
17309TIP3    H251805   4.440  -0.045   6.844
17310TIP3   OH251806   3.036   9.135   6.568
17310TIP3    H151807   3.093   9.070   6.528
17310TIP3    H251808   3.009   9.191   6.494
17311TIP3   OH251809   2.465   8.970   5.319
17311TIP3    H151810   2.513   8.963   5.401
17311TIP3    H251811   2.401   8.899   5.323
17312TIP3   OH251812   1.159   8.954   6.132
17312TIP3    H151813   1.224   8.887   6.150
17312TIP3    H251814   1.208   9.036   6.134
17313TIP3   OH251815   4.263   0.003   6.242
17313TIP3    H151816   4.291  -0.007   6.151
17313TIP3    H251817   4.226   0.091   6.247
17314TIP3   OH251818   6.171   0.039   6.374
17314TIP3    H151819   6.084   0.076   6.388
17314TIP3    H251820   6.156  -0.035   6.315
17315TIP3   OH251821   2.571   8.946   4.892
17315TIP3    H151822   2.598   8.854   4.893
17315TIP3    H251823   2.642   8.992   4.936
17316TIP3   OH251824   0.951   8.732   5.703
17316TIP3    H151825   0.874   8.758   5.754
17316TIP3    H251826   0.954   8.793   5.629
17317TIP3   OH251827   1.183   8.878   6.562
17317TIP3    H151828   1.124   8.837   6.625
17317TIP3    H251829   1.127   8.901   6.488
17318TIP3   OH251830   2.802   9.037   6.253
17318TIP3    H151831   2.713   9.032   6.218
17318TIP3    H251832   2.837   8.948   6.243
17319TIP3   OH251833   2.016   8.955   5.876
17319TIP3    H151834   1.966   8.888   5.923
17319TIP3    H251835   2.082   8.906   5.826
17320TIP3   OH251836   2.532   8.838   5.777
17320TIP3    H151837   2.569   8.886   5.703
17320TIP3    H251838   2.438   8.852   5.770
17321TIP3   OH251839   2.628   8.939   5.538
17321TIP3    H151840   2.697   8.882   5.504
17321TIP3    H251841   2.662   9.028   5.526
17322TIP3   OH251842   1.257   8.661   5.887
17322TIP3    H151843   1.167   8.629   5.888
17322TIP3    H251844   1.310   8.581   5.885
17323TIP3   OH251845   1.047   8.529   5.535
17323TIP3    H151846   1.076   8.583   5.462
17323TIP3    H251847   1.016   8.592   5.601
17324TIP3   OH251848   1.703   8.695   5.769
17324TIP3    H151849   1.759   8.744   5.709
17324TIP3    H251850   1.719   8.736   5.854
17325TIP3   OH251851   2.251   8.839   5.750
17325TIP3    H151852   2.248   8.803   5.662
17325TIP3    H251853   2.236   8.763   5.807
17326TIP3   OH251854   2.275   8.763   5.315
17326TIP3    H151855   2.191   8.807   5.327
17326TIP3    H251856   2.265   8.679   5.360
17327TIP3   OH251857   1.163   8.689   5.304
17327TIP3    H151858   1.209   8.630   5.244
17327TIP3    H251859   1.232   8.746   5.338
17328TIP3   OH251860   1.675   8.870   5.399
17328TIP3    H151861   1.732   8.820   5.457
17328TIP3    H251862   1.693   8.961   5.420
17329TIP3   OH251863   1.467   8.944   6.780
17329TIP3    H151864   1.430   8.875   6.835
17329TIP3    H251865   1.560   8.947   6.805
17330TIP3   OH251866   1.714   8.938   6.898
17330TIP3    H151867   1.799   8.922   6.856
17330TIP3    H251868   1.705   8.868   6.962
17331TIP3   OH251869   2.541   9.000   6.687
17331TIP3    H151870   2.559   8.970   6.776
17331TIP3    H251871   2.626   8.997   6.643
17332TIP3   OH251872   5.986   0.211   5.199
17332TIP3    H151873   5.954   0.288   5.246
17332TIP3    H251874   5.912   0.151   5.197
17333TIP3   OH251875   7.822   0.234   5.369
17333TIP3    H151876   7.851   0.312   5.416
17333TIP3    H251877   7.842   0.252   5.277
17334TIP3   OH251878   7.222   0.412   5.396
17334TIP3    H151879   7.263   0.330   5.422
17334TIP3    H251880   7.183   0.394   5.310
17335TIP3   OH251881   6.557   0.072   5.369
17335TIP3    H151882   6.541   0.147   5.310
17335TIP3    H251883   6.511  -0.001   5.327
17336TIP3   OH251884   7.256   0.161   4.995
17336TIP3    H151885   7.324   0.145   5.061
17336TIP3    H251886   7.303   0.200   4.921
17337TIP3   OH251887   6.185   0.257   5.486
17337TIP3    H151888   6.269   0.249   5.530
17337TIP3    H251889   6.200   0.224   5.398
17338TIP3   OH251890   6.647   0.476   5.256
17338TIP3    H151891   6.731   0.440   5.286
17338TIP3    H251892   6.597   0.399   5.228
17339TIP3   OH251893   7.904   0.435   5.544
17339TIP3    H151894   7.827   0.482   5.512
17339TIP3    H251895   7.916   0.467   5.633
17340TIP3   OH251896   6.554   0.059   5.806
17340TIP3    H151897   6.496   0.090   5.737
17340TIP3    H251898   6.505   0.076   5.887
17341TIP3   OH251899   7.465   0.169   5.164
17341TIP3    H151900   7.456   0.119   5.245
17341TIP3    H251901   7.514   0.247   5.190
17342TIP3   OH251902   6.427   0.166   5.588
17342TIP3    H151903   6.481   0.243   5.608
17342TIP3    H251904   6.472   0.123   5.515
17343TIP3   OH251905   7.615   0.135   5.535
17343TIP3    H151906   7.528   0.164   5.507
17343TIP3    H251907   7.674   0.166   5.467
17344TIP3   OH251908   3.644   9.015   5.519
17344TIP3    H151909   3.635   8.921   5.536
17344TIP3    H251910   3.570   9.055   5.564
17345TIP3   OH251911   6.792   0.294   4.519
17345TIP3    H151912   6.841   0.365   4.562
17345TIP3    H251913   6.854   0.259   4.454
17346TIP3   OH251914   7.448   0.660   5.646
17346TIP3    H151915   7.463   0.745   5.604
17346TIP3    H251916   7.358   0.636   5.621
17347TIP3   OH251917   4.276   8.963   4.619
17347TIP3    H151918   4.198   8.976   4.672
17347TIP3    H251919   4.289   9.046   4.574
17348TIP3   OH251920   7.672   0.620   5.832
17348TIP3    H151921   7.594   0.618   5.777
17348TIP3    H251922   7.701   0.529   5.837
17349TIP3   OH251923   3.404   9.093   5.646
17349TIP3    H151924   3.318   9.060   5.620
17349TIP3    H251925   3.385   9.175   5.692
17350TIP3   OH251926   3.940   9.208   5.843
17350TIP3    H151927   4.007   9.180   5.905
17350TIP3    H251928   3.857   9.187   5.886
17351TIP3   OH251929   7.447   0.386   5.763
17351TIP3    H151930   7.401   0.379   5.847
17351TIP3    H251931   7.420   0.471   5.728
17352TIP3   OH251932   3.555   9.138   4.621
17352TIP3    H151933   3.524   9.142   4.711
17352TIP3    H251934   3.518   9.057   4.585
17353TIP3   OH251935   6.595   0.372   5.644
17353TIP3    H151936   6.563   0.385   5.733
17353TIP3    H251937   6.586   0.458   5.602
17354TIP3   OH251938   6.489   0.252   5.179
17354TIP3    H151939   6.398   0.228   5.198
17354TIP3    H251940   6.506   0.216   5.092
17355TIP3   OH251941   6.990   0.343   4.909
17355TIP3    H151942   6.910   0.392   4.889
17355TIP3    H251943   7.028   0.325   4.823
17356TIP3   OH251944   7.169   0.605   6.000
17356TIP3    H151945   7.161   0.523   6.049
17356TIP3    H251946   7.260   0.632   6.012
17357TIP3   OH251947   7.126   0.354   5.145
17357TIP3    H151948   7.067   0.376   5.073
17357TIP3    H251949   7.174   0.277   5.115
17358TIP3   OH251950   6.418   0.397   5.901
17358TIP3    H151951   6.398   0.438   5.985
17358TIP3    H251952   6.402   0.304   5.915
17359TIP3   OH251953   3.210   9.114   4.588
17359TIP3    H151954   3.208   9.111   4.683
17359TIP3    H251955   3.131   9.164   4.564
17360TIP3   OH251956   2.754   9.161   5.449
17360TIP3    H151957   2.821   9.194   5.509
17360TIP3    H251958   2.803   9.119   5.379
17361TIP3   OH251959   2.733   9.149   4.980
17361TIP3    H151960   2.779   9.178   4.902
17361TIP3    H251961   2.677   9.223   5.004
17362TIP3   OH251962   7.193   0.598   5.588
17362TIP3    H151963   7.197   0.533   5.518
17362TIP3    H251964   7.123   0.566   5.646
17363TIP3   OH251965   6.815   0.073   5.242
17363TIP3    H151966   6.733   0.073   5.291
17363TIP3    H251967   6.882   0.083   5.309
17364TIP3   OH251968   6.250   0.134   5.245
17364TIP3    H151969   6.158   0.137   5.219
17364TIP3    H251970   6.277   0.044   5.227
17365TIP3   OH251971   6.525   0.128   4.939
17365TIP3    H151972   6.616   0.148   4.918
17365TIP3    H251973   6.476   0.154   4.861
17366TIP3   OH251974   7.303   0.153   5.445
17366TIP3    H151975   7.272   0.165   5.535
17366TIP3    H251976   7.241   0.090   5.407
17367TIP3   OH251977   6.344   0.142   4.717
17367TIP3    H151978   6.286   0.109   4.649
17367TIP3    H251979   6.391   0.214   4.675
17368TIP3   OH251980   6.895   0.383   5.334
17368TIP3    H151981   6.977   0.364   5.289
17368TIP3    H251982   6.914   0.370   5.426
17369TIP3   OH251983   3.152   9.131   5.217
17369TIP3    H151984   3.122   9.053   5.264
17369TIP3    H251985   3.209   9.097   5.148
17370TIP3   OH251986   6.874   0.292   5.636
17370TIP3    H151987   6.788   0.334   5.629
17370TIP3    H251988   6.929   0.358   5.680
17371TIP3   OH251989   7.065   0.019   4.578
17371TIP3    H151990   6.975  -0.007   4.595
17371TIP3    H251991   7.070   0.110   4.607
17372TIP3   OH251992   7.141   0.277   4.670
17372TIP3    H151993   7.229   0.259   4.706
17372TIP3    H251994   7.146   0.367   4.638
17373TIP3   OH251995   6.899   0.606   6.106
17373TIP3    H151996   6.855   0.671   6.051
17373TIP3    H251997   6.989   0.603   6.074
17374TIP3   OH251998   7.578   0.331   4.525
17374TIP3    H151999   7.522   0.292   4.459
17374TIP3    H252000   7.579   0.424   4.504
17375TIP3   OH252001   6.392   0.136   6.022
17375TIP3    H152002   6.297   0.137   6.033
17375TIP3    H252003   6.424   0.077   6.090
17376TIP3   OH252004   7.231   0.207   5.706
17376TIP3    H152005   7.313   0.241   5.740
17376TIP3    H252006   7.215   0.126   5.755
17377TIP3   OH252007   3.850   9.197   4.865
17377TIP3    H152008   3.835   9.222   4.774
17377TIP3    H252009   3.887   9.275   4.906
17378TIP3   OH252010   6.811   0.135   4.973
17378TIP3    H152011   6.877   0.203   4.958
17378TIP3    H252012   6.808   0.125   5.068
17379TIP3   OH252013   7.062   0.448   5.775
17379TIP3    H152014   7.091   0.500   5.850
17379TIP3    H252015   7.115   0.369   5.779
17380TIP3   OH252016   3.682   9.105   5.074
17380TIP3    H152017   3.672   9.179   5.134
17380TIP3    H252018   3.740   9.139   5.005
17381TIP3   OH252019   3.195   9.101   4.862
17381TIP3    H152020   3.189   9.191   4.895
17381TIP3    H252021   3.287   9.078   4.871
17382TIP3   OH252022   7.715   0.355   5.759
17382TIP3    H152023   7.620   0.349   5.769
17382TIP3    H252024   7.733   0.318   5.673
17383TIP3   OH252025   7.356   0.530   5.127
17383TIP3    H152026   7.286   0.476   5.162
17383TIP3    H252027   7.431   0.511   5.183
17384TIP3   OH252028   6.007   0.062   4.754
17384TIP3    H152029   6.049   0.148   4.743
17384TIP3    H252030   5.941   0.059   4.685
17385TIP3   OH252031   3.140   9.010   5.623
17385TIP3    H152032   3.111   8.978   5.538
17385TIP3    H252033   3.132   8.934   5.681
17386TIP3   OH252034   6.389   0.654   6.229
17386TIP3    H152035   6.442   0.581   6.261
17386TIP3    H252036   6.381   0.712   6.305
17387TIP3   OH252037   6.696   0.487   5.880
17387TIP3    H152038   6.608   0.518   5.902
17387TIP3    H252039   6.711   0.517   5.791
17388TIP3   OH252040   6.509   0.296   4.563
17388TIP3    H152041   6.483   0.246   4.485
17388TIP3    H252042   6.605   0.291   4.562
17389TIP3   OH252043   6.813   0.316   6.057
17389TIP3    H152044   6.820   0.237   6.003
17389TIP3    H252045   6.777   0.382   5.997
17390TIP3   OH252046   6.815   0.125   5.851
17390TIP3    H152047   6.843   0.172   5.773
17390TIP3    H252048   6.722   0.105   5.836
17391TIP3   OH252049   7.438   0.643   6.103
17391TIP3    H152050   7.455   0.551   6.124
17391TIP3    H252051   7.524   0.678   6.079
17392TIP3   OH252052   6.667   0.467   6.270
17392TIP3    H152053   6.619   0.384   6.277
17392TIP3    H252054   6.723   0.455   6.193
17393TIP3   OH252055   3.679   9.133   5.917
17393TIP3    H152056   3.633   9.215   5.896
17393TIP3    H252057   3.613   9.065   5.907
17394TIP3   OH252058   7.081   0.381   6.133
17394TIP3    H152059   7.075   0.381   6.229
17394TIP3    H252060   6.991   0.368   6.104
17395TIP3   OH252061   7.319   0.344   5.995
17395TIP3    H152062   7.241   0.335   6.050
17395TIP3    H252063   7.391   0.311   6.050
17396TIP3   OH252064   7.546   0.291   6.147
17396TIP3    H152065   7.557   0.197   6.163
17396TIP3    H252066   7.541   0.329   6.235
17397TIP3   OH252067   6.526   0.237   6.330
17397TIP3    H152068   6.534   0.150   6.289
17397TIP3    H252069   6.564   0.226   6.417
17398TIP3   OH252070   3.775   9.145   6.174
17398TIP3    H152071   3.841   9.075   6.173
17398TIP3    H252072   3.734   9.139   6.087
17399TIP3   OH252073   7.107   0.120   6.333
17399TIP3    H152074   7.087   0.050   6.271
17399TIP3    H252075   7.031   0.178   6.329
17400TIP3   OH252076   7.437   0.254   4.262
17400TIP3    H152077   7.348   0.289   4.261
17400TIP3    H252078   7.427   0.164   4.293
17401TIP3   OH252079   7.445   0.508   4.878
17401TIP3    H152080   7.450   0.413   4.889
17401TIP3    H252081   7.423   0.541   4.965
17402TIP3   OH252082   7.883   0.778   5.763
17402TIP3    H152083   7.809   0.724   5.790
17402TIP3    H252084   7.958   0.720   5.765
17403TIP3   OH252085   4.090   9.246   4.333
17403TIP3    H152086   4.165   9.205   4.375
17403TIP3    H252087   4.018   9.184   4.346
17404TIP3   OH252088   7.406   0.231   4.768
17404TIP3    H152089   7.445   0.145   4.785
17404TIP3    H252090   7.469   0.275   4.712
17405TIP3   OH252091   7.579   0.417   5.258
17405TIP3    H152092   7.659   0.443   5.214
17405TIP3    H252093   7.588   0.451   5.347
17406TIP3   OH252094   7.652   0.547   5.489
17406TIP3    H152095   7.577   0.574   5.541
17406TIP3    H252096   7.702   0.627   5.474
17407TIP3   OH252097   6.259   0.298   6.305
17407TIP3    H152098   6.354   0.292   6.300
17407TIP3    H252099   6.232   0.214   6.343
17408TIP3   OH252100   8.095   0.151   6.053
17408TIP3    H152101   8.155   0.088   6.014
17408TIP3    H252102   8.070   0.208   5.981
17409TIP3   OH252103   4.259   9.229   4.810
17409TIP3    H152104   4.307   9.219   4.892
17409TIP3    H252105   4.198   9.156   4.809
17410TIP3   OH252106   2.954   9.216   5.634
17410TIP3    H152107   3.015   9.143   5.641
17410TIP3    H252108   3.010   9.293   5.622
17411TIP3   OH252109   6.026   0.264   5.708
17411TIP3    H152110   6.073   0.250   5.625
17411TIP3    H252111   6.049   0.353   5.733
17412TIP3   OH252112   7.968   0.296   5.859
17412TIP3    H152113   7.882   0.334   5.879
17412TIP3    H252114   7.948   0.222   5.802
17413TIP3   OH252115   4.339   9.174   4.432
17413TIP3    H152116   4.377   9.096   4.391
17413TIP3    H252117   4.411   9.237   4.436
17414TIP3   OH252118   2.743   8.997   5.204
17414TIP3    H152119   2.654   9.000   5.238
17414TIP3    H252120   2.743   9.058   5.131
17415TIP3   OH252121   2.962   9.082   6.021
17415TIP3    H152122   2.912   9.074   6.102
17415TIP3    H252123   2.899   9.115   5.957
17416TIP3   OH252124   7.866   0.054   5.738
17416TIP3    H152125   7.776   0.050   5.706
17416TIP3    H252126   7.899  -0.035   5.728
17417TIP3   OH252127   3.809   9.210   5.359
17417TIP3    H152128   3.761   9.145   5.410
17417TIP3    H252129   3.878   9.160   5.314
17418TIP3   OH252130   4.329   9.091   5.261
17418TIP3    H152131   4.365   9.143   5.189
17418TIP3    H252132   4.235   9.108   5.257
17419TIP3   OH252133   4.427   9.195   5.025
17419TIP3    H152134   4.497   9.141   4.989
17419TIP3    H252135   4.457   9.285   5.013
17420TIP3   OH252136   3.051   8.916   5.376
17420TIP3    H152137   2.961   8.884   5.378
17420TIP3    H252138   3.105   8.837   5.370
17421TIP3   OH252139   2.798   8.807   5.007
17421TIP3    H152140   2.867   8.840   4.950
17421TIP3    H252141   2.806   8.859   5.087
17422TIP3   OH252142   3.495   8.957   5.254
17422TIP3    H152143   3.554   9.005   5.196
17422TIP3    H252144   3.517   8.988   5.342
17423TIP3   OH252145   4.048   9.095   5.238
17423TIP3    H152146   4.042   9.059   5.150
17423TIP3    H252147   4.033   9.020   5.296
17424TIP3   OH252148   4.072   9.019   4.802
17424TIP3    H152149   3.988   9.062   4.814
17424TIP3    H252150   4.063   8.935   4.847
17425TIP3   OH252151   2.960   8.957   4.779
17425TIP3    H152152   3.005   8.886   4.732
17425TIP3    H252153   3.031   9.007   4.819
17426TIP3   OH252154   3.472   9.127   4.885
17426TIP3    H152155   3.526   9.074   4.943
17426TIP3    H252156   3.491   9.218   4.910
17427TIP3   OH252157   3.263   9.200   6.269
17427TIP3    H152158   3.228   9.129   6.324
17427TIP3    H252159   3.356   9.203   6.291
17428TIP3   OH252160   3.512   9.197   6.386
17428TIP3    H152161   3.595   9.176   6.342
17428TIP3    H252162   3.500   9.127   6.450
17429TIP3   OH252163   7.604   0.019   6.174
17429TIP3    H152164   7.621  -0.012   6.263
17429TIP3    H252165   7.690   0.015   6.131
17430TIP3   OH252166   7.783   0.467   4.684
17430TIP3    H152167   7.751   0.543   4.734
17430TIP3    H252168   7.709   0.406   4.684
17431TIP3   OH252169   9.620   0.490   4.856
17431TIP3    H152170   9.647   0.570   4.900
17431TIP3    H252171   9.640   0.505   4.763
17432TIP3   OH252172   9.017   0.669   4.884
17432TIP3    H152173   9.059   0.587   4.909
17432TIP3    H252174   8.980   0.651   4.797
17433TIP3   OH252175   8.354   0.329   4.855
17433TIP3    H152176   8.339   0.404   4.798
17433TIP3    H252177   8.306   0.257   4.813
17434TIP3   OH252178   9.053   0.418   4.482
17434TIP3    H152179   9.122   0.402   4.547
17434TIP3    H252180   9.098   0.456   4.407
17435TIP3   OH252181   7.981   0.513   4.972
17435TIP3    H152182   8.065   0.508   5.016
17435TIP3    H252183   7.998   0.481   4.884
17436TIP3   OH252184   8.444   0.732   4.742
17436TIP3    H152185   8.528   0.696   4.772
17436TIP3    H252186   8.393   0.656   4.714
17437TIP3   OH252187   9.700   0.691   5.032
17437TIP3    H152188   9.624   0.738   4.998
17437TIP3    H252189   9.712   0.726   5.121
17438TIP3   OH252190   8.350   0.316   5.293
17438TIP3    H152191   8.292   0.347   5.224
17438TIP3    H252192   8.301   0.331   5.374
17439TIP3   OH252193   9.263   0.424   4.652
17439TIP3    H152194   9.250   0.378   4.736
17439TIP3    H252195   9.311   0.503   4.675
17440TIP3   OH252196   8.224   0.423   5.075
17440TIP3    H152197   8.278   0.500   5.095
17440TIP3    H252198   8.269   0.380   5.002
17441TIP3   OH252199   9.411   0.389   5.021
17441TIP3    H152200   9.325   0.420   4.994
17441TIP3    H252201   9.470   0.422   4.953
17442TIP3   OH252202   8.708   0.033   5.007
17442TIP3    H152203   8.697  -0.061   5.022
17442TIP3    H252204   8.633   0.073   5.051
17443TIP3   OH252205   8.588   0.554   4.005
17443TIP3    H152206   8.637   0.624   4.048
17443TIP3    H252207   8.650   0.516   3.942
17444TIP3   OH252208   9.244   0.917   5.132
17444TIP3    H152209   9.259   1.001   5.090
17444TIP3    H252210   9.156   0.892   5.106
17445TIP3   OH252211   9.340  -0.021   4.107
17445TIP3    H152212   9.261  -0.003   4.158
17445TIP3    H252213   9.356   0.061   4.059
17446TIP3   OH252214   9.469   0.878   5.317
17446TIP3    H152215   9.390   0.875   5.264
17446TIP3    H252216   9.496   0.786   5.325
17447TIP3   OH252217   8.468   0.111   5.134
17447TIP3    H152218   8.382   0.078   5.108
17447TIP3    H252219   8.450   0.193   5.179
17448TIP3   OH252220   9.003   0.225   5.330
17448TIP3    H152221   9.070   0.199   5.393
17448TIP3    H252222   8.920   0.205   5.373
17449TIP3   OH252223   9.244   0.643   5.250
17449TIP3    H152224   9.198   0.636   5.334
17449TIP3    H252225   9.216   0.727   5.214
17450TIP3   OH252226   8.616   0.155   4.106
17450TIP3    H152227   8.585   0.159   4.197
17450TIP3    H252228   8.580   0.074   4.072
17451TIP3   OH252229   8.392   0.630   5.133
17451TIP3    H152230   8.354   0.642   5.220
17451TIP3    H252231   8.380   0.715   5.090
17452TIP3   OH252232   8.286   0.508   4.666
17452TIP3    H152233   8.195   0.485   4.684
17452TIP3    H252234   8.303   0.473   4.579
17453TIP3   OH252235   8.785   0.598   4.395
17453TIP3    H152236   8.706   0.648   4.373
17453TIP3    H252237   8.827   0.583   4.310
17454TIP3   OH252238   8.964   0.855   5.479
17454TIP3    H152239   8.961   0.777   5.534
17454TIP3    H252240   9.048   0.896   5.500
17455TIP3   OH252241   8.923   0.611   4.632
17455TIP3    H152242   8.863   0.634   4.561
17455TIP3    H252243   8.970   0.534   4.600
17456TIP3   OH252244   8.222   0.652   5.389
17456TIP3    H152245   8.186   0.698   5.465
17456TIP3    H252246   8.202   0.560   5.405
17457TIP3   OH252247   8.272   0.130   4.074
17457TIP3    H152248   8.270   0.131   4.170
17457TIP3    H252249   8.195   0.180   4.048
17458TIP3   OH252250   7.815   0.180   4.936
17458TIP3    H152251   7.883   0.211   4.995
17458TIP3    H252252   7.863   0.138   4.864
17459TIP3   OH252253   7.788   0.153   4.457
17459TIP3    H152254   7.850   0.187   4.393
17459TIP3    H252255   7.740   0.231   4.486
17460TIP3   OH252256   8.990   0.855   5.076
17460TIP3    H152257   8.994   0.790   5.006
17460TIP3    H252258   8.919   0.824   5.133
17461TIP3   OH252259   8.611   0.325   4.730
17461TIP3    H152260   8.528   0.329   4.778
17461TIP3    H252261   8.678   0.344   4.796
17462TIP3   OH252262   8.046   0.392   4.731
17462TIP3    H152263   7.954   0.394   4.706
17462TIP3    H252264   8.073   0.301   4.714
17463TIP3   OH252265   8.322   0.384   4.425
17463TIP3    H152266   8.413   0.405   4.405
17463TIP3    H252267   8.273   0.412   4.348
17464TIP3   OH252268   9.100   0.408   4.932
17464TIP3    H152269   9.069   0.421   5.021
17464TIP3    H252270   9.037   0.346   4.894
17465TIP3   OH252271   8.140   0.393   4.206
17465TIP3    H152272   8.074   0.365   4.142
17465TIP3    H252273   8.185   0.466   4.164
17466TIP3   OH252274   8.691   0.635   4.820
17466TIP3    H152275   8.774   0.622   4.775
17466TIP3    H252276   8.711   0.627   4.913
17467TIP3   OH252277   8.215   0.149   4.703
17467TIP3    H152278   8.186   0.071   4.750
17467TIP3    H252279   8.270   0.116   4.632
17468TIP3   OH252280   8.670   0.550   5.125
17468TIP3    H152281   8.585   0.591   5.117
17468TIP3    H252282   8.725   0.616   5.168
17469TIP3   OH252283   8.864   0.272   4.072
17469TIP3    H152284   8.771   0.251   4.082
17469TIP3    H252285   8.870   0.365   4.093
17470TIP3   OH252286   8.938   0.531   4.159
17470TIP3    H152287   9.026   0.514   4.191
17470TIP3    H252288   8.945   0.616   4.115
17471TIP3   OH252289   8.709   0.885   5.579
17471TIP3    H152290   8.669   0.918   5.498
17471TIP3    H252291   8.790   0.844   5.551
17472TIP3   OH252292   9.370   0.588   4.017
17472TIP3    H152293   9.309   0.550   3.953
17472TIP3    H252294   9.383   0.678   3.988
17473TIP3   OH252295   8.189   0.391   5.508
17473TIP3    H152296   8.094   0.395   5.522
17473TIP3    H252297   8.221   0.336   5.579
17474TIP3   OH252298   9.027   0.463   5.192
17474TIP3    H152299   9.109   0.497   5.228
17474TIP3    H252300   9.012   0.382   5.242
17475TIP3   OH252301   8.912   0.213   4.351
17475TIP3    H152302   8.898   0.237   4.260
17475TIP3    H252303   8.950   0.292   4.391
17476TIP3   OH252304   8.607   0.392   4.459
17476TIP3    H152305   8.673   0.459   4.442
17476TIP3    H252306   8.605   0.382   4.554
17477TIP3   OH252307   8.859   0.706   5.264
17477TIP3    H152308   8.891   0.759   5.337
17477TIP3    H252309   8.912   0.627   5.267
17478TIP3   OH252310   8.746   0.122   4.560
17478TIP3    H152311   8.732   0.195   4.619
17478TIP3    H252312   8.804   0.156   4.492
17479TIP3   OH252313   8.258   0.117   4.350
17479TIP3    H152314   8.251   0.208   4.379
17479TIP3    H252315   8.351   0.097   4.358
17480TIP3   OH252316   9.511   0.612   5.247
17480TIP3    H152317   9.416   0.605   5.257
17480TIP3    H252318   9.528   0.578   5.159
17481TIP3   OH252319   9.151   0.787   4.616
17481TIP3    H152320   9.082   0.730   4.649
17481TIP3    H252321   9.227   0.766   4.670
17482TIP3   OH252322   7.832   0.309   4.234
17482TIP3    H152323   7.836   0.404   4.236
17482TIP3    H252324   7.738   0.289   4.235
17483TIP3   OH252325   4.938   9.267   5.110
17483TIP3    H152326   4.907   9.236   5.025
17483TIP3    H252327   4.929   9.191   5.168
17484TIP3   OH252328   8.187   0.911   5.717
17484TIP3    H152329   8.234   0.837   5.755
17484TIP3    H252330   8.174   0.971   5.790
17485TIP3   OH252331   8.495   0.749   5.370
17485TIP3    H152332   8.402   0.758   5.390
17485TIP3    H252333   8.503   0.776   5.278
17486TIP3   OH252334   8.301   0.553   4.056
17486TIP3    H152335   8.275   0.505   3.977
17486TIP3    H252336   8.397   0.551   4.054
17487TIP3   OH252337   8.615   0.577   5.541
17487TIP3    H152338   8.619   0.495   5.491
17487TIP3    H252339   8.574   0.639   5.481
17488TIP3   OH252340   8.611   0.381   5.339
17488TIP3    H152341   8.639   0.429   5.261
17488TIP3    H252342   8.518   0.362   5.323
17489TIP3   OH252343   9.233   0.899   5.589
17489TIP3    H152344   9.250   0.809   5.615
17489TIP3    H252345   9.319   0.934   5.566
17490TIP3   OH252346   8.470   0.720   5.753
17490TIP3    H152347   8.413   0.644   5.767
17490TIP3    H252348   8.520   0.698   5.674
17491TIP3   OH252349   8.742   0.150   5.403
17491TIP3    H152350   8.697   0.232   5.382
17491TIP3    H252351   8.675   0.083   5.394
17492TIP3   OH252352   8.875   0.641   5.623
17492TIP3    H152353   8.870   0.637   5.718
17492TIP3    H252354   8.786   0.619   5.593
17493TIP3   OH252355   9.114   0.598   5.482
17493TIP3    H152356   9.037   0.592   5.538
17493TIP3    H252357   9.187   0.569   5.538
17494TIP3   OH252358   9.342   0.546   5.633
17494TIP3    H152359   9.353   0.452   5.651
17494TIP3    H252360   9.336   0.586   5.720
17495TIP3   OH252361   8.324   0.494   5.814
17495TIP3    H152362   8.331   0.405   5.778
17495TIP3    H252363   8.359   0.487   5.903
17496TIP3   OH252364   8.838   0.161   5.660
17496TIP3    H152365   8.905   0.092   5.658
17496TIP3    H252366   8.797   0.157   5.574
17497TIP3   OH252367   8.903   0.377   5.821
17497TIP3    H152368   8.881   0.307   5.759
17497TIP3    H252369   8.827   0.435   5.818
17498TIP3   OH252370   9.204   0.513   3.814
17498TIP3    H152371   9.185   0.538   3.723
17498TIP3    H252372   9.183   0.420   3.818
17499TIP3   OH252373   9.243   0.765   4.365
17499TIP3    H152374   9.246   0.669   4.373
17499TIP3    H252375   9.221   0.795   4.453
17500TIP3   OH252376   9.680   1.036   5.251
17500TIP3    H152377   9.605   0.981   5.275
17500TIP3    H252378   9.755   0.977   5.252
17501TIP3   OH252379   9.153   0.249   3.809
17501TIP3    H152380   9.229   0.217   3.857
17501TIP3    H252381   9.082   0.188   3.831
17502TIP3   OH252382   9.204   0.489   4.256
17502TIP3    H152383   9.244   0.404   4.271
17502TIP3    H252384   9.261   0.532   4.192
17503TIP3   OH252385   9.375   0.673   4.746
17503TIP3    H152386   9.455   0.699   4.701
17503TIP3    H252387   9.385   0.708   4.835
17504TIP3   OH252388   9.449   0.803   4.976
17504TIP3    H152389   9.374   0.831   5.028
17504TIP3    H252390   9.499   0.883   4.960
17505TIP3   OH252391   8.056   0.553   5.788
17505TIP3    H152392   8.151   0.549   5.787
17505TIP3    H252393   8.029   0.470   5.828
17506TIP3   OH252394   0.089   0.406   5.539
17506TIP3    H152395   0.150   0.344   5.499
17506TIP3    H252396   0.065   0.465   5.468
17507TIP3   OH252397   9.322   0.247   4.299
17507TIP3    H152398   9.370   0.235   4.380
17507TIP3    H252399   9.261   0.173   4.296
17508TIP3   OH252400   8.018   0.232   5.117
17508TIP3    H152401   8.081   0.161   5.127
17508TIP3    H252402   8.072   0.311   5.108
17509TIP3   OH252403   7.823   0.519   5.194
17509TIP3    H152404   7.870   0.508   5.112
17509TIP3    H252405   7.842   0.609   5.221
17510TIP3   OH252406   9.765   0.552   5.346
17510TIP3    H152407   9.681   0.592   5.368
17510TIP3    H252408   9.742   0.479   5.289
17511TIP3   OH252409   9.402   0.188   3.925
17511TIP3    H152410   9.442   0.116   3.876
17511TIP3    H252411   9.469   0.257   3.925
17512TIP3   OH252412   7.805   0.011   4.686
17512TIP3    H152413   7.715   0.010   4.720
17512TIP3    H252414   7.801   0.069   4.610
17513TIP3   OH252415   8.024   0.095   5.505
17513TIP3    H152416   7.977   0.089   5.588
17513TIP3    H252417   7.961   0.133   5.444
17514TIP3   OH252418   9.663   0.312   5.224
17514TIP3    H152419   9.573   0.311   5.193
17514TIP3    H252420   9.693   0.222   5.213
17515TIP3   OH252421   8.875   0.228   4.848
17515TIP3    H152422   8.825   0.163   4.898
17515TIP3    H252423   8.940   0.177   4.801
17516TIP3   OH252424   9.394   0.108   4.748
17516TIP3    H152425   9.429   0.160   4.676
17516TIP3    H252426   9.299   0.125   4.747
17517TIP3   OH252427   9.491   0.208   4.512
17517TIP3    H152428   9.559   0.155   4.472
17517TIP3    H252429   9.519   0.298   4.500
17518TIP3   OH252430   4.849   9.173   4.861
17518TIP3    H152431   4.758   9.143   4.864
17518TIP3    H252432   4.901   9.092   4.859
17519TIP3   OH252433   4.628   9.048   4.505
17519TIP3    H152434   4.667   9.103   4.437
17519TIP3    H252435   4.607   9.109   4.576
17520TIP3   OH252436   5.294   9.210   4.742
17520TIP3    H152437   5.351   9.259   4.683
17520TIP3    H252438   5.312   9.247   4.829
17521TIP3   OH252439   9.112   0.112   4.726
17521TIP3    H152440   9.103   0.080   4.636
17521TIP3    H252441   9.096   0.036   4.780
17522TIP3   OH252442   9.135   0.036   4.289
17522TIP3    H152443   9.051   0.081   4.299
17522TIP3    H252444   9.123  -0.048   4.335
17523TIP3   OH252445   4.756   9.210   4.271
17523TIP3    H152446   4.800   9.144   4.216
17523TIP3    H252447   4.827   9.262   4.307
17524TIP3   OH252448   8.535   0.143   4.373
17524TIP3    H152449   8.592   0.094   4.432
17524TIP3    H252450   8.551   0.235   4.395
17525TIP3   OH252451   8.326   0.215   5.754
17525TIP3    H152452   8.289   0.147   5.809
17525TIP3    H252453   8.418   0.220   5.778
17526TIP3   OH252454   8.574   0.213   5.871
17526TIP3    H152455   8.658   0.191   5.832
17526TIP3    H252456   8.561   0.145   5.938
17527TIP3   OH252457   9.400   0.274   5.661
17527TIP3    H152458   9.416   0.245   5.751
17527TIP3    H252459   9.486   0.271   5.619
17528TIP3   OH252460   9.574   0.727   4.165
17528TIP3    H152461   9.539   0.799   4.216
17528TIP3    H252462   9.501   0.665   4.157
17529TIP3   OH252463   1.017   0.938   4.377
17529TIP3    H152464   1.053   0.852   4.395
17529TIP3    H252465   0.983   0.932   4.288
17530TIP3   OH252466   0.327   0.583   4.351
17530TIP3    H152467   0.385   0.619   4.284
17530TIP3    H252468   0.269   0.524   4.303
17531TIP3   OH252469   1.046   0.668   3.977
17531TIP3    H152470   1.118   0.650   4.039
17531TIP3    H252471   1.087   0.719   3.907
17532TIP3   OH252472  -0.024   0.772   4.467
17532TIP3    H152473   0.063   0.770   4.506
17532TIP3    H252474  -0.013   0.731   4.381
17533TIP3   OH252475   0.427   0.967   4.255
17533TIP3    H152476   0.520   0.960   4.275
17533TIP3    H252477   0.409   0.897   4.193
17534TIP3   OH252478   0.345   0.570   4.783
17534TIP3    H152479   0.291   0.604   4.712
17534TIP3    H252480   0.294   0.589   4.862
17535TIP3   OH252481   1.265   0.675   4.142
17535TIP3    H152482   1.235   0.630   4.222
17535TIP3    H252483   1.343   0.723   4.169
17536TIP3   OH252484   0.218   0.685   4.572
17536TIP3    H152485   0.278   0.759   4.585
17536TIP3    H252486   0.249   0.644   4.491
17537TIP3   OH252487   1.405   0.650   4.498
17537TIP3    H152488   1.312   0.670   4.492
17537TIP3    H252489   1.442   0.681   4.414
17538TIP3   OH252490   0.712   0.299   4.500
17538TIP3    H152491   0.687   0.208   4.484
17538TIP3    H252492   0.634   0.339   4.538
17539TIP3   OH252493   0.583   0.799   3.493
17539TIP3    H152494   0.626   0.866   3.544
17539TIP3    H252495   0.649   0.770   3.429
17540TIP3   OH252496   1.330   0.233   3.591
17540TIP3    H152497   1.254   0.247   3.647
17540TIP3    H252498   1.346   0.319   3.551
17541TIP3   OH252499   0.466   0.363   4.621
17541TIP3    H152500   0.377   0.336   4.595
17541TIP3    H252501   0.456   0.453   4.652
17542TIP3   OH252502   0.999   0.480   4.815
17542TIP3    H152503   1.065   0.457   4.881
17542TIP3    H252504   0.916   0.463   4.858
17543TIP3   OH252505   1.252   0.914   4.738
17543TIP3    H152506   1.205   0.901   4.820
17543TIP3    H252507   1.203   0.982   4.693
17544TIP3   OH252508   0.609   0.415   3.592
17544TIP3    H152509   0.580   0.424   3.683
17544TIP3    H252510   0.572   0.331   3.564
17545TIP3   OH252511   0.391   0.892   4.630
17545TIP3    H152512   0.330   0.907   4.703
17545TIP3    H252513   0.376   0.965   4.570
17546TIP3   OH252514   0.805   0.891   3.877
17546TIP3    H152515   0.711   0.909   3.871
17546TIP3    H252516   0.823   0.832   3.804
17547TIP3   OH252517   0.956   1.115   4.969
17547TIP3    H152518   0.954   1.035   5.021
17547TIP3    H252519   1.046   1.148   4.979
17548TIP3   OH252520   0.918   0.873   4.122
17548TIP3    H152521   0.868   0.900   4.045
17548TIP3    H252522   0.963   0.793   4.095
17549TIP3   OH252523   0.226   0.913   4.876
17549TIP3    H152524   0.186   0.957   4.951
17549TIP3    H252525   0.202   0.821   4.886
17550TIP3   OH252526   0.265   0.387   3.559
17550TIP3    H152527   0.268   0.386   3.655
17550TIP3    H252528   0.191   0.443   3.538
17551TIP3   OH252529   9.614   0.430   4.428
17551TIP3    H152530   9.680   0.471   4.485
17551TIP3    H252531   9.660   0.414   4.346
17552TIP3   OH252532   9.585   0.412   3.947
17552TIP3    H152533   9.633   0.445   3.871
17552TIP3    H252534   9.527   0.484   3.972
17553TIP3   OH252535   0.955   1.128   4.572
17553TIP3    H152536   0.984   1.071   4.501
17553TIP3    H252537   0.900   1.072   4.627
17554TIP3   OH252538   0.029   0.635   4.242
17554TIP3    H152539  -0.049   0.648   4.188
17554TIP3    H252540   0.080   0.569   4.195
17555TIP3   OH252541   1.100   0.660   4.421
17555TIP3    H152542   1.065   0.681   4.508
17555TIP3    H252543   1.035   0.602   4.382
17556TIP3   OH252544   0.136   0.630   3.689
17556TIP3    H152545   0.077   0.622   3.615
17556TIP3    H252546   0.174   0.718   3.680
17557TIP3   OH252547   0.689   0.915   4.307
17557TIP3    H152548   0.759   0.879   4.253
17557TIP3    H252549   0.708   0.884   4.395
17558TIP3   OH252550   0.200   0.414   4.179
17558TIP3    H152551   0.200   0.324   4.210
17558TIP3    H252552   0.280   0.422   4.128
17559TIP3   OH252553   0.665   0.804   4.621
17559TIP3    H152554   0.581   0.846   4.602
17559TIP3    H252555   0.720   0.874   4.655
17560TIP3   OH252556   0.860   0.521   3.564
17560TIP3    H152557   0.766   0.499   3.570
17560TIP3    H252558   0.864   0.614   3.582
17561TIP3   OH252559   0.938   0.777   3.639
17561TIP3    H152560   1.030   0.755   3.653
17561TIP3    H252561   0.940   0.852   3.580
17562TIP3   OH252562   0.701   1.148   5.063
17562TIP3    H152563   0.650   1.149   4.983
17562TIP3    H252564   0.783   1.105   5.038
17563TIP3   OH252565   0.184   0.648   4.996
17563TIP3    H152566   0.089   0.655   5.009
17563TIP3    H252567   0.215   0.595   5.069
17564TIP3   OH252568   1.027   0.721   4.681
17564TIP3    H152569   1.106   0.754   4.724
17564TIP3    H252570   1.006   0.640   4.727
17565TIP3   OH252571   0.909   0.463   3.840
17565TIP3    H152572   0.893   0.488   3.749
17565TIP3    H252573   0.948   0.541   3.880
17566TIP3   OH252574   0.853   0.958   4.757
17566TIP3    H152575   0.888   1.014   4.826
17566TIP3    H252576   0.910   0.881   4.756
17567TIP3   OH252577   0.745   0.384   4.050
17567TIP3    H152578   0.718   0.465   4.093
17567TIP3    H252579   0.801   0.412   3.978
17568TIP3   OH252580   0.255   0.372   3.833
17568TIP3    H152581   0.234   0.462   3.860
17568TIP3    H252582   0.349   0.364   3.847
17569TIP3   OH252583   1.525   0.865   4.712
17569TIP3    H152584   1.437   0.886   4.742
17569TIP3    H252585   1.512   0.827   4.625
17570TIP3   OH252586   9.606   0.565   3.718
17570TIP3    H152587   9.626   0.658   3.716
17570TIP3    H252588   9.515   0.560   3.688
17571TIP3   OH252589   0.204   0.283   4.597
17571TIP3    H152590   0.170   0.262   4.510
17571TIP3    H252591   0.176   0.210   4.652
17572TIP3   OH252592   0.183   1.166   5.203
17572TIP3    H152593   0.229   1.092   5.242
17572TIP3    H252594   0.169   1.227   5.275
17573TIP3   OH252595   0.494   1.016   4.860
17573TIP3    H152596   0.400   1.006   4.875
17573TIP3    H252597   0.504   1.014   4.765
17574TIP3   OH252598   0.295   0.825   3.534
17574TIP3    H152599   0.264   0.754   3.478
17574TIP3    H252600   0.389   0.809   3.542
17575TIP3   OH252601   0.612   0.834   5.025
17575TIP3    H152602   0.614   0.753   4.974
17575TIP3    H252603   0.573   0.899   4.966
17576TIP3   OH252604   0.606   0.635   4.828
17576TIP3    H152605   0.634   0.687   4.752
17576TIP3    H252606   0.513   0.618   4.812
17577TIP3   OH252607   0.471   0.974   5.239
17577TIP3    H152608   0.408   0.903   5.254
17577TIP3    H252609   0.515   0.950   5.157
17578TIP3   OH252610   0.738   0.406   4.892
17578TIP3    H152611   0.695   0.489   4.870
17578TIP3    H252612   0.670   0.340   4.879
17579TIP3   OH252613   0.869   0.897   5.107
17579TIP3    H152614   0.862   0.889   5.202
17579TIP3    H252615   0.782   0.875   5.074
17580TIP3   OH252616   1.110   0.857   4.963
17580TIP3    H152617   1.033   0.849   5.019
17580TIP3    H252618   1.183   0.838   5.022
17581TIP3   OH252619   1.317   0.802   5.133
17581TIP3    H152620   1.340   0.709   5.138
17581TIP3    H252621   1.292   0.826   5.222
17582TIP3   OH252622   0.318   0.750   5.299
17582TIP3    H152623   0.328   0.662   5.263
17582TIP3    H252624   0.353   0.744   5.388
17583TIP3   OH252625   0.836   0.417   5.147
17583TIP3    H152626   0.902   0.348   5.144
17583TIP3    H252627   0.794   0.414   5.061
17584TIP3   OH252628   0.896   0.632   5.311
17584TIP3    H152629   0.877   0.562   5.248
17584TIP3    H252630   0.821   0.691   5.304
17585TIP3   OH252631   1.135   0.531   3.314
17585TIP3    H152632   1.223   0.504   3.340
17585TIP3    H252633   1.084   0.451   3.314
17586TIP3   OH252634   0.051   0.809   5.274
17586TIP3    H152635   0.146   0.807   5.273
17586TIP3    H252636   0.025   0.726   5.315
17587TIP3   OH252637   1.280   0.519   3.810
17587TIP3    H152638   1.347   0.499   3.876
17587TIP3    H252639   1.234   0.436   3.796
17588TIP3   OH252640   0.016   0.491   4.614
17588TIP3    H152641   0.084   0.423   4.615
17588TIP3    H252642   0.064   0.572   4.598
17589TIP3   OH252643   9.619   0.776   4.685
17589TIP3    H152644   9.665   0.763   4.602
17589TIP3    H252645   9.636   0.867   4.707
17590TIP3   OH252646   9.600   0.261   4.170
17590TIP3    H152647   9.510   0.268   4.203
17590TIP3    H252648   9.603   0.324   4.098
17591TIP3   OH252649   9.818   0.344   4.987
17591TIP3    H152650   9.774   0.346   5.072
17591TIP3    H252651   9.759   0.391   4.929
17592TIP3   OH252652   1.664   0.566   4.716
17592TIP3    H152653   1.580   0.589   4.677
17592TIP3    H252654   1.680   0.476   4.686
17593TIP3   OH252655   0.892   0.486   4.349
17593TIP3    H152656   0.821   0.434   4.386
17593TIP3    H252657   0.932   0.429   4.282
17594TIP3   OH252658   1.394   0.372   4.236
17594TIP3    H152659   1.427   0.422   4.162
17594TIP3    H252660   1.299   0.379   4.230
17595TIP3   OH252661   1.490   0.478   4.000
17595TIP3    H152662   1.552   0.416   3.961
17595TIP3    H252663   1.527   0.564   3.980
17596TIP3   OH252664   0.109   0.187   4.359
17596TIP3    H152665   0.016   0.166   4.352
17596TIP3    H252666   0.155   0.108   4.330
17597TIP3   OH252667   9.702   0.063   3.996
17597TIP3    H152668   9.732   0.118   3.924
17597TIP3    H252669   9.670   0.124   4.062
17598TIP3   OH252670   0.565   0.221   4.237
17598TIP3    H152671   0.607   0.269   4.165
17598TIP3    H252672   0.557   0.286   4.307
17599TIP3   OH252673   1.122   0.364   4.208
17599TIP3    H152674   1.095   0.340   4.119
17599TIP3    H252675   1.094   0.290   4.262
17600TIP3   OH252676   1.128   0.287   3.773
17600TIP3    H152677   1.046   0.335   3.784
17600TIP3    H252678   1.113   0.204   3.818
17601TIP3   OH252679   0.018   0.221   3.760
17601TIP3    H152680   0.065   0.162   3.702
17601TIP3    H252681   0.086   0.279   3.796
17602TIP3   OH252682   0.532   0.413   3.858
17602TIP3    H152683   0.596   0.373   3.917
17602TIP3    H252684   0.502   0.490   3.905
17603TIP3   OH252685   0.323   0.468   5.237
17603TIP3    H152686   0.285   0.403   5.296
17603TIP3    H252687   0.414   0.475   5.264
17604TIP3   OH252688   0.569   0.468   5.358
17604TIP3    H152689   0.655   0.447   5.320
17604TIP3    H252690   0.556   0.401   5.425
17605TIP3   OH252691   1.396   0.533   5.147
17605TIP3    H152692   1.413   0.505   5.237
17605TIP3    H252693   1.480   0.526   5.103
17606TIP3   OH252694   6.008   5.811   0.793
17606TIP3    H152695   6.015   5.904   0.770
17606TIP3    H252696   6.094   5.774   0.770
17607TIP3   OH252697   6.028   6.094   0.769
17607TIP3    H152698   6.066   6.163   0.714
17607TIP3    H252699   5.941   6.127   0.791
17608TIP3   OH252700   5.692   5.869   0.767
17608TIP3    H152701   5.731   5.805   0.827
17608TIP3    H252702   5.731   5.849   0.682
17609TIP3   OH252703   7.344   5.642   1.061
17609TIP3    H152704   7.347   5.730   1.022
17609TIP3    H252705   7.328   5.584   0.987
17610TIP3   OH252706   7.699   5.946   1.109
17610TIP3    H152707   7.706   5.881   1.180
17610TIP3    H252708   7.729   6.028   1.149
17611TIP3   OH252709   7.353   6.409   1.130
17611TIP3    H152710   7.412   6.351   1.081
17611TIP3    H252711   7.390   6.412   1.218
17612TIP3   OH252712   7.340   5.871   0.929
17612TIP3    H152713   7.330   5.856   0.835
17612TIP3    H252714   7.319   5.963   0.941
17613TIP3   OH252715   7.514   6.258   0.972
17613TIP3    H152716   7.539   6.173   0.938
17613TIP3    H252717   7.563   6.321   0.920
17614TIP3   OH252718   7.613   6.031   0.856
17614TIP3    H152719   7.618   5.963   0.789
17614TIP3    H252720   7.655   5.993   0.933
17615TIP3   OH252721   7.297   5.507   0.840
17615TIP3    H152722   7.209   5.536   0.813
17615TIP3    H252723   7.344   5.497   0.757
17616TIP3   OH252724   7.266   5.300   0.601
17616TIP3    H152725   7.346   5.342   0.633
17616TIP3    H252726   7.298   5.225   0.550
17617TIP3   OH252727   7.652   5.593   0.857
17617TIP3    H152728   7.613   5.600   0.944
17617TIP3    H252729   7.742   5.564   0.873
17618TIP3   OH252730   7.505   5.443   0.669
17618TIP3    H152731   7.559   5.502   0.723
17618TIP3    H252732   7.527   5.467   0.579
17619TIP3   OH252733   7.249   6.126   0.946
17619TIP3    H152734   7.304   6.198   0.977
17619TIP3    H252735   7.171   6.169   0.912
17620TIP3   OH252736   7.811   6.065   0.276
17620TIP3    H152737   7.816   6.159   0.257
17620TIP3    H252738   7.900   6.033   0.263
17621TIP3   OH252739   7.120   6.384   0.752
17621TIP3    H152740   7.070   6.362   0.673
17621TIP3    H252741   7.085   6.469   0.779
17622TIP3   OH252742   7.320   6.279   0.396
17622TIP3    H152743   7.376   6.213   0.356
17622TIP3    H252744   7.355   6.291   0.484
17623TIP3   OH252745   7.369   6.330   0.668
17623TIP3    H152746   7.281   6.344   0.702
17623TIP3    H252747   7.411   6.272   0.731
17624TIP3   OH252748   7.575   5.504   0.417
17624TIP3    H152749   7.532   5.479   0.335
17624TIP3    H252750   7.654   5.552   0.389
17625TIP3   OH252751   7.462   5.320   0.968
17625TIP3    H152752   7.411   5.378   0.912
17625TIP3    H252753   7.513   5.266   0.908
17626TIP3   OH252754   6.793   5.149   0.810
17626TIP3    H152755   6.748   5.092   0.748
17626TIP3    H252756   6.873   5.176   0.764
17627TIP3   OH252757   7.060   5.663   0.824
17627TIP3    H152758   6.996   5.601   0.786
17627TIP3    H252759   7.048   5.654   0.918
17628TIP3   OH252760   7.604   5.195   0.773
17628TIP3    H152761   7.697   5.208   0.791
17628TIP3    H252762   7.581   5.266   0.713
17629TIP3   OH252763   7.224   5.820   0.661
17629TIP3    H152764   7.180   5.905   0.660
17629TIP3    H252765   7.166   5.763   0.711
17630TIP3   OH252766   8.043   5.314   0.626
17630TIP3    H152767   7.987   5.263   0.567
17630TIP3    H252768   8.044   5.402   0.587
17631TIP3   OH252769   7.740   6.130   0.535
17631TIP3    H152770   7.729   6.051   0.588
17631TIP3    H252771   7.761   6.098   0.447
17632TIP3   OH252772   6.770   6.234   0.965
17632TIP3    H152773   6.703   6.240   1.033
17632TIP3    H252774   6.818   6.317   0.971
17633TIP3   OH252775   7.500   5.861   0.442
17633TIP3    H152776   7.549   5.840   0.522
17633TIP3    H252777   7.411   5.834   0.461
17634TIP3   OH252778   7.837   6.341   0.258
17634TIP3    H152779   7.882   6.406   0.205
17634TIP3    H252780   7.758   6.386   0.288
17635TIP3   OH252781   7.665   5.810   0.673
17635TIP3    H152782   7.649   5.734   0.729
17635TIP3    H252783   7.756   5.802   0.646
17636TIP3   OH252784   6.869   5.841   0.438
17636TIP3    H152785   6.878   5.751   0.406
17636TIP3    H252786   6.845   5.831   0.530
17637TIP3   OH252787   6.810   5.851   0.708
17637TIP3    H152788   6.878   5.819   0.767
17637TIP3    H252789   6.816   5.947   0.714
17638TIP3   OH252790   7.080   6.051   0.664
17638TIP3    H152791   6.992   6.072   0.695
17638TIP3    H252792   7.095   6.112   0.592
17639TIP3   OH252793   6.822   6.124   0.721
17639TIP3    H152794   6.790   6.190   0.659
17639TIP3    H252795   6.800   6.160   0.807
17640TIP3   OH252796   6.536   5.767   0.709
17640TIP3    H152797   6.608   5.829   0.723
17640TIP3    H252798   6.577   5.695   0.659
17641TIP3   OH252799   7.814   6.572   1.135
17641TIP3    H152800   7.740   6.518   1.106
17641TIP3    H252801   7.862   6.515   1.196
17642TIP3   OH252802   7.032   6.045   0.354
17642TIP3    H152803   6.975   5.976   0.389
17642TIP3    H252804   7.106   5.998   0.315
17643TIP3   OH252805   7.467   6.090   0.262
17643TIP3    H152806   7.516   6.030   0.319
17643TIP3    H252807   7.518   6.092   0.181
17644TIP3   OH252808   6.677   5.565   0.573
17644TIP3    H152809   6.727   5.533   0.648
17644TIP3    H252810   6.741   5.569   0.502
17645TIP3   OH252811   7.188   5.765   0.384
17645TIP3    H152812   7.184   5.778   0.479
17645TIP3    H252813   7.189   5.669   0.374
17646TIP3   OH252814   6.872   5.475   0.766
17646TIP3    H152815   6.877   5.446   0.857
17646TIP3    H252816   6.901   5.399   0.715
17647TIP3   OH252817   6.985   5.265   0.636
17647TIP3    H152818   6.958   5.257   0.545
17647TIP3    H252819   7.081   5.264   0.632
17648TIP3   OH252820   7.805   5.594   0.294
17648TIP3    H152821   7.786   5.547   0.213
17648TIP3    H252822   7.778   5.684   0.277
17649TIP3   OH252823   6.791   6.329   0.534
17649TIP3    H152824   6.886   6.319   0.525
17649TIP3    H252825   6.765   6.374   0.454
17650TIP3   OH252826   6.263   5.713   0.721
17650TIP3    H152827   6.355   5.736   0.737
17650TIP3    H252828   6.265   5.620   0.702
17651TIP3   OH252829   7.938   5.782   0.631
17651TIP3    H152830   8.002   5.845   0.597
17651TIP3    H252831   7.981   5.743   0.707
17652TIP3   OH252832   8.065   5.651   0.833
17652TIP3    H152833   8.009   5.605   0.896
17652TIP3    H252834   8.139   5.682   0.885
17653TIP3   OH252835   8.106   6.031   1.194
17653TIP3    H152836   8.180   5.971   1.187
17653TIP3    H252837   8.137   6.112   1.153
17654TIP3   OH252838   7.999   5.553   0.483
17654TIP3    H152839   7.935   5.559   0.413
17654TIP3    H252840   7.982   5.629   0.539
17655TIP3   OH252841   7.882   5.221   0.429
17655TIP3    H152842   7.842   5.294   0.382
17655TIP3    H252843   7.842   5.143   0.390
17656TIP3   OH252844   7.880   5.500   0.984
17656TIP3    H152845   7.884   5.405   0.969
17656TIP3    H252846   7.865   5.509   1.078
17657TIP3   OH252847   7.867   5.230   0.833
17657TIP3    H152848   7.909   5.188   0.908
17657TIP3    H252849   7.940   5.252   0.774
17658TIP3   OH252850   7.648   6.438   0.819
17658TIP3    H152851   7.673   6.399   0.736
17658TIP3    H252852   7.693   6.523   0.821
17659TIP3   OH252853   6.251   6.051   0.919
17659TIP3    H152854   6.175   6.028   0.865
17659TIP3    H252855   6.272   6.141   0.894
17660TIP3   OH252856   7.059   6.284   0.484
17660TIP3    H152857   7.147   6.309   0.453
17660TIP3    H252858   7.035   6.210   0.429
17661TIP3   OH252859   7.765   6.397   0.579
17661TIP3    H152860   7.764   6.303   0.564
17661TIP3    H252861   7.733   6.435   0.497
17662TIP3   OH252862   6.373   6.140   0.542
17662TIP3    H152863   6.363   6.143   0.638
17662TIP3    H252864   6.452   6.087   0.528
17663TIP3   OH252865   9.266   5.919   0.538
17663TIP3    H152866   9.248   6.012   0.519
17663TIP3    H252867   9.188   5.873   0.507
17664TIP3   OH252868   9.275   5.918   0.911
17664TIP3    H152869   9.299   5.888   0.999
17664TIP3    H252870   9.225   5.845   0.874
17665TIP3   OH252871   8.576   5.846   1.286
17665TIP3    H152872   8.586   5.788   1.362
17665TIP3    H252873   8.662   5.846   1.244
17666TIP3   OH252874   9.509   6.219   0.598
17666TIP3    H152875   9.499   6.151   0.665
17666TIP3    H252876   9.542   6.295   0.647
17667TIP3   OH252877   8.546   6.221   1.021
17667TIP3    H152878   8.532   6.126   1.018
17667TIP3    H252879   8.636   6.233   0.991
17668TIP3   OH252880   8.235   5.410   0.801
17668TIP3    H152881   8.204   5.500   0.811
17668TIP3    H252882   8.174   5.370   0.740
17669TIP3   OH252883   8.310   5.705   0.948
17669TIP3    H152884   8.355   5.635   0.996
17669TIP3    H252885   8.377   5.742   0.891
17670TIP3   OH252886   9.159   6.677   0.615
17670TIP3    H152887   9.213   6.618   0.562
17670TIP3    H252888   9.164   6.640   0.703
17671TIP3   OH252889   9.068   6.144   0.974
17671TIP3    H152890   9.089   6.077   0.909
17671TIP3    H252891   9.152   6.185   0.995
17672TIP3   OH252892   9.472   5.654   0.997
17672TIP3    H152893   9.528   5.580   1.020
17672TIP3    H252894   9.450   5.640   0.905
17673TIP3   OH252895   8.452   5.509   1.074
17673TIP3    H152896   8.525   5.489   1.132
17673TIP3    H252897   8.468   5.455   0.996
17674TIP3   OH252898   8.896   5.705   0.877
17674TIP3    H152899   8.987   5.676   0.880
17674TIP3    H252900   8.849   5.631   0.839
17675TIP3   OH252901   0.329   5.652   1.140
17675TIP3    H152902   0.262   5.718   1.121
17675TIP3    H252903   0.357   5.672   1.229
17676TIP3   OH252904   9.174   6.144   0.400
17676TIP3    H152905   9.109   6.105   0.342
17676TIP3    H252906   9.136   6.228   0.425
17677TIP3   OH252907   8.925   6.068   1.199
17677TIP3    H152908   8.861   6.134   1.228
17677TIP3    H252909   8.969   6.109   1.125
17678TIP3   OH252910   8.704   5.428   1.172
17678TIP3    H152911   8.778   5.480   1.141
17678TIP3    H252912   8.698   5.355   1.110
17679TIP3   OH252913   8.733   6.261   1.308
17679TIP3    H152914   8.728   6.330   1.242
17679TIP3    H252915   8.655   6.273   1.362
17680TIP3   OH252916   8.137   5.949   0.527
17680TIP3    H152917   8.108   5.975   0.439
17680TIP3    H252918   8.171   6.030   0.565
17681TIP3   OH252919   9.581   6.465   0.770
17681TIP3    H152920   9.492   6.455   0.804
17681TIP3    H252921   9.578   6.546   0.719
17682TIP3   OH252922   9.312   6.518   0.459
17682TIP3    H152923   9.344   6.433   0.430
17682TIP3    H252924   9.359   6.582   0.404
17683TIP3   OH252925   9.428   6.296   0.346
17683TIP3    H152926   9.365   6.229   0.319
17683TIP3    H252927   9.466   6.262   0.427
17684TIP3   OH252928   9.807   6.377   1.106
17684TIP3    H152929   9.799   6.300   1.049
17684TIP3    H252930   9.792   6.452   1.048
17685TIP3   OH252931   9.101   5.767   0.364
17685TIP3    H152932   9.020   5.815   0.348
17685TIP3    H252933   9.148   5.771   0.281
17686TIP3   OH252934   9.058   5.553   0.085
17686TIP3    H152935   9.123   5.606   0.132
17686TIP3    H252936   9.110   5.495   0.030
17687TIP3   OH252937   0.204   6.016   0.955
17687TIP3    H152938   0.122   6.064   0.961
17687TIP3    H252939   0.236   6.034   0.867
17688TIP3   OH252940   9.443   5.852   0.340
17688TIP3    H152941   9.390   5.880   0.415
17688TIP3    H252942   9.525   5.822   0.380
17689TIP3   OH252943   9.680   5.896   1.254
17689TIP3    H152944   9.688   5.978   1.303
17689TIP3    H252945   9.601   5.907   1.201
17690TIP3   OH252946   8.656   5.826   0.774
17690TIP3    H152947   8.630   5.796   0.687
17690TIP3    H252948   8.751   5.812   0.776
17691TIP3   OH252949   8.804   6.245   0.891
17691TIP3    H152950   8.794   6.207   0.804
17691TIP3    H252951   8.893   6.223   0.917
17692TIP3   OH252952   8.804   5.838   1.101
17692TIP3    H152953   8.832   5.813   1.013
17692TIP3    H252954   8.855   5.917   1.120
17693TIP3   OH252955   9.337   6.461   0.886
17693TIP3    H152956   9.331   6.539   0.941
17693TIP3    H252957   9.328   6.388   0.946
17694TIP3   OH252958   8.956   6.393   1.444
17694TIP3    H152959   8.890   6.453   1.478
17694TIP3    H252960   8.906   6.327   1.396
17695TIP3   OH252961   9.297   5.701   0.164
17695TIP3    H152962   9.349   5.760   0.218
17695TIP3    H252963   9.319   5.726   0.074
17696TIP3   OH252964   9.052   6.403   0.401
17696TIP3    H152965   9.100   6.457   0.464
17696TIP3    H252966   8.961   6.432   0.409
17697TIP3   OH252967   8.734   6.537   1.508
17697TIP3    H152968   8.712   6.546   1.415
17697TIP3    H252969   8.656   6.498   1.548
17698TIP3   OH252970   8.547   5.695   0.547
17698TIP3    H152971   8.480   5.736   0.493
17698TIP3    H252972   8.515   5.606   0.562
17699TIP3   OH252973   6.338   1.701   7.755
17699TIP3    H152974   6.344   1.796   7.746
17699TIP3    H252975   6.427   1.670   7.739
17700TIP3   OH252976   8.196   6.280   1.105
17700TIP3    H152977   8.280   6.255   1.064
17700TIP3    H252978   8.216   6.358   1.156
17701TIP3   OH252979   0.249   6.720   1.155
17701TIP3    H152980   0.250   6.625   1.165
17701TIP3    H252981   0.167   6.749   1.195
17702TIP3   OH252982   9.156   6.504   1.291
17702TIP3    H152983   9.155   6.598   1.309
17702TIP3    H252984   9.085   6.469   1.344
17703TIP3   OH252985   8.902   6.642   0.237
17703TIP3    H152986   8.864   6.624   0.151
17703TIP3    H252987   8.877   6.732   0.256
17704TIP3   OH252988   8.345   6.484   0.631
17704TIP3    H152989   8.402   6.477   0.708
17704TIP3    H252990   8.298   6.401   0.629
17705TIP3   OH252991   5.849   1.916   7.885
17705TIP3    H152992   5.906   1.849   7.848
17705TIP3    H252993   5.881   1.928   7.974
17706TIP3   OH252994   9.158   6.586   0.157
17706TIP3    H152995   9.072   6.591   0.199
17706TIP3    H252996   9.211   6.533   0.216
17707TIP3   OH252997   0.147   5.867   1.416
17707TIP3    H152998   0.058   5.881   1.386
17707TIP3    H252999   0.149   5.774   1.440
17708TIP3   OH253000   9.590   5.694   1.418
17708TIP3    H153001   9.651   5.691   1.492
17708TIP3    H253002   9.618   5.770   1.367
17709TIP3   OH253003   6.100   1.127   7.905
17709TIP3    H153004   6.066   1.111   7.817
17709TIP3    H253005   6.169   1.192   7.893
17710TIP3   OH253006   8.912   5.611   1.204
17710TIP3    H153007   8.851   5.622   1.277
17710TIP3    H253008   8.892   5.683   1.145
17711TIP3   OH253009   8.745   5.498   0.770
17711TIP3    H153010   8.661   5.460   0.797
17711TIP3    H253011   8.761   5.460   0.684
17712TIP3   OH253012   9.243   5.573   0.493
17712TIP3    H153013   9.191   5.645   0.459
17712TIP3    H253014   9.293   5.542   0.417
17713TIP3   OH253015   9.397   5.601   0.735
17713TIP3    H153016   9.340   5.643   0.671
17713TIP3    H253017   9.434   5.525   0.690
17714TIP3   OH253018   9.405   5.853   1.163
17714TIP3    H153019   9.438   5.788   1.100
17714TIP3    H253020   9.369   5.800   1.235
17715TIP3   OH253021   8.502   5.361   0.845
17715TIP3    H153022   8.411   5.379   0.823
17715TIP3    H253023   8.517   5.271   0.817
17716TIP3   OH253024   8.792   5.377   0.527
17716TIP3    H153025   8.879   5.358   0.492
17716TIP3    H253026   8.734   5.372   0.451
17717TIP3   OH253027   8.606   5.393   0.303
17717TIP3    H153028   8.551   5.341   0.245
17717TIP3    H253029   8.672   5.433   0.246
17718TIP3   OH253030   9.740   7.074   1.250
17718TIP3    H153031   9.735   7.095   1.157
17718TIP3    H253032   9.818   7.121   1.280
17719TIP3   OH253033   9.163   5.636   0.927
17719TIP3    H153034   9.235   5.601   0.875
17719TIP3    H253035   9.167   5.587   1.009
17720TIP3   OH253036   9.173   5.513   1.183
17720TIP3    H153037   9.081   5.539   1.186
17720TIP3    H253038   9.217   5.573   1.243
17721TIP3   OH253039   8.878   5.913   0.307
17721TIP3    H153040   8.797   5.863   0.302
17721TIP3    H253041   8.865   5.971   0.382
17722TIP3   OH253042   9.772   6.159   0.944
17722TIP3    H153043   9.799   6.207   0.866
17722TIP3    H253044   9.689   6.118   0.919
17723TIP3   OH253045   9.266   6.236   1.310
17723TIP3    H153046   9.283   6.212   1.401
17723TIP3    H253047   9.236   6.327   1.314
17724TIP3   OH253048   9.392   5.456   0.269
17724TIP3    H153049   9.487   5.465   0.281
17724TIP3    H253050   9.367   5.535   0.221
17725TIP3   OH253051   8.559   5.949   0.990
17725TIP3    H153052   8.586   5.923   0.902
17725TIP3    H253053   8.609   5.892   1.048
17726TIP3   OH253054   9.014   6.071   0.127
17726TIP3    H153055   8.972   6.156   0.137
17726TIP3    H253056   8.966   6.013   0.187
17727TIP3   OH253057   9.429   6.494   1.199
17727TIP3    H153058   9.335   6.494   1.213
17727TIP3    H253059   9.465   6.547   1.270
17728TIP3   OH253060   0.045   5.568   0.110
17728TIP3    H153061  -0.014   5.522   0.050
17728TIP3    H253062   0.044   5.659   0.079
17729TIP3   OH253063   0.257   6.427   1.194
17729TIP3    H153064   0.161   6.425   1.188
17729TIP3    H253065   0.286   6.401   1.106
17730TIP3   OH253066   9.524   6.390   0.016
17730TIP3    H153067   9.549   6.335   0.091
17730TIP3    H253068   9.561   6.344  -0.060
17731TIP3   OH253069   9.536   6.019   0.868
17731TIP3    H153070   9.444   5.997   0.877
17731TIP3    H253071   9.574   5.945   0.821
17732TIP3   OH253072   8.227   5.552   0.320
17732TIP3    H153073   8.279   5.631   0.334
17732TIP3    H253074   8.153   5.560   0.380
17733TIP3   OH253075   8.936   6.593   1.086
17733TIP3    H153076   8.968   6.666   1.033
17733TIP3    H253077   9.014   6.557   1.127
17734TIP3   OH253078   8.567   6.506   0.444
17734TIP3    H153079   8.497   6.497   0.509
17734TIP3    H253080   8.605   6.592   0.462
17735TIP3   OH253081   9.325   6.226   1.042
17735TIP3    H153082   9.318   6.222   1.138
17735TIP3    H253083   9.403   6.175   1.022
17736TIP3   OH253084   6.025   1.489   7.930
17736TIP3    H153085   6.085   1.470   8.002
17736TIP3    H253086   5.938   1.477   7.968
17737TIP3   OH253087   9.568   6.764   1.092
17737TIP3    H153088   9.491   6.707   1.082
17737TIP3    H253089   9.559   6.829   1.022
17738TIP3   OH253090   6.367   1.980   7.748
17738TIP3    H153091   6.416   2.051   7.706
17738TIP3    H253092   6.286   2.020   7.779
17739TIP3   OH253093   9.458   6.042   0.137
17739TIP3    H153094   9.448   5.983   0.211
17739TIP3    H253095   9.546   6.078   0.146
17740TIP3   OH253096   8.361   6.464   1.232
17740TIP3    H153097   8.426   6.394   1.225
17740TIP3    H253098   8.404   6.530   1.287
17741TIP3   OH253099   5.391   1.481   7.931
17741TIP3    H153100   5.414   1.393   7.902
17741TIP3    H253101   5.382   1.473   8.026
17742TIP3   OH253102   8.613   6.107   0.208
17742TIP3    H153103   8.675   6.086   0.277
17742TIP3    H253104   8.612   6.203   0.205
17743TIP3   OH253105   8.337   5.797   0.398
17743TIP3    H153106   8.279   5.845   0.458
17743TIP3    H253107   8.366   5.863   0.335
17744TIP3   OH253108   8.869   6.302   0.138
17744TIP3    H153109   8.790   6.323   0.186
17744TIP3    H253110   8.893   6.382   0.092
17745TIP3   OH253111   9.087   5.360   0.562
17745TIP3    H153112   9.130   5.442   0.535
17745TIP3    H253113   9.040   5.383   0.642
17746TIP3   OH253114   9.326   5.680   1.362
17746TIP3    H153115   9.324   5.734   1.441
17746TIP3    H253116   9.418   5.656   1.352
17747TIP3   OH253117   8.609   6.378   0.209
17747TIP3    H153118   8.585   6.449   0.149
17747TIP3    H253119   8.598   6.416   0.296
17748TIP3   OH253120   9.624   5.784   0.743
17748TIP3    H153121   9.554   5.720   0.751
17748TIP3    H253122   9.700   5.742   0.785
17749TIP3   OH253123   8.339   6.015   0.205
17749TIP3    H153124   8.404   6.083   0.222
17749TIP3    H253125   8.381   5.958   0.140
17750TIP3   OH253126   8.256   5.261   0.324
17750TIP3    H153127   8.307   5.343   0.325
17750TIP3    H253128   8.171   5.286   0.359
17751TIP3   OH253129   9.592   6.739   0.685
17751TIP3    H153130   9.546   6.783   0.614
17751TIP3    H253131   9.685   6.754   0.668
17752TIP3   OH253132   8.202   6.229   0.608
17752TIP3    H153133   8.115   6.268   0.615
17752TIP3    H253134   8.229   6.249   0.518
17753TIP3   OH253135   5.557   1.684   7.837
17753TIP3    H153136   5.502   1.619   7.882
17753TIP3    H253137   5.635   1.635   7.812
17754TIP3   OH253138   9.493   6.635   1.423
17754TIP3    H153139   9.489   6.591   1.508
17754TIP3    H253140   9.564   6.699   1.432
17755TIP3   OH253141   5.998   1.724   7.750
17755TIP3    H153142   6.046   1.674   7.815
17755TIP3    H253143   6.056   1.728   7.674
17756TIP3   OH253144   8.473   5.819   0.062
17756TIP3    H153145   8.525   5.789   0.136
17756TIP3    H253146   8.535   5.827  -0.010
17757TIP3   OH253147   5.702   1.399   7.866
17757TIP3    H153148   5.713   1.419   7.959
17757TIP3    H253149   5.707   1.303   7.861
17758TIP3   OH253150   9.593   6.269   1.243
17758TIP3    H153151   9.669   6.307   1.198
17758TIP3    H253152   9.522   6.331   1.226
17759TIP3   OH253153   8.664   5.719   0.274
17759TIP3    H153154   8.653   5.689   0.365
17759TIP3    H253155   8.707   5.645   0.230
17760TIP3   OH253156   8.784   5.507   0.121
17760TIP3    H153157   8.755   5.523   0.031
17760TIP3    H253158   8.877   5.525   0.120
17761TIP3   OH253159   6.337   1.232   7.783
17761TIP3    H153160   6.314   1.187   7.702
17761TIP3    H253161   6.309   1.322   7.770
17762TIP3   OH253162   9.111   5.895   1.316
17762TIP3    H153163   9.187   5.913   1.260
17762TIP3    H253164   9.045   5.958   1.286
17763TIP3   OH253165   9.734   6.114   1.414
17763TIP3    H153166   9.673   6.170   1.366
17763TIP3    H253167   9.821   6.138   1.381
17764TIP3   OH253168   5.321   1.965   8.024
17764TIP3    H153169   5.415   1.954   8.013
17764TIP3    H253170   5.292   2.013   7.946
17765TIP3   OH253171   8.071   5.961   0.245
17765TIP3    H153172   8.161   5.987   0.230
17765TIP3    H253173   8.064   5.874   0.204
17766TIP3   OH253174   7.960   6.580   0.672
17766TIP3    H153175   7.901   6.518   0.629
17766TIP3    H253176   8.009   6.528   0.735
17767TIP3   OH253177   8.097   6.439   0.859
17767TIP3    H153178   8.121   6.351   0.890
17767TIP3    H253179   8.161   6.497   0.901
17768TIP3   OH253180   0.043   6.830   0.645
17768TIP3    H153181   0.077   6.867   0.726
17768TIP3    H253182   0.102   6.862   0.577
17769TIP3   OH253183   0.073   6.847   0.930
17769TIP3    H153184   0.030   6.763   0.917
17769TIP3    H253185   0.152   6.826   0.980
17770TIP3   OH253186   0.124   6.529   1.490
17770TIP3    H153187   0.035   6.541   1.523
17770TIP3    H253188   0.161   6.617   1.491
17771TIP3   OH253189   0.077   5.874   0.324
17771TIP3    H153190  -0.008   5.866   0.368
17771TIP3    H253191   0.088   5.968   0.311
17772TIP3   OH253192   0.117   6.294   0.754
17772TIP3    H153193   0.165   6.229   0.703
17772TIP3    H253194   0.114   6.372   0.698
17773TIP3   OH253195   9.749   6.597   0.950
17773TIP3    H153196   9.679   6.640   0.998
17773TIP3    H253197   9.704   6.549   0.880
17774TIP3   OH253198   6.536   1.194   7.980
17774TIP3    H153199   6.466   1.214   7.917
17774TIP3    H253200   6.544   1.274   8.032
17775TIP3   OH253201   6.413   0.855   7.913
17775TIP3    H153202   6.374   0.937   7.882
17775TIP3    H253203   6.363   0.787   7.869
17776TIP3   OH253204   9.660   5.756   0.475
17776TIP3    H153205   9.698   5.669   0.477
17776TIP3    H253206   9.656   5.783   0.567
17777TIP3   OH253207   8.321   5.871   1.176
17777TIP3    H153208   8.320   5.824   1.093
17777TIP3    H253209   8.412   5.862   1.206
17778TIP3   OH253210   0.181   6.182   1.318
17778TIP3    H153211   0.253   6.119   1.306
17778TIP3    H253212   0.203   6.255   1.261
17779TIP3   OH253213   0.377   5.980   1.344
17779TIP3    H153214   0.289   5.953   1.371
17779TIP3    H253215   0.436   5.915   1.384
17780TIP3   OH253216   9.662   5.468   0.310
17780TIP3    H153217   9.705   5.440   0.391
17780TIP3    H253218   9.730   5.514   0.261
17781TIP3   OH253219   0.044   5.677   0.864
17781TIP3    H153220   0.129   5.688   0.820
17781TIP3    H253221   0.060   5.705   0.954
17782TIP3   OH253222   0.100   5.803   1.101
17782TIP3    H153223   0.022   5.841   1.142
17782TIP3    H253224   0.138   5.875   1.051
17783TIP3   OH253225   9.428   6.700   0.296
17783TIP3    H153226   9.472   6.676   0.214
17783TIP3    H253227   9.490   6.758   0.340
17784TIP3   OH253228   8.706   6.533   1.228
17784TIP3    H153229   8.659   6.607   1.192
17784TIP3    H253230   8.794   6.539   1.190
17785TIP3   OH253231   9.150   6.772   1.347
17785TIP3    H153232   9.194   6.761   1.432
17785TIP3    H253233   9.212   6.822   1.294
17786TIP3   OH253234   9.332   6.924   1.219
17786TIP3    H153235   9.401   6.873   1.177
17786TIP3    H253236   9.379   6.985   1.276
17787TIP3   OH253237   8.387   6.782   1.257
17787TIP3    H153238   8.303   6.814   1.223
17787TIP3    H253239   8.390   6.813   1.348
17788TIP3   OH253240   8.620   6.764   1.112
17788TIP3    H153241   8.536   6.777   1.157
17788TIP3    H253242   8.605   6.795   1.023
17789TIP3   OH253243   9.042   6.795   0.916
17789TIP3    H153244   8.980   6.812   0.845
17789TIP3    H253245   9.058   6.881   0.955
17790TIP3   OH253246   9.313   6.736   0.966
17790TIP3    H153247   9.221   6.749   0.944
17790TIP3    H253248   9.359   6.806   0.920
17791TIP3   OH253249   9.522   6.927   0.877
17791TIP3    H153250   9.508   7.010   0.832
17791TIP3    H253251   9.548   6.866   0.808
17792TIP3   OH253252   8.293   6.580   0.992
17792TIP3    H153253   8.312   6.564   1.085
17792TIP3    H253254   8.366   6.538   0.946
17793TIP3   OH253255   8.492   6.451   0.861
17793TIP3    H153256   8.511   6.365   0.898
17793TIP3    H253257   8.578   6.492   0.850
17794TIP3   OH253258   8.754   6.548   0.860
17794TIP3    H153259   8.787   6.463   0.830
17794TIP3    H253260   8.801   6.564   0.942
17795TIP3   OH253261   8.071   6.354   0.402
17795TIP3    H153262   7.991   6.321   0.361
17795TIP3    H253263   8.074   6.446   0.376
17796TIP3   OH253264   5.589   1.921   7.972
17796TIP3    H153265   5.677   1.945   7.942
17796TIP3    H253266   5.564   1.846   7.918
17797TIP3   OH253267   9.566   6.652   0.063
17797TIP3    H153268   9.556   6.558   0.052
17797TIP3    H253269   9.527   6.690  -0.016
17798TIP3   OH253270   8.160   6.373   0.034
17798TIP3    H153271   8.168   6.408   0.123
17798TIP3    H253272   8.245   6.335   0.016
17799TIP3   OH253273   9.802   6.807   1.246
17799TIP3    H153274   9.727   6.772   1.200
17799TIP3    H253275   9.786   6.901   1.250
17800TIP3   OH253276   1.263   6.178   0.024
17800TIP3    H153277   1.240   6.269   0.002
17800TIP3    H253278   1.190   6.126  -0.011
17801TIP3   OH253279   1.269   6.165   0.407
17801TIP3    H153280   1.269   6.107   0.483
17801TIP3    H253281   1.226   6.114   0.338
17802TIP3   OH253282   0.567   6.081   0.767
17802TIP3    H153283   0.598   6.006   0.818
17802TIP3    H253284   0.647   6.127   0.740
17803TIP3   OH253285   1.509   6.476   0.086
17803TIP3    H153286   1.493   6.408   0.152
17803TIP3    H253287   1.537   6.552   0.136
17804TIP3   OH253288   0.541   6.480   0.499
17804TIP3    H153289   0.528   6.385   0.501
17804TIP3    H253290   0.635   6.492   0.484
17805TIP3   OH253291   0.240   5.661   0.287
17805TIP3    H153292   0.198   5.744   0.312
17805TIP3    H253293   0.179   5.622   0.224
17806TIP3   OH253294   0.327   5.985   0.463
17806TIP3    H153295   0.363   5.899   0.485
17806TIP3    H253296   0.344   5.995   0.369
17807TIP3   OH253297   1.160   6.940   0.098
17807TIP3    H153298   1.207   6.871   0.052
17807TIP3    H253299   1.141   6.904   0.185
17808TIP3   OH253300   1.065   6.402   0.452
17808TIP3    H153301   1.091   6.325   0.401
17808TIP3    H253302   1.147   6.446   0.471
17809TIP3   OH253303   0.452   5.753   0.557
17809TIP3    H153304   0.529   5.731   0.610
17809TIP3    H253305   0.466   5.705   0.475
17810TIP3   OH253306   0.891   5.960   0.354
17810TIP3    H153307   0.980   5.929   0.368
17810TIP3    H253308   0.844   5.883   0.322
17811TIP3   OH253309   7.694   1.781   7.891
17811TIP3    H153310   7.648   1.754   7.812
17811TIP3    H253311   7.652   1.863   7.917
17812TIP3   OH253312   0.922   6.323   0.683
17812TIP3    H153313   0.856   6.382   0.719
17812TIP3    H253314   0.956   6.369   0.606
17813TIP3   OH253315   0.690   5.662   0.652
17813TIP3    H153316   0.749   5.730   0.685
17813TIP3    H253317   0.733   5.629   0.573
17814TIP3   OH253318   0.743   6.517   0.779
17814TIP3    H153319   0.718   6.597   0.732
17814TIP3    H253320   0.667   6.497   0.834
17815TIP3   OH253321   1.580   6.721   0.249
17815TIP3    H153322   1.494   6.708   0.289
17815TIP3    H253323   1.575   6.806   0.207
17816TIP3   OH253324   7.823   2.146   7.930
17816TIP3    H153325   7.867   2.064   7.908
17816TIP3    H253326   7.877   2.214   7.890
17817TIP3   OH253327   7.961   1.929   7.833
17817TIP3    H153328   7.912   1.856   7.797
17817TIP3    H253329   7.995   1.896   7.917
17818TIP3   OH253330   7.632   1.410   7.853
17818TIP3    H153331   7.550   1.456   7.837
17818TIP3    H253332   7.673   1.405   7.767
17819TIP3   OH253333   7.587   1.196   7.575
17819TIP3    H153334   7.660   1.242   7.617
17819TIP3    H253335   7.630   1.127   7.524
17820TIP3   OH253336   7.976   1.491   7.829
17820TIP3    H153337   7.921   1.516   7.903
17820TIP3    H253338   8.059   1.464   7.869
17821TIP3   OH253339   0.679   6.106   0.238
17821TIP3    H153340   0.635   6.053   0.172
17821TIP3    H253341   0.751   6.052   0.268
17822TIP3   OH253342   0.805   6.514   0.390
17822TIP3    H153343   0.780   6.478   0.305
17822TIP3    H253344   0.894   6.481   0.405
17823TIP3   OH253345   0.817   6.076   0.601
17823TIP3    H153346   0.841   6.054   0.511
17823TIP3    H253347   0.857   6.161   0.617
17824TIP3   OH253348   1.340   6.718   0.370
17824TIP3    H153349   1.323   6.797   0.422
17824TIP3    H253350   1.325   6.646   0.431
17825TIP3   OH253351   0.947   6.637   0.913
17825TIP3    H153352   0.894   6.704   0.959
17825TIP3    H253353   0.884   6.592   0.856
17826TIP3   OH253354   7.826   1.338   7.653
17826TIP3    H153355   7.879   1.396   7.707
17826TIP3    H253356   7.848   1.363   7.563
17827TIP3   OH253357   0.698   6.194   1.022
17827TIP3    H153358   0.704   6.277   1.067
17827TIP3    H253359   0.604   6.174   1.019
17828TIP3   OH253360   7.562   2.029   7.927
17828TIP3    H153361   7.637   2.085   7.947
17828TIP3    H253362   7.497   2.087   7.889
17829TIP3   OH253363   0.745   6.799   1.006
17829TIP3    H153364   0.711   6.803   0.916
17829TIP3    H253365   0.668   6.780   1.059
17830TIP3   OH253366   0.543   5.958   0.037
17830TIP3    H153367   0.472   6.000  -0.011
17830TIP3    H253368   0.508   5.872   0.060
17831TIP3   OH253369   8.133   1.957   7.245
17831TIP3    H153370   8.139   2.052   7.234
17831TIP3    H253371   8.224   1.927   7.236
17832TIP3   OH253372   0.322   6.333   0.950
17832TIP3    H153373   0.259   6.316   0.880
17832TIP3    H253374   0.360   6.247   0.969
17833TIP3   OH253375   0.180   6.520   0.604
17833TIP3    H153376   0.270   6.518   0.571
17833TIP3    H253377   0.169   6.610   0.637
17834TIP3   OH253378   1.150   6.761   0.782
17834TIP3    H153379   1.144   6.855   0.801
17834TIP3    H253380   1.077   6.722   0.829
17835TIP3   OH253381   7.446   2.275   7.729
17835TIP3    H153382   7.394   2.262   7.649
17835TIP3    H253383   7.419   2.360   7.762
17836TIP3   OH253384   0.353   6.753   0.108
17836TIP3    H153385   0.395   6.744   0.194
17836TIP3    H253386   0.299   6.675   0.100
17837TIP3   OH253387   7.646   2.175   7.370
17837TIP3    H153388   7.703   2.107   7.334
17837TIP3    H253389   7.676   2.186   7.460
17838TIP3   OH253390   7.694   2.222   7.640
17838TIP3    H153391   7.607   2.235   7.676
17838TIP3    H253392   7.743   2.181   7.711
17839TIP3   OH253393   0.524   6.517   0.941
17839TIP3    H153394   0.574   6.498   1.020
17839TIP3    H253395   0.451   6.456   0.943
17840TIP3   OH253396   7.898   1.388   7.393
17840TIP3    H153397   7.860   1.368   7.308
17840TIP3    H253398   7.970   1.448   7.375
17841TIP3   OH253399   0.866   5.849   0.744
17841TIP3    H153400   0.815   5.871   0.822
17841TIP3    H253401   0.858   5.927   0.688
17842TIP3   OH253402   0.732   5.762   0.251
17842TIP3    H153403   0.656   5.714   0.284
17842TIP3    H253404   0.754   5.718   0.170
17843TIP3   OH253405   7.771   1.213   7.982
17843TIP3    H153406   7.718   1.284   7.946
17843TIP3    H253407   7.818   1.178   7.907
17844TIP3   OH253408   1.406   5.865   0.204
17844TIP3    H153409   1.343   5.892   0.137
17844TIP3    H253410   1.410   5.769   0.195
17845TIP3   OH253411   0.672   5.891   0.938
17845TIP3    H153412   0.677   5.961   1.003
17845TIP3    H253413   0.620   5.823   0.980
17846TIP3   OH253414   0.503   5.616   0.325
17846TIP3    H153415   0.413   5.638   0.305
17846TIP3    H253416   0.511   5.523   0.305
17847TIP3   OH253417   7.322   1.013   8.015
17847TIP3    H153418   7.407   0.994   7.976
17847TIP3    H253419   7.261   1.011   7.942
17848TIP3   OH253420   7.139   1.030   7.793
17848TIP3    H153421   7.081   0.979   7.736
17848TIP3    H253422   7.203   1.069   7.734
17849TIP3   OH253423   1.785   7.341   0.733
17849TIP3    H153424   1.748   7.327   0.646
17849TIP3    H253425   1.806   7.434   0.736
17850TIP3   OH253426   0.681   6.438   1.153
17850TIP3    H153427   0.764   6.475   1.182
17850TIP3    H253428   0.625   6.441   1.231
17851TIP3   OH253429   1.165   5.895   0.432
17851TIP3    H153430   1.222   5.836   0.382
17851TIP3    H253431   1.154   5.851   0.516
17852TIP3   OH253432   1.137   5.790   0.707
17852TIP3    H153433   1.044   5.811   0.714
17852TIP3    H253434   1.177   5.832   0.784
17853TIP3   OH253435   7.402   1.559   7.808
17853TIP3    H153436   7.332   1.495   7.792
17853TIP3    H253437   7.384   1.594   7.895
17854TIP3   OH253438   1.766   6.389   0.419
17854TIP3    H153439   1.800   6.445   0.349
17854TIP3    H253440   1.678   6.365   0.390
17855TIP3   OH253441   1.302   6.516   0.795
17855TIP3    H153442   1.278   6.451   0.861
17855TIP3    H253443   1.234   6.584   0.801
17856TIP3   OH253444   7.920   1.094   7.757
17856TIP3    H153445   8.015   1.105   7.766
17856TIP3    H253446   7.891   1.171   7.708
17857TIP3   OH253447   0.572   6.209   0.477
17857TIP3    H153448   0.596   6.179   0.390
17857TIP3    H253449   0.589   6.134   0.534
17858TIP3   OH253450   7.544   1.711   7.625
17858TIP3    H153451   7.499   1.796   7.629
17858TIP3    H253452   7.492   1.655   7.683
17859TIP3   OH253453   0.433   6.115   1.089
17859TIP3    H153454   0.443   6.095   1.182
17859TIP3    H253455   0.361   6.059   1.060
17860TIP3   OH253456   1.414   6.774   0.679
17860TIP3    H153457   1.321   6.753   0.689
17860TIP3    H253458   1.422   6.865   0.708
17861TIP3   OH253459   8.376   1.208   7.594
17861TIP3    H153460   8.319   1.157   7.537
17861TIP3    H253461   8.371   1.297   7.560
17862TIP3   OH253462   8.076   2.028   7.513
17862TIP3    H153463   8.045   1.963   7.576
17862TIP3    H253464   8.083   1.980   7.430
17863TIP3   OH253465   1.515   6.280   0.340
17863TIP3    H153466   1.427   6.248   0.359
17863TIP3    H253467   1.561   6.204   0.302
17864TIP3   OH253468   0.658   6.507   0.103
17864TIP3    H153469   0.658   6.587   0.051
17864TIP3    H253470   0.565   6.485   0.112
17865TIP3   OH253471   6.756   1.191   7.809
17865TIP3    H153472   6.805   1.272   7.824
17865TIP3    H253473   6.682   1.197   7.868
17866TIP3   OH253474   0.802   6.275   0.050
17866TIP3    H153475   0.765   6.363   0.065
17866TIP3    H253476   0.764   6.221   0.119
17867TIP3   OH253477   0.929   6.853   0.570
17867TIP3    H153478   0.959   6.926   0.516
17867TIP3    H253479   1.008   6.823   0.615
17868TIP3   OH253480   7.118   2.121   7.958
17868TIP3    H153481   7.033   2.134   8.000
17868TIP3    H253482   7.161   2.207   7.963
17869TIP3   OH253483   1.321   6.484   0.524
17869TIP3    H153484   1.322   6.485   0.620
17869TIP3    H253485   1.390   6.422   0.500
17870TIP3   OH253486   7.825   1.753   7.415
17870TIP3    H153487   7.878   1.731   7.492
17870TIP3    H253488   7.735   1.732   7.442
17871TIP3   OH253489   1.552   7.024   0.587
17871TIP3    H153490   1.479   6.971   0.555
17871TIP3    H253491   1.565   7.090   0.520
17872TIP3   OH253492   8.165   2.235   7.235
17872TIP3    H153493   8.203   2.303   7.179
17872TIP3    H253494   8.085   2.275   7.270
17873TIP3   OH253495   7.985   1.687   7.629
17873TIP3    H153496   7.974   1.625   7.701
17873TIP3    H253497   8.079   1.691   7.614
17874TIP3   OH253498   0.369   6.717   0.735
17874TIP3    H153499   0.414   6.635   0.754
17874TIP3    H253500   0.405   6.780   0.797
17875TIP3   OH253501   7.194   1.734   7.412
17875TIP3    H153502   7.207   1.644   7.384
17875TIP3    H253503   7.176   1.729   7.506
17876TIP3   OH253504   7.144   1.745   7.682
17876TIP3    H153505   7.203   1.714   7.751
17876TIP3    H253506   7.144   1.840   7.690
17877TIP3   OH253507   6.859   1.443   7.898
17877TIP3    H153508   6.793   1.477   7.958
17877TIP3    H253509   6.870   1.513   7.833
17878TIP3   OH253510   7.403   1.944   7.633
17878TIP3    H153511   7.318   1.963   7.672
17878TIP3    H253512   7.422   2.019   7.576
17879TIP3   OH253513   1.085   5.615   0.049
17879TIP3    H153514   1.124   5.701   0.029
17879TIP3    H253515   1.035   5.630   0.129
17880TIP3   OH253516   7.146   2.016   7.702
17880TIP3    H153517   7.117   2.083   7.640
17880TIP3    H253518   7.130   2.055   7.788
17881TIP3   OH253519   1.622   6.030   0.231
17881TIP3    H153520   1.539   5.983   0.225
17881TIP3    H253521   1.676   5.976   0.290
17882TIP3   OH253522   6.869   1.644   7.703
17882TIP3    H153523   6.922   1.724   7.711
17882TIP3    H253524   6.912   1.594   7.633
17883TIP3   OH253525   6.784   0.901   7.812
17883TIP3    H153526   6.831   0.984   7.810
17883TIP3    H253527   6.704   0.920   7.861
17884TIP3   OH253528   1.587   6.994   0.172
17884TIP3    H153529   1.543   7.039   0.101
17884TIP3    H253530   1.680   7.007   0.155
17885TIP3   OH253531   0.212   6.516   0.097
17885TIP3    H153532   0.162   6.442   0.132
17885TIP3    H253533   0.183   6.524   0.007
17886TIP3   OH253534   0.359   7.018   1.156
17886TIP3    H153535   0.444   7.019   1.200
17886TIP3    H253536   0.336   6.925   1.151
17887TIP3   OH253537   0.840   6.992   1.184
17887TIP3    H153538   0.928   6.965   1.210
17887TIP3    H253539   0.815   6.930   1.115
17888TIP3   OH253540   7.355   1.938   7.325
17888TIP3    H153541   7.297   1.874   7.365
17888TIP3    H253542   7.431   1.887   7.298
17889TIP3   OH253543   7.793   1.981   7.237
17889TIP3    H153544   7.837   1.919   7.296
17889TIP3    H253545   7.848   1.982   7.159
17890TIP3   OH253546   0.489   6.433   1.347
17890TIP3    H153547   0.507   6.341   1.366
17890TIP3    H253548   0.403   6.432   1.304
17891TIP3   OH253549   7.003   1.457   7.543
17891TIP3    H153550   7.050   1.428   7.621
17891TIP3    H253551   7.070   1.463   7.475
17892TIP3   OH253552   0.973   6.449   1.111
17892TIP3    H153553   0.951   6.500   1.034
17892TIP3    H253554   1.016   6.371   1.076
17893TIP3   OH253555   7.510   1.658   7.356
17893TIP3    H153556   7.510   1.674   7.450
17893TIP3    H253557   7.509   1.563   7.348
17894TIP3   OH253558   0.618   6.160   1.345
17894TIP3    H153559   0.616   6.065   1.340
17894TIP3    H253560   0.596   6.181   1.436
17895TIP3   OH253561   7.212   1.361   7.772
17895TIP3    H153562   7.179   1.327   7.856
17895TIP3    H253563   7.243   1.284   7.725
17896TIP3   OH253564   0.927   6.037   0.990
17896TIP3    H153565   0.860   6.105   0.991
17896TIP3    H253566   0.987   6.062   0.920
17897TIP3   OH253567   7.310   1.153   7.613
17897TIP3    H153568   7.282   1.158   7.522
17897TIP3    H253569   7.405   1.161   7.609
17898TIP3   OH253570   8.132   1.487   7.267
17898TIP3    H153571   8.110   1.441   7.187
17898TIP3    H253572   8.103   1.577   7.253
17899TIP3   OH253573   1.099   6.126   0.768
17899TIP3    H153574   1.186   6.160   0.744
17899TIP3    H253575   1.038   6.193   0.737
17900TIP3   OH253576   7.116   2.216   7.510
17900TIP3    H153577   7.211   2.212   7.497
17900TIP3    H253578   7.083   2.267   7.436
17901TIP3   OH253579   6.589   1.613   7.679
17901TIP3    H153580   6.673   1.635   7.719
17901TIP3    H253581   6.590   1.517   7.673
17902TIP3   OH253582   9.766   6.827   0.139
17902TIP3    H153583   9.704   6.762   0.107
17902TIP3    H253584   9.816   6.781   0.208
17903TIP3   OH253585   0.095   6.705   0.342
17903TIP3    H153586   0.105   6.612   0.362
17903TIP3    H253587   0.162   6.748   0.395
17904TIP3   OH253588   1.843   7.077   0.132
17904TIP3    H153589   1.862   7.118   0.216
17904TIP3    H253590   1.888   7.131   0.067
17905TIP3   OH253591   1.874   7.105   0.415
17905TIP3    H153592   1.826   7.022   0.410
17905TIP3    H253593   1.961   7.080   0.446
17906TIP3   OH253594   8.260   1.682   7.591
17906TIP3    H153595   8.331   1.742   7.570
17906TIP3    H253596   8.289   1.638   7.671
17907TIP3   OH253597   8.355   1.540   7.793
17907TIP3    H153598   8.307   1.492   7.860
17907TIP3    H253599   8.435   1.569   7.837
17908TIP3   OH253600   1.904   6.542   0.227
17908TIP3    H153601   1.949   6.504   0.152
17908TIP3    H253602   1.875   6.628   0.197
17909TIP3   OH253603   1.746   6.864   0.430
17909TIP3    H153604   1.672   6.880   0.489
17909TIP3    H253605   1.713   6.800   0.367
17910TIP3   OH253606   8.327   1.448   7.457
17910TIP3    H153607   8.261   1.454   7.387
17910TIP3    H253608   8.306   1.521   7.515
17911TIP3   OH253609   8.211   1.114   7.399
17911TIP3    H153610   8.167   1.190   7.360
17911TIP3    H253611   8.164   1.038   7.364
17912TIP3   OH253612   8.200   1.394   7.965
17912TIP3    H153613   8.207   1.298   7.959
17912TIP3    H253614   8.192   1.411   8.059
17913TIP3   OH253615   0.302   6.084   0.708
17913TIP3    H153616   0.295   6.057   0.617
17913TIP3    H253617   0.396   6.095   0.723
17914TIP3   OH253618   8.190   1.118   7.788
17914TIP3    H153619   8.227   1.088   7.871
17914TIP3    H253620   8.264   1.155   7.740
17915TIP3   OH253621   0.294   5.748   0.781
17915TIP3    H153622   0.337   5.735   0.696
17915TIP3    H253623   0.310   5.840   0.802
17916TIP3   OH253624   7.965   2.325   7.789
17916TIP3    H153625   8.011   2.314   7.706
17916TIP3    H253626   8.006   2.400   7.830
17917TIP3   OH253627   0.528   6.750   1.181
17917TIP3    H153628   0.439   6.724   1.158
17917TIP3    H253629   0.535   6.734   1.275
17918TIP3   OH253630   0.705   6.791   0.720
17918TIP3    H153631   0.650   6.861   0.684
17918TIP3    H253632   0.789   6.801   0.676
17919TIP3   OH253633   1.134   7.029   0.826
17919TIP3    H153634   1.165   7.018   0.916
17919TIP3    H253635   1.202   7.083   0.785
17920TIP3   OH253636   1.331   7.178   0.715
17920TIP3    H153637   1.398   7.138   0.659
17920TIP3    H253638   1.381   7.233   0.775
17921TIP3   OH253639   0.380   7.047   0.744
17921TIP3    H153640   0.294   7.078   0.714
17921TIP3    H253641   0.385   7.077   0.835
17922TIP3   OH253642   0.616   7.023   0.601
17922TIP3    H153643   0.532   7.035   0.644
17922TIP3    H253644   0.602   7.052   0.511
17923TIP3   OH253645   1.045   7.052   0.401
17923TIP3    H153646   0.975   7.061   0.337
17923TIP3    H253647   1.057   7.140   0.437
17924TIP3   OH253648   1.310   6.992   0.453
17924TIP3    H153649   1.217   7.004   0.435
17924TIP3    H253650   1.353   7.062   0.403
17925TIP3   OH253651   1.526   7.183   0.366
17925TIP3    H153652   1.505   7.264   0.320
17925TIP3    H253653   1.544   7.120   0.296
17926TIP3   OH253654   0.292   6.834   0.493
17926TIP3    H153655   0.319   6.812   0.582
17926TIP3    H253656   0.360   6.797   0.437
17927TIP3   OH253657   0.484   6.709   0.348
17927TIP3    H153658   0.500   6.626   0.393
17927TIP3    H253659   0.571   6.748   0.338
17928TIP3   OH253660   0.746   6.796   0.348
17928TIP3    H153661   0.780   6.708   0.333
17928TIP3    H253662   0.790   6.825   0.428
17929TIP3   OH253663   6.621   1.980   7.863
17929TIP3    H153664   6.536   1.945   7.839
17929TIP3    H253665   6.605   2.074   7.876
17930TIP3   OH253666   7.385   2.177   7.458
17930TIP3    H153667   7.472   2.202   7.427
17930TIP3    H253668   7.361   2.102   7.403
17931TIP3   OH253669   8.105   2.295   7.553
17931TIP3    H153670   8.098   2.200   7.544
17931TIP3    H253671   8.058   2.330   7.477
17932TIP3   OH253672   6.690   2.019   7.524
17932TIP3    H153673   6.683   2.032   7.618
17932TIP3    H253674   6.775   1.977   7.512
17933TIP3   OH253675   8.529   1.298   7.815
17933TIP3    H153676   8.514   1.391   7.800
17933TIP3    H253677   8.503   1.257   7.733
17934TIP3   OH253678   8.607   1.596   7.870
17934TIP3    H153679   8.663   1.554   7.935
17934TIP3    H253680   8.665   1.653   7.820
17935TIP3   OH253681   9.391   2.044   7.436
17935TIP3    H153682   9.385   2.014   7.345
17935TIP3    H253683   9.384   2.139   7.431
17936TIP3   OH253684   8.473   1.845   7.498
17936TIP3    H153685   8.428   1.866   7.417
17936TIP3    H253686   8.499   1.929   7.535
17937TIP3   OH253687   9.385   1.455   7.045
17937TIP3    H153688   9.443   1.492   7.113
17937TIP3    H253689   9.406   1.361   7.045
17938TIP3   OH253690   9.366   2.315   7.413
17938TIP3    H153691   9.398   2.388   7.466
17938TIP3    H253692   9.298   2.354   7.358
17939TIP3   OH253693   8.879   1.596   7.530
17939TIP3    H153694   8.806   1.628   7.477
17939TIP3    H253695   8.856   1.505   7.549
17940TIP3   OH253696   1.971   6.789   0.073
17940TIP3    H153697   2.066   6.797   0.078
17940TIP3    H253698   1.938   6.861   0.127
17941TIP3   OH253699   9.238   2.537   7.216
17941TIP3    H153700   9.191   2.509   7.138
17941TIP3    H253701   9.200   2.622   7.238
17942TIP3   OH253702   8.677   2.379   7.599
17942TIP3    H153703   8.720   2.374   7.684
17942TIP3    H253704   8.615   2.306   7.599
17943TIP3   OH253705   9.445   2.434   6.858
17943TIP3    H153706   9.500   2.366   6.820
17943TIP3    H253707   9.474   2.441   6.949
17944TIP3   OH253708   9.491   2.481   7.129
17944TIP3    H153709   9.404   2.488   7.168
17944TIP3    H253710   9.546   2.446   7.199
17945TIP3   OH253711   9.681   1.658   6.876
17945TIP3    H153712   9.658   1.621   6.791
17945TIP3    H253713   9.753   1.718   6.858
17946TIP3   OH253714   8.903   1.308   7.269
17946TIP3    H153715   8.864   1.243   7.210
17946TIP3    H253716   8.987   1.328   7.228
17947TIP3   OH253717   9.174   1.841   7.290
17947TIP3    H153718   9.128   1.759   7.275
17947TIP3    H253719   9.173   1.853   7.385
17948TIP3   OH253720   9.333   1.967   7.104
17948TIP3    H153721   9.295   2.054   7.117
17948TIP3    H253722   9.285   1.910   7.164
17949TIP3   OH253723   0.095   2.272   6.931
17949TIP3    H153724   0.092   2.264   7.026
17949TIP3    H253725   0.020   2.221   6.900
17950TIP3   OH253726   8.988   2.144   7.567
17950TIP3    H153727   8.985   2.229   7.523
17950TIP3    H253728   8.896   2.125   7.588
17951TIP3   OH253729   8.550   1.448   7.292
17951TIP3    H153730   8.603   1.525   7.312
17951TIP3    H253731   8.477   1.452   7.354
17952TIP3   OH253732   9.127   1.904   7.567
17952TIP3    H153733   9.105   1.995   7.550
17952TIP3    H253734   9.058   1.873   7.626
17953TIP3   OH253735   8.912   2.385   7.446
17953TIP3    H153736   8.825   2.390   7.488
17953TIP3    H253737   8.944   2.475   7.447
17954TIP3   OH253738   9.613   2.023   6.918
17954TIP3    H153739   9.654   1.985   6.996
17954TIP3    H253740   9.521   1.997   6.924
17955TIP3   OH253741   2.175   6.958   0.210
17955TIP3    H153742   2.223   6.878   0.231
17955TIP3    H253743   2.228   7.028   0.248
17956TIP3   OH253744   8.990   1.992   6.902
17956TIP3    H153745   9.001   1.903   6.869
17956TIP3    H253746   8.968   1.981   6.995
17957TIP3   OH253747   8.935   1.999   7.174
17957TIP3    H153748   9.010   1.965   7.222
17957TIP3    H253749   8.942   2.094   7.184
17958TIP3   OH253750   8.668   1.695   7.375
17958TIP3    H153751   8.603   1.736   7.433
17958TIP3    H253752   8.684   1.760   7.307
17959TIP3   OH253753   9.203   2.204   7.131
17959TIP3    H153754   9.114   2.226   7.160
17959TIP3    H253755   9.215   2.255   7.051
17960TIP3   OH253756   8.944   2.275   7.190
17960TIP3    H153757   8.914   2.340   7.126
17960TIP3    H253758   8.927   2.316   7.275
17961TIP3   OH253759   8.663   1.903   7.180
17961TIP3    H153760   8.726   1.975   7.192
17961TIP3    H253761   8.704   1.846   7.115
17962TIP3   OH253762   8.579   1.156   7.295
17962TIP3    H153763   8.632   1.236   7.297
17962TIP3    H253764   8.502   1.177   7.348
17963TIP3   OH253765   8.533   2.120   7.571
17963TIP3    H153766   8.461   2.147   7.628
17963TIP3    H253767   8.510   2.155   7.485
17964TIP3   OH253768   9.155   2.195   6.821
17964TIP3    H153769   9.097   2.126   6.852
17964TIP3    H253770   9.227   2.148   6.779
17965TIP3   OH253771   9.590   2.238   6.736
17965TIP3    H153772   9.624   2.158   6.777
17965TIP3    H253773   9.628   2.238   6.648
17966TIP3   OH253774   8.798   1.716   7.033
17966TIP3    H153775   8.846   1.678   7.106
17966TIP3    H253776   8.862   1.721   6.961
17967TIP3   OH253777   9.307   1.910   6.840
17967TIP3    H153778   9.307   1.926   6.934
17967TIP3    H253779   9.303   1.815   6.832
17968TIP3   OH253780   9.018   1.613   7.264
17968TIP3    H153781   8.975   1.574   7.340
17968TIP3    H253782   9.042   1.538   7.210
17969TIP3   OH253783   9.107   1.409   7.096
17969TIP3    H153784   9.073   1.414   7.007
17969TIP3    H253785   9.201   1.426   7.087
17970TIP3   OH253786   8.915   2.481   7.005
17970TIP3    H153787   9.009   2.473   6.986
17970TIP3    H253788   8.878   2.521   6.927
17971TIP3   OH253789   8.394   1.855   7.218
17971TIP3    H153790   8.486   1.879   7.206
17971TIP3    H253791   8.386   1.768   7.179
17972TIP3   OH253792   8.308   2.465   7.630
17972TIP3    H153793   8.240   2.409   7.593
17972TIP3    H253794   8.352   2.411   7.696
17973TIP3   OH253795   8.446   2.320   7.819
17973TIP3    H153796   8.423   2.248   7.878
17973TIP3    H253797   8.493   2.383   7.874
17974TIP3   OH253798   9.729   2.586   7.305
17974TIP3    H153799   9.765   2.560   7.221
17974TIP3    H253800   9.784   2.659   7.334
17975TIP3   OH253801   2.165   7.370   0.202
17975TIP3    H153802   2.070   7.377   0.192
17975TIP3    H253803   2.177   7.312   0.276
17976TIP3   OH253804   2.384   7.275   0.060
17976TIP3    H153805   2.314   7.328   0.099
17976TIP3    H253806   2.388   7.305  -0.031
17977TIP3   OH253807   8.624   2.473   7.977
17977TIP3    H153808   8.641   2.445   8.067
17977TIP3    H253809   8.695   2.434   7.926
17978TIP3   OH253810   8.821   2.347   7.831
17978TIP3    H153811   8.852   2.259   7.855
17978TIP3    H253812   8.901   2.398   7.821
17979TIP3   OH253813   9.080   2.443   7.835
17979TIP3    H153814   9.129   2.361   7.828
17979TIP3    H253815   9.093   2.472   7.926
17980TIP3   OH253816   8.408   2.246   7.368
17980TIP3    H153817   8.325   2.209   7.336
17980TIP3    H253818   8.399   2.340   7.352
17981TIP3   OH253819   9.183   2.437   6.946
17981TIP3    H153820   9.271   2.457   6.913
17981TIP3    H253821   9.154   2.363   6.892
17982TIP3   OH253822   0.032   2.524   7.065
17982TIP3    H153823   0.073   2.446   7.026
17982TIP3    H253824   0.007   2.578   6.990
17983TIP3   OH253825   8.486   2.272   7.007
17983TIP3    H153826   8.481   2.298   7.099
17983TIP3    H253827   8.573   2.231   6.999
17984TIP3   OH253828   5.546   7.560   0.978
17984TIP3    H153829   5.461   7.535   0.941
17984TIP3    H253830   5.524   7.596   1.064
17985TIP3   OH253831   5.113   6.862   0.745
17985TIP3    H153832   5.175   6.911   0.799
17985TIP3    H253833   5.167   6.799   0.698
17986TIP3   OH253834   5.341   7.013   0.831
17986TIP3    H153835   5.393   7.070   0.887
17986TIP3    H253836   5.364   7.038   0.742
17987TIP3   OH253837   5.650   7.623   0.426
17987TIP3    H153838   5.655   7.718   0.410
17987TIP3    H253839   5.740   7.592   0.413
17988TIP3   OH253840   4.943   7.929   0.908
17988TIP3    H153841   4.914   7.916   0.817
17988TIP3    H253842   4.926   8.022   0.926
17989TIP3   OH253843   5.162   7.834   0.545
17989TIP3    H153844   5.220   7.770   0.505
17989TIP3    H253845   5.199   7.849   0.632
17990TIP3   OH253846   5.203   7.891   0.817
17990TIP3    H153847   5.119   7.893   0.863
17990TIP3    H253848   5.265   7.858   0.882
17991TIP3   OH253849   5.410   7.063   0.571
17991TIP3    H153850   5.375   7.034   0.486
17991TIP3    H253851   5.491   7.110   0.549
17992TIP3   OH253852   7.235   8.418   7.396
17992TIP3    H153853   7.157   8.422   7.452
17992TIP3    H253854   7.287   8.494   7.422
17993TIP3   OH253855   5.450   6.765   0.897
17993TIP3    H153856   5.536   6.767   0.938
17993TIP3    H253857   5.425   6.857   0.887
17994TIP3   OH253858   5.071   7.375   0.788
17994TIP3    H153859   5.025   7.459   0.791
17994TIP3    H253860   5.007   7.312   0.822
17995TIP3   OH253861   5.902   6.880   0.761
17995TIP3    H153862   5.835   6.826   0.720
17995TIP3    H253863   5.887   6.968   0.726
17996TIP3   OH253864   5.573   7.691   0.687
17996TIP3    H153865   5.582   7.621   0.752
17996TIP3    H253866   5.596   7.649   0.604
17997TIP3   OH253867   5.338   7.417   0.588
17997TIP3    H153868   5.397   7.387   0.657
17997TIP3    H253869   5.251   7.393   0.620
17998TIP3   OH253870   5.679   7.899   0.410
17998TIP3    H153871   5.722   7.965   0.355
17998TIP3    H253872   5.600   7.942   0.442
17999TIP3   OH253873   5.498   7.335   0.795
17999TIP3    H153874   5.488   7.321   0.889
17999TIP3    H253875   5.592   7.345   0.782
18000TIP3   OH253876   4.714   7.398   0.596
18000TIP3    H153877   4.732   7.322   0.540
18000TIP3    H253878   4.667   7.362   0.671
18001TIP3   OH253879   4.904   7.600   0.784
18001TIP3    H153880   4.814   7.628   0.773
18001TIP3    H253881   4.952   7.645   0.715
18002TIP3   OH253882   4.630   7.705   0.880
18002TIP3    H153883   4.621   7.748   0.795
18002TIP3    H253884   4.593   7.767   0.943
18003TIP3   OH253885   4.876   7.604   0.500
18003TIP3    H153886   4.824   7.531   0.532
18003TIP3    H253887   4.946   7.563   0.450
18004TIP3   OH253888   5.309   7.647   0.410
18004TIP3    H153889   5.359   7.589   0.467
18004TIP3    H253890   5.360   7.651   0.329
18005TIP3   OH253891   4.516   7.117   0.711
18005TIP3    H153892   4.556   7.065   0.780
18005TIP3    H253893   4.582   7.122   0.642
18006TIP3   OH253894   5.018   7.313   0.524
18006TIP3    H153895   5.035   7.331   0.617
18006TIP3    H253896   5.022   7.218   0.517
18007TIP3   OH253897   4.828   6.811   0.783
18007TIP3    H153898   4.798   6.822   0.693
18007TIP3    H253899   4.922   6.830   0.780
18008TIP3   OH253900   5.645   7.151   0.446
18008TIP3    H153901   5.626   7.103   0.365
18008TIP3    H253902   5.616   7.241   0.427
18009TIP3   OH253903   4.632   7.875   0.673
18009TIP3    H153904   4.726   7.887   0.663
18009TIP3    H253905   4.593   7.928   0.604
18010TIP3   OH253906   5.778   7.345   0.775
18010TIP3    H153907   5.843   7.407   0.744
18010TIP3    H253908   5.820   7.301   0.849
18011TIP3   OH253909   5.909   7.209   0.965
18011TIP3    H153910   5.859   7.176   1.040
18011TIP3    H253911   5.991   7.241   1.004
18012TIP3   OH253912   5.844   7.117   0.630
18012TIP3    H153913   5.776   7.115   0.563
18012TIP3    H253914   5.820   7.191   0.686
18013TIP3   OH253915   5.719   6.785   0.586
18013TIP3    H153916   5.674   6.826   0.512
18013TIP3    H253917   5.695   6.692   0.580
18014TIP3   OH253918   5.660   6.521   0.571
18014TIP3    H153919   5.738   6.495   0.620
18014TIP3    H253920   5.593   6.459   0.599
18015TIP3   OH253921   5.911   6.477   0.679
18015TIP3    H153922   5.953   6.394   0.658
18015TIP3    H253923   5.983   6.540   0.683
18016TIP3   OH253924   5.475   8.000   0.961
18016TIP3    H153925   5.521   7.987   0.878
18016TIP3    H253926   5.523   8.071   1.004
18017TIP3   OH253927   4.904   7.848   0.632
18017TIP3    H153928   4.992   7.872   0.602
18017TIP3    H253929   4.876   7.781   0.571
18018TIP3   OH253930   5.616   7.958   0.727
18018TIP3    H153931   5.606   7.863   0.714
18018TIP3    H253932   5.577   7.996   0.648
18019TIP3   OH253933   4.205   7.663   0.706
18019TIP3    H153934   4.211   7.721   0.782
18019TIP3    H253935   4.295   7.636   0.689
18020TIP3   OH253936   7.109   7.476   0.685
18020TIP3    H153937   7.087   7.568   0.669
18020TIP3    H253938   7.032   7.427   0.656
18021TIP3   OH253939   7.101   7.476   1.047
18021TIP3    H153940   7.124   7.454   1.138
18021TIP3    H253941   7.060   7.397   1.013
18022TIP3   OH253942   7.352   7.779   0.748
18022TIP3    H153943   7.340   7.712   0.815
18022TIP3    H253944   7.384   7.856   0.797
18023TIP3   OH253945   6.401   7.762   1.191
18023TIP3    H153946   6.384   7.676   1.152
18023TIP3    H253947   6.487   7.787   1.157
18024TIP3   OH253948   6.093   6.979   0.930
18024TIP3    H153949   6.061   7.067   0.950
18024TIP3    H253950   6.029   6.944   0.869
18025TIP3   OH253951   6.170   7.261   1.031
18025TIP3    H153952   6.218   7.214   1.100
18025TIP3    H253953   6.237   7.307   0.982
18026TIP3   OH253954   6.999   8.238   0.760
18026TIP3    H153955   7.047   8.169   0.715
18026TIP3    H253956   6.996   8.208   0.851
18027TIP3   OH253957   6.912   7.695   1.095
18027TIP3    H153958   6.954   7.621   1.051
18027TIP3    H253959   6.985   7.745   1.132
18028TIP3   OH253960   7.939   7.027   1.097
18028TIP3    H153961   7.957   7.103   1.152
18028TIP3    H253962   7.968   7.053   1.010
18029TIP3   OH253963   7.339   7.195   1.153
18029TIP3    H153964   7.373   7.105   1.158
18029TIP3    H253965   7.302   7.201   1.064
18030TIP3   OH253966   6.693   6.857   1.062
18030TIP3    H153967   6.645   6.934   1.031
18030TIP3    H253968   6.641   6.823   1.135
18031TIP3   OH253969   7.362   6.954   0.739
18031TIP3    H153970   7.433   6.933   0.800
18031TIP3    H253971   7.406   6.991   0.663
18032TIP3   OH253972   6.744   7.264   0.964
18032TIP3    H153973   6.832   7.231   0.983
18032TIP3    H253974   6.693   7.185   0.946
18033TIP3   OH253975   8.002   7.233   1.265
18033TIP3    H153976   7.919   7.279   1.251
18033TIP3    H253977   8.023   7.246   1.357
18034TIP3   OH253978   7.001   7.698   0.555
18034TIP3    H153979   6.961   7.679   0.470
18034TIP3    H253980   6.963   7.782   0.582
18035TIP3   OH253981   7.573   6.943   0.917
18035TIP3    H153982   7.541   6.921   1.005
18035TIP3    H253983   7.622   7.024   0.928
18036TIP3   OH253984   5.984   7.508   0.674
18036TIP3    H153985   5.946   7.532   0.590
18036TIP3    H253986   6.014   7.591   0.712
18037TIP3   OH253987   7.423   8.021   0.911
18037TIP3    H153988   7.336   8.014   0.950
18037TIP3    H253989   7.422   8.106   0.866
18038TIP3   OH253990   7.719   6.880   1.173
18038TIP3    H153991   7.657   6.896   1.244
18038TIP3    H253992   7.766   6.963   1.164
18039TIP3   OH253993   7.131   8.066   0.588
18039TIP3    H153994   7.177   7.985   0.568
18039TIP3    H253995   7.186   8.135   0.550
18040TIP3   OH253996   7.270   7.850   0.495
18040TIP3    H153997   7.230   7.772   0.456
18040TIP3    H253998   7.305   7.819   0.579
18041TIP3   OH253999   7.643   7.932   1.262
18041TIP3    H154000   7.638   7.857   1.203
18041TIP3    H254001   7.630   8.008   1.205
18042TIP3   OH254002   6.940   7.326   0.513
18042TIP3    H154003   6.862   7.379   0.495
18042TIP3    H254004   6.989   7.327   0.431
18043TIP3   OH254005   6.903   7.111   0.233
18043TIP3    H154006   6.964   7.164   0.284
18043TIP3    H254007   6.958   7.050   0.184
18044TIP3   OH254008   7.844   7.569   1.098
18044TIP3    H154009   7.764   7.619   1.111
18044TIP3    H254010   7.875   7.596   1.011
18045TIP3   OH254011   7.288   7.409   0.490
18045TIP3    H154012   7.234   7.435   0.565
18045TIP3    H254013   7.373   7.386   0.529
18046TIP3   OH254014   7.573   7.522   1.322
18046TIP3    H154015   7.585   7.541   1.416
18046TIP3    H254016   7.486   7.484   1.316
18047TIP3   OH254017   6.516   7.405   0.902
18047TIP3    H154018   6.478   7.352   0.832
18047TIP3    H254019   6.598   7.360   0.924
18048TIP3   OH254020   6.644   7.809   1.053
18048TIP3    H154021   6.636   7.777   0.963
18048TIP3    H254022   6.731   7.779   1.081
18049TIP3   OH254023   6.710   7.399   1.205
18049TIP3    H154024   6.745   7.369   1.121
18049TIP3    H254025   6.786   7.432   1.252
18050TIP3   OH254026   7.183   8.021   1.031
18050TIP3    H154027   7.162   8.100   1.081
18050TIP3    H254028   7.160   7.949   1.090
18051TIP3   OH254029   7.132   7.270   0.312
18051TIP3    H154030   7.187   7.326   0.366
18051TIP3    H254031   7.156   7.292   0.222
18052TIP3   OH254032   6.872   7.951   0.589
18052TIP3    H154033   6.951   8.002   0.607
18052TIP3    H254034   6.811   8.014   0.551
18053TIP3   OH254035   7.645   6.514   0.360
18053TIP3    H154036   7.565   6.533   0.410
18053TIP3    H254037   7.661   6.593   0.310
18054TIP3   OH254038   6.385   7.255   0.704
18054TIP3    H154039   6.319   7.298   0.650
18054TIP3    H254040   6.347   7.169   0.723
18055TIP3   OH254041   4.179   3.257   7.907
18055TIP3    H154042   4.185   3.353   7.898
18055TIP3    H254043   4.269   3.227   7.898
18056TIP3   OH254044   7.891   8.279   1.301
18056TIP3    H154045   7.892   8.185   1.318
18056TIP3    H254046   7.810   8.310   1.340
18057TIP3   OH254047   6.993   8.102   1.423
18057TIP3    H154048   6.962   8.189   1.450
18057TIP3    H254049   6.922   8.042   1.447
18058TIP3   OH254050   6.752   8.195   0.392
18058TIP3    H154051   6.709   8.179   0.308
18058TIP3    H254052   6.724   8.283   0.416
18059TIP3   OH254053   6.192   8.043   0.777
18059TIP3    H154054   6.243   8.037   0.858
18059TIP3    H254055   6.122   7.979   0.789
18060TIP3   OH254056   6.956   8.094   0.033
18060TIP3    H154057   7.014   8.028  -0.002
18060TIP3    H254058   6.988   8.109   0.123
18061TIP3   OH254059   7.003   8.143   0.303
18061TIP3    H154060   6.917   8.153   0.344
18061TIP3    H254061   7.059   8.109   0.373
18062TIP3   OH254062   7.203   7.315   0.053
18062TIP3    H154063   7.174   7.288  -0.034
18062TIP3    H254064   7.284   7.364   0.038
18063TIP3   OH254065   6.906   6.694   0.357
18063TIP3    H154066   6.887   6.693   0.451
18063TIP3    H254067   6.883   6.606   0.327
18064TIP3   OH254068   6.570   7.057   0.910
18064TIP3    H154069   6.486   7.021   0.939
18064TIP3    H254070   6.589   7.011   0.828
18065TIP3   OH254071   7.081   7.129   0.645
18065TIP3    H154072   7.027   7.200   0.610
18065TIP3    H254073   7.135   7.101   0.572
18066TIP3   OH254074   7.241   7.158   0.889
18066TIP3    H154075   7.180   7.196   0.825
18066TIP3    H254076   7.272   7.077   0.848
18067TIP3   OH254077   6.544   6.641   0.331
18067TIP3    H154078   6.581   6.675   0.412
18067TIP3    H254079   6.493   6.714   0.295
18068TIP3   OH254080   6.097   6.688   0.699
18068TIP3    H154081   6.140   6.731   0.625
18068TIP3    H254082   6.034   6.753   0.732
18069TIP3   OH254083   7.192   7.390   1.288
18069TIP3    H154084   7.260   7.331   1.254
18069TIP3    H254085   7.237   7.440   1.356
18070TIP3   OH254086   6.943   6.863   0.963
18070TIP3    H154087   6.854   6.861   0.997
18070TIP3    H254088   6.999   6.870   1.041
18071TIP3   OH254089   6.356   6.912   0.992
18071TIP3    H154090   6.265   6.923   0.963
18071TIP3    H254091   6.377   6.821   0.969
18072TIP3   OH254092   6.622   6.915   0.681
18072TIP3    H154093   6.715   6.932   0.665
18072TIP3    H254094   6.580   6.939   0.598
18073TIP3   OH254095   7.401   6.930   1.168
18073TIP3    H154096   7.379   6.924   1.261
18073TIP3    H254097   7.338   6.873   1.124
18074TIP3   OH254098   6.464   6.942   0.452
18074TIP3    H154099   6.387   6.907   0.407
18074TIP3    H254100   6.513   6.989   0.385
18075TIP3   OH254101   7.574   8.638   1.394
18075TIP3    H154102   7.582   8.652   1.300
18075TIP3    H254103   7.652   8.680   1.430
18076TIP3   OH254104   6.994   7.195   1.050
18076TIP3    H154105   7.074   7.155   1.017
18076TIP3    H254106   6.995   7.178   1.144
18077TIP3   OH254107   6.495   6.661   0.925
18077TIP3    H154108   6.504   6.582   0.979
18077TIP3    H254109   6.584   6.692   0.914
18078TIP3   OH254110   6.712   7.481   0.466
18078TIP3    H154111   6.640   7.419   0.452
18078TIP3    H254112   6.697   7.516   0.554
18079TIP3   OH254113   7.617   7.724   1.090
18079TIP3    H154114   7.639   7.770   1.009
18079TIP3    H254115   7.535   7.679   1.070
18080TIP3   OH254116   7.167   6.793   0.331
18080TIP3    H154117   7.072   6.784   0.332
18080TIP3    H254118   7.183   6.885   0.349
18081TIP3   OH254119   7.243   7.041   0.427
18081TIP3    H154120   7.337   7.047   0.444
18081TIP3    H254121   7.222   7.120   0.377
18082TIP3   OH254122   6.372   7.492   1.121
18082TIP3    H154123   6.422   7.472   1.042
18082TIP3    H254124   6.418   7.445   1.191
18083TIP3   OH254125   6.853   7.631   0.282
18083TIP3    H154126   6.811   7.717   0.289
18083TIP3    H254127   6.805   7.576   0.343
18084TIP3   OH254128   7.265   8.028   1.396
18084TIP3    H154129   7.178   8.064   1.379
18084TIP3    H254130   7.319   8.105   1.415
18085TIP3   OH254131   7.679   7.133   0.265
18085TIP3    H154132   7.619   7.085   0.208
18085TIP3    H254133   7.681   7.221   0.228
18086TIP3   OH254134   7.891   7.986   1.348
18086TIP3    H154135   7.796   7.985   1.336
18086TIP3    H254136   7.926   7.961   1.262
18087TIP3   OH254137   7.374   7.949   0.169
18087TIP3    H154138   7.362   7.882   0.237
18087TIP3    H254139   7.396   7.900   0.090
18088TIP3   OH254140   7.371   7.577   1.018
18088TIP3    H154141   7.278   7.555   1.019
18088TIP3    H254142   7.413   7.503   0.973
18089TIP3   OH254143   6.504   7.807   0.762
18089TIP3    H154144   6.512   7.888   0.712
18089TIP3    H254145   6.409   7.796   0.774
18090TIP3   OH254146   6.072   7.110   0.474
18090TIP3    H154147   6.117   7.193   0.489
18090TIP3    H254148   5.994   7.115   0.530
18091TIP3   OH254149   6.641   7.573   0.710
18091TIP3    H154150   6.609   7.662   0.725
18091TIP3    H254151   6.610   7.523   0.786
18092TIP3   OH254152   6.779   8.157   1.228
18092TIP3    H154153   6.808   8.233   1.177
18092TIP3    H254154   6.859   8.119   1.263
18093TIP3   OH254155   6.426   8.047   0.619
18093TIP3    H154156   6.341   8.053   0.663
18093TIP3    H254157   6.460   8.137   0.621
18094TIP3   OH254158   7.163   7.789   1.186
18094TIP3    H154159   7.171   7.805   1.280
18094TIP3    H254160   7.244   7.744   1.162
18095TIP3   OH254161   7.140   7.671   0.078
18095TIP3    H154162   7.193   7.650   0.154
18095TIP3    H254163   7.050   7.652   0.105
18096TIP3   OH254164   7.394   8.313   1.240
18096TIP3    H154165   7.312   8.275   1.209
18096TIP3    H254166   7.409   8.389   1.183
18097TIP3   OH254167   4.207   3.534   7.898
18097TIP3    H154168   4.252   3.599   7.844
18097TIP3    H254169   4.130   3.579   7.932
18098TIP3   OH254170   7.299   7.607   0.294
18098TIP3    H154171   7.287   7.544   0.365
18098TIP3    H254172   7.394   7.611   0.280
18099TIP3   OH254173   6.506   7.657   0.077
18099TIP3    H154174   6.518   7.567   0.047
18099TIP3    H254175   6.486   7.648   0.171
18100TIP3   OH254176   6.452   7.664   0.349
18100TIP3    H154177   6.522   7.639   0.410
18100TIP3    H254178   6.451   7.760   0.353
18101TIP3   OH254179   6.181   7.359   0.549
18101TIP3    H154180   6.118   7.401   0.608
18101TIP3    H254181   6.199   7.425   0.482
18102TIP3   OH254182   7.215   6.749   0.606
18102TIP3    H154183   7.200   6.769   0.514
18102TIP3    H254184   7.252   6.830   0.642
18103TIP3   OH254185   6.712   7.863   0.294
18103TIP3    H154186   6.628   7.886   0.333
18103TIP3    H254187   6.735   7.937   0.240
18104TIP3   OH254188   6.905   6.926   0.703
18104TIP3    H154189   6.966   6.997   0.681
18104TIP3    H254190   6.916   6.914   0.797
18105TIP3   OH254191   7.054   6.656   0.815
18105TIP3    H154192   7.031   6.734   0.867
18105TIP3    H254193   7.112   6.689   0.747
18106TIP3   OH254194   6.455   7.937   0.365
18106TIP3    H154195   6.428   8.003   0.301
18106TIP3    H254196   6.442   7.979   0.450
18107TIP3   OH254197   6.562   6.644   0.594
18107TIP3    H154198   6.544   6.725   0.642
18107TIP3    H254199   6.653   6.624   0.615
18108TIP3   OH254200   7.465   7.337   0.889
18108TIP3    H154201   7.391   7.277   0.897
18108TIP3    H254202   7.537   7.294   0.936
18109TIP3   OH254203   6.177   7.567   0.357
18109TIP3    H154204   6.234   7.643   0.369
18109TIP3    H254205   6.221   7.514   0.290
18110TIP3   OH254206   6.120   6.839   0.466
18110TIP3    H154207   6.122   6.934   0.475
18110TIP3    H254208   6.028   6.817   0.454
18111TIP3   OH254209   7.434   8.292   0.834
18111TIP3    H154210   7.389   8.337   0.762
18111TIP3    H254211   7.527   8.311   0.819
18112TIP3   OH254212   6.042   7.771   0.746
18112TIP3    H154213   5.975   7.811   0.800
18112TIP3    H254214   6.034   7.814   0.661
18113TIP3   OH254215   3.402   3.237   7.989
18113TIP3    H154216   3.337   3.179   8.029
18113TIP3    H254217   3.479   3.181   7.976
18114TIP3   OH254218   3.837   3.282   7.907
18114TIP3    H154219   3.883   3.226   7.969
18114TIP3    H254220   3.898   3.293   7.834
18115TIP3   OH254221   6.315   7.378   0.209
18115TIP3    H154222   6.368   7.351   0.284
18115TIP3    H254223   6.377   7.385   0.137
18116TIP3   OH254224   6.822   7.583   0.009
18116TIP3    H154225   6.824   7.600   0.103
18116TIP3    H254226   6.817   7.488   0.001
18117TIP3   OH254227   7.412   7.792   1.385
18117TIP3    H154228   7.501   7.808   1.355
18117TIP3    H254229   7.374   7.879   1.394
18118TIP3   OH254230   6.519   7.281   0.430
18118TIP3    H154231   6.496   7.246   0.516
18118TIP3    H254232   6.555   7.207   0.382
18119TIP3   OH254233   6.622   7.071   0.270
18119TIP3    H154234   6.594   7.081   0.179
18119TIP3    H254235   6.717   7.081   0.267
18120TIP3   OH254236   4.169   2.793   7.935
18120TIP3    H154237   4.157   2.742   7.855
18120TIP3    H254238   4.142   2.882   7.911
18121TIP3   OH254239   6.427   8.135   0.172
18121TIP3    H154240   6.522   8.134   0.159
18121TIP3    H254241   6.394   8.186   0.099
18122TIP3   OH254242   5.909   7.517   0.395
18122TIP3    H154243   6.001   7.542   0.381
18122TIP3    H254244   5.901   7.432   0.353
18123TIP3   OH254245   5.823   8.129   0.802
18123TIP3    H154246   5.757   8.070   0.767
18123TIP3    H254247   5.868   8.078   0.870
18124TIP3   OH254248   5.961   7.989   0.992
18124TIP3    H154249   5.935   7.925   1.057
18124TIP3    H254250   6.003   8.059   1.043
18125TIP3   OH254251   7.685   8.385   0.793
18125TIP3    H154252   7.710   8.419   0.879
18125TIP3    H254253   7.743   8.429   0.732
18126TIP3   OH254254   7.712   8.403   1.074
18126TIP3    H154255   7.676   8.314   1.069
18126TIP3    H254256   7.788   8.395   1.133
18127TIP3   OH254257   7.579   7.596   0.269
18127TIP3    H154258   7.644   7.660   0.238
18127TIP3    H254259   7.619   7.556   0.346
18128TIP3   OH254260   7.704   7.463   0.471
18128TIP3    H154261   7.640   7.422   0.530
18128TIP3    H254262   7.771   7.499   0.529
18129TIP3   OH254263   7.757   7.854   0.895
18129TIP3    H154264   7.812   7.792   0.848
18129TIP3    H254265   7.754   7.931   0.838
18130TIP3   OH254266   7.589   8.150   1.102
18130TIP3    H154267   7.520   8.197   1.149
18130TIP3    H254268   7.543   8.106   1.030
18131TIP3   OH254269   7.638   7.371   0.119
18131TIP3    H154270   7.570   7.372   0.052
18131TIP3    H254271   7.619   7.445   0.175
18132TIP3   OH254272   7.509   7.043   0.075
18132TIP3    H154273   7.478   7.083  -0.006
18132TIP3    H254274   7.486   6.950   0.066
18133TIP3   OH254275   7.517   7.319   0.620
18133TIP3    H154276   7.530   7.224   0.613
18133TIP3    H254277   7.506   7.335   0.714
18134TIP3   OH254278   7.806   7.734   1.453
18134TIP3    H154279   7.857   7.676   1.397
18134TIP3    H254280   7.816   7.820   1.413
18135TIP3   OH254281   7.989   7.518   1.435
18135TIP3    H154282   7.929   7.489   1.503
18135TIP3    H254283   8.076   7.494   1.469
18136TIP3   OH254284   7.457   6.778   0.062
18136TIP3    H154285   7.534   6.748   0.111
18136TIP3    H254286   7.388   6.715   0.084
18137TIP3   OH254287   7.516   7.034   0.513
18137TIP3    H154288   7.555   6.948   0.529
18137TIP3    H254289   7.571   7.073   0.444
18138TIP3   OH254290   7.679   7.206   1.009
18138TIP3    H154291   7.759   7.228   0.962
18138TIP3    H254292   7.690   7.245   1.096
18139TIP3   OH254293   7.754   7.351   1.234
18139TIP3    H154294   7.681   7.394   1.279
18139TIP3    H254295   7.796   7.421   1.183
18140TIP3   OH254296   7.624   6.785   0.550
18140TIP3    H154297   7.684   6.770   0.623
18140TIP3    H254298   7.566   6.709   0.550
18141TIP3   OH254299   7.706   6.720   0.181
18141TIP3    H154300   7.746   6.649   0.131
18141TIP3    H254301   7.771   6.790   0.178
18142TIP3   OH254302   6.133   6.593   0.959
18142TIP3    H154303   6.067   6.525   0.971
18142TIP3    H254304   6.126   6.619   0.867
18143TIP3   OH254305   7.269   8.250   0.449
18143TIP3    H154306   7.320   8.237   0.369
18143TIP3    H254307   7.317   8.318   0.497
18144TIP3   OH254308   6.528   8.073   1.338
18144TIP3    H154309   6.493   8.160   1.318
18144TIP3    H254310   6.621   8.079   1.317
18145TIP3   OH254311   7.162   8.467   1.395
18145TIP3    H154312   7.229   8.427   1.340
18145TIP3    H254313   7.204   8.544   1.433
18146TIP3   OH254314   6.456   8.327   1.261
18146TIP3    H154315   6.383   8.362   1.312
18146TIP3    H254316   6.440   8.358   1.172
18147TIP3   OH254317   6.891   8.354   1.055
18147TIP3    H154318   6.819   8.367   0.994
18147TIP3    H254319   6.902   8.439   1.098
18148TIP3   OH254320   7.154   8.292   1.113
18148TIP3    H154321   7.062   8.309   1.094
18148TIP3    H254322   7.201   8.363   1.070
18149TIP3   OH254323   7.360   8.482   1.028
18149TIP3    H154324   7.347   8.567   0.986
18149TIP3    H254325   7.389   8.425   0.957
18150TIP3   OH254326   6.141   8.145   1.139
18150TIP3    H154327   6.137   8.119   1.232
18150TIP3    H254328   6.213   8.093   1.103
18151TIP3   OH254329   6.336   8.003   1.008
18151TIP3    H154330   6.355   7.927   1.063
18151TIP3    H254331   6.420   8.049   1.001
18152TIP3   OH254332   6.594   8.105   1.011
18152TIP3    H154333   6.628   8.016   0.998
18152TIP3    H254334   6.627   8.130   1.097
18153TIP3   OH254335   7.182   6.763   1.102
18153TIP3    H154336   7.150   6.692   1.157
18153TIP3    H254337   7.247   6.723   1.045
18154TIP3   OH254338   6.182   6.343   0.742
18154TIP3    H154339   6.257   6.402   0.740
18154TIP3    H254340   6.151   6.347   0.833
18155TIP3   OH254341   6.862   6.501   0.986
18155TIP3    H154342   6.924   6.563   0.947
18155TIP3    H254343   6.857   6.527   1.078
18156TIP3   OH254344   7.398   6.642   0.983
18156TIP3    H154345   7.414   6.621   0.891
18156TIP3    H254346   7.387   6.557   1.025
18157TIP3   OH254347   7.440   6.571   0.546
18157TIP3    H154348   7.355   6.616   0.552
18157TIP3    H254349   7.425   6.486   0.587
18158TIP3   OH254350   5.921   7.912   0.546
18158TIP3    H154351   5.839   7.878   0.510
18158TIP3    H254352   5.917   8.006   0.528
18159TIP3   OH254353   6.839   6.673   0.626
18159TIP3    H154354   6.891   6.622   0.688
18159TIP3    H254355   6.858   6.764   0.648
18160TIP3   OH254356   6.697   8.097   0.124
18160TIP3    H154357   6.784   8.124   0.092
18160TIP3    H254358   6.672   8.025   0.067
18161TIP3   OH254359   7.411   8.214   0.215
18161TIP3    H154360   7.402   8.120   0.203
18161TIP3    H254361   7.370   8.252   0.137
18162TIP3   OH254362   5.999   7.931   0.183
18162TIP3    H154363   6.000   7.969   0.271
18162TIP3    H254364   6.087   7.894   0.172
18163TIP3   OH254365   7.646   8.364   1.382
18163TIP3    H154366   7.559   8.332   1.356
18163TIP3    H254367   7.629   8.451   1.419
18164TIP3   OH254368   8.905   7.734   0.171
18164TIP3    H154369   8.881   7.825   0.154
18164TIP3    H254370   8.830   7.683   0.139
18165TIP3   OH254371   8.906   7.733   0.552
18165TIP3    H154372   8.937   7.705   0.638
18165TIP3    H254373   8.865   7.654   0.515
18166TIP3   OH254374   8.207   7.631   0.920
18166TIP3    H154375   8.238   7.563   0.981
18166TIP3    H254376   8.283   7.688   0.909
18167TIP3   OH254377   9.150   8.035   0.235
18167TIP3    H154378   9.135   7.966   0.300
18167TIP3    H254379   9.177   8.111   0.286
18168TIP3   OH254380   8.178   8.034   0.643
18168TIP3    H154381   8.167   7.939   0.646
18168TIP3    H254382   8.272   8.048   0.636
18169TIP3   OH254383   7.880   7.240   0.429
18169TIP3    H154384   7.839   7.325   0.444
18169TIP3    H254385   7.812   7.187   0.388
18170TIP3   OH254386   7.944   7.526   0.596
18170TIP3    H154387   7.991   7.453   0.634
18170TIP3    H254388   8.005   7.564   0.533
18171TIP3   OH254389   8.795   8.493   0.247
18171TIP3    H154390   8.843   8.425   0.201
18171TIP3    H254391   8.791   8.463   0.338
18172TIP3   OH254392   8.709   7.957   0.602
18172TIP3    H154393   8.742   7.881   0.554
18172TIP3    H254394   8.788   8.006   0.627
18173TIP3   OH254395   9.718   7.280   0.597
18173TIP3    H154396   9.746   7.361   0.640
18173TIP3    H254397   9.743   7.292   0.506
18174TIP3   OH254398   9.115   7.458   0.634
18174TIP3    H154399   9.161   7.376   0.655
18174TIP3    H254400   9.086   7.447   0.543
18175TIP3   OH254401   8.451   7.119   0.598
18175TIP3    H154402   8.436   7.193   0.538
18175TIP3    H254403   8.407   7.045   0.556
18176TIP3   OH254404   9.151   7.212   0.221
18176TIP3    H154405   9.218   7.195   0.288
18176TIP3    H254406   9.199   7.246   0.146
18177TIP3   OH254407   8.090   7.320   0.705
18177TIP3    H154408   8.171   7.305   0.754
18177TIP3    H254409   8.100   7.268   0.625
18178TIP3   OH254410   8.531   7.518   0.499
18178TIP3    H154411   8.624   7.496   0.510
18178TIP3    H254412   8.491   7.437   0.466
18179TIP3   OH254413   9.790   7.487   0.771
18179TIP3    H154414   9.709   7.533   0.747
18179TIP3    H254415   9.807   7.513   0.861
18180TIP3   OH254416   8.448   7.104   1.032
18180TIP3    H154417   8.395   7.139   0.962
18180TIP3    H254418   8.399   7.123   1.112
18181TIP3   OH254419   8.798   7.956   0.041
18181TIP3    H154420   8.757   7.935  -0.043
18181TIP3    H254421   8.758   8.039   0.067
18182TIP3   OH254422   8.558   7.880   0.829
18182TIP3    H154423   8.496   7.943   0.866
18182TIP3    H254424   8.601   7.928   0.758
18183TIP3   OH254425   9.358   7.215   0.393
18183TIP3    H154426   9.360   7.157   0.469
18183TIP3    H254427   9.414   7.289   0.417
18184TIP3   OH254428   8.323   7.219   0.817
18184TIP3    H154429   8.381   7.291   0.841
18184TIP3    H254430   8.367   7.177   0.743
18185TIP3   OH254431   8.384   8.074   0.925
18185TIP3    H154432   8.364   8.159   0.885
18185TIP3    H254433   8.309   8.056   0.982
18186TIP3   OH254434   7.780   7.765   0.163
18186TIP3    H154435   7.744   7.791   0.078
18186TIP3    H254436   7.811   7.846   0.201
18187TIP3   OH254437   9.219   8.279   0.401
18187TIP3    H154438   9.133   8.269   0.441
18187TIP3    H254439   9.215   8.363   0.356
18188TIP3   OH254440   9.511   7.182   0.765
18188TIP3    H154441   9.424   7.207   0.734
18188TIP3    H254442   9.570   7.210   0.695
18189TIP3   OH254443   8.807   6.822   0.746
18189TIP3    H154444   8.798   6.728   0.761
18189TIP3    H254445   8.732   6.861   0.791
18190TIP3   OH254446   8.928   8.323   0.075
18190TIP3    H154447   8.973   8.241   0.055
18190TIP3    H254448   8.983   8.391   0.037
18191TIP3   OH254449   5.800   3.487   7.983
18191TIP3    H154450   5.758   3.410   7.945
18191TIP3    H254451   5.835   3.455   8.067
18192TIP3   OH254452   9.446   8.191   0.744
18192TIP3    H154453   9.436   8.115   0.687
18192TIP3    H254454   9.429   8.266   0.687
18193TIP3   OH254455   5.470   2.966   8.002
18193TIP3    H154456   5.392   3.017   7.982
18193TIP3    H254457   5.518   2.963   7.919
18194TIP3   OH254458   5.432   2.749   7.722
18194TIP3    H154459   5.496   2.801   7.771
18194TIP3    H254460   5.486   2.685   7.673
18195TIP3   OH254461   9.640   7.830   0.589
18195TIP3    H154462   9.559   7.880   0.597
18195TIP3    H254463   9.672   7.850   0.501
18196TIP3   OH254464   9.085   7.667  -0.022
18196TIP3    H154465   9.030   7.692   0.052
18196TIP3    H254466   9.169   7.642   0.017
18197TIP3   OH254467   9.319   7.710   0.885
18197TIP3    H154468   9.319   7.792   0.934
18197TIP3    H254469   9.235   7.709   0.839
18198TIP3   OH254470   8.317   7.664   0.393
18198TIP3    H154471   8.277   7.610   0.325
18198TIP3    H254472   8.394   7.614   0.420
18199TIP3   OH254473   8.447   8.072   0.541
18199TIP3    H154474   8.427   8.035   0.455
18199TIP3    H254475   8.536   8.042   0.560
18200TIP3   OH254476   8.455   7.638   0.744
18200TIP3    H154477   8.487   7.616   0.657
18200TIP3    H254478   8.496   7.722   0.764
18201TIP3   OH254479   8.980   8.274   0.524
18201TIP3    H154480   8.965   8.355   0.573
18201TIP3    H254481   8.964   8.204   0.587
18202TIP3   OH254482   8.589   8.191   1.072
18202TIP3    H154483   8.533   8.255   1.118
18202TIP3    H254484   8.528   8.139   1.020
18203TIP3   OH254485   5.662   2.908   7.801
18203TIP3    H154486   5.717   2.964   7.854
18203TIP3    H254487   5.685   2.929   7.711
18204TIP3   OH254488   8.347   7.752   1.174
18204TIP3    H154489   8.354   7.837   1.217
18204TIP3    H254490   8.253   7.733   1.173
18205TIP3   OH254491   8.668   8.208   0.076
18205TIP3    H154492   8.747   8.260   0.095
18205TIP3    H254493   8.607   8.270   0.036
18206TIP3   OH254494   8.386   8.359   1.156
18206TIP3    H154495   8.349   8.362   1.067
18206TIP3    H254496   8.311   8.340   1.212
18207TIP3   OH254497   6.172   2.151   7.848
18207TIP3    H154498   6.094   2.167   7.901
18207TIP3    H254499   6.186   2.232   7.800
18208TIP3   OH254500   8.182   7.508   0.196
18208TIP3    H154501   8.121   7.554   0.139
18208TIP3    H254502   8.144   7.421   0.207
18209TIP3   OH254503   5.974   3.517   7.396
18209TIP3    H154504   5.978   3.612   7.385
18209TIP3    H254505   6.065   3.488   7.383
18210TIP3   OH254506   7.960   7.894   1.105
18210TIP3    H154507   7.899   7.874   1.033
18210TIP3    H254508   8.002   7.811   1.125
18211TIP3   OH254509   7.821   8.085   0.741
18211TIP3    H154510   7.915   8.080   0.726
18211TIP3    H254511   7.809   8.166   0.791
18212TIP3   OH254512   9.683   8.535   0.794
18212TIP3    H154513   9.683   8.440   0.804
18212TIP3    H254514   9.601   8.563   0.836
18213TIP3   OH254515   8.789   8.322   0.929
18213TIP3    H154516   8.791   8.413   0.957
18213TIP3    H254517   8.719   8.282   0.981
18214TIP3   OH254518   5.281   3.832   7.880
18214TIP3    H154519   5.239   3.816   7.796
18214TIP3    H254520   5.254   3.920   7.904
18215TIP3   OH254521   7.987   8.299   0.264
18215TIP3    H154522   8.039   8.294   0.344
18215TIP3    H254523   7.923   8.228   0.271
18216TIP3   OH254524   5.486   3.731   7.521
18216TIP3    H154525   5.543   3.664   7.484
18216TIP3    H254526   5.518   3.743   7.610
18217TIP3   OH254527   5.533   3.779   7.792
18217TIP3    H154528   5.446   3.790   7.832
18217TIP3    H254529   5.587   3.744   7.863
18218TIP3   OH254530   9.572   7.665   1.066
18218TIP3    H154531   9.494   7.681   1.012
18218TIP3    H254532   9.589   7.572   1.055
18219TIP3   OH254533   8.171   8.071   1.093
18219TIP3    H154534   8.218   8.062   1.175
18219TIP3    H254535   8.095   8.013   1.102
18220TIP3   OH254536   8.567   6.897   0.878
18220TIP3    H154537   8.481   6.865   0.849
18220TIP3    H254538   8.549   6.981   0.919
18221TIP3   OH254539   9.103   7.014   1.069
18221TIP3    H154540   9.172   6.986   1.129
18221TIP3    H254541   9.022   6.994   1.116
18222TIP3   OH254542   9.342   7.443   0.987
18222TIP3    H154543   9.294   7.439   1.070
18222TIP3    H254544   9.320   7.529   0.951
18223TIP3   OH254545   5.736   2.953   7.544
18223TIP3    H154546   5.701   2.927   7.459
18223TIP3    H254547   5.814   3.004   7.523
18224TIP3   OH254548   5.446   2.328   7.849
18224TIP3    H154549   5.417   2.328   7.940
18224TIP3    H254550   5.412   2.246   7.814
18225TIP3   OH254551   8.497   7.416   0.894
18225TIP3    H154552   8.450   7.437   0.974
18225TIP3    H254553   8.485   7.493   0.838
18226TIP3   OH254554   8.384   7.298   0.407
18226TIP3    H154555   8.293   7.275   0.427
18226TIP3    H254556   8.401   7.261   0.321
18227TIP3   OH254557   8.876   7.387   0.133
18227TIP3    H154558   8.823   7.456   0.094
18227TIP3    H254559   8.931   7.355   0.061
18228TIP3   OH254560   9.053   7.666   1.225
18228TIP3    H154561   9.029   7.593   1.281
18228TIP3    H254562   9.147   7.678   1.240
18229TIP3   OH254563   9.031   7.413   0.372
18229TIP3    H154564   8.973   7.447   0.304
18229TIP3    H254565   9.067   7.333   0.335
18230TIP3   OH254566   8.319   7.446   1.103
18230TIP3    H154567   8.349   7.510   1.168
18230TIP3    H254568   8.311   7.364   1.153
18231TIP3   OH254569   5.099   2.300   7.815
18231TIP3    H154570   5.098   2.297   7.911
18231TIP3    H254571   5.024   2.354   7.791
18232TIP3   OH254572   7.904   6.957   0.691
18232TIP3    H154573   7.979   6.989   0.741
18232TIP3    H254574   7.942   6.914   0.615
18233TIP3   OH254575   7.885   6.949   0.202
18233TIP3    H154576   7.933   6.982   0.125
18233TIP3    H254577   7.826   7.020   0.226
18234TIP3   OH254578   9.043   7.658   0.799
18234TIP3    H154579   9.076   7.590   0.740
18234TIP3    H254580   9.013   7.609   0.877
18235TIP3   OH254581   8.711   7.127   0.472
18235TIP3    H154582   8.631   7.121   0.523
18235TIP3    H254583   8.782   7.122   0.537
18236TIP3   OH254584   8.145   7.176   0.479
18236TIP3    H154585   8.054   7.183   0.452
18236TIP3    H254586   8.171   7.087   0.454
18237TIP3   OH254587   8.416   7.175   0.165
18237TIP3    H154588   8.509   7.189   0.147
18237TIP3    H254589   8.373   7.197   0.083
18238TIP3   OH254590   9.204   7.198   0.676
18238TIP3    H154591   9.167   7.211   0.763
18238TIP3    H254592   9.144   7.137   0.633
18239TIP3   OH254593   4.989   2.588   7.942
18239TIP3    H154594   4.918   2.544   7.895
18239TIP3    H254595   5.043   2.626   7.873
18240TIP3   OH254596   9.376   8.887   0.888
18240TIP3    H154597   9.370   8.910   0.796
18240TIP3    H254598   9.450   8.937   0.921
18241TIP3   OH254599   8.330   7.997   1.320
18241TIP3    H154600   8.412   8.027   1.359
18241TIP3    H254601   8.266   8.004   1.390
18242TIP3   OH254602   8.797   7.448   0.566
18242TIP3    H154603   8.868   7.413   0.512
18242TIP3    H254604   8.810   7.407   0.651
18243TIP3   OH254605   8.320   6.938   0.442
18243TIP3    H154606   8.290   6.860   0.488
18243TIP3    H254607   8.377   6.905   0.373
18244TIP3   OH254608   8.771   7.343   0.865
18244TIP3    H154609   8.684   7.383   0.871
18244TIP3    H254610   8.829   7.406   0.909
18245TIP3   OH254611   5.240   3.117   7.955
18245TIP3    H154612   5.169   3.055   7.941
18245TIP3    H254613   5.225   3.152   8.043
18246TIP3   OH254614   9.409   7.974   0.580
18246TIP3    H154615   9.433   8.023   0.501
18246TIP3    H254616   9.325   7.933   0.557
18247TIP3   OH254617   5.699   2.433   7.813
18247TIP3    H154618   5.605   2.417   7.822
18247TIP3    H254619   5.710   2.524   7.839
18248TIP3   OH254620   8.906   8.056   0.951
18248TIP3    H154621   8.928   8.038   1.043
18248TIP3    H254622   8.870   8.144   0.952
18249TIP3   OH254623   5.771   2.678   7.917
18249TIP3    H154624   5.865   2.683   7.935
18249TIP3    H254625   5.753   2.757   7.866
18250TIP3   OH254626   8.198   7.753   0.628
18250TIP3    H154627   8.236   7.731   0.543
18250TIP3    H254628   8.245   7.696   0.690
18251TIP3   OH254629   5.386   3.269   7.776
18251TIP3    H154630   5.341   3.353   7.778
18251TIP3    H254631   5.334   3.213   7.834
18252TIP3   OH254632   8.083   7.684   1.228
18252TIP3    H154633   8.105   7.675   1.321
18252TIP3    H254634   8.019   7.614   1.213
18253TIP3   OH254635   8.808   7.789   1.263
18253TIP3    H154636   8.747   7.738   1.210
18253TIP3    H254637   8.894   7.761   1.234
18254TIP3   OH254638   9.068   8.311   0.849
18254TIP3    H154639   8.973   8.313   0.855
18254TIP3    H254640   9.098   8.365   0.922
18255TIP3   OH254641   6.210   2.769   7.752
18255TIP3    H154642   6.150   2.719   7.696
18255TIP3    H254643   6.210   2.857   7.716
18256TIP3   OH254644   9.696   8.243   0.832
18256TIP3    H154645   9.600   8.240   0.827
18256TIP3    H254646   9.725   8.215   0.745
18257TIP3   OH254647   5.917   3.585   7.663
18257TIP3    H154648   5.885   3.519   7.725
18257TIP3    H254649   5.923   3.539   7.580
18258TIP3   OH254650   9.173   7.833   0.502
18258TIP3    H154651   9.081   7.812   0.514
18258TIP3    H254652   9.210   7.758   0.456
18259TIP3   OH254653   8.301   8.064   0.251
18259TIP3    H154654   8.307   8.145   0.199
18259TIP3    H254655   8.207   8.050   0.262
18260TIP3   OH254656   4.597   2.751   7.957
18260TIP3    H154657   4.646   2.831   7.975
18260TIP3    H254658   4.523   2.754   8.017
18261TIP3   OH254659   8.439   7.830   0.199
18261TIP3    H154660   8.407   7.919   0.212
18261TIP3    H254661   8.404   7.780   0.273
18262TIP3   OH254662   8.573   8.409   0.721
18262TIP3    H154663   8.608   8.482   0.670
18262TIP3    H254664   8.648   8.375   0.770
18263TIP3   OH254665   8.223   8.304   0.107
18263TIP3    H154666   8.137   8.312   0.150
18263TIP3    H254667   8.257   8.393   0.108
18264TIP3   OH254668   8.960   8.040   0.683
18264TIP3    H154669   8.951   8.039   0.778
18264TIP3    H254670   9.040   7.990   0.666
18265TIP3   OH254671   5.667   3.311   7.567
18265TIP3    H154672   5.720   3.288   7.643
18265TIP3    H254673   5.577   3.290   7.593
18266TIP3   OH254674   9.207   8.576   0.728
18266TIP3    H154675   9.128   8.521   0.720
18266TIP3    H254676   9.196   8.642   0.659
18267TIP3   OH254677   6.005   3.793   7.385
18267TIP3    H154678   6.042   3.861   7.328
18267TIP3    H254679   5.926   3.833   7.421
18268TIP3   OH254680   8.291   7.188   1.245
18268TIP3    H154681   8.198   7.203   1.261
18268TIP3    H254682   8.320   7.137   1.321
18269TIP3   OH254683   5.828   3.245   7.782
18269TIP3    H154684   5.815   3.182   7.853
18269TIP3    H254685   5.923   3.247   7.769
18270TIP3   OH254686   8.009   8.270   0.884
18270TIP3    H154687   8.065   8.198   0.914
18270TIP3    H254688   8.034   8.344   0.939
18271TIP3   OH254689   5.035   3.293   7.566
18271TIP3    H154690   5.048   3.204   7.535
18271TIP3    H254691   5.015   3.284   7.659
18272TIP3   OH254692   4.979   3.301   7.839
18272TIP3    H154693   5.052   3.275   7.896
18272TIP3    H254694   4.980   3.396   7.841
18273TIP3   OH254695   7.979   7.615   0.038
18273TIP3    H154696   7.916   7.658   0.096
18273TIP3    H254697   7.998   7.681  -0.029
18274TIP3   OH254698   9.127   7.254   0.935
18274TIP3    H154699   9.210   7.289   0.965
18274TIP3    H254700   9.115   7.173   0.984
18275TIP3   OH254701   9.006   7.006   0.094
18275TIP3    H154702   8.996   7.026   0.001
18275TIP3    H254703   9.047   7.085   0.131
18276TIP3   OH254704   5.242   3.499   7.785
18276TIP3    H154705   5.157   3.525   7.822
18276TIP3    H254706   5.264   3.570   7.725
18277TIP3   OH254707   8.699   7.183   0.199
18277TIP3    H154708   8.763   7.251   0.178
18277TIP3    H254709   8.704   7.173   0.294
18278TIP3   OH254710   8.968   7.499   1.007
18278TIP3    H154711   8.989   7.551   1.084
18278TIP3    H254712   9.024   7.421   1.015
18279TIP3   OH254713   8.844   6.914   0.299
18279TIP3    H154714   8.840   6.986   0.361
18279TIP3    H254715   8.903   6.944   0.230
18280TIP3   OH254716   4.984   3.573   7.853
18280TIP3    H154717   4.958   3.640   7.789
18280TIP3    H254718   4.972   3.616   7.938
18281TIP3   OH254719   8.357   6.908   0.089
18281TIP3    H154720   8.353   6.997   0.125
18281TIP3    H254721   8.449   6.884   0.096
18282TIP3   OH254722   9.607   7.400   0.984
18282TIP3    H154723   9.512   7.399   0.993
18282TIP3    H254724   9.624   7.360   0.898
18283TIP3   OH254725   9.260   7.593   0.375
18283TIP3    H154726   9.185   7.534   0.385
18283TIP3    H254727   9.332   7.549   0.421
18284TIP3   OH254728   4.706   3.204   7.844
18284TIP3    H154729   4.765   3.279   7.857
18284TIP3    H254730   4.749   3.151   7.778
18285TIP3   OH254731   4.648   2.480   7.981
18285TIP3    H154732   4.653   2.576   7.975
18285TIP3    H254733   4.570   2.457   7.931
18286TIP3   OH254734   9.230   8.550   0.321
18286TIP3    H154735   9.184   8.594   0.250
18286TIP3    H254736   9.323   8.567   0.303
18287TIP3   OH254737   8.302   6.819   0.852
18287TIP3    H154738   8.275   6.790   0.765
18287TIP3    H254739   8.292   6.741   0.907
18288TIP3   OH254740   7.840   8.031   0.232
18288TIP3    H154741   7.771   8.068   0.288
18288TIP3    H254742   7.827   8.072   0.147
18289TIP3   OH254743   8.000   8.577   1.308
18289TIP3    H154744   8.086   8.582   1.351
18289TIP3    H254745   7.981   8.484   1.302
18290TIP3   OH254746   8.483   8.545   1.343
18290TIP3    H154747   8.577   8.530   1.354
18290TIP3    H254748   8.458   8.485   1.273
18291TIP3   OH254749   5.197   3.497   7.477
18291TIP3    H154750   5.140   3.430   7.515
18291TIP3    H254751   5.272   3.449   7.442
18292TIP3   OH254752   9.123   8.449   1.081
18292TIP3    H154753   9.114   8.382   1.148
18292TIP3    H254754   9.197   8.502   1.110
18293TIP3   OH254755   5.634   3.539   7.387
18293TIP3    H154756   5.680   3.478   7.445
18293TIP3    H254757   5.687   3.542   7.308
18294TIP3   OH254758   8.122   7.974   1.503
18294TIP3    H154759   8.149   7.883   1.494
18294TIP3    H254760   8.038   7.979   1.458
18295TIP3   OH254761   4.843   3.015   7.698
18295TIP3    H154762   4.896   2.985   7.772
18295TIP3    H254763   4.905   3.022   7.625
18296TIP3   OH254764   8.747   8.069   1.271
18296TIP3    H154765   8.698   8.087   1.191
18296TIP3    H254766   8.770   7.977   1.264
18297TIP3   OH254767   5.350   3.212   7.507
18297TIP3    H154768   5.353   3.228   7.601
18297TIP3    H254769   5.349   3.117   7.499
18298TIP3   OH254770   9.231   8.079   0.882
18298TIP3    H154771   9.306   8.120   0.839
18298TIP3    H254772   9.160   8.142   0.871
18299TIP3   OH254773   8.233   7.723   1.495
18299TIP3    H154774   8.291   7.649   1.477
18299TIP3    H254775   8.268   7.762   1.576
18300TIP3   OH254776   5.048   2.918   7.920
18300TIP3    H154777   5.025   2.877   8.004
18300TIP3    H254778   5.085   2.846   7.868
18301TIP3   OH254779   8.584   7.603   1.145
18301TIP3    H154780   8.510   7.663   1.152
18301TIP3    H254781   8.633   7.635   1.069
18302TIP3   OH254782   5.151   2.712   7.759
18302TIP3    H154783   5.123   2.716   7.668
18302TIP3    H254784   5.246   2.718   7.755
18303TIP3   OH254785   9.104   8.005   1.285
18303TIP3    H154786   9.178   7.984   1.227
18303TIP3    H254787   9.102   7.932   1.347
18304TIP3   OH254788   5.972   3.046   7.419
18304TIP3    H154789   5.952   2.997   7.340
18304TIP3    H254790   5.941   3.135   7.401
18305TIP3   OH254791   8.709   7.389   1.269
18305TIP3    H154792   8.711   7.311   1.214
18305TIP3    H254793   8.668   7.457   1.214
18306TIP3   OH254794   8.708   7.177   1.079
18306TIP3    H154795   8.739   7.220   1.000
18306TIP3    H254796   8.616   7.156   1.061
18307TIP3   OH254797   8.739   7.716   0.953
18307TIP3    H154798   8.822   7.722   0.906
18307TIP3    H254799   8.682   7.781   0.911
18308TIP3   OH254800   9.323   7.681   1.334
18308TIP3    H154801   9.369   7.597   1.343
18308TIP3    H254802   9.388   7.740   1.295
18309TIP3   OH254803   9.361   7.937   1.069
18309TIP3    H154804   9.302   7.987   1.013
18309TIP3    H254805   9.448   7.953   1.033
18310TIP3   OH254806   8.582   7.500   1.489
18310TIP3    H154807   8.511   7.437   1.499
18310TIP3    H254808   8.619   7.480   1.403
18311TIP3   OH254809   8.839   6.944   1.147
18311TIP3    H154810   8.795   7.025   1.122
18311TIP3    H254811   8.774   6.875   1.131
18312TIP3   OH254812   8.970   7.445   1.361
18312TIP3    H154813   8.976   7.435   1.456
18312TIP3    H254814   8.880   7.422   1.339
18313TIP3   OH254815   9.209   7.398   1.218
18313TIP3    H154816   9.134   7.398   1.278
18313TIP3    H254817   9.283   7.368   1.271
18314TIP3   OH254818   9.436   7.338   1.363
18314TIP3    H154819   9.448   7.244   1.376
18314TIP3    H254820   9.434   7.374   1.451
18315TIP3   OH254821   8.434   7.271   1.531
18315TIP3    H154822   8.443   7.176   1.522
18315TIP3    H254823   8.461   7.289   1.621
18316TIP3   OH254824   8.945   6.943   1.394
18316TIP3    H154825   9.014   6.879   1.376
18316TIP3    H254826   8.895   6.947   1.312
18317TIP3   OH254827   8.974   7.150   1.574
18317TIP3    H154828   8.967   7.094   1.496
18317TIP3    H254829   8.909   7.219   1.559
18318TIP3   OH254830   4.957   3.771   7.662
18318TIP3    H154831   5.051   3.770   7.649
18318TIP3    H254832   4.923   3.822   7.588
18319TIP3   OH254833   4.438   3.155   7.882
18319TIP3    H154834   4.529   3.182   7.870
18319TIP3    H254835   4.433   3.069   7.841
18320TIP3   OH254836   7.616   8.385   0.294
18320TIP3    H154837   7.551   8.327   0.257
18320TIP3    H254838   7.662   8.332   0.359
18321TIP3   OH254839   7.757   8.240   0.481
18321TIP3    H154840   7.744   8.167   0.541
18321TIP3    H254841   7.806   8.304   0.531
18322TIP3   OH254842   9.484   8.638   0.280
18322TIP3    H154843   9.505   8.674   0.366
18322TIP3    H254844   9.535   8.690   0.219
18323TIP3   OH254845   9.510   8.659   0.562
18323TIP3    H154846   9.467   8.574   0.555
18323TIP3    H254847   9.586   8.642   0.617
18324TIP3   OH254848   9.558   8.339   1.136
18324TIP3    H154849   9.484   8.346   1.197
18324TIP3    H254850   9.599   8.426   1.138
18325TIP3   OH254851   6.109   3.232   7.758
18325TIP3    H154852   6.175   3.296   7.731
18325TIP3    H254853   6.147   3.191   7.837
18326TIP3   OH254854   6.233   3.101   7.963
18326TIP3    H154855   6.169   3.057   8.019
18326TIP3    H254856   6.298   3.137   8.023
18327TIP3   OH254857   9.555   8.110   0.390
18327TIP3    H154858   9.607   8.046   0.341
18327TIP3    H254859   9.547   8.184   0.330
18328TIP3   OH254860   9.385   8.410   0.587
18328TIP3    H154861   9.317   8.455   0.636
18328TIP3    H254862   9.338   8.364   0.517
18329TIP3   OH254863   6.170   3.009   7.606
18329TIP3    H154864   6.102   3.008   7.539
18329TIP3    H254865   6.145   3.081   7.664
18330TIP3   OH254866   6.042   2.679   7.560
18330TIP3    H154867   6.000   2.719   7.483
18330TIP3    H254868   6.019   2.586   7.554
18331TIP3   OH254869   9.315   7.574   0.107
18331TIP3    H154870   9.324   7.479   0.099
18331TIP3    H254871   9.302   7.589   0.200
18332TIP3   OH254872   7.944   7.647   0.850
18332TIP3    H154873   7.939   7.620   0.758
18332TIP3    H254874   8.038   7.650   0.869
18333TIP3   OH254875   9.605   8.000   0.962
18333TIP3    H154876   9.676   7.935   0.954
18333TIP3    H254877   9.628   8.068   0.900
18334TIP3   OH254878   9.789   7.803   0.983
18334TIP3    H154879   9.714   7.756   1.020
18334TIP3    H254880   9.862   7.743   0.995
18335TIP3   OH254881   5.987   2.414   7.549
18335TIP3    H154882   6.064   2.385   7.598
18335TIP3    H254883   5.918   2.354   7.575
18336TIP3   OH254884   6.046   2.669   8.001
18336TIP3    H154885   6.083   2.582   8.019
18336TIP3    H254886   6.102   2.705   7.932
18337TIP3   OH254887   9.476   7.469   0.496
18337TIP3    H154888   9.558   7.492   0.453
18337TIP3    H254889   9.486   7.502   0.586
18338TIP3   OH254890   9.542   7.612   0.729
18338TIP3    H154891   9.463   7.643   0.774
18338TIP3    H254892   9.575   7.689   0.683
18339TIP3   OH254893   8.157   7.280   1.509
18339TIP3    H154894   8.249   7.306   1.504
18339TIP3    H254895   8.122   7.328   1.584
18340TIP3   OH254896   0.191   7.198   1.280
18340TIP3    H154897   0.251   7.135   1.241
18340TIP3    H254898   0.164   7.255   1.207
18341TIP3   OH254899   9.419   7.039   0.041
18341TIP3    H154900   9.470   7.025   0.121
18341TIP3    H254901   9.359   6.964   0.037
18342TIP3   OH254902   8.120   7.026   0.865
18342TIP3    H154903   8.181   6.952   0.869
18342TIP3    H254904   8.176   7.102   0.852
18343TIP3   OH254905   7.922   7.299   0.927
18343TIP3    H154906   7.970   7.296   0.844
18343TIP3    H254907   7.947   7.383   0.966
18344TIP3   OH254908   0.061   7.341   1.087
18344TIP3    H154909  -0.024   7.381   1.105
18344TIP3    H254910   0.041   7.268   1.029
18345TIP3   OH254911   6.235   2.359   7.667
18345TIP3    H154912   6.277   2.283   7.626
18345TIP3    H254913   6.303   2.427   7.666
18346TIP3   OH254914   7.905   6.802   0.427
18346TIP3    H154915   7.813   6.805   0.454
18346TIP3    H254916   7.910   6.861   0.352
18347TIP3   OH254917   5.802   3.885   7.939
18347TIP3    H154918   5.850   3.874   7.857
18347TIP3    H254919   5.846   3.958   7.982
18348TIP3   OH254920   8.131   6.872   1.228
18348TIP3    H154921   8.086   6.851   1.310
18348TIP3    H254922   8.077   6.939   1.187
18349TIP3   OH254923   8.168   8.308   1.321
18349TIP3    H154924   8.076   8.287   1.305
18349TIP3    H254925   8.180   8.294   1.415
18350TIP3   OH254926   8.345   8.344   0.866
18350TIP3    H154927   8.293   8.417   0.832
18350TIP3    H254928   8.431   8.355   0.825
18351TIP3   OH254929   8.793   8.587   1.008
18351TIP3    H154930   8.829   8.591   1.096
18351TIP3    H254931   8.854   8.638   0.955
18352TIP3   OH254932   8.971   8.739   0.868
18352TIP3    H154933   9.040   8.690   0.823
18352TIP3    H254934   9.018   8.798   0.927
18353TIP3   OH254935   9.761   7.100   0.967
18353TIP3    H154936   9.672   7.098   0.932
18353TIP3    H254937   9.794   7.011   0.956
18354TIP3   OH254938   8.018   8.598   0.897
18354TIP3    H154939   7.932   8.632   0.870
18354TIP3    H254940   8.035   8.641   0.981
18355TIP3   OH254941   8.254   8.578   0.751
18355TIP3    H154942   8.171   8.591   0.796
18355TIP3    H254943   8.240   8.613   0.663
18356TIP3   OH254944   8.682   8.610   0.549
18356TIP3    H154945   8.616   8.627   0.482
18356TIP3    H254946   8.696   8.695   0.591
18357TIP3   OH254947   8.950   8.549   0.599
18357TIP3    H154948   8.857   8.565   0.582
18357TIP3    H254949   8.995   8.623   0.559
18358TIP3   OH254950   9.161   8.741   0.514
18358TIP3    H154951   9.145   8.825   0.471
18358TIP3    H254952   9.184   8.682   0.443
18359TIP3   OH254953   7.933   8.391   0.638
18359TIP3    H154954   7.956   8.372   0.729
18359TIP3    H254955   8.004   8.352   0.587
18360TIP3   OH254956   8.127   8.265   0.495
18360TIP3    H154957   8.142   8.183   0.543
18360TIP3    H254958   8.214   8.305   0.489
18361TIP3   OH254959   8.390   8.359   0.500
18361TIP3    H154960   8.423   8.271   0.485
18361TIP3    H254961   8.432   8.386   0.582
18362TIP3   OH254962   8.967   7.016   0.583
18362TIP3    H154963   8.925   6.947   0.634
18362TIP3    H254964   9.039   6.972   0.538
18363TIP3   OH254965   9.490   6.906   0.495
18363TIP3    H154966   9.529   6.949   0.419
18363TIP3    H254967   9.396   6.914   0.482
18364TIP3   OH254968   9.588   7.001   0.256
18364TIP3    H154969   9.655   6.944   0.217
18364TIP3    H254970   9.620   7.090   0.241
18365TIP3   OH254971   8.215   6.726   0.606
18365TIP3    H154972   8.123   6.700   0.604
18365TIP3    H254973   8.263   6.643   0.601
18366TIP3   OH254974   8.001   6.596   0.249
18366TIP3    H154975   8.035   6.650   0.177
18366TIP3    H254976   7.975   6.660   0.316
18367TIP3   OH254977   8.656   6.772   0.486
18367TIP3    H154978   8.714   6.809   0.420
18367TIP3    H254979   8.692   6.801   0.570
18368TIP3   OH254980   9.204   6.900   0.466
18368TIP3    H154981   9.210   6.866   0.377
18368TIP3    H254982   9.192   6.823   0.521
18369TIP3   OH254983   9.234   6.825   0.031
18369TIP3    H154984   9.149   6.867   0.039
18369TIP3    H254985   9.225   6.742   0.078
18370TIP3   OH254986   7.716   8.168   0.033
18370TIP3    H154987   7.634   8.135  -0.003
18370TIP3    H254988   7.713   8.262   0.015
18371TIP3   OH254989   8.122   6.754   0.014
18371TIP3    H154990   8.169   6.693  -0.043
18371TIP3    H254991   8.191   6.810   0.050
18372TIP3   OH254992   8.633   6.932   0.114
18372TIP3    H154993   8.691   6.880   0.171
18372TIP3    H254994   8.653   7.023   0.136
18373TIP3   OH254995   5.227   3.735   7.612
18373TIP3    H154996   5.313   3.762   7.580
18373TIP3    H254997   5.202   3.662   7.556
18374TIP3   OH254998   5.944   3.853   7.704
18374TIP3    H154999   5.937   3.758   7.694
18374TIP3    H255000   5.898   3.889   7.628
18375TIP3   OH255001   8.444   6.997   1.507
18375TIP3    H155002   8.428   6.927   1.570
18375TIP3    H255003   8.538   6.993   1.489
18376TIP3   OH255004   4.529   3.565   7.673
18376TIP3    H155005   4.534   3.605   7.759
18376TIP3    H255006   4.616   3.528   7.658
18377TIP3   OH255007   9.493   7.071   1.379
18377TIP3    H155008   9.498   7.040   1.469
18377TIP3    H255009   9.583   7.064   1.345
18378TIP3   OH255010   9.435   8.619   0.892
18378TIP3    H155011   9.360   8.585   0.844
18378TIP3    H255012   9.420   8.714   0.895
18379TIP3   OH255013   7.437   3.373   7.661
18379TIP3    H155014   7.413   3.464   7.649
18379TIP3    H255015   7.362   3.323   7.627
18380TIP3   OH255016   0.898   7.987   0.041
18380TIP3    H155017   0.934   7.963   0.126
18380TIP3    H255018   0.860   7.906   0.007
18381TIP3   OH255019   0.204   7.887   0.406
18381TIP3    H155020   0.231   7.818   0.467
18381TIP3    H255021   0.282   7.941   0.393
18382TIP3   OH255022   7.676   3.673   7.724
18382TIP3    H155023   7.667   3.602   7.787
18382TIP3    H255024   7.708   3.747   7.776
18383TIP3   OH255025   0.174   8.293   0.128
18383TIP3    H155026   0.162   8.198   0.132
18383TIP3    H255027   0.269   8.305   0.130
18384TIP3   OH255028   6.411   2.882   7.916
18384TIP3    H155029   6.363   2.964   7.931
18384TIP3    H255030   6.346   2.822   7.881
18385TIP3   OH255031   9.742   7.783   0.085
18385TIP3    H155032   9.786   7.708   0.125
18385TIP3    H255033   9.798   7.808   0.012
18386TIP3   OH255034   7.327   4.132   7.737
18386TIP3    H155035   7.373   4.063   7.690
18386TIP3    H255036   7.322   4.101   7.827
18387TIP3   OH255037   0.706   8.214   0.085
18387TIP3    H155038   0.740   8.135   0.045
18387TIP3    H255039   0.783   8.264   0.111
18388TIP3   OH255040   1.712   7.541   0.082
18388TIP3    H155041   1.738   7.621   0.127
18388TIP3    H255042   1.730   7.558  -0.010
18389TIP3   OH255043   1.119   7.716   0.120
18389TIP3    H155044   1.156   7.631   0.141
18389TIP3    H255045   1.081   7.705   0.033
18390TIP3   OH255046   7.682   2.849   7.709
18390TIP3    H155047   7.748   2.831   7.776
18390TIP3    H255048   7.731   2.884   7.635
18391TIP3   OH255049   0.088   7.578   0.194
18391TIP3    H155050   0.169   7.561   0.242
18391TIP3    H255051   0.095   7.525   0.115
18392TIP3   OH255052   7.061   3.156   7.988
18392TIP3    H155053   7.151   3.128   8.003
18392TIP3    H255054   7.017   3.078   7.954
18393TIP3   OH255055   1.787   7.745   0.260
18393TIP3    H155056   1.705   7.791   0.240
18393TIP3    H255057   1.815   7.781   0.344
18394TIP3   OH255058   0.445   7.365   0.520
18394TIP3    H155059   0.388   7.394   0.450
18394TIP3    H255060   0.396   7.381   0.600
18395TIP3   OH255061   7.318   3.592   7.538
18395TIP3    H155062   7.311   3.586   7.443
18395TIP3    H255063   7.284   3.678   7.560
18396TIP3   OH255064   0.554   8.137   0.316
18396TIP3    H155065   0.492   8.199   0.354
18396TIP3    H255066   0.597   8.187   0.246
18397TIP3   OH255067   7.892   2.850   7.880
18397TIP3    H155068   7.875   2.799   7.960
18397TIP3    H255069   7.942   2.925   7.910
18398TIP3   OH255070   0.327   7.471   0.290
18398TIP3    H155071   0.388   7.540   0.317
18398TIP3    H255072   0.368   7.431   0.213
18399TIP3   OH255073   0.379   8.330   0.412
18399TIP3    H155074   0.358   8.416   0.373
18399TIP3    H255075   0.304   8.311   0.469
18400TIP3   OH255076   6.315   3.401   7.649
18400TIP3    H155077   6.261   3.428   7.574
18400TIP3    H255078   6.341   3.484   7.690
18401TIP3   OH255079   7.747   3.916   7.891
18401TIP3    H155080   7.660   3.905   7.929
18401TIP3    H255081   7.743   4.000   7.845
18402TIP3   OH255082   1.506   7.435   0.251
18402TIP3    H155083   1.418   7.459   0.224
18402TIP3    H255084   1.563   7.467   0.180
18403TIP3   OH255085   0.816   7.083   0.254
18403TIP3    H155086   0.791   6.993   0.230
18403TIP3    H255087   0.734   7.124   0.281
18404TIP3   OH255088   7.454   3.960   7.562
18404TIP3    H155089   7.500   3.878   7.544
18404TIP3    H255090   7.510   4.028   7.525
18405TIP3   OH255091   7.591   3.743   7.472
18405TIP3    H155092   7.574   3.662   7.423
18405TIP3    H255093   7.628   3.713   7.555
18406TIP3   OH255094   1.441   8.449   0.230
18406TIP3    H155095   1.433   8.371   0.174
18406TIP3    H255096   1.426   8.522   0.171
18407TIP3   OH255097   7.265   3.231   7.483
18407TIP3    H155098   7.180   3.202   7.450
18407TIP3    H255099   7.325   3.220   7.409
18408TIP3   OH255100   7.231   3.010   7.212
18408TIP3    H155101   7.302   3.058   7.253
18408TIP3    H255102   7.274   2.940   7.164
18409TIP3   OH255103   1.637   8.084   0.073
18409TIP3    H155104   1.556   8.135   0.082
18409TIP3    H255105   1.670   8.107  -0.014
18410TIP3   OH255106   7.616   3.304   7.466
18410TIP3    H155107   7.562   3.328   7.542
18410TIP3    H255108   7.699   3.277   7.504
18411TIP3   OH255109   1.315   7.966   0.371
18411TIP3    H155110   1.315   8.047   0.422
18411TIP3    H255111   1.230   7.966   0.326
18412TIP3   OH255112   6.857   3.305   7.876
18412TIP3    H155113   6.805   3.246   7.821
18412TIP3    H255114   6.926   3.249   7.912
18413TIP3   OH255115   0.449   8.335   0.026
18413TIP3    H155116   0.424   8.282  -0.050
18413TIP3    H255117   0.537   8.304   0.048
18414TIP3   OH255118   0.450   7.895   0.231
18414TIP3    H155119   0.484   7.869   0.146
18414TIP3    H255120   0.494   7.977   0.251
18415TIP3   OH255121   0.973   8.531   0.010
18415TIP3    H155122   0.962   8.610   0.062
18415TIP3    H255123   0.961   8.459   0.072
18416TIP3   OH255124   0.585   8.450   0.556
18416TIP3    H155125   0.529   8.513   0.603
18416TIP3    H255126   0.523   8.396   0.507
18417TIP3   OH255127   7.455   3.168   7.290
18417TIP3    H155128   7.515   3.221   7.342
18417TIP3    H255129   7.479   3.187   7.199
18418TIP3   OH255130   0.341   8.008   0.659
18418TIP3    H155131   0.347   8.094   0.702
18418TIP3    H255132   0.248   7.986   0.664
18419TIP3   OH255133   7.198   3.845   7.560
18419TIP3    H155134   7.276   3.895   7.581
18419TIP3    H255135   7.136   3.909   7.526
18420TIP3   OH255136   0.381   8.618   0.643
18420TIP3    H155137   0.348   8.619   0.553
18420TIP3    H255138   0.304   8.597   0.696
18421TIP3   OH255139   7.969   2.405   7.337
18421TIP3    H155140   7.890   2.421   7.388
18421TIP3    H255141   7.984   2.487   7.289
18422TIP3   OH255142   6.709   3.165   7.688
18422TIP3    H155143   6.633   3.177   7.631
18422TIP3    H255144   6.715   3.070   7.700
18423TIP3   OH255145   7.772   3.773   6.884
18423TIP3    H155146   7.778   3.867   6.871
18423TIP3    H255147   7.862   3.741   6.872
18424TIP3   OH255148   9.761   8.148   0.589
18424TIP3    H155149   9.697   8.128   0.521
18424TIP3    H255150   9.797   8.062   0.613
18425TIP3   OH255151   9.616   8.342   0.225
18425TIP3    H155152   9.711   8.339   0.215
18425TIP3    H255153   9.600   8.422   0.275
18426TIP3   OH255154   1.677   8.791   0.279
18426TIP3    H155155   1.680   8.696   0.290
18426TIP3    H255156   1.597   8.818   0.323
18427TIP3   OH255157   0.785   8.580   0.415
18427TIP3    H155158   0.786   8.671   0.444
18427TIP3    H255159   0.715   8.539   0.466
18428TIP3   OH255160   7.078   4.088   7.368
18428TIP3    H155161   7.035   4.071   7.284
18428TIP3    H255162   7.048   4.176   7.392
18429TIP3   OH255163   6.518   3.936   7.751
18429TIP3    H155164   6.566   3.930   7.833
18429TIP3    H255165   6.451   3.868   7.758
18430TIP3   OH255166   7.284   3.988   7.007
18430TIP3    H155167   7.340   3.921   6.970
18430TIP3    H255168   7.315   3.999   7.097
18431TIP3   OH255169   7.330   4.037   7.279
18431TIP3    H155170   7.244   4.047   7.319
18431TIP3    H255171   7.385   4.001   7.349
18432TIP3   OH255172   1.571   7.919   0.546
18432TIP3    H155173   1.488   7.936   0.501
18432TIP3    H255174   1.583   7.825   0.538
18433TIP3   OH255175   0.166   8.330   0.580
18433TIP3    H155176   0.216   8.315   0.661
18433TIP3    H255177   0.093   8.268   0.586
18434TIP3   OH255178   0.563   7.154   0.365
18434TIP3    H155179   0.478   7.120   0.337
18434TIP3    H255180   0.543   7.238   0.407
18435TIP3   OH255181   1.096   7.275   0.559
18435TIP3    H155182   1.159   7.242   0.623
18435TIP3    H255183   1.011   7.252   0.597
18436TIP3   OH255184   1.343   7.703   0.479
18436TIP3    H155185   1.290   7.698   0.559
18436TIP3    H255186   1.317   7.786   0.439
18437TIP3   OH255187   7.533   3.211   7.033
18437TIP3    H155188   7.497   3.183   6.949
18437TIP3    H255189   7.613   3.258   7.010
18438TIP3   OH255190   7.244   2.585   7.335
18438TIP3    H155191   7.219   2.586   7.427
18438TIP3    H255192   7.207   2.504   7.300
18439TIP3   OH255193   0.493   7.671   0.380
18439TIP3    H155194   0.444   7.689   0.460
18439TIP3    H255195   0.480   7.749   0.326
18440TIP3   OH255196   6.901   2.958   7.885
18440TIP3    H155197   6.827   2.912   7.924
18440TIP3    H255198   6.944   2.891   7.831
18441TIP3   OH255199   7.413   3.034   7.626
18441TIP3    H155200   7.359   3.103   7.586
18441TIP3    H255201   7.461   2.995   7.553
18442TIP3   OH255202   1.048   7.922   0.712
18442TIP3    H155203   1.025   7.850   0.772
18442TIP3    H255204   1.141   7.937   0.729
18443TIP3   OH255205   7.566   3.053   7.860
18443TIP3    H155206   7.505   3.083   7.792
18443TIP3    H255207   7.599   2.970   7.826
18444TIP3   OH255208   0.315   7.700   0.591
18444TIP3    H155209   0.344   7.764   0.657
18444TIP3    H255210   0.306   7.618   0.640
18445TIP3   OH255211   6.899   2.559   7.302
18445TIP3    H155212   6.900   2.555   7.397
18445TIP3    H255213   6.820   2.607   7.280
18446TIP3   OH255214   9.711   7.224   0.171
18446TIP3    H155215   9.787   7.251   0.223
18446TIP3    H255216   9.749   7.185   0.092
18447TIP3   OH255217   6.416   2.585   7.689
18447TIP3    H155218   6.465   2.617   7.613
18447TIP3    H255219   6.356   2.656   7.711
18448TIP3   OH255220   1.041   7.915   0.284
18448TIP3    H155221   1.074   7.847   0.225
18448TIP3    H255222   1.009   7.867   0.360
18449TIP3   OH255223   6.675   2.813   7.973
18449TIP3    H155224   6.585   2.824   7.944
18449TIP3    H255225   6.700   2.725   7.943
18450TIP3   OH255226   6.943   2.808   7.639
18450TIP3    H155227   7.036   2.826   7.626
18450TIP3    H255228   6.901   2.843   7.560
18451TIP3   OH255229   1.196   7.451   0.160
18451TIP3    H155230   1.163   7.467   0.249
18451TIP3    H255231   1.135   7.388   0.123
18452TIP3   OH255232   6.768   2.864   7.423
18452TIP3    H155233   6.710   2.806   7.373
18452TIP3    H255234   6.828   2.899   7.357
18453TIP3   OH255235   1.371   9.145   0.375
18453TIP3    H155236   1.367   9.166   0.282
18453TIP3    H255237   1.448   9.192   0.407
18454TIP3   OH255238   0.328   8.254   0.802
18454TIP3    H155239   0.408   8.284   0.845
18454TIP3    H255240   0.262   8.253   0.871
18455TIP3   OH255241   0.796   7.707   0.059
18455TIP3    H155242   0.856   7.658   0.003
18455TIP3    H255243   0.795   7.660   0.142
18456TIP3   OH255244   0.768   7.604   0.350
18456TIP3    H155245   0.679   7.640   0.359
18456TIP3    H255246   0.823   7.667   0.396
18457TIP3   OH255247   1.406   8.231   0.066
18457TIP3    H155248   1.432   8.279  -0.012
18457TIP3    H255249   1.323   8.190   0.043
18458TIP3   OH255250   7.493   2.693   7.293
18458TIP3    H155251   7.401   2.672   7.309
18458TIP3    H255252   7.502   2.783   7.326
18459TIP3   OH255253   0.903   8.314   0.436
18459TIP3    H155254   0.927   8.290   0.526
18459TIP3    H255255   0.866   8.401   0.443
18460TIP3   OH255256   7.567   2.936   7.405
18460TIP3    H155257   7.661   2.937   7.424
18460TIP3    H255258   7.552   3.014   7.352
18461TIP3   OH255259   0.200   8.015   0.113
18461TIP3    H155260   0.238   7.988   0.029
18461TIP3    H255261   0.235   7.954   0.177
18462TIP3   OH255262   7.187   3.527   7.252
18462TIP3    H155263   7.138   3.609   7.257
18462TIP3    H255264   7.163   3.480   7.332
18463TIP3   OH255265   0.076   7.937   0.729
18463TIP3    H155266   0.098   7.923   0.822
18463TIP3    H255267   0.009   7.871   0.711
18464TIP3   OH255268   0.804   8.048   0.747
18464TIP3    H155269   0.743   7.993   0.697
18464TIP3    H255270   0.890   8.018   0.720
18465TIP3   OH255271   1.064   8.574   0.333
18465TIP3    H155272   0.969   8.570   0.342
18465TIP3    H255273   1.094   8.624   0.409
18466TIP3   OH255274   8.006   3.025   7.238
18466TIP3    H155275   7.945   2.977   7.181
18466TIP3    H255276   8.007   3.114   7.203
18467TIP3   OH255277   1.691   8.500   0.319
18467TIP3    H155278   1.595   8.496   0.314
18467TIP3    H255279   1.720   8.471   0.232
18468TIP3   OH255280   7.703   3.844   7.147
18468TIP3    H155281   7.688   3.773   7.211
18468TIP3    H255282   7.721   3.798   7.065
18469TIP3   OH255283   7.703   3.471   7.987
18469TIP3    H155284   7.611   3.448   8.002
18469TIP3    H255285   7.740   3.394   7.944
18470TIP3   OH255286   6.820   3.699   7.725
18470TIP3    H155287   6.827   3.784   7.682
18470TIP3    H255288   6.734   3.701   7.767
18471TIP3   OH255289   6.392   3.007   7.445
18471TIP3    H155290   6.440   3.087   7.467
18471TIP3    H255291   6.316   3.007   7.503
18472TIP3   OH255292   6.931   3.460   7.659
18472TIP3    H155293   6.930   3.551   7.690
18472TIP3    H255294   6.939   3.408   7.738
18473TIP3   OH255295   0.569   8.665   0.209
18473TIP3    H155296   0.606   8.737   0.158
18473TIP3    H255297   0.643   8.629   0.258
18474TIP3   OH255298   6.752   3.941   7.596
18474TIP3    H155299   6.666   3.948   7.637
18474TIP3    H255300   6.785   4.031   7.596
18475TIP3   OH255301   0.957   8.298   0.168
18475TIP3    H155302   0.947   8.297   0.264
18475TIP3    H255303   1.036   8.246   0.152
18476TIP3   OH255304   7.464   3.567   7.055
18476TIP3    H155305   7.519   3.545   7.130
18476TIP3    H255306   7.375   3.544   7.083
18477TIP3   OH255307   1.202   8.834   0.217
18477TIP3    H155308   1.126   8.777   0.211
18477TIP3    H255309   1.190   8.898   0.146
18478TIP3   OH255310   7.801   4.050   6.871
18478TIP3    H155311   7.843   4.119   6.820
18478TIP3    H255312   7.721   4.090   6.905
18479TIP3   OH255313   0.287   7.444   0.739
18479TIP3    H155314   0.192   7.446   0.748
18479TIP3    H255315   0.316   7.381   0.805
18480TIP3   OH255316   7.624   3.506   7.275
18480TIP3    H155317   7.613   3.438   7.342
18480TIP3    H255318   7.718   3.505   7.256
18481TIP3   OH255319   0.009   8.526   0.369
18481TIP3    H155320   0.058   8.451   0.402
18481TIP3    H255321   0.033   8.598   0.427
18482TIP3   OH255322   6.832   3.550   7.043
18482TIP3    H155323   6.851   3.470   6.994
18482TIP3    H255324   6.807   3.519   7.130
18483TIP3   OH255325   6.511   3.262   7.520
18483TIP3    H155326   6.446   3.291   7.584
18483TIP3    H255327   6.512   3.330   7.453
18484TIP3   OH255328   1.124   7.512   0.421
18484TIP3    H155329   1.207   7.544   0.458
18484TIP3    H255330   1.107   7.430   0.469
18485TIP3   OH255331   7.549   2.641   7.576
18485TIP3    H155332   7.528   2.666   7.486
18485TIP3    H255333   7.582   2.721   7.617
18486TIP3   OH255334   7.030   3.746   7.273
18486TIP3    H155335   6.943   3.769   7.306
18486TIP3    H255336   7.056   3.821   7.218
18487TIP3   OH255337   7.224   2.827   7.667
18487TIP3    H155338   7.294   2.890   7.679
18487TIP3    H255339   7.202   2.798   7.756
18488TIP3   OH255340   0.965   7.759   0.493
18488TIP3    H155341   0.987   7.810   0.570
18488TIP3    H255342   1.017   7.679   0.501
18489TIP3   OH255343   7.396   2.543   7.792
18489TIP3    H155344   7.348   2.611   7.840
18489TIP3    H255345   7.440   2.590   7.722
18490TIP3   OH255346   6.776   3.826   7.340
18490TIP3    H155347   6.750   3.892   7.276
18490TIP3    H255348   6.764   3.868   7.425
18491TIP3   OH255349   6.886   2.545   7.577
18491TIP3    H155350   6.884   2.632   7.615
18491TIP3    H255351   6.975   2.513   7.593
18492TIP3   OH255352   1.607   7.648   0.476
18492TIP3    H155353   1.511   7.650   0.483
18492TIP3    H255354   1.624   7.627   0.384
18493TIP3   OH255355   7.790   3.230   7.864
18493TIP3    H155356   7.714   3.173   7.875
18493TIP3    H255357   7.861   3.185   7.910
18494TIP3   OH255358   6.518   3.475   7.345
18494TIP3    H155359   6.520   3.567   7.321
18494TIP3    H255360   6.561   3.430   7.272
18495TIP3   OH255361   6.445   2.735   7.463
18495TIP3    H155362   6.448   2.831   7.459
18495TIP3    H255363   6.359   2.713   7.428
18496TIP3   OH255364   7.758   4.188   7.809
18496TIP3    H155365   7.713   4.232   7.738
18496TIP3    H255366   7.851   4.205   7.794
18497TIP3   OH255367   0.298   7.077   0.344
18497TIP3    H155368   0.267   7.050   0.258
18497TIP3    H255369   0.289   6.999   0.398
18498TIP3   OH255370   6.368   3.669   7.718
18498TIP3    H155371   6.305   3.702   7.781
18498TIP3    H255372   6.346   3.712   7.636
18499TIP3   OH255373  -0.003   8.832   0.791
18499TIP3    H155374   0.081   8.834   0.836
18499TIP3    H255375  -0.026   8.739   0.787
18500TIP3   OH255376   0.480   8.798   0.834
18500TIP3    H155377   0.574   8.781   0.841
18500TIP3    H255378   0.452   8.743   0.761
18501TIP3   OH255379   6.996   3.756   6.962
18501TIP3    H155380   6.941   3.688   7.000
18501TIP3    H255381   7.070   3.709   6.924
18502TIP3   OH255382   1.117   8.706   0.570
18502TIP3    H155383   1.109   8.637   0.635
18502TIP3    H255384   1.194   8.756   0.597
18503TIP3   OH255385   7.430   3.795   6.873
18503TIP3    H155386   7.478   3.737   6.933
18503TIP3    H255387   7.484   3.798   6.795
18504TIP3   OH255388   0.125   8.239   0.989
18504TIP3    H155389   0.144   8.146   0.993
18504TIP3    H255390   0.040   8.245   0.946
18505TIP3   OH255391   6.670   3.290   7.202
18505TIP3    H155392   6.669   3.200   7.234
18505TIP3    H255393   6.725   3.288   7.124
18506TIP3   OH255394   0.735   8.324   0.762
18506TIP3    H155395   0.693   8.342   0.677
18506TIP3    H255396   0.765   8.234   0.756
18507TIP3   OH255397   7.139   3.466   6.988
18507TIP3    H155398   7.150   3.485   7.081
18507TIP3    H255399   7.146   3.371   6.982
18508TIP3   OH255400   1.227   8.336   0.369
18508TIP3    H155401   1.302   8.377   0.326
18508TIP3    H255402   1.156   8.399   0.357
18509TIP3   OH255403   0.246   7.975   0.974
18509TIP3    H155404   0.320   7.919   0.948
18509TIP3    H255405   0.270   8.008   1.060
18510TIP3   OH255406   0.580   7.862   0.634
18510TIP3    H155407   0.503   7.919   0.637
18510TIP3    H255408   0.629   7.892   0.557
18511TIP3   OH255409   6.945   2.972   7.244
18511TIP3    H155410   6.920   2.972   7.151
18511TIP3    H255411   7.041   2.977   7.242
18512TIP3   OH255412   1.099   8.261   0.769
18512TIP3    H155413   1.178   8.241   0.719
18512TIP3    H255414   1.096   8.194   0.837
18513TIP3   OH255415   7.766   3.302   6.908
18513TIP3    H155416   7.748   3.253   6.828
18513TIP3    H255417   7.737   3.391   6.888
18514TIP3   OH255418   0.705   7.648   0.758
18514TIP3    H155419   0.705   7.568   0.704
18514TIP3    H255420   0.662   7.713   0.703
18515TIP3   OH255421   0.705   7.436   0.566
18515TIP3    H155422   0.736   7.475   0.484
18515TIP3    H255423   0.614   7.412   0.549
18516TIP3   OH255424   0.734   7.973   0.441
18516TIP3    H155425   0.817   7.975   0.392
18516TIP3    H255426   0.679   8.038   0.397
18517TIP3   OH255427   1.319   7.942   0.817
18517TIP3    H155428   1.367   7.863   0.841
18517TIP3    H255429   1.387   8.004   0.790
18518TIP3   OH255430   1.359   8.192   0.555
18518TIP3    H155431   1.299   8.242   0.499
18518TIP3    H255432   1.445   8.209   0.519
18519TIP3   OH255433   0.583   7.758   0.989
18519TIP3    H155434   0.514   7.693   1.004
18519TIP3    H255435   0.617   7.738   0.902
18520TIP3   OH255436   0.836   7.201   0.633
18520TIP3    H155437   0.790   7.281   0.609
18520TIP3    H255438   0.772   7.131   0.619
18521TIP3   OH255439   0.963   7.702   0.851
18521TIP3    H155440   0.952   7.693   0.945
18521TIP3    H255441   0.878   7.678   0.815
18522TIP3   OH255442   1.203   7.652   0.707
18522TIP3    H155443   1.126   7.655   0.763
18522TIP3    H255444   1.274   7.623   0.765
18523TIP3   OH255445   1.453   7.589   0.860
18523TIP3    H155446   1.440   7.498   0.885
18523TIP3    H255447   1.434   7.639   0.939
18524TIP3   OH255448   0.421   7.540   1.043
18524TIP3    H155449   0.425   7.453   1.005
18524TIP3    H255450   0.456   7.529   1.132
18525TIP3   OH255451   0.933   7.209   0.887
18525TIP3    H155452   0.995   7.137   0.878
18525TIP3    H255453   0.887   7.211   0.803
18526TIP3   OH255454   1.000   7.422   1.050
18526TIP3    H155455   0.980   7.353   0.987
18526TIP3    H255456   0.925   7.481   1.045
18527TIP3   OH255457   6.753   4.025   7.145
18527TIP3    H155458   6.848   4.025   7.134
18527TIP3    H255459   6.720   4.079   7.073
18528TIP3   OH255460   6.236   3.414   7.361
18528TIP3    H155461   6.330   3.431   7.358
18528TIP3    H255462   6.226   3.327   7.324
18529TIP3   OH255463   6.150   4.022   7.779
18529TIP3    H155464   6.081   3.967   7.744
18529TIP3    H255465   6.192   3.968   7.847
18530TIP3   OH255466   9.555   8.495  -0.033
18530TIP3    H155467   9.536   8.424   0.028
18530TIP3    H255468   9.602   8.560   0.019
18531TIP3   OH255469   8.008   4.283   7.769
18531TIP3    H155470   8.037   4.313   7.855
18531TIP3    H255471   8.074   4.317   7.708
18532TIP3   OH255472   1.507   8.916   0.050
18532TIP3    H155473   1.463   8.832   0.042
18532TIP3    H255474   1.584   8.897   0.104
18533TIP3   OH255475   1.552   8.597   0.622
18533TIP3    H155476   1.480   8.603   0.685
18533TIP3    H255477   1.594   8.683   0.625
18534TIP3   OH255478   7.902   3.490   7.243
18534TIP3    H155479   7.969   3.552   7.213
18534TIP3    H255480   7.942   3.449   7.320
18535TIP3   OH255481   8.027   3.354   7.444
18535TIP3    H155482   7.967   3.314   7.507
18535TIP3    H255483   8.098   3.389   7.498
18536TIP3   OH255484   8.085   3.745   7.877
18536TIP3    H155485   8.137   3.681   7.828
18536TIP3    H255486   8.078   3.820   7.818
18537TIP3   OH255487   1.381   8.668   0.072
18537TIP3    H155488   1.312   8.709   0.124
18537TIP3    H255489   1.335   8.620   0.003
18538TIP3   OH255490   7.966   3.265   7.093
18538TIP3    H155491   7.897   3.266   7.027
18538TIP3    H255492   7.945   3.338   7.151
18539TIP3   OH255493   7.838   2.934   7.047
18539TIP3    H155494   7.797   2.976   6.971
18539TIP3    H255495   7.814   2.842   7.039
18540TIP3   OH255496   7.842   3.210   7.596
18540TIP3    H155497   7.852   3.115   7.589
18540TIP3    H255498   7.830   3.226   7.690
18541TIP3   OH255499   9.740   7.903   0.337
18541TIP3    H155500   9.735   7.874   0.246
18541TIP3    H255501   9.834   7.907   0.356
18542TIP3   OH255502   1.601   8.256   0.446
18542TIP3    H155503   1.672   8.191   0.440
18542TIP3    H255504   1.627   8.325   0.386
18543TIP3   OH255505   1.787   8.062   0.471
18543TIP3    H155506   1.711   8.012   0.503
18543TIP3    H255507   1.861   8.002   0.484
18544TIP3   OH255508   7.784   2.668   7.034
18544TIP3    H155509   7.856   2.640   7.090
18544TIP3    H255510   7.710   2.613   7.060
18545TIP3   OH255511   7.841   2.924   7.487
18545TIP3    H155512   7.879   2.838   7.504
18545TIP3    H255513   7.898   2.962   7.419
18546TIP3   OH255514   8.006   3.104   7.985
18546TIP3    H155515   8.089   3.128   7.942
18546TIP3    H255516   8.014   3.138   8.074
18547TIP3   OH255517   1.538   7.867   0.216
18547TIP3    H155518   1.460   7.899   0.262
18547TIP3    H255519   1.571   7.943   0.169
18548TIP3   OH255520   0.156   7.592   1.017
18548TIP3    H155521   0.252   7.587   1.014
18548TIP3    H255522   0.129   7.508   1.055
18549TIP3   OH255523   7.950   2.675   7.527
18549TIP3    H155524   7.996   2.662   7.610
18549TIP3    H255525   7.888   2.602   7.524
18550TIP3   OH255526   0.117   7.286   0.351
18550TIP3    H155527   0.172   7.207   0.356
18550TIP3    H255528   0.178   7.357   0.335
18551TIP3   OH255529   9.720   7.560   0.417
18551TIP3    H155530   9.767   7.546   0.335
18551TIP3    H255531   9.750   7.646   0.447
18552TIP3   OH255532   1.850   7.582   0.603
18552TIP3    H155533   1.770   7.634   0.604
18552TIP3    H255534   1.837   7.519   0.532
18553TIP3   OH255535   8.033   2.614   7.158
18553TIP3    H155536   8.070   2.542   7.107
18553TIP3    H255537   8.098   2.683   7.152
18554TIP3   OH255538   6.433   2.447   7.921
18554TIP3    H155539   6.341   2.440   7.945
18554TIP3    H255540   6.433   2.500   7.842
18555TIP3   OH255541   7.596   4.144   7.424
18555TIP3    H155542   7.645   4.130   7.344
18555TIP3    H255543   7.646   4.210   7.472
18556TIP3   OH255544   0.121   7.145   0.736
18556TIP3    H155545   0.071   7.137   0.817
18556TIP3    H255546   0.059   7.179   0.672
18557TIP3   OH255547   0.161   8.566   0.810
18557TIP3    H155548   0.071   8.540   0.791
18557TIP3    H255549   0.172   8.551   0.904
18558TIP3   OH255550   0.342   8.602   0.355
18558TIP3    H155551   0.289   8.674   0.320
18558TIP3    H255552   0.427   8.613   0.314
18559TIP3   OH255553   0.789   8.846   0.496
18559TIP3    H155554   0.828   8.846   0.584
18559TIP3    H255555   0.851   8.895   0.442
18560TIP3   OH255556   0.967   8.996   0.354
18560TIP3    H155557   1.036   8.945   0.311
18560TIP3    H255558   1.015   9.054   0.414
18561TIP3   OH255559   1.749   7.350   0.459
18561TIP3    H155560   1.662   7.355   0.420
18561TIP3    H255561   1.780   7.262   0.437
18562TIP3   OH255562   9.815   8.858   0.382
18562TIP3    H155563   9.729   8.889   0.354
18562TIP3    H255564   9.826   8.894   0.470
18563TIP3   OH255565   0.251   8.836   0.237
18563TIP3    H155566   0.168   8.848   0.283
18563TIP3    H255567   0.234   8.869   0.149
18564TIP3   OH255568   0.679   8.868   0.035
18564TIP3    H155569   0.610   8.885  -0.030
18564TIP3    H255570   0.692   8.952   0.079
18565TIP3   OH255571   0.947   8.806   0.086
18565TIP3    H155572   0.854   8.821   0.068
18565TIP3    H255573   0.991   8.880   0.046
18566TIP3   OH255574   7.690   4.378   8.003
18566TIP3    H155575   7.675   4.461   7.958
18566TIP3    H255576   7.715   4.317   7.933
18567TIP3   OH255577   9.732   8.650   0.124
18567TIP3    H155578   9.752   8.628   0.215
18567TIP3    H255579   9.801   8.608   0.073
18568TIP3   OH255580   6.658   3.900   7.982
18568TIP3    H155581   6.671   3.820   8.033
18568TIP3    H255582   6.745   3.940   7.979
18569TIP3   OH255583   0.388   8.614  -0.013
18569TIP3    H155584   0.420   8.525  -0.025
18569TIP3    H255585   0.429   8.643   0.068
18570TIP3   OH255586   0.993   7.274   0.091
18570TIP3    H155587   0.917   7.230   0.130
18570TIP3    H255588   1.017   7.218   0.017
18571TIP3   OH255589   8.028   2.538   7.980
18571TIP3    H155590   8.060   2.588   7.906
18571TIP3    H255591   7.933   2.546   7.975
18572TIP3   OH255592   8.119   2.635   7.741
18572TIP3    H155593   8.189   2.583   7.701
18572TIP3    H255594   8.147   2.725   7.730
18573TIP3   OH255595   0.199   6.984   0.111
18573TIP3    H155596   0.112   6.947   0.100
18573TIP3    H255597   0.259   6.912   0.091
18574TIP3   OH255598   6.514   2.238   7.730
18574TIP3    H155599   6.560   2.291   7.665
18574TIP3    H255600   6.502   2.296   7.805
18575TIP3   OH255601   7.201   2.383   7.984
18575TIP3    H155602   7.227   2.444   7.915
18575TIP3    H255603   7.155   2.437   8.048
18576TIP3   OH255604   7.759   2.534   7.946
18576TIP3    H155605   7.719   2.509   7.863
18576TIP3    H255606   7.732   2.465   8.007
18577TIP3   OH255607   7.764   2.463   7.517
18577TIP3    H155608   7.682   2.511   7.531
18577TIP3    H255609   7.751   2.380   7.563
18578TIP3   OH255610   6.249   3.803   7.515
18578TIP3    H155611   6.165   3.770   7.483
18578TIP3    H255612   6.244   3.898   7.502
18579TIP3   OH255613   6.652   2.398   7.499
18579TIP3    H155614   6.699   2.332   7.447
18579TIP3    H255615   6.722   2.451   7.537
18580TIP3   OH255616   7.168   2.563   7.597
18580TIP3    H155617   7.204   2.514   7.671
18580TIP3    H255618   7.174   2.654   7.623
18581TIP3   OH255619   7.025   3.991   7.100
18581TIP3    H155620   7.111   4.017   7.069
18581TIP3    H255621   6.999   3.918   7.044
18582TIP3   OH255622   7.738   4.109   7.191
18582TIP3    H155623   7.730   4.014   7.181
18582TIP3    H255624   7.696   4.145   7.113
18583TIP3   OH255625   0.421   7.265   0.985
18583TIP3    H155626   0.386   7.193   1.038
18583TIP3    H255627   0.514   7.267   1.006
18584TIP3   OH255628   0.671   7.260   1.103
18584TIP3    H155629   0.752   7.233   1.059
18584TIP3    H255630   0.656   7.192   1.168
18585TIP3   OH255631   6.325   3.827   7.158
18585TIP3    H155632   6.319   3.865   7.246
18585TIP3    H255633   6.414   3.791   7.153
18586TIP3   OH255634   1.500   7.315   0.890
18586TIP3    H155635   1.519   7.286   0.979
18586TIP3    H255636   1.586   7.317   0.847
18587TIP3   OH255637   1.430   8.876   0.380
18587TIP3    H155638   1.356   8.841   0.332
18587TIP3    H255639   1.415   8.971   0.383
18588TIP3   OH255640   9.231   3.624   7.145
18588TIP3    H155641   9.213   3.717   7.132
18588TIP3    H255642   9.151   3.580   7.117
18589TIP3   OH255643   9.248   3.615   7.516
18589TIP3    H155644   9.264   3.605   7.610
18589TIP3    H255645   9.184   3.547   7.495
18590TIP3   OH255646   8.532   3.526   7.906
18590TIP3    H155647   8.567   3.458   7.963
18590TIP3    H255648   8.607   3.580   7.882
18591TIP3   OH255649   9.478   3.926   7.211
18591TIP3    H155650   9.458   3.859   7.276
18591TIP3    H255651   9.500   4.004   7.262
18592TIP3   OH255652   8.209   3.131   7.403
18592TIP3    H155653   8.173   3.217   7.422
18592TIP3    H255654   8.136   3.082   7.365
18593TIP3   OH255655   8.271   3.420   7.564
18593TIP3    H155656   8.317   3.348   7.607
18593TIP3    H255657   8.340   3.481   7.540
18594TIP3   OH255658   9.126   4.392   7.225
18594TIP3    H155659   9.173   4.323   7.179
18594TIP3    H255660   9.111   4.356   7.313
18595TIP3   OH255661   9.047   3.834   7.601
18595TIP3    H155662   9.058   3.784   7.520
18595TIP3    H255663   9.129   3.884   7.609
18596TIP3   OH255664   9.449   3.361   7.607
18596TIP3    H155665   9.484   3.275   7.630
18596TIP3    H255666   9.413   3.350   7.519
18597TIP3   OH255667   8.777   3.013   7.572
18597TIP3    H155668   8.761   3.087   7.513
18597TIP3    H255669   8.731   2.940   7.532
18598TIP3   OH255670   9.462   3.102   7.200
18598TIP3    H155671   9.531   3.087   7.265
18598TIP3    H255672   9.509   3.123   7.120
18599TIP3   OH255673   8.414   3.212   7.682
18599TIP3    H155674   8.496   3.199   7.729
18599TIP3    H255675   8.424   3.163   7.601
18600TIP3   OH255676   8.858   3.408   7.473
18600TIP3    H155677   8.949   3.384   7.490
18600TIP3    H255678   8.817   3.327   7.442
18601TIP3   OH255679   2.244   7.621   0.005
18601TIP3    H155680   2.189   7.656  -0.065
18601TIP3    H255681   2.194   7.634   0.085
18602TIP3   OH255682   9.128   3.851   7.013
18602TIP3    H155683   9.082   3.825   6.934
18602TIP3    H255684   9.088   3.934   7.039
18603TIP3   OH255685   8.881   3.772   7.807
18603TIP3    H155686   8.821   3.839   7.839
18603TIP3    H255687   8.923   3.811   7.730
18604TIP3   OH255688   9.682   3.099   7.356
18604TIP3    H155689   9.681   3.062   7.444
18604TIP3    H255690   9.742   3.173   7.361
18605TIP3   OH255691   8.651   3.113   7.792
18605TIP3    H155692   8.707   3.187   7.817
18605TIP3    H255693   8.697   3.072   7.718
18606TIP3   OH255694   8.711   3.966   7.909
18606TIP3    H155695   8.688   4.039   7.852
18606TIP3    H255696   8.634   3.953   7.964
18607TIP3   OH255697   8.107   3.657   7.138
18607TIP3    H155698   8.067   3.687   7.056
18607TIP3    H255699   8.139   3.737   7.180
18608TIP3   OH255700   9.545   4.172   7.374
18608TIP3    H155701   9.460   4.160   7.417
18608TIP3    H255702   9.538   4.256   7.330
18609TIP3   OH255703   9.123   2.718   7.700
18609TIP3    H155704   9.124   2.630   7.738
18609TIP3    H255705   9.057   2.765   7.751
18610TIP3   OH255706   9.259   4.220   7.056
18610TIP3    H155707   9.300   4.137   7.034
18610TIP3    H255708   9.313   4.286   7.012
18611TIP3   OH255709   9.394   4.003   6.958
18611TIP3    H155710   9.347   3.929   6.920
18611TIP3    H255711   9.429   3.969   7.040
18612TIP3   OH255712   9.758   4.086   7.719
18612TIP3    H155713   9.750   4.009   7.662
18612TIP3    H255714   9.746   4.160   7.660
18613TIP3   OH255715   9.058   3.479   6.976
18613TIP3    H155716   8.980   3.533   6.963
18613TIP3    H255717   9.105   3.485   6.893
18614TIP3   OH255718   9.063   3.215   6.759
18614TIP3    H155719   9.108   3.300   6.750
18614TIP3    H255720   9.066   3.178   6.671
18615TIP3   OH255721   0.144   3.701   7.540
18615TIP3    H155722   0.074   3.762   7.564
18615TIP3    H255723   0.190   3.745   7.468
18616TIP3   OH255724   9.410   3.557   6.952
18616TIP3    H155725   9.356   3.587   7.025
18616TIP3    H255726   9.495   3.536   6.992
18617TIP3   OH255727   9.609   3.591   7.826
18617TIP3    H155728   9.627   3.670   7.877
18617TIP3    H255729   9.514   3.595   7.809
18618TIP3   OH255730   8.658   3.551   7.336
18618TIP3    H155731   8.610   3.483   7.288
18618TIP3    H255732   8.722   3.503   7.388
18619TIP3   OH255733   8.777   3.535   7.719
18619TIP3    H155734   8.805   3.519   7.629
18619TIP3    H255735   8.818   3.618   7.742
18620TIP3   OH255736   9.309   4.168   7.498
18620TIP3    H155737   9.291   4.246   7.551
18620TIP3    H255738   9.294   4.095   7.558
18621TIP3   OH255739   2.382   8.708   0.044
18621TIP3    H155740   2.324   8.770   0.089
18621TIP3    H255741   2.323   8.652  -0.006
18622TIP3   OH255742   9.257   3.413   6.775
18622TIP3    H155743   9.313   3.470   6.828
18622TIP3    H255744   9.279   3.436   6.684
18623TIP3   OH255745   2.139   8.261   0.148
18623TIP3    H155746   2.145   8.347   0.190
18623TIP3    H255747   2.045   8.241   0.149
18624TIP3   OH255748   9.001   4.096   7.041
18624TIP3    H155749   9.068   4.156   7.075
18624TIP3    H255750   8.928   4.153   7.017
18625TIP3   OH255751   2.177   8.876   0.129
18625TIP3    H155752   2.146   8.874   0.038
18625TIP3    H255753   2.100   8.854   0.181
18626TIP3   OH255754   9.778   2.683   6.853
18626TIP3    H155755   9.688   2.697   6.882
18626TIP3    H255756   9.787   2.739   6.777
18627TIP3   OH255757   8.513   3.384   7.152
18627TIP3    H155758   8.451   3.443   7.108
18627TIP3    H255759   8.457   3.318   7.193
18628TIP3   OH255760   9.567   4.030   6.370
18628TIP3    H155761   9.572   4.125   6.358
18628TIP3    H255762   9.657   4.000   6.358
18629TIP3   OH255763   1.756   8.404   0.076
18629TIP3    H155764   1.694   8.382   0.006
18629TIP3    H255765   1.795   8.320   0.101
18630TIP3   OH255766   8.141   3.977   7.717
18630TIP3    H155767   8.234   3.966   7.695
18630TIP3    H255768   8.138   4.058   7.768
18631TIP3   OH255769   0.191   4.456   7.739
18631TIP3    H155770   0.248   4.386   7.772
18631TIP3    H255771   0.114   4.453   7.796
18632TIP3   OH255772   9.115   4.217   7.904
18632TIP3    H155773   9.115   4.308   7.933
18632TIP3    H255774   9.045   4.175   7.954
18633TIP3   OH255775   8.877   4.351   6.849
18633TIP3    H155776   8.826   4.327   6.771
18633TIP3    H255777   8.841   4.435   6.876
18634TIP3   OH255778   8.310   4.191   7.239
18634TIP3    H155779   8.364   4.188   7.318
18634TIP3    H255780   8.259   4.110   7.242
18635TIP3   OH255781   9.080   4.246   6.494
18635TIP3    H155782   9.136   4.178   6.458
18635TIP3    H255783   9.109   4.255   6.585
18636TIP3   OH255784   9.127   4.292   6.765
18636TIP3    H155785   9.039   4.306   6.802
18636TIP3    H255786   9.175   4.247   6.834
18637TIP3   OH255787   1.958   8.590   0.069
18637TIP3    H155788   2.011   8.571   0.146
18637TIP3    H255789   1.887   8.526   0.073
18638TIP3   OH255790   8.891   2.802   7.838
18638TIP3    H155791   8.804   2.770   7.813
18638TIP3    H255792   8.874   2.884   7.884
18639TIP3   OH255793   9.332   3.470   6.523
18639TIP3    H155794   9.293   3.443   6.440
18639TIP3    H255795   9.412   3.515   6.498
18640TIP3   OH255796   8.825   3.311   7.868
18640TIP3    H155797   8.778   3.331   7.949
18640TIP3    H255798   8.812   3.389   7.813
18641TIP3   OH255799   8.710   3.187   7.378
18641TIP3    H155800   8.618   3.171   7.403
18641TIP3    H255801   8.720   3.142   7.294
18642TIP3   OH255802   9.168   3.254   7.067
18642TIP3    H155803   9.117   3.336   7.063
18642TIP3    H255804   9.259   3.283   7.061
18643TIP3   OH255805   9.361   3.309   7.354
18643TIP3    H155806   9.302   3.353   7.292
18643TIP3    H255807   9.385   3.228   7.310
18644TIP3   OH255808   2.117   7.958   0.079
18644TIP3    H155809   2.142   8.025   0.143
18644TIP3    H255810   2.107   7.878   0.131
18645TIP3   OH255811   8.701   2.826   6.788
18645TIP3    H155812   8.688   2.814   6.882
18645TIP3    H255813   8.622   2.871   6.759
18646TIP3   OH255814   8.240   2.858   7.660
18646TIP3    H155815   8.313   2.891   7.712
18646TIP3    H255816   8.279   2.829   7.578
18647TIP3   OH255817   8.214   2.843   7.177
18647TIP3    H155818   8.259   2.878   7.100
18647TIP3    H255819   8.152   2.912   7.202
18648TIP3   OH255820   9.339   3.549   7.770
18648TIP3    H155821   9.383   3.485   7.715
18648TIP3    H255822   9.324   3.503   7.853
18649TIP3   OH255823   9.035   2.985   7.455
18649TIP3    H155824   8.951   3.000   7.498
18649TIP3    H255825   9.100   3.017   7.517
18650TIP3   OH255826   8.470   3.072   7.452
18650TIP3    H155827   8.379   3.082   7.427
18650TIP3    H255828   8.491   2.981   7.431
18651TIP3   OH255829   8.754   3.064   7.128
18651TIP3    H155830   8.821   3.131   7.115
18651TIP3    H255831   8.690   3.081   7.059
18652TIP3   OH255832   9.498   3.093   7.622
18652TIP3    H155833   9.477   3.106   7.714
18652TIP3    H255834   9.430   3.033   7.590
18653TIP3   OH255835   8.584   3.096   6.921
18653TIP3    H155836   8.508   3.055   6.880
18653TIP3    H255837   8.633   3.134   6.848
18654TIP3   OH255838   9.699   4.779   7.861
18654TIP3    H155839   9.697   4.805   7.769
18654TIP3    H255840   9.768   4.833   7.901
18655TIP3   OH255841   2.121   8.512   0.285
18655TIP3    H155842   2.200   8.546   0.327
18655TIP3    H255843   2.057   8.506   0.356
18656TIP3   OH255844   9.122   3.336   7.543
18656TIP3    H155845   9.200   3.301   7.500
18656TIP3    H255846   9.128   3.305   7.633
18657TIP3   OH255847   8.644   2.830   7.421
18657TIP3    H155848   8.607   2.755   7.469
18657TIP3    H255849   8.697   2.790   7.352
18658TIP3   OH255850   9.097   3.242   7.832
18658TIP3    H155851   9.010   3.280   7.847
18658TIP3    H255852   9.156   3.297   7.884
18659TIP3   OH255853   8.834   3.631   6.936
18659TIP3    H155854   8.763   3.569   6.920
18659TIP3    H255855   8.813   3.672   7.020
18660TIP3   OH255856   9.730   3.871   7.553
18660TIP3    H155857   9.752   3.917   7.473
18660TIP3    H255858   9.647   3.827   7.534
18661TIP3   OH255859   9.248   3.956   7.923
18661TIP3    H155860   9.256   3.919   8.011
18661TIP3    H255861   9.194   4.033   7.934
18662TIP3   OH255862   9.353   3.167   6.876
18662TIP3    H155863   9.445   3.161   6.902
18662TIP3    H255864   9.350   3.237   6.811
18663TIP3   OH255865   8.498   3.590   7.597
18663TIP3    H155866   8.527   3.661   7.539
18663TIP3    H255867   8.573   3.573   7.654
18664TIP3   OH255868   8.976   3.781   6.750
18664TIP3    H155869   8.933   3.867   6.754
18664TIP3    H255870   8.924   3.726   6.809
18665TIP3   OH255871   1.871   8.195   0.216
18665TIP3    H155872   1.897   8.185   0.308
18665TIP3    H255873   1.805   8.127   0.202
18666TIP3   OH255874   2.601   8.315   0.223
18666TIP3    H155875   2.544   8.250   0.180
18666TIP3    H255876   2.687   8.272   0.227
18667TIP3   OH255877   9.395   4.219   7.816
18667TIP3    H155878   9.301   4.204   7.828
18667TIP3    H255879   9.422   4.265   7.896
18668TIP3   OH255880   9.797   3.274   6.737
18668TIP3    H155881   9.739   3.225   6.677
18668TIP3    H255882   9.824   3.351   6.686
18669TIP3   OH255883   0.209   4.139   7.794
18669TIP3    H155884   0.114   4.129   7.789
18669TIP3    H255885   0.242   4.103   7.711
18670TIP3   OH255886   9.505   4.100   6.637
18670TIP3    H155887   9.479   4.033   6.700
18670TIP3    H255888   9.517   4.053   6.554
18671TIP3   OH255889   9.500   3.727   7.474
18671TIP3    H155890   9.408   3.702   7.489
18671TIP3    H255891   9.538   3.650   7.432
18672TIP3   OH255892   8.190   3.264   6.933
18672TIP3    H155893   8.237   3.345   6.951
18672TIP3    H255894   8.114   3.266   6.991
18673TIP3   OH255895   8.760   3.742   7.175
18673TIP3    H155896   8.752   3.825   7.221
18673TIP3    H255897   8.723   3.677   7.236
18674TIP3   OH255898   8.897   4.302   7.701
18674TIP3    H155899   8.935   4.371   7.647
18674TIP3    H255900   8.972   4.262   7.745
18675TIP3   OH255901   8.533   4.209   7.057
18675TIP3    H155902   8.464   4.193   7.121
18675TIP3    H255903   8.565   4.297   7.077
18676TIP3   OH255904   9.297   3.937   7.656
18676TIP3    H155905   9.280   3.938   7.750
18676TIP3    H255906   9.370   3.876   7.645
18677TIP3   OH255907   9.259   3.828   6.539
18677TIP3    H155908   9.313   3.805   6.615
18677TIP3    H255909   9.170   3.801   6.564
18678TIP3   OH255910   9.533   4.469   7.705
18678TIP3    H155911   9.458   4.410   7.703
18678TIP3    H255912   9.517   4.532   7.634
18679TIP3   OH255913   9.598   4.308   6.358
18679TIP3    H155914   9.636   4.379   6.306
18679TIP3    H255915   9.517   4.345   6.394
18680TIP3   OH255916   2.076   7.698   0.218
18680TIP3    H155917   1.984   7.722   0.228
18680TIP3    H255918   2.086   7.619   0.271
18681TIP3   OH255919   9.419   3.760   6.755
18681TIP3    H155920   9.406   3.695   6.824
18681TIP3    H255921   9.514   3.761   6.740
18682TIP3   OH255922   8.335   4.164   7.862
18682TIP3    H155923   8.383   4.087   7.891
18682TIP3    H255924   8.367   4.235   7.916
18683TIP3   OH255925   8.625   3.807   6.539
18683TIP3    H155926   8.640   3.718   6.509
18683TIP3    H255927   8.609   3.799   6.633
18684TIP3   OH255928   8.574   3.814   6.810
18684TIP3    H155929   8.634   3.786   6.880
18684TIP3    H255930   8.574   3.909   6.815
18685TIP3   OH255931   8.306   3.511   7.014
18685TIP3    H155932   8.242   3.550   7.074
18685TIP3    H255933   8.322   3.578   6.948
18686TIP3   OH255934   9.414   3.140   7.873
18686TIP3    H155935   9.478   3.198   7.915
18686TIP3    H255936   9.412   3.062   7.929
18687TIP3   OH255937   8.836   4.013   6.757
18687TIP3    H155938   8.751   4.033   6.796
18687TIP3    H255939   8.852   4.085   6.696
18688TIP3   OH255940   2.765   8.019  -0.006
18688TIP3    H155941   2.776   8.070   0.074
18688TIP3    H255942   2.836   7.955  -0.004
18689TIP3   OH255943   9.185   2.829   7.281
18689TIP3    H155944   9.132   2.884   7.338
18689TIP3    H255945   9.262   2.882   7.261
18690TIP3   OH255946   8.579   4.087   6.821
18690TIP3    H155947   8.549   4.155   6.761
18690TIP3    H255948   8.564   4.124   6.908
18691TIP3   OH255949   8.676   2.798   7.065
18691TIP3    H155950   8.684   2.888   7.097
18691TIP3    H255951   8.761   2.758   7.084
18692TIP3   OH255952   9.587   3.484   7.348
18692TIP3    H155953   9.509   3.433   7.368
18692TIP3    H255954   9.658   3.438   7.392
18693TIP3   OH255955   8.300   3.719   6.818
18693TIP3    H155956   8.360   3.792   6.833
18693TIP3    H255957   8.344   3.665   6.752
18694TIP3   OH255958   8.244   2.995   6.951
18694TIP3    H155959   8.243   3.090   6.949
18694TIP3    H255960   8.160   2.969   6.912
18695TIP3   OH255961   9.556   4.446   7.296
18695TIP3    H155962   9.509   4.489   7.225
18695TIP3    H255963   9.648   4.462   7.279
18696TIP3   OH255964   8.631   2.711   7.823
18696TIP3    H155965   8.597   2.680   7.739
18696TIP3    H255966   8.619   2.637   7.883
18697TIP3   OH255967   8.161   3.928   7.209
18697TIP3    H155968   8.085   3.966   7.253
18697TIP3    H255969   8.158   3.964   7.121
18698TIP3   OH255970   1.793   9.089   0.279
18698TIP3    H155971   1.878   9.091   0.323
18698TIP3    H255972   1.771   8.996   0.274
18699TIP3   OH255973   2.274   9.053   0.322
18699TIP3    H155974   2.369   9.042   0.326
18699TIP3    H255975   2.246   8.997   0.249
18700TIP3   OH255976   8.789   4.009   6.450
18700TIP3    H155977   8.731   3.945   6.490
18700TIP3    H255978   8.864   3.958   6.421
18701TIP3   OH255979   2.916   8.962   0.056
18701TIP3    H155980   2.902   8.893   0.120
18701TIP3    H255981   2.991   9.012   0.090
18702TIP3   OH255982   9.227   4.053   6.363
18702TIP3    H155983   9.266   3.989   6.422
18702TIP3    H255984   9.283   4.051   6.285
18703TIP3   OH255985   1.921   8.499   0.477
18703TIP3    H155986   1.944   8.406   0.484
18703TIP3    H255987   1.836   8.500   0.433
18704TIP3   OH255988   8.436   3.529   6.669
18704TIP3    H155989   8.486   3.499   6.745
18704TIP3    H255990   8.501   3.535   6.598
18705TIP3   OH255991   2.532   8.583   0.250
18705TIP3    H155992   2.490   8.601   0.165
18705TIP3    H255993   2.563   8.493   0.242
18706TIP3   OH255994   8.943   3.727   6.481
18706TIP3    H155995   8.944   3.744   6.575
18706TIP3    H255996   8.946   3.632   6.474
18707TIP3   OH255997   9.555   3.967   7.862
18707TIP3    H155998   9.621   4.014   7.811
18707TIP3    H255999   9.475   4.018   7.852
18708TIP3   OH256000   2.040   8.236   0.459
18708TIP3    H156001   2.094   8.158   0.450
18708TIP3    H256002   2.057   8.267   0.548
18709TIP3   OH256003   8.643   3.432   6.895
18709TIP3    H156004   8.608   3.397   6.977
18709TIP3    H256005   8.673   3.354   6.847
18710TIP3   OH256006   2.382   8.118   0.122
18710TIP3    H156007   2.305   8.174   0.127
18710TIP3    H256008   2.430   8.149   0.044
18711TIP3   OH256009   8.740   3.221   6.733
18711TIP3    H156010   8.708   3.225   6.643
18711TIP3    H256011   8.835   3.221   6.725
18712TIP3   OH256012   2.885   8.503   0.223
18712TIP3    H156013   2.976   8.512   0.193
18712TIP3    H256014   2.891   8.509   0.318
18713TIP3   OH256015   9.564   3.560   6.392
18713TIP3    H156016   9.542   3.509   6.315
18713TIP3    H256017   9.532   3.648   6.373
18714TIP3   OH256018   2.471   7.883   0.244
18714TIP3    H156019   2.499   7.821   0.176
18714TIP3    H256020   2.451   7.963   0.197
18715TIP3   OH256021   2.506   7.690   0.048
18715TIP3    H156022   2.537   7.731  -0.033
18715TIP3    H256023   2.414   7.671   0.031
18716TIP3   OH256024   9.065   3.606   7.923
18716TIP3    H156025   9.146   3.612   7.873
18716TIP3    H256026   9.008   3.672   7.885
18717TIP3   OH256027   3.171   8.466   0.046
18717TIP3    H156028   3.101   8.507  -0.006
18717TIP3    H256029   3.233   8.434  -0.020
18718TIP3   OH256030   2.386   8.021   0.475
18718TIP3    H156031   2.297   7.988   0.487
18718TIP3    H256032   2.411   7.994   0.387
18719TIP3   OH256033   2.586   7.445   0.161
18719TIP3    H156034   2.578   7.526   0.110
18719TIP3    H256035   2.544   7.378   0.107
18720TIP3   OH256036   2.204   7.797   0.493
18720TIP3    H156037   2.260   7.747   0.434
18720TIP3    H256038   2.234   7.773   0.581
18721TIP3   OH256039   8.550   4.293   6.635
18721TIP3    H156040   8.644   4.284   6.620
18721TIP3    H256041   8.518   4.340   6.558
18722TIP3   OH256042   8.030   3.671   6.851
18722TIP3    H156043   8.122   3.694   6.841
18722TIP3    H256044   8.023   3.583   6.814
18723TIP3   OH256045   7.942   4.282   7.268
18723TIP3    H156046   7.876   4.222   7.232
18723TIP3    H256047   7.988   4.229   7.334
18724TIP3   OH256048   8.077   4.139   7.458
18724TIP3    H156049   8.069   4.059   7.510
18724TIP3    H256050   8.130   4.198   7.511
18725TIP3   OH256051   0.008   4.536   7.254
18725TIP3    H156052   0.033   4.563   7.342
18725TIP3    H256053   0.072   4.579   7.196
18726TIP3   OH256054   0.035   4.551   7.533
18726TIP3    H156055  -0.013   4.468   7.523
18726TIP3    H256056   0.104   4.531   7.596
18727TIP3   OH256057   9.695   3.748   6.729
18727TIP3    H156058   9.760   3.814   6.703
18727TIP3    H256059   9.734   3.705   6.805
18728TIP3   OH256060   0.012   3.611   6.932
18728TIP3    H156061  -0.054   3.567   6.986
18728TIP3    H256062   0.073   3.649   6.995
18729TIP3   OH256063   0.083   4.003   7.362
18729TIP3    H156064   0.125   3.944   7.299
18729TIP3    H256065   0.066   4.083   7.313
18730TIP3   OH256066   9.708   4.304   7.557
18730TIP3    H156067   9.642   4.346   7.612
18730TIP3    H256068   9.658   4.257   7.491
18731TIP3   OH256069   9.767   3.530   6.574
18731TIP3    H156070   9.695   3.522   6.511
18731TIP3    H256071   9.740   3.599   6.634
18732TIP3   OH256072   9.625   3.193   6.545
18732TIP3    H156073   9.606   3.235   6.461
18732TIP3    H256074   9.601   3.102   6.532
18733TIP3   OH256075   9.639   3.466   7.083
18733TIP3    H156076   9.646   3.371   7.074
18733TIP3    H256077   9.625   3.480   7.176
18734TIP3   OH256078   8.272   3.540   7.823
18734TIP3    H156079   8.270   3.517   7.730
18734TIP3    H256080   8.365   3.543   7.845
18735TIP3   OH256081   9.574   2.929   6.528
18735TIP3    H156082   9.650   2.890   6.570
18735TIP3    H256083   9.502   2.869   6.546
18736TIP3   OH256084   9.630   3.182   6.970
18736TIP3    H156085   9.673   3.098   6.989
18736TIP3    H256086   9.682   3.220   6.899
18737TIP3   OH256087   0.009   3.353   7.451
18737TIP3    H156088   0.096   3.373   7.416
18737TIP3    H256089   0.008   3.396   7.537
18738TIP3   OH256090   0.027   3.491   7.683
18738TIP3    H156091  -0.053   3.525   7.723
18738TIP3    H256092   0.065   3.567   7.638
18739TIP3   OH256093   1.934   7.832   0.487
18739TIP3    H156094   2.029   7.845   0.488
18739TIP3    H256095   1.919   7.761   0.549
18740TIP3   OH256096   9.735   2.935   7.025
18740TIP3    H156097   9.773   2.925   7.112
18740TIP3    H256098   9.681   2.857   7.013
18741TIP3   OH256099   8.448   2.920   7.833
18741TIP3    H156100   8.510   2.847   7.842
18741TIP3    H256101   8.504   2.997   7.826
18742TIP3   OH256102   8.252   3.196   7.908
18742TIP3    H156103   8.298   3.188   7.824
18742TIP3    H256104   8.273   3.284   7.938
18743TIP3   OH256105   0.028   2.853   6.634
18743TIP3    H156106   0.071   2.769   6.615
18743TIP3    H256107   0.076   2.917   6.581
18744TIP3   OH256108   8.231   2.698   7.405
18744TIP3    H156109   8.140   2.695   7.434
18744TIP3    H256110   8.229   2.756   7.329
18745TIP3   OH256111   9.393   4.403   6.910
18745TIP3    H156112   9.442   4.386   6.830
18745TIP3    H256113   9.446   4.466   6.958
18746TIP3   OH256114   1.896   7.395   0.223
18746TIP3    H156115   1.848   7.395   0.306
18746TIP3    H256116   1.836   7.435   0.161
18747TIP3   OH256117   1.957   8.827   0.299
18747TIP3    H156118   1.869   8.796   0.277
18747TIP3    H256119   1.967   8.804   0.391
18748TIP3   OH256120   8.668   4.244   7.847
18748TIP3    H156121   8.619   4.315   7.807
18748TIP3    H256122   8.754   4.247   7.805
18749TIP3   OH256123   9.118   4.484   7.986
18749TIP3    H156124   9.157   4.484   8.073
18749TIP3    H256125   9.180   4.533   7.931
18750TIP3   OH256126   9.295   4.634   7.841
18750TIP3    H156127   9.363   4.580   7.799
18750TIP3    H256128   9.343   4.691   7.900
18751TIP3   OH256129   8.345   4.497   7.868
18751TIP3    H156130   8.258   4.529   7.843
18751TIP3    H256131   8.356   4.527   7.958
18752TIP3   OH256132   8.582   4.478   7.726
18752TIP3    H156133   8.498   4.488   7.771
18752TIP3    H256134   8.565   4.505   7.636
18753TIP3   OH256135   9.010   4.506   7.522
18753TIP3    H156136   8.938   4.519   7.460
18753TIP3    H256137   9.020   4.590   7.566
18754TIP3   OH256138   9.277   4.444   7.574
18754TIP3    H156139   9.183   4.456   7.557
18754TIP3    H256140   9.319   4.521   7.534
18755TIP3   OH256141   9.489   4.636   7.490
18755TIP3    H156142   9.472   4.718   7.444
18755TIP3    H256143   9.511   4.573   7.421
18756TIP3   OH256144   8.256   4.287   7.619
18756TIP3    H156145   8.282   4.265   7.709
18756TIP3    H256146   8.324   4.248   7.564
18757TIP3   OH256147   8.451   4.174   7.469
18757TIP3    H156148   8.478   4.083   7.471
18757TIP3    H256149   8.534   4.223   7.465
18758TIP3   OH256150   8.721   4.260   7.465
18758TIP3    H156151   8.722   4.168   7.441
18758TIP3    H256152   8.763   4.264   7.551
18759TIP3   OH256153   9.302   2.908   7.565
18759TIP3    H156154   9.245   2.847   7.611
18759TIP3    H256155   9.368   2.853   7.522
18760TIP3   OH256156   9.799   2.794   7.483
18760TIP3    H156157   9.849   2.847   7.421
18760TIP3    H256158   9.708   2.821   7.469
18761TIP3   OH256159   0.101   2.895   7.248
18761TIP3    H156160   0.161   2.850   7.189
18761TIP3    H256161   0.121   2.988   7.236
18762TIP3   OH256162   8.541   2.618   7.576
18762TIP3    H156163   8.449   2.589   7.577
18762TIP3    H256164   8.591   2.536   7.572
18763TIP3   OH256165   8.332   2.491   7.226
18763TIP3    H156166   8.357   2.546   7.153
18763TIP3    H256167   8.299   2.552   7.292
18764TIP3   OH256168   8.985   2.652   7.460
18764TIP3    H156169   9.030   2.711   7.399
18764TIP3    H256170   9.010   2.683   7.547
18765TIP3   OH256171   9.522   2.773   7.446
18765TIP3    H156172   9.533   2.775   7.351
18765TIP3    H256173   9.558   2.688   7.472
18766TIP3   OH256174   9.552   2.721   7.012
18766TIP3    H156175   9.459   2.741   7.001
18766TIP3    H256176   9.553   2.636   7.056
18767TIP3   OH256177   8.044   4.060   7.002
18767TIP3    H156178   7.960   4.026   6.969
18767TIP3    H256179   8.037   4.155   6.991
18768TIP3   OH256180   8.444   2.647   6.988
18768TIP3    H156181   8.490   2.585   6.932
18768TIP3    H256182   8.512   2.703   7.025
18769TIP3   OH256183   8.819   4.248   6.582
18769TIP3    H156184   8.906   4.272   6.551
18769TIP3    H256185   8.794   4.174   6.527
18770TIP3   OH256186   9.538   4.365   6.677
18770TIP3    H156187   9.531   4.270   6.669
18770TIP3    H256188   9.491   4.399   6.601
18771TIP3   OH256189   8.124   4.087   6.646
18771TIP3    H156190   8.121   4.110   6.739
18771TIP3    H256191   8.210   4.047   6.634
18772TIP3   OH256192   9.748   4.509   7.877
18772TIP3    H156193   9.675   4.481   7.822
18772TIP3    H256194   9.744   4.604   7.876
18773TIP3   OH256195   0.178   3.387   6.913
18773TIP3    H156196   0.122   3.465   6.911
18773TIP3    H256197   0.134   3.325   6.855
18774TIP3   OH256198   0.247   3.674   7.062
18774TIP3    H156199   0.318   3.618   7.096
18774TIP3    H256200   0.267   3.683   6.969
18775TIP3   OH256201   0.096   3.920   6.648
18775TIP3    H156202   0.080   3.922   6.554
18775TIP3    H256203   0.129   4.008   6.669
18776TIP3   OH256204   0.284   4.011   7.557
18776TIP3    H156205   0.210   4.003   7.496
18776TIP3    H256206   0.327   3.926   7.554
18777TIP3   OH256207   0.147   4.237   7.201
18777TIP3    H156208   0.242   4.241   7.192
18777TIP3    H256209   0.124   4.316   7.251
18778TIP3   OH256210   0.276   4.456   6.746
18778TIP3    H156211   0.335   4.452   6.821
18778TIP3    H256212   0.234   4.371   6.744
18779TIP3   OH256213   0.431   4.240   7.570
18779TIP3    H156214   0.456   4.231   7.662
18779TIP3    H256215   0.362   4.175   7.558
18780TIP3   OH256216   0.207   3.131   7.166
18780TIP3    H156217   0.293   3.169   7.186
18780TIP3    H256218   0.189   3.158   7.076
18781TIP3   OH256219   0.166   3.589   6.396
18781TIP3    H156220   0.240   3.582   6.457
18781TIP3    H256221   0.089   3.567   6.449
18782TIP3   OH256222   0.327   4.425   7.350
18782TIP3    H156223   0.367   4.348   7.390
18782TIP3    H256224   0.349   4.497   7.409
18783TIP3   OH256225   0.162   4.190   6.696
18783TIP3    H156226   0.085   4.213   6.747
18783TIP3    H256227   0.145   4.228   6.609
18784TIP3   OH256228   0.299   4.706   7.747
18784TIP3    H156229   0.374   4.692   7.805
18784TIP3    H256230   0.260   4.619   7.737
18785TIP3   OH256231   0.025   3.931   6.333
18785TIP3    H156232   0.120   3.925   6.345
18785TIP3    H256233   0.001   3.851   6.286
18786TIP3   OH256234   9.738   4.539   6.756
18786TIP3    H156235   9.672   4.479   6.720
18786TIP3    H256236   9.785   4.487   6.821
18787TIP3   OH256237   0.068   4.392   6.950
18787TIP3    H156238   0.058   4.316   7.007
18787TIP3    H256239   0.124   4.453   7.000
18788TIP3   OH256240   0.282   3.794   7.308
18788TIP3    H156241   0.261   3.768   7.218
18788TIP3    H256242   0.370   3.831   7.303
18789TIP3   OH256243   0.254   3.461   7.368
18789TIP3    H156244   0.250   3.485   7.275
18789TIP3    H256245   0.246   3.544   7.414
18790TIP3   OH256246   0.177   3.002   6.875
18790TIP3    H156247   0.082   2.988   6.873
18790TIP3    H256248   0.199   3.027   6.786
18791TIP3   OH256249   0.333   4.753   7.355
18791TIP3    H156250   0.249   4.793   7.333
18791TIP3    H256251   0.339   4.760   7.450
18792TIP3   OH256252   0.587   4.742   7.227
18792TIP3    H156253   0.497   4.743   7.260
18792TIP3    H256254   0.578   4.764   7.134
18793TIP3   OH256255   0.259   4.542   7.100
18793TIP3    H156256   0.283   4.522   7.190
18793TIP3    H256257   0.333   4.509   7.048
18794TIP3   OH256258   0.464   4.432   6.944
18794TIP3    H156259   0.483   4.339   6.954
18794TIP3    H256260   0.549   4.475   6.954
18795TIP3   OH256261   0.041   4.313   6.489
18795TIP3    H156262  -0.042   4.279   6.456
18795TIP3    H256263   0.033   4.408   6.482
18796TIP3   OH256264   0.143   4.361   6.147
18796TIP3    H156265   0.107   4.379   6.233
18796TIP3    H256266   0.195   4.281   6.159
18797TIP3   OH256267   4.945   9.032   0.835
18797TIP3    H156268   4.926   9.125   0.819
18797TIP3    H256269   4.871   8.986   0.797
18798TIP3   OH256270   4.957   9.033   1.163
18798TIP3    H156271   4.930   9.013   1.253
18798TIP3    H256272   4.918   8.963   1.110
18799TIP3   OH256273   8.453   0.100   0.898
18799TIP3    H156274   8.454   0.027   0.960
18799TIP3    H256275   8.499   0.170   0.943
18800TIP3   OH256276   8.106   0.559   0.908
18800TIP3    H156277   8.155   0.488   0.866
18800TIP3    H256278   8.094   0.530   0.998
18801TIP3   OH256279   4.772   9.227   1.203
18801TIP3    H156280   4.845   9.180   1.162
18801TIP3    H256281   4.815   9.285   1.267
18802TIP3   OH256282   5.756   8.560   1.249
18802TIP3    H156283   5.764   8.633   1.310
18802TIP3    H256284   5.786   8.595   1.165
18803TIP3   OH256285   5.199   8.503   0.887
18803TIP3    H156286   5.268   8.493   0.953
18803TIP3    H256287   5.242   8.548   0.814
18804TIP3   OH256288   8.108   0.015   0.704
18804TIP3    H156289   8.069  -0.003   0.619
18804TIP3    H256290   8.070   0.099   0.730
18805TIP3   OH256291   5.412   8.514   1.062
18805TIP3    H156292   5.407   8.496   1.156
18805TIP3    H256293   5.466   8.593   1.055
18806TIP3   OH256294   3.885   9.095   0.777
18806TIP3    H156295   3.801   9.112   0.734
18806TIP3    H256296   3.873   9.131   0.865
18807TIP3   OH256297   8.529   0.338   1.073
18807TIP3    H156298   8.439   0.331   1.106
18807TIP3    H256299   8.529   0.418   1.020
18808TIP3   OH256300   8.240   0.386   0.742
18808TIP3    H156301   8.284   0.303   0.720
18808TIP3    H256302   8.295   0.453   0.701
18809TIP3   OH256303   8.375   0.170   0.645
18809TIP3    H156304   8.339   0.092   0.603
18809TIP3    H256305   8.408   0.139   0.729
18810TIP3   OH256306   8.756   0.260   1.395
18810TIP3    H156307   8.747   0.188   1.333
18810TIP3    H256308   8.738   0.339   1.343
18811TIP3   OH256309   4.780   8.887   0.663
18811TIP3    H156310   4.701   8.938   0.645
18811TIP3    H256311   4.828   8.886   0.580
18812TIP3   OH256312   4.746   8.669   0.384
18812TIP3    H156313   4.808   8.723   0.433
18812TIP3    H256314   4.800   8.607   0.336
18813TIP3   OH256315   5.700   9.148   1.254
18813TIP3    H156316   5.612   9.184   1.253
18813TIP3    H256317   5.727   9.147   1.162
18814TIP3   OH256318   5.129   8.967   0.642
18814TIP3    H156319   5.075   8.993   0.716
18814TIP3    H256320   5.213   8.943   0.680
18815TIP3   OH256321   4.350   8.949   1.044
18815TIP3    H156322   4.311   8.898   0.973
18815TIP3    H256323   4.427   8.899   1.070
18816TIP3   OH256324   7.806   0.183   1.110
18816TIP3    H156325   7.760   0.109   1.069
18816TIP3    H256326   7.865   0.142   1.173
18817TIP3   OH256327   8.287   0.333   1.198
18817TIP3    H156328   8.267   0.421   1.229
18817TIP3    H256329   8.280   0.278   1.276
18818TIP3   OH256330   4.974   8.827   0.463
18818TIP3    H156331   5.029   8.885   0.516
18818TIP3    H256332   4.997   8.849   0.373
18819TIP3   OH256333   7.982   0.267   0.732
18819TIP3    H156334   8.058   0.319   0.757
18819TIP3    H256335   7.917   0.331   0.703
18820TIP3   OH256336   5.486   8.071   0.511
18820TIP3    H156337   5.407   8.092   0.562
18820TIP3    H256338   5.503   8.150   0.460
18821TIP3   OH256339   4.232   8.800   0.844
18821TIP3    H156340   4.168   8.843   0.787
18821TIP3    H256341   4.180   8.744   0.902
18822TIP3   OH256342   8.553   0.198   0.060
18822TIP3    H156343   8.558   0.293   0.047
18822TIP3    H256344   8.643   0.167   0.048
18823TIP3   OH256345   8.986   0.627   1.435
18823TIP3    H156346   8.995   0.532   1.426
18823TIP3    H256347   8.897   0.639   1.469
18824TIP3   OH256348   7.857   0.513   0.541
18824TIP3    H156349   7.817   0.495   0.456
18824TIP3    H256350   7.829   0.602   0.562
18825TIP3   OH256351   7.332   0.352   0.866
18825TIP3    H156352   7.351   0.342   0.959
18825TIP3    H256353   7.245   0.314   0.855
18826TIP3   OH256354   8.063   0.411   0.183
18826TIP3    H156355   8.120   0.345   0.144
18826TIP3    H256356   8.097   0.423   0.272
18827TIP3   OH256357   8.110   0.460   0.456
18827TIP3    H156358   8.024   0.469   0.497
18827TIP3    H256359   8.166   0.421   0.524
18828TIP3   OH256360   5.047   8.871   0.205
18828TIP3    H156361   5.013   8.847   0.119
18828TIP3    H256362   5.125   8.924   0.187
18829TIP3   OH256363   4.759   8.245   0.511
18829TIP3    H156364   4.727   8.246   0.602
18829TIP3    H256365   4.719   8.167   0.473
18830TIP3   OH256366   4.394   8.602   1.050
18830TIP3    H156367   4.336   8.530   1.073
18830TIP3    H256368   4.429   8.579   0.964
18831TIP3   OH256369   4.916   8.684   0.789
18831TIP3    H156370   4.866   8.758   0.755
18831TIP3    H256371   4.977   8.661   0.718
18832TIP3   OH256372   5.089   8.724   1.026
18832TIP3    H156373   5.023   8.754   0.964
18832TIP3    H256374   5.113   8.637   0.994
18833TIP3   OH256375   4.414   8.222   0.479
18833TIP3    H156376   4.406   8.219   0.574
18833TIP3    H256377   4.339   8.273   0.449
18834TIP3   OH256378   3.957   8.262   0.876
18834TIP3    H156379   3.985   8.292   0.789
18834TIP3    H256380   3.888   8.324   0.901
18835TIP3   OH256381   4.470   8.473   0.818
18835TIP3    H156382   4.557   8.498   0.787
18835TIP3    H256383   4.411   8.494   0.745
18836TIP3   OH256384   4.303   8.504   0.606
18836TIP3    H156385   4.229   8.462   0.562
18836TIP3    H256386   4.354   8.544   0.536
18837TIP3   OH256387   8.667   1.013   1.519
18837TIP3    H156388   8.670   1.001   1.424
18837TIP3    H256389   8.756   1.035   1.543
18838TIP3   OH256390   4.552   9.039   0.619
18838TIP3    H156391   4.482   8.976   0.605
18838TIP3    H256392   4.537   9.072   0.708
18839TIP3   OH256393   8.717   0.036   1.236
18839TIP3    H156394   8.757   0.081   1.161
18839TIP3    H256395   8.639  -0.006   1.199
18840TIP3   OH256396   5.013   8.351   0.480
18840TIP3    H156397   4.919   8.337   0.482
18840TIP3    H256398   5.025   8.444   0.498
18841TIP3   OH256399   5.084   8.599   0.578
18841TIP3    H156400   5.178   8.606   0.595
18841TIP3    H256401   5.063   8.678   0.527
18842TIP3   OH256402   4.696   9.189   0.437
18842TIP3    H156403   4.653   9.274   0.440
18842TIP3    H256404   4.645   9.134   0.496
18843TIP3   OH256405   5.520   8.690   0.414
18843TIP3    H156406   5.461   8.643   0.356
18843TIP3    H256407   5.521   8.779   0.379
18844TIP3   OH256408   9.009   0.356   1.444
18844TIP3    H156409   8.919   0.324   1.447
18844TIP3    H256410   9.051   0.304   1.376
18845TIP3   OH256411   8.484   0.268   0.323
18845TIP3    H156412   8.468   0.198   0.385
18845TIP3    H256413   8.502   0.223   0.240
18846TIP3   OH256414   5.214   9.133   1.168
18846TIP3    H156415   5.122   9.109   1.162
18846TIP3    H256416   5.260   9.060   1.126
18847TIP3   OH256417   7.604   0.113   0.892
18847TIP3    H156418   7.633   0.198   0.858
18847TIP3    H256419   7.511   0.125   0.910
18848TIP3   OH256420   3.910   8.678   0.625
18848TIP3    H156421   3.980   8.743   0.626
18848TIP3    H256422   3.843   8.715   0.683
18849TIP3   OH256423   4.488   9.124   0.869
18849TIP3    H156424   4.452   9.213   0.873
18849TIP3    H256425   4.442   9.076   0.938
18850TIP3   OH256426   7.571   0.373   0.754
18850TIP3    H156427   7.482   0.371   0.789
18850TIP3    H256428   7.597   0.465   0.759
18851TIP3   OH256429   4.977   9.230   0.230
18851TIP3    H156430   5.032   9.209   0.305
18851TIP3    H256431   4.888   9.210   0.258
18852TIP3   OH256432   8.518   0.631   1.382
18852TIP3    H156433   8.426   0.604   1.380
18852TIP3    H256434   8.521   0.709   1.327
18853TIP3   OH256435   8.583   0.474   0.048
18853TIP3    H156436   8.622   0.537  -0.012
18853TIP3    H256437   8.503   0.516   0.080
18854TIP3   OH256438   5.140   9.166   0.445
18854TIP3    H156439   5.129   9.102   0.515
18854TIP3    H256440   5.234   9.169   0.429
18855TIP3   OH256441   4.344   9.215   0.227
18855TIP3    H156442   4.360   9.126   0.196
18855TIP3    H256443   4.327   9.205   0.320
18856TIP3   OH256444   7.560  -0.017   0.501
18856TIP3    H156445   7.630  -0.044   0.560
18856TIP3    H256446   7.562   0.078   0.504
18857TIP3   OH256447   4.046   8.908   0.676
18857TIP3    H156448   3.984   8.955   0.732
18857TIP3    H256449   4.068   8.971   0.607
18858TIP3   OH256450   5.062   8.302   0.751
18858TIP3    H156451   5.043   8.326   0.661
18858TIP3    H256452   5.097   8.382   0.791
18859TIP3   OH256453   7.820   0.179   0.445
18859TIP3    H156454   7.735   0.205   0.482
18859TIP3    H256455   7.843   0.251   0.386
18860TIP3   OH256456   4.762   8.478   0.865
18860TIP3    H156457   4.822   8.541   0.825
18860TIP3    H256458   4.739   8.516   0.949
18861TIP3   OH256459   4.906   8.201   0.951
18861TIP3    H156460   4.904   8.268   1.019
18861TIP3    H256461   4.957   8.240   0.880
18862TIP3   OH256462   7.562   0.255   0.509
18862TIP3    H156463   7.534   0.324   0.449
18862TIP3    H256464   7.563   0.297   0.595
18863TIP3   OH256465   4.406   8.205   0.755
18863TIP3    H156466   4.394   8.293   0.790
18863TIP3    H256467   4.499   8.188   0.764
18864TIP3   OH256468   5.302   8.900   1.042
18864TIP3    H156469   5.227   8.842   1.053
18864TIP3    H256470   5.375   8.854   1.084
18865TIP3   OH256471   4.030   9.134   0.495
18865TIP3    H156472   4.100   9.196   0.513
18865TIP3    H256473   4.066   9.075   0.429
18866TIP3   OH256474   3.958   8.405   0.642
18866TIP3    H156475   3.957   8.501   0.642
18866TIP3    H256476   3.891   8.380   0.578
18867TIP3   OH256477   8.540   0.614   0.986
18867TIP3    H156478   8.494   0.658   0.915
18867TIP3    H256479   8.632   0.633   0.970
18868TIP3   OH256480   7.175   0.085   0.937
18868TIP3    H156481   7.112   0.137   0.886
18868TIP3    H256482   7.243   0.061   0.873
18869TIP3   OH256483   7.774   0.179   0.139
18869TIP3    H156484   7.719   0.111   0.177
18869TIP3    H256485   7.851   0.131   0.106
18870TIP3   OH256486   8.211   0.221   0.048
18870TIP3    H156487   8.260   0.163   0.108
18870TIP3    H256488   8.265   0.226  -0.030
18871TIP3   OH256489   4.158   8.936   0.359
18871TIP3    H156490   4.210   8.905   0.433
18871TIP3    H256491   4.220   8.942   0.287
18872TIP3   OH256492   4.659   9.133   0.168
18872TIP3    H156493   4.664   9.149   0.263
18872TIP3    H256494   4.659   9.038   0.160
18873TIP3   OH256495   4.363   8.839   0.583
18873TIP3    H156496   4.330   8.805   0.666
18873TIP3    H256497   4.396   8.763   0.536
18874TIP3   OH256498   4.462   8.630   0.421
18874TIP3    H156499   4.433   8.637   0.330
18874TIP3    H256500   4.557   8.640   0.417
18875TIP3   OH256501   5.282   8.966   0.082
18875TIP3    H156502   5.263   8.918   0.002
18875TIP3    H256503   5.253   9.056   0.064
18876TIP3   OH256504   7.536   0.459   0.324
18876TIP3    H156505   7.631   0.451   0.311
18876TIP3    H256506   7.505   0.506   0.246
18877TIP3   OH256507   3.762   9.094   0.487
18877TIP3    H156508   3.854   9.108   0.508
18877TIP3    H256509   3.754   8.999   0.474
18878TIP3   OH256510   8.784   0.723   0.938
18878TIP3    H156511   8.820   0.740   1.025
18878TIP3    H256512   8.856   0.742   0.878
18879TIP3   OH256513   8.821   0.725   1.219
18879TIP3    H156514   8.779   0.639   1.213
18879TIP3    H256515   8.903   0.709   1.266
18880TIP3   OH256516   5.418   9.154   0.417
18880TIP3    H156517   5.484   9.218   0.389
18880TIP3    H256518   5.456   9.113   0.495
18881TIP3   OH256519   5.535   9.017   0.616
18881TIP3    H156520   5.478   8.979   0.684
18881TIP3    H256521   5.610   9.051   0.665
18882TIP3   OH256522   8.702   0.480   1.248
18882TIP3    H156523   8.629   0.524   1.294
18882TIP3    H256524   8.660   0.432   1.177
18883TIP3   OH256525   5.481   8.928   0.269
18883TIP3    H156526   5.413   8.930   0.201
18883TIP3    H256527   5.460   9.002   0.326
18884TIP3   OH256528   5.354   8.597   0.222
18884TIP3    H156529   5.314   8.645   0.149
18884TIP3    H256530   5.328   8.506   0.209
18885TIP3   OH256531   5.355   8.875   0.774
18885TIP3    H156532   5.369   8.780   0.770
18885TIP3    H256533   5.343   8.893   0.867
18886TIP3   OH256534   5.300   8.331   0.208
18886TIP3    H156535   5.373   8.305   0.264
18886TIP3    H256536   5.227   8.276   0.235
18887TIP3   OH256537   5.357   8.590   0.663
18887TIP3    H156538   5.396   8.504   0.678
18887TIP3    H256539   5.412   8.630   0.595
18888TIP3   OH256540   5.523   8.773   1.148
18888TIP3    H156541   5.608   8.799   1.112
18888TIP3    H256542   5.525   8.801   1.239
18889TIP3   OH256543   5.466   8.341   0.701
18889TIP3    H156544   5.517   8.329   0.782
18889TIP3    H256545   5.406   8.267   0.699
18890TIP3   OH256546   5.548   8.277   0.334
18890TIP3    H156547   5.588   8.208   0.281
18890TIP3    H256548   5.610   8.350   0.330
18891TIP3   OH256549   8.377   0.572   0.599
18891TIP3    H156550   8.423   0.554   0.518
18891TIP3    H256551   8.432   0.635   0.645
18892TIP3   OH256552   8.011   0.679   1.177
18892TIP3    H156553   7.933   0.673   1.123
18892TIP3    H256554   7.999   0.759   1.228
18893TIP3   OH256555   8.259   0.605   1.270
18893TIP3    H156556   8.170   0.624   1.240
18893TIP3    H256557   8.313   0.668   1.222
18894TIP3   OH256558   8.463   0.804   1.176
18894TIP3    H156559   8.449   0.887   1.129
18894TIP3    H256560   8.494   0.743   1.108
18895TIP3   OH256561   7.433   0.343   1.122
18895TIP3    H156562   7.458   0.263   1.167
18895TIP3    H256563   7.513   0.395   1.116
18896TIP3   OH256564   7.697   0.435   1.145
18896TIP3    H156565   7.742   0.352   1.126
18896TIP3    H256566   7.713   0.450   1.239
18897TIP3   OH256567   5.535   8.214   1.147
18897TIP3    H156568   5.584   8.255   1.075
18897TIP3    H256569   5.445   8.244   1.134
18898TIP3   OH256570   5.636   8.297   0.911
18898TIP3    H156571   5.708   8.247   0.872
18898TIP3    H256572   5.663   8.388   0.903
18899TIP3   OH256573   5.264   8.205   1.085
18899TIP3    H156574   5.255   8.204   0.989
18899TIP3    H256575   5.294   8.117   1.107
18900TIP3   OH256576   5.280   8.129   0.693
18900TIP3    H156577   5.198   8.178   0.699
18900TIP3    H256578   5.260   8.045   0.735
18901TIP3   OH256579   4.170   8.071   0.653
18901TIP3    H156580   4.221   8.003   0.609
18901TIP3    H256581   4.234   8.118   0.706
18902TIP3   OH256582   4.684   8.229   0.782
18902TIP3    H156583   4.748   8.186   0.838
18902TIP3    H256584   4.695   8.323   0.800
18903TIP3   OH256585   7.804   0.417   0.273
18903TIP3    H156586   7.892   0.441   0.242
18903TIP3    H256587   7.779   0.343   0.217
18904TIP3   OH256588   8.518   0.534   0.367
18904TIP3    H156589   8.512   0.439   0.356
18904TIP3    H256590   8.480   0.570   0.287
18905TIP3   OH256591   7.126   0.260   0.377
18905TIP3    H156592   7.146   0.353   0.390
18905TIP3    H256593   7.206   0.223   0.340
18906TIP3   OH256594   0.212   0.052   0.322
18906TIP3    H156595   0.190   0.143   0.305
18906TIP3    H256596   0.137   0.002   0.290
18907TIP3   OH256597   0.213   0.050   0.702
18907TIP3    H156598   0.245   0.025   0.789
18907TIP3    H256599   0.171  -0.029   0.668
18908TIP3   OH256600   6.066   9.207   1.081
18908TIP3    H156601   6.091   9.132   1.135
18908TIP3    H256602   6.146   9.233   1.036
18909TIP3   OH256603   0.456   0.353   0.386
18909TIP3    H156604   0.445   0.285   0.452
18909TIP3    H256605   0.486   0.429   0.435
18910TIP3   OH256606   9.298   0.365   0.802
18910TIP3    H156607   9.271   0.273   0.808
18910TIP3    H256608   9.390   0.362   0.778
18911TIP3   OH256609   5.726   8.792   0.578
18911TIP3    H156610   5.697   8.880   0.602
18911TIP3    H256611   5.649   8.751   0.538
18912TIP3   OH256612   5.783   9.067   0.712
18912TIP3    H156613   5.820   9.027   0.791
18912TIP3    H256614   5.851   9.127   0.681
18913TIP3   OH256615   0.107   0.816   0.401
18913TIP3    H156616   0.152   0.747   0.352
18913TIP3    H256617   0.099   0.781   0.489
18914TIP3   OH256618   0.017   0.274   0.754
18914TIP3    H156619   0.050   0.199   0.704
18914TIP3    H256620   0.095   0.323   0.779
18915TIP3   OH256621   7.558   8.839   0.749
18915TIP3    H156622   7.585   8.918   0.795
18915TIP3    H256623   7.581   8.856   0.657
18916TIP3   OH256624   6.955   9.016   0.784
18916TIP3    H156625   7.002   8.935   0.805
18916TIP3    H256626   6.927   9.004   0.693
18917TIP3   OH256627   6.293   8.678   0.747
18917TIP3    H156628   6.276   8.752   0.689
18917TIP3    H256629   6.247   8.604   0.707
18918TIP3   OH256630   6.993   8.768   0.372
18918TIP3    H156631   7.061   8.753   0.438
18918TIP3    H256632   7.039   8.805   0.297
18919TIP3   OH256633   5.933   8.876   0.859
18919TIP3    H156634   6.015   8.855   0.904
18919TIP3    H256635   5.941   8.830   0.775
18920TIP3   OH256636   6.371   9.075   0.652
18920TIP3    H156637   6.463   9.053   0.662
18920TIP3    H256638   6.330   8.995   0.618
18921TIP3   OH256639   7.627   9.041   0.925
18921TIP3    H156640   7.549   9.092   0.902
18921TIP3    H256641   7.656   9.079   1.008
18922TIP3   OH256642   6.291   8.658   1.187
18922TIP3    H156643   6.237   8.698   1.119
18922TIP3    H256644   6.235   8.657   1.265
18923TIP3   OH256645   0.106   0.274   0.191
18923TIP3    H156646   0.064   0.253   0.107
18923TIP3    H256647   0.066   0.357   0.217
18924TIP3   OH256648   9.663   0.202   0.982
18924TIP3    H156649   9.602   0.265   1.018
18924TIP3    H256650   9.706   0.248   0.910
18925TIP3   OH256651   7.202   8.771   0.545
18925TIP3    H156652   7.190   8.726   0.629
18925TIP3    H256653   7.255   8.847   0.566
18926TIP3   OH256654   6.169   8.773   0.970
18926TIP3    H156655   6.226   8.848   0.992
18926TIP3    H256656   6.211   8.733   0.894
18927TIP3   OH256657   9.481   0.388   1.089
18927TIP3    H156658   9.462   0.471   1.044
18927TIP3    H256659   9.395   0.354   1.113
18928TIP3   OH256660   8.890   0.082   0.311
18928TIP3    H156661   8.849   0.108   0.229
18928TIP3    H256662   8.920   0.164   0.350
18929TIP3   OH256663   0.525   0.597   0.551
18929TIP3    H156664   0.438   0.587   0.591
18929TIP3    H256665   0.522   0.681   0.506
18930TIP3   OH256666   7.352   8.732   0.912
18930TIP3    H156667   7.267   8.767   0.886
18930TIP3    H256668   7.413   8.766   0.846
18931TIP3   OH256669   6.650   8.379   0.900
18931TIP3    H156670   6.636   8.285   0.914
18931TIP3    H256671   6.576   8.421   0.944
18932TIP3   OH256672   0.235   0.643   0.225
18932TIP3    H156673   0.280   0.561   0.206
18932TIP3    H256674   0.290   0.710   0.186
18933TIP3   OH256675   0.374   0.426   0.133
18933TIP3    H156676   0.332   0.350   0.093
18933TIP3    H256677   0.409   0.395   0.216
18934TIP3   OH256678   0.751   0.510   0.894
18934TIP3    H156679   0.744   0.434   0.837
18934TIP3    H256680   0.739   0.585   0.835
18935TIP3   OH256681   6.577   9.143   0.151
18935TIP3    H156682   6.499   9.194   0.133
18935TIP3    H256683   6.625   9.142   0.068
18936TIP3   OH256684   3.274   4.306   7.872
18936TIP3    H156685   3.337   4.359   7.922
18936TIP3    H256686   3.328   4.244   7.824
18937TIP3   OH256687   0.946   0.143   0.736
18937TIP3    H156688   0.868   0.196   0.745
18937TIP3    H256689   0.981   0.167   0.650
18938TIP3   OH256690   6.925   9.224   0.128
18938TIP3    H156691   6.871   9.250   0.203
18938TIP3    H256692   7.009   9.200   0.167
18939TIP3   OH256693   0.626   0.027   1.038
18939TIP3    H156694   0.629   0.107   1.091
18939TIP3    H256695   0.544   0.034   0.989
18940TIP3   OH256696   6.159   9.220   0.540
18940TIP3    H156697   6.118   9.166   0.472
18940TIP3    H256698   6.235   9.169   0.568
18941TIP3   OH256699   9.559   0.388   0.689
18941TIP3    H156700   9.537   0.353   0.602
18941TIP3    H256701   9.648   0.358   0.706
18942TIP3   OH256702   6.299   9.195   0.901
18942TIP3    H156703   6.324   9.174   0.811
18942TIP3    H256704   6.337   9.282   0.917
18943TIP3   OH256705   0.286   0.592   0.674
18943TIP3    H156706   0.272   0.672   0.724
18943TIP3    H256707   0.272   0.521   0.737
18944TIP3   OH256708   9.695   0.513   1.218
18944TIP3    H156709   9.642   0.577   1.266
18944TIP3    H256710   9.632   0.458   1.172
18945TIP3   OH256711   3.504   4.464   7.951
18945TIP3    H156712   3.558   4.521   8.005
18945TIP3    H256713   3.527   4.486   7.861
18946TIP3   OH256714   9.777   0.525   0.227
18946TIP3    H156715   9.854   0.578   0.245
18946TIP3    H256716   9.715   0.585   0.185
18947TIP3   OH256717   9.494   0.682   1.305
18947TIP3    H156718   9.465   0.686   1.214
18947TIP3    H256719   9.417   0.653   1.354
18948TIP3   OH256720   4.014   3.706   7.999
18948TIP3    H156721   3.936   3.726   8.051
18948TIP3    H256722   4.031   3.787   7.950
18949TIP3   OH256723   6.025   9.064   0.341
18949TIP3    H156724   5.963   9.113   0.288
18949TIP3    H256725   5.979   8.983   0.364
18950TIP3   OH256726   3.816   5.073   7.547
18950TIP3    H156727   3.822   5.168   7.534
18950TIP3    H256728   3.906   5.042   7.536
18951TIP3   OH256729   9.091   0.177   1.260
18951TIP3    H156730   9.043   0.208   1.183
18951TIP3    H256731   9.077   0.083   1.260
18952TIP3   OH256732   0.987   0.852   0.941
18952TIP3    H156733   0.992   0.757   0.955
18952TIP3    H256734   0.908   0.879   0.987
18953TIP3   OH256735   0.098   0.641   1.078
18953TIP3    H156736   0.098   0.733   1.106
18953TIP3    H256737   0.027   0.601   1.128
18954TIP3   OH256738   9.659   0.769   0.032
18954TIP3    H156739   9.617   0.745  -0.051
18954TIP3    H256740   9.625   0.856   0.051
18955TIP3   OH256741   9.095   0.618   0.413
18955TIP3    H156742   9.144   0.611   0.495
18955TIP3    H256743   9.035   0.544   0.414
18956TIP3   OH256744   3.335   5.300   7.663
18956TIP3    H156745   3.388   5.227   7.630
18956TIP3    H256746   3.356   5.304   7.756
18957TIP3   OH256747   3.375   5.338   7.941
18957TIP3    H156748   3.287   5.349   7.978
18957TIP3    H256749   3.425   5.297   8.011
18958TIP3   OH256750   7.414   9.221   1.219
18958TIP3    H156751   7.336   9.239   1.167
18958TIP3    H256752   7.429   9.127   1.208
18959TIP3   OH256753   6.409   8.458   1.023
18959TIP3    H156754   6.323   8.425   0.997
18959TIP3    H256755   6.391   8.543   1.062
18960TIP3   OH256756   6.963   8.574   1.215
18960TIP3    H156757   7.020   8.537   1.283
18960TIP3    H256758   6.874   8.552   1.243
18961TIP3   OH256759   7.178   9.000   1.131
18961TIP3    H156760   7.136   8.996   1.217
18961TIP3    H256761   7.162   9.090   1.101
18962TIP3   OH256762   3.576   4.509   7.694
18962TIP3    H156763   3.543   4.483   7.608
18962TIP3    H256764   3.654   4.561   7.675
18963TIP3   OH256765   6.555   8.503  -0.001
18963TIP3    H156766   6.525   8.505   0.090
18963TIP3    H256767   6.516   8.423  -0.037
18964TIP3   OH256768   6.343   8.972   1.047
18964TIP3    H156769   6.297   8.993   1.128
18964TIP3    H256770   6.330   9.050   0.992
18965TIP3   OH256771   6.226   8.855   0.557
18965TIP3    H156772   6.134   8.835   0.577
18965TIP3    H256773   6.240   8.817   0.470
18966TIP3   OH256774   6.716   8.944   0.283
18966TIP3    H156775   6.663   9.014   0.245
18966TIP3    H256776   6.771   8.914   0.210
18967TIP3   OH256777   6.896   9.233   1.365
18967TIP3    H156778   6.869   9.155   1.415
18967TIP3    H256779   6.988   9.245   1.388
18968TIP3   OH256780   6.872   8.971   0.523
18968TIP3    H156781   6.815   9.008   0.456
18968TIP3    H256782   6.906   8.890   0.484
18969TIP3   OH256783   6.160   9.003   1.257
18969TIP3    H156784   6.193   9.047   1.335
18969TIP3    H256785   6.093   8.944   1.289
18970TIP3   OH256786   2.942   3.858   7.966
18970TIP3    H156787   2.936   3.856   8.062
18970TIP3    H256788   2.867   3.912   7.939
18971TIP3   OH256789   5.755   8.520   0.834
18971TIP3    H156790   5.824   8.557   0.889
18971TIP3    H256791   5.798   8.500   0.752
18972TIP3   OH256792   5.726   8.507   0.352
18972TIP3    H156793   5.773   8.542   0.275
18972TIP3    H256794   5.667   8.578   0.378
18973TIP3   OH256795   6.879   9.217   0.947
18973TIP3    H156796   6.915   9.149   0.889
18973TIP3    H256797   6.854   9.169   1.026
18974TIP3   OH256798   6.551   8.676   0.621
18974TIP3    H156799   6.470   8.678   0.671
18974TIP3    H256800   6.620   8.683   0.687
18975TIP3   OH256801   5.987   8.736   0.627
18975TIP3    H156802   5.895   8.747   0.602
18975TIP3    H256803   6.008   8.646   0.603
18976TIP3   OH256804   6.259   8.731   0.315
18976TIP3    H156805   6.351   8.750   0.295
18976TIP3    H256806   6.212   8.754   0.235
18977TIP3   OH256807   7.043   8.754   0.822
18977TIP3    H156808   7.012   8.769   0.911
18977TIP3    H256809   6.978   8.695   0.783
18978TIP3   OH256810   6.099   8.761   0.093
18978TIP3    H156811   6.025   8.720   0.048
18978TIP3    H256812   6.151   8.801   0.023
18979TIP3   OH256813   0.682   1.207   1.039
18979TIP3    H156814   0.681   1.229   0.946
18979TIP3    H256815   0.760   1.252   1.073
18980TIP3   OH256816   6.637   9.003   0.715
18980TIP3    H156817   6.711   8.973   0.662
18980TIP3    H256818   6.653   8.966   0.802
18981TIP3   OH256819   6.161   8.495   0.595
18981TIP3    H156820   6.128   8.417   0.639
18981TIP3    H256821   6.210   8.461   0.519
18982TIP3   OH256822   6.612   8.897   1.021
18982TIP3    H156823   6.526   8.939   1.022
18982TIP3    H256824   6.671   8.962   1.060
18983TIP3   OH256825   9.616   0.055   0.106
18983TIP3    H156826   9.545  -0.007   0.091
18983TIP3    H256827   9.599   0.090   0.193
18984TIP3   OH256828   0.717   0.293   0.730
18984TIP3    H156829   0.743   0.342   0.651
18984TIP3    H256830   0.634   0.253   0.707
18985TIP3   OH256831   3.541   3.989   7.963
18985TIP3    H156832   3.447   3.975   7.972
18985TIP3    H256833   3.553   4.081   7.988
18986TIP3   OH256834   0.207   0.370   1.104
18986TIP3    H156835   0.247   0.358   1.190
18986TIP3    H256836   0.179   0.462   1.104
18987TIP3   OH256837   6.880   8.855   0.065
18987TIP3    H156838   6.974   8.861   0.082
18987TIP3    H256839   6.859   8.934   0.015
18988TIP3   OH256840   9.316   0.081   0.775
18988TIP3    H156841   9.350   0.054   0.690
18988TIP3    H256842   9.338   0.009   0.834
18989TIP3   OH256843   3.226   4.827   7.926
18989TIP3    H156844   3.182   4.912   7.928
18989TIP3    H256845   3.174   4.771   7.984
18990TIP3   OH256846   0.114   0.106   1.397
18990TIP3    H156847   0.069   0.051   1.333
18990TIP3    H256848   0.207   0.087   1.383
18991TIP3   OH256849   0.374   0.629   1.001
18991TIP3    H156850   0.279   0.633   1.008
18991TIP3    H256851   0.406   0.684   1.073
18992TIP3   OH256852   4.050   4.327   7.903
18992TIP3    H156853   3.991   4.279   7.846
18992TIP3    H256854   4.052   4.416   7.867
18993TIP3   OH256855   1.001   0.559   0.984
18993TIP3    H156856   0.905   0.558   0.978
18993TIP3    H256857   1.030   0.534   0.897
18994TIP3   OH256858   3.753   5.144   7.812
18994TIP3    H156859   3.728   5.077   7.875
18994TIP3    H256860   3.765   5.096   7.730
18995TIP3   OH256861   0.481   0.152   0.652
18995TIP3    H156862   0.389   0.130   0.664
18995TIP3    H256863   0.517   0.077   0.605
18996TIP3   OH256864   9.409   0.383   0.401
18996TIP3    H156865   9.411   0.463   0.349
18996TIP3    H256866   9.316   0.366   0.416
18997TIP3   OH256867   5.706   8.927   0.108
18997TIP3    H156868   5.753   9.009   0.125
18997TIP3    H256869   5.630   8.931   0.166
18998TIP3   OH256870   9.548   0.149   0.350
18998TIP3    H156871   9.515   0.238   0.363
18998TIP3    H256872   9.511   0.098   0.422
18999TIP3   OH256873   9.680   0.726   0.874
18999TIP3    H156874   9.715   0.798   0.821
18999TIP3    H256875   9.756   0.691   0.921
19000TIP3   OH256876   9.329   0.621   0.257
19000TIP3    H156877   9.244   0.627   0.301
19000TIP3    H256878   9.363   0.711   0.258
19001TIP3   OH256879   0.267   0.358   0.834
19001TIP3    H156880   0.258   0.356   0.929
19001TIP3    H256881   0.349   0.312   0.817
19002TIP3   OH256882   3.508   4.869   7.717
19002TIP3    H156883   3.561   4.847   7.793
19002TIP3    H256884   3.418   4.847   7.743
19003TIP3   OH256885   0.512   0.895   0.879
19003TIP3    H156886   0.435   0.839   0.871
19003TIP3    H256887   0.502   0.960   0.810
19004TIP3   OH256888   3.847   5.352   7.534
19004TIP3    H156889   3.891   5.423   7.488
19004TIP3    H256890   3.766   5.391   7.568
19005TIP3   OH256891   3.670   4.803   7.932
19005TIP3    H156892   3.658   4.740   8.003
19005TIP3    H256893   3.764   4.805   7.918
19006TIP3   OH256894   9.113   0.610   1.025
19006TIP3    H156895   9.120   0.515   1.027
19006TIP3    H256896   9.161   0.639   1.103
19007TIP3   OH256897   2.878   4.848   7.715
19007TIP3    H156898   2.888   4.758   7.686
19007TIP3    H256899   2.856   4.842   7.808
19008TIP3   OH256900   9.356   0.239  -0.015
19008TIP3    H156901   9.424   0.214   0.047
19008TIP3    H256902   9.355   0.335  -0.012
19009TIP3   OH256903   5.821   9.174   0.188
19009TIP3    H156904   5.757   9.214   0.246
19009TIP3    H256905   5.837   9.241   0.121
19010TIP3   OH256906   6.970   8.813   1.080
19010TIP3    H156907   7.049   8.857   1.111
19010TIP3    H256908   6.965   8.733   1.132
19011TIP3   OH256909   6.853   8.561   0.243
19011TIP3    H156910   6.838   8.583   0.151
19011TIP3    H256911   6.890   8.640   0.281
19012TIP3   OH256912   3.084   5.058   7.936
19012TIP3    H156913   2.998   5.078   7.971
19012TIP3    H256914   3.104   5.132   7.877
19013TIP3   OH256915   6.543   8.738   0.348
19013TIP3    H156916   6.605   8.809   0.328
19013TIP3    H256917   6.545   8.731   0.443
19014TIP3   OH256918   6.808   9.057   1.155
19014TIP3    H156919   6.827   9.110   1.231
19014TIP3    H256920   6.864   8.980   1.164
19015TIP3   OH256921   6.687   8.468   0.450
19015TIP3    H156922   6.676   8.542   0.510
19015TIP3    H256923   6.745   8.502   0.381
19016TIP3   OH256924   9.361   0.513  -0.002
19016TIP3    H156925   9.336   0.579  -0.066
19016TIP3    H256926   9.345   0.555   0.083
19017TIP3   OH256927   6.199   8.466   0.241
19017TIP3    H156928   6.191   8.555   0.274
19017TIP3    H256929   6.292   8.445   0.248
19018TIP3   OH256930   7.444   8.954   1.138
19018TIP3    H156931   7.348   8.953   1.138
19018TIP3    H256932   7.468   8.932   1.048
19019TIP3   OH256933   7.101   9.151   0.525
19019TIP3    H156934   7.027   9.092   0.537
19019TIP3    H256935   7.173   9.108   0.571
19020TIP3   OH256936   2.547   4.761   7.995
19020TIP3    H156937   2.603   4.839   8.006
19020TIP3    H256938   2.592   4.709   7.928
19021TIP3   OH256939   5.757   8.658   0.127
19021TIP3    H156940   5.761   8.753   0.125
19021TIP3    H256941   5.673   8.636   0.086
19022TIP3   OH256942   0.537   0.869   0.472
19022TIP3    H156943   0.492   0.913   0.400
19022TIP3    H256944   0.630   0.886   0.456
19023TIP3   OH256945   6.147   8.379   0.999
19023TIP3    H156946   6.115   8.350   0.913
19023TIP3    H256947   6.135   8.303   1.055
19024TIP3   OH256948   8.951   0.355   0.380
19024TIP3    H156949   8.882   0.384   0.440
19024TIP3    H256950   8.928   0.394   0.296
19025TIP3   OH256951   9.112   0.894   1.428
19025TIP3    H156952   9.186   0.881   1.488
19025TIP3    H256953   9.063   0.812   1.434
19026TIP3   OH256954   9.595   0.850   1.506
19026TIP3    H156955   9.691   0.843   1.504
19026TIP3    H256956   9.566   0.800   1.430
19027TIP3   OH256957   3.036   5.054   7.626
19027TIP3    H156958   2.978   4.987   7.664
19027TIP3    H256959   3.111   5.004   7.594
19028TIP3   OH256960   0.428   0.770   1.234
19028TIP3    H156961   0.421   0.699   1.298
19028TIP3    H256962   0.507   0.818   1.260
19029TIP3   OH256963   3.476   5.095   7.538
19029TIP3    H156964   3.519   5.033   7.598
19029TIP3    H256965   3.532   5.096   7.461
19030TIP3   OH256966   2.684   4.574   7.847
19030TIP3    H156967   2.736   4.544   7.922
19030TIP3    H256968   2.748   4.579   7.775
19031TIP3   OH256969   0.056   0.382   1.407
19031TIP3    H156970   0.015   0.398   1.323
19031TIP3    H256971   0.083   0.290   1.404
19032TIP3   OH256972   3.194   4.771   7.656
19032TIP3    H156973   3.193   4.788   7.750
19032TIP3    H256974   3.189   4.675   7.649
19033TIP3   OH256975   0.537   0.399   1.030
19033TIP3    H156976   0.615   0.437   0.989
19033TIP3    H256977   0.469   0.465   1.019
19034TIP3   OH256978   6.158   9.095   0.070
19034TIP3    H156979   6.129   9.057   0.153
19034TIP3    H256980   6.192   9.021   0.020
19035TIP3   OH256981   6.430   9.151   1.292
19035TIP3    H156982   6.385   9.231   1.318
19035TIP3    H256983   6.482   9.177   1.215
19036TIP3   OH256984   2.991   4.268   7.910
19036TIP3    H156985   2.962   4.274   7.819
19036TIP3    H256986   3.087   4.276   7.905
19037TIP3   OH256987   0.408   0.321   1.424
19037TIP3    H156988   0.492   0.311   1.379
19037TIP3    H256989   0.413   0.260   1.497
19038TIP3   OH256990   3.811   4.603   7.570
19038TIP3    H156991   3.791   4.554   7.490
19038TIP3    H256992   3.782   4.692   7.552
19039TIP3   OH256993   6.530   8.930   1.429
19039TIP3    H156994   6.533   8.861   1.363
19039TIP3    H256995   6.489   9.004   1.384
19040TIP3   OH256996   6.549   8.730   1.232
19040TIP3    H156997   6.580   8.778   1.155
19040TIP3    H256998   6.457   8.711   1.213
19041TIP3   OH256999   0.046   0.034   1.104
19041TIP3    H157000   0.131   0.040   1.059
19041TIP3    H257001  -0.008   0.101   1.061
19042TIP3   OH257002   7.170   9.226   1.475
19042TIP3    H157003   7.220   9.146   1.492
19042TIP3    H257004   7.236   9.291   1.451
19043TIP3   OH257005   0.669   0.252   1.214
19043TIP3    H157006   0.610   0.304   1.159
19043TIP3    H257007   0.757   0.271   1.180
19044TIP3   OH257008   6.702   8.498   1.237
19044TIP3    H157009   6.652   8.579   1.227
19044TIP3    H257010   6.638   8.434   1.268
19045TIP3   OH257011   6.791   9.004   1.467
19045TIP3    H157012   6.825   8.941   1.530
19045TIP3    H257013   6.699   8.981   1.456
19046TIP3   OH257014   7.056   8.947   1.365
19046TIP3    H157015   6.975   8.949   1.417
19046TIP3    H257016   7.126   8.938   1.429
19047TIP3   OH257017   7.268   8.934   1.550
19047TIP3    H157018   7.284   8.842   1.532
19047TIP3    H257019   7.263   8.939   1.645
19048TIP3   OH257020   6.855   8.398   1.497
19048TIP3    H157021   6.916   8.472   1.489
19048TIP3    H257022   6.769   8.437   1.482
19049TIP3   OH257023   2.798   5.332   7.804
19049TIP3    H157024   2.892   5.343   7.786
19049TIP3    H257025   2.754   5.376   7.731
19050TIP3   OH257026   8.812   0.094   0.029
19050TIP3    H157027   8.904   0.119   0.018
19050TIP3    H257028   8.805   0.008  -0.011
19051TIP3   OH257029   8.723   0.706   0.445
19051TIP3    H157030   8.658   0.646   0.407
19051TIP3    H257031   8.770   0.652   0.509
19052TIP3   OH257032   8.863   0.559   0.629
19052TIP3    H157033   8.851   0.482   0.684
19052TIP3    H257034   8.912   0.620   0.684
19053TIP3   OH257035   0.787   0.965   0.430
19053TIP3    H157036   0.816   0.992   0.517
19053TIP3    H257037   0.853   1.002   0.371
19054TIP3   OH257038   0.819   0.977   0.714
19054TIP3    H157039   0.776   0.892   0.707
19054TIP3    H257040   0.896   0.961   0.768
19055TIP3   OH257041   0.864   0.658   1.286
19055TIP3    H157042   0.791   0.666   1.348
19055TIP3    H257043   0.907   0.743   1.289
19056TIP3   OH257044   3.950   4.790   7.907
19056TIP3    H157045   4.015   4.853   7.878
19056TIP3    H257046   3.989   4.750   7.985
19057TIP3   OH257047   0.807   0.037   0.109
19057TIP3    H157048   0.744  -0.003   0.168
19057TIP3    H257049   0.874   0.074   0.167
19058TIP3   OH257050   0.860   0.427   0.537
19058TIP3    H157051   0.915   0.364   0.489
19058TIP3    H257052   0.854   0.503   0.478
19059TIP3   OH257053   0.692   0.729   0.736
19059TIP3    H157054   0.624   0.771   0.788
19059TIP3    H257055   0.644   0.682   0.667
19060TIP3   OH257056   4.010   4.565   7.758
19060TIP3    H157057   3.942   4.567   7.690
19060TIP3    H257058   3.989   4.639   7.815
19061TIP3   OH257059   3.882   4.236   7.712
19061TIP3    H157060   3.843   4.279   7.636
19061TIP3    H257061   3.859   4.144   7.702
19062TIP3   OH257062   7.155   9.132   0.258
19062TIP3    H157063   7.166   9.037   0.251
19062TIP3    H257064   7.143   9.149   0.351
19063TIP3   OH257065   5.801   9.145   1.002
19063TIP3    H157066   5.750   9.216   0.963
19063TIP3    H257067   5.886   9.185   1.022
19064TIP3   OH257068   0.912   0.318   1.109
19064TIP3    H157069   0.983   0.254   1.103
19064TIP3    H257070   0.940   0.390   1.053
19065TIP3   OH257071   1.094   0.121   1.131
19065TIP3    H157072   1.022   0.073   1.172
19065TIP3    H257073   1.171   0.064   1.142
19066TIP3   OH257074   3.828   3.970   7.699
19066TIP3    H157075   3.904   3.943   7.750
19066TIP3    H257076   3.757   3.913   7.727
19067TIP3   OH257077   7.154   8.846   0.150
19067TIP3    H157078   7.192   8.760   0.166
19067TIP3    H257079   7.209   8.885   0.082
19068TIP3   OH257080   7.316   9.025   0.646
19068TIP3    H157081   7.399   9.048   0.603
19068TIP3    H257082   7.326   9.060   0.735
19069TIP3   OH257083   7.380   9.168   0.878
19069TIP3    H157084   7.304   9.202   0.926
19069TIP3    H257085   7.415   9.244   0.832
19070TIP3   OH257086   7.826   8.760   1.423
19070TIP3    H157087   7.887   8.699   1.380
19070TIP3    H257088   7.801   8.820   1.353
19071TIP3   OH257089   7.261   8.597   0.190
19071TIP3    H157090   7.311   8.585   0.271
19071TIP3    H257091   7.201   8.523   0.187
19072TIP3   OH257092   5.962   8.585   1.003
19072TIP3    H157093   6.022   8.511   1.014
19072TIP3    H257094   6.019   8.661   0.997
19073TIP3   OH257095   5.771   8.864   1.082
19073TIP3    H157096   5.817   8.854   0.999
19073TIP3    H257097   5.776   8.958   1.101
19074TIP3   OH257098   7.702   8.903   1.232
19074TIP3    H157099   7.619   8.943   1.258
19074TIP3    H257100   7.676   8.829   1.176
19075TIP3   OH257101   4.077   3.914   7.821
19075TIP3    H157102   4.117   3.844   7.770
19075TIP3    H257103   4.140   3.986   7.818
19076TIP3   OH257104   5.744   8.357   0.575
19076TIP3    H157105   5.654   8.361   0.608
19076TIP3    H257106   5.746   8.418   0.502
19077TIP3   OH257107   0.375   0.826   0.087
19077TIP3    H157108   0.424   0.811   0.006
19077TIP3    H257109   0.427   0.891   0.134
19078TIP3   OH257110   9.271   0.606   1.470
19078TIP3    H157111   9.178   0.615   1.451
19078TIP3    H257112   9.282   0.644   1.557
19079TIP3   OH257113   9.453   0.663   1.022
19079TIP3    H157114   9.397   0.730   0.985
19079TIP3    H257115   9.538   0.676   0.979
19080TIP3   OH257116   0.100   0.907   1.156
19080TIP3    H157117   0.138   0.910   1.244
19080TIP3    H257118   0.161   0.957   1.102
19081TIP3   OH257119   0.279   1.058   1.017
19081TIP3    H157120   0.349   1.007   0.974
19081TIP3    H257121   0.326   1.116   1.078
19082TIP3   OH257122   7.604   8.660   1.116
19082TIP3    H157123   7.515   8.660   1.080
19082TIP3    H257124   7.635   8.570   1.103
19083TIP3   OH257125   9.132   0.931   1.044
19083TIP3    H157126   9.045   0.958   1.017
19083TIP3    H257127   9.140   0.962   1.134
19084TIP3   OH257128   9.364   0.897   0.900
19084TIP3    H157129   9.282   0.910   0.948
19084TIP3    H257130   9.346   0.929   0.812
19085TIP3   OH257131   9.790   0.929   0.699
19085TIP3    H157132   9.721   0.946   0.634
19085TIP3    H257133   9.804   1.013   0.742
19086TIP3   OH257134   0.258   0.867   0.750
19086TIP3    H157135   0.165   0.882   0.731
19086TIP3    H257136   0.303   0.941   0.710
19087TIP3   OH257137   0.468   1.059   0.664
19087TIP3    H157138   0.453   1.143   0.619
19087TIP3    H257139   0.493   0.999   0.595
19088TIP3   OH257140   9.036   0.711   0.788
19088TIP3    H157141   9.060   0.690   0.879
19088TIP3    H257142   9.105   0.670   0.736
19089TIP3   OH257143   9.233   0.583   0.647
19089TIP3    H157144   9.246   0.505   0.701
19089TIP3    H257145   9.320   0.623   0.641
19090TIP3   OH257146   9.500   0.679   0.649
19090TIP3    H157147   9.531   0.590   0.632
19090TIP3    H257148   9.541   0.703   0.732
19091TIP3   OH257149   6.810   8.575   0.737
19091TIP3    H157150   6.766   8.507   0.788
19091TIP3    H257151   6.881   8.529   0.692
19092TIP3   OH257152   7.331   8.452   0.639
19092TIP3    H157153   7.371   8.504   0.569
19092TIP3    H257154   7.238   8.475   0.637
19093TIP3   OH257155   7.430   8.556   0.404
19093TIP3    H157156   7.499   8.503   0.365
19093TIP3    H257157   7.459   8.646   0.392
19094TIP3   OH257158   6.058   8.282   0.752
19094TIP3    H157159   5.967   8.254   0.752
19094TIP3    H257160   6.108   8.201   0.748
19095TIP3   OH257161   5.845   8.155   0.400
19095TIP3    H157162   5.875   8.210   0.327
19095TIP3    H257163   5.814   8.217   0.465
19096TIP3   OH257164   6.504   8.315   0.633
19096TIP3    H157165   6.557   8.366   0.573
19096TIP3    H257166   6.520   8.355   0.719
19097TIP3   OH257167   7.046   8.462   0.618
19097TIP3    H157168   7.046   8.431   0.528
19097TIP3    H257169   7.033   8.382   0.670
19098TIP3   OH257170   7.075   8.384   0.179
19098TIP3    H157171   6.992   8.431   0.191
19098TIP3    H257172   7.062   8.301   0.225
19099TIP3   OH257173   8.825   0.488   0.181
19099TIP3    H157174   8.742   0.453   0.147
19099TIP3    H257175   8.822   0.581   0.159
19100TIP3   OH257176   5.963   8.310   0.166
19100TIP3    H157177   6.010   8.252   0.106
19100TIP3    H257178   6.030   8.368   0.201
19101TIP3   OH257179   6.476   8.489   0.265
19101TIP3    H157180   6.535   8.442   0.324
19101TIP3    H257181   6.491   8.581   0.285
19102TIP3   OH257182   3.072   5.289   7.771
19102TIP3    H157183   3.138   5.337   7.721
19102TIP3    H257184   3.046   5.218   7.713
19103TIP3   OH257185   3.784   5.410   7.854
19103TIP3    H157186   3.778   5.315   7.845
19103TIP3    H257187   3.740   5.445   7.777
19104TIP3   OH257188   2.368   5.125   7.822
19104TIP3    H157189   2.370   5.163   7.910
19104TIP3    H257190   2.456   5.087   7.811
19105TIP3   OH257191   7.324   8.665   1.501
19105TIP3    H157192   7.341   8.612   1.579
19105TIP3    H257193   7.407   8.664   1.453
19106TIP3   OH257194   0.742   0.939   1.041
19106TIP3    H157195   0.666   0.905   0.995
19106TIP3    H257196   0.728   1.033   1.047
19107TIP3   OH257197   5.271   4.925   7.817
19107TIP3    H157198   5.250   5.017   7.799
19107TIP3    H257199   5.206   4.875   7.767
19108TIP3   OH257200   2.049   0.276   0.181
19108TIP3    H157201   2.023   0.311   0.266
19108TIP3    H257202   1.967   0.264   0.134
19109TIP3   OH257203   1.312   0.207   0.557
19109TIP3    H157204   1.344   0.140   0.618
19109TIP3    H257205   1.387   0.266   0.546
19110TIP3   OH257206   5.520   5.233   7.874
19110TIP3    H157207   5.505   5.159   7.932
19110TIP3    H257208   5.549   5.303   7.932
19111TIP3   OH257209   1.278   0.609   0.280
19111TIP3    H157210   1.270   0.513   0.282
19111TIP3    H257211   1.373   0.625   0.283
19112TIP3   OH257212   7.517   9.054   0.066
19112TIP3    H157213   7.478   9.139   0.082
19112TIP3    H257214   7.448   9.002   0.025
19113TIP3   OH257215   1.047   0.101   0.233
19113TIP3    H157216   1.095   0.028   0.272
19113TIP3    H257217   1.110   0.142   0.175
19114TIP3   OH257218   5.169   5.692   7.889
19114TIP3    H157219   5.214   5.623   7.840
19114TIP3    H257220   5.161   5.657   7.977
19115TIP3   OH257221   9.359   9.094   0.236
19115TIP3    H157222   9.383   9.176   0.279
19115TIP3    H257223   9.369   9.112   0.143
19116TIP3   OH257224   2.218   0.029   0.277
19116TIP3    H157225   2.263  -0.056   0.284
19116TIP3    H257226   2.186   0.031   0.187
19117TIP3   OH257227   8.088   8.934   0.235
19117TIP3    H157228   8.075   9.008   0.177
19117TIP3    H257229   8.042   8.861   0.192
19118TIP3   OH257230   5.522   4.402   7.864
19118TIP3    H157231   5.594   4.388   7.926
19118TIP3    H257232   5.564   4.444   7.788
19119TIP3   OH257233   7.727   9.134   0.343
19119TIP3    H157234   7.808   9.121   0.392
19119TIP3    H257235   7.738   9.082   0.263
19120TIP3   OH257236   1.633   0.091   0.138
19120TIP3    H157237   1.725   0.068   0.151
19120TIP3    H257238   1.593   0.010   0.105
19121TIP3   OH257239   2.894   0.063   0.408
19121TIP3    H157240   2.814   0.109   0.383
19121TIP3    H257241   2.910   0.091   0.498
19122TIP3   OH257242   8.085   8.918   0.671
19122TIP3    H157243   8.031   8.956   0.602
19122TIP3    H257244   8.038   8.937   0.752
19123TIP3   OH257245   5.169   5.150   7.686
19123TIP3    H157246   5.135   5.121   7.601
19123TIP3    H257247   5.124   5.233   7.703
19124TIP3   OH257248   9.003   9.022   0.033
19124TIP3    H157249   8.982   8.984   0.119
19124TIP3    H257250   9.049   9.103   0.054
19125TIP3   OH257251   7.962   9.034   0.455
19125TIP3    H157252   8.018   9.108   0.478
19125TIP3    H257253   8.006   8.993   0.381
19126TIP3   OH257254   1.481   0.647   0.575
19126TIP3    H157255   1.468   0.726   0.523
19126TIP3    H257256   1.401   0.640   0.627
19127TIP3   OH257257   4.151   4.959   7.801
19127TIP3    H157258   4.112   4.986   7.718
19127TIP3    H257259   4.184   5.041   7.839
19128TIP3   OH257260   2.324   0.854   0.042
19128TIP3    H157261   2.240   0.841   0.085
19128TIP3    H257262   2.314   0.938  -0.004
19129TIP3   OH257263   9.148   8.994   0.401
19129TIP3    H157264   9.060   9.020   0.373
19129TIP3    H257265   9.205   9.025   0.331
19130TIP3   OH257266   8.445   8.636   0.386
19130TIP3    H157267   8.432   8.542   0.400
19130TIP3    H257268   8.371   8.678   0.430
19131TIP3   OH257269   5.296   5.520   7.713
19131TIP3    H157270   5.339   5.436   7.697
19131TIP3    H257271   5.354   5.585   7.674
19132TIP3   OH257272   5.435   5.303   7.622
19132TIP3    H157273   5.406   5.224   7.576
19132TIP3    H257274   5.470   5.271   7.705
19133TIP3   OH257275   2.551   0.766   0.381
19133TIP3    H157276   2.539   0.689   0.326
19133TIP3    H257277   2.534   0.840   0.323
19134TIP3   OH257278   5.114   4.786   7.640
19134TIP3    H157279   5.039   4.833   7.603
19134TIP3    H257280   5.151   4.738   7.565
19135TIP3   OH257281   2.745   0.405   0.226
19135TIP3    H157282   2.663   0.453   0.235
19135TIP3    H257283   2.776   0.427   0.138
19136TIP3   OH257284   5.464   4.888   7.620
19136TIP3    H157285   5.402   4.895   7.693
19136TIP3    H257286   5.535   4.835   7.654
19137TIP3   OH257287   2.428   0.284   0.522
19137TIP3    H157288   2.426   0.369   0.567
19137TIP3    H257289   2.342   0.276   0.482
19138TIP3   OH257290   1.421   0.238   0.030
19138TIP3    H157291   1.384   0.183  -0.039
19138TIP3    H257292   1.499   0.190   0.059
19139TIP3   OH257293   1.555   0.663   0.183
19139TIP3    H157294   1.559   0.601   0.110
19139TIP3    H257295   1.624   0.636   0.243
19140TIP3   OH257296   1.570   0.229   0.381
19140TIP3    H157297   1.595   0.197   0.295
19140TIP3    H257298   1.620   0.311   0.391
19141TIP3   OH257299   2.087   0.843   0.171
19141TIP3    H157300   2.072   0.925   0.219
19141TIP3    H257301   2.047   0.775   0.226
19142TIP3   OH257302   1.697   0.765   0.710
19142TIP3    H157303   1.632   0.824   0.748
19142TIP3    H257304   1.646   0.706   0.655
19143TIP3   OH257305   1.449   0.320   0.814
19143TIP3    H157306   1.461   0.409   0.848
19143TIP3    H257307   1.354   0.305   0.818
19144TIP3   OH257308   5.038   5.403   7.709
19144TIP3    H157309   5.118   5.450   7.732
19144TIP3    H257310   4.978   5.471   7.678
19145TIP3   OH257311   1.486   0.940   0.791
19145TIP3    H157312   1.455   0.933   0.701
19145TIP3    H257313   1.410   0.918   0.845
19146TIP3   OH257314   5.810   3.962   7.487
19146TIP3    H157315   5.732   3.981   7.538
19146TIP3    H257316   5.828   4.043   7.440
19147TIP3   OH257317   4.554   4.701   7.831
19147TIP3    H157318   4.491   4.747   7.776
19147TIP3    H257319   4.514   4.616   7.848
19148TIP3   OH257320   5.612   5.331   7.033
19148TIP3    H157321   5.619   5.426   7.022
19148TIP3    H257322   5.701   5.299   7.022
19149TIP3   OH257323   1.066   0.465   0.741
19149TIP3    H157324   1.007   0.442   0.670
19149TIP3    H257325   1.106   0.381   0.767
19150TIP3   OH257326   0.925   0.660   0.375
19150TIP3    H157327   1.019   0.648   0.362
19150TIP3    H257328   0.919   0.737   0.431
19151TIP3   OH257329   2.787   1.112   0.433
19151TIP3    H157330   2.788   1.016   0.438
19151TIP3    H257331   2.705   1.137   0.475
19152TIP3   OH257332   1.888   0.915   0.543
19152TIP3    H157333   1.880   0.996   0.593
19152TIP3    H257334   1.843   0.849   0.596
19153TIP3   OH257335   4.916   5.648   7.515
19153TIP3    H157336   4.874   5.628   7.432
19153TIP3    H257337   4.886   5.736   7.537
19154TIP3   OH257338   4.358   5.494   7.904
19154TIP3    H157339   4.409   5.488   7.985
19154TIP3    H257340   4.301   5.417   7.906
19155TIP3   OH257341   5.124   5.545   7.158
19155TIP3    H157342   5.180   5.478   7.121
19155TIP3    H257343   5.155   5.555   7.248
19156TIP3   OH257344   5.170   5.595   7.430
19156TIP3    H157345   5.084   5.604   7.472
19156TIP3    H257346   5.224   5.551   7.496
19157TIP3   OH257347   2.675   0.240   0.703
19157TIP3    H157348   2.598   0.262   0.651
19157TIP3    H257349   2.688   0.146   0.689
19158TIP3   OH257350   1.265   0.656   0.739
19158TIP3    H157351   1.323   0.636   0.812
19158TIP3    H257352   1.197   0.588   0.742
19159TIP3   OH257353   8.204   8.712   0.514
19159TIP3    H157354   8.117   8.682   0.487
19159TIP3    H257355   8.188   8.797   0.556
19160TIP3   OH257356   8.740   8.827   0.708
19160TIP3    H157357   8.806   8.801   0.772
19160TIP3    H257358   8.657   8.810   0.751
19161TIP3   OH257359   2.447   0.019   0.627
19161TIP3    H157360   2.397   0.017   0.709
19161TIP3    H257361   2.424   0.102   0.587
19162TIP3   OH257362   5.339   4.814   7.143
19162TIP3    H157363   5.339   4.734   7.090
19162TIP3    H257364   5.430   4.825   7.170
19163TIP3   OH257365   5.086   4.134   7.480
19163TIP3    H157366   5.059   4.146   7.571
19163TIP3    H257367   5.046   4.051   7.454
19164TIP3   OH257368   1.599  -0.004   0.526
19164TIP3    H157369   1.556   0.016   0.609
19164TIP3    H257370   1.592   0.077   0.475
19165TIP3   OH257371   8.021   9.110   0.044
19165TIP3    H157372   7.930   9.088   0.062
19165TIP3    H257373   8.038   9.073  -0.043
19166TIP3   OH257374   5.245   4.580   7.763
19166TIP3    H157375   5.193   4.659   7.748
19166TIP3    H257376   5.272   4.551   7.676
19167TIP3   OH257377   2.155   0.240   0.862
19167TIP3    H157378   2.130   0.170   0.922
19167TIP3    H257379   2.249   0.249   0.875
19168TIP3   OH257380   5.402   4.608   8.012
19168TIP3    H157381   5.347   4.650   7.946
19168TIP3    H257382   5.433   4.527   7.970
19169TIP3   OH257383   1.424   0.019   0.742
19169TIP3    H157384   1.451   0.087   0.804
19169TIP3    H257385   1.416  -0.060   0.795
19170TIP3   OH257386   4.736   4.113   7.453
19170TIP3    H157387   4.735   4.112   7.548
19170TIP3    H257388   4.662   4.168   7.428
19171TIP3   OH257389   7.552   8.777   0.322
19171TIP3    H157390   7.624   8.812   0.376
19171TIP3    H257391   7.594   8.752   0.240
19172TIP3   OH257392   4.256   4.143   7.841
19172TIP3    H157393   4.304   4.176   7.765
19172TIP3    H257394   4.196   4.214   7.864
19173TIP3   OH257395   2.169   0.231   0.452
19173TIP3    H157396   2.182   0.173   0.377
19173TIP3    H257397   2.121   0.177   0.516
19174TIP3   OH257398   8.348   8.924   0.110
19174TIP3    H157399   8.267   8.932   0.159
19174TIP3    H257400   8.416   8.952   0.172
19175TIP3   OH257401   7.782   8.991   0.116
19175TIP3    H157402   7.690   8.998   0.089
19175TIP3    H257403   7.808   8.903   0.090
19176TIP3   OH257404   4.788   4.367   7.803
19176TIP3    H157405   4.881   4.384   7.787
19176TIP3    H257406   4.745   4.393   7.721
19177TIP3   OH257407   8.843   9.006   0.311
19177TIP3    H157408   8.809   9.025   0.398
19177TIP3    H257409   8.777   8.951   0.270
19178TIP3   OH257410   4.625   4.399   7.580
19178TIP3    H157411   4.552   4.357   7.533
19178TIP3    H257412   4.678   4.439   7.511
19179TIP3   OH257413   2.479   1.463   0.526
19179TIP3    H157414   2.475   1.483   0.433
19179TIP3    H257415   2.557   1.510   0.557
19180TIP3   OH257416   1.434   0.572   0.951
19180TIP3    H157417   1.515   0.603   0.991
19180TIP3    H257418   1.370   0.573   1.023
19181TIP3   OH257419   8.423   9.240   0.198
19181TIP3    H157420   8.505   9.243   0.147
19181TIP3    H257421   8.452   9.222   0.287
19182TIP3   OH257422   7.954   8.753   0.079
19182TIP3    H157423   7.926   8.674   0.124
19182TIP3    H257424   8.009   8.722   0.007
19183TIP3   OH257425   8.406   9.155   0.508
19183TIP3    H157426   8.321   9.198   0.505
19183TIP3    H257427   8.465   9.219   0.548
19184TIP3   OH257428   4.872   4.936   7.586
19184TIP3    H157429   4.805   4.868   7.578
19184TIP3    H257430   4.864   4.967   7.676
19185TIP3   OH257431   2.513   0.548   0.218
19185TIP3    H157432   2.536   0.598   0.140
19185TIP3    H257433   2.430   0.505   0.197
19186TIP3   OH257434   5.336   4.255   7.456
19186TIP3    H157435   5.245   4.227   7.457
19186TIP3    H257436   5.332   4.350   7.446
19187TIP3   OH257437   1.297   0.324   0.263
19187TIP3    H157438   1.339   0.306   0.180
19187TIP3    H257439   1.351   0.279   0.328
19188TIP3   OH257440   5.017   5.082   7.404
19188TIP3    H157441   4.975   5.167   7.414
19188TIP3    H257442   4.972   5.026   7.467
19189TIP3   OH257443   1.182   0.256   0.881
19189TIP3    H157444   1.211   0.247   0.972
19189TIP3    H257445   1.116   0.188   0.869
19190TIP3   OH257446   1.909   0.364   0.900
19190TIP3    H157447   1.846   0.317   0.845
19190TIP3    H257448   1.994   0.335   0.868
19191TIP3   OH257449   2.165   0.891   0.481
19191TIP3    H157450   2.070   0.885   0.490
19191TIP3    H257451   2.193   0.941   0.558
19192TIP3   OH257452   5.855   4.581   7.381
19192TIP3    H157453   5.795   4.533   7.324
19192TIP3    H257454   5.848   4.672   7.352
19193TIP3   OH257455   2.799   0.819   0.469
19193TIP3    H157456   2.704   0.815   0.463
19193TIP3    H257457   2.830   0.790   0.383
19194TIP3   OH257458   5.546   5.399   7.299
19194TIP3    H157459   5.523   5.332   7.363
19194TIP3    H257460   5.559   5.351   7.217
19195TIP3   OH257461   2.291   0.407   0.130
19195TIP3    H157462   2.202   0.385   0.158
19195TIP3    H257463   2.320   0.330   0.082
19196TIP3   OH257464   4.668   5.255   7.881
19196TIP3    H157465   4.674   5.339   7.834
19196TIP3    H257466   4.575   5.245   7.901
19197TIP3   OH257467   4.233   4.565   7.593
19197TIP3    H157468   4.282   4.644   7.612
19197TIP3    H257469   4.159   4.567   7.653
19198TIP3   OH257470   4.808   5.022   7.835
19198TIP3    H157471   4.776   5.111   7.850
19198TIP3    H257472   4.779   4.973   7.911
19199TIP3   OH257473   1.674   0.984   0.358
19199TIP3    H157474   1.721   1.052   0.311
19199TIP3    H257475   1.742   0.936   0.406
19200TIP3   OH257476   4.588   5.502   7.742
19200TIP3    H157477   4.505   5.505   7.790
19200TIP3    H257478   4.621   5.592   7.746
19201TIP3   OH257479   5.302   5.136   7.205
19201TIP3    H157480   5.362   5.112   7.276
19201TIP3    H257481   5.219   5.096   7.228
19202TIP3   OH257482   2.309   1.152   0.370
19202TIP3    H157483   2.235   1.091   0.365
19202TIP3    H257484   2.294   1.213   0.297
19203TIP3   OH257485   5.644   5.609   7.021
19203TIP3    H157486   5.689   5.682   6.977
19203TIP3    H257487   5.563   5.647   7.054
19204TIP3   OH257488   7.931   8.998   0.889
19204TIP3    H157489   7.837   9.005   0.904
19204TIP3    H257490   7.962   8.942   0.960
19205TIP3   OH257491   5.466   5.070   7.417
19205TIP3    H157492   5.445   5.004   7.483
19205TIP3    H257493   5.561   5.063   7.405
19206TIP3   OH257494   1.113   0.845   0.522
19206TIP3    H157495   1.167   0.769   0.544
19206TIP3    H257496   1.144   0.915   0.580
19207TIP3   OH257497   4.667   5.110   7.203
19207TIP3    H157498   4.689   5.021   7.173
19207TIP3    H257499   4.652   5.100   7.297
19208TIP3   OH257500   4.616   5.116   7.476
19208TIP3    H157501   4.689   5.084   7.530
19208TIP3    H257502   4.621   5.211   7.482
19209TIP3   OH257503   4.349   4.809   7.676
19209TIP3    H157504   4.286   4.852   7.734
19209TIP3    H257505   4.370   4.875   7.610
19210TIP3   OH257506   8.766   9.066   0.569
19210TIP3    H157507   8.847   9.103   0.604
19210TIP3    H257508   8.753   8.986   0.620
19211TIP3   OH257509   5.382   4.198   7.730
19211TIP3    H157510   5.365   4.223   7.639
19211TIP3    H257511   5.419   4.278   7.769
19212TIP3   OH257512   4.877   5.313   7.421
19212TIP3    H157513   4.793   5.340   7.460
19212TIP3    H257514   4.900   5.386   7.363
19213TIP3   OH257515   5.071   4.376   7.835
19213TIP3    H157516   5.133   4.443   7.807
19213TIP3    H257517   5.079   4.373   7.930
19214TIP3   OH257518   2.063   0.073   0.646
19214TIP3    H157519   2.088   0.130   0.720
19214TIP3    H257520   2.123  -0.001   0.653
19215TIP3   OH257521   5.217   4.106   7.938
19215TIP3    H157522   5.201   4.180   7.996
19215TIP3    H257523   5.275   4.141   7.870
19216TIP3   OH257524   4.620   5.390   7.489
19216TIP3    H157525   4.592   5.458   7.427
19216TIP3    H257526   4.607   5.429   7.575
19217TIP3   OH257527   4.728   4.103   7.730
19217TIP3    H157528   4.722   4.193   7.763
19217TIP3    H257529   4.821   4.081   7.736
19218TIP3   OH257530   9.245   9.212   0.622
19218TIP3    H157531   9.150   9.212   0.632
19218TIP3    H257532   9.260   9.181   0.533
19219TIP3   OH257533   2.366   0.163   0.008
19219TIP3    H157534   2.286   0.113   0.022
19219TIP3    H257535   2.433   0.116   0.058
19220TIP3   OH257536   4.345   5.021   7.479
19220TIP3    H157537   4.410   5.090   7.495
19220TIP3    H257538   4.387   4.964   7.415
19221TIP3   OH257539   4.286   4.295   7.617
19221TIP3    H157540   4.289   4.391   7.612
19221TIP3    H257541   4.205   4.271   7.572
19222TIP3   OH257542   5.603   5.751   7.960
19222TIP3    H157543   5.558   5.794   7.888
19222TIP3    H257544   5.696   5.764   7.942
19223TIP3   OH257545   7.940   8.632   0.489
19223TIP3    H157546   7.911   8.602   0.402
19223TIP3    H257547   7.931   8.556   0.545
19224TIP3   OH257548   4.213   5.233   7.871
19224TIP3    H157549   4.141   5.263   7.926
19224TIP3    H257550   4.194   5.270   7.784
19225TIP3   OH257551   1.105   1.151   0.941
19225TIP3    H157552   1.190   1.155   0.986
19225TIP3    H257553   1.084   1.058   0.937
19226TIP3   OH257554   1.588   1.124   0.975
19226TIP3    H157555   1.679   1.098   0.993
19226TIP3    H257556   1.559   1.064   0.906
19227TIP3   OH257557   4.833   5.311   7.115
19227TIP3    H157558   4.776   5.245   7.154
19227TIP3    H257559   4.911   5.262   7.086
19228TIP3   OH257560   2.224   1.029   0.718
19228TIP3    H157561   2.213   0.958   0.781
19228TIP3    H257562   2.302   1.075   0.747
19229TIP3   OH257563   5.271   5.354   7.025
19229TIP3    H157564   5.305   5.289   7.087
19229TIP3    H257565   5.333   5.351   6.952
19230TIP3   OH257566   1.232   0.556   1.139
19230TIP3    H157567   1.251   0.462   1.144
19230TIP3    H257568   1.146   0.561   1.097
19231TIP3   OH257569   4.481   4.829   7.336
19231TIP3    H157570   4.532   4.798   7.410
19231TIP3    H257571   4.543   4.836   7.264
19232TIP3   OH257572   1.843   0.645   0.914
19232TIP3    H157573   1.807   0.669   0.829
19232TIP3    H257574   1.873   0.555   0.902
19233TIP3   OH257575   4.979   5.024   7.140
19233TIP3    H157576   4.990   5.042   7.233
19233TIP3    H257577   4.984   4.928   7.134
19234TIP3   OH257578   2.339   0.657   0.531
19234TIP3    H157579   2.410   0.697   0.481
19234TIP3    H257580   2.261   0.704   0.504
19235TIP3   OH257581   1.352   0.287   1.121
19235TIP3    H157582   1.432   0.242   1.095
19235TIP3    H257583   1.372   0.323   1.208
19236TIP3   OH257584   4.681   4.732   7.556
19236TIP3    H157585   4.662   4.697   7.643
19236TIP3    H257586   4.718   4.658   7.507
19237TIP3   OH257587   1.692   0.181   0.773
19237TIP3    H157588   1.615   0.237   0.785
19237TIP3    H257589   1.737   0.219   0.697
19238TIP3   OH257590   4.781   4.525   7.395
19238TIP3    H157591   4.755   4.529   7.303
19238TIP3    H257592   4.877   4.527   7.394
19239TIP3   OH257593   2.234   0.587   0.929
19239TIP3    H157594   2.273   0.547   0.852
19239TIP3    H257595   2.211   0.512   0.985
19240TIP3   OH257596   5.617   4.861   7.052
19240TIP3    H157597   5.586   4.810   6.977
19240TIP3    H257598   5.580   4.948   7.039
19241TIP3   OH257599   8.344   9.208   0.906
19241TIP3    H157600   8.346   9.128   0.852
19241TIP3    H257601   8.305   9.274   0.849
19242TIP3   OH257602   8.346   8.988   0.717
19242TIP3    H157603   8.376   9.034   0.639
19242TIP3    H257604   8.254   8.968   0.699
19243TIP3   OH257605   1.836   0.312   0.580
19243TIP3    H157606   1.919   0.290   0.538
19243TIP3    H257607   1.805   0.389   0.533
19244TIP3   OH257608   2.444   0.261   0.980
19244TIP3    H157609   2.482   0.173   0.979
19244TIP3    H257610   2.493   0.309   0.914
19245TIP3   OH257611   2.461   0.499   0.710
19245TIP3    H157612   2.405   0.556   0.658
19245TIP3    H257613   2.550   0.524   0.687
19246TIP3   OH257614   1.690   0.077   1.138
19246TIP3    H157615   1.621   0.013   1.154
19246TIP3    H257616   1.724   0.055   1.052
19247TIP3   OH257617   8.478   8.756   0.784
19247TIP3    H157618   8.434   8.838   0.762
19247TIP3    H257619   8.412   8.688   0.772
19248TIP3   OH257620   2.070   0.020   1.001
19248TIP3    H157621   2.058   0.011   1.096
19248TIP3    H257622   1.984  -0.000   0.964
19249TIP3   OH257623   8.847   9.217   0.860
19249TIP3    H157624   8.769   9.215   0.915
19249TIP3    H257625   8.917   9.182   0.915
19250TIP3   OH257626   9.079   9.152   1.012
19250TIP3    H157627   9.088   9.057   1.027
19250TIP3    H257628   9.074   9.189   1.100
19251TIP3   OH257629   8.062   9.097   1.194
19251TIP3    H157630   8.071   9.009   1.157
19251TIP3    H257631   8.097   9.090   1.282
19252TIP3   OH257632   8.576   8.764   1.039
19252TIP3    H157633   8.642   8.694   1.035
19252TIP3    H257634   8.534   8.762   0.953
19253TIP3   OH257635   8.640   8.982   1.197
19253TIP3    H157636   8.618   8.912   1.135
19253TIP3    H257637   8.565   9.041   1.194
19254TIP3   OH257638   4.595   5.594   7.300
19254TIP3    H157639   4.689   5.584   7.286
19254TIP3    H257640   4.564   5.640   7.222
19255TIP3   OH257641   4.076   4.972   7.517
19255TIP3    H157642   4.168   4.997   7.506
19255TIP3    H257643   4.070   4.884   7.478
19256TIP3   OH257644   3.988   5.582   7.933
19256TIP3    H157645   3.921   5.523   7.897
19256TIP3    H257646   4.033   5.529   7.998
19257TIP3   OH257647   0.858   0.818   0.120
19257TIP3    H157648   0.847   0.741   0.176
19257TIP3    H257649   0.910   0.879   0.172
19258TIP3   OH257650   5.854   5.846   7.913
19258TIP3    H157651   5.888   5.863   8.001
19258TIP3    H257652   5.911   5.897   7.855
19259TIP3   OH257653   2.613   1.235   0.200
19259TIP3    H157654   2.568   1.151   0.193
19259TIP3    H257655   2.697   1.214   0.241
19260TIP3   OH257656   2.670   0.912   0.779
19260TIP3    H157657   2.580   0.926   0.806
19260TIP3    H257658   2.708   1.000   0.775
19261TIP3   OH257659   5.748   5.046   7.393
19261TIP3    H157660   5.815   5.109   7.368
19261TIP3    H257661   5.782   5.005   7.472
19262TIP3   OH257662   5.873   4.912   7.597
19262TIP3    H157663   5.806   4.868   7.650
19262TIP3    H257664   5.931   4.953   7.661
19263TIP3   OH257665   5.929   5.307   8.030
19263TIP3    H157666   5.977   5.243   7.978
19263TIP3    H257667   5.916   5.382   7.971
19264TIP3   OH257668   2.488   0.986   0.224
19264TIP3    H157669   2.417   1.026   0.274
19264TIP3    H257670   2.443   0.937   0.155
19265TIP3   OH257671   5.808   4.823   7.243
19265TIP3    H157672   5.741   4.825   7.175
19265TIP3    H257673   5.784   4.894   7.302
19266TIP3   OH257674   5.695   4.484   7.186
19266TIP3    H157675   5.629   4.537   7.141
19266TIP3    H257676   5.663   4.394   7.176
19267TIP3   OH257677   5.694   4.764   7.744
19267TIP3    H157678   5.693   4.669   7.735
19267TIP3    H257679   5.674   4.779   7.836
19268TIP3   OH257680   1.049   0.222   0.488
19268TIP3    H157681   1.044   0.195   0.396
19268TIP3    H257682   1.142   0.226   0.507
19269TIP3   OH257683   2.707   0.574   0.605
19269TIP3    H157684   2.778   0.512   0.595
19269TIP3    H257685   2.725   0.643   0.541
19270TIP3   OH257686   2.892   0.377   0.620
19270TIP3    H157687   2.816   0.331   0.657
19270TIP3    H257688   2.965   0.315   0.632
19271TIP3   OH257689   5.630   4.216   7.175
19271TIP3    H157690   5.695   4.197   7.242
19271TIP3    H257691   5.548   4.180   7.210
19272TIP3   OH257692   5.692   4.487   7.666
19272TIP3    H157693   5.733   4.400   7.667
19272TIP3    H257694   5.705   4.519   7.576
19273TIP3   OH257695   2.582   0.037   0.136
19273TIP3    H157696   2.663   0.063   0.092
19273TIP3    H257697   2.588   0.077   0.223
19274TIP3   OH257698   2.645   0.187   0.365
19274TIP3    H157699   2.568   0.217   0.412
19274TIP3    H257700   2.678   0.264   0.319
19275TIP3   OH257701   7.797   9.149   1.156
19275TIP3    H157702   7.892   9.148   1.161
19275TIP3    H257703   7.770   9.067   1.199
19276TIP3   OH257704   9.633   9.014   0.919
19276TIP3    H157705   9.689   8.949   0.877
19276TIP3    H257706   9.601   9.069   0.847
19277TIP3   OH257707   5.798   4.228   7.673
19277TIP3    H157708   5.839   4.219   7.759
19277TIP3    H257709   5.731   4.160   7.671
19278TIP3   OH257710   7.759   8.842   0.496
19278TIP3    H157711   7.819   8.768   0.505
19278TIP3    H257712   7.816   8.918   0.488
19279TIP3   OH257713   7.561   9.116   0.566
19279TIP3    H157714   7.609   9.109   0.484
19279TIP3    H257715   7.586   9.202   0.601
19280TIP3   OH257716   9.498   9.152   0.728
19280TIP3    H157717   9.415   9.196   0.746
19280TIP3    H257718   9.475   9.082   0.667
19281TIP3   OH257719   5.876   4.170   7.312
19281TIP3    H157720   5.913   4.101   7.256
19281TIP3    H257721   5.936   4.244   7.303
19282TIP3   OH257722   7.541   8.615   0.064
19282TIP3    H157723   7.450   8.617   0.095
19282TIP3    H257724   7.543   8.675  -0.010
19283TIP3   OH257725   5.435   5.707   7.573
19283TIP3    H157726   5.484   5.687   7.494
19283TIP3    H257727   5.492   5.765   7.623
19284TIP3   OH257728   7.760   8.694   0.881
19284TIP3    H157729   7.716   8.696   0.966
19284TIP3    H257730   7.698   8.737   0.821
19285TIP3   OH257731   1.268   0.893   0.962
19285TIP3    H157732   1.181   0.857   0.947
19285TIP3    H257733   1.289   0.869   1.052
19286TIP3   OH257734   1.446   0.922   0.506
19286TIP3    H157735   1.402   0.998   0.468
19286TIP3    H257736   1.533   0.923   0.468
19287TIP3   OH257737   1.893   1.176   0.653
19287TIP3    H157738   1.935   1.171   0.738
19287TIP3    H257739   1.958   1.217   0.596
19288TIP3   OH257740   2.074   1.317   0.501
19288TIP3    H157741   2.141   1.261   0.461
19288TIP3    H257742   2.123   1.371   0.562
19289TIP3   OH257743   9.399   8.916   0.604
19289TIP3    H157744   9.310   8.918   0.569
19289TIP3    H257745   9.428   8.826   0.591
19290TIP3   OH257746   1.122   1.179   0.527
19290TIP3    H157747   1.034   1.213   0.507
19290TIP3    H257748   1.137   1.205   0.618
19291TIP3   OH257749   1.360   1.159   0.389
19291TIP3    H157750   1.275   1.168   0.433
19291TIP3    H257751   1.342   1.187   0.299
19292TIP3   OH257752   1.790   1.189   0.182
19292TIP3    H157753   1.718   1.206   0.121
19292TIP3    H257754   1.801   1.272   0.229
19293TIP3   OH257755   2.056   1.125   0.233
19293TIP3    H157756   1.963   1.137   0.217
19293TIP3    H257757   2.098   1.201   0.194
19294TIP3   OH257758   2.265   1.318   0.152
19294TIP3    H157759   2.250   1.400   0.105
19294TIP3    H257760   2.291   1.255   0.084
19295TIP3   OH257761   1.039   0.967   0.277
19295TIP3    H157762   1.062   0.945   0.368
19295TIP3    H257763   1.108   0.926   0.225
19296TIP3   OH257764   1.234   0.839   0.133
19296TIP3    H157765   1.246   0.756   0.179
19296TIP3    H257766   1.321   0.877   0.128
19297TIP3   OH257767   1.500   0.935   0.138
19297TIP3    H157768   1.524   0.843   0.125
19297TIP3    H257769   1.542   0.960   0.219
19298TIP3   OH257770   8.613   8.834   0.229
19298TIP3    H157771   8.562   8.766   0.274
19298TIP3    H257772   8.677   8.784   0.178
19299TIP3   OH257773   9.129   8.711   0.128
19299TIP3    H157774   9.166   8.763   0.056
19299TIP3    H257775   9.035   8.730   0.125
19300TIP3   OH257776   5.961   4.191   7.894
19300TIP3    H157777   6.031   4.142   7.851
19300TIP3    H257778   5.985   4.283   7.882
19301TIP3   OH257779   7.854   8.538   0.240
19301TIP3    H157780   7.762   8.509   0.240
19301TIP3    H257781   7.904   8.457   0.235
19302TIP3   OH257782   4.371   3.791   7.887
19302TIP3    H157783   4.404   3.845   7.815
19302TIP3    H257784   4.344   3.854   7.954
19303TIP3   OH257785   8.299   8.573   0.121
19303TIP3    H157786   8.351   8.623   0.059
19303TIP3    H257787   8.317   8.614   0.206
19304TIP3   OH257788   8.849   8.717   0.105
19304TIP3    H157789   8.838   8.691   0.014
19304TIP3    H257790   8.831   8.637   0.156
19305TIP3   OH257791   5.605   4.022   7.668
19305TIP3    H157792   5.523   4.071   7.676
19305TIP3    H257793   5.588   3.939   7.714
19306TIP3   OH257794   4.089   5.360   7.667
19306TIP3    H157795   4.006   5.324   7.634
19306TIP3    H257796   4.080   5.455   7.658
19307TIP3   OH257797   4.493   3.947   7.656
19307TIP3    H157798   4.538   3.888   7.595
19307TIP3    H257799   4.562   4.003   7.690
19308TIP3   OH257800   5.005   4.126   7.754
19308TIP3    H157801   5.067   4.079   7.810
19308TIP3    H257802   5.021   4.218   7.772
19309TIP3   OH257803   4.863   5.550   7.246
19309TIP3    H157804   4.951   5.573   7.216
19309TIP3    H257805   4.838   5.475   7.192
19310TIP3   OH257806   5.579   5.665   7.341
19310TIP3    H157807   5.574   5.569   7.332
19310TIP3    H257808   5.536   5.698   7.262
19311TIP3   OH257809   8.063   8.816   1.129
19311TIP3    H157810   8.027   8.750   1.189
19311TIP3    H257811   8.156   8.822   1.154
19312TIP3   OH257812   8.310   8.816   1.250
19312TIP3    H157813   8.395   8.794   1.212
19312TIP3    H257814   8.297   8.752   1.320
19313TIP3   OH257815   4.169   5.388   7.309
19313TIP3    H157816   4.168   5.409   7.402
19313TIP3    H257817   4.254   5.346   7.295
19314TIP3   OH257818   9.137   8.879   1.038
19314TIP3    H157819   9.154   8.850   1.127
19314TIP3    H257820   9.223   8.876   0.995
19315TIP3   OH257821   2.534   1.194   0.535
19315TIP3    H157822   2.462   1.160   0.482
19315TIP3    H257823   2.523   1.289   0.531
19316TIP3   OH257824   7.072   5.187   7.296
19316TIP3    H157825   7.049   5.278   7.278
19316TIP3    H257826   6.997   5.136   7.267
19317TIP3   OH257827   7.078   5.182   7.676
19317TIP3    H157828   7.104   5.156   7.764
19317TIP3    H257829   7.030   5.106   7.642
19318TIP3   OH257830   3.110   0.460   0.040
19318TIP3    H157831   3.140   0.394   0.102
19318TIP3    H257832   3.180   0.525   0.038
19319TIP3   OH257833   7.318   5.486   7.360
19319TIP3    H157834   7.299   5.417   7.423
19319TIP3    H257835   7.342   5.562   7.413
19320TIP3   OH257836   6.343   5.477   7.806
19320TIP3    H157837   6.340   5.382   7.792
19320TIP3    H257838   6.426   5.504   7.766
19321TIP3   OH257839   6.049   4.695   7.555
19321TIP3    H157840   6.004   4.777   7.572
19321TIP3    H257841   5.981   4.637   7.520
19322TIP3   OH257842   6.112   4.981   7.727
19322TIP3    H157843   6.159   4.906   7.762
19322TIP3    H257844   6.166   5.010   7.653
19323TIP3   OH257845   6.967   5.950   7.374
19323TIP3    H157846   7.014   5.879   7.331
19323TIP3    H257847   6.947   5.917   7.462
19324TIP3   OH257848   6.876   5.409   7.726
19324TIP3    H157849   6.908   5.334   7.675
19324TIP3    H257850   6.955   5.456   7.752
19325TIP3   OH257851   7.885   4.733   7.723
19325TIP3    H157852   7.913   4.813   7.768
19325TIP3    H257853   7.905   4.749   7.631
19326TIP3   OH257854   7.285   4.910   7.759
19326TIP3    H157855   7.327   4.827   7.780
19326TIP3    H257856   7.253   4.899   7.669
19327TIP3   OH257857   6.621   4.571   7.721
19327TIP3    H157858   6.601   4.645   7.664
19327TIP3    H257859   6.575   4.497   7.682
19328TIP3   OH257860   7.318   4.661   7.347
19328TIP3    H157861   7.386   4.645   7.413
19328TIP3    H257862   7.365   4.698   7.272
19329TIP3   OH257863   6.257   4.771   7.831
19329TIP3    H157864   6.337   4.754   7.880
19329TIP3    H257865   6.265   4.718   7.752
19330TIP3   OH257866   6.698   4.969   7.620
19330TIP3    H157867   6.789   4.945   7.637
19330TIP3    H257868   6.657   4.888   7.590
19331TIP3   OH257869   7.956   4.941   7.894
19331TIP3    H157870   7.875   4.985   7.873
19331TIP3    H257871   7.971   4.961   7.987
19332TIP3   OH257872   0.082   9.175   0.158
19332TIP3    H157873   0.027   9.211   0.089
19332TIP3    H257874   0.034   9.193   0.239
19333TIP3   OH257875   6.970   5.411   7.163
19333TIP3    H157876   6.922   5.382   7.086
19333TIP3    H257877   6.928   5.493   7.189
19334TIP3   OH257878   6.725   5.332   7.956
19334TIP3    H157879   6.662   5.393   7.994
19334TIP3    H257880   6.763   5.381   7.882
19335TIP3   OH257881   7.528   4.664   7.519
19335TIP3    H157882   7.515   4.616   7.601
19335TIP3    H257883   7.580   4.741   7.544
19336TIP3   OH257884   6.493   4.670   7.943
19336TIP3    H157885   6.550   4.743   7.967
19336TIP3    H257886   6.537   4.629   7.868
19337TIP3   OH257887   3.287   0.904   0.054
19337TIP3    H157888   3.261   0.981   0.003
19337TIP3    H257889   3.211   0.885   0.109
19338TIP3   OH257890   5.952   5.213   7.286
19338TIP3    H157891   5.903   5.240   7.208
19338TIP3    H257892   5.979   5.294   7.327
19339TIP3   OH257893   7.388   5.731   7.527
19339TIP3    H157894   7.302   5.718   7.569
19339TIP3    H257895   7.380   5.816   7.483
19340TIP3   OH257896   7.677   4.632   7.889
19340TIP3    H157897   7.590   4.660   7.861
19340TIP3    H257898   7.736   4.662   7.820
19341TIP3   OH257899   6.975   4.275   7.875
19341TIP3    H157900   6.963   4.181   7.887
19341TIP3    H257901   6.900   4.315   7.919
19342TIP3   OH257902   7.099   5.776   7.205
19342TIP3    H157903   7.142   5.693   7.184
19342TIP3    H257904   7.153   5.843   7.163
19343TIP3   OH257905   7.235   5.559   7.107
19343TIP3    H157906   7.184   5.485   7.073
19343TIP3    H257907   7.271   5.526   7.190
19344TIP3   OH257908   7.614   5.644   7.868
19344TIP3    H157909   7.601   5.566   7.814
19344TIP3    H257910   7.595   5.717   7.810
19345TIP3   OH257911   6.904   5.036   7.126
19345TIP3    H157912   6.824   5.086   7.110
19345TIP3    H257913   6.949   5.035   7.042
19346TIP3   OH257914   6.866   4.820   6.845
19346TIP3    H157915   6.930   4.872   6.895
19346TIP3    H257916   6.920   4.757   6.797
19347TIP3   OH257917   7.808   5.283   7.714
19347TIP3    H157918   7.725   5.330   7.723
19347TIP3    H257919   7.838   5.303   7.626
19348TIP3   OH257920   7.253   5.119   7.103
19348TIP3    H157921   7.196   5.144   7.176
19348TIP3    H257922   7.335   5.094   7.144
19349TIP3   OH257923   4.219   0.541   0.009
19349TIP3    H157924   4.218   0.623   0.059
19349TIP3    H257925   4.134   0.540  -0.036
19350TIP3   OH257926   6.486   5.114   7.513
19350TIP3    H157927   6.443   5.059   7.448
19350TIP3    H257928   6.561   5.063   7.542
19351TIP3   OH257929   6.609   5.521   7.668
19351TIP3    H157930   6.588   5.483   7.582
19351TIP3    H257931   6.700   5.494   7.685
19352TIP3   OH257932   6.630   5.086   7.870
19352TIP3    H157933   6.655   5.071   7.779
19352TIP3    H257934   6.663   5.173   7.891
19353TIP3   OH257935   7.151   5.724   7.650
19353TIP3    H157936   7.132   5.804   7.700
19353TIP3    H257937   7.132   5.653   7.711
19354TIP3   OH257938   3.489   1.024   0.195
19354TIP3    H157939   3.433   1.088   0.240
19354TIP3    H257940   3.428   0.972   0.143
19355TIP3   OH257941   7.097   4.977   6.925
19355TIP3    H157942   7.151   5.035   6.978
19355TIP3    H257943   7.120   4.999   6.835
19356TIP3   OH257944   3.244   0.581   0.296
19356TIP3    H157945   3.253   0.667   0.337
19356TIP3    H257946   3.151   0.560   0.303
19357TIP3   OH257947   6.839   5.655   7.196
19357TIP3    H157948   6.910   5.713   7.224
19357TIP3    H257949   6.770   5.714   7.165
19358TIP3   OH257950   3.285   1.194   0.280
19358TIP3    H157951   3.252   1.192   0.190
19358TIP3    H257952   3.209   1.171   0.333
19359TIP3   OH257953   7.607   4.220   6.974
19359TIP3    H157954   7.528   4.237   7.025
19359TIP3    H257955   7.622   4.301   6.925
19360TIP3   OH257956   6.351   4.957   7.316
19360TIP3    H157957   6.287   5.007   7.264
19360TIP3    H257958   6.306   4.875   7.338
19361TIP3   OH257959   7.408   5.587   6.521
19361TIP3    H157960   7.414   5.682   6.508
19361TIP3    H257961   7.498   5.556   6.509
19362TIP3   OH257962   2.865   0.722   0.228
19362TIP3    H157963   2.800   0.707   0.159
19362TIP3    H257964   2.900   0.635   0.247
19363TIP3   OH257965   5.992   5.544   7.861
19363TIP3    H157966   6.085   5.527   7.846
19363TIP3    H257967   5.991   5.617   7.923
19364TIP3   OH257968   7.850   5.986   7.917
19364TIP3    H157969   7.852   5.891   7.930
19364TIP3    H257970   7.770   6.015   7.960
19365TIP3   OH257971   3.691   1.153   0.054
19365TIP3    H157972   3.691   1.244   0.082
19365TIP3    H257973   3.619   1.113   0.103
19366TIP3   OH257974   6.719   5.908   6.999
19366TIP3    H157975   6.668   5.885   6.922
19366TIP3    H257976   6.682   5.991   7.029
19367TIP3   OH257977   6.180   5.735   7.399
19367TIP3    H157978   6.190   5.799   7.470
19367TIP3    H257979   6.094   5.696   7.414
19368TIP3   OH257980   6.921   5.804   6.645
19368TIP3    H157981   6.977   5.736   6.608
19368TIP3    H257982   6.950   5.813   6.735
19369TIP3   OH257983   6.968   5.850   6.916
19369TIP3    H157984   6.880   5.864   6.951
19369TIP3    H257985   7.016   5.807   6.986
19370TIP3   OH257986   4.474   0.498   0.189
19370TIP3    H157987   4.393   0.514   0.139
19370TIP3    H257988   4.489   0.404   0.178
19371TIP3   OH257989   3.075   0.901   0.220
19371TIP3    H157990   3.120   0.885   0.302
19371TIP3    H257991   2.997   0.845   0.223
19372TIP3   OH257992   0.201   8.971  -0.001
19372TIP3    H157993   0.115   8.937  -0.028
19372TIP3    H257994   0.182   9.053   0.044
19373TIP3   OH257995   0.736   9.084   0.195
19373TIP3    H157996   0.803   9.058   0.258
19373TIP3    H257997   0.653   9.065   0.239
19374TIP3   OH257998   4.243   0.277   0.114
19374TIP3    H157999   4.194   0.271   0.196
19374TIP3    H258000   4.218   0.361   0.077
19375TIP3   OH258001   7.170   5.024   6.668
19375TIP3    H158002   7.135   4.997   6.583
19375TIP3    H258003   7.248   5.075   6.646
19376TIP3   OH258004   6.881   4.396   6.973
19376TIP3    H158005   6.850   4.398   7.064
19376TIP3    H258006   6.843   4.317   6.937
19377TIP3   OH258007   3.402   0.247   0.020
19377TIP3    H158008   3.351   0.265   0.099
19377TIP3    H258009   3.389   0.324  -0.036
19378TIP3   OH258010   6.550   4.749   7.532
19378TIP3    H158011   6.459   4.727   7.552
19378TIP3    H258012   6.565   4.711   7.446
19379TIP3   OH258013   7.043   4.839   7.259
19379TIP3    H158014   6.989   4.909   7.221
19379TIP3    H258015   7.096   4.808   7.186
19380TIP3   OH258016   3.951   0.495   0.348
19380TIP3    H158017   3.926   0.424   0.407
19380TIP3    H258018   4.043   0.511   0.367
19381TIP3   OH258019   7.200   4.865   7.498
19381TIP3    H158020   7.139   4.899   7.432
19381TIP3    H258021   7.233   4.784   7.460
19382TIP3   OH258022   3.224   0.274   0.228
19382TIP3    H158023   3.238   0.343   0.294
19382TIP3    H258024   3.208   0.195   0.279
19383TIP3   OH258025   6.535   4.372   6.940
19383TIP3    H158026   6.529   4.369   7.035
19383TIP3    H258027   6.460   4.424   6.912
19384TIP3   OH258028   6.081   4.413   7.812
19384TIP3    H158029   6.155   4.447   7.862
19384TIP3    H258030   6.119   4.388   7.727
19385TIP3   OH258031   6.057   4.402   7.326
19385TIP3    H158032   6.102   4.439   7.249
19385TIP3    H258033   5.994   4.469   7.351
19386TIP3   OH258034   7.214   5.110   7.925
19386TIP3    H158035   7.244   5.042   7.865
19386TIP3    H258036   7.181   5.062   8.001
19387TIP3   OH258037   6.878   4.571   7.597
19387TIP3    H158038   6.794   4.571   7.644
19387TIP3    H258039   6.944   4.575   7.666
19388TIP3   OH258040   6.312   4.629   7.602
19388TIP3    H158041   6.220   4.641   7.577
19388TIP3    H258042   6.332   4.539   7.579
19389TIP3   OH258043   6.584   4.624   7.290
19389TIP3    H158044   6.676   4.643   7.268
19389TIP3    H258045   6.536   4.648   7.211
19390TIP3   OH258046   7.369   4.647   7.797
19390TIP3    H158047   7.338   4.662   7.887
19390TIP3    H258048   7.305   4.588   7.759
19391TIP3   OH258049   6.425   4.656   7.070
19391TIP3    H158050   6.350   4.615   7.027
19391TIP3    H258051   6.476   4.693   6.997
19392TIP3   OH258052   7.541   6.338   8.016
19392TIP3    H158053   7.537   6.363   7.923
19392TIP3    H258054   7.617   6.385   8.049
19393TIP3   OH258055   3.234   0.825   0.442
19393TIP3    H158056   3.312   0.859   0.485
19393TIP3    H258057   3.166   0.827   0.509
19394TIP3   OH258058   6.963   4.899   7.694
19394TIP3    H158059   7.036   4.861   7.644
19394TIP3    H258060   6.971   4.861   7.781
19395TIP3   OH258061   6.489   4.387   7.571
19395TIP3    H158062   6.452   4.311   7.616
19395TIP3    H258063   6.533   4.351   7.494
19396TIP3   OH258064   3.672   0.178  -0.017
19396TIP3    H158065   3.583   0.213  -0.006
19396TIP3    H258066   3.728   0.240   0.031
19397TIP3   OH258067   6.676   5.188   7.081
19397TIP3    H158068   6.606   5.124   7.066
19397TIP3    H258069   6.659   5.223   7.168
19398TIP3   OH258070   7.575   5.425   7.706
19398TIP3    H158071   7.598   5.474   7.627
19398TIP3    H258072   7.491   5.384   7.685
19399TIP3   OH258073   7.133   4.503   6.937
19399TIP3    H158074   7.039   4.486   6.946
19399TIP3    H258075   7.143   4.595   6.962
19400TIP3   OH258076   3.815   0.892   0.073
19400TIP3    H158077   3.824   0.865   0.164
19400TIP3    H258078   3.769   0.976   0.078
19401TIP3   OH258079   7.205   4.749   7.042
19401TIP3    H158080   7.299   4.755   7.058
19401TIP3    H258081   7.184   4.827   6.991
19402TIP3   OH258082   6.370   5.205   7.752
19402TIP3    H158083   6.406   5.179   7.668
19402TIP3    H258084   6.404   5.141   7.814
19403TIP3   OH258085   6.818   5.340   6.899
19403TIP3    H158086   6.774   5.425   6.903
19403TIP3    H258087   6.766   5.284   6.957
19404TIP3   OH258088   2.983   0.505   0.365
19404TIP3    H158089   2.999   0.496   0.458
19404TIP3    H258090   2.909   0.447   0.347
19405TIP3   OH258091   3.706   0.623   0.385
19405TIP3    H158092   3.644   0.568   0.337
19405TIP3    H258093   3.792   0.592   0.355
19406TIP3   OH258094   7.236   5.770   7.970
19406TIP3    H158095   7.141   5.763   7.981
19406TIP3    H258096   7.265   5.819   8.047
19407TIP3   OH258097   7.645   4.839   6.875
19407TIP3    H158098   7.584   4.791   6.818
19407TIP3    H258099   7.645   4.928   6.840
19408TIP3   OH258100   7.862   5.695   7.957
19408TIP3    H158101   7.767   5.692   7.953
19408TIP3    H258102   7.890   5.666   7.870
19409TIP3   OH258103   7.351   5.657   6.788
19409TIP3    H158104   7.318   5.591   6.850
19409TIP3    H258105   7.357   5.610   6.705
19410TIP3   OH258106   7.341   5.284   7.626
19410TIP3    H158107   7.249   5.264   7.641
19410TIP3    H258108   7.376   5.208   7.580
19411TIP3   OH258109   6.464   5.514   7.369
19411TIP3    H158110   6.466   5.596   7.321
19411TIP3    H258111   6.373   5.504   7.397
19412TIP3   OH258112   6.031   4.821   7.083
19412TIP3    H158113   6.077   4.903   7.102
19412TIP3    H258114   5.955   4.823   7.141
19413TIP3   OH258115   6.609   5.283   7.325
19413TIP3    H158116   6.572   5.370   7.337
19413TIP3    H258117   6.573   5.230   7.396
19414TIP3   OH258118   6.740   5.862   7.864
19414TIP3    H158119   6.771   5.923   7.797
19414TIP3    H258120   6.819   5.827   7.904
19415TIP3   OH258121   6.391   5.754   7.226
19415TIP3    H158122   6.312   5.748   7.280
19415TIP3    H258123   6.416   5.846   7.229
19416TIP3   OH258124   7.129   5.491   7.808
19416TIP3    H158125   7.117   5.493   7.903
19416TIP3    H258126   7.207   5.438   7.794
19417TIP3   OH258127   7.099   5.385   6.690
19417TIP3    H158128   7.152   5.361   6.766
19417TIP3    H258129   7.009   5.361   6.715
19418TIP3   OH258130   7.374   6.026   7.854
19418TIP3    H158131   7.298   5.969   7.852
19418TIP3    H258132   7.359   6.090   7.785
19419TIP3   OH258133   7.439   5.863   6.508
19419TIP3    H158134   7.476   5.931   6.451
19419TIP3    H258135   7.360   5.903   6.545
19420TIP3   OH258136   9.725   9.255   0.375
19420TIP3    H158137   9.630   9.262   0.385
19420TIP3    H258138   9.752   9.196   0.445
19421TIP3   OH258139   7.262   5.316   6.903
19421TIP3    H158140   7.247   5.254   6.976
19421TIP3    H258141   7.357   5.317   6.892
19422TIP3   OH258142   2.891   1.089   0.039
19422TIP3    H158143   2.958   1.021   0.036
19422TIP3    H258144   2.940   1.169   0.059
19423TIP3   OH258145   6.468   5.364   6.688
19423TIP3    H158146   6.480   5.274   6.659
19423TIP3    H258147   6.450   5.357   6.782
19424TIP3   OH258148   6.415   5.373   6.959
19424TIP3    H158149   6.477   5.344   7.026
19424TIP3    H258150   6.415   5.468   6.965
19425TIP3   OH258151   6.148   5.069   7.163
19425TIP3    H158152   6.084   5.107   7.222
19425TIP3    H258153   6.162   5.136   7.096
19426TIP3   OH258154   4.032   0.079   0.054
19426TIP3    H158155   4.109   0.119   0.095
19426TIP3    H258156   4.015   0.001   0.106
19427TIP3   OH258157   7.179   4.454   7.218
19427TIP3    H158158   7.163   4.476   7.127
19427TIP3    H258159   7.216   4.534   7.256
19428TIP3   OH258160   6.677   5.572   6.908
19428TIP3    H158161   6.592   5.593   6.947
19428TIP3    H258162   6.693   5.644   6.846
19429TIP3   OH258163   6.870   4.631   7.323
19429TIP3    H158164   6.931   4.703   7.305
19429TIP3    H258165   6.871   4.625   7.419
19430TIP3   OH258166   3.869   0.332   0.130
19430TIP3    H158167   3.886   0.387   0.206
19430TIP3    H258168   3.923   0.254   0.145
19431TIP3   OH258169   7.013   4.362   7.426
19431TIP3    H158170   7.001   4.437   7.485
19431TIP3    H258171   7.071   4.396   7.357
19432TIP3   OH258172   6.421   5.646   6.976
19432TIP3    H158173   6.389   5.713   6.915
19432TIP3    H258174   6.406   5.684   7.062
19433TIP3   OH258175   6.525   4.359   7.216
19433TIP3    H158176   6.516   4.448   7.250
19433TIP3    H258177   6.619   4.339   7.223
19434TIP3   OH258178   4.509   0.231   0.107
19434TIP3    H158179   4.414   0.232   0.119
19434TIP3    H258180   4.521   0.189   0.022
19435TIP3   OH258181   7.427   5.044   7.499
19435TIP3    H158182   7.351   4.988   7.511
19435TIP3    H258183   7.497   4.999   7.546
19436TIP3   OH258184   6.141   5.275   6.968
19436TIP3    H158185   6.199   5.350   6.982
19436TIP3    H258186   6.185   5.222   6.902
19437TIP3   OH258187   6.082   4.551   7.097
19437TIP3    H158188   6.083   4.646   7.097
19437TIP3    H258189   5.992   4.528   7.073
19438TIP3   OH258190   7.397   6.003   7.447
19438TIP3    H158191   7.351   6.047   7.376
19438TIP3    H258192   7.490   6.017   7.427
19439TIP3   OH258193   6.473   4.268   7.976
19439TIP3    H158194   6.440   4.239   7.890
19439TIP3    H258195   6.461   4.192   8.033
19440TIP3   OH258196   6.001   5.470   7.358
19440TIP3    H158197   5.940   5.514   7.418
19440TIP3    H258198   5.996   5.521   7.277
19441TIP3   OH258199   2.900   1.408   0.428
19441TIP3    H158200   2.985   1.408   0.473
19441TIP3    H258201   2.876   1.315   0.424
19442TIP3   OH258202   3.385   1.375   0.468
19442TIP3    H158203   3.478   1.355   0.476
19442TIP3    H258204   3.354   1.318   0.398
19443TIP3   OH258205   6.630   5.567   6.600
19443TIP3    H158206   6.572   5.501   6.639
19443TIP3    H258207   6.706   5.517   6.569
19444TIP3   OH258208   4.024   1.280   0.204
19444TIP3    H158209   4.013   1.212   0.271
19444TIP3    H258210   4.098   1.332   0.236
19445TIP3   OH258211   7.068   5.611   6.512
19445TIP3    H158212   7.109   5.546   6.570
19445TIP3    H258213   7.122   5.610   6.434
19446TIP3   OH258214   3.029   0.810   0.625
19446TIP3    H158215   3.045   0.716   0.628
19446TIP3    H258216   2.943   0.819   0.584
19447TIP3   OH258217   6.278   5.088   6.819
19447TIP3    H158218   6.326   5.055   6.895
19447TIP3    H258219   6.343   5.093   6.749
19448TIP3   OH258220   3.641   0.900   0.397
19448TIP3    H158221   3.595   0.919   0.315
19448TIP3    H258222   3.667   0.809   0.390
19449TIP3   OH258223   6.786   5.284   6.630
19449TIP3    H158224   6.785   5.300   6.724
19449TIP3    H258225   6.782   5.189   6.622
19450TIP3   OH258226   7.399   5.528   8.008
19450TIP3    H158227   7.471   5.576   7.965
19450TIP3    H258228   7.323   5.586   7.999
19451TIP3   OH258229   3.150   0.547   0.613
19451TIP3    H158230   3.226   0.496   0.587
19451TIP3    H258231   3.173   0.584   0.698
19452TIP3   OH258232   6.486   4.989   7.046
19452TIP3    H158233   6.453   4.953   7.128
19452TIP3    H258234   6.518   4.913   6.997
19453TIP3   OH258235   3.487   0.439   0.272
19453TIP3    H158236   3.408   0.492   0.276
19453TIP3    H258237   3.532   0.469   0.193
19454TIP3   OH258238   6.583   4.781   6.883
19454TIP3    H158239   6.554   4.787   6.792
19454TIP3    H258240   6.679   4.790   6.878
19455TIP3   OH258241   4.002   0.836   0.407
19455TIP3    H158242   4.080   0.815   0.356
19455TIP3    H258243   3.998   0.769   0.474
19456TIP3   OH258244   7.406   5.117   6.543
19456TIP3    H158245   7.385   5.068   6.464
19456TIP3    H258246   7.375   5.206   6.525
19457TIP3   OH258247   3.610   0.223   0.394
19457TIP3    H158248   3.607   0.144   0.340
19457TIP3    H258249   3.566   0.290   0.340
19458TIP3   OH258250   3.609   0.009   0.202
19458TIP3    H158251   3.638   0.051   0.120
19458TIP3    H258252   3.517  -0.014   0.186
19459TIP3   OH258253   3.640   0.549   0.076
19459TIP3    H158254   3.721   0.557   0.025
19459TIP3    H258255   3.580   0.611   0.035
19460TIP3   OH258256   4.224   0.512   0.460
19460TIP3    H158257   4.270   0.428   0.465
19460TIP3    H258258   4.288   0.573   0.424
19461TIP3   OH258259   4.263   0.767   0.193
19461TIP3    H158260   4.202   0.816   0.138
19461TIP3    H258261   4.349   0.784   0.156
19462TIP3   OH258262   3.488   0.333   0.627
19462TIP3    H158263   3.418   0.269   0.641
19462TIP3    H258264   3.521   0.313   0.539
19463TIP3   OH258265   0.474   9.013   0.270
19463TIP3    H158266   0.429   9.095   0.248
19463TIP3    H258267   0.407   8.945   0.259
19464TIP3   OH258268   3.866   0.276   0.488
19464TIP3    H158269   3.856   0.268   0.583
19464TIP3    H258270   3.780   0.255   0.452
19465TIP3   OH258271   4.108   0.226   0.343
19465TIP3    H158272   4.032   0.229   0.401
19465TIP3    H258273   4.180   0.196   0.399
19466TIP3   OH258274   4.340   0.167   0.496
19466TIP3    H158275   4.350   0.073   0.512
19466TIP3    H258276   4.334   0.206   0.583
19467TIP3   OH258277   3.325   0.114   0.680
19467TIP3    H158278   3.331   0.027   0.642
19467TIP3    H258279   3.359   0.104   0.769
19468TIP3   OH258280   0.571   9.020   0.526
19468TIP3    H158281   0.639   8.952   0.523
19468TIP3    H258282   0.530   9.018   0.440
19469TIP3   OH258283   0.635   9.237   0.686
19469TIP3    H158284   0.614   9.167   0.623
19469TIP3    H258285   0.560   9.296   0.681
19470TIP3   OH258286   6.391   5.849   6.786
19470TIP3    H158287   6.486   5.842   6.771
19470TIP3    H258288   6.358   5.896   6.709
19471TIP3   OH258289   5.870   5.230   6.998
19471TIP3    H158290   5.963   5.252   6.992
19471TIP3    H258291   5.864   5.141   6.962
19472TIP3   OH258292   5.780   5.838   7.422
19472TIP3    H158293   5.716   5.778   7.386
19472TIP3    H258294   5.829   5.786   7.486
19473TIP3   OH258295   5.929   5.694   7.601
19473TIP3    H158296   5.921   5.628   7.670
19473TIP3    H258297   5.985   5.762   7.638
19474TIP3   OH258298   7.653   6.088   7.405
19474TIP3    H158299   7.670   6.118   7.494
19474TIP3    H258300   7.702   6.149   7.349
19475TIP3   OH258301   7.680   6.108   7.685
19475TIP3    H158302   7.632   6.026   7.681
19475TIP3    H258303   7.749   6.092   7.750
19476TIP3   OH258304   4.457   1.170   0.259
19476TIP3    H158305   4.384   1.177   0.321
19476TIP3    H258306   4.498   1.256   0.262
19477TIP3   OH258307   7.543   5.302   6.882
19477TIP3    H158308   7.608   5.366   6.854
19477TIP3    H258309   7.581   5.262   6.960
19478TIP3   OH258310   7.668   5.170   7.087
19478TIP3    H158311   7.601   5.127   7.141
19478TIP3    H258312   7.729   5.209   7.149
19479TIP3   OH258313   7.724   5.563   7.517
19479TIP3    H158314   7.773   5.497   7.468
19479TIP3    H258315   7.708   5.633   7.454
19480TIP3   OH258316   7.551   5.864   7.711
19480TIP3    H158317   7.483   5.905   7.764
19480TIP3    H258318   7.503   5.815   7.643
19481TIP3   OH258319   7.603   5.080   6.730
19481TIP3    H158320   7.536   5.078   6.662
19481TIP3    H258321   7.579   5.153   6.787
19482TIP3   OH258322   7.478   4.748   6.683
19482TIP3    H158323   7.433   4.791   6.610
19482TIP3    H258324   7.453   4.656   6.676
19483TIP3   OH258325   7.483   5.025   7.233
19483TIP3    H158326   7.489   4.930   7.225
19483TIP3    H258327   7.468   5.040   7.326
19484TIP3   OH258328   6.111   5.094   7.978
19484TIP3    H158329   6.104   5.068   7.886
19484TIP3    H258330   6.205   5.099   7.994
19485TIP3   OH258331   4.506   0.831   0.086
19485TIP3    H158332   4.576   0.767   0.077
19485TIP3    H258333   4.529   0.900   0.024
19486TIP3   OH258334   4.691   0.634   0.104
19486TIP3    H158335   4.615   0.589   0.141
19486TIP3    H258336   4.763   0.574   0.117
19487TIP3   OH258337   7.421   4.483   6.672
19487TIP3    H158338   7.494   4.454   6.726
19487TIP3    H258339   7.348   4.427   6.697
19488TIP3   OH258340   7.480   4.740   7.126
19488TIP3    H158341   7.517   4.653   7.143
19488TIP3    H258342   7.535   4.776   7.056
19489TIP3   OH258343   7.643   4.918   7.622
19489TIP3    H158344   7.725   4.942   7.580
19489TIP3    H258345   7.650   4.952   7.711
19490TIP3   OH258346   7.707   5.062   7.853
19490TIP3    H158347   7.630   5.093   7.901
19490TIP3    H258348   7.740   5.141   7.809
19491TIP3   OH258349   3.059   0.164   0.652
19491TIP3    H158350   3.155   0.161   0.651
19491TIP3    H258351   3.033   0.081   0.692
19492TIP3   OH258352   4.893   0.031   0.406
19492TIP3    H158353   4.951  -0.035   0.367
19492TIP3    H258354   4.865   0.085   0.332
19493TIP3   OH258355   7.587   4.490   7.165
19493TIP3    H158356   7.635   4.477   7.246
19493TIP3    H258357   7.526   4.416   7.161
19494TIP3   OH258358   6.291   4.477   7.981
19494TIP3    H158359   6.352   4.404   7.992
19494TIP3    H258360   6.348   4.554   7.977
19495TIP3   OH258361   2.827   0.132   0.057
19495TIP3    H158362   2.871   0.125  -0.028
19495TIP3    H258363   2.845   0.222   0.085
19496TIP3   OH258364   4.762   0.171   0.212
19496TIP3    H158365   4.678   0.213   0.233
19496TIP3    H258366   4.739   0.099   0.154
19497TIP3   OH258367   7.669   4.428   6.794
19497TIP3    H158368   7.707   4.356   6.745
19497TIP3    H258369   7.735   4.497   6.789
19498TIP3   OH258370   6.072   4.255   7.555
19498TIP3    H158371   5.981   4.252   7.584
19498TIP3    H258372   6.070   4.313   7.479
19499TIP3   OH258373   7.234   5.959   7.061
19499TIP3    H158374   7.283   5.944   6.980
19499TIP3    H258375   7.284   6.027   7.107
19500TIP3   OH258376   9.557   8.954   0.369
19500TIP3    H158377   9.510   8.950   0.452
19500TIP3    H258378   9.496   8.994   0.308
19501TIP3   OH258379   3.067   1.141   0.452
19501TIP3    H158380   2.978   1.116   0.428
19501TIP3    H258381   3.072   1.124   0.546
19502TIP3   OH258382   6.507   5.799   7.996
19502TIP3    H158383   6.450   5.863   7.952
19502TIP3    H258384   6.593   5.813   7.957
19503TIP3   OH258385   3.693   1.420   0.132
19503TIP3    H158386   3.730   1.421   0.220
19503TIP3    H258387   3.755   1.471   0.080
19504TIP3   OH258388   7.138   6.192   7.992
19504TIP3    H158389   7.206   6.138   7.952
19504TIP3    H258390   7.184   6.249   8.053
19505TIP3   OH258391   1.395   9.171   0.091
19505TIP3    H158392   1.305   9.168   0.057
19505TIP3    H258393   1.428   9.082   0.080
19506TIP3   OH258394   2.931   1.434   0.027
19506TIP3    H158395   2.851   1.463  -0.018
19506TIP3    H258396   2.917   1.458   0.118
19507TIP3   OH258397   6.409   6.038   7.850
19507TIP3    H158398   6.345   6.055   7.919
19507TIP3    H258399   6.356   6.020   7.772
19508TIP3   OH258400   6.855   6.063   7.670
19508TIP3    H158401   6.782   6.074   7.609
19508TIP3    H258402   6.862   6.147   7.715
19509TIP3   OH258403   7.118   6.001   7.724
19509TIP3    H158404   7.025   6.012   7.708
19509TIP3    H258405   7.159   6.079   7.685
19510TIP3   OH258406   7.333   6.195   7.641
19510TIP3    H158407   7.314   6.277   7.595
19510TIP3    H258408   7.352   6.132   7.571
19511TIP3   OH258409   6.590   5.832   7.604
19511TIP3    H158410   6.578   5.738   7.589
19511TIP3    H258411   6.578   5.843   7.698
19512TIP3   OH258412   7.137   4.469   7.713
19512TIP3    H158413   7.091   4.402   7.764
19512TIP3    H258414   7.206   4.421   7.667
19513TIP3   OH258415   7.658   4.349   7.615
19513TIP3    H158416   7.695   4.400   7.543
19513TIP3    H258417   7.564   4.367   7.610
19514TIP3   OH258418   7.755   4.452   7.379
19514TIP3    H158419   7.825   4.398   7.341
19514TIP3    H258420   7.785   4.542   7.367
19515TIP3   OH258421   6.383   4.175   7.728
19515TIP3    H158422   6.291   4.148   7.728
19515TIP3    H258423   6.432   4.093   7.723
19516TIP3   OH258424   6.175   4.049   7.375
19516TIP3    H158425   6.198   4.106   7.302
19516TIP3    H258426   6.139   4.108   7.441
19517TIP3   OH258427   6.830   4.208   7.608
19517TIP3    H158428   6.885   4.259   7.549
19517TIP3    H258429   6.841   4.249   7.694
19518TIP3   OH258430   7.376   4.354   7.592
19518TIP3    H158431   7.370   4.321   7.503
19518TIP3    H258432   7.361   4.276   7.647
19519TIP3   OH258433   7.401   4.278   7.155
19519TIP3    H158434   7.318   4.323   7.165
19519TIP3    H258435   7.389   4.195   7.200
19520TIP3   OH258436   5.890   5.617   7.152
19520TIP3    H158437   5.806   5.584   7.121
19520TIP3    H258438   5.880   5.712   7.150
19521TIP3   OH258439   6.288   4.205   7.140
19521TIP3    H158440   6.335   4.146   7.081
19521TIP3    H258441   6.355   4.261   7.177
19522TIP3   OH258442   6.802   4.382   7.240
19522TIP3    H158443   6.860   4.334   7.299
19522TIP3    H258444   6.818   4.474   7.260
19523TIP3   OH258445   6.660   5.807   6.733
19523TIP3    H158446   6.747   5.830   6.701
19523TIP3    H258447   6.634   5.732   6.678
19524TIP3   OH258448   7.380   5.924   6.828
19524TIP3    H158449   7.373   5.829   6.819
19524TIP3    H258450   7.333   5.958   6.752
19525TIP3   OH258451   0.059   9.076   0.619
19525TIP3    H158452   0.022   9.008   0.675
19525TIP3    H258453   0.152   9.080   0.643
19526TIP3   OH258454   0.308   9.074   0.738
19526TIP3    H158455   0.391   9.052   0.696
19526TIP3    H258456   0.294   9.005   0.802
19527TIP3   OH258457   5.965   5.648   6.797
19527TIP3    H158458   5.959   5.665   6.891
19527TIP3    H258459   6.050   5.605   6.786
19528TIP3   OH258460   1.134   9.136   0.525
19528TIP3    H158461   1.151   9.105   0.614
19528TIP3    H258462   1.219   9.132   0.481
19529TIP3   OH258463   7.605   6.071   8.013
19529TIP3    H158464   7.528   6.035   7.970
19529TIP3    H258465   7.586   6.165   8.022
19530TIP3   OH258466   8.869   5.446   6.782
19530TIP3    H158467   8.840   5.535   6.763
19530TIP3    H258468   8.795   5.391   6.756
19531TIP3   OH258469   8.870   5.439   7.165
19531TIP3    H158470   8.899   5.414   7.252
19531TIP3    H258471   8.828   5.361   7.129
19532TIP3   OH258472   8.171   5.336   7.529
19532TIP3    H158473   8.197   5.268   7.592
19532TIP3    H258474   8.246   5.395   7.526
19533TIP3   OH258475   9.118   5.726   6.843
19533TIP3    H158476   9.095   5.671   6.918
19533TIP3    H258477   9.151   5.807   6.882
19534TIP3   OH258478   8.142   5.742   7.256
19534TIP3    H158479   8.127   5.648   7.258
19534TIP3    H258480   8.237   5.752   7.253
19535TIP3   OH258481   7.845   4.953   7.040
19535TIP3    H158482   7.798   5.035   7.056
19535TIP3    H258483   7.779   4.894   7.005
19536TIP3   OH258484   7.910   5.237   7.212
19536TIP3    H158485   7.954   5.161   7.250
19536TIP3    H258486   7.962   5.258   7.135
19537TIP3   OH258487   8.776   6.171   6.849
19537TIP3    H158488   8.843   6.107   6.824
19537TIP3    H258489   8.782   6.177   6.944
19538TIP3   OH258490   8.673   5.668   7.211
19538TIP3    H158491   8.702   5.589   7.165
19538TIP3    H258492   8.755   5.711   7.237
19539TIP3   OH258493   9.668   4.999   7.201
19539TIP3    H158494   9.707   5.068   7.255
19539TIP3    H258495   9.720   4.999   7.121
19540TIP3   OH258496   9.092   5.176   7.236
19540TIP3    H158497   9.121   5.089   7.263
19540TIP3    H258498   9.056   5.163   7.148
19541TIP3   OH258499   8.415   4.828   7.209
19541TIP3    H158500   8.397   4.901   7.149
19541TIP3    H258501   8.371   4.753   7.169
19542TIP3   OH258502   9.114   4.921   6.833
19542TIP3    H158503   9.181   4.901   6.898
19542TIP3    H258504   9.162   4.959   6.759
19543TIP3   OH258505   8.054   5.028   7.317
19543TIP3    H158506   8.134   5.010   7.366
19543TIP3    H258507   8.061   4.974   7.239
19544TIP3   OH258508   8.494   5.226   7.109
19544TIP3    H158509   8.585   5.203   7.124
19544TIP3    H258510   8.453   5.145   7.079
19545TIP3   OH258511   9.749   5.198   7.376
19545TIP3    H158512   9.662   5.238   7.372
19545TIP3    H258513   9.784   5.226   7.461
19546TIP3   OH258514   8.413   4.813   7.646
19546TIP3    H158515   8.355   4.847   7.577
19546TIP3    H258516   8.365   4.827   7.727
19547TIP3   OH258517   8.763   5.668   6.652
19547TIP3    H158518   8.718   5.640   6.572
19547TIP3    H258519   8.727   5.754   6.671
19548TIP3   OH258520   8.522   5.588   7.441
19548TIP3    H158521   8.457   5.647   7.480
19548TIP3    H258522   8.562   5.640   7.371
19549TIP3   OH258523   9.322   4.912   7.004
19549TIP3    H158524   9.307   4.864   7.085
19549TIP3    H258525   9.373   4.989   7.031
19550TIP3   OH258526   8.288   4.927   7.429
19550TIP3    H158527   8.347   4.998   7.454
19550TIP3    H258528   8.332   4.884   7.355
19551TIP3   OH258529   8.343   5.775   7.541
19551TIP3    H158530   8.313   5.857   7.501
19551TIP3    H258531   8.272   5.750   7.601
19552TIP3   OH258532   7.746   5.471   6.773
19552TIP3    H158533   7.701   5.494   6.692
19552TIP3    H258534   7.773   5.555   6.810
19553TIP3   OH258535   9.193   5.978   7.060
19553TIP3    H158536   9.099   5.980   7.074
19553TIP3    H258537   9.205   6.005   6.970
19554TIP3   OH258538   9.472   4.889   7.377
19554TIP3    H158539   9.383   4.914   7.350
19554TIP3    H258540   9.528   4.920   7.305
19555TIP3   OH258541   8.770   4.528   7.361
19555TIP3    H158542   8.761   4.434   7.379
19555TIP3    H258543   8.695   4.568   7.405
19556TIP3   OH258544   8.932   6.055   6.530
19556TIP3    H158545   8.970   5.968   6.539
19556TIP3    H258546   8.988   6.111   6.585
19557TIP3   OH258547   9.038   5.814   6.590
19557TIP3    H158548   8.987   5.742   6.555
19557TIP3    H258549   9.066   5.784   6.677
19558TIP3   OH258550   9.405   5.906   7.358
19558TIP3    H158551   9.400   5.828   7.303
19558TIP3    H258552   9.394   5.979   7.297
19559TIP3   OH258553   8.700   5.295   6.612
19559TIP3    H158554   8.620   5.343   6.594
19559TIP3    H258555   8.744   5.290   6.527
19560TIP3   OH258556   8.663   5.077   6.332
19560TIP3    H158557   8.728   5.128   6.381
19560TIP3    H258558   8.714   5.012   6.285
19561TIP3   OH258559   9.598   5.531   7.188
19561TIP3    H158560   9.527   5.590   7.211
19561TIP3    H258561   9.644   5.575   7.117
19562TIP3   OH258562   9.045   5.374   6.593
19562TIP3    H158563   8.985   5.411   6.658
19562TIP3    H258564   9.108   5.323   6.644
19563TIP3   OH258565   9.281   5.416   7.497
19563TIP3    H158566   9.287   5.494   7.552
19563TIP3    H258567   9.194   5.420   7.459
19564TIP3   OH258568   8.283   5.373   7.000
19564TIP3    H158569   8.238   5.317   6.937
19564TIP3    H258570   8.356   5.320   7.031
19565TIP3   OH258571   8.413   5.780   7.163
19565TIP3    H158572   8.387   5.751   7.075
19565TIP3    H258573   8.502   5.747   7.174
19566TIP3   OH258574   8.422   5.343   7.357
19566TIP3    H158575   8.451   5.322   7.268
19566TIP3    H258576   8.461   5.428   7.376
19567TIP3   OH258577   8.932   5.984   7.133
19567TIP3    H158578   8.921   6.061   7.188
19567TIP3    H258579   8.924   5.910   7.193
19568TIP3   OH258580   8.548   5.909   7.674
19568TIP3    H158581   8.494   5.965   7.730
19568TIP3    H258582   8.486   5.849   7.634
19569TIP3   OH258583   8.893   5.235   6.410
19569TIP3    H158584   8.946   5.294   6.462
19569TIP3    H258585   8.915   5.256   6.319
19570TIP3   OH258586   8.305   5.463   7.780
19570TIP3    H158587   8.312   5.546   7.828
19570TIP3    H258588   8.213   5.438   7.790
19571TIP3   OH258589   8.643   5.930   6.686
19571TIP3    H158590   8.665   6.005   6.742
19571TIP3    H258591   8.568   5.959   6.635
19572TIP3   OH258592   8.342   6.073   7.773
19572TIP3    H158593   8.304   6.061   7.686
19572TIP3    H258594   8.270   6.051   7.833
19573TIP3   OH258595   9.402   4.477   6.461
19573TIP3    H158596   9.323   4.491   6.513
19573TIP3    H258597   9.415   4.558   6.413
19574TIP3   OH258598   8.144   5.217   6.808
19574TIP3    H158599   8.080   5.261   6.752
19574TIP3    H258600   8.108   5.130   6.823
19575TIP3   OH258601   9.205   5.843   6.008
19575TIP3    H158602   9.212   5.938   5.994
19575TIP3    H258603   9.295   5.811   6.000
19576TIP3   OH258604   7.929   5.598   7.714
19576TIP3    H158605   7.862   5.578   7.649
19576TIP3    H258606   7.965   5.513   7.739
19577TIP3   OH258607   7.781   5.797   7.344
19577TIP3    H158608   7.876   5.791   7.346
19577TIP3    H258609   7.761   5.873   7.399
19578TIP3   OH258610   8.759   6.028   7.544
19578TIP3    H158611   8.754   6.121   7.566
19578TIP3    H258612   8.684   5.988   7.588
19579TIP3   OH258613   8.480   6.156   6.502
19579TIP3    H158614   8.447   6.140   6.414
19579TIP3    H258615   8.468   6.250   6.515
19580TIP3   OH258616   7.953   6.008   6.876
19580TIP3    H158617   7.996   5.997   6.961
19580TIP3    H258618   7.893   5.933   6.870
19581TIP3   OH258619   8.711   6.057   6.114
19581TIP3    H158620   8.772   5.990   6.085
19581TIP3    H258621   8.731   6.070   6.207
19582TIP3   OH258622   8.723   6.119   6.377
19582TIP3    H158623   8.646   6.111   6.434
19582TIP3    H258624   8.795   6.086   6.431
19583TIP3   OH258625   9.547   5.379   7.652
19583TIP3    H158626   9.455   5.389   7.627
19583TIP3    H258627   9.558   5.285   7.666
19584TIP3   OH258628   8.132   5.782   7.708
19584TIP3    H158629   8.181   5.768   7.789
19584TIP3    H258630   8.060   5.719   7.712
19585TIP3   OH258631   8.529   4.609   7.486
19585TIP3    H158632   8.445   4.573   7.459
19585TIP3    H258633   8.507   4.689   7.535
19586TIP3   OH258634   9.065   4.723   7.684
19586TIP3    H158635   9.132   4.694   7.746
19586TIP3    H258636   8.982   4.702   7.726
19587TIP3   OH258637   9.306   5.153   7.603
19587TIP3    H158638   9.258   5.146   7.685
19587TIP3    H258639   9.279   5.238   7.567
19588TIP3   OH258640   8.968   5.281   6.155
19588TIP3    H158641   8.931   5.255   6.071
19588TIP3    H258642   9.046   5.332   6.132
19589TIP3   OH258643   8.678   4.654   6.461
19589TIP3    H158644   8.647   4.655   6.551
19589TIP3    H258645   8.641   4.574   6.423
19590TIP3   OH258646   8.464   5.123   7.509
19590TIP3    H158647   8.414   5.141   7.588
19590TIP3    H258648   8.450   5.200   7.454
19591TIP3   OH258649   8.345   5.008   7.018
19591TIP3    H158650   8.255   4.983   7.039
19591TIP3    H258651   8.361   4.969   6.933
19592TIP3   OH258652   8.840   5.098   6.745
19592TIP3    H158653   8.785   5.165   6.705
19592TIP3    H258654   8.891   5.062   6.672
19593TIP3   OH258655   9.013   5.372   7.836
19593TIP3    H158656   8.990   5.301   7.896
19593TIP3    H258657   9.105   5.391   7.855
19594TIP3   OH258658   8.982   5.114   6.989
19594TIP3    H158659   8.927   5.146   6.917
19594TIP3    H258660   9.028   5.039   6.951
19595TIP3   OH258661   8.283   5.150   7.717
19595TIP3    H158662   8.308   5.212   7.785
19595TIP3    H258663   8.270   5.068   7.764
19596TIP3   OH258664   8.332   4.630   6.426
19596TIP3    H158665   8.327   4.624   6.521
19596TIP3    H258666   8.254   4.679   6.400
19597TIP3   OH258667   7.877   4.675   7.294
19597TIP3    H158668   7.951   4.704   7.347
19597TIP3    H258669   7.917   4.638   7.215
19598TIP3   OH258670   7.851   4.657   6.814
19598TIP3    H158671   7.897   4.692   6.737
19598TIP3    H258672   7.789   4.726   6.837
19599TIP3   OH258673   9.010   5.368   7.409
19599TIP3    H158674   9.041   5.299   7.351
19599TIP3    H258675   8.979   5.322   7.487
19600TIP3   OH258676   8.675   4.835   7.084
19600TIP3    H158677   8.592   4.828   7.132
19600TIP3    H258678   8.742   4.828   7.151
19601TIP3   OH258679   8.109   4.884   7.089
19601TIP3    H158680   8.017   4.892   7.063
19601TIP3    H258681   8.133   4.794   7.068
19602TIP3   OH258682   8.380   4.884   6.778
19602TIP3    H158683   8.472   4.897   6.756
19602TIP3    H258684   8.333   4.905   6.697
19603TIP3   OH258685   9.165   4.907   7.283
19603TIP3    H158686   9.135   4.920   7.373
19603TIP3    H258687   9.102   4.846   7.246
19604TIP3   OH258688   8.219   4.918   6.556
19604TIP3    H158689   8.146   4.872   6.514
19604TIP3    H258690   8.271   4.951   6.483
19605TIP3   OH258691   8.296   5.708   7.928
19605TIP3    H158692   8.375   5.735   7.974
19605TIP3    H258693   8.229   5.703   7.996
19606TIP3   OH258694   8.760   5.161   7.182
19606TIP3    H158695   8.830   5.122   7.130
19606TIP3    H258696   8.765   5.116   7.267
19607TIP3   OH258697   8.282   4.643   7.057
19607TIP3    H158698   8.248   4.568   7.106
19607TIP3    H258699   8.338   4.605   6.990
19608TIP3   OH258700   8.735   5.058   7.466
19608TIP3    H158701   8.646   5.089   7.482
19608TIP3    H258702   8.791   5.115   7.519
19609TIP3   OH258703   8.469   5.446   6.567
19609TIP3    H158704   8.401   5.381   6.553
19609TIP3    H258705   8.453   5.480   6.655
19610TIP3   OH258706   9.374   5.682   7.188
19610TIP3    H158707   9.394   5.736   7.111
19610TIP3    H258708   9.284   5.653   7.174
19611TIP3   OH258709   8.927   4.761   6.422
19611TIP3    H158710   8.835   4.740   6.434
19611TIP3    H258711   8.936   4.852   6.451
19612TIP3   OH258712   8.873   5.766   7.561
19612TIP3    H158713   8.897   5.735   7.649
19612TIP3    H258714   8.833   5.851   7.576
19613TIP3   OH258715   8.998   5.006   6.529
19613TIP3    H158716   9.093   5.007   6.545
19613TIP3    H258717   8.982   5.084   6.476
19614TIP3   OH258718   8.168   5.470   7.240
19614TIP3    H158719   8.203   5.440   7.157
19614TIP3    H258720   8.198   5.405   7.304
19615TIP3   OH258721   8.614   5.598   6.388
19615TIP3    H158722   8.571   5.683   6.393
19615TIP3    H258723   8.563   5.541   6.445
19616TIP3   OH258724   8.044   5.387   7.853
19616TIP3    H158725   8.064   5.375   7.946
19616TIP3    H258726   7.975   5.323   7.835
19617TIP3   OH258727   8.770   5.501   7.872
19617TIP3    H158728   8.709   5.443   7.827
19617TIP3    H258729   8.857   5.470   7.846
19618TIP3   OH258730   9.027   6.034   7.449
19618TIP3    H158731   8.934   6.021   7.470
19618TIP3    H258732   9.064   6.074   7.528
19619TIP3   OH258733   9.444   5.100   6.359
19619TIP3    H158734   9.383   5.046   6.307
19619TIP3    H258735   9.439   5.187   6.319
19620TIP3   OH258736   9.660   5.940   7.453
19620TIP3    H158737   9.565   5.950   7.447
19620TIP3    H258738   9.688   5.922   7.363
19621TIP3   OH258739   9.145   5.914   6.274
19621TIP3    H158740   9.117   5.844   6.333
19621TIP3    H258741   9.158   5.872   6.190
19622TIP3   OH258742   9.131   5.532   7.110
19622TIP3    H158743   9.035   5.528   7.115
19622TIP3    H258744   9.158   5.441   7.124
19623TIP3   OH258745   8.261   5.775   6.867
19623TIP3    H158746   8.257   5.853   6.811
19623TIP3    H258747   8.170   5.746   6.875
19624TIP3   OH258748   7.827   5.078   6.570
19624TIP3    H158749   7.873   5.159   6.588
19624TIP3    H258750   7.750   5.080   6.627
19625TIP3   OH258751   8.404   5.541   6.813
19625TIP3    H158752   8.369   5.628   6.831
19625TIP3    H258753   8.371   5.486   6.883
19626TIP3   OH258754   8.186   6.011   6.721
19626TIP3    H158755   8.101   6.018   6.764
19626TIP3    H258756   8.221   6.100   6.724
19627TIP3   OH258757   8.927   5.749   7.296
19627TIP3    H158758   8.909   5.754   7.390
19627TIP3    H258759   9.008   5.698   7.290
19628TIP3   OH258760   8.896   5.640   6.177
19628TIP3    H158761   8.948   5.618   6.254
19628TIP3    H258762   8.807   5.615   6.200
19629TIP3   OH258763   9.155   6.296   7.351
19629TIP3    H158764   9.095   6.223   7.335
19629TIP3    H258765   9.144   6.353   7.275
19630TIP3   OH258766   9.234   6.121   5.995
19630TIP3    H158767   9.274   6.191   5.943
19630TIP3    H258768   9.154   6.161   6.030
19631TIP3   OH258769   8.255   4.894   7.863
19631TIP3    H158770   8.160   4.899   7.874
19631TIP3    H258771   8.285   4.834   7.932
19632TIP3   OH258772   9.056   5.575   6.394
19632TIP3    H158773   9.045   5.512   6.466
19632TIP3    H258774   9.150   5.575   6.376
19633TIP3   OH258775   7.979   5.979   7.493
19633TIP3    H158776   8.024   5.901   7.526
19633TIP3    H258777   7.988   6.043   7.564
19634TIP3   OH258778   8.265   5.621   6.176
19634TIP3    H158779   8.275   5.532   6.143
19634TIP3    H258780   8.244   5.610   6.268
19635TIP3   OH258781   8.210   5.629   6.447
19635TIP3    H158782   8.277   5.599   6.507
19635TIP3    H258783   8.214   5.725   6.454
19636TIP3   OH258784   7.944   5.325   6.650
19636TIP3    H158785   7.878   5.364   6.708
19636TIP3    H258786   7.958   5.391   6.582
19637TIP3   OH258787   9.094   4.957   7.542
19637TIP3    H158788   9.171   4.995   7.585
19637TIP3    H258789   9.076   4.878   7.594
19638TIP3   OH258790   8.974   4.712   6.705
19638TIP3    H158791   8.959   4.734   6.613
19638TIP3    H258792   9.012   4.792   6.743
19639TIP3   OH258793   8.475   5.831   6.402
19639TIP3    H158794   8.387   5.853   6.433
19639TIP3    H258795   8.492   5.894   6.331
19640TIP3   OH258796   8.666   4.890   6.812
19640TIP3    H158797   8.729   4.961   6.795
19640TIP3    H258798   8.667   4.881   6.907
19641TIP3   OH258799   8.935   5.211   7.618
19641TIP3    H158800   8.950   5.263   7.696
19641TIP3    H258801   8.985   5.130   7.632
19642TIP3   OH258802   8.809   4.621   6.913
19642TIP3    H158803   8.801   4.695   6.974
19642TIP3    H258804   8.867   4.653   6.844
19643TIP3   OH258805   8.218   5.903   6.463
19643TIP3    H158806   8.188   5.968   6.399
19643TIP3    H258807   8.201   5.944   6.548
19644TIP3   OH258808   8.320   4.616   6.701
19644TIP3    H158809   8.313   4.703   6.740
19644TIP3    H258810   8.413   4.593   6.709
19645TIP3   OH258811   9.569   5.100   7.594
19645TIP3    H158812   9.474   5.107   7.607
19645TIP3    H258813   9.579   5.060   7.508
19646TIP3   OH258814   7.938   5.531   6.455
19646TIP3    H158815   7.998   5.605   6.465
19646TIP3    H258816   7.979   5.475   6.389
19647TIP3   OH258817   7.880   4.808   6.588
19647TIP3    H158818   7.879   4.904   6.585
19647TIP3    H258819   7.796   4.782   6.550
19648TIP3   OH258820   9.188   6.279   6.929
19648TIP3    H158821   9.148   6.327   6.857
19648TIP3    H258822   9.282   6.291   6.917
19649TIP3   OH258823   8.266   4.525   7.463
19649TIP3    H158824   8.237   4.493   7.378
19649TIP3    H258825   8.257   4.449   7.522
19650TIP3   OH258826   7.809   5.753   6.844
19650TIP3    H158827   7.737   5.776   6.903
19650TIP3    H258828   7.781   5.786   6.758
19651TIP3   OH258829   7.966   6.282   7.908
19651TIP3    H158830   8.048   6.284   7.959
19651TIP3    H258831   7.938   6.191   7.912
19652TIP3   OH258832   8.464   6.251   7.952
19652TIP3    H158833   8.551   6.213   7.958
19652TIP3    H258834   8.419   6.198   7.886
19653TIP3   OH258835   8.428   5.824   6.091
19653TIP3    H158836   8.370   5.757   6.126
19653TIP3    H258837   8.502   5.776   6.055
19654TIP3   OH258838   9.108   6.142   7.689
19654TIP3    H158839   9.068   6.085   7.755
19654TIP3    H258840   9.157   6.206   7.740
19655TIP3   OH258841   8.867   5.864   5.998
19655TIP3    H158842   8.909   5.802   6.057
19655TIP3    H258843   8.923   5.865   5.920
19656TIP3   OH258844   4.827   1.071   0.111
19656TIP3    H158845   4.843   0.977   0.121
19656TIP3    H258846   4.740   1.075   0.070
19657TIP3   OH258847   8.073   5.345   6.307
19657TIP3    H158848   8.123   5.309   6.381
19657TIP3    H258849   8.137   5.350   6.235
19658TIP3   OH258850   8.702   5.775   7.886
19658TIP3    H158851   8.661   5.785   7.800
19658TIP3    H258852   8.736   5.685   7.886
19659TIP3   OH258853   8.583   5.541   6.118
19659TIP3    H158854   8.582   5.556   6.212
19659TIP3    H258855   8.580   5.446   6.109
19660TIP3   OH258856   9.192   5.784   7.487
19660TIP3    H158857   9.267   5.829   7.449
19660TIP3    H258858   9.120   5.847   7.480
19661TIP3   OH258859   4.950   0.806   0.096
19661TIP3    H158860   5.021   0.746   0.076
19661TIP3    H258861   4.970   0.841   0.183
19662TIP3   OH258862   8.283   5.245   6.534
19662TIP3    H158863   8.251   5.205   6.615
19662TIP3    H258864   8.316   5.171   6.482
19663TIP3   OH258865   8.547   5.315   7.759
19663TIP3    H158866   8.470   5.371   7.762
19663TIP3    H258867   8.595   5.344   7.682
19664TIP3   OH258868   8.379   5.040   6.369
19664TIP3    H158869   8.350   5.043   6.278
19664TIP3    H258870   8.475   5.046   6.364
19665TIP3   OH258871   9.066   5.713   7.891
19665TIP3    H158872   9.157   5.704   7.860
19665TIP3    H258873   9.059   5.648   7.961
19666TIP3   OH258874   9.204   5.373   6.030
19666TIP3    H158875   9.181   5.324   5.951
19666TIP3    H258876   9.174   5.462   6.012
19667TIP3   OH258877   8.670   5.099   7.884
19667TIP3    H158878   8.670   5.019   7.831
19667TIP3    H258879   8.627   5.164   7.829
19668TIP3   OH258880   8.672   4.887   7.689
19668TIP3    H158881   8.700   4.925   7.606
19668TIP3    H258882   8.581   4.863   7.675
19669TIP3   OH258883   8.702   5.423   7.565
19669TIP3    H158884   8.784   5.426   7.515
19669TIP3    H258885   8.645   5.487   7.522
19670TIP3   OH258886   9.296   5.390   7.955
19670TIP3    H158887   9.337   5.304   7.947
19670TIP3    H258888   9.364   5.452   7.929
19671TIP3   OH258889   9.327   5.633   7.668
19671TIP3    H158890   9.266   5.687   7.617
19671TIP3    H258891   9.413   5.653   7.631
19672TIP3   OH258892   5.277   0.593   0.109
19672TIP3    H158893   5.212   0.525   0.127
19672TIP3    H258894   5.316   0.567   0.026
19673TIP3   OH258895   8.804   4.651   7.756
19673TIP3    H158896   8.756   4.732   7.736
19673TIP3    H258897   8.738   4.582   7.747
19674TIP3   OH258898   8.929   5.154   7.976
19674TIP3    H158899   8.924   5.143   8.071
19674TIP3    H258900   8.842   5.130   7.944
19675TIP3   OH258901   9.172   5.102   7.832
19675TIP3    H158902   9.095   5.104   7.890
19675TIP3    H258903   9.243   5.072   7.889
19676TIP3   OH258904   6.124   0.423  -0.008
19676TIP3    H158905   6.137   0.329   0.004
19676TIP3    H258906   6.122   0.459   0.080
19677TIP3   OH258907   5.123   0.371   0.167
19677TIP3    H158908   5.128   0.282   0.131
19677TIP3    H258909   5.158   0.362   0.256
19678TIP3   OH258910   8.901   4.658   8.014
19678TIP3    H158911   8.967   4.590   8.012
19678TIP3    H258912   8.859   4.654   7.928
19679TIP3   OH258913   5.700   0.257   0.169
19679TIP3    H158914   5.678   0.186   0.109
19679TIP3    H258915   5.624   0.315   0.167
19680TIP3   OH258916   8.188   6.107   6.276
19680TIP3    H158917   8.281   6.099   6.258
19680TIP3    H258918   8.151   6.150   6.199
19681TIP3   OH258919   7.668   5.483   6.492
19681TIP3    H158920   7.760   5.507   6.480
19681TIP3    H258921   7.659   5.397   6.452
19682TIP3   OH258922   7.582   6.095   6.905
19682TIP3    H158923   7.514   6.038   6.868
19682TIP3    H258924   7.626   6.041   6.971
19683TIP3   OH258925   7.718   5.951   7.095
19683TIP3    H158926   7.702   5.874   7.151
19683TIP3    H258927   7.762   6.013   7.153
19684TIP3   OH258928   9.447   6.349   6.882
19684TIP3    H158929   9.480   6.369   6.970
19684TIP3    H258930   9.521   6.368   6.824
19685TIP3   OH258931   9.498   6.364   7.161
19685TIP3    H158932   9.455   6.278   7.159
19685TIP3    H258933   9.513   6.382   7.254
19686TIP3   OH258934   9.329   5.557   6.368
19686TIP3    H158935   9.388   5.626   6.337
19686TIP3    H258936   9.366   5.530   6.452
19687TIP3   OH258937   9.449   5.440   6.589
19687TIP3    H158938   9.440   5.348   6.614
19687TIP3    H258939   9.534   5.466   6.625
19688TIP3   OH258940   9.511   5.810   6.990
19688TIP3    H158941   9.576   5.763   6.938
19688TIP3    H258942   9.503   5.896   6.948
19689TIP3   OH258943   9.356   6.135   7.209
19689TIP3    H158944   9.294   6.173   7.271
19689TIP3    H258945   9.302   6.085   7.149
19690TIP3   OH258946   9.399   5.337   6.220
19690TIP3    H158947   9.333   5.333   6.151
19690TIP3    H258948   9.374   5.413   6.273
19691TIP3   OH258949   9.276   5.005   6.171
19691TIP3    H158950   9.229   5.047   6.098
19691TIP3    H258951   9.251   4.912   6.165
19692TIP3   OH258952   7.906   5.355   7.461
19692TIP3    H158953   7.902   5.326   7.370
19692TIP3    H258954   8.000   5.357   7.481
19693TIP3   OH258955   9.561   5.703   7.555
19693TIP3    H158956   9.636   5.646   7.573
19693TIP3    H258957   9.599   5.788   7.534
19694TIP3   OH258958   9.763   5.525   7.589
19694TIP3    H158959   9.684   5.479   7.617
19694TIP3    H258960   9.835   5.470   7.620
19695TIP3   OH258961   9.216   4.741   6.159
19695TIP3    H158962   9.288   4.710   6.214
19695TIP3    H258963   9.142   4.685   6.183
19696TIP3   OH258964   9.271   4.992   6.602
19696TIP3    H158965   9.308   4.906   6.625
19696TIP3    H258966   9.333   5.028   6.540
19697TIP3   OH258967   9.435   5.242   7.079
19697TIP3    H158968   9.520   5.200   7.068
19697TIP3    H258969   9.415   5.233   7.173
19698TIP3   OH258970   9.497   5.316   7.338
19698TIP3    H158971   9.426   5.343   7.396
19698TIP3    H258972   9.534   5.398   7.306
19699TIP3   OH258973   4.857   0.422   0.139
19699TIP3    H158974   4.953   0.418   0.139
19699TIP3    H258975   4.829   0.340   0.178
19700TIP3   OH258976   0.206   4.940   7.869
19700TIP3    H158977   0.216   4.850   7.841
19700TIP3    H258978   0.141   4.977   7.810
19701TIP3   OH258979   9.383   4.746   6.651
19701TIP3    H158980   9.430   4.733   6.734
19701TIP3    H258981   9.321   4.673   6.648
19702TIP3   OH258982   8.085   4.735   7.469
19702TIP3    H158983   8.143   4.659   7.479
19702TIP3    H258984   8.145   4.809   7.464
19703TIP3   OH258985   7.887   5.010   7.542
19703TIP3    H158986   7.934   5.000   7.459
19703TIP3    H258987   7.915   5.095   7.576
19704TIP3   OH258988   9.813   5.035   7.706
19704TIP3    H158989   9.733   5.087   7.718
19704TIP3    H258990   9.789   4.970   7.640
19705TIP3   OH258991   9.467   4.685   6.281
19705TIP3    H158992   9.502   4.611   6.232
19705TIP3    H258993   9.533   4.754   6.273
19706TIP3   OH258994   7.868   4.516   7.044
19706TIP3    H158995   7.776   4.510   7.070
19706TIP3    H258996   7.867   4.571   6.966
19707TIP3   OH258997   9.134   6.228   6.599
19707TIP3    H158998   9.142   6.189   6.512
19707TIP3    H258999   9.130   6.322   6.583
19708TIP3   OH259000   8.088   4.596   7.861
19708TIP3    H159001   8.039   4.587   7.942
19708TIP3    H259002   8.024   4.630   7.798
19709TIP3   OH259003   8.129   6.017   7.940
19709TIP3    H159004   8.038   5.992   7.919
19709TIP3    H259005   8.138   5.997   8.033
19710TIP3   OH259006   8.291   6.044   7.495
19710TIP3    H159007   8.242   6.111   7.447
19710TIP3    H259008   8.381   6.053   7.463
19711TIP3   OH259009   8.748   6.302   7.602
19711TIP3    H159010   8.778   6.289   7.692
19711TIP3    H259011   8.821   6.346   7.558
19712TIP3   OH259012   8.950   6.444   7.473
19712TIP3    H159013   9.014   6.382   7.439
19712TIP3    H259014   8.997   6.527   7.478
19713TIP3   OH259015   9.724   4.805   7.573
19713TIP3    H159016   9.632   4.799   7.547
19713TIP3    H259017   9.757   4.715   7.566
19714TIP3   OH259018   7.992   6.315   7.503
19714TIP3    H159019   7.904   6.342   7.476
19714TIP3    H259020   7.997   6.339   7.596
19715TIP3   OH259021   8.219   6.280   7.355
19715TIP3    H159022   8.142   6.289   7.411
19715TIP3    H259023   8.192   6.317   7.270
19716TIP3   OH259024   8.878   6.275   7.192
19716TIP3    H159025   8.829   6.350   7.225
19716TIP3    H259026   8.960   6.312   7.159
19717TIP3   OH259027   9.086   6.435   7.123
19717TIP3    H159028   9.083   6.525   7.090
19717TIP3    H259029   9.121   6.384   7.050
19718TIP3   OH259030   7.903   6.105   7.252
19718TIP3    H159031   7.921   6.078   7.342
19718TIP3    H259032   7.968   6.058   7.200
19719TIP3   OH259033   8.092   5.964   7.111
19719TIP3    H159034   8.086   5.881   7.159
19719TIP3    H259035   8.185   5.979   7.101
19720TIP3   OH259036   8.930   4.722   7.198
19720TIP3    H159037   8.885   4.657   7.252
19720TIP3    H259038   8.999   4.674   7.154
19721TIP3   OH259039   9.455   4.608   7.102
19721TIP3    H159040   9.490   4.657   7.028
19721TIP3    H259041   9.360   4.620   7.096
19722TIP3   OH259042   9.552   4.711   6.866
19722TIP3    H159043   9.621   4.655   6.829
19722TIP3    H259044   9.583   4.800   6.852
19723TIP3   OH259045   8.180   4.431   7.215
19723TIP3    H159046   8.089   4.401   7.216
19723TIP3    H259047   8.231   4.350   7.212
19724TIP3   OH259048   7.961   4.306   6.860
19724TIP3    H159049   7.994   4.361   6.790
19724TIP3    H259050   7.936   4.367   6.929
19725TIP3   OH259051   8.619   4.479   7.095
19725TIP3    H159052   8.684   4.522   7.039
19725TIP3    H259053   8.645   4.503   7.184
19726TIP3   OH259054   9.175   4.610   7.078
19726TIP3    H159055   9.166   4.575   6.990
19726TIP3    H259056   9.160   4.535   7.135
19727TIP3   OH259057   9.198   4.534   6.643
19727TIP3    H159058   9.113   4.577   6.652
19727TIP3    H259059   9.187   4.450   6.688
19728TIP3   OH259060   7.681   5.875   6.641
19728TIP3    H159061   7.600   5.837   6.609
19728TIP3    H259062   7.672   5.969   6.623
19729TIP3   OH259063   8.084   4.465   6.624
19729TIP3    H159064   8.130   4.400   6.570
19729TIP3    H259065   8.154   4.518   6.662
19730TIP3   OH259066   8.598   4.641   6.725
19730TIP3    H159067   8.649   4.587   6.785
19730TIP3    H259068   8.619   4.731   6.749
19731TIP3   OH259069   8.454   6.064   6.222
19731TIP3    H159070   8.539   6.094   6.190
19731TIP3    H259071   8.431   5.990   6.166
19732TIP3   OH259072   9.175   6.181   6.319
19732TIP3    H159073   9.165   6.086   6.308
19732TIP3    H259074   9.129   6.218   6.244
19733TIP3   OH259075   5.122   0.096   0.107
19733TIP3    H159076   5.085   0.026   0.161
19733TIP3    H259077   5.215   0.097   0.130
19734TIP3   OH259078   5.370   0.090   0.223
19734TIP3    H159079   5.454   0.068   0.183
19734TIP3    H259080   5.357   0.022   0.289
19735TIP3   OH259081   7.761   5.903   6.282
19735TIP3    H159082   7.755   5.926   6.374
19735TIP3    H259083   7.847   5.861   6.273
19736TIP3   OH259084   6.194   0.155   0.007
19736TIP3    H159085   6.210   0.124   0.096
19736TIP3    H259086   6.280   0.149  -0.035
19737TIP3   OH259087   0.158   5.572   7.006
19737TIP3    H159088   0.193   5.504   7.063
19737TIP3    H259089   0.200   5.653   7.037
19738TIP3   OH259090   0.131   5.997   6.747
19738TIP3    H159091   0.126   5.902   6.749
19738TIP3    H259092   0.225   6.015   6.736
19739TIP3   OH259093   9.626   5.205   6.540
19739TIP3    H159094   9.610   5.290   6.500
19739TIP3    H259095   9.566   5.145   6.495
19740TIP3   OH259096   9.698   5.484   6.692
19740TIP3    H159097   9.751   5.412   6.726
19740TIP3    H259098   9.755   5.529   6.630
19741TIP3   OH259099   0.604   5.927   6.666
19741TIP3    H159100   0.642   5.864   6.606
19741TIP3    H259101   0.666   5.932   6.739
19742TIP3   OH259102   0.395   5.088   6.707
19742TIP3    H159103   0.397   5.154   6.637
19742TIP3    H259104   0.367   5.007   6.662
19743TIP3   OH259105   0.052   5.285   6.798
19743TIP3    H159106   0.132   5.270   6.849
19743TIP3    H259107   0.063   5.232   6.720
19744TIP3   OH259108   0.451   5.501   6.576
19744TIP3    H159109   0.544   5.485   6.594
19744TIP3    H259110   0.416   5.415   6.553
19745TIP3   OH259111   0.397   5.066   7.133
19745TIP3    H159112   0.341   5.102   7.064
19745TIP3    H259113   0.348   5.080   7.214
19746TIP3   OH259114   0.469   5.847   6.938
19746TIP3    H159115   0.418   5.907   6.992
19746TIP3    H259116   0.548   5.896   6.915
19747TIP3   OH259117   0.271   5.183   6.920
19747TIP3    H159118   0.332   5.252   6.946
19747TIP3    H259119   0.314   5.140   6.846
19748TIP3   OH259120   9.513   5.738   6.275
19748TIP3    H159121   9.511   5.740   6.180
19748TIP3    H259122   9.580   5.801   6.299
19749TIP3   OH259123   0.247   5.649   6.473
19749TIP3    H159124   0.218   5.609   6.391
19749TIP3    H259125   0.319   5.594   6.503
19750TIP3   OH259126   0.378   6.060   6.620
19750TIP3    H159127   0.348   6.025   6.536
19750TIP3    H259128   0.455   6.008   6.641
19751TIP3   OH259129   0.428   5.594   6.843
19751TIP3    H159130   0.440   5.590   6.748
19751TIP3    H259131   0.445   5.686   6.865
19752TIP3   OH259132   0.220   5.756   7.200
19752TIP3    H159133   0.224   5.849   7.223
19752TIP3    H259134   0.149   5.721   7.254
19753TIP3   OH259135   0.603   6.204   6.202
19753TIP3    H159136   0.650   6.280   6.236
19753TIP3    H259137   0.542   6.240   6.138
19754TIP3   OH259138   9.721   5.851   7.201
19754TIP3    H159139   9.655   5.827   7.136
19754TIP3    H259140   9.747   5.768   7.240
19755TIP3   OH259141   9.582   6.037   6.855
19755TIP3    H159142   9.670   6.044   6.818
19755TIP3    H259143   9.563   6.126   6.887
19756TIP3   OH259144   0.514   6.404   5.989
19756TIP3    H159145   0.476   6.381   5.904
19756TIP3    H259146   0.474   6.488   6.012
19757TIP3   OH259147   9.745   6.264   6.361
19757TIP3    H159148   9.791   6.258   6.444
19757TIP3    H259149   9.698   6.181   6.355
19758TIP3   OH259150   0.105   6.048   7.192
19758TIP3    H159151   0.132   6.047   7.284
19758TIP3    H259152   0.037   5.981   7.186
19759TIP3   OH259153   0.512   4.861   6.985
19759TIP3    H159154   0.428   4.828   6.953
19759TIP3    H259155   0.490   4.943   7.031
19760TIP3   OH259156   0.459   5.365   6.976
19760TIP3    H159157   0.439   5.397   7.064
19760TIP3    H259158   0.451   5.441   6.920
19761TIP3   OH259159   0.338   5.260   6.503
19761TIP3    H159160   0.250   5.235   6.529
19761TIP3    H259161   0.346   5.230   6.413
19762TIP3   OH259162   0.253   5.395   7.206
19762TIP3    H159163   0.291   5.453   7.272
19762TIP3    H259164   0.251   5.309   7.248
19763TIP3   OH259165   0.313   4.914   5.908
19763TIP3    H159166   0.300   4.887   5.999
19763TIP3    H259167   0.225   4.919   5.872
19764TIP3   OH259168   9.674   4.936   6.781
19764TIP3    H159169   9.750   4.960   6.833
19764TIP3    H259170   9.710   4.895   6.702
19765TIP3   OH259171   9.648   4.915   6.299
19765TIP3    H159172   9.694   4.948   6.222
19765TIP3    H259173   9.584   4.983   6.321
19766TIP3   OH259174   0.101   5.139   6.577
19766TIP3    H159175   0.008   5.137   6.554
19766TIP3    H259176   0.132   5.051   6.558
19767TIP3   OH259177   0.356   5.166   6.246
19767TIP3    H159178   0.427   5.195   6.188
19767TIP3    H259179   0.277   5.173   6.192
19768TIP3   OH259180   0.191   5.162   6.038
19768TIP3    H159181   0.109   5.125   6.004
19768TIP3    H259182   0.236   5.196   5.961
19769TIP3   OH259183   0.272   4.903   6.538
19769TIP3    H159184   0.239   4.830   6.590
19769TIP3    H259185   0.334   4.863   6.478
19770TIP3   OH259186   0.451   5.661   6.058
19770TIP3    H159187   0.359   5.636   6.067
19770TIP3    H259188   0.467   5.721   6.132
19771TIP3   OH259189   0.151   5.717   6.731
19771TIP3    H159190   0.186   5.696   6.644
19771TIP3    H259191   0.198   5.659   6.790
19772TIP3   OH259192   0.020   5.635   7.348
19772TIP3    H159193   0.022   5.619   7.442
19772TIP3    H259194  -0.039   5.568   7.314
19773TIP3   OH259195   0.259   6.029   6.354
19773TIP3    H159196   0.261   6.110   6.302
19773TIP3    H259197   0.168   6.002   6.354
19774TIP3   OH259198   9.624   5.331   6.053
19774TIP3    H159199   9.683   5.404   6.071
19774TIP3    H259200   9.551   5.344   6.114
19775TIP3   OH259201   0.435   5.815   6.325
19775TIP3    H159202   0.383   5.895   6.321
19775TIP3    H259203   0.378   5.752   6.370
19776TIP3   OH259204   0.176   6.264   6.205
19776TIP3    H159205   0.092   6.272   6.251
19776TIP3    H259206   0.213   6.353   6.207
19777TIP3   OH259207   0.243   5.147   7.346
19777TIP3    H159208   0.151   5.160   7.369
19777TIP3    H259209   0.279   5.095   7.417
19778TIP3   OH259210   9.773   6.238   6.990
19778TIP3    H159211   9.797   6.152   7.024
19778TIP3    H259212   9.813   6.300   7.051
19779TIP3   OH259213   0.270   5.874   5.654
19779TIP3    H159214   0.279   5.781   5.634
19779TIP3    H259215   0.249   5.877   5.747
19780TIP3   OH259216   0.203   5.886   5.914
19780TIP3    H159217   0.233   5.831   5.987
19780TIP3    H259218   0.215   5.976   5.946
19781TIP3   OH259219   0.465   6.111   5.889
19781TIP3    H159220   0.377   6.116   5.925
19781TIP3    H259221   0.472   6.187   5.832
19782TIP3   OH259222   0.203   6.162   5.951
19782TIP3    H159223   0.174   6.229   5.889
19782TIP3    H259224   0.188   6.200   6.037
19783TIP3   OH259225   0.318   4.881   6.189
19783TIP3    H159226   0.279   4.956   6.235
19783TIP3    H259227   0.404   4.912   6.160
19784TIP3   OH259228   9.719   5.813   5.921
19784TIP3    H159229   9.788   5.871   5.953
19784TIP3    H259230   9.765   5.734   5.892
19785TIP3   OH259231   9.679   5.065   6.071
19785TIP3    H159232   9.677   5.160   6.070
19785TIP3    H259233   9.593   5.039   6.037
19786TIP3   OH259234   0.246   4.783   6.952
19786TIP3    H159235   0.226   4.749   6.865
19786TIP3    H259236   0.249   4.706   7.008
19787TIP3   OH259237   9.608   6.026   6.337
19787TIP3    H159238   9.519   6.019   6.373
19787TIP3    H259239   9.594   6.048   6.245
19788TIP3   OH259240   0.410   6.094   5.575
19788TIP3    H159241   0.357   6.021   5.609
19788TIP3    H259242   0.501   6.065   5.587
19789TIP3   OH259243   0.062   5.594   5.796
19789TIP3    H159244   0.089   5.584   5.888
19789TIP3    H259245   0.142   5.621   5.751
19790TIP3   OH259246   0.517   5.539   7.188
19790TIP3    H159247   0.505   5.598   7.262
19790TIP3    H259248   0.527   5.596   7.112
19791TIP3   OH259249   0.644   5.329   7.318
19791TIP3    H159250   0.660   5.241   7.285
19791TIP3    H259251   0.573   5.363   7.263
19792TIP3   OH259252   0.662   5.112   7.167
19792TIP3    H159253   0.696   5.109   7.078
19792TIP3    H259254   0.572   5.080   7.159
19793TIP3   OH259255   0.370   5.277   7.596
19793TIP3    H159256   0.373   5.181   7.599
19793TIP3    H259257   0.400   5.304   7.683
19794TIP3   OH259258   0.181   6.364   5.760
19794TIP3    H159259   0.276   6.360   5.745
19794TIP3    H259260   0.148   6.412   5.684
19795TIP3   OH259261   9.464   5.738   5.981
19795TIP3    H159262   9.553   5.770   5.963
19795TIP3    H259263   9.460   5.653   5.939
19796TIP3   OH259264   9.379   6.347   6.399
19796TIP3    H159265   9.313   6.294   6.353
19796TIP3    H259266   9.407   6.291   6.472
19797TIP3   OH259267   9.253   6.017   6.795
19797TIP3    H159268   9.322   5.987   6.736
19797TIP3    H259269   9.230   6.104   6.763
19798TIP3   OH259270   9.698   5.601   6.941
19798TIP3    H159271   9.700   5.588   6.847
19798TIP3    H259272   9.791   5.600   6.967
19799TIP3   OH259273   0.097   5.283   7.595
19799TIP3    H159274   0.191   5.298   7.596
19799TIP3    H259275   0.081   5.221   7.666
19800TIP3   OH259276   0.074   4.996   6.969
19800TIP3    H159277   0.127   4.916   6.972
19800TIP3    H259278   0.137   5.066   6.953
19801TIP3   OH259279   9.677   5.311   6.999
19801TIP3    H159280   9.735   5.280   6.928
19801TIP3    H259281   9.737   5.343   7.066
19802TIP3   OH259282   9.663   4.776   6.533
19802TIP3    H159283   9.571   4.765   6.557
19802TIP3    H259284   9.661   4.829   6.454
19803TIP3   OH259285   0.079   4.853   7.346
19803TIP3    H159286   0.033   4.842   7.429
19803TIP3    H259287   0.012   4.884   7.285
19804TIP3   OH259288   9.695   6.358   6.747
19804TIP3    H159289   9.729   6.339   6.834
19804TIP3    H259290   9.753   6.310   6.688
19805TIP3   OH259291   0.073   6.224   6.594
19805TIP3    H159292   0.093   6.145   6.644
19805TIP3    H259293   0.159   6.264   6.577
19806TIP3   OH259294   0.324   6.321   6.559
19806TIP3    H159295   0.354   6.231   6.571
19806TIP3    H259296   0.350   6.366   6.639
19807TIP3   OH259297   0.167   4.696   6.695
19807TIP3    H159298   0.075   4.670   6.698
19807TIP3    H259299   0.216   4.613   6.701
19808TIP3   OH259300   9.759   4.562   6.345
19808TIP3    H159301   9.788   4.622   6.276
19808TIP3    H259302   9.732   4.620   6.417
19809TIP3   OH259303   9.476   6.130   6.127
19809TIP3    H159304   9.393   6.093   6.095
19809TIP3    H259305   9.468   6.224   6.110
19810TIP3   OH259306   0.075   4.728   6.114
19810TIP3    H159307   0.112   4.658   6.060
19810TIP3    H259308   0.151   4.771   6.153
19811TIP3   OH259309   0.455   6.328   5.712
19811TIP3    H159310   0.550   6.337   5.704
19811TIP3    H259311   0.433   6.257   5.651
19812TIP3   OH259312   0.351   4.995   7.589
19812TIP3    H159313   0.297   4.931   7.637
19812TIP3    H259314   0.438   4.956   7.586
19813TIP3   OH259315   0.581   4.876   7.659
19813TIP3    H159316   0.646   4.936   7.623
19813TIP3    H259317   0.574   4.900   7.751
19814TIP3   OH259318   9.555   6.159   5.770
19814TIP3    H159319   9.549   6.183   5.862
19814TIP3    H259320   9.641   6.117   5.762
19815TIP3   OH259321   7.854   1.609   0.473
19815TIP3    H159322   7.830   1.700   0.456
19815TIP3    H259323   7.780   1.558   0.441
19816TIP3   OH259324   7.860   1.604   0.848
19816TIP3    H159325   7.888   1.580   0.936
19816TIP3    H259326   7.817   1.526   0.814
19817TIP3   OH259327   8.096   1.915   0.536
19817TIP3    H159328   8.085   1.841   0.595
19817TIP3    H259329   8.127   1.986   0.592
19818TIP3   OH259330   7.748   2.375   0.547
19818TIP3    H159331   7.791   2.302   0.503
19818TIP3    H259332   7.725   2.341   0.633
19819TIP3   OH259333   7.645   1.785   0.877
19819TIP3    H159334   7.719   1.732   0.849
19819TIP3    H259335   7.686   1.864   0.915
19820TIP3   OH259336   8.662   1.157   0.898
19820TIP3    H159337   8.693   1.235   0.944
19820TIP3    H259338   8.688   1.171   0.807
19821TIP3   OH259339   8.064   1.335   0.934
19821TIP3    H159340   8.110   1.254   0.954
19821TIP3    H259341   8.035   1.324   0.844
19822TIP3   OH259342   7.432   1.000   0.898
19822TIP3    H159343   7.397   1.075   0.850
19822TIP3    H259344   7.401   0.924   0.849
19823TIP3   OH259345   8.101   1.089   0.521
19823TIP3    H159346   8.168   1.072   0.587
19823TIP3    H259347   8.150   1.120   0.445
19824TIP3   OH259348   7.480   1.402   0.816
19824TIP3    H159349   7.572   1.376   0.818
19824TIP3    H259350   7.435   1.330   0.772
19825TIP3   OH259351   8.735   1.360   1.075
19825TIP3    H159352   8.655   1.408   1.056
19825TIP3    H259353   8.765   1.396   1.159
19826TIP3   OH259354   7.746   1.831   0.344
19826TIP3    H159355   7.710   1.806   0.259
19826TIP3    H259356   7.703   1.914   0.365
19827TIP3   OH259357   8.305   1.091   0.696
19827TIP3    H159358   8.312   1.033   0.772
19827TIP3    H259359   8.364   1.164   0.716
19828TIP3   OH259360   8.167   2.156   0.704
19828TIP3    H159361   8.080   2.145   0.744
19828TIP3    H259362   8.162   2.240   0.658
19829TIP3   OH259363   8.456   1.059   1.063
19829TIP3    H159364   8.370   1.083   1.027
19829TIP3    H259365   8.519   1.088   0.997
19830TIP3   OH259366   7.759   0.692   1.045
19830TIP3    H159367   7.745   0.599   1.062
19830TIP3    H259368   7.682   0.735   1.083
19831TIP3   OH259369   7.873   2.199   0.375
19831TIP3    H159370   7.919   2.117   0.357
19831TIP3    H259371   7.930   2.266   0.337
19832TIP3   OH259372   8.013   1.986   0.283
19832TIP3    H159373   7.984   1.907   0.237
19832TIP3    H259374   8.048   1.954   0.366
19833TIP3   OH259375   8.393   2.070   1.042
19833TIP3    H159376   8.384   1.992   0.988
19833TIP3    H259377   8.382   2.143   0.981
19834TIP3   OH259378   7.687   1.461   0.300
19834TIP3    H159379   7.609   1.511   0.275
19834TIP3    H259380   7.738   1.456   0.220
19835TIP3   OH259381   7.649   1.245   0.020
19835TIP3    H159382   7.713   1.297   0.069
19835TIP3    H259383   7.703   1.181  -0.028
19836TIP3   OH259384   8.588   1.705   0.889
19836TIP3    H159385   8.508   1.756   0.897
19836TIP3    H259386   8.620   1.725   0.801
19837TIP3   OH259387   8.033   1.544   0.277
19837TIP3    H159388   7.980   1.567   0.354
19837TIP3    H259389   8.117   1.516   0.314
19838TIP3   OH259390   8.269   1.579   1.191
19838TIP3    H159391   8.272   1.661   1.241
19838TIP3    H259392   8.187   1.585   1.142
19839TIP3   OH259393   7.409   1.503   1.057
19839TIP3    H159394   7.438   1.466   0.974
19839TIP3    H259395   7.468   1.576   1.073
19840TIP3   OH259396   7.927   2.155   0.826
19840TIP3    H159397   7.915   2.224   0.891
19840TIP3    H259398   7.915   2.074   0.875
19841TIP3   OH259399   7.873   1.407   0.099
19841TIP3    H159400   7.932   1.459   0.153
19841TIP3    H259401   7.898   1.427   0.009
19842TIP3   OH259402   7.613   2.089   0.380
19842TIP3    H159403   7.699   2.125   0.400
19842TIP3    H259404   7.569   2.158   0.331
19843TIP3   OH259405   8.390   0.648   0.150
19843TIP3    H159406   8.310   0.662   0.200
19843TIP3    H259407   8.399   0.727   0.096
19844TIP3   OH259408   1.658   6.632   7.699
19844TIP3    H159409   1.666   6.726   7.685
19844TIP3    H259410   1.747   6.598   7.686
19845TIP3   OH259411   8.629   2.408   1.092
19845TIP3    H159412   8.635   2.314   1.103
19845TIP3    H259413   8.548   2.434   1.136
19846TIP3   OH259414   7.740   2.156   1.241
19846TIP3    H159415   7.745   2.251   1.250
19846TIP3    H259416   7.652   2.140   1.207
19847TIP3   OH259417   7.526   2.311   0.201
19847TIP3    H159418   7.493   2.289   0.114
19847TIP3    H259419   7.487   2.396   0.220
19848TIP3   OH259420   1.173   6.846   7.821
19848TIP3    H159421   1.227   6.778   7.782
19848TIP3    H259422   1.210   6.859   7.908
19849TIP3   OH259423   7.767   2.271   0.086
19849TIP3    H159424   7.686   2.276   0.136
19849TIP3    H259425   7.829   2.229   0.146
19850TIP3   OH259426   8.529   1.539   1.360
19850TIP3    H159427   8.446   1.562   1.320
19850TIP3    H259428   8.539   1.445   1.344
19851TIP3   OH259429   7.518   0.776   1.143
19851TIP3    H159430   7.463   0.722   1.200
19851TIP3    H259431   7.527   0.859   1.190
19852TIP3   OH259432   7.978   0.901   1.335
19852TIP3    H159433   8.045   0.886   1.401
19852TIP3    H259434   7.895   0.892   1.383
19853TIP3   OH259435   8.274   1.315   1.321
19853TIP3    H159436   8.297   1.343   1.410
19853TIP3    H259437   8.266   1.397   1.271
19854TIP3   OH259438   1.413   6.076   7.845
19854TIP3    H159439   1.383   6.042   7.761
19854TIP3    H259440   1.499   6.114   7.826
19855TIP3   OH259441   7.660   0.827   0.147
19855TIP3    H159442   7.634   0.824   0.240
19855TIP3    H259443   7.629   0.744   0.111
19856TIP3   OH259444   7.441   1.275   1.201
19856TIP3    H159445   7.404   1.306   1.284
19856TIP3    H259446   7.428   1.348   1.141
19857TIP3   OH259447   7.324   1.167   0.708
19857TIP3    H159448   7.230   1.181   0.696
19857TIP3    H259449   7.352   1.125   0.627
19858TIP3   OH259450   7.824   1.261   0.433
19858TIP3    H159451   7.773   1.332   0.393
19858TIP3    H259452   7.882   1.231   0.364
19859TIP3   OH259453   7.981   1.289   0.673
19859TIP3    H159454   7.923   1.322   0.605
19859TIP3    H259455   8.019   1.209   0.635
19860TIP3   OH259456   7.321   0.800   0.117
19860TIP3    H159457   7.315   0.796   0.213
19860TIP3    H259458   7.231   0.807   0.087
19861TIP3   OH259459   7.987   1.538   1.094
19861TIP3    H159460   8.023   1.472   1.036
19861TIP3    H259461   7.964   1.490   1.174
19862TIP3   OH259462   7.674   1.004   0.768
19862TIP3    H159463   7.595   1.004   0.822
19862TIP3    H259464   7.746   0.992   0.830
19863TIP3   OH259465   7.371   1.056   0.462
19863TIP3    H159466   7.466   1.067   0.453
19863TIP3    H259467   7.335   1.091   0.380
19864TIP3   OH259468   8.152   1.074   0.976
19864TIP3    H159469   8.107   1.089   1.060
19864TIP3    H259470   8.097   1.012   0.930
19865TIP3   OH259471   7.188   1.112   0.239
19865TIP3    H159472   7.152   1.024   0.224
19865TIP3    H259473   7.248   1.125   0.166
19866TIP3   OH259474   8.348   2.744   1.159
19866TIP3    H159475   8.332   2.794   1.079
19866TIP3    H259476   8.340   2.809   1.229
19867TIP3   OH259477   7.746   1.325   0.865
19867TIP3    H159478   7.817   1.288   0.812
19867TIP3    H259479   7.756   1.283   0.950
19868TIP3   OH259480   7.301   0.814   0.744
19868TIP3    H159481   7.238   0.744   0.761
19868TIP3    H259482   7.351   0.783   0.668
19869TIP3   OH259483   7.719   1.224   1.156
19869TIP3    H159484   7.629   1.256   1.165
19869TIP3    H259485   7.773   1.288   1.203
19870TIP3   OH259486   7.460   1.610   0.240
19870TIP3    H159487   7.388   1.547   0.234
19870TIP3    H259488   7.452   1.648   0.327
19871TIP3   OH259489   8.357   1.851   0.881
19871TIP3    H159490   8.382   1.899   0.801
19871TIP3    H259491   8.275   1.809   0.858
19872TIP3   OH259492   7.916   0.928   0.115
19872TIP3    H159493   7.822   0.914   0.121
19872TIP3    H259494   7.929   1.020   0.139
19873TIP3   OH259495   7.881   1.925   1.243
19873TIP3    H159496   7.845   1.871   1.314
19873TIP3    H259497   7.831   2.007   1.248
19874TIP3   OH259498   7.989   1.176   0.218
19874TIP3    H159499   8.083   1.174   0.233
19874TIP3    H259500   7.975   1.252   0.162
19875TIP3   OH259501   7.608   1.758   0.067
19875TIP3    H159502   7.567   1.844   0.078
19875TIP3    H259503   7.558   1.700   0.124
19876TIP3   OH259504   8.017   2.206   1.135
19876TIP3    H159505   7.930   2.173   1.156
19876TIP3    H259506   8.048   2.247   1.215
19877TIP3   OH259507   8.644   2.119   1.131
19877TIP3    H159508   8.548   2.117   1.128
19877TIP3    H259509   8.672   2.091   1.044
19878TIP3   OH259510   1.591   6.701   7.963
19878TIP3    H159511   1.572   6.632   8.026
19878TIP3    H259512   1.606   6.656   7.880
19879TIP3   OH259513   8.123   1.710   0.801
19879TIP3    H159514   8.031   1.687   0.813
19879TIP3    H259515   8.161   1.634   0.756
19880TIP3   OH259516   7.432   1.707   0.486
19880TIP3    H159517   7.419   1.800   0.507
19880TIP3    H259518   7.399   1.660   0.563
19881TIP3   OH259519   7.919   1.920   0.975
19881TIP3    H159520   7.908   1.917   1.070
19881TIP3    H259521   7.993   1.861   0.957
19882TIP3   OH259522   1.349   6.433   7.869
19882TIP3    H159523   1.404   6.409   7.943
19882TIP3    H259524   1.262   6.400   7.892
19883TIP3   OH259525   8.153   2.454   1.034
19883TIP3    H159526   8.080   2.392   1.030
19883TIP3    H259527   8.138   2.513   0.960
19884TIP3   OH259528   1.688   6.909   7.685
19884TIP3    H159529   1.731   6.981   7.637
19884TIP3    H259530   1.607   6.948   7.718
19885TIP3   OH259531   8.042   1.747   0.085
19885TIP3    H159532   8.029   1.680   0.151
19885TIP3    H259533   8.137   1.747   0.069
19886TIP3   OH259534   0.770   6.383   7.893
19886TIP3    H159535   0.791   6.303   7.846
19886TIP3    H259536   0.753   6.354   7.983
19887TIP3   OH259537   8.062   1.147   1.227
19887TIP3    H159538   8.150   1.167   1.257
19887TIP3    H259539   8.040   1.064   1.269
19888TIP3   OH259540   7.954   0.884   0.395
19888TIP3    H159541   7.947   0.901   0.301
19888TIP3    H259542   7.998   0.961   0.431
19889TIP3   OH259543   7.468   1.985   0.091
19889TIP3    H159544   7.376   1.999   0.112
19889TIP3    H259545   7.484   2.041   0.015
19890TIP3   OH259546   7.645   1.062   0.500
19890TIP3    H159547   7.710   1.128   0.477
19890TIP3    H259548   7.656   1.049   0.594
19891TIP3   OH259549   7.914   1.378   1.300
19891TIP3    H159550   7.927   1.390   1.394
19891TIP3    H259551   7.960   1.296   1.280
19892TIP3   OH259552   7.796   0.788   0.600
19892TIP3    H159553   7.792   0.859   0.664
19892TIP3    H259554   7.854   0.820   0.531
19893TIP3   OH259555   7.314   0.798   0.399
19893TIP3    H159556   7.329   0.885   0.438
19893TIP3    H259557   7.400   0.757   0.399
19894TIP3   OH259558   8.545   1.275   1.287
19894TIP3    H159559   8.451   1.257   1.289
19894TIP3    H259560   8.573   1.241   1.202
19895TIP3   OH259561   8.209   1.470   0.676
19895TIP3    H159562   8.135   1.410   0.685
19895TIP3    H259563   8.281   1.426   0.721
19896TIP3   OH259564   8.177   2.431   0.624
19896TIP3    H159565   8.134   2.477   0.551
19896TIP3    H259566   8.270   2.445   0.608
19897TIP3   OH259567   0.908   6.603   7.793
19897TIP3    H159568   0.863   6.527   7.830
19897TIP3    H259569   0.975   6.566   7.736
19898TIP3   OH259570   8.060   2.328   1.379
19898TIP3    H159571   8.041   2.268   1.451
19898TIP3    H259572   8.134   2.380   1.410
19899TIP3   OH259573   1.319   6.655   7.689
19899TIP3    H159574   1.356   6.591   7.749
19899TIP3    H259575   1.377   6.652   7.613
19900TIP3   OH259576   7.724   1.803   1.437
19900TIP3    H159577   7.655   1.869   1.448
19900TIP3    H259578   7.759   1.790   1.525
19901TIP3   OH259579   1.046   6.321   7.801
19901TIP3    H159580   1.048   6.338   7.895
19901TIP3    H259581   1.046   6.225   7.795
19902TIP3   OH259582   8.185   1.951   1.180
19902TIP3    H159583   8.252   2.002   1.137
19902TIP3    H259584   8.105   2.004   1.172
19903TIP3   OH259585   7.272   1.410   0.221
19903TIP3    H159586   7.240   1.358   0.295
19903TIP3    H259587   7.305   1.345   0.159
19904TIP3   OH259588   7.605   1.482   1.414
19904TIP3    H159589   7.513   1.507   1.406
19904TIP3    H259590   7.644   1.509   1.330
19905TIP3   OH259591   7.371   1.208   0.057
19905TIP3    H159592   7.346   1.215  -0.035
19905TIP3    H259593   7.467   1.212   0.056
19906TIP3   OH259594   8.108   1.904   1.556
19906TIP3    H159595   8.193   1.917   1.515
19906TIP3    H259596   8.110   1.815   1.589
19907TIP3   OH259597   1.642   6.164   7.722
19907TIP3    H159598   1.631   6.108   7.645
19907TIP3    H259599   1.613   6.251   7.692
19908TIP3   OH259600   7.635   1.028   1.338
19908TIP3    H159601   7.679   1.074   1.266
19908TIP3    H259602   7.548   1.066   1.342
19909TIP3   OH259603   7.684   1.603   1.184
19909TIP3    H159604   7.775   1.588   1.159
19909TIP3    H259605   7.680   1.695   1.209
19910TIP3   OH259606   8.312   1.803   1.360
19910TIP3    H159607   8.253   1.855   1.305
19910TIP3    H259608   8.400   1.826   1.329
19911TIP3   OH259609   8.428   2.524   0.581
19911TIP3    H159610   8.456   2.550   0.669
19911TIP3    H259611   8.494   2.562   0.523
19912TIP3   OH259612   8.460   2.537   0.863
19912TIP3    H159613   8.415   2.453   0.857
19912TIP3    H259614   8.535   2.520   0.922
19913TIP3   OH259615   8.516   2.219   1.412
19913TIP3    H159616   8.443   2.218   1.474
19913TIP3    H259617   8.553   2.307   1.421
19914TIP3   OH259618   8.319   1.737   0.064
19914TIP3    H159619   8.390   1.790   0.029
19914TIP3    H259620   8.358   1.691   0.138
19915TIP3   OH259621   8.446   1.599   0.262
19915TIP3    H159622   8.384   1.553   0.318
19915TIP3    H259623   8.514   1.630   0.322
19916TIP3   OH259624   8.502   1.986   0.688
19916TIP3    H159625   8.556   1.920   0.643
19916TIP3    H259626   8.493   2.057   0.624
19917TIP3   OH259627   8.334   2.290   0.884
19917TIP3    H159628   8.265   2.324   0.941
19917TIP3    H259629   8.286   2.240   0.818
19918TIP3   OH259630   1.856   6.152   7.893
19918TIP3    H159631   1.781   6.136   7.836
19918TIP3    H259632   1.822   6.209   7.962
19919TIP3   OH259633   8.261   1.449   0.404
19919TIP3    H159634   8.274   1.355   0.390
19919TIP3    H259635   8.251   1.458   0.499
19920TIP3   OH259636   8.555   1.878   1.264
19920TIP3    H159637   8.624   1.812   1.256
19920TIP3    H259638   8.582   1.947   1.204
19921TIP3   OH259639   8.739   1.685   1.282
19921TIP3    H159640   8.667   1.634   1.318
19921TIP3    H259641   8.816   1.628   1.292
19922TIP3   OH259642   1.696   5.496   7.842
19922TIP3    H159643   1.748   5.559   7.892
19922TIP3    H259644   1.615   5.486   7.891
19923TIP3   OH259645   8.264   1.160   0.294
19923TIP3    H159646   8.297   1.076   0.326
19923TIP3    H259647   8.305   1.171   0.208
19924TIP3   OH259648   8.424   1.347   0.796
19924TIP3    H159649   8.506   1.368   0.753
19924TIP3    H259650   8.435   1.379   0.886
19925TIP3   OH259651   8.489   1.487   1.029
19925TIP3    H159652   8.412   1.521   1.077
19925TIP3    H259653   8.523   1.563   0.983
19926TIP3   OH259654   8.929   1.054   1.560
19926TIP3    H159655   9.002   1.006   1.521
19926TIP3    H259656   8.940   1.144   1.531
19927TIP3   OH259657   8.356   0.914   0.360
19927TIP3    H159658   8.412   0.895   0.435
19927TIP3    H259659   8.304   0.834   0.348
19928TIP3   OH259660   8.807   1.233   1.377
19928TIP3    H159661   8.713   1.249   1.391
19928TIP3    H259662   8.810   1.153   1.325
19929TIP3   OH259663   8.015   2.387   0.237
19929TIP3    H159664   8.062   2.369   0.156
19929TIP3    H259665   8.072   2.448   0.285
19930TIP3   OH259666   7.804   2.421   1.282
19930TIP3    H159667   7.874   2.391   1.340
19930TIP3    H259668   7.847   2.480   1.221
19931TIP3   OH259669   7.939   2.626   1.154
19931TIP3    H159670   8.002   2.569   1.110
19931TIP3    H259671   7.991   2.677   1.216
19932TIP3   OH259672   8.708   0.976   1.246
19932TIP3    H159673   8.620   0.970   1.211
19932TIP3    H259674   8.743   0.887   1.240
19933TIP3   OH259675   7.633   2.504   0.805
19933TIP3    H159676   7.538   2.512   0.797
19933TIP3    H259677   7.659   2.582   0.855
19934TIP3   OH259678   7.896   2.440   0.905
19934TIP3    H159679   7.809   2.440   0.864
19934TIP3    H259680   7.947   2.502   0.852
19935TIP3   OH259681   8.110   2.623   0.812
19935TIP3    H159682   8.091   2.703   0.762
19935TIP3    H259683   8.137   2.560   0.746
19936TIP3   OH259684   7.913   0.891   0.883
19936TIP3    H159685   7.874   0.823   0.938
19936TIP3    H259686   7.988   0.848   0.841
19937TIP3   OH259687   8.437   0.777   0.795
19937TIP3    H159688   8.478   0.823   0.722
19937TIP3    H259689   8.343   0.793   0.783
19938TIP3   OH259690   8.539   0.874   0.560
19938TIP3    H159691   8.608   0.820   0.520
19938TIP3    H259692   8.567   0.964   0.543
19939TIP3   OH259693   7.612   0.643   0.782
19939TIP3    H159694   7.673   0.690   0.724
19939TIP3    H259695   7.636   0.673   0.870
19940TIP3   OH259696   8.153   0.781   0.767
19940TIP3    H159697   8.156   0.747   0.678
19940TIP3    H259698   8.140   0.704   0.822
19941TIP3   OH259699   8.182   0.697   0.330
19941TIP3    H159700   8.098   0.742   0.337
19941TIP3    H259701   8.170   0.615   0.377
19942TIP3   OH259702   7.104   0.554   0.354
19942TIP3    H159703   7.101   0.538   0.260
19942TIP3    H259704   7.130   0.645   0.362
19943TIP3   OH259705   7.589   0.808   0.415
19943TIP3    H159706   7.648   0.758   0.473
19943TIP3    H259707   7.609   0.899   0.436
19944TIP3   OH259708   0.924   6.853   7.941
19944TIP3    H159709   1.011   6.860   7.903
19944TIP3    H259710   0.870   6.816   7.870
19945TIP3   OH259711   1.625   6.967   8.005
19945TIP3    H159712   1.618   6.872   7.996
19945TIP3    H259713   1.582   7.001   7.926
19946TIP3   OH259714   8.384   2.485   1.197
19946TIP3    H159715   8.307   2.453   1.151
19946TIP3    H259716   8.381   2.580   1.188
19947TIP3   OH259717   3.118   6.488   7.959
19947TIP3    H159718   3.092   6.579   7.942
19947TIP3    H259719   3.043   6.436   7.932
19948TIP3   OH259720   9.649   1.864   0.342
19948TIP3    H159721   9.683   1.838   0.428
19948TIP3    H259722   9.608   1.785   0.308
19949TIP3   OH259723   8.951   1.761   0.707
19949TIP3    H159724   8.978   1.693   0.769
19949TIP3    H259725   9.028   1.818   0.700
19950TIP3   OH259726   0.094   2.170   0.023
19950TIP3    H159727   0.080   2.097   0.084
19950TIP3    H259728   0.122   2.242   0.078
19951TIP3   OH259729   8.921   2.169   0.429
19951TIP3    H159730   8.910   2.074   0.431
19951TIP3    H259731   9.016   2.182   0.430
19952TIP3   OH259732   8.625   1.375   0.215
19952TIP3    H159733   8.569   1.452   0.217
19952TIP3    H259734   8.568   1.305   0.184
19953TIP3   OH259735   8.690   1.661   0.388
19953TIP3    H159736   8.734   1.584   0.425
19953TIP3    H259737   8.742   1.682   0.310
19954TIP3   OH259738   9.544   2.630   0.038
19954TIP3    H159739   9.590   2.561  -0.011
19954TIP3    H259740   9.537   2.595   0.127
19955TIP3   OH259741   9.453   2.093   0.386
19955TIP3    H159742   9.484   2.013   0.343
19955TIP3    H259743   9.533   2.139   0.411
19956TIP3   OH259744   0.661   1.415   0.385
19956TIP3    H159745   0.691   1.494   0.431
19956TIP3    H259746   0.685   1.431   0.293
19957TIP3   OH259747   0.065   1.594   0.419
19957TIP3    H159748   0.104   1.510   0.443
19957TIP3    H259749   0.031   1.580   0.331
19958TIP3   OH259750   9.199   1.253   0.383
19958TIP3    H159751   9.179   1.326   0.324
19958TIP3    H259752   9.155   1.178   0.343
19959TIP3   OH259753   0.097   1.345   0.009
19959TIP3    H159754   0.163   1.327   0.076
19959TIP3    H259755   0.147   1.379  -0.065
19960TIP3   OH259756   8.835   1.453   0.492
19960TIP3    H159757   8.916   1.435   0.541
19960TIP3    H259758   8.843   1.400   0.413
19961TIP3   OH259759   9.275   1.652   0.285
19961TIP3    H159760   9.367   1.628   0.299
19961TIP3    H259761   9.234   1.571   0.255
19962TIP3   OH259762   0.735   1.622   0.556
19962TIP3    H159763   0.652   1.666   0.537
19962TIP3    H259764   0.750   1.638   0.649
19963TIP3   OH259765   9.195   1.237   0.820
19963TIP3    H159766   9.137   1.272   0.752
19963TIP3    H259767   9.148   1.251   0.902
19964TIP3   OH259768   3.013   6.711   7.828
19964TIP3    H159769   2.967   6.681   7.750
19964TIP3    H259770   2.969   6.793   7.853
19965TIP3   OH259771   9.303   2.014   0.616
19965TIP3    H159772   9.240   2.074   0.655
19965TIP3    H259773   9.344   2.064   0.546
19966TIP3   OH259774   0.305   1.347   0.181
19966TIP3    H159775   0.294   1.295   0.260
19966TIP3    H259776   0.358   1.422   0.208
19967TIP3   OH259777   9.069   1.352   0.603
19967TIP3    H159778   9.129   1.423   0.629
19967TIP3    H259779   9.114   1.310   0.530
19968TIP3   OH259780   9.126   2.206   0.714
19968TIP3    H159781   9.104   2.291   0.675
19968TIP3    H259782   9.052   2.185   0.771
19969TIP3   OH259783   1.993   6.515   7.950
19969TIP3    H159784   1.950   6.540   7.868
19969TIP3    H259785   2.024   6.598   7.987
19970TIP3   OH259786   0.163   2.413   0.190
19970TIP3    H159787   0.076   2.400   0.230
19970TIP3    H259788   0.157   2.497   0.145
19971TIP3   OH259789   0.455   1.314   0.552
19971TIP3    H159790   0.368   1.342   0.523
19971TIP3    H259791   0.514   1.344   0.482
19972TIP3   OH259792   9.552   0.956   0.537
19972TIP3    H159793   9.541   0.862   0.550
19972TIP3    H259794   9.477   0.995   0.581
19973TIP3   OH259795   3.138   7.078   7.864
19973TIP3    H159796   3.182   6.995   7.847
19973TIP3    H259797   3.195   7.144   7.824
19974TIP3   OH259798   3.278   6.862   7.772
19974TIP3    H159799   3.233   6.786   7.735
19974TIP3    H259800   3.314   6.830   7.855
19975TIP3   OH259801   0.391   2.326   0.530
19975TIP3    H159802   0.381   2.247   0.476
19975TIP3    H259803   0.377   2.398   0.469
19976TIP3   OH259804   2.948   6.338   7.788
19976TIP3    H159805   2.868   6.387   7.770
19976TIP3    H259806   2.995   6.336   7.705
19977TIP3   OH259807   2.915   6.119   7.495
19977TIP3    H159808   2.982   6.171   7.539
19977TIP3    H259809   2.934   6.028   7.520
19978TIP3   OH259810   0.585   1.963   0.375
19978TIP3    H159811   0.504   2.012   0.385
19978TIP3    H259812   0.615   1.983   0.287
19979TIP3   OH259813   3.298   6.421   7.766
19979TIP3    H159814   3.242   6.445   7.840
19979TIP3    H259815   3.381   6.394   7.807
19980TIP3   OH259816   0.264   1.843   0.672
19980TIP3    H159817   0.264   1.923   0.725
19980TIP3    H259818   0.179   1.843   0.628
19981TIP3   OH259819   9.065   1.799   0.176
19981TIP3    H159820   9.020   1.742   0.113
19981TIP3    H259821   9.138   1.746   0.207
19982TIP3   OH259822   9.197   2.214   0.324
19982TIP3    H159823   9.171   2.165   0.246
19982TIP3    H259824   9.284   2.180   0.345
19983TIP3   OH259825   9.200   1.769   0.532
19983TIP3    H159826   9.232   1.747   0.444
19983TIP3    H259827   9.242   1.853   0.552
19984TIP3   OH259828   9.723   2.407   0.311
19984TIP3    H159829   9.712   2.485   0.366
19984TIP3    H259830   9.711   2.333   0.370
19985TIP3   OH259831   9.333   2.329   0.854
19985TIP3    H159832   9.279   2.389   0.904
19985TIP3    H259833   9.271   2.273   0.807
19986TIP3   OH259834   3.142   6.278   7.588
19986TIP3    H159835   3.197   6.334   7.643
19986TIP3    H259836   3.165   6.301   7.499
19987TIP3   OH259837   9.088   1.889   0.955
19987TIP3    H159838   9.096   1.971   1.004
19987TIP3    H259839   8.997   1.863   0.965
19988TIP3   OH259840   2.880   6.959   7.863
19988TIP3    H159841   2.958   7.010   7.884
19988TIP3    H259842   2.818   7.023   7.827
19989TIP3   OH259843   9.128   2.497   0.944
19989TIP3    H159844   9.094   2.491   0.854
19989TIP3    H259845   9.053   2.476   0.999
19990TIP3   OH259846   3.652   5.524   7.636
19990TIP3    H159847   3.572   5.533   7.688
19990TIP3    H259848   3.660   5.606   7.589
19991TIP3   OH259849   2.392   6.262   7.988
19991TIP3    H159850   2.328   6.303   7.931
19991TIP3    H259851   2.362   6.172   7.997
19992TIP3   OH259852   3.453   6.888   7.185
19992TIP3    H159853   3.459   6.983   7.172
19992TIP3    H259854   3.543   6.857   7.172
19993TIP3   OH259855   8.710   2.023   0.889
19993TIP3    H159856   8.647   1.999   0.821
19993TIP3    H259857   8.748   1.940   0.917
19994TIP3   OH259858   8.565   2.221   0.519
19994TIP3    H159859   8.659   2.205   0.512
19994TIP3    H259860   8.558   2.295   0.580
19995TIP3   OH259861   0.625   2.666   0.577
19995TIP3    H159862   0.630   2.571   0.591
19995TIP3    H259863   0.546   2.693   0.623
19996TIP3   OH259864   9.531   2.458   0.713
19996TIP3    H159865   9.533   2.549   0.745
19996TIP3    H259866   9.463   2.416   0.765
19997TIP3   OH259867   2.759   7.206   7.665
19997TIP3    H159868   2.715   7.184   7.583
19997TIP3    H259869   2.727   7.293   7.687
19998TIP3   OH259870   8.733   2.432   0.052
19998TIP3    H159871   8.781   2.426   0.134
19998TIP3    H259872   8.680   2.353   0.048
19999TIP3   OH259873   2.965   7.104   7.309
19999TIP3    H159874   3.020   7.036   7.271
19999TIP3    H259875   2.996   7.113   7.399
20000TIP3   OH259876   3.012   7.153   7.581
20000TIP3    H159877   2.925   7.161   7.620
20000TIP3    H259878   3.064   7.109   7.648
20001TIP3   OH259879   0.518   1.800   0.850
20001TIP3    H159880   0.437   1.812   0.803
20001TIP3    H259881   0.536   1.706   0.844
20002TIP3   OH259882   8.914   2.208   0.883
20002TIP3    H159883   8.965   2.192   0.962
20002TIP3    H259884   8.842   2.145   0.888
20003TIP3   OH259885   9.311   1.033   0.663
20003TIP3    H159886   9.226   0.999   0.635
20003TIP3    H259887   9.291   1.114   0.710
20004TIP3   OH259888   0.047   1.147   0.858
20004TIP3    H159889   0.115   1.121   0.920
20004TIP3    H259890  -0.036   1.128   0.903
20005TIP3   OH259891   0.286   1.577   0.777
20005TIP3    H159892   0.239   1.571   0.860
20005TIP3    H259893   0.262   1.662   0.742
20006TIP3   OH259894   3.212   6.334   7.333
20006TIP3    H159895   3.180   6.298   7.250
20006TIP3    H259896   3.294   6.378   7.309
20007TIP3   OH259897   9.244   1.548   0.683
20007TIP3    H159898   9.197   1.567   0.764
20007TIP3    H259899   9.230   1.626   0.628
20008TIP3   OH259900   9.127   1.434   0.196
20008TIP3    H159901   9.037   1.407   0.216
20008TIP3    H259902   9.144   1.398   0.109
20009TIP3   OH259903   3.090   6.144   7.924
20009TIP3    H159904   3.034   6.211   7.885
20009TIP3    H259905   3.143   6.111   7.852
20010TIP3   OH259906  -0.004   1.797   1.012
20010TIP3    H159907  -0.030   1.726   1.071
20010TIP3    H259908   0.088   1.812   1.031
20011TIP3   OH259909   9.779   1.547   0.159
20011TIP3    H159910   9.717   1.577   0.093
20011TIP3    H259911   9.814   1.465   0.123
20012TIP3   OH259912   9.063   1.575   0.894
20012TIP3    H159913   9.096   1.636   0.960
20012TIP3    H259914   9.054   1.492   0.940
20013TIP3   OH259915   2.595   5.700   7.604
20013TIP3    H159916   2.596   5.669   7.695
20013TIP3    H259917   2.502   5.716   7.585
20014TIP3   OH259918   8.657   1.097   0.474
20014TIP3    H159919   8.734   1.127   0.522
20014TIP3    H259920   8.691   1.071   0.388
20015TIP3   OH259921   9.789   1.792   0.585
20015TIP3    H159922   9.822   1.724   0.526
20015TIP3    H259923   9.760   1.745   0.663
20016TIP3   OH259924   9.458   1.258   0.258
20016TIP3    H159925   9.374   1.254   0.305
20016TIP3    H259926   9.524   1.253   0.327
20017TIP3   OH259927   8.890   1.309   0.266
20017TIP3    H159928   8.799   1.317   0.238
20017TIP3    H259929   8.914   1.219   0.243
20018TIP3   OH259930   2.628   5.937   7.954
20018TIP3    H159931   2.720   5.937   7.929
20018TIP3    H259932   2.581   5.952   7.872
20019TIP3   OH259933   0.145   1.330   0.459
20019TIP3    H159934   0.115   1.344   0.549
20019TIP3    H259935   0.082   1.269   0.422
20020TIP3   OH259936   2.461   5.966   7.735
20020TIP3    H159937   2.385   5.922   7.698
20020TIP3    H259938   2.515   5.989   7.659
20021TIP3   OH259939   0.319   3.022   0.677
20021TIP3    H159940   0.318   3.042   0.584
20021TIP3    H259941   0.398   3.066   0.710
20022TIP3   OH259942   9.076   2.134   1.102
20022TIP3    H159943   9.157   2.161   1.147
20022TIP3    H259944   9.011   2.127   1.172
20023TIP3   OH259945   9.542   1.584   0.357
20023TIP3    H159946   9.610   1.540   0.306
20023TIP3    H259947   9.547   1.543   0.443
20024TIP3   OH259948   9.067   1.070   0.231
20024TIP3    H159949   9.032   0.993   0.275
20024TIP3    H259950   9.113   1.035   0.155
20025TIP3   OH259951   9.517   1.482   0.642
20025TIP3    H159952   9.428   1.515   0.658
20025TIP3    H259953   9.573   1.540   0.694
20026TIP3   OH259954   2.717   6.491   7.742
20026TIP3    H159955   2.650   6.424   7.730
20026TIP3    H259956   2.702   6.524   7.831
20027TIP3   OH259957   0.353   2.108   0.367
20027TIP3    H159958   0.377   2.156   0.288
20027TIP3    H259959   0.270   2.066   0.346
20028TIP3   OH259960   3.161   5.826   7.570
20028TIP3    H159961   3.085   5.781   7.606
20028TIP3    H259962   3.175   5.901   7.628
20029TIP3   OH259963   9.658   2.193   0.736
20029TIP3    H159964   9.674   2.161   0.825
20029TIP3    H259965   9.613   2.276   0.748
20030TIP3   OH259966   3.250   6.048   7.708
20030TIP3    H159967   3.344   6.051   7.725
20030TIP3    H259968   3.233   6.126   7.655
20031TIP3   OH259969   8.949   1.895   0.414
20031TIP3    H159970   8.984   1.865   0.330
20031TIP3    H259971   8.982   1.832   0.478
20032TIP3   OH259972   2.862   6.640   7.561
20032TIP3    H159973   2.819   6.725   7.567
20032TIP3    H259974   2.811   6.584   7.620
20033TIP3   OH259975   8.826   1.816   1.030
20033TIP3    H159976   8.854   1.805   1.121
20033TIP3    H259977   8.761   1.747   1.017
20034TIP3   OH259978   9.552   1.927   1.043
20034TIP3    H159979   9.492   1.867   1.001
20034TIP3    H259980   9.639   1.894   1.020
20035TIP3   OH259981   9.812   2.458   0.628
20035TIP3    H159982   9.718   2.447   0.641
20035TIP3    H259983   9.841   2.503   0.708
20036TIP3   OH259984   3.690   6.142   7.543
20036TIP3    H159985   3.629   6.093   7.487
20036TIP3    H259986   3.692   6.230   7.506
20037TIP3   OH259987   0.640   2.378   0.619
20037TIP3    H159988   0.544   2.373   0.616
20037TIP3    H259989   0.668   2.348   0.533
20038TIP3   OH259990   3.391   6.958   7.451
20038TIP3    H159991   3.365   6.891   7.513
20038TIP3    H259992   3.401   6.912   7.368
20039TIP3   OH259993   0.118   1.967   0.286
20039TIP3    H159994   0.027   1.944   0.302
20039TIP3    H259995   0.155   1.890   0.243
20040TIP3   OH259996   9.044   2.196   0.038
20040TIP3    H159997   9.045   2.277  -0.014
20040TIP3    H259998   8.952   2.177   0.051
20041TIP3   OH259999   2.076   6.128   7.743
20041TIP3    H160000   2.125   6.207   7.767
20041TIP3    H260001   2.000   6.128   7.801
20042TIP3   OH260002   9.187   1.964  -0.014
20042TIP3    H160003   9.151   2.051   0.003
20042TIP3    H260004   9.153   1.909   0.057
20043TIP3   OH260005   9.317   2.541   0.510
20043TIP3    H160006   9.358   2.611   0.460
20043TIP3    H260007   9.389   2.502   0.561
20044TIP3   OH260008   2.429   7.059   7.893
20044TIP3    H160009   2.346   7.061   7.941
20044TIP3    H260010   2.461   7.149   7.897
20045TIP3   OH260011   9.707   2.174   0.468
20045TIP3    H160012   9.695   2.175   0.563
20045TIP3    H260013   9.784   2.119   0.454
20046TIP3   OH260014   3.144   6.688   7.355
20046TIP3    H160015   3.199   6.663   7.429
20046TIP3    H260016   3.056   6.660   7.380
20047TIP3   OH260017   0.151   2.709   0.520
20047TIP3    H160018   0.077   2.648   0.517
20047TIP3    H260019   0.134   2.770   0.448
20048TIP3   OH260020   3.484   7.165   7.172
20048TIP3    H160021   3.522   7.233   7.116
20048TIP3    H260022   3.404   7.205   7.207
20049TIP3   OH260023   9.039   1.318   1.036
20049TIP3    H160024   8.945   1.321   1.052
20049TIP3    H260025   9.073   1.262   1.107
20050TIP3   OH260026   3.307   6.619   7.568
20050TIP3    H160027   3.292   6.555   7.639
20050TIP3    H260028   3.402   6.618   7.555
20051TIP3   OH260029   8.755   2.403   0.671
20051TIP3    H160030   8.805   2.325   0.697
20051TIP3    H260031   8.781   2.471   0.733
20052TIP3   OH260032   2.510   6.666   7.352
20052TIP3    H160033   2.525   6.577   7.321
20052TIP3    H260034   2.492   6.655   7.446
20053TIP3   OH260035   2.456   6.675   7.625
20053TIP3    H160036   2.525   6.640   7.682
20053TIP3    H260037   2.463   6.770   7.633
20054TIP3   OH260038   2.195   6.371   7.828
20054TIP3    H160039   2.127   6.408   7.885
20054TIP3    H260040   2.209   6.439   7.762
20055TIP3   OH260041   0.075   1.381   0.718
20055TIP3    H160042   0.153   1.421   0.758
20055TIP3    H260043   0.059   1.303   0.770
20056TIP3   OH260044   3.224   5.759   7.884
20056TIP3    H160045   3.210   5.785   7.793
20056TIP3    H260046   3.263   5.836   7.925
20057TIP3   OH260047   2.721   6.872   7.573
20057TIP3    H160048   2.636   6.897   7.610
20057TIP3    H260049   2.739   6.939   7.507
20058TIP3   OH260050   9.451   1.314  -0.017
20058TIP3    H160051   9.512   1.387  -0.031
20058TIP3    H260052   9.448   1.304   0.078
20059TIP3   OH260053   9.716   1.634   0.794
20059TIP3    H160054   9.733   1.687   0.872
20059TIP3    H260055   9.768   1.555   0.807
20060TIP3   OH260056   9.595   1.045   0.090
20060TIP3    H160057   9.580   1.120   0.146
20060TIP3    H260058   9.652   1.078   0.020
20061TIP3   OH260059   2.466   6.950   7.640
20061TIP3    H160060   2.435   7.016   7.578
20061TIP3    H260061   2.450   6.988   7.726
20062TIP3   OH260062   2.564   5.653   7.880
20062TIP3    H160063   2.554   5.743   7.911
20062TIP3    H260064   2.658   5.634   7.892
20063TIP3   OH260065   0.552   1.533   0.769
20063TIP3    H160066   0.457   1.534   0.782
20063TIP3    H260067   0.565   1.487   0.686
20064TIP3   OH260068   0.205   1.726   0.162
20064TIP3    H160069   0.129   1.669   0.174
20064TIP3    H260070   0.276   1.682   0.208
20065TIP3   OH260071   2.187   6.579   7.629
20065TIP3    H160072   2.255   6.646   7.643
20065TIP3    H260073   2.226   6.519   7.566
20066TIP3   OH260074   2.121   5.851   7.728
20066TIP3    H160075   2.115   5.944   7.749
20066TIP3    H260076   2.067   5.808   7.794
20067TIP3   OH260077   0.174   2.686   0.109
20067TIP3    H160078   0.129   2.730   0.036
20067TIP3    H260079   0.267   2.701   0.092
20068TIP3   OH260080   9.049   0.950   0.639
20068TIP3    H160081   9.019   0.919   0.553
20068TIP3    H260082   9.038   0.875   0.697
20069TIP3   OH260083   8.593   2.181   0.020
20069TIP3    H160084   8.518   2.202   0.076
20069TIP3    H260085   8.567   2.213  -0.066
20070TIP3   OH260086   8.746   2.703   1.088
20070TIP3    H160087   8.830   2.707   1.133
20070TIP3    H260088   8.725   2.610   1.084
20071TIP3   OH260089   9.229   2.681   1.128
20071TIP3    H160090   9.320   2.656   1.146
20071TIP3    H260091   9.201   2.621   1.059
20072TIP3   OH260092   2.675   6.869   7.266
20072TIP3    H160093   2.618   6.801   7.304
20072TIP3    H260094   2.750   6.820   7.234
20073TIP3   OH260095   0.068   2.581   0.868
20073TIP3    H160096   0.056   2.512   0.934
20073TIP3    H260097   0.143   2.631   0.899
20074TIP3   OH260098   3.113   6.913   7.176
20074TIP3    H160099   3.153   6.849   7.235
20074TIP3    H260100   3.168   6.911   7.097
20075TIP3   OH260101   8.873   2.117   1.289
20075TIP3    H160102   8.894   2.024   1.302
20075TIP3    H260103   8.788   2.116   1.245
20076TIP3   OH260104   2.321   6.390   7.484
20076TIP3    H160105   2.367   6.349   7.557
20076TIP3    H260106   2.387   6.395   7.414
20077TIP3   OH260107   9.485   2.202   1.062
20077TIP3    H160108   9.442   2.215   0.978
20077TIP3    H260109   9.516   2.111   1.060
20078TIP3   OH260110   2.826   6.586   7.293
20078TIP3    H160111   2.830   6.601   7.388
20078TIP3    H260112   2.825   6.491   7.283
20079TIP3   OH260113   0.177   2.210   0.668
20079TIP3    H160114   0.250   2.255   0.627
20079TIP3    H260115   0.102   2.270   0.658
20080TIP3   OH260116   8.999   1.848   1.267
20080TIP3    H160117   9.068   1.782   1.254
20080TIP3    H260118   9.017   1.884   1.354
20081TIP3   OH260119   2.531   6.289   7.711
20081TIP3    H160120   2.499   6.249   7.792
20081TIP3    H260121   2.562   6.215   7.659
20082TIP3   OH260122   9.328   1.736   0.931
20082TIP3    H160123   9.253   1.795   0.938
20082TIP3    H260124   9.377   1.768   0.856
20083TIP3   OH260125   2.628   6.090   7.544
20083TIP3    H160126   2.592   6.080   7.456
20083TIP3    H260127   2.722   6.101   7.531
20084TIP3   OH260128   0.049   2.138   1.068
20084TIP3    H160129   0.129   2.114   1.022
20084TIP3    H260130   0.041   2.074   1.139
20085TIP3   OH260131   3.450   6.419   7.207
20085TIP3    H160132   3.428   6.370   7.128
20085TIP3    H260133   3.419   6.508   7.189
20086TIP3   OH260134   9.454   1.523   1.057
20086TIP3    H160135   9.452   1.443   1.004
20086TIP3    H260136   9.410   1.589   1.003
20087TIP3   OH260137   9.455   1.310   0.864
20087TIP3    H160138   9.483   1.350   0.781
20087TIP3    H260139   9.363   1.287   0.849
20088TIP3   OH260140   9.483   1.847   0.738
20088TIP3    H160141   9.566   1.852   0.691
20088TIP3    H260142   9.428   1.913   0.696
20089TIP3   OH260143   0.267   1.812   1.121
20089TIP3    H160144   0.311   1.729   1.137
20089TIP3    H260145   0.336   1.870   1.088
20090TIP3   OH260146   0.308   2.068   0.856
20090TIP3    H160147   0.248   2.118   0.800
20090TIP3    H260148   0.394   2.084   0.819
20091TIP3   OH260149   9.330   1.640   1.282
20091TIP3    H160150   9.259   1.579   1.304
20091TIP3    H260151   9.366   1.606   1.200
20092TIP3   OH260152   9.585   1.075   0.934
20092TIP3    H160153   9.540   1.157   0.913
20092TIP3    H260154   9.518   1.007   0.924
20093TIP3   OH260155   9.711   1.579   1.153
20093TIP3    H160156   9.703   1.570   1.248
20093TIP3    H260157   9.624   1.556   1.119
20094TIP3   OH260158   0.152   1.527   1.007
20094TIP3    H160159   0.077   1.529   1.067
20094TIP3    H260160   0.225   1.498   1.061
20095TIP3   OH260161   0.381   1.467   1.157
20095TIP3    H160162   0.394   1.374   1.175
20095TIP3    H260163   0.377   1.508   1.243
20096TIP3   OH260164   9.168   1.421   1.329
20096TIP3    H160165   9.174   1.330   1.300
20096TIP3    H260166   9.209   1.420   1.416
20097TIP3   OH260167   9.682   1.081   1.191
20097TIP3    H160168   9.750   1.014   1.185
20097TIP3    H260169   9.640   1.079   1.105
20098TIP3   OH260170   9.747   1.305   1.342
20098TIP3    H160171   9.724   1.234   1.282
20098TIP3    H260172   9.670   1.362   1.342
20099TIP3   OH260173   2.437   7.155   7.451
20099TIP3    H160174   2.531   7.143   7.437
20099TIP3    H260175   2.405   7.197   7.372
20100TIP3   OH260176   1.916   6.531   7.665
20100TIP3    H160177   2.009   6.552   7.654
20100TIP3    H260178   1.908   6.442   7.630
20101TIP3   OH260179   8.362   2.520   0.080
20101TIP3    H160180   8.295   2.461   0.046
20101TIP3    H260181   8.408   2.469   0.147
20102TIP3   OH260182   8.496   2.377   0.272
20102TIP3    H160183   8.487   2.299   0.327
20102TIP3    H260184   8.548   2.438   0.325
20103TIP3   OH260185   0.425   2.780   0.067
20103TIP3    H160186   0.451   2.805   0.155
20103TIP3    H260187   0.491   2.820   0.010
20104TIP3   OH260188   0.458   2.791   0.349
20104TIP3    H160189   0.410   2.708   0.344
20104TIP3    H260190   0.531   2.773   0.407
20105TIP3   OH260191   0.500   2.474   0.921
20105TIP3    H160192   0.429   2.478   0.986
20105TIP3    H260193   0.542   2.559   0.927
20106TIP3   OH260194   3.587   6.604   7.545
20106TIP3    H160195   3.654   6.666   7.516
20106TIP3    H260196   3.625   6.564   7.624
20107TIP3   OH260197   3.711   6.473   7.750
20107TIP3    H160198   3.647   6.430   7.806
20107TIP3    H260199   3.776   6.508   7.810
20108TIP3   OH260200   0.499   2.243   0.175
20108TIP3    H160201   0.553   2.178   0.130
20108TIP3    H260202   0.488   2.314   0.111
20109TIP3   OH260203   0.329   2.546   0.371
20109TIP3    H160204   0.261   2.583   0.426
20109TIP3    H260205   0.282   2.496   0.304
20110TIP3   OH260206   3.648   6.381   7.393
20110TIP3    H160207   3.579   6.381   7.327
20110TIP3    H260208   3.625   6.453   7.452
20111TIP3   OH260209   3.525   6.053   7.354
20111TIP3    H160210   3.497   6.099   7.274
20111TIP3    H260211   3.493   5.964   7.341
20112TIP3   OH260212   3.527   6.326   7.896
20112TIP3    H160213   3.535   6.231   7.889
20112TIP3    H260214   3.513   6.342   7.989
20113TIP3   OH260215   8.688   1.784   0.637
20113TIP3    H160216   8.683   1.752   0.547
20113TIP3    H260217   8.781   1.785   0.657
20114TIP3   OH260218   0.551   2.132   0.747
20114TIP3    H160219   0.620   2.066   0.741
20114TIP3    H260220   0.579   2.201   0.687
20115TIP3   OH260221   0.735   1.936   0.768
20115TIP3    H160222   0.660   1.890   0.805
20115TIP3    H260223   0.809   1.877   0.781
20116TIP3   OH260224   3.463   5.786   7.326
20116TIP3    H160225   3.546   5.771   7.371
20116TIP3    H260226   3.400   5.729   7.371
20117TIP3   OH260227   3.524   6.040   7.788
20117TIP3    H160228   3.560   5.953   7.806
20117TIP3    H260229   3.582   6.076   7.721
20118TIP3   OH260230   0.420   1.601   0.283
20118TIP3    H160231   0.503   1.624   0.241
20118TIP3    H260232   0.429   1.633   0.372
20119TIP3   OH260233   0.485   1.743   0.514
20119TIP3    H160234   0.408   1.774   0.563
20119TIP3    H260235   0.518   1.821   0.471
20120TIP3   OH260236   8.904   1.474   1.306
20120TIP3    H160237   9.000   1.473   1.311
20120TIP3    H260238   8.877   1.392   1.347
20121TIP3   OH260239   0.934   1.329   1.068
20121TIP3    H160240   0.995   1.266   1.031
20121TIP3    H260241   0.911   1.387   0.994
20122TIP3   OH260242   3.631   5.791   7.828
20122TIP3    H160243   3.679   5.779   7.909
20122TIP3    H260244   3.570   5.717   7.825
20123TIP3   OH260245   8.867   1.160   0.649
20123TIP3    H160246   8.924   1.084   0.656
20123TIP3    H260247   8.927   1.234   0.639
20124TIP3   OH260248   8.669   1.436   0.716
20124TIP3    H160249   8.715   1.423   0.633
20124TIP3    H260250   8.703   1.519   0.749
20125TIP3   OH260251   0.809   1.475   0.873
20125TIP3    H160252   0.725   1.514   0.899
20125TIP3    H260253   0.784   1.400   0.818
20126TIP3   OH260254   3.708   5.737   7.446
20126TIP3    H160255   3.749   5.659   7.408
20126TIP3    H260256   3.779   5.801   7.451
20127TIP3   OH260257   8.640   0.955   0.207
20127TIP3    H160258   8.556   0.940   0.249
20127TIP3    H260259   8.619   1.007   0.130
20128TIP3   OH260260   3.276   7.263   7.724
20128TIP3    H160261   3.326   7.246   7.644
20128TIP3    H260262   3.331   7.324   7.774
20129TIP3   OH260263   8.875   1.025   1.028
20129TIP3    H160264   8.825   1.014   1.109
20129TIP3    H260265   8.811   1.055   0.964
20130TIP3   OH260266   8.910   2.448   1.112
20130TIP3    H160267   8.822   2.414   1.096
20130TIP3    H260268   8.929   2.422   1.202
20131TIP3   OH260269   9.088   2.478   0.655
20131TIP3    H160270   9.039   2.551   0.620
20131TIP3    H260271   9.175   2.486   0.615
20132TIP3   OH260272   9.537   2.724   0.797
20132TIP3    H160273   9.575   2.721   0.885
20132TIP3    H260274   9.601   2.773   0.745
20133TIP3   OH260275   9.716   2.874   0.652
20133TIP3    H160276   9.783   2.819   0.613
20133TIP3    H260277   9.764   2.929   0.714
20134TIP3   OH260278   0.707   1.233   0.753
20134TIP3    H160279   0.617   1.228   0.722
20134TIP3    H260280   0.741   1.144   0.744
20135TIP3   OH260281   8.766   2.738   0.680
20135TIP3    H160282   8.678   2.768   0.657
20135TIP3    H260283   8.780   2.770   0.769
20136TIP3   OH260284   9.001   2.715   0.538
20136TIP3    H160285   8.918   2.725   0.584
20136TIP3    H260286   8.982   2.744   0.449
20137TIP3   OH260287   9.429   2.745   0.334
20137TIP3    H160288   9.358   2.762   0.272
20137TIP3    H260289   9.441   2.828   0.380
20138TIP3   OH260290   9.696   2.683   0.386
20138TIP3    H160291   9.603   2.697   0.367
20138TIP3    H260292   9.739   2.760   0.348
20139TIP3   OH260293   0.107   2.875   0.302
20139TIP3    H160294   0.091   2.958   0.255
20139TIP3    H260295   0.130   2.813   0.234
20140TIP3   OH260296   8.680   2.526   0.428
20140TIP3    H160297   8.703   2.503   0.518
20140TIP3    H260298   8.747   2.484   0.375
20141TIP3   OH260299   8.873   2.398   0.283
20141TIP3    H160300   8.884   2.315   0.330
20141TIP3    H260301   8.961   2.435   0.279
20142TIP3   OH260302   9.140   2.493   0.286
20142TIP3    H160303   9.167   2.402   0.271
20142TIP3    H260304   9.180   2.516   0.370
20143TIP3   OH260305   9.713   1.150   0.376
20143TIP3    H160306   9.668   1.083   0.427
20143TIP3    H260307   9.780   1.102   0.327
20144TIP3   OH260308   0.437   1.031   0.277
20144TIP3    H160309   0.472   1.082   0.204
20144TIP3    H260310   0.342   1.046   0.272
20145TIP3   OH260311   0.534   1.134   0.040
20145TIP3    H160312   0.603   1.080   0.003
20145TIP3    H260313   0.564   1.224   0.027
20146TIP3   OH260314   8.961   0.857   0.391
20146TIP3    H160315   8.870   0.829   0.390
20146TIP3    H260316   9.011   0.776   0.386
20147TIP3   OH260317   8.754   0.729   0.039
20147TIP3    H160318   8.775   0.780  -0.039
20147TIP3    H260319   8.715   0.792   0.100
20148TIP3   OH260320   9.407   0.890   0.272
20148TIP3    H160321   9.460   0.938   0.210
20148TIP3    H260322   9.427   0.930   0.357
20149TIP3   OH260323   0.155   1.035   0.253
20149TIP3    H160324   0.147   1.000   0.164
20149TIP3    H260325   0.141   0.960   0.310
20150TIP3   OH260326   3.447   5.578   7.819
20150TIP3    H160327   3.361   5.618   7.827
20150TIP3    H260328   3.438   5.493   7.863
20151TIP3   OH260329   1.931   6.917   7.815
20151TIP3    H160330   1.849   6.879   7.783
20151TIP3    H260331   1.919   7.012   7.808
20152TIP3   OH260332   2.334   5.504   7.804
20152TIP3    H160333   2.379   5.444   7.745
20152TIP3    H260334   2.404   5.559   7.840
20153TIP3   OH260335   2.828   5.678   7.931
20153TIP3    H160336   2.902   5.626   7.962
20153TIP3    H260337   2.859   5.769   7.933
20154TIP3   OH260338   2.704   7.109   7.396
20154TIP3    H160339   2.792   7.131   7.366
20154TIP3    H260340   2.679   7.033   7.342
20155TIP3   OH260341   3.423   7.224   7.492
20155TIP3    H160342   3.416   7.129   7.483
20155TIP3    H260343   3.379   7.259   7.414
20156TIP3   OH260344   9.167   1.139   1.277
20156TIP3    H160345   9.136   1.065   1.329
20156TIP3    H260346   9.261   1.145   1.298
20157TIP3   OH260347   9.419   1.130   1.379
20157TIP3    H160348   9.508   1.111   1.347
20157TIP3    H260349   9.410   1.077   1.458
20158TIP3   OH260350   2.013   6.952   7.461
20158TIP3    H160351   2.007   6.961   7.557
20158TIP3    H260352   2.096   6.907   7.447
20159TIP3   OH260353   0.444   1.197   1.188
20159TIP3    H160354   0.462   1.167   1.277
20159TIP3    H260355   0.530   1.194   1.145
20160TIP3   OH260356   0.381   2.753   0.677
20160TIP3    H160357   0.304   2.717   0.634
20160TIP3    H260358   0.363   2.847   0.685
20161TIP3   OH260359   4.915   6.744   7.447
20161TIP3    H160360   4.888   6.834   7.430
20161TIP3    H260361   4.841   6.691   7.417
20162TIP3   OH260362   4.909   6.741   7.832
20162TIP3    H160363   4.945   6.715   7.917
20162TIP3    H260364   4.872   6.661   7.796
20163TIP3   OH260365   0.947   2.018   0.193
20163TIP3    H160366   0.973   1.950   0.255
20163TIP3    H260367   1.025   2.074   0.186
20164TIP3   OH260368   5.154   7.047   7.512
20164TIP3    H160369   5.145   6.973   7.571
20164TIP3    H260370   5.187   7.118   7.567
20165TIP3   OH260371   4.184   7.045   7.916
20165TIP3    H160372   4.171   6.950   7.919
20165TIP3    H260373   4.279   7.057   7.921
20166TIP3   OH260374   3.890   6.255   7.704
20166TIP3    H160375   3.843   6.337   7.720
20166TIP3    H260376   3.823   6.195   7.670
20167TIP3   OH260377   3.953   6.536   7.874
20167TIP3    H160378   3.997   6.461   7.913
20167TIP3    H260379   4.011   6.564   7.804
20168TIP3   OH260380   4.797   7.499   7.522
20168TIP3    H160381   4.852   7.434   7.479
20168TIP3    H260382   4.801   7.476   7.615
20169TIP3   OH260383   4.717   6.969   7.874
20169TIP3    H160384   4.749   6.888   7.834
20169TIP3    H260385   4.796   7.016   7.900
20170TIP3   OH260386   5.722   6.292   7.872
20170TIP3    H160387   5.753   6.370   7.917
20170TIP3    H260388   5.749   6.304   7.781
20171TIP3   OH260389   5.125   6.471   7.908
20171TIP3    H160390   5.167   6.388   7.933
20171TIP3    H260391   5.095   6.455   7.818
20172TIP3   OH260392   4.459   6.130   7.873
20172TIP3    H160393   4.443   6.202   7.812
20172TIP3    H260394   4.415   6.055   7.832
20173TIP3   OH260395   5.159   6.220   7.496
20173TIP3    H160396   5.225   6.203   7.563
20173TIP3    H260397   5.209   6.255   7.422
20174TIP3   OH260398   4.099   6.331   7.979
20174TIP3    H160399   4.178   6.313   8.030
20174TIP3    H260400   4.108   6.276   7.901
20175TIP3   OH260401   4.539   6.528   7.774
20175TIP3    H160402   4.631   6.505   7.788
20175TIP3    H260403   4.499   6.446   7.743
20176TIP3   OH260404   2.530   1.878   0.043
20176TIP3    H160405   2.448   1.922   0.023
20176TIP3    H260406   2.545   1.894   0.136
20177TIP3   OH260407   1.191   1.494   0.307
20177TIP3    H160408   1.132   1.529   0.239
20177TIP3    H260409   1.144   1.508   0.389
20178TIP3   OH260410   4.806   6.965   7.317
20178TIP3    H160411   4.766   6.935   7.236
20178TIP3    H260412   4.765   7.050   7.334
20179TIP3   OH260413   1.299   2.270   0.102
20179TIP3    H160414   1.237   2.331   0.141
20179TIP3    H260415   1.342   2.321   0.034
20180TIP3   OH260416   5.366   6.225   7.669
20180TIP3    H160417   5.363   6.168   7.747
20180TIP3    H260418   5.422   6.298   7.695
20181TIP3   OH260419   1.065   1.610   0.090
20181TIP3    H160420   1.125   1.679   0.117
20181TIP3    H260421   1.110   1.566   0.018
20182TIP3   OH260422   1.122   2.463   0.199
20182TIP3    H160423   1.101   2.549   0.163
20182TIP3    H260424   1.048   2.443   0.257
20183TIP3   OH260425   3.790   6.772   7.436
20183TIP3    H160426   3.747   6.797   7.354
20183TIP3    H260427   3.820   6.855   7.474
20184TIP3   OH260428   5.225   7.289   7.679
20184TIP3    H160429   5.138   7.277   7.717
20184TIP3    H260430   5.220   7.373   7.634
20185TIP3   OH260431   2.251   1.573   0.039
20185TIP3    H160432   2.164   1.599   0.008
20185TIP3    H260433   2.311   1.602  -0.031
20186TIP3   OH260434   1.546   1.210   0.020
20186TIP3    H160435   1.541   1.117   0.040
20186TIP3    H260436   1.471   1.248   0.066
20187TIP3   OH260437   4.937   7.334   7.354
20187TIP3    H160438   4.979   7.251   7.335
20187TIP3    H260439   4.994   7.400   7.313
20188TIP3   OH260440   5.071   7.118   7.259
20188TIP3    H160441   5.040   7.039   7.216
20188TIP3    H260442   5.107   7.087   7.343
20189TIP3   OH260443   5.454   7.202   8.019
20189TIP3    H160444   5.443   7.124   7.964
20189TIP3    H260445   5.439   7.275   7.959
20190TIP3   OH260446   4.745   6.596   7.276
20190TIP3    H160447   4.665   6.644   7.252
20190TIP3    H260448   4.793   6.589   7.194
20191TIP3   OH260449   4.707   6.379   6.995
20191TIP3    H160450   4.772   6.429   7.044
20191TIP3    H260451   4.758   6.313   6.947
20192TIP3   OH260452   5.648   6.840   7.865
20192TIP3    H160453   5.566   6.889   7.873
20192TIP3    H260454   5.678   6.859   7.776
20193TIP3   OH260455   5.094   6.678   7.253
20193TIP3    H160456   5.039   6.701   7.328
20193TIP3    H260457   5.176   6.649   7.292
20194TIP3   OH260458   2.059   2.099   0.159
20194TIP3    H160459   2.060   2.179   0.211
20194TIP3    H260460   1.975   2.100   0.114
20195TIP3   OH260461   4.329   6.674   7.665
20195TIP3    H160462   4.285   6.618   7.601
20195TIP3    H260463   4.402   6.622   7.697
20196TIP3   OH260464   4.462   7.091   7.810
20196TIP3    H160465   4.435   7.036   7.737
20196TIP3    H260466   4.549   7.058   7.835
20197TIP3   OH260467   4.461   6.647   8.019
20197TIP3    H160468   4.496   6.623   7.933
20197TIP3    H260469   4.505   6.729   8.041
20198TIP3   OH260470   4.983   7.283   7.797
20198TIP3    H160471   4.975   7.361   7.853
20198TIP3    H260472   4.972   7.210   7.858
20199TIP3   OH260473   1.330   2.585   0.341
20199TIP3    H160474   1.275   2.646   0.391
20199TIP3    H260475   1.268   2.529   0.294
20200TIP3   OH260476   4.934   6.539   7.075
20200TIP3    H160477   4.992   6.593   7.129
20200TIP3    H260478   4.959   6.559   6.985
20201TIP3   OH260479   1.083   2.145   0.442
20201TIP3    H160480   1.091   2.228   0.489
20201TIP3    H260481   0.992   2.119   0.453
20202TIP3   OH260482   4.682   7.221   7.333
20202TIP3    H160483   4.757   7.265   7.372
20202TIP3    H260484   4.608   7.279   7.352
20203TIP3   OH260485   1.124   2.752   0.430
20203TIP3    H160486   1.091   2.748   0.341
20203TIP3    H260487   1.049   2.732   0.485
20204TIP3   OH260488   5.447   5.779   7.123
20204TIP3    H160489   5.369   5.794   7.176
20204TIP3    H260490   5.460   5.860   7.075
20205TIP3   OH260491   4.189   6.519   7.472
20205TIP3    H160492   4.124   6.559   7.415
20205TIP3    H260493   4.157   6.430   7.487
20206TIP3   OH260494   5.250   7.145   6.673
20206TIP3    H160495   5.257   7.239   6.658
20206TIP3    H260496   5.340   7.113   6.660
20207TIP3   OH260497   0.706   2.280   0.376
20207TIP3    H160498   0.642   2.256   0.310
20207TIP3    H260499   0.744   2.196   0.404
20208TIP3   OH260500   0.561   2.479   0.004
20208TIP3    H160501   0.656   2.463   0.001
20208TIP3    H260502   0.551   2.551   0.066
20209TIP3   OH260503   2.422   2.923   0.065
20209TIP3    H160504   2.426   2.828   0.078
20209TIP3    H260505   2.342   2.950   0.110
20210TIP3   OH260506   1.527   2.715   0.200
20210TIP3    H160507   1.530   2.805   0.232
20210TIP3    H260508   1.459   2.673   0.253
20211TIP3   OH260509   4.494   7.484   7.130
20211TIP3    H160510   4.498   7.428   7.053
20211TIP3    H260511   4.581   7.524   7.135
20212TIP3   OH260512   3.999   7.306   7.538
20212TIP3    H160513   4.041   7.300   7.624
20212TIP3    H260514   3.941   7.230   7.536
20213TIP3   OH260515   4.762   7.359   6.796
20213TIP3    H160516   4.817   7.292   6.756
20213TIP3    H260517   4.797   7.368   6.885
20214TIP3   OH260518   4.793   7.410   7.085
20214TIP3    H160519   4.730   7.357   7.133
20214TIP3    H260520   4.878   7.387   7.123
20215TIP3   OH260521   2.314   2.056   0.338
20215TIP3    H160522   2.233   2.068   0.288
20215TIP3    H260523   2.333   1.963   0.331
20216TIP3   OH260524   0.910   2.465   0.369
20216TIP3    H160525   0.961   2.449   0.448
20216TIP3    H260526   0.838   2.401   0.374
20217TIP3   OH260527   1.306   1.290   0.148
20217TIP3    H160528   1.221   1.256   0.122
20217TIP3    H260529   1.286   1.370   0.196
20218TIP3   OH260530   1.844   1.404   0.346
20218TIP3    H160531   1.912   1.375   0.406
20218TIP3    H260532   1.762   1.383   0.390
20219TIP3   OH260533   2.082   1.833   0.264
20219TIP3    H160534   2.035   1.828   0.347
20219TIP3    H260535   2.059   1.919   0.228
20220TIP3   OH260536   5.010   6.587   6.819
20220TIP3    H160537   4.975   6.557   6.736
20220TIP3    H260538   5.093   6.630   6.796
20221TIP3   OH260539   4.720   5.957   7.124
20221TIP3    H160540   4.692   5.957   7.215
20221TIP3    H260541   4.687   5.875   7.087
20222TIP3   OH260542   1.240   1.806   0.169
20222TIP3    H160543   1.192   1.824   0.250
20222TIP3    H260544   1.225   1.883   0.115
20223TIP3   OH260545   4.389   6.309   7.682
20223TIP3    H160546   4.300   6.283   7.703
20223TIP3    H260547   4.407   6.270   7.597
20224TIP3   OH260548   4.884   6.397   7.410
20224TIP3    H160549   4.831   6.466   7.370
20224TIP3    H260550   4.938   6.364   7.338
20225TIP3   OH260551   1.792   2.055   0.500
20225TIP3    H160552   1.767   1.983   0.558
20225TIP3    H260553   1.885   2.068   0.517
20226TIP3   OH260554   5.040   6.423   7.647
20226TIP3    H160555   4.980   6.453   7.579
20226TIP3    H260556   5.077   6.342   7.612
20227TIP3   OH260557   1.059   1.832   0.380
20227TIP3    H160558   1.091   1.893   0.446
20227TIP3    H260559   1.048   1.749   0.427
20228TIP3   OH260560   4.375   5.931   7.089
20228TIP3    H160561   4.373   5.925   7.184
20228TIP3    H260562   4.296   5.980   7.066
20229TIP3   OH260563   3.923   5.977   7.956
20229TIP3    H160564   3.995   6.006   8.011
20229TIP3    H260565   3.965   5.938   7.879
20230TIP3   OH260566   3.893   5.956   7.477
20230TIP3    H160567   3.943   5.990   7.402
20230TIP3    H260568   3.834   6.028   7.501
20231TIP3   OH260569   1.784   2.049   0.072
20231TIP3    H160570   1.816   1.981   0.013
20231TIP3    H260571   1.755   2.001   0.150
20232TIP3   OH260572   4.718   6.139   7.748
20232TIP3    H160573   4.638   6.131   7.801
20232TIP3    H260574   4.789   6.126   7.811
20233TIP3   OH260575   4.154   6.186   7.752
20233TIP3    H160576   4.062   6.192   7.727
20233TIP3    H260577   4.179   6.096   7.732
20234TIP3   OH260578   4.424   6.185   7.441
20234TIP3    H160579   4.517   6.196   7.424
20234TIP3    H260580   4.381   6.207   7.358
20235TIP3   OH260581   5.209   6.209   7.950
20235TIP3    H160582   5.176   6.220   8.039
20235TIP3    H260583   5.151   6.145   7.910
20236TIP3   OH260584   4.261   6.221   7.217
20236TIP3    H160585   4.190   6.174   7.174
20236TIP3    H260586   4.315   6.254   7.146
20237TIP3   OH260587   2.115   3.279   0.164
20237TIP3    H160588   2.114   3.300   0.070
20237TIP3    H260589   2.193   3.322   0.197
20238TIP3   OH260590   1.073   2.390   0.589
20238TIP3    H160591   1.153   2.416   0.634
20238TIP3    H260592   1.007   2.384   0.658
20239TIP3   OH260593   4.804   6.461   7.845
20239TIP3    H160594   4.873   6.419   7.793
20239TIP3    H260595   4.809   6.419   7.931
20240TIP3   OH260596   4.325   5.946   7.720
20240TIP3    H160597   4.292   5.870   7.768
20240TIP3    H260598   4.384   5.909   7.655
20241TIP3   OH260599   1.513   1.739   0.127
20241TIP3    H160600   1.425   1.772   0.145
20241TIP3    H260601   1.570   1.794   0.181
20242TIP3   OH260602   4.510   6.750   7.226
20242TIP3    H160603   4.444   6.682   7.215
20242TIP3    H260604   4.498   6.781   7.316
20243TIP3   OH260605   5.416   6.985   7.856
20243TIP3    H160606   5.441   7.032   7.776
20243TIP3    H260607   5.333   6.942   7.833
20244TIP3   OH260608   4.973   6.063   7.085
20244TIP3    H160609   4.880   6.044   7.097
20244TIP3    H260610   4.982   6.154   7.114
20245TIP3   OH260611   1.650   2.448   0.222
20245TIP3    H160612   1.672   2.419   0.311
20245TIP3    H260613   1.610   2.534   0.235
20246TIP3   OH260614   5.045   6.308   7.193
20246TIP3    H160615   5.139   6.310   7.210
20246TIP3    H260616   5.029   6.386   7.140
20247TIP3   OH260617   4.210   6.770   7.902
20247TIP3    H160618   4.247   6.740   7.819
20247TIP3    H260619   4.246   6.710   7.968
20248TIP3   OH260620   4.658   6.899   7.049
20248TIP3    H160621   4.616   6.984   7.059
20248TIP3    H260622   4.607   6.841   7.106
20249TIP3   OH260623   0.821   2.071   0.518
20249TIP3    H160624   0.844   2.058   0.609
20249TIP3    H260625   0.755   2.004   0.500
20250TIP3   OH260626   1.549   2.183   0.532
20250TIP3    H160627   1.489   2.124   0.487
20250TIP3    H260628   1.636   2.151   0.509
20251TIP3   OH260629   1.808   2.712   0.116
20251TIP3    H160630   1.713   2.704   0.129
20251TIP3    H260631   1.839   2.758   0.195
20252TIP3   OH260632   5.484   6.396   7.026
20252TIP3    H160633   5.423   6.348   6.969
20252TIP3    H260634   5.485   6.485   6.990
20253TIP3   OH260635   2.436   2.634   0.106
20253TIP3    H160636   2.341   2.630   0.103
20253TIP3    H260637   2.464   2.605   0.019
20254TIP3   OH260638   5.180   7.214   6.936
20254TIP3    H160639   5.164   7.144   6.999
20254TIP3    H260640   5.198   7.170   6.854
20255TIP3   OH260641   5.181   6.844   7.774
20255TIP3    H160642   5.089   6.820   7.790
20255TIP3    H260643   5.218   6.767   7.731
20256TIP3   OH260644   4.306   7.071   7.526
20256TIP3    H160645   4.305   7.148   7.469
20256TIP3    H260646   4.214   7.052   7.542
20257TIP3   OH260647   3.869   6.380   7.229
20257TIP3    H160648   3.919   6.459   7.250
20257TIP3    H260649   3.796   6.381   7.290
20258TIP3   OH260650   4.449   6.840   7.474
20258TIP3    H160651   4.412   6.926   7.493
20258TIP3    H260652   4.418   6.784   7.545
20259TIP3   OH260653   4.581   7.418   7.997
20259TIP3    H160654   4.622   7.489   7.949
20259TIP3    H260655   4.652   7.379   8.048
20260TIP3   OH260656   4.222   7.321   7.379
20260TIP3    H160657   4.134   7.312   7.416
20260TIP3    H260658   4.269   7.376   7.441
20261TIP3   OH260659   4.970   7.051   7.957
20261TIP3    H160660   4.958   7.050   8.052
20261TIP3    H260661   5.047   6.997   7.942
20262TIP3   OH260662   4.940   6.945   6.843
20262TIP3    H160663   4.996   6.921   6.917
20262TIP3    H260664   4.853   6.913   6.867
20263TIP3   OH260665   5.213   7.586   8.008
20263TIP3    H160666   5.139   7.526   8.004
20263TIP3    H260667   5.199   7.648   7.937
20264TIP3   OH260668   5.280   7.422   6.658
20264TIP3    H160669   5.322   7.491   6.606
20264TIP3    H260670   5.200   7.462   6.691
20265TIP3   OH260671   1.035   1.575   0.525
20265TIP3    H160672   0.940   1.580   0.538
20265TIP3    H260673   1.066   1.517   0.594
20266TIP3   OH260674   5.103   6.878   7.058
20266TIP3    H160675   5.088   6.813   7.127
20266TIP3    H260676   5.197   6.876   7.043
20267TIP3   OH260677   0.752   2.659   0.157
20267TIP3    H160678   0.801   2.582   0.186
20267TIP3    H260679   0.776   2.728   0.220
20268TIP3   OH260680   4.305   6.924   6.841
20268TIP3    H160681   4.321   6.837   6.805
20268TIP3    H260682   4.286   6.909   6.934
20269TIP3   OH260683   4.253   6.930   7.114
20269TIP3    H160684   4.324   6.895   7.168
20269TIP3    H260685   4.262   7.025   7.122
20270TIP3   OH260686   3.987   6.624   7.313
20270TIP3    H160687   3.923   6.664   7.372
20270TIP3    H260688   4.005   6.691   7.247
20271TIP3   OH260689   1.868   1.640   0.208
20271TIP3    H160690   1.950   1.676   0.243
20271TIP3    H260691   1.854   1.560   0.258
20272TIP3   OH260692   5.015   6.016   7.369
20272TIP3    H160693   5.006   6.036   7.276
20272TIP3    H260694   5.056   6.093   7.407
20273TIP3   OH260695   4.521   7.134   7.063
20273TIP3    H160696   4.434   7.158   7.094
20273TIP3    H260697   4.529   7.177   6.978
20274TIP3   OH260698   4.706   6.193   7.475
20274TIP3    H160699   4.771   6.260   7.456
20274TIP3    H260700   4.710   6.182   7.570
20275TIP3   OH260701   1.712   1.890   0.280
20275TIP3    H160702   1.731   1.940   0.360
20275TIP3    H260703   1.764   1.810   0.290
20276TIP3   OH260704   4.853   5.920   7.575
20276TIP3    H160705   4.855   5.989   7.641
20276TIP3    H260706   4.910   5.953   7.505
20277TIP3   OH260707   4.263   7.208   7.125
20277TIP3    H160708   4.228   7.273   7.064
20277TIP3    H260709   4.243   7.244   7.211
20278TIP3   OH260710   4.365   5.917   7.364
20278TIP3    H160711   4.360   6.004   7.404
20278TIP3    H260712   4.458   5.892   7.372
20279TIP3   OH260713   2.349   1.790   0.256
20279TIP3    H160714   2.254   1.790   0.268
20279TIP3    H260715   2.363   1.741   0.175
20280TIP3   OH260716   5.267   6.603   7.650
20280TIP3    H160717   5.192   6.545   7.662
20280TIP3    H260718   5.339   6.560   7.695
20281TIP3   OH260719   3.983   6.834   7.116
20281TIP3    H160720   4.050   6.902   7.129
20281TIP3    H260721   4.022   6.775   7.052
20282TIP3   OH260722   3.926   6.111   7.255
20282TIP3    H160723   3.926   6.206   7.248
20282TIP3    H260724   3.845   6.083   7.212
20283TIP3   OH260725   5.237   7.561   7.596
20283TIP3    H160726   5.193   7.605   7.524
20283TIP3    H260727   5.330   7.577   7.582
20284TIP3   OH260728   1.043   1.207   0.126
20284TIP3    H160729   1.015   1.174   0.040
20284TIP3    H260730   1.036   1.131   0.184
20285TIP3   OH260731   3.854   7.055   7.507
20285TIP3    H160732   3.783   7.077   7.567
20285TIP3    H260733   3.825   7.089   7.422
20286TIP3   OH260734   0.742   2.965   0.577
20286TIP3    H160735   0.826   2.968   0.623
20286TIP3    H260736   0.718   2.873   0.575
20287TIP3   OH260737   1.225   2.934   0.617
20287TIP3    H160738   1.318   2.913   0.630
20287TIP3    H260739   1.197   2.876   0.546
20288TIP3   OH260740   4.474   7.124   6.760
20288TIP3    H160741   4.416   7.054   6.789
20288TIP3    H260742   4.547   7.078   6.719
20289TIP3   OH260743   1.862   2.838   0.356
20289TIP3    H160744   1.852   2.769   0.422
20289TIP3    H260745   1.938   2.888   0.385
20290TIP3   OH260746   4.909   7.170   6.663
20290TIP3    H160747   4.950   7.106   6.721
20290TIP3    H260748   4.963   7.169   6.584
20291TIP3   OH260749   0.871   2.373   0.776
20291TIP3    H160750   0.890   2.280   0.785
20291TIP3    H260751   0.785   2.376   0.734
20292TIP3   OH260752   4.118   6.646   6.972
20292TIP3    H160753   4.167   6.609   7.045
20292TIP3    H260754   4.181   6.650   6.900
20293TIP3   OH260755   1.479   2.457   0.549
20293TIP3    H160756   1.438   2.472   0.464
20293TIP3    H260757   1.511   2.367   0.546
20294TIP3   OH260758   4.621   6.840   6.781
20294TIP3    H160759   4.627   6.855   6.875
20294TIP3    H260760   4.624   6.745   6.772
20295TIP3   OH260761   1.972   2.468   0.155
20295TIP3    H160762   2.047   2.511   0.113
20295TIP3    H260763   1.900   2.529   0.143
20296TIP3   OH260764   0.994   2.109   0.758
20296TIP3    H160765   1.063   2.046   0.739
20296TIP3    H260766   1.015   2.142   0.846
20297TIP3   OH260767   4.325   6.547   7.195
20297TIP3    H160768   4.298   6.507   7.278
20297TIP3    H260769   4.360   6.474   7.144
20298TIP3   OH260770   1.323   1.994   0.418
20298TIP3    H160771   1.248   2.053   0.423
20298TIP3    H260772   1.374   2.025   0.343
20299TIP3   OH260773   4.425   6.343   7.033
20299TIP3    H160774   4.397   6.343   6.941
20299TIP3    H260775   4.520   6.346   7.029
20300TIP3   OH260776   1.845   2.395   0.555
20300TIP3    H160777   1.924   2.371   0.507
20300TIP3    H260778   1.838   2.329   0.624
20301TIP3   OH260779   5.244   6.676   6.694
20301TIP3    H160780   5.226   6.625   6.616
20301TIP3    H260781   5.213   6.764   6.673
20302TIP3   OH260782   1.448   1.780   0.547
20302TIP3    H160783   1.449   1.700   0.494
20302TIP3    H260784   1.405   1.845   0.490
20303TIP3   OH260785   1.449   1.570   0.353
20303TIP3    H160786   1.480   1.606   0.269
20303TIP3    H260787   1.358   1.545   0.336
20304TIP3   OH260788   1.479   2.104   0.226
20304TIP3    H160789   1.563   2.106   0.180
20304TIP3    H260790   1.425   2.170   0.182
20305TIP3   OH260791   2.064   2.070   0.609
20305TIP3    H160792   2.106   1.985   0.622
20305TIP3    H260793   2.133   2.126   0.574
20306TIP3   OH260794   2.103   2.326   0.343
20306TIP3    H160795   2.044   2.376   0.286
20306TIP3    H260796   2.190   2.341   0.307
20307TIP3   OH260797   1.323   1.894   0.773
20307TIP3    H160798   1.257   1.827   0.792
20307TIP3    H260799   1.361   1.868   0.690
20308TIP3   OH260800   1.582   1.333   0.418
20308TIP3    H160801   1.533   1.413   0.399
20308TIP3    H260802   1.517   1.263   0.410
20309TIP3   OH260803   1.706   1.837   0.639
20309TIP3    H160804   1.701   1.824   0.734
20309TIP3    H260805   1.619   1.812   0.607
20310TIP3   OH260806   1.950   1.788   0.495
20310TIP3    H160807   1.875   1.785   0.554
20310TIP3    H260808   2.023   1.755   0.548
20311TIP3   OH260809   2.178   1.725   0.644
20311TIP3    H160810   2.190   1.631   0.660
20311TIP3    H260811   2.174   1.764   0.731
20312TIP3   OH260812   1.168   1.672   0.831
20312TIP3    H160813   1.173   1.584   0.794
20312TIP3    H260814   1.204   1.664   0.919
20313TIP3   OH260815   1.676   1.344   0.676
20313TIP3    H160816   1.744   1.277   0.678
20313TIP3    H260817   1.637   1.335   0.589
20314TIP3   OH260818   1.744   1.558   0.834
20314TIP3    H160819   1.724   1.486   0.773
20314TIP3    H260820   1.667   1.614   0.830
20315TIP3   OH260821   4.245   7.444   6.958
20315TIP3    H160822   4.332   7.415   6.930
20315TIP3    H260823   4.200   7.466   6.876
20316TIP3   OH260824   3.713   6.786   7.154
20316TIP3    H160825   3.805   6.809   7.142
20316TIP3    H260826   3.704   6.699   7.115
20317TIP3   OH260827   3.626   7.396   7.570
20317TIP3    H160828   3.559   7.338   7.533
20317TIP3    H260829   3.670   7.343   7.636
20318TIP3   OH260830   3.763   7.252   7.760
20318TIP3    H160831   3.750   7.176   7.816
20318TIP3    H260832   3.812   7.314   7.814
20319TIP3   OH260833   5.487   7.657   7.556
20319TIP3    H160834   5.514   7.683   7.644
20319TIP3    H260835   5.553   7.695   7.498
20320TIP3   OH260836   5.520   7.667   7.837
20320TIP3    H160837   5.473   7.584   7.833
20320TIP3    H260838   5.594   7.651   7.895
20321TIP3   OH260839   2.296   2.730   0.408
20321TIP3    H160840   2.225   2.735   0.473
20321TIP3    H260841   2.338   2.816   0.413
20322TIP3   OH260842   5.382   6.862   7.033
20322TIP3    H160843   5.450   6.923   7.003
20322TIP3    H260844   5.420   6.821   7.110
20323TIP3   OH260845   5.506   6.731   7.237
20323TIP3    H160846   5.443   6.686   7.294
20323TIP3    H260847   5.572   6.765   7.297
20324TIP3   OH260848   5.561   7.119   7.663
20324TIP3    H160849   5.615   7.054   7.619
20324TIP3    H260850   5.554   7.191   7.600
20325TIP3   OH260851   5.392   7.421   7.860
20325TIP3    H160852   5.324   7.459   7.915
20325TIP3    H260853   5.345   7.371   7.793
20326TIP3   OH260854   5.444   6.639   6.880
20326TIP3    H160855   5.375   6.638   6.814
20326TIP3    H260856   5.420   6.711   6.939
20327TIP3   OH260857   5.314   6.308   6.834
20327TIP3    H160858   5.275   6.345   6.755
20327TIP3    H260859   5.293   6.215   6.831
20328TIP3   OH260860   5.322   6.582   7.382
20328TIP3    H160861   5.331   6.487   7.374
20328TIP3    H260862   5.309   6.597   7.476
20329TIP3   OH260863   0.684   2.042   0.122
20329TIP3    H160864   0.680   2.009   0.032
20329TIP3    H260865   0.778   2.042   0.143
20330TIP3   OH260866   2.347   2.389   0.234
20330TIP3    H160867   2.415   2.322   0.229
20330TIP3    H260868   2.375   2.457   0.174
20331TIP3   OH260869   2.531   2.193   0.257
20331TIP3    H160870   2.455   2.146   0.292
20331TIP3    H260871   2.604   2.133   0.268
20332TIP3   OH260872   5.261   6.044   6.823
20332TIP3    H160873   5.338   6.014   6.872
20332TIP3    H260874   5.192   5.984   6.848
20333TIP3   OH260875   5.320   6.297   7.274
20333TIP3    H160876   5.355   6.210   7.293
20333TIP3    H260877   5.378   6.332   7.206
20334TIP3   OH260878   5.483   6.480   7.770
20334TIP3    H160879   5.566   6.502   7.729
20334TIP3    H260880   5.492   6.509   7.861
20335TIP3   OH260881   2.282   2.000   0.002
20335TIP3    H160882   2.205   2.031   0.050
20335TIP3    H260883   2.315   2.078  -0.042
20336TIP3   OH260884   0.903   1.725   0.802
20336TIP3    H160885   0.998   1.720   0.803
20336TIP3    H260886   0.874   1.642   0.841
20337TIP3   OH260887   2.731   1.588   0.555
20337TIP3    H160888   2.792   1.524   0.517
20337TIP3    H260889   2.707   1.644   0.481
20338TIP3   OH260890   5.425   6.048   7.316
20338TIP3    H160891   5.477   6.036   7.395
20338TIP3    H260892   5.367   5.973   7.313
20339TIP3   OH260893   0.862   1.417   0.130
20339TIP3    H160894   0.919   1.341   0.141
20339TIP3    H260895   0.922   1.491   0.125
20340TIP3   OH260896   0.665   1.692   0.202
20340TIP3    H160897   0.713   1.683   0.120
20340TIP3    H260898   0.698   1.774   0.240
20341TIP3   OH260899   2.604   1.731   0.360
20341TIP3    H160900   2.519   1.769   0.382
20341TIP3    H260901   2.582   1.656   0.304
20342TIP3   OH260902   5.510   5.988   6.941
20342TIP3    H160903   5.550   5.912   6.898
20342TIP3    H260904   5.578   6.055   6.941
20343TIP3   OH260905   3.912   5.813   7.706
20343TIP3    H160906   3.821   5.811   7.736
20343TIP3    H260907   3.910   5.871   7.630
20344TIP3   OH260908   5.069   7.520   7.207
20344TIP3    H160909   5.124   7.504   7.130
20344TIP3    H260910   5.121   7.580   7.260
20345TIP3   OH260911   0.865   1.278   0.522
20345TIP3    H160912   0.817   1.268   0.605
20345TIP3    H260913   0.799   1.311   0.461
20346TIP3   OH260914   0.905   2.703   0.598
20346TIP3    H160915   0.816   2.673   0.580
20346TIP3    H260916   0.919   2.680   0.690
20347TIP3   OH260917   1.085   2.734   0.141
20347TIP3    H160918   1.035   2.808   0.107
20347TIP3    H260919   1.171   2.743   0.102
20348TIP3   OH260920   1.533   2.981   0.284
20348TIP3    H160921   1.572   2.979   0.371
20348TIP3    H260922   1.597   3.029   0.231
20349TIP3   OH260923   1.713   3.130   0.140
20349TIP3    H160924   1.781   3.076   0.100
20349TIP3    H260925   1.760   3.187   0.201
20350TIP3   OH260926   2.501   1.488   0.242
20350TIP3    H160927   2.411   1.481   0.210
20350TIP3    H260928   2.537   1.399   0.232
20351TIP3   OH260929   0.760   2.995   0.165
20351TIP3    H160930   0.673   3.027   0.144
20351TIP3    H260931   0.774   3.021   0.257
20352TIP3   OH260932   0.996   2.970   0.024
20352TIP3    H160933   0.914   2.982   0.070
20352TIP3    H260934   0.979   3.003  -0.064
20353TIP3   OH260935   4.693   7.622   7.823
20353TIP3    H160936   4.620   7.639   7.763
20353TIP3    H260937   4.706   7.705   7.869
20354TIP3   OH260938   4.959   7.558   7.873
20354TIP3    H160939   4.866   7.574   7.856
20354TIP3    H260940   5.003   7.635   7.837
20355TIP3   OH260941   5.166   7.750   7.790
20355TIP3    H160942   5.154   7.833   7.745
20355TIP3    H260943   5.193   7.689   7.722
20356TIP3   OH260944   3.944   7.403   7.917
20356TIP3    H160945   3.966   7.380   8.007
20356TIP3    H260946   4.012   7.360   7.865
20357TIP3   OH260947   4.137   7.273   7.771
20357TIP3    H160948   4.146   7.190   7.819
20357TIP3    H260949   4.225   7.310   7.770
20358TIP3   OH260950   4.403   7.364   7.772
20358TIP3    H160951   4.431   7.273   7.766
20358TIP3    H260952   4.441   7.396   7.854
20359TIP3   OH260953   4.969   6.021   7.853
20359TIP3    H160954   4.930   5.956   7.912
20359TIP3    H260955   5.045   5.978   7.816
20360TIP3   OH260956   5.498   5.911   7.766
20360TIP3    H160957   5.535   5.959   7.692
20360TIP3    H260958   5.404   5.924   7.758
20361TIP3   OH260959   5.596   6.013   7.529
20361TIP3    H160960   5.665   5.956   7.494
20361TIP3    H260961   5.629   6.102   7.516
20362TIP3   OH260962   4.224   5.733   7.878
20362TIP3    H160963   4.133   5.702   7.881
20362TIP3    H260964   4.276   5.652   7.876
20363TIP3   OH260965   4.000   5.608   7.522
20363TIP3    H160966   4.039   5.662   7.454
20363TIP3    H260967   3.981   5.669   7.593
20364TIP3   OH260968   4.664   5.775   7.759
20364TIP3    H160969   4.725   5.818   7.700
20364TIP3    H260970   4.693   5.801   7.847
20365TIP3   OH260971   5.214   5.912   7.742
20365TIP3    H160972   5.217   5.874   7.654
20365TIP3    H260973   5.201   5.837   7.800
20366TIP3   OH260974   5.242   5.834   7.305
20366TIP3    H160975   5.156   5.875   7.315
20366TIP3    H260976   5.234   5.751   7.352
20367TIP3   OH260977   3.727   7.176   7.302
20367TIP3    H160978   3.644   7.138   7.271
20367TIP3    H260979   3.716   7.271   7.288
20368TIP3   OH260980   4.130   5.767   7.287
20368TIP3    H160981   4.175   5.702   7.233
20368TIP3    H260982   4.200   5.820   7.324
20369TIP3   OH260983   4.642   5.942   7.390
20369TIP3    H160984   4.699   5.890   7.447
20369TIP3    H260985   4.662   6.033   7.413
20370TIP3   OH260986   4.503   7.365   6.882
20370TIP3    H160987   4.590   7.388   6.851
20370TIP3    H260988   4.477   7.290   6.828
20371TIP3   OH260989   5.216   7.480   6.978
20371TIP3    H160990   5.210   7.385   6.968
20371TIP3    H260991   5.175   7.515   6.899
20372TIP3   OH260992   1.167   1.397   0.770
20372TIP3    H160993   1.131   1.326   0.824
20372TIP3    H260994   1.260   1.399   0.793
20373TIP3   OH260995   1.417   1.391   0.887
20373TIP3    H160996   1.499   1.365   0.846
20373TIP3    H260997   1.402   1.325   0.955
20374TIP3   OH260998   3.808   7.204   6.946
20374TIP3    H160999   3.799   7.223   7.039
20374TIP3    H261000   3.892   7.159   6.939
20375TIP3   OH261001   2.241   1.455   0.675
20375TIP3    H161002   2.257   1.425   0.765
20375TIP3    H261003   2.326   1.452   0.632
20376TIP3   OH261004   2.177   3.010   0.165
20376TIP3    H161005   2.100   2.975   0.120
20376TIP3    H261006   2.161   3.104   0.171
20377TIP3   OH261007   6.711   7.000   6.934
20377TIP3    H161008   6.685   7.090   6.917
20377TIP3    H261009   6.636   6.948   6.904
20378TIP3   OH261010   6.710   6.997   7.317
20378TIP3    H161011   6.741   6.970   7.403
20378TIP3    H261012   6.668   6.919   7.281
20379TIP3   OH261013   6.010   6.895   7.683
20379TIP3    H161014   6.037   6.825   7.744
20379TIP3    H261015   6.088   6.949   7.673
20380TIP3   OH261016   6.954   7.299   6.999
20380TIP3    H161017   6.939   7.230   7.063
20380TIP3    H261018   6.982   7.374   7.051
20381TIP3   OH261019   5.981   7.302   7.405
20381TIP3    H161020   5.969   7.207   7.407
20381TIP3    H261021   6.076   7.315   7.404
20382TIP3   OH261022   5.686   6.512   7.190
20382TIP3    H161023   5.637   6.593   7.203
20382TIP3    H261024   5.620   6.450   7.158
20383TIP3   OH261025   5.749   6.793   7.362
20383TIP3    H161026   5.793   6.717   7.400
20383TIP3    H261027   5.806   6.820   7.290
20384TIP3   OH261028   6.606   7.760   7.012
20384TIP3    H161029   6.655   7.697   6.960
20384TIP3    H261030   6.603   7.722   7.099
20385TIP3   OH261031   6.512   7.226   7.362
20385TIP3    H161032   6.543   7.147   7.317
20385TIP3    H261033   6.592   7.272   7.387
20386TIP3   OH261034   7.526   6.548   7.361
20386TIP3    H161035   7.552   6.628   7.407
20386TIP3    H261036   7.538   6.568   7.268
20387TIP3   OH261037   6.925   6.727   7.394
20387TIP3    H161038   6.963   6.642   7.418
20387TIP3    H261039   6.890   6.713   7.306
20388TIP3   OH261040   6.261   6.385   7.357
20388TIP3    H161041   6.237   6.457   7.298
20388TIP3    H261042   6.215   6.309   7.321
20389TIP3   OH261043   6.956   6.477   6.984
20389TIP3    H161044   7.023   6.459   7.049
20389TIP3    H261045   7.004   6.513   6.909
20390TIP3   OH261046   5.896   6.587   7.467
20390TIP3    H161047   5.975   6.567   7.517
20390TIP3    H261048   5.903   6.532   7.389
20391TIP3   OH261049   6.334   6.785   7.261
20391TIP3    H161050   6.425   6.761   7.275
20391TIP3    H261051   6.293   6.703   7.230
20392TIP3   OH261052   7.595   6.757   7.531
20392TIP3    H161053   7.513   6.801   7.507
20392TIP3    H261054   7.599   6.763   7.626
20393TIP3   OH261055   6.258   6.384   7.808
20393TIP3    H161056   6.201   6.388   7.732
20393TIP3    H261057   6.199   6.397   7.883
20394TIP3   OH261058   6.601   7.221   6.806
20394TIP3    H161059   6.559   7.197   6.723
20394TIP3    H261060   6.561   7.305   6.829
20395TIP3   OH261061   6.363   7.147   7.591
20395TIP3    H161062   6.299   7.207   7.630
20395TIP3    H261063   6.404   7.196   7.521
20396TIP3   OH261064   7.167   6.478   7.155
20396TIP3    H161065   7.148   6.430   7.236
20396TIP3    H261066   7.216   6.555   7.184
20397TIP3   OH261067   6.129   6.481   7.578
20397TIP3    H161068   6.189   6.549   7.609
20397TIP3    H261069   6.176   6.438   7.506
20398TIP3   OH261070   6.186   7.339   7.689
20398TIP3    H161071   6.164   7.424   7.650
20398TIP3    H261072   6.112   7.318   7.745
20399TIP3   OH261073   5.585   7.030   6.924
20399TIP3    H161074   5.544   7.055   6.842
20399TIP3    H261075   5.617   7.112   6.962
20400TIP3   OH261076   7.023   7.545   7.166
20400TIP3    H161077   6.936   7.534   7.205
20400TIP3    H261078   7.017   7.629   7.119
20401TIP3   OH261079   7.314   6.450   7.527
20401TIP3    H161080   7.226   6.474   7.499
20401TIP3    H261081   7.370   6.478   7.455
20402TIP3   OH261082   6.619   6.086   7.509
20402TIP3    H161083   6.615   5.991   7.522
20402TIP3    H261084   6.543   6.120   7.557
20403TIP3   OH261085   6.743   7.605   6.825
20403TIP3    H161086   6.779   7.518   6.810
20403TIP3    H261087   6.803   7.664   6.781
20404TIP3   OH261088   6.864   7.371   6.748
20404TIP3    H161089   6.829   7.293   6.706
20404TIP3    H261090   6.901   7.340   6.831
20405TIP3   OH261091   7.250   7.458   7.506
20405TIP3    H161092   7.239   7.380   7.451
20405TIP3    H261093   7.233   7.531   7.447
20406TIP3   OH261094   6.541   6.852   6.763
20406TIP3    H161095   6.461   6.901   6.743
20406TIP3    H261096   6.588   6.847   6.680
20407TIP3   OH261097   6.502   6.636   6.481
20407TIP3    H161098   6.567   6.686   6.531
20407TIP3    H261099   6.554   6.571   6.433
20408TIP3   OH261100   7.446   7.098   7.351
20408TIP3    H161101   7.363   7.145   7.361
20408TIP3    H261102   7.475   7.118   7.262
20409TIP3   OH261103   6.890   6.933   6.740
20409TIP3    H161104   6.834   6.958   6.813
20409TIP3    H261105   6.973   6.907   6.781
20410TIP3   OH261106   7.123   6.977   7.646
20410TIP3    H161107   7.120   7.058   7.697
20410TIP3    H261108   7.038   6.974   7.602
20411TIP3   OH261109   6.124   6.931   7.152
20411TIP3    H161110   6.080   6.875   7.087
20411TIP3    H261111   6.197   6.879   7.183
20412TIP3   OH261112   6.254   7.345   7.300
20412TIP3    H161113   6.229   7.298   7.220
20412TIP3    H261114   6.341   7.312   7.321
20413TIP3   OH261115   6.257   6.904   7.507
20413TIP3    H161116   6.290   6.880   7.420
20413TIP3    H261117   6.300   6.987   7.528
20414TIP3   OH261118   6.782   7.540   7.285
20414TIP3    H161119   6.771   7.619   7.339
20414TIP3    H261120   6.769   7.467   7.346
20415TIP3   OH261121   6.392   7.461   7.830
20415TIP3    H161122   6.337   7.522   7.878
20415TIP3    H261123   6.330   7.405   7.783
20416TIP3   OH261124   6.732   6.794   6.562
20416TIP3    H161125   6.788   6.850   6.616
20416TIP3    H261126   6.756   6.815   6.472
20417TIP3   OH261127   6.147   7.021   7.931
20417TIP3    H161128   6.153   7.104   7.979
20417TIP3    H261129   6.056   6.995   7.940
20418TIP3   OH261130   6.476   7.475   6.837
20418TIP3    H161131   6.553   7.529   6.855
20418TIP3    H261132   6.412   7.536   6.802
20419TIP3   OH261133   6.187   7.629   7.918
20419TIP3    H161134   6.154   7.626   7.829
20419TIP3    H261135   6.111   7.607   7.973
20420TIP3   OH261136   7.245   6.034   6.612
20420TIP3    H161137   7.165   6.049   6.662
20420TIP3    H261138   7.258   6.115   6.563
20421TIP3   OH261139   5.987   6.775   6.957
20421TIP3    H161140   5.920   6.815   6.901
20421TIP3    H261141   5.953   6.687   6.974
20422TIP3   OH261142   7.044   7.410   6.145
20422TIP3    H161143   7.060   7.504   6.153
20422TIP3    H261144   7.131   7.371   6.142
20423TIP3   OH261145   5.769   7.156   7.865
20423TIP3    H161146   5.706   7.132   7.797
20423TIP3    H261147   5.807   7.073   7.893
20424TIP3   OH261148   5.624   7.354   7.495
20424TIP3    H161149   5.719   7.339   7.488
20424TIP3    H261150   5.616   7.428   7.555
20425TIP3   OH261151   7.476   7.788   7.556
20425TIP3    H161152   7.477   7.693   7.569
20425TIP3    H261153   7.393   7.817   7.594
20426TIP3   OH261154   6.591   7.590   7.689
20426TIP3    H161155   6.593   7.681   7.720
20426TIP3    H261156   6.523   7.548   7.741
20427TIP3   OH261157   6.341   7.712   6.646
20427TIP3    H161158   6.307   7.692   6.559
20427TIP3    H261159   6.314   7.802   6.663
20428TIP3   OH261160   5.792   7.565   7.027
20428TIP3    H161161   5.840   7.558   7.109
20428TIP3    H261162   5.736   7.488   7.026
20429TIP3   OH261163   6.556   7.619   6.278
20429TIP3    H161164   6.613   7.550   6.244
20429TIP3    H261165   6.583   7.628   6.370
20430TIP3   OH261166   6.595   7.661   6.544
20430TIP3    H161167   6.520   7.660   6.604
20430TIP3    H261168   6.672   7.653   6.601
20431TIP3   OH261169   7.382   6.937   7.821
20431TIP3    H161170   7.298   6.949   7.777
20431TIP3    H261171   7.397   6.843   7.820
20432TIP3   OH261172   5.973   7.340   7.857
20432TIP3    H161173   6.024   7.325   7.936
20432TIP3    H261174   5.900   7.278   7.862
20433TIP3   OH261175   6.903   6.281   7.835
20433TIP3    H161176   6.970   6.252   7.897
20433TIP3    H261177   6.820   6.259   7.877
20434TIP3   OH261178   7.151   6.714   7.757
20434TIP3    H161179   7.100   6.705   7.837
20434TIP3    H261180   7.120   6.796   7.718
20435TIP3   OH261181   6.807   6.843   6.307
20435TIP3    H161182   6.773   6.812   6.223
20435TIP3    H261183   6.888   6.889   6.284
20436TIP3   OH261184   6.517   6.212   6.610
20436TIP3    H161185   6.488   6.212   6.701
20436TIP3    H261186   6.481   6.132   6.574
20437TIP3   OH261187   6.305   6.682   7.657
20437TIP3    H161188   6.255   6.696   7.738
20437TIP3    H261189   6.288   6.759   7.604
20438TIP3   OH261190   6.185   6.566   7.168
20438TIP3    H161191   6.096   6.539   7.190
20438TIP3    H261192   6.202   6.526   7.083
20439TIP3   OH261193   6.681   6.654   6.897
20439TIP3    H161194   6.626   6.722   6.858
20439TIP3    H261195   6.734   6.622   6.824
20440TIP3   OH261196   3.589   2.311  -0.014
20440TIP3    H161197   3.563   2.240   0.045
20440TIP3    H261198   3.681   2.326   0.006
20441TIP3   OH261199   6.838   6.680   7.134
20441TIP3    H161200   6.776   6.712   7.068
20441TIP3    H261201   6.872   6.598   7.097
20442TIP3   OH261202   6.123   6.708   7.867
20442TIP3    H161203   6.153   6.768   7.935
20442TIP3    H261204   6.112   6.624   7.912
20443TIP3   OH261205   6.173   6.188   6.576
20443TIP3    H161206   6.170   6.183   6.671
20443TIP3    H261207   6.093   6.235   6.552
20444TIP3   OH261208   5.722   6.236   7.443
20444TIP3    H161209   5.797   6.257   7.497
20444TIP3    H261210   5.759   6.191   7.367
20445TIP3   OH261211   5.690   6.213   6.962
20445TIP3    H161212   5.740   6.248   6.888
20445TIP3    H261213   5.630   6.284   6.986
20446TIP3   OH261214   6.851   6.925   7.561
20446TIP3    H161215   6.882   6.857   7.502
20446TIP3    H261216   6.820   6.877   7.638
20447TIP3   OH261217   6.516   6.392   7.234
20447TIP3    H161218   6.432   6.387   7.280
20447TIP3    H261219   6.582   6.386   7.303
20448TIP3   OH261220   5.951   6.442   7.239
20448TIP3    H161221   5.859   6.446   7.214
20448TIP3    H261222   5.977   6.352   7.221
20449TIP3   OH261223   6.221   6.443   6.928
20449TIP3    H161224   6.314   6.454   6.907
20449TIP3    H261225   6.176   6.463   6.845
20450TIP3   OH261226   7.005   6.462   7.434
20450TIP3    H161227   6.976   6.476   7.524
20450TIP3    H261228   6.942   6.401   7.397
20451TIP3   OH261229   6.058   6.477   6.706
20451TIP3    H161230   5.985   6.431   6.664
20451TIP3    H261231   6.110   6.509   6.632
20452TIP3   OH261232   7.186   8.152   7.656
20452TIP3    H161233   7.177   8.173   7.563
20452TIP3    H261234   7.257   8.208   7.687
20453TIP3   OH261235   2.869   2.646   0.076
20453TIP3    H161236   2.949   2.673   0.121
20453TIP3    H261237   2.803   2.641   0.145
20454TIP3   OH261238   6.600   6.718   7.333
20454TIP3    H161239   6.668   6.672   7.284
20454TIP3    H261240   6.602   6.677   7.420
20455TIP3   OH261241   6.122   6.204   7.204
20455TIP3    H161242   6.078   6.132   7.250
20455TIP3    H261243   6.182   6.161   7.143
20456TIP3   OH261244   6.577   6.620   7.609
20456TIP3    H161245   6.487   6.646   7.630
20456TIP3    H261246   6.631   6.673   7.667
20457TIP3   OH261247   6.309   7.005   6.714
20457TIP3    H161248   6.241   6.939   6.702
20457TIP3    H261249   6.296   7.038   6.803
20458TIP3   OH261250   7.213   7.239   7.343
20458TIP3    H161251   7.236   7.288   7.264
20458TIP3    H261252   7.129   7.198   7.322
20459TIP3   OH261253   6.769   6.318   6.574
20459TIP3    H161254   6.675   6.299   6.584
20459TIP3    H261255   6.778   6.410   6.600
20460TIP3   OH261256   6.717   7.325   7.711
20460TIP3    H161257   6.732   7.295   7.800
20460TIP3    H261258   6.673   7.410   7.722
20461TIP3   OH261259   6.841   6.564   6.679
20461TIP3    H161260   6.935   6.569   6.696
20461TIP3    H261261   6.822   6.642   6.627
20462TIP3   OH261262   6.006   7.026   7.389
20462TIP3    H161263   6.042   6.997   7.305
20462TIP3    H261264   6.043   6.965   7.453
20463TIP3   OH261265   6.453   7.153   6.531
20463TIP3    H161266   6.410   7.238   6.538
20463TIP3    H261267   6.405   7.096   6.592
20464TIP3   OH261268   2.617   2.328   0.004
20464TIP3    H161269   2.641   2.314   0.096
20464TIP3    H261270   2.552   2.260  -0.014
20465TIP3   OH261271   6.611   7.059   8.021
20465TIP3    H161272   6.550   7.001   7.977
20465TIP3    H261273   6.697   7.027   7.996
20466TIP3   OH261274   6.871   7.585   7.604
20466TIP3    H161275   6.776   7.578   7.615
20466TIP3    H261276   6.901   7.633   7.681
20467TIP3   OH261277   7.283   6.653   6.512
20467TIP3    H161278   7.222   6.605   6.456
20467TIP3    H261279   7.282   6.742   6.477
20468TIP3   OH261280   7.499   7.506   7.597
20468TIP3    H161281   7.404   7.502   7.592
20468TIP3    H261282   7.528   7.479   7.510
20469TIP3   OH261283   7.032   7.450   6.428
20469TIP3    H161284   6.966   7.427   6.493
20469TIP3    H261285   6.998   7.414   6.346
20470TIP3   OH261286   6.977   7.100   7.262
20470TIP3    H161287   6.885   7.077   7.277
20470TIP3    H261288   7.014   7.023   7.218
20471TIP3   OH261289   6.104   7.329   7.013
20471TIP3    H161290   6.106   7.410   6.961
20471TIP3    H261291   6.011   7.311   7.026
20472TIP3   OH261292   5.666   6.637   6.718
20472TIP3    H161293   5.715   6.716   6.738
20472TIP3    H261294   5.591   6.638   6.778
20473TIP3   OH261295   6.245   7.097   6.960
20473TIP3    H161296   6.210   7.184   6.978
20473TIP3    H261297   6.212   7.043   7.032
20474TIP3   OH261298   6.376   7.674   7.485
20474TIP3    H161299   6.416   7.745   7.435
20474TIP3    H261300   6.449   7.636   7.534
20475TIP3   OH261301   6.022   7.571   6.867
20475TIP3    H161302   5.938   7.573   6.914
20475TIP3    H261303   6.054   7.661   6.870
20476TIP3   OH261304   6.766   7.307   7.444
20476TIP3    H161305   6.754   7.307   7.539
20476TIP3    H261306   6.843   7.252   7.429
20477TIP3   OH261307   6.736   7.202   6.330
20477TIP3    H161308   6.793   7.177   6.402
20477TIP3    H261309   6.648   7.175   6.358
20478TIP3   OH261310   7.012   7.842   7.492
20478TIP3    H161311   6.937   7.784   7.490
20478TIP3    H261312   6.996   7.906   7.422
20479TIP3   OH261313   7.094   7.707   6.147
20479TIP3    H161314   7.072   7.737   6.059
20479TIP3    H261315   7.020   7.732   6.202
20480TIP3   OH261316   2.825   1.836   0.016
20480TIP3    H161317   2.729   1.835   0.026
20480TIP3    H261318   2.856   1.772   0.079
20481TIP3   OH261319   6.897   7.130   6.543
20481TIP3    H161320   6.887   7.066   6.612
20481TIP3    H261321   6.991   7.135   6.528
20482TIP3   OH261322   5.813   7.536   7.647
20482TIP3    H161323   5.864   7.459   7.673
20482TIP3    H261324   5.840   7.604   7.708
20483TIP3   OH261325   6.102   7.178   6.327
20483TIP3    H161326   6.121   7.089   6.298
20483TIP3    H261327   6.084   7.170   6.420
20484TIP3   OH261328   6.050   7.187   6.599
20484TIP3    H161329   6.120   7.155   6.656
20484TIP3    H261330   6.054   7.282   6.606
20485TIP3   OH261331   5.783   6.880   6.800
20485TIP3    H161332   5.719   6.921   6.859
20485TIP3    H261333   5.801   6.948   6.734
20486TIP3   OH261334   6.937   6.514   7.693
20486TIP3    H161335   7.012   6.552   7.738
20486TIP3    H261336   6.916   6.435   7.743
20487TIP3   OH261337   6.816   6.270   6.855
20487TIP3    H161338   6.800   6.291   6.764
20487TIP3    H261339   6.853   6.350   6.893
20488TIP3   OH261340   6.312   7.384   6.546
20488TIP3    H161341   6.228   7.410   6.583
20488TIP3    H261342   6.335   7.455   6.486
20489TIP3   OH261343   6.506   6.447   6.962
20489TIP3    H161344   6.568   6.518   6.944
20489TIP3    H261345   6.506   6.438   7.057
20490TIP3   OH261346   6.776   6.768   7.769
20490TIP3    H161347   6.791   6.821   7.847
20490TIP3    H261348   6.825   6.687   7.784
20491TIP3   OH261349   6.652   6.180   7.065
20491TIP3    H161350   6.641   6.255   7.123
20491TIP3    H261351   6.709   6.211   6.995
20492TIP3   OH261352   6.056   7.462   6.613
20492TIP3    H161353   6.027   7.529   6.551
20492TIP3    H261354   6.041   7.500   6.699
20493TIP3   OH261355   6.161   6.173   6.849
20493TIP3    H161356   6.154   6.258   6.893
20493TIP3    H261357   6.254   6.149   6.859
20494TIP3   OH261358   7.413   6.664   7.740
20494TIP3    H161359   7.320   6.669   7.760
20494TIP3    H261360   7.417   6.615   7.658
20495TIP3   OH261361   7.065   6.858   7.137
20495TIP3    H161362   6.988   6.803   7.149
20495TIP3    H261363   7.134   6.813   7.184
20496TIP3   OH261364   5.779   7.091   6.603
20496TIP3    H161365   5.843   7.161   6.617
20496TIP3    H261366   5.820   7.034   6.539
20497TIP3   OH261367   5.723   6.367   6.737
20497TIP3    H161368   5.719   6.463   6.733
20497TIP3    H261369   5.638   6.338   6.703
20498TIP3   OH261370   7.033   7.818   7.082
20498TIP3    H161371   6.987   7.866   7.013
20498TIP3    H261372   7.126   7.833   7.065
20499TIP3   OH261373   5.649   7.308   6.994
20499TIP3    H161374   5.578   7.334   7.052
20499TIP3    H261375   5.625   7.343   6.908
20500TIP3   OH261376   2.539   3.222   0.064
20500TIP3    H161377   2.623   3.224   0.110
20500TIP3    H261378   2.515   3.129   0.062
20501TIP3   OH261379   3.022   3.190   0.105
20501TIP3    H161380   3.115   3.167   0.117
20501TIP3    H261381   2.993   3.133   0.034
20502TIP3   OH261382   6.265   7.382   6.238
20502TIP3    H161383   6.207   7.316   6.276
20502TIP3    H261384   6.342   7.333   6.208
20503TIP3   OH261385   6.927   7.712   7.839
20503TIP3    H161386   6.913   7.642   7.903
20503TIP3    H261387   6.999   7.764   7.875
20504TIP3   OH261388   6.706   7.425   6.149
20504TIP3    H161389   6.743   7.360   6.208
20504TIP3    H261390   6.763   7.424   6.072
20505TIP3   OH261391   2.667   2.630   0.263
20505TIP3    H161392   2.686   2.536   0.271
20505TIP3    H261393   2.581   2.633   0.221
20506TIP3   OH261394   5.915   6.901   6.459
20506TIP3    H161395   5.964   6.866   6.533
20506TIP3    H261396   5.979   6.907   6.388
20507TIP3   OH261397   3.276   2.714   0.035
20507TIP3    H161398   3.234   2.728  -0.049
20507TIP3    H261399   3.307   2.623   0.032
20508TIP3   OH261400   6.414   7.096   6.264
20508TIP3    H161401   6.420   7.114   6.358
20508TIP3    H261402   6.421   7.001   6.258
20509TIP3   OH261403   7.036   7.343   7.646
20509TIP3    H161404   7.109   7.388   7.602
20509TIP3    H261405   6.961   7.402   7.634
20510TIP3   OH261406   2.789   2.366   0.245
20510TIP3    H161407   2.859   2.303   0.224
20510TIP3    H261408   2.811   2.398   0.333
20511TIP3   OH261409   6.119   6.803   6.681
20511TIP3    H161410   6.093   6.765   6.765
20511TIP3    H261411   6.155   6.729   6.632
20512TIP3   OH261412   6.387   6.873   7.910
20512TIP3    H161413   6.310   6.929   7.913
20512TIP3    H261414   6.436   6.902   7.833
20513TIP3   OH261415   6.222   6.599   6.519
20513TIP3    H161416   6.194   6.598   6.428
20513TIP3    H261417   6.317   6.603   6.516
20514TIP3   OH261418   3.640   2.650   0.042
20514TIP3    H161419   3.717   2.622  -0.007
20514TIP3    H261420   3.633   2.586   0.113
20515TIP3   OH261421   7.042   6.932   6.181
20515TIP3    H161422   7.023   6.882   6.102
20515TIP3    H261423   7.012   7.021   6.162
20516TIP3   OH261424   6.512   6.657   8.034
20516TIP3    H161425   6.511   6.577   7.982
20516TIP3    H261426   6.468   6.722   7.979
20517TIP3   OH261427   6.517   6.447   7.839
20517TIP3    H161428   6.541   6.480   7.753
20517TIP3    H261429   6.426   6.419   7.830
20518TIP3   OH261430   6.543   6.982   7.716
20518TIP3    H161431   6.625   6.984   7.666
20518TIP3    H261432   6.487   7.046   7.672
20519TIP3   OH261433   3.860   2.327   0.095
20519TIP3    H161434   3.901   2.244   0.118
20519TIP3    H261435   3.932   2.380   0.060
20520TIP3   OH261436   7.167   7.204   7.835
20520TIP3    H161437   7.106   7.252   7.779
20520TIP3    H261438   7.252   7.217   7.795
20521TIP3   OH261439   3.121   2.150   0.261
20521TIP3    H161440   3.055   2.083   0.279
20521TIP3    H261441   3.158   2.125   0.176
20522TIP3   OH261442   6.640   6.206   7.905
20522TIP3    H161443   6.596   6.290   7.887
20522TIP3    H261444   6.572   6.141   7.888
20523TIP3   OH261445   3.503   2.093   0.125
20523TIP3    H161446   3.496   2.080   0.220
20523TIP3    H261447   3.417   2.068   0.091
20524TIP3   OH261448   3.745   2.040  -0.020
20524TIP3    H161449   3.669   2.041   0.038
20524TIP3    H261450   3.817   2.009   0.034
20525TIP3   OH261451   3.974   1.979   0.129
20525TIP3    H161452   3.985   1.885   0.149
20525TIP3    H261453   3.968   2.021   0.215
20526TIP3   OH261454   2.964   1.930   0.318
20526TIP3    H161455   2.965   1.842   0.280
20526TIP3    H261456   2.999   1.919   0.406
20527TIP3   OH261457   3.477   1.597   0.159
20527TIP3    H161458   3.541   1.526   0.157
20527TIP3    H261459   3.432   1.591   0.075
20528TIP3   OH261460   3.541   1.813   0.321
20528TIP3    H161461   3.520   1.743   0.260
20528TIP3    H261462   3.464   1.871   0.318
20529TIP3   OH261463   6.030   7.668   6.426
20529TIP3    H161464   6.123   7.656   6.409
20529TIP3    H261465   5.996   7.710   6.347
20530TIP3   OH261466   5.509   7.042   6.640
20530TIP3    H161467   5.601   7.066   6.629
20530TIP3    H261468   5.501   6.955   6.602
20531TIP3   OH261469   5.421   7.653   7.057
20531TIP3    H161470   5.355   7.593   7.020
20531TIP3    H261471   5.466   7.600   7.123
20532TIP3   OH261472   5.557   7.508   7.247
20532TIP3    H161473   5.548   7.432   7.304
20532TIP3    H261474   5.608   7.570   7.298
20533TIP3   OH261475   7.286   7.906   7.042
20533TIP3    H161476   7.307   7.936   7.130
20533TIP3    H261477   7.343   7.957   6.984
20534TIP3   OH261478   7.317   7.920   7.324
20534TIP3    H161479   7.275   7.834   7.320
20534TIP3    H261480   7.391   7.907   7.383
20535TIP3   OH261481   7.352   7.590   7.872
20535TIP3    H161482   7.286   7.599   7.940
20535TIP3    H261483   7.404   7.671   7.879
20536TIP3   OH261484   7.178   7.115   6.519
20536TIP3    H161485   7.242   7.181   6.491
20536TIP3    H261486   7.218   7.075   6.597
20537TIP3   OH261487   7.305   6.983   6.724
20537TIP3    H161488   7.239   6.941   6.779
20537TIP3    H261489   7.366   7.023   6.785
20538TIP3   OH261490   7.360   7.377   7.153
20538TIP3    H161491   7.410   7.313   7.103
20538TIP3    H261492   7.349   7.451   7.093
20539TIP3   OH261493   7.188   7.675   7.349
20539TIP3    H161494   7.120   7.719   7.399
20539TIP3    H261495   7.141   7.628   7.280
20540TIP3   OH261496   7.240   6.893   6.367
20540TIP3    H161497   7.172   6.892   6.300
20540TIP3    H261498   7.217   6.967   6.424
20541TIP3   OH261499   7.114   6.563   6.321
20541TIP3    H161500   7.071   6.604   6.245
20541TIP3    H261501   7.090   6.471   6.314
20542TIP3   OH261502   7.120   6.839   6.870
20542TIP3    H161503   7.125   6.744   6.862
20542TIP3    H261504   7.105   6.855   6.963
20543TIP3   OH261505   5.747   6.918   7.610
20543TIP3    H161506   5.743   6.885   7.521
20543TIP3    H261507   5.840   6.918   7.632
20544TIP3   OH261508   7.408   7.260   7.715
20544TIP3    H161509   7.481   7.198   7.710
20544TIP3    H261510   7.433   7.332   7.657
20545TIP3   OH261511   7.602   7.073   7.744
20545TIP3    H161512   7.522   7.031   7.777
20545TIP3    H261513   7.670   7.007   7.755
20546TIP3   OH261514   7.057   6.298   6.311
20546TIP3    H161515   7.129   6.267   6.365
20546TIP3    H261516   6.984   6.241   6.333
20547TIP3   OH261517   7.117   6.554   6.762
20547TIP3    H161518   7.154   6.467   6.780
20547TIP3    H261519   7.173   6.590   6.693
20548TIP3   OH261520   7.281   6.731   7.259
20548TIP3    H161521   7.363   6.756   7.217
20548TIP3    H261522   7.287   6.766   7.347
20549TIP3   OH261523   7.344   6.876   7.488
20549TIP3    H161524   7.268   6.905   7.539
20549TIP3    H261525   7.376   6.956   7.446
20550TIP3   OH261526   2.699   1.983   0.293
20550TIP3    H161527   2.794   1.976   0.289
20550TIP3    H261528   2.670   1.899   0.329
20551TIP3   OH261529   7.797   6.458   8.037
20551TIP3    H161530   7.855   6.395   7.996
20551TIP3    H261531   7.770   6.516   7.966
20552TIP3   OH261532   7.224   6.304   6.802
20552TIP3    H161533   7.270   6.291   6.884
20552TIP3    H261534   7.162   6.231   6.797
20553TIP3   OH261535   5.932   6.280   7.619
20553TIP3    H161536   5.987   6.202   7.628
20553TIP3    H261537   5.995   6.352   7.612
20554TIP3   OH261538   5.727   6.570   7.690
20554TIP3    H161539   5.775   6.557   7.608
20554TIP3    H261540   5.763   6.650   7.727
20555TIP3   OH261541   7.667   6.606   7.849
20555TIP3    H161542   7.587   6.647   7.882
20555TIP3    H261543   7.637   6.535   7.793
20556TIP3   OH261544   7.308   6.241   6.433
20556TIP3    H161545   7.343   6.170   6.380
20556TIP3    H261546   7.372   6.312   6.423
20557TIP3   OH261547   5.705   6.075   7.195
20557TIP3    H161548   5.612   6.069   7.219
20557TIP3    H261549   5.705   6.128   7.116
20558TIP3   OH261550   2.663   1.538   0.011
20558TIP3    H161551   2.613   1.524   0.092
20558TIP3    H261552   2.597   1.568  -0.052
20559TIP3   OH261553   2.701   2.960   0.085
20559TIP3    H161554   2.613   2.930   0.066
20559TIP3    H261555   2.715   2.937   0.177
20560TIP3   OH261556   6.148   7.611   7.630
20560TIP3    H161557   6.098   7.684   7.595
20560TIP3    H261558   6.234   7.620   7.590
20561TIP3   OH261559   6.596   7.855   7.774
20561TIP3    H161560   6.637   7.853   7.861
20561TIP3    H261561   6.658   7.904   7.720
20562TIP3   OH261562   6.770   8.004   7.625
20562TIP3    H161563   6.839   7.952   7.583
20562TIP3    H261564   6.817   8.061   7.685
20563TIP3   OH261565   7.567   6.367   7.726
20563TIP3    H161566   7.476   6.365   7.698
20563TIP3    H261567   7.597   6.276   7.718
20564TIP3   OH261568   5.823   7.870   7.655
20564TIP3    H161569   5.736   7.902   7.633
20564TIP3    H261570   5.837   7.898   7.745
20565TIP3   OH261571   6.059   7.847   7.513
20565TIP3    H161572   5.976   7.859   7.560
20565TIP3    H261573   6.041   7.878   7.424
20566TIP3   OH261574   6.487   7.878   7.311
20566TIP3    H161575   6.418   7.897   7.248
20566TIP3    H261576   6.501   7.960   7.358
20567TIP3   OH261577   6.755   7.815   7.361
20567TIP3    H161578   6.662   7.830   7.343
20567TIP3    H261579   6.800   7.891   7.322
20568TIP3   OH261580   6.961   8.006   7.274
20568TIP3    H161581   6.947   8.089   7.229
20568TIP3    H261582   6.987   7.945   7.205
20569TIP3   OH261583   5.739   7.659   7.403
20569TIP3    H161584   5.761   7.636   7.493
20569TIP3    H261585   5.807   7.617   7.350
20570TIP3   OH261586   5.932   7.531   7.259
20570TIP3    H161587   5.943   7.448   7.305
20570TIP3    H261588   6.020   7.568   7.254
20571TIP3   OH261589   6.199   7.626   7.262
20571TIP3    H161590   6.226   7.536   7.246
20571TIP3    H261591   6.239   7.650   7.345
20572TIP3   OH261592   6.772   6.281   7.350
20572TIP3    H161593   6.727   6.216   7.404
20572TIP3    H261594   6.840   6.232   7.304
20573TIP3   OH261595   7.297   6.165   7.252
20573TIP3    H161596   7.331   6.216   7.179
20573TIP3    H261597   7.202   6.178   7.249
20574TIP3   OH261598   7.393   6.266   7.016
20574TIP3    H161599   7.463   6.214   6.977
20574TIP3    H261600   7.421   6.357   7.003
20575TIP3   OH261601   6.013   5.996   7.333
20575TIP3    H161602   5.931   5.951   7.354
20575TIP3    H261603   6.069   5.981   7.409
20576TIP3   OH261604   5.793   5.865   7.007
20576TIP3    H161605   5.834   5.921   6.941
20576TIP3    H261606   5.780   5.923   7.082
20577TIP3   OH261607   6.462   6.027   7.235
20577TIP3    H161608   6.530   6.080   7.193
20577TIP3    H261609   6.465   6.051   7.327
20578TIP3   OH261610   7.018   6.168   7.228
20578TIP3    H161611   7.004   6.134   7.139
20578TIP3    H261612   7.002   6.094   7.285
20579TIP3   OH261613   7.039   6.092   6.793
20579TIP3    H161614   6.954   6.136   6.802
20579TIP3    H261615   7.027   6.008   6.838
20580TIP3   OH261616   5.522   7.432   6.791
20580TIP3    H161617   5.440   7.396   6.757
20580TIP3    H261618   5.514   7.527   6.777
20581TIP3   OH261619   5.926   6.026   6.772
20581TIP3    H161620   5.971   5.959   6.720
20581TIP3    H261621   5.996   6.077   6.812
20582TIP3   OH261622   6.440   6.197   6.876
20582TIP3    H161623   6.490   6.143   6.937
20582TIP3    H261624   6.460   6.287   6.901
20583TIP3   OH261625   6.298   7.621   6.372
20583TIP3    H161626   6.386   7.643   6.342
20583TIP3    H261627   6.270   7.548   6.317
20584TIP3   OH261628   2.961   1.658   0.262
20584TIP3    H161629   2.926   1.584   0.312
20584TIP3    H261630   3.055   1.657   0.282
20585TIP3   OH261631   3.213   1.650   0.376
20585TIP3    H161632   3.294   1.622   0.334
20585TIP3    H261633   3.196   1.583   0.442
20586TIP3   OH261634   5.602   7.460   6.433
20586TIP3    H161635   5.599   7.482   6.526
20586TIP3    H261636   5.688   7.418   6.421
20587TIP3   OH261637   4.036   1.709   0.162
20587TIP3    H161638   4.052   1.680   0.252
20587TIP3    H261639   4.122   1.705   0.121
20588TIP3   OH261640   7.237   7.881   7.655
20588TIP3    H161641   7.160   7.855   7.604
20588TIP3    H261642   7.232   7.976   7.659
20589TIP3   OH261643   8.505   7.254   6.421
20589TIP3    H161644   8.483   7.346   6.405
20589TIP3    H261645   8.430   7.205   6.388
20590TIP3   OH261646   8.501   7.252   6.801
20590TIP3    H161647   8.532   7.230   6.889
20590TIP3    H261648   8.459   7.172   6.770
20591TIP3   OH261649   7.809   7.150   7.165
20591TIP3    H161650   7.837   7.083   7.227
20591TIP3    H261651   7.883   7.211   7.161
20592TIP3   OH261652   8.745   7.554   6.485
20592TIP3    H161653   8.743   7.484   6.550
20592TIP3    H261654   8.764   7.633   6.536
20593TIP3   OH261655   7.775   7.560   6.890
20593TIP3    H161656   7.765   7.465   6.894
20593TIP3    H261657   7.870   7.573   6.891
20594TIP3   OH261658   7.483   6.767   6.678
20594TIP3    H161659   7.437   6.849   6.694
20594TIP3    H261660   7.417   6.708   6.642
20595TIP3   OH261661   7.546   7.052   6.849
20595TIP3    H161662   7.591   6.976   6.886
20595TIP3    H261663   7.600   7.078   6.775
20596TIP3   OH261664   8.412   8.003   6.521
20596TIP3    H161665   8.456   7.951   6.454
20596TIP3    H261666   8.399   7.942   6.594
20597TIP3   OH261667   8.298   7.474   6.845
20597TIP3    H161668   8.332   7.397   6.800
20597TIP3    H261669   8.375   7.526   6.865
20598TIP3   OH261670   9.298   6.811   6.851
20598TIP3    H161671   9.332   6.899   6.866
20598TIP3    H261672   9.323   6.791   6.761
20599TIP3   OH261673   8.721   6.981   6.882
20599TIP3    H161674   8.764   6.898   6.903
20599TIP3    H261675   8.691   6.970   6.792
20600TIP3   OH261676   8.056   6.642   6.845
20600TIP3    H161677   8.035   6.716   6.789
20600TIP3    H261678   8.009   6.568   6.807
20601TIP3   OH261679   8.751   6.734   6.473
20601TIP3    H161680   8.820   6.718   6.537
20601TIP3    H261681   8.797   6.769   6.397
20602TIP3   OH261682   7.691   6.844   6.954
20602TIP3    H161683   7.770   6.825   7.004
20602TIP3    H261684   7.698   6.789   6.876
20603TIP3   OH261685   8.131   7.040   6.745
20603TIP3    H161686   8.222   7.016   6.759
20603TIP3    H261687   8.089   6.959   6.714
20604TIP3   OH261688   8.051   6.627   7.284
20604TIP3    H161689   7.994   6.663   7.216
20604TIP3    H261690   8.003   6.641   7.365
20605TIP3   OH261691   8.399   7.479   6.290
20605TIP3    H161692   8.357   7.455   6.208
20605TIP3    H261693   8.357   7.561   6.316
20606TIP3   OH261694   8.157   7.402   7.081
20606TIP3    H161695   8.093   7.463   7.116
20606TIP3    H261696   8.196   7.448   7.006
20607TIP3   OH261697   8.962   6.730   6.643
20607TIP3    H161698   8.966   6.674   6.720
20607TIP3    H261699   9.000   6.813   6.672
20608TIP3   OH261700   7.926   6.741   7.067
20608TIP3    H161701   7.982   6.814   7.092
20608TIP3    H261702   7.971   6.700   6.992
20609TIP3   OH261703   7.970   7.589   7.160
20609TIP3    H161704   7.953   7.676   7.123
20609TIP3    H261705   7.896   7.574   7.219
20610TIP3   OH261706   7.384   7.283   6.411
20610TIP3    H161707   7.332   7.307   6.334
20610TIP3    H261708   7.407   7.366   6.452
20611TIP3   OH261709   9.110   6.695   7.021
20611TIP3    H161710   9.024   6.716   6.985
20611TIP3    H261711   9.172   6.728   6.955
20612TIP3   OH261712   8.418   6.317   7.060
20612TIP3    H161713   8.404   6.266   6.981
20612TIP3    H261714   8.339   6.371   7.068
20613TIP3   OH261715   8.522   7.848   6.322
20613TIP3    H161716   8.570   7.767   6.304
20613TIP3    H261717   8.573   7.916   6.278
20614TIP3   OH261718   8.666   7.631   6.233
20614TIP3    H161719   8.624   7.556   6.191
20614TIP3    H261720   8.699   7.596   6.316
20615TIP3   OH261721   8.336   7.107   6.250
20615TIP3    H161722   8.257   7.158   6.231
20615TIP3    H261723   8.384   7.104   6.167
20616TIP3   OH261724   8.300   6.891   5.970
20616TIP3    H161725   8.364   6.944   6.018
20616TIP3    H261726   8.352   6.828   5.922
20617TIP3   OH261727   8.685   7.189   6.226
20617TIP3    H161728   8.630   7.214   6.301
20617TIP3    H261729   8.769   7.165   6.266
20618TIP3   OH261730   7.917   7.186   6.639
20618TIP3    H161731   7.875   7.131   6.574
20618TIP3    H261732   7.993   7.136   6.668
20619TIP3   OH261733   8.048   7.599   6.787
20619TIP3    H161734   8.025   7.555   6.705
20619TIP3    H261735   8.135   7.566   6.809
20620TIP3   OH261736   8.060   7.158   6.995
20620TIP3    H161737   8.088   7.141   6.905
20620TIP3    H261738   8.098   7.243   7.016
20621TIP3   OH261739   8.537   7.822   6.763
20621TIP3    H161740   8.609   7.862   6.813
20621TIP3    H261741   8.541   7.729   6.786
20622TIP3   OH261742   8.108   7.750   7.343
20622TIP3    H161743   8.079   7.833   7.305
20622TIP3    H261744   8.078   7.683   7.281
20623TIP3   OH261745   8.529   7.049   6.049
20623TIP3    H161746   8.584   7.106   6.102
20623TIP3    H261747   8.552   7.070   5.959
20624TIP3   OH261748   7.941   7.260   7.412
20624TIP3    H161749   7.946   7.347   7.452
20624TIP3    H261750   7.848   7.235   7.421
20625TIP3   OH261751   8.268   7.730   6.326
20625TIP3    H161752   8.348   7.780   6.340
20625TIP3    H261753   8.207   7.792   6.287
20626TIP3   OH261754   9.040   6.293   6.100
20626TIP3    H161755   8.958   6.309   6.146
20626TIP3    H261756   9.055   6.372   6.049
20627TIP3   OH261757   7.782   7.029   6.444
20627TIP3    H161758   7.720   7.076   6.388
20627TIP3    H261759   7.741   6.944   6.460
20628TIP3   OH261760   8.842   7.657   5.644
20628TIP3    H161761   8.848   7.752   5.633
20628TIP3    H261762   8.932   7.626   5.633
20629TIP3   OH261763   7.562   7.412   7.352
20629TIP3    H161764   7.497   7.393   7.285
20629TIP3    H261765   7.599   7.326   7.375
20630TIP3   OH261766   7.420   7.609   6.987
20630TIP3    H161767   7.515   7.603   6.977
20630TIP3    H261768   7.406   7.688   7.039
20631TIP3   OH261769   8.146   7.973   6.128
20631TIP3    H161770   8.104   7.958   6.044
20631TIP3    H261771   8.119   8.062   6.153
20632TIP3   OH261772   7.580   7.816   6.521
20632TIP3    H161773   7.645   7.819   6.590
20632TIP3    H261774   7.514   7.754   6.553
20633TIP3   OH261775   8.353   7.873   5.767
20633TIP3    H161776   8.410   7.805   5.731
20633TIP3    H261777   8.382   7.885   5.857
20634TIP3   OH261778   8.396   7.921   6.035
20634TIP3    H161779   8.311   7.931   6.078
20634TIP3    H261780   8.454   7.890   6.105
20635TIP3   OH261781   7.764   7.593   7.336
20635TIP3    H161782   7.815   7.571   7.413
20635TIP3    H261783   7.688   7.535   7.340
20636TIP3   OH261784   8.169   6.424   7.122
20636TIP3    H161785   8.084   6.388   7.096
20636TIP3    H261786   8.148   6.506   7.165
20637TIP3   OH261787   8.707   6.502   7.311
20637TIP3    H161788   8.776   6.506   7.377
20637TIP3    H261789   8.626   6.518   7.360
20638TIP3   OH261790   8.603   7.095   5.792
20638TIP3    H161791   8.568   7.068   5.707
20638TIP3    H261792   8.682   7.145   5.771
20639TIP3   OH261793   8.314   6.467   6.097
20639TIP3    H161794   8.281   6.469   6.187
20639TIP3    H261795   8.277   6.387   6.059
20640TIP3   OH261796   8.100   6.937   7.144
20640TIP3    H161797   8.054   6.956   7.225
20640TIP3    H261798   8.088   7.015   7.090
20641TIP3   OH261799   7.984   6.820   6.656
20641TIP3    H161800   7.893   6.798   6.676
20641TIP3    H261801   7.999   6.783   6.569
20642TIP3   OH261802   8.475   6.909   6.382
20642TIP3    H161803   8.422   6.979   6.345
20642TIP3    H261804   8.530   6.879   6.310
20643TIP3   OH261805   8.629   6.935   6.623
20643TIP3    H161806   8.571   6.971   6.555
20643TIP3    H261807   8.664   6.855   6.584
20644TIP3   OH261808   7.918   6.962   7.352
20644TIP3    H161809   7.945   7.027   7.416
20644TIP3    H261810   7.905   6.882   7.404
20645TIP3   OH261811   7.970   6.445   6.065
20645TIP3    H161812   7.961   6.439   6.160
20645TIP3    H261813   7.893   6.493   6.036
20646TIP3   OH261814   7.513   6.491   6.932
20646TIP3    H161815   7.589   6.518   6.983
20646TIP3    H261816   7.550   6.455   6.851
20647TIP3   OH261817   7.490   6.473   6.452
20647TIP3    H161818   7.534   6.508   6.374
20647TIP3    H261819   7.426   6.540   6.475
20648TIP3   OH261820   8.616   7.170   7.046
20648TIP3    H161821   8.665   7.111   6.989
20648TIP3    H261822   8.595   7.117   7.123
20649TIP3   OH261823   8.310   6.634   6.723
20649TIP3    H161824   8.225   6.643   6.767
20649TIP3    H261825   8.374   6.658   6.789
20650TIP3   OH261826   7.745   6.699   6.726
20650TIP3    H161827   7.653   6.712   6.701
20650TIP3    H261828   7.763   6.608   6.704
20651TIP3   OH261829   8.018   6.698   6.413
20651TIP3    H161830   8.109   6.713   6.389
20651TIP3    H261831   7.969   6.720   6.334
20652TIP3   OH261832   8.804   6.720   6.923
20652TIP3    H161833   8.779   6.733   7.014
20652TIP3    H261834   8.737   6.661   6.887
20653TIP3   OH261835   7.858   6.729   6.194
20653TIP3    H161836   7.783   6.686   6.151
20653TIP3    H261837   7.909   6.765   6.121
20654TIP3   OH261838   7.924   7.497   7.541
20654TIP3    H161839   7.971   7.578   7.558
20654TIP3    H261840   7.859   7.491   7.612
20655TIP3   OH261841   8.395   6.964   6.813
20655TIP3    H161842   8.473   6.937   6.764
20655TIP3    H261843   8.411   6.932   6.902
20656TIP3   OH261844   7.930   6.454   6.697
20656TIP3    H161845   7.885   6.381   6.739
20656TIP3    H261846   7.954   6.421   6.610
20657TIP3   OH261847   8.371   6.864   7.116
20657TIP3    H161848   8.284   6.904   7.121
20657TIP3    H261849   8.429   6.927   7.158
20658TIP3   OH261850   8.107   7.260   6.203
20658TIP3    H161851   8.038   7.196   6.189
20658TIP3    H261852   8.092   7.294   6.291
20659TIP3   OH261853   8.567   6.573   6.065
20659TIP3    H161854   8.473   6.556   6.070
20659TIP3    H261855   8.576   6.666   6.086
20660TIP3   OH261856   8.638   6.821   6.166
20660TIP3    H161857   8.732   6.827   6.182
20660TIP3    H261858   8.618   6.899   6.115
20661TIP3   OH261859   7.803   7.283   6.877
20661TIP3    H161860   7.838   7.254   6.793
20661TIP3    H261861   7.836   7.219   6.940
20662TIP3   OH261862   8.252   7.411   6.023
20662TIP3    H161863   8.207   7.495   6.026
20662TIP3    H261864   8.201   7.354   6.081
20663TIP3   OH261865   7.679   7.197   7.490
20663TIP3    H161866   7.693   7.179   7.583
20663TIP3    H261867   7.609   7.137   7.464
20664TIP3   OH261868   8.430   7.266   7.484
20664TIP3    H161869   8.356   7.248   7.426
20664TIP3    H261870   8.456   7.356   7.463
20665TIP3   OH261871   9.076   6.911   5.999
20665TIP3    H161872   9.016   6.863   5.941
20665TIP3    H261873   9.076   7.000   5.964
20666TIP3   OH261874   8.771   7.723   5.907
20666TIP3    H161875   8.754   7.654   5.972
20666TIP3    H261876   8.790   7.676   5.826
20667TIP3   OH261877   8.759   7.355   6.742
20667TIP3    H161878   8.670   7.324   6.758
20667TIP3    H261879   8.803   7.281   6.700
20668TIP3   OH261880   7.902   7.584   6.497
20668TIP3    H161881   7.906   7.666   6.448
20668TIP3    H261882   7.809   7.572   6.517
20669TIP3   OH261883   7.465   6.892   6.208
20669TIP3    H161884   7.511   6.974   6.226
20669TIP3    H261885   7.388   6.894   6.265
20670TIP3   OH261886   8.042   7.351   6.449
20670TIP3    H161887   8.008   7.440   6.462
20670TIP3    H261888   8.006   7.300   6.521
20671TIP3   OH261889   8.168   7.930   6.972
20671TIP3    H161890   8.183   8.016   6.932
20671TIP3    H261891   8.236   7.922   7.039
20672TIP3   OH261892   7.819   7.829   6.355
20672TIP3    H161893   7.736   7.835   6.402
20672TIP3    H261894   7.856   7.917   6.359
20673TIP3   OH261895   8.543   7.580   6.908
20673TIP3    H161896   8.545   7.596   7.002
20673TIP3    H261897   8.621   7.526   6.892
20674TIP3   OH261898   8.533   7.454   5.815
20674TIP3    H161899   8.587   7.432   5.891
20674TIP3    H261900   8.444   7.431   5.842
20675TIP3   OH261901   8.871   7.934   5.633
20675TIP3    H161902   8.918   8.002   5.585
20675TIP3    H261903   8.791   7.977   5.662
20676TIP3   OH261904   7.891   6.705   7.500
20676TIP3    H161905   7.797   6.715   7.511
20676TIP3    H261906   7.918   6.645   7.570
20677TIP3   OH261907   8.695   7.389   6.030
20677TIP3    H161908   8.683   7.324   6.100
20677TIP3    H261909   8.790   7.389   6.015
20678TIP3   OH261910   7.612   7.794   7.133
20678TIP3    H161911   7.662   7.716   7.159
20678TIP3    H261912   7.643   7.862   7.193
20679TIP3   OH261913   7.899   7.436   5.813
20679TIP3    H161914   7.914   7.347   5.782
20679TIP3    H261915   7.880   7.425   5.907
20680TIP3   OH261916   7.845   7.445   6.087
20680TIP3    H161917   7.917   7.414   6.143
20680TIP3    H261918   7.849   7.540   6.092
20681TIP3   OH261919   7.583   7.139   6.287
20681TIP3    H161920   7.517   7.179   6.344
20681TIP3    H261921   7.599   7.206   6.220
20682TIP3   OH261922   8.744   6.763   7.187
20682TIP3    H161923   8.795   6.810   7.253
20682TIP3    H261924   8.721   6.680   7.229
20683TIP3   OH261925   8.609   6.528   6.342
20683TIP3    H161926   8.592   6.547   6.250
20683TIP3    H261927   8.647   6.609   6.377
20684TIP3   OH261928   8.108   7.641   6.032
20684TIP3    H161929   8.024   7.667   6.070
20684TIP3    H261930   8.131   7.713   5.972
20685TIP3   OH261931   8.305   6.701   6.448
20685TIP3    H161932   8.365   6.773   6.427
20685TIP3    H261933   8.305   6.698   6.543
20686TIP3   OH261934   8.570   7.014   7.265
20686TIP3    H161935   8.555   7.060   7.347
20686TIP3    H261936   8.631   6.943   7.288
20687TIP3   OH261937   8.448   6.438   6.552
20687TIP3    H161938   8.428   6.515   6.605
20687TIP3    H261939   8.505   6.471   6.483
20688TIP3   OH261940   7.851   7.718   6.101
20688TIP3    H161941   7.825   7.785   6.038
20688TIP3    H261942   7.839   7.760   6.186
20689TIP3   OH261943   7.957   6.430   6.343
20689TIP3    H161944   7.951   6.520   6.373
20689TIP3    H261945   8.050   6.409   6.346
20690TIP3   OH261946   8.852   7.114   6.619
20690TIP3    H161947   8.773   7.061   6.630
20690TIP3    H261948   8.919   7.068   6.669
20691TIP3   OH261949   7.577   7.349   6.091
20691TIP3    H161950   7.646   7.415   6.103
20691TIP3    H261951   7.613   7.289   6.025
20692TIP3   OH261952   7.517   6.623   6.226
20692TIP3    H161953   7.515   6.718   6.222
20692TIP3    H261954   7.435   6.595   6.185
20693TIP3   OH261955   7.910   6.338   7.097
20693TIP3    H161956   7.874   6.309   7.014
20693TIP3    H261957   7.896   6.264   7.157
20694TIP3   OH261958   7.435   7.548   6.484
20694TIP3    H161959   7.354   7.585   6.521
20694TIP3    H261960   7.454   7.604   6.408
20695TIP3   OH261961   8.063   7.638   5.725
20695TIP3    H161962   8.007   7.571   5.763
20695TIP3    H261963   8.139   7.590   5.693
20696TIP3   OH261964   8.501   7.681   5.636
20696TIP3    H161965   8.544   7.621   5.696
20696TIP3    H261966   8.557   7.682   5.558
20697TIP3   OH261967   7.745   7.494   7.741
20697TIP3    H161968   7.752   7.399   7.745
20697TIP3    H261969   7.654   7.510   7.716
20698TIP3   OH261970   7.710   7.159   5.945
20698TIP3    H161971   7.760   7.124   6.019
20698TIP3    H261972   7.773   7.165   5.873
20699TIP3   OH261973   8.215   7.355   5.754
20699TIP3    H161974   8.219   7.370   5.848
20699TIP3    H261975   8.215   7.260   5.745
20700TIP3   OH261976   7.859   7.239   7.739
20700TIP3    H161977   7.925   7.171   7.724
20700TIP3    H261978   7.837   7.232   7.832
20701TIP3   OH261979   7.918   7.059   6.169
20701TIP3    H161980   7.888   7.020   6.251
20701TIP3    H261981   7.952   6.986   6.118
20702TIP3   OH261982   8.175   7.117   7.379
20702TIP3    H161983   8.100   7.175   7.385
20702TIP3    H261984   8.229   7.154   7.309
20703TIP3   OH261985   8.017   6.854   6.007
20703TIP3    H161986   7.988   6.857   5.916
20703TIP3    H261987   8.113   6.860   6.002
20704TIP3   OH261988   8.838   7.188   5.667
20704TIP3    H161989   8.818   7.139   5.588
20704TIP3    H261990   8.808   7.277   5.649
20705TIP3   OH261991   8.277   6.897   7.505
20705TIP3    H161992   8.287   6.824   7.444
20705TIP3    H261993   8.248   6.970   7.450
20706TIP3   OH261994   8.317   6.682   7.319
20706TIP3    H161995   8.340   6.737   7.245
20706TIP3    H261996   8.222   6.670   7.311
20707TIP3   OH261997   8.339   7.234   7.198
20707TIP3    H161998   8.422   7.244   7.151
20707TIP3    H261999   8.283   7.303   7.162
20708TIP3   OH262000   8.156   7.014   7.720
20708TIP3    H162001   8.098   6.945   7.752
20708TIP3    H262002   8.190   6.981   7.637
20709TIP3   OH262003   8.435   6.440   7.365
20709TIP3    H162004   8.410   6.532   7.358
20709TIP3    H262005   8.354   6.396   7.393
20710TIP3   OH262006   8.537   6.929   7.575
20710TIP3    H162007   8.540   6.894   7.664
20710TIP3    H262008   8.447   6.915   7.547
20711TIP3   OH262009   8.022   6.791   7.808
20711TIP3    H162010   8.024   6.706   7.764
20711TIP3    H262011   8.046   6.772   7.899
20712TIP3   OH262012   8.532   6.464   7.646
20712TIP3    H162013   8.603   6.400   7.646
20712TIP3    H262014   8.492   6.457   7.559
20713TIP3   OH262015   8.599   6.692   7.775
20713TIP3    H162016   8.583   6.605   7.737
20713TIP3    H262017   8.511   6.726   7.793
20714TIP3   OH262018   7.824   7.917   5.909
20714TIP3    H162019   7.918   7.912   5.897
20714TIP3    H262020   7.792   7.967   5.834
20715TIP3   OH262021   7.305   7.299   6.126
20715TIP3    H162022   7.397   7.321   6.116
20715TIP3    H262023   7.296   7.212   6.087
20716TIP3   OH262024   7.188   7.877   6.520
20716TIP3    H162025   7.101   7.843   6.540
20716TIP3    H262026   7.244   7.842   6.590
20717TIP3   OH262027   7.356   7.778   6.716
20717TIP3    H162028   7.327   7.703   6.767
20717TIP3    H262029   7.409   7.830   6.777
20718TIP3   OH262030   8.975   7.376   6.004
20718TIP3    H162031   9.041   7.439   5.975
20718TIP3    H262032   9.014   7.335   6.081
20719TIP3   OH262033   9.096   7.241   6.205
20719TIP3    H162034   9.036   7.200   6.267
20719TIP3    H262035   9.166   7.277   6.260
20720TIP3   OH262036   9.036   7.150   5.855
20720TIP3    H162037   8.968   7.151   5.788
20720TIP3    H262038   9.014   7.224   5.912
20721TIP3   OH262039   8.910   6.818   5.808
20721TIP3    H162040   8.867   6.863   5.734
20721TIP3    H262041   8.885   6.727   5.798
20722TIP3   OH262042   8.914   7.095   6.355
20722TIP3    H162043   8.923   7.000   6.349
20722TIP3    H262044   8.899   7.112   6.448
20723TIP3   OH262045   7.544   7.169   7.100
20723TIP3    H162046   7.538   7.140   7.008
20723TIP3    H262047   7.638   7.171   7.118
20724TIP3   OH262048   8.854   6.553   5.795
20724TIP3    H162049   8.927   6.524   5.849
20724TIP3    H262050   8.781   6.497   5.820
20725TIP3   OH262051   8.912   6.811   6.250
20725TIP3    H162052   8.951   6.725   6.265
20725TIP3    H262053   8.967   6.850   6.181
20726TIP3   OH262054   9.046   6.976   6.753
20726TIP3    H162055   9.131   6.992   6.712
20726TIP3    H262056   9.056   7.007   6.843
20727TIP3   OH262057   7.762   6.859   7.781
20727TIP3    H162058   7.857   6.848   7.781
20727TIP3    H262059   7.728   6.777   7.818
20728TIP3   OH262060   9.019   6.560   6.287
20728TIP3    H162061   9.066   6.545   6.368
20728TIP3    H262062   8.957   6.488   6.281
20729TIP3   OH262063   7.724   6.547   7.102
20729TIP3    H162064   7.784   6.474   7.116
20729TIP3    H262065   7.781   6.624   7.101
20730TIP3   OH262066   7.526   6.824   7.180
20730TIP3    H162067   7.571   6.817   7.096
20730TIP3    H262068   7.550   6.910   7.213
20731TIP3   OH262069   9.103   6.498   5.919
20731TIP3    H162070   9.141   6.427   5.868
20731TIP3    H262071   9.167   6.569   5.914
20732TIP3   OH262072   7.506   6.333   6.683
20732TIP3    H162073   7.414   6.323   6.708
20732TIP3    H262074   7.503   6.386   6.604
20733TIP3   OH262075   8.644   8.035   6.173
20733TIP3    H162076   8.701   8.009   6.100
20733TIP3    H262077   8.705   8.069   6.239
20734TIP3   OH262078   7.727   6.405   7.493
20734TIP3    H162079   7.681   6.398   7.577
20734TIP3    H262080   7.663   6.445   7.434
20735TIP3   OH262081   7.742   7.841   7.602
20735TIP3    H162082   7.657   7.816   7.567
20735TIP3    H262083   7.745   7.803   7.690
20736TIP3   OH262084   7.949   7.856   7.111
20736TIP3    H162085   7.890   7.924   7.078
20736TIP3    H262086   8.031   7.871   7.065
20737TIP3   OH262087   9.323   6.613   7.192
20737TIP3    H162088   9.251   6.639   7.134
20737TIP3    H262089   9.342   6.522   7.167
20738TIP3   OH262090   7.616   8.132   7.138
20738TIP3    H162091   7.526   8.157   7.118
20738TIP3    H262092   7.622   8.140   7.233
20739TIP3   OH262093   7.835   8.061   6.980
20739TIP3    H162094   7.768   8.099   7.036
20739TIP3    H262095   7.845   8.123   6.908
20740TIP3   OH262096   7.537   7.913   6.886
20740TIP3    H162097   7.556   7.896   6.978
20740TIP3    H262098   7.610   7.876   6.838
20741TIP3   OH262099   7.730   7.787   6.739
20741TIP3    H162100   7.742   7.707   6.790
20741TIP3    H262101   7.817   7.827   6.738
20742TIP3   OH262102   7.991   7.876   6.745
20742TIP3    H162103   8.024   7.787   6.739
20742TIP3    H262104   8.021   7.908   6.830
20743TIP3   OH262105   8.578   6.545   6.841
20743TIP3    H162106   8.542   6.477   6.898
20743TIP3    H262107   8.638   6.499   6.783
20744TIP3   OH262108   9.083   6.479   6.768
20744TIP3    H162109   9.123   6.504   6.685
20744TIP3    H262110   8.992   6.461   6.746
20745TIP3   OH262111   9.185   6.511   6.506
20745TIP3    H162112   9.258   6.464   6.467
20745TIP3    H262113   9.206   6.604   6.493
20746TIP3   OH262114   7.815   6.246   6.851
20746TIP3    H162115   7.723   6.219   6.853
20746TIP3    H262116   7.864   6.164   6.849
20747TIP3   OH262117   7.608   6.120   6.501
20747TIP3    H162118   7.632   6.175   6.426
20747TIP3    H262119   7.573   6.181   6.566
20748TIP3   OH262120   8.277   6.283   6.753
20748TIP3    H162121   8.321   6.322   6.677
20748TIP3    H262122   8.231   6.356   6.794
20749TIP3   OH262123   8.808   6.413   6.714
20749TIP3    H162124   8.788   6.398   6.621
20749TIP3    H262125   8.798   6.326   6.754
20750TIP3   OH262126   8.825   6.353   6.273
20750TIP3    H162127   8.747   6.406   6.282
20750TIP3    H262128   8.799   6.266   6.304
20751TIP3   OH262129   7.721   6.278   6.263
20751TIP3    H162130   7.765   6.214   6.206
20751TIP3    H262131   7.791   6.331   6.300
20752TIP3   OH262132   8.233   6.453   6.364
20752TIP3    H162133   8.292   6.401   6.417
20752TIP3    H262134   8.254   6.544   6.386
20753TIP3   OH262135   8.093   7.877   5.858
20753TIP3    H162136   8.180   7.902   5.827
20753TIP3    H262137   8.068   7.803   5.803
20754TIP3   OH262138   8.797   7.988   5.946
20754TIP3    H162139   8.795   7.893   5.937
20754TIP3    H262140   8.758   8.021   5.865
20755TIP3   OH262141   8.030   6.525   7.742
20755TIP3    H162142   7.990   6.458   7.798
20755TIP3    H262143   8.122   6.528   7.770
20756TIP3   OH262144   8.280   6.518   7.859
20756TIP3    H162145   8.364   6.489   7.824
20756TIP3    H262146   8.260   6.456   7.929
20757TIP3   OH262147   7.406   7.713   5.914
20757TIP3    H162148   7.411   7.724   6.009
20757TIP3    H262149   7.488   7.670   5.890
20758TIP3   OH262150   9.274   7.016   6.164
20758TIP3    H162151   9.237   7.102   6.183
20758TIP3    H262152   9.202   6.968   6.123
20759TIP3   OH262153   9.342   7.302   6.308
20759TIP3    H162154   9.398   7.236   6.349
20759TIP3    H262155   9.400   7.349   6.249
20760TIP3   OH262156   0.071   6.870   6.311
20760TIP3    H162157   0.071   6.953   6.263
20760TIP3    H262158  -0.004   6.822   6.276
20761TIP3   OH262159   9.457   7.069   6.439
20761TIP3    H162160   9.549   7.066   6.466
20761TIP3    H262161   9.455   7.024   6.355
20762TIP3   OH262162   9.176   7.544   5.899
20762TIP3    H162163   9.135   7.572   5.817
20762TIP3    H262164   9.206   7.626   5.939
20763TIP3   OH262165   0.317   7.347   5.670
20763TIP3    H162166   0.239   7.402   5.675
20763TIP3    H262167   0.385   7.405   5.635
20764TIP3   OH262168   0.287   7.147   5.449
20764TIP3    H162169   0.323   7.187   5.528
20764TIP3    H262170   0.358   7.094   5.414
20765TIP3   OH262171   9.573   7.265   5.902
20765TIP3    H162172   9.505   7.320   5.862
20765TIP3    H262173   9.524   7.200   5.952
20766TIP3   OH262174   0.325   6.726   5.584
20766TIP3    H162175   0.294   6.726   5.675
20766TIP3    H262176   0.282   6.651   5.545
20767TIP3   OH262177   9.775   7.056   6.122
20767TIP3    H162178   9.686   7.043   6.154
20767TIP3    H262179   9.774   7.019   6.034
20768TIP3   OH262180   9.768   6.703   5.549
20768TIP3    H162181   9.760   6.695   5.644
20768TIP3    H262182   9.690   6.753   5.523
20769TIP3   OH262183   9.298   6.736   6.415
20769TIP3    H162184   9.372   6.761   6.471
20769TIP3    H262185   9.337   6.711   6.332
20770TIP3   OH262186   9.283   6.728   5.938
20770TIP3    H162187   9.331   6.762   5.862
20770TIP3    H262188   9.223   6.798   5.962
20771TIP3   OH262189   9.536   6.946   6.206
20771TIP3    H162190   9.446   6.951   6.174
20771TIP3    H262191   9.566   6.859   6.180
20772TIP3   OH262192   0.001   6.935   5.881
20772TIP3    H162193   0.088   6.965   5.855
20772TIP3    H262194  -0.057   6.964   5.811
20773TIP3   OH262195   9.644   6.986   5.672
20773TIP3    H162196   9.572   6.943   5.626
20773TIP3    H262197   9.698   7.023   5.602
20774TIP3   OH262198   9.694   6.713   6.166
20774TIP3    H162199   9.665   6.636   6.216
20774TIP3    H262200   9.763   6.680   6.109
20775TIP3   OH262201   0.099   7.516   5.672
20775TIP3    H162202   0.031   7.449   5.672
20775TIP3    H262203   0.089   7.559   5.757
20776TIP3   OH262204   0.562   6.859   5.544
20776TIP3    H162205   0.474   6.825   5.562
20776TIP3    H262206   0.554   6.954   5.555
20777TIP3   OH262207   9.260   7.148   5.693
20777TIP3    H162208   9.308   7.229   5.711
20777TIP3    H262209   9.185   7.151   5.752
20778TIP3   OH262210   9.707   7.686   5.302
20778TIP3    H162211   9.705   7.597   5.267
20778TIP3    H262212   9.675   7.677   5.392
20779TIP3   OH262213   9.643   7.703   5.572
20779TIP3    H162214   9.709   7.655   5.623
20779TIP3    H262215   9.663   7.795   5.588
20780TIP3   OH262216   9.368   7.396   5.772
20780TIP3    H162217   9.306   7.438   5.832
20780TIP3    H262218   9.387   7.463   5.706
20781TIP3   OH262219   0.576   6.779   5.818
20781TIP3    H162220   0.592   6.788   5.724
20781TIP3    H262221   0.644   6.833   5.859
20782TIP3   OH262222   0.287   6.974   5.937
20782TIP3    H162223   0.337   7.044   5.894
20782TIP3    H262224   0.234   7.020   6.003
20783TIP3   OH262225   0.441   6.666   6.034
20783TIP3    H162226   0.463   6.735   6.096
20783TIP3    H262227   0.491   6.688   5.955
20784TIP3   OH262228   9.753   6.676   5.822
20784TIP3    H162229   9.745   6.765   5.857
20784TIP3    H262230   9.846   6.655   5.831
20785TIP3   OH262231   9.368   7.602   5.578
20785TIP3    H162232   9.425   7.679   5.587
20785TIP3    H262233   9.413   7.547   5.513
20786TIP3   OH262234   9.313   6.878   5.710
20786TIP3    H162235   9.316   6.974   5.709
20786TIP3    H262236   9.226   6.857   5.676
20787TIP3   OH262237   9.698   6.577   6.570
20787TIP3    H162238   9.682   6.561   6.477
20787TIP3    H262239   9.693   6.490   6.610
20788TIP3   OH262240   9.233   7.801   5.976
20788TIP3    H162241   9.171   7.847   6.032
20788TIP3    H262242   9.238   7.854   5.896
20789TIP3   OH262243   0.060   7.897   5.216
20789TIP3    H162244   0.005   7.826   5.249
20789TIP3    H262245   0.134   7.853   5.175
20790TIP3   OH262246   9.508   7.415   5.432
20790TIP3    H162247   9.557   7.381   5.507
20790TIP3    H262248   9.573   7.418   5.361
20791TIP3   OH262249   0.213   7.609   5.244
20791TIP3    H162250   0.175   7.626   5.330
20791TIP3    H262251   0.213   7.514   5.236
20792TIP3   OH262252   9.708   7.318   5.656
20792TIP3    H162253   9.682   7.293   5.745
20792TIP3    H262254   9.738   7.237   5.616
20793TIP3   OH262255   0.011   7.106   5.492
20793TIP3    H162256  -0.021   7.113   5.402
20793TIP3    H262257   0.106   7.122   5.484
20794TIP3   OH262258   7.237   7.150   7.746
20794TIP3    H162259   7.325   7.121   7.722
20794TIP3    H262260   7.200   7.186   7.666
20795TIP3   OH262261   9.100   7.555   5.612
20795TIP3    H162262   9.192   7.579   5.603
20795TIP3    H262263   9.094   7.467   5.575
20796TIP3   OH262264   8.987   8.154   6.044
20796TIP3    H162265   8.923   8.098   6.000
20796TIP3    H262266   8.983   8.127   6.136
20797TIP3   OH262267   9.507   6.772   6.588
20797TIP3    H162268   9.565   6.697   6.590
20797TIP3    H262269   9.563   6.846   6.566
20798TIP3   OH262270   9.291   7.041   6.662
20798TIP3    H162271   9.321   7.028   6.572
20798TIP3    H262272   9.317   7.131   6.682
20799TIP3   OH262273   9.298   6.580   6.165
20799TIP3    H162274   9.206   6.580   6.191
20799TIP3    H262275   9.302   6.639   6.090
20800TIP3   OH262276   9.727   6.666   6.835
20800TIP3    H162277   9.760   6.622   6.756
20800TIP3    H262278   9.632   6.654   6.831
20801TIP3   OH262279   9.608   6.497   6.319
20801TIP3    H162280   9.516   6.470   6.327
20801TIP3    H262281   9.657   6.414   6.320
20802TIP3   OH262282   9.399   6.376   5.986
20802TIP3    H162283   9.429   6.431   5.914
20802TIP3    H262284   9.369   6.438   6.053
20803TIP3   OH262285   0.252   6.527   6.214
20803TIP3    H162286   0.310   6.578   6.157
20803TIP3    H262287   0.243   6.581   6.293
20804TIP3   OH262288   9.120   7.935   5.757
20804TIP3    H162289   9.033   7.908   5.728
20804TIP3    H262290   9.120   8.030   5.751
20805TIP3   OH262291   9.516   6.534   5.749
20805TIP3    H162292   9.564   6.472   5.694
20805TIP3    H262293   9.585   6.589   5.787
20806TIP3   OH262294   0.232   6.711   5.848
20806TIP3    H162295   0.289   6.661   5.907
20806TIP3    H262296   0.243   6.802   5.876
20807TIP3   OH262297   9.194   7.975   5.407
20807TIP3    H162298   9.187   7.993   5.500
20807TIP3    H262299   9.280   7.933   5.397
20808TIP3   OH262300   8.293   2.950   0.520
20808TIP3    H162301   8.323   3.024   0.573
20808TIP3    H262302   8.317   2.974   0.431
20809TIP3   OH262303   7.787   3.138   0.543
20809TIP3    H162304   7.813   3.049   0.565
20809TIP3    H262305   7.741   3.129   0.459
20810TIP3   OH262306   7.735   2.895   0.162
20810TIP3    H162307   7.806   2.881   0.224
20810TIP3    H262308   7.778   2.928   0.084
20811TIP3   OH262309   8.378   3.150   0.675
20811TIP3    H162310   8.350   3.237   0.644
20811TIP3    H262311   8.430   3.169   0.753
20812TIP3   OH262312   7.948   2.905   0.328
20812TIP3    H162313   7.936   2.857   0.410
20812TIP3    H262314   8.003   2.980   0.352
20813TIP3   OH262315   8.087   2.887   0.700
20813TIP3    H162316   8.002   2.886   0.656
20813TIP3    H262317   8.150   2.903   0.630
20814TIP3   OH262318   0.772   6.524   6.003
20814TIP3    H162319   0.700   6.468   5.974
20814TIP3    H262320   0.769   6.520   6.098
20815TIP3   OH262321   8.191   3.481   0.475
20815TIP3    H162322   8.161   3.551   0.533
20815TIP3    H262323   8.232   3.527   0.401
20816TIP3   OH262324   1.149   7.986   7.908
20816TIP3    H162325   1.084   8.000   7.977
20816TIP3    H262326   1.225   7.949   7.954
20817TIP3   OH262327   1.046   7.802   7.724
20817TIP3    H162328   1.053   7.867   7.795
20817TIP3    H262329   1.004   7.850   7.652
20818TIP3   OH262330   1.493   7.080   7.786
20818TIP3    H162331   1.415   7.095   7.840
20818TIP3    H262332   1.506   7.163   7.740
20819TIP3   OH262333   1.294   8.446   7.330
20819TIP3    H162334   1.302   8.541   7.324
20819TIP3    H262335   1.384   8.414   7.322
20820TIP3   OH262336   7.705   2.691   0.996
20820TIP3    H162337   7.784   2.655   1.037
20820TIP3    H262338   7.633   2.660   1.052
20821TIP3   OH262339   1.040   7.909   7.457
20821TIP3    H162340   1.032   7.851   7.381
20821TIP3    H262341   1.134   7.931   7.461
20822TIP3   OH262342   7.634   3.105   0.307
20822TIP3    H162343   7.548   3.127   0.270
20822TIP3    H262344   7.660   3.025   0.261
20823TIP3   OH262345   7.816   2.867   0.594
20823TIP3    H162346   7.780   2.888   0.680
20823TIP3    H262347   7.751   2.808   0.555
20824TIP3   OH262348   0.976   7.386   7.728
20824TIP3    H162349   0.900   7.414   7.779
20824TIP3    H262350   1.047   7.444   7.756
20825TIP3   OH262351   1.132   7.571   7.833
20825TIP3    H162352   1.212   7.602   7.875
20825TIP3    H262353   1.090   7.651   7.800
20826TIP3   OH262354   1.533   7.696   7.686
20826TIP3    H162355   1.472   7.649   7.629
20826TIP3    H262356   1.528   7.787   7.655
20827TIP3   OH262357   1.237   8.513   7.602
20827TIP3    H162358   1.207   8.453   7.671
20827TIP3    H262359   1.248   8.457   7.525
20828TIP3   OH262360   1.323   8.725   7.322
20828TIP3    H162361   1.378   8.790   7.278
20828TIP3    H262362   1.235   8.762   7.317
20829TIP3   OH262363   1.143   8.170   7.695
20829TIP3    H162364   1.124   8.109   7.767
20829TIP3    H262365   1.239   8.176   7.694
20830TIP3   OH262366   7.709   2.917   0.839
20830TIP3    H162367   7.715   2.977   0.913
20830TIP3    H262368   7.699   2.831   0.879
20831TIP3   OH262369   7.613   2.688   0.014
20831TIP3    H162370   7.575   2.738  -0.058
20831TIP3    H262371   7.635   2.754   0.080
20832TIP3   OH262372   8.188   3.092   0.898
20832TIP3    H162373   8.125   3.053   0.959
20832TIP3    H262374   8.209   3.021   0.837
20833TIP3   OH262375   7.850   3.291   0.301
20833TIP3    H162376   7.773   3.234   0.306
20833TIP3    H262377   7.918   3.244   0.350
20834TIP3   OH262378   1.294   7.979   7.354
20834TIP3    H162379   1.272   7.927   7.277
20834TIP3    H262380   1.265   8.067   7.333
20835TIP3   OH262381   1.429   8.162   7.694
20835TIP3    H162382   1.498   8.224   7.667
20835TIP3    H262383   1.464   8.121   7.773
20836TIP3   OH262384   1.553   8.031   7.900
20836TIP3    H162385   1.489   7.985   7.954
20836TIP3    H262386   1.616   8.067   7.962
20837TIP3   OH262387   1.490   7.939   7.544
20837TIP3    H162388   1.420   7.939   7.478
20837TIP3    H262389   1.467   8.011   7.603
20838TIP3   OH262390   1.372   7.605   7.486
20838TIP3    H162391   1.312   7.647   7.424
20838TIP3    H262392   1.344   7.514   7.489
20839TIP3   OH262393   7.907   3.260   0.040
20839TIP3    H162394   7.912   3.165   0.032
20839TIP3    H262395   7.895   3.275   0.134
20840TIP3   OH262396   1.309   7.342   7.488
20840TIP3    H162397   1.388   7.318   7.535
20840TIP3    H262398   1.241   7.285   7.524
20841TIP3   OH262399   1.381   7.606   7.952
20841TIP3    H162400   1.412   7.517   7.968
20841TIP3    H262401   1.429   7.634   7.874
20842TIP3   OH262402   8.062   3.159   0.423
20842TIP3    H162403   8.152   3.181   0.397
20842TIP3    H262404   8.050   3.201   0.508
20843TIP3   OH262405   8.603   2.886   1.236
20843TIP3    H162406   8.639   2.818   1.179
20843TIP3    H262407   8.564   2.950   1.177
20844TIP3   OH262408   8.009   2.729  -0.026
20844TIP3    H162409   8.055   2.716   0.057
20844TIP3    H262410   7.945   2.658  -0.030
20845TIP3   OH262411   8.464   3.014   1.033
20845TIP3    H162412   8.386   3.033   1.086
20845TIP3    H262413   8.435   2.950   0.968
20846TIP3   OH262414   1.554   7.289   7.604
20846TIP3    H162415   1.592   7.213   7.559
20846TIP3    H262416   1.623   7.355   7.602
20847TIP3   OH262417   8.342   2.793   0.886
20847TIP3    H162418   8.252   2.770   0.864
20847TIP3    H262419   8.388   2.710   0.891
20848TIP3   OH262420   7.603   2.682   0.541
20848TIP3    H162421   7.582   2.607   0.597
20848TIP3    H262422   7.673   2.650   0.483
20849TIP3   OH262423   8.079   2.595   0.429
20849TIP3    H162424   8.118   2.643   0.356
20849TIP3    H262425   7.985   2.606   0.419
20850TIP3   OH262426   8.175   2.692   0.190
20850TIP3    H162427   8.245   2.639   0.154
20850TIP3    H262428   8.204   2.782   0.178
20851TIP3   OH262429   7.807   2.584   0.392
20851TIP3    H162430   7.808   2.548   0.303
20851TIP3    H262431   7.793   2.508   0.448
20852TIP3   OH262432   1.291   7.138   7.966
20852TIP3    H162433   1.210   7.188   7.980
20852TIP3    H262434   1.276   7.055   8.011
20853TIP3   OH262435   1.253   8.776   7.647
20853TIP3    H162436   1.258   8.681   7.638
20853TIP3    H262437   1.225   8.807   7.561
20854TIP3   OH262438   2.754   8.301   7.598
20854TIP3    H162439   2.727   8.391   7.579
20854TIP3    H262440   2.681   8.248   7.566
20855TIP3   OH262441   2.746   8.297   7.982
20855TIP3    H162442   2.785   8.274   8.067
20855TIP3    H262443   2.713   8.215   7.947
20856TIP3   OH262444   8.606   3.594   0.357
20856TIP3    H162445   8.623   3.524   0.420
20856TIP3    H262446   8.687   3.601   0.307
20857TIP3   OH262447   3.004   8.602   7.663
20857TIP3    H162448   2.986   8.529   7.722
20857TIP3    H262449   3.014   8.678   7.721
20858TIP3   OH262450   8.560   3.983   0.088
20858TIP3    H162451   8.548   3.888   0.083
20858TIP3    H262452   8.651   3.997   0.061
20859TIP3   OH262453   1.732   7.814   7.853
20859TIP3    H162454   1.683   7.896   7.867
20859TIP3    H262455   1.665   7.751   7.826
20860TIP3   OH262456   8.329   3.477   0.021
20860TIP3    H162457   8.371   3.402   0.063
20860TIP3    H262458   8.381   3.494  -0.057
20861TIP3   OH262459   9.093   3.905   0.027
20861TIP3    H162460   9.126   3.823  -0.010
20861TIP3    H262461   9.172   3.958   0.042
20862TIP3   OH262462   0.298   3.230   0.021
20862TIP3    H162463   0.328   3.309   0.067
20862TIP3    H262464   0.322   3.245  -0.070
20863TIP3   OH262465   9.500   3.408   0.056
20863TIP3    H162466   9.541   3.326   0.081
20863TIP3    H262467   9.469   3.393  -0.033
20864TIP3   OH262468   2.300   7.687   8.022
20864TIP3    H162469   2.283   7.760   7.962
20864TIP3    H262470   2.255   7.612   7.982
20865TIP3   OH262471   3.000   7.779   7.647
20865TIP3    H162472   3.066   7.761   7.713
20865TIP3    H262473   3.050   7.813   7.572
20866TIP3   OH262474   8.474   3.271   0.128
20866TIP3    H162475   8.552   3.249   0.179
20866TIP3    H262476   8.480   3.215   0.051
20867TIP3   OH262477   2.377   8.086   7.930
20867TIP3    H162478   2.470   8.064   7.941
20867TIP3    H262479   2.337   8.005   7.897
20868TIP3   OH262480   0.372   3.436   0.192
20868TIP3    H162481   0.289   3.480   0.173
20868TIP3    H262482   0.386   3.451   0.286
20869TIP3   OH262483   8.832   3.048   0.449
20869TIP3    H162484   8.772   3.083   0.384
20869TIP3    H262485   8.788   3.060   0.533
20870TIP3   OH262486   2.644   8.521   7.470
20870TIP3    H162487   2.611   8.503   7.382
20870TIP3    H262488   2.606   8.606   7.493
20871TIP3   OH262489   8.937   3.831   0.253
20871TIP3    H162490   8.886   3.896   0.301
20871TIP3    H262491   8.979   3.882   0.183
20872TIP3   OH262492   3.208   7.781   7.819
20872TIP3    H162493   3.201   7.728   7.899
20872TIP3    H262494   3.263   7.855   7.845
20873TIP3   OH262495   8.704   3.168   0.239
20873TIP3    H162496   8.765   3.236   0.268
20873TIP3    H262497   8.750   3.124   0.168
20874TIP3   OH262498   1.632   8.332   7.587
20874TIP3    H162499   1.588   8.354   7.505
20874TIP3    H262500   1.663   8.415   7.622
20875TIP3   OH262501   3.042   8.846   7.835
20875TIP3    H162502   2.953   8.850   7.872
20875TIP3    H262503   3.051   8.927   7.786
20876TIP3   OH262504   0.092   3.131   0.188
20876TIP3    H162505   0.005   3.157   0.159
20876TIP3    H262506   0.151   3.160   0.118
20877TIP3   OH262507   9.187   2.768   0.171
20877TIP3    H162508   9.180   2.674   0.190
20877TIP3    H262509   9.112   2.807   0.216
20878TIP3   OH262510   2.756   8.887   7.469
20878TIP3    H162511   2.810   8.809   7.462
20878TIP3    H262512   2.816   8.960   7.456
20879TIP3   OH262513   2.917   8.675   7.411
20879TIP3    H162514   2.888   8.598   7.363
20879TIP3    H262515   2.952   8.641   7.494
20880TIP3   OH262516   0.032   4.138   0.168
20880TIP3    H162517   0.019   4.058   0.117
20880TIP3    H262518   0.013   4.209   0.107
20881TIP3   OH262519   2.585   8.154   7.425
20881TIP3    H162520   2.507   8.204   7.401
20881TIP3    H262521   2.636   8.148   7.345
20882TIP3   OH262522   2.547   7.935   7.147
20882TIP3    H162523   2.611   7.987   7.195
20882TIP3    H262524   2.599   7.871   7.098
20883TIP3   OH262525   3.490   8.397   8.015
20883TIP3    H162526   3.408   8.446   8.024
20883TIP3    H262527   3.519   8.416   7.925
20884TIP3   OH262528   2.934   8.234   7.404
20884TIP3    H162529   2.880   8.258   7.479
20884TIP3    H262530   3.018   8.207   7.442
20885TIP3   OH262531   9.699   3.656   0.308
20885TIP3    H162532   9.700   3.736   0.362
20885TIP3    H262533   9.615   3.659   0.262
20886TIP3   OH262534   2.171   8.235   7.814
20886TIP3    H162535   2.126   8.179   7.751
20886TIP3    H262536   2.243   8.180   7.847
20887TIP3   OH262537   2.309   8.625   7.958
20887TIP3    H162538   2.296   8.541   7.914
20887TIP3    H262539   2.399   8.624   7.989
20888TIP3   OH262540   8.830   3.586   0.175
20888TIP3    H162541   8.863   3.557   0.090
20888TIP3    H262542   8.876   3.668   0.192
20889TIP3   OH262543   2.774   8.097   7.225
20889TIP3    H162544   2.833   8.151   7.278
20889TIP3    H262545   2.799   8.117   7.135
20890TIP3   OH262546   2.505   8.782   7.515
20890TIP3    H162547   2.593   8.819   7.527
20890TIP3    H262548   2.459   8.846   7.462
20891TIP3   OH262549   3.289   7.336   7.275
20891TIP3    H162550   3.210   7.352   7.326
20891TIP3    H262551   3.303   7.417   7.225
20892TIP3   OH262552   2.031   8.078   7.623
20892TIP3    H162553   1.966   8.119   7.566
20892TIP3    H262554   1.995   7.992   7.643
20893TIP3   OH262555   3.092   8.702   6.825
20893TIP3    H162556   3.097   8.796   6.807
20893TIP3    H262557   3.181   8.670   6.811
20894TIP3   OH262558   0.265   4.471   0.211
20894TIP3    H162559   0.276   4.377   0.223
20894TIP3    H262560   0.175   4.489   0.238
20895TIP3   OH262561   2.397   9.015   7.300
20895TIP3    H162562   2.357   9.000   7.214
20895TIP3    H262563   2.368   9.103   7.324
20896TIP3   OH262564   2.603   8.918   6.946
20896TIP3    H162565   2.659   8.851   6.908
20896TIP3    H262566   2.635   8.927   7.036
20897TIP3   OH262567   2.651   8.966   7.220
20897TIP3    H162568   2.562   8.978   7.253
20897TIP3    H262569   2.700   8.931   7.294
20898TIP3   OH262570   0.153   3.613   0.488
20898TIP3    H162571   0.072   3.624   0.439
20898TIP3    H262572   0.173   3.520   0.482
20899TIP3   OH262573   8.948   2.847   0.297
20899TIP3    H162574   8.862   2.812   0.271
20899TIP3    H262575   8.928   2.926   0.347
20900TIP3   OH262576   9.485   2.962   0.496
20900TIP3    H162577   9.554   2.934   0.557
20900TIP3    H262578   9.403   2.941   0.541
20901TIP3   OH262579   9.723   3.392   0.415
20901TIP3    H162580   9.676   3.384   0.498
20901TIP3    H262581   9.697   3.477   0.380
20902TIP3   OH262582   2.850   8.143   6.969
20902TIP3    H162583   2.816   8.115   6.884
20902TIP3    H262584   2.933   8.187   6.947
20903TIP3   OH262585   2.558   7.517   7.272
20903TIP3    H162586   2.533   7.516   7.364
20903TIP3    H262587   2.528   7.432   7.238
20904TIP3   OH262588   8.878   3.361   0.322
20904TIP3    H162589   8.846   3.385   0.408
20904TIP3    H262590   8.866   3.440   0.269
20905TIP3   OH262591   2.229   7.869   7.832
20905TIP3    H162592   2.141   7.841   7.854
20905TIP3    H262593   2.248   7.829   7.748
20906TIP3   OH262594   2.724   7.954   7.559
20906TIP3    H162595   2.672   8.024   7.519
20906TIP3    H262596   2.780   7.922   7.488
20907TIP3   OH262597   9.451   3.606   0.637
20907TIP3    H162598   9.418   3.540   0.697
20907TIP3    H262599   9.543   3.617   0.662
20908TIP3   OH262600   2.881   7.981   7.797
20908TIP3    H162601   2.821   8.011   7.729
20908TIP3    H262602   2.918   7.899   7.762
20909TIP3   OH262603   8.699   3.401   0.541
20909TIP3    H162604   8.733   3.450   0.616
20909TIP3    H262605   8.691   3.311   0.573
20910TIP3   OH262606   2.217   7.487   7.241
20910TIP3    H162607   2.234   7.483   7.335
20910TIP3    H262608   2.123   7.506   7.234
20911TIP3   OH262609   8.297   2.915   0.103
20911TIP3    H162610   8.369   2.943   0.159
20911TIP3    H262611   8.339   2.874   0.028
20912TIP3   OH262612   1.736   7.514   7.622
20912TIP3    H162613   1.791   7.551   7.553
20912TIP3    H262614   1.676   7.585   7.646
20913TIP3   OH262615   9.421   3.605   0.221
20913TIP3    H162616   9.456   3.538   0.163
20913TIP3    H262617   9.397   3.557   0.300
20914TIP3   OH262618   2.559   7.697   7.899
20914TIP3    H162619   2.479   7.689   7.951
20914TIP3    H262620   2.630   7.684   7.961
20915TIP3   OH262621   1.995   7.744   7.901
20915TIP3    H162622   1.903   7.750   7.877
20915TIP3    H262623   2.019   7.653   7.884
20916TIP3   OH262624   2.266   7.743   7.593
20916TIP3    H162625   2.360   7.754   7.577
20916TIP3    H262626   2.225   7.763   7.508
20917TIP3   OH262627   9.583   3.147   0.097
20917TIP3    H162628   9.552   3.158   0.187
20917TIP3    H262629   9.523   3.084   0.059
20918TIP3   OH262630   2.105   7.772   7.369
20918TIP3    H162631   2.018   7.753   7.334
20918TIP3    H262632   2.153   7.809   7.295
20919TIP3   OH262633   9.178   3.399  -0.007
20919TIP3    H162634   9.246   3.356  -0.058
20919TIP3    H262635   9.183   3.357   0.079
20920TIP3   OH262636   2.166   7.503   7.870
20920TIP3    H162637   2.132   7.428   7.919
20920TIP3    H262638   2.228   7.464   7.809
20921TIP3   OH262639   9.154   3.299   0.276
20921TIP3    H162640   9.066   3.330   0.298
20921TIP3    H262641   9.212   3.352   0.332
20922TIP3   OH262642   2.352   8.304   7.374
20922TIP3    H162643   2.284   8.238   7.360
20922TIP3    H262644   2.337   8.337   7.462
20923TIP3   OH262645   3.255   8.538   8.012
20923TIP3    H162646   3.281   8.585   7.933
20923TIP3    H262647   3.172   8.496   7.990
20924TIP3   OH262648   2.813   7.619   7.240
20924TIP3    H162649   2.719   7.603   7.247
20924TIP3    H262650   2.825   7.711   7.263
20925TIP3   OH262651   9.326   3.968   0.351
20925TIP3    H162652   9.323   3.947   0.444
20925TIP3    H262653   9.249   4.023   0.336
20926TIP3   OH262654   2.887   7.866   7.343
20926TIP3    H162655   2.981   7.869   7.359
20926TIP3    H262656   2.870   7.943   7.288
20927TIP3   OH262657   8.588   3.713   0.048
20927TIP3    H162658   8.620   3.681  -0.037
20927TIP3    H262659   8.620   3.648   0.111
20928TIP3   OH262660   2.501   8.456   7.199
20928TIP3    H162661   2.455   8.540   7.203
20928TIP3    H262662   2.450   8.399   7.256
20929TIP3   OH262663   9.204   3.722   0.644
20929TIP3    H162664   9.176   3.696   0.556
20929TIP3    H262665   9.297   3.699   0.647
20930TIP3   OH262666   9.494   4.255   0.276
20930TIP3    H162667   9.399   4.257   0.269
20930TIP3    H262668   9.514   4.305   0.354
20931TIP3   OH262669   3.325   7.955   7.177
20931TIP3    H162670   3.264   7.907   7.121
20931TIP3    H262671   3.328   8.043   7.139
20932TIP3   OH262672   0.276   4.196   0.253
20932TIP3    H162673   0.182   4.184   0.246
20932TIP3    H262674   0.311   4.165   0.170
20933TIP3   OH262675   3.034   8.772   7.090
20933TIP3    H162676   3.002   8.702   7.147
20933TIP3    H262677   3.045   8.730   7.004
20934TIP3   OH262678   3.021   8.402   7.925
20934TIP3    H162679   2.930   8.377   7.942
20934TIP3    H262680   3.059   8.326   7.882
20935TIP3   OH262681   1.710   7.938   7.383
20935TIP3    H162682   1.757   8.019   7.401
20935TIP3    H262683   1.635   7.940   7.443
20936TIP3   OH262684   2.286   8.396   7.617
20936TIP3    H162685   2.297   8.484   7.653
20936TIP3    H262686   2.249   8.345   7.690
20937TIP3   OH262687   9.349   3.975   0.082
20937TIP3    H162688   9.360   3.964   0.176
20937TIP3    H262689   9.432   3.944   0.045
20938TIP3   OH262690   2.782   8.500   6.993
20938TIP3    H162691   2.837   8.477   7.068
20938TIP3    H262692   2.693   8.474   7.020
20939TIP3   OH262693   9.603   4.512   0.115
20939TIP3    H162694   9.526   4.458   0.130
20939TIP3    H262695   9.580   4.566   0.040
20940TIP3   OH262696   3.119   8.978   6.807
20940TIP3    H162697   3.158   9.042   6.747
20940TIP3    H262698   3.042   9.022   6.842
20941TIP3   OH262699   8.691   3.120   0.667
20941TIP3    H162700   8.613   3.155   0.709
20941TIP3    H262701   8.724   3.055   0.730
20942TIP3   OH262702   2.943   8.437   7.211
20942TIP3    H162703   2.930   8.370   7.278
20942TIP3    H262704   3.037   8.435   7.193
20943TIP3   OH262705   2.148   8.481   6.990
20943TIP3    H162706   2.164   8.393   6.957
20943TIP3    H262707   2.127   8.469   7.083
20944TIP3   OH262708   2.096   8.490   7.264
20944TIP3    H162709   2.173   8.459   7.312
20944TIP3    H262710   2.099   8.585   7.272
20945TIP3   OH262711   1.828   8.181   7.462
20945TIP3    H162712   1.765   8.223   7.521
20945TIP3    H262713   1.846   8.248   7.395
20946TIP3   OH262714   9.510   3.197   0.358
20946TIP3    H162715   9.590   3.234   0.395
20946TIP3    H262716   9.495   3.117   0.408
20947TIP3   OH262717   2.856   7.574   7.520
20947TIP3    H162718   2.846   7.593   7.427
20947TIP3    H262719   2.897   7.652   7.557
20948TIP3   OH262720   2.354   8.684   7.211
20948TIP3    H162721   2.272   8.718   7.246
20948TIP3    H262722   2.381   8.750   7.147
20949TIP3   OH262723   2.547   7.751   7.626
20949TIP3    H162724   2.612   7.818   7.606
20949TIP3    H262725   2.551   7.740   7.721
20950TIP3   OH262726   9.353   3.446   0.429
20950TIP3    H162727   9.377   3.496   0.507
20950TIP3    H262728   9.402   3.364   0.437
20951TIP3   OH262729   2.693   7.479   7.725
20951TIP3    H162730   2.695   7.548   7.792
20951TIP3    H262731   2.751   7.511   7.656
20952TIP3   OH262732   2.097   8.772   7.279
20952TIP3    H162733   2.070   8.811   7.195
20952TIP3    H262734   2.095   8.845   7.340
20953TIP3   OH262735   2.209   7.475   7.515
20953TIP3    H162736   2.203   7.561   7.556
20953TIP3    H262737   2.300   7.449   7.525
20954TIP3   OH262738   0.189   3.348   0.406
20954TIP3    H162739   0.095   3.349   0.419
20954TIP3    H262740   0.202   3.298   0.325
20955TIP3   OH262741   3.108   8.162   7.802
20955TIP3    H162742   3.033   8.103   7.812
20955TIP3    H262743   3.180   8.117   7.847
20956TIP3   OH262744   1.822   8.390   7.268
20956TIP3    H162745   1.883   8.463   7.279
20956TIP3    H262746   1.863   8.335   7.202
20957TIP3   OH262747   1.771   7.669   7.380
20957TIP3    H162748   1.762   7.764   7.391
20957TIP3    H262749   1.680   7.637   7.380
20958TIP3   OH262750   3.093   9.090   7.719
20958TIP3    H162751   3.034   9.138   7.661
20958TIP3    H262752   3.179   9.130   7.706
20959TIP3   OH262753   8.686   2.763   0.276
20959TIP3    H162754   8.655   2.730   0.191
20959TIP3    H262755   8.678   2.689   0.335
20960TIP3   OH262756   1.706   8.612   7.656
20960TIP3    H162757   1.650   8.645   7.726
20960TIP3    H262758   1.674   8.654   7.576
20961TIP3   OH262759   2.314   8.684   6.903
20961TIP3    H162760   2.258   8.614   6.939
20961TIP3    H262761   2.388   8.637   6.865
20962TIP3   OH262762   2.749   8.726   6.812
20962TIP3    H162763   2.794   8.663   6.869
20962TIP3    H262764   2.801   8.727   6.732
20963TIP3   OH262765   1.958   8.201   7.122
20963TIP3    H162766   2.010   8.171   7.197
20963TIP3    H262767   2.021   8.207   7.050
20964TIP3   OH262768   2.462   8.397   6.931
20964TIP3    H162769   2.468   8.414   7.025
20964TIP3    H262770   2.464   8.302   6.924
20965TIP3   OH262771   9.625   4.013   0.299
20965TIP3    H162772   9.694   4.065   0.259
20965TIP3    H262773   9.547   4.068   0.295
20966TIP3   OH262774   2.164   8.103   7.344
20966TIP3    H162775   2.141   8.066   7.429
20966TIP3    H262776   2.202   8.030   7.295
20967TIP3   OH262777   8.973   3.527   0.546
20967TIP3    H162778   8.918   3.583   0.602
20967TIP3    H262779   9.018   3.588   0.488
20968TIP3   OH262780   2.264   7.897   7.182
20968TIP3    H162781   2.240   7.903   7.089
20968TIP3    H262782   2.359   7.902   7.182
20969TIP3   OH262783   9.508   3.966   0.697
20969TIP3    H162784   9.570   3.924   0.638
20969TIP3    H262785   9.488   3.899   0.762
20970TIP3   OH262786   3.084   8.232   6.846
20970TIP3    H162787   3.069   8.182   6.766
20970TIP3    H262788   3.055   8.321   6.825
20971TIP3   OH262789   9.110   3.326   0.663
20971TIP3    H162790   9.108   3.246   0.610
20971TIP3    H262791   9.063   3.391   0.611
20972TIP3   OH262792   9.092   3.116   0.490
20972TIP3    H162793   9.118   3.155   0.406
20972TIP3    H262794   9.000   3.094   0.478
20973TIP3   OH262795   9.129   3.675   0.378
20973TIP3    H162796   9.206   3.660   0.323
20973TIP3    H262797   9.072   3.732   0.326
20974TIP3   OH262798   9.710   3.623   0.760
20974TIP3    H162799   9.752   3.537   0.766
20974TIP3    H262800   9.780   3.681   0.729
20975TIP3   OH262801   9.746   3.877   0.490
20975TIP3    H162802   9.686   3.924   0.433
20975TIP3    H262803   9.832   3.892   0.452
20976TIP3   OH262804   8.998   3.410   0.892
20976TIP3    H162805   8.913   3.365   0.897
20976TIP3    H262806   9.034   3.382   0.808
20977TIP3   OH262807   9.224   2.886   0.567
20977TIP3    H162808   9.177   2.967   0.546
20977TIP3    H262809   9.158   2.817   0.560
20978TIP3   OH262810   9.349   3.402   0.781
20978TIP3    H162811   9.347   3.384   0.875
20978TIP3    H262812   9.264   3.370   0.749
20979TIP3   OH262813   9.592   3.340   0.645
20979TIP3    H162814   9.517   3.344   0.705
20979TIP3    H262815   9.664   3.308   0.699
20980TIP3   OH262816   0.024   3.278   0.789
20980TIP3    H162817   0.034   3.183   0.800
20980TIP3    H262818   0.018   3.312   0.878
20981TIP3   OH262819   8.802   3.216   0.941
20981TIP3    H162820   8.815   3.126   0.913
20981TIP3    H262821   8.804   3.213   1.036
20982TIP3   OH262822   9.317   2.895   0.823
20982TIP3    H162823   9.385   2.828   0.825
20982TIP3    H262824   9.279   2.888   0.736
20983TIP3   OH262825   9.393   3.107   0.979
20983TIP3    H162826   9.363   3.037   0.920
20983TIP3    H262827   9.319   3.168   0.984
20984TIP3   OH262828   2.071   8.952   7.079
20984TIP3    H162829   2.166   8.959   7.068
20984TIP3    H262830   2.035   9.008   7.010
20985TIP3   OH262831   1.553   8.344   7.306
20985TIP3    H162832   1.645   8.369   7.295
20985TIP3    H262833   1.547   8.257   7.266
20986TIP3   OH262834   3.344   9.196   7.689
20986TIP3    H162835   3.344   9.210   7.784
20986TIP3    H262836   3.379   9.277   7.652
20987TIP3   OH262837   3.371   9.213   7.960
20987TIP3    H162838   3.325   9.131   7.977
20987TIP3    H262839   3.438   9.217   8.028
20988TIP3   OH262840   7.175   1.364   1.031
20988TIP3    H162841   7.081   1.358   1.043
20988TIP3    H262842   7.190   1.454   1.002
20989TIP3   OH262843   3.220   8.419   7.184
20989TIP3    H162844   3.287   8.479   7.149
20989TIP3    H262845   3.262   8.379   7.260
20990TIP3   OH262846   3.348   8.289   7.388
20990TIP3    H162847   3.285   8.244   7.444
20990TIP3    H262848   3.415   8.321   7.447
20991TIP3   OH262849   3.406   8.671   7.825
20991TIP3    H162850   3.459   8.609   7.777
20991TIP3    H262851   3.366   8.726   7.758
20992TIP3   OH262852   3.241   8.965   8.001
20992TIP3    H162853   3.183   9.018   8.056
20992TIP3    H262854   3.182   8.921   7.940
20993TIP3   OH262855   3.283   8.195   7.033
20993TIP3    H162856   3.217   8.193   6.964
20993TIP3    H262857   3.260   8.270   7.088
20994TIP3   OH262858   3.153   7.866   6.989
20994TIP3    H162859   3.121   7.906   6.907
20994TIP3    H262860   3.131   7.774   6.980
20995TIP3   OH262861   3.163   8.140   7.533
20995TIP3    H162862   3.173   8.045   7.524
20995TIP3    H262863   3.150   8.155   7.627
20996TIP3   OH262864   8.333   3.593   0.275
20996TIP3    H162865   8.324   3.570   0.183
20996TIP3    H262866   8.427   3.596   0.290
20997TIP3   OH262867   0.187   3.945   0.379
20997TIP3    H162868   0.255   3.878   0.377
20997TIP3    H262869   0.214   4.009   0.313
20998TIP3   OH262870   0.371   3.751   0.410
20998TIP3    H162871   0.296   3.702   0.443
20998TIP3    H262872   0.446   3.692   0.420
20999TIP3   OH262873   3.102   7.601   6.976
20999TIP3    H162874   3.177   7.570   7.026
20999TIP3    H262875   3.032   7.540   6.998
21000TIP3   OH262876   3.162   7.855   7.425
21000TIP3    H162877   3.199   7.769   7.443
21000TIP3    H262878   3.217   7.891   7.355
21001TIP3   OH262879   3.324   8.036   7.921
21001TIP3    H162880   3.406   8.059   7.879
21001TIP3    H262881   3.333   8.067   8.011
21002TIP3   OH262882   0.122   3.557   0.152
21002TIP3    H162883   0.045   3.588   0.200
21002TIP3    H262884   0.155   3.635   0.108
21003TIP3   OH262885   8.541   3.222   0.874
21003TIP3    H162886   8.630   3.249   0.895
21003TIP3    H262887   8.516   3.162   0.944
21004TIP3   OH262888   0.573   3.144   0.705
21004TIP3    H162889   0.633   3.080   0.667
21004TIP3    H262890   0.549   3.201   0.631
21005TIP3   OH262891   3.267   7.606   7.466
21005TIP3    H162892   3.316   7.592   7.547
21005TIP3    H262893   3.208   7.531   7.462
21006TIP3   OH262894   8.503   2.972   0.277
21006TIP3    H162895   8.561   2.897   0.291
21006TIP3    H262896   8.561   3.048   0.278
21007TIP3   OH262897   8.315   3.240   0.362
21007TIP3    H162898   8.363   3.243   0.279
21007TIP3    H262899   8.305   3.332   0.387
21008TIP3   OH262900   0.445   3.288   0.510
21008TIP3    H162901   0.361   3.327   0.534
21008TIP3    H262902   0.422   3.213   0.455
21009TIP3   OH262903   3.352   7.543   7.095
21009TIP3    H162904   3.388   7.471   7.044
21009TIP3    H262905   3.417   7.613   7.087
21010TIP3   OH262906   1.752   7.374   7.855
21010TIP3    H162907   1.662   7.368   7.886
21010TIP3    H262908   1.748   7.430   7.778
21011TIP3   OH262909   2.920   9.077   7.367
21011TIP3    H162910   2.961   9.060   7.283
21011TIP3    H262911   2.969   9.151   7.403
21012TIP3   OH262912   8.508   2.830   0.665
21012TIP3    H162913   8.459   2.825   0.747
21012TIP3    H262914   8.444   2.862   0.601
21013TIP3   OH262915   0.344   3.046   0.391
21013TIP3    H162916   0.253   3.039   0.362
21013TIP3    H262917   0.379   2.957   0.382
21014TIP3   OH262918   6.298   0.061   7.886
21014TIP3    H162919   6.234   0.104   7.829
21014TIP3    H262920   6.313  -0.024   7.846
21015TIP3   OH262921   2.174   8.841   7.864
21015TIP3    H162922   2.240   8.775   7.888
21015TIP3    H262923   2.153   8.885   7.946
21016TIP3   OH262924   9.343   2.959   0.002
21016TIP3    H162925   9.304   2.894   0.060
21016TIP3    H262926   9.420   2.916  -0.035
21017TIP3   OH262927   3.339   7.467   7.916
21017TIP3    H162928   3.376   7.516   7.842
21017TIP3    H262929   3.245   7.482   7.910
21018TIP3   OH262930   3.437   7.567   7.679
21018TIP3    H162931   3.507   7.514   7.641
21018TIP3    H262932   3.467   7.657   7.667
21019TIP3   OH262933   8.597   2.670   0.025
21019TIP3    H162934   8.506   2.640   0.029
21019TIP3    H262935   8.649   2.590   0.024
21020TIP3   OH262936   1.842   7.166   7.677
21020TIP3    H162937   1.878   7.222   7.608
21020TIP3    H262938   1.819   7.226   7.747
21021TIP3   OH262939   2.504   7.333   7.908
21021TIP3    H162940   2.567   7.377   7.850
21021TIP3    H262941   2.531   7.359   7.996
21022TIP3   OH262942   3.055   7.469   7.893
21022TIP3    H162943   3.056   7.433   7.805
21022TIP3    H262944   3.043   7.394   7.950
21023TIP3   OH262945   3.083   7.392   7.456
21023TIP3    H162946   2.997   7.433   7.464
21023TIP3    H262947   3.074   7.308   7.502
21024TIP3   OH262948   1.568   8.731   7.457
21024TIP3    H162949   1.486   8.692   7.426
21024TIP3    H262950   1.562   8.824   7.433
21025TIP3   OH262951   1.973   7.336   7.424
21025TIP3    H162952   2.015   7.261   7.382
21025TIP3    H262953   2.045   7.380   7.471
21026TIP3   OH262954   2.484   7.500   7.539
21026TIP3    H162955   2.539   7.447   7.597
21026TIP3    H262956   2.504   7.590   7.563
21027TIP3   OH262957   2.345   8.922   7.037
21027TIP3    H162958   2.431   8.947   7.003
21027TIP3    H262959   2.318   8.849   6.980
21028TIP3   OH262960   3.058   9.039   7.130
21028TIP3    H162961   3.054   8.944   7.120
21028TIP3    H262962   3.014   9.073   7.052
21029TIP3   OH262963   8.811   2.939   0.911
21029TIP3    H162964   8.770   2.876   0.971
21029TIP3    H262965   8.902   2.942   0.939
21030TIP3   OH262966   9.057   2.939   1.032
21030TIP3    H162967   9.142   2.921   0.992
21030TIP3    H262968   9.045   2.869   1.096
21031TIP3   OH262969   1.644   8.753   7.094
21031TIP3    H162970   1.642   8.791   7.181
21031TIP3    H262971   1.732   8.715   7.086
21032TIP3   OH262972   0.082   3.011   0.825
21032TIP3    H162973   0.098   2.981   0.915
21032TIP3    H262974   0.168   3.006   0.783
21033TIP3   OH262975   4.550   8.557   7.085
21033TIP3    H162976   4.526   8.648   7.067
21033TIP3    H262977   4.477   8.506   7.050
21034TIP3   OH262978   4.549   8.556   7.467
21034TIP3    H162979   4.581   8.529   7.553
21034TIP3    H262980   4.509   8.478   7.430
21035TIP3   OH262981   3.850   8.453   7.836
21035TIP3    H162982   3.878   8.384   7.896
21035TIP3    H262983   3.929   8.505   7.820
21036TIP3   OH262984   4.793   8.859   7.149
21036TIP3    H162985   4.781   8.789   7.212
21036TIP3    H262986   4.824   8.933   7.201
21037TIP3   OH262987   3.823   8.857   7.550
21037TIP3    H162988   3.813   8.762   7.555
21037TIP3    H262989   3.918   8.871   7.548
21038TIP3   OH262990   3.524   8.066   7.344
21038TIP3    H162991   3.480   8.150   7.353
21038TIP3    H262992   3.459   8.009   7.304
21039TIP3   OH262993   3.591   8.351   7.510
21039TIP3    H162994   3.636   8.276   7.548
21039TIP3    H262995   3.645   8.376   7.435
21040TIP3   OH262996   7.712   0.079   7.166
21040TIP3    H162997   7.753   0.013   7.110
21040TIP3    H262998   7.711   0.038   7.253
21041TIP3   OH262999   4.353   8.783   7.513
21041TIP3    H163000   4.385   8.705   7.468
21041TIP3    H263001   4.433   8.830   7.539
21042TIP3   OH263002   5.361   8.106   7.510
21042TIP3    H163003   5.390   8.184   7.557
21042TIP3    H263004   5.383   8.123   7.419
21043TIP3   OH263005   4.760   8.284   7.546
21043TIP3    H163006   4.804   8.202   7.570
21043TIP3    H263007   4.732   8.270   7.455
21044TIP3   OH263008   4.096   7.945   7.511
21044TIP3    H163009   4.079   8.018   7.451
21044TIP3    H263010   4.055   7.869   7.469
21045TIP3   OH263011   4.796   8.032   7.135
21045TIP3    H163012   4.864   8.017   7.200
21045TIP3    H263013   4.843   8.069   7.060
21046TIP3   OH263014   3.735   8.145   7.618
21046TIP3    H163015   3.815   8.128   7.667
21046TIP3    H263016   3.744   8.092   7.539
21047TIP3   OH263017   4.175   8.341   7.414
21047TIP3    H163018   4.267   8.319   7.425
21047TIP3    H263019   4.135   8.261   7.379
21048TIP3   OH263020   5.433   8.311   7.683
21048TIP3    H163021   5.352   8.357   7.663
21048TIP3    H263022   5.452   8.333   7.774
21049TIP3   OH263023   4.095   7.928   7.946
21049TIP3    H163024   4.037   7.964   7.878
21049TIP3    H263025   4.047   7.942   8.027
21050TIP3   OH263026   4.442   8.779   6.954
21050TIP3    H163027   4.403   8.754   6.871
21050TIP3    H263028   4.399   8.860   6.979
21051TIP3   OH263029   4.202   8.704   7.741
21051TIP3    H163030   4.140   8.767   7.779
21051TIP3    H263031   4.246   8.753   7.671
21052TIP3   OH263032   5.005   8.037   7.308
21052TIP3    H163033   4.995   7.991   7.391
21052TIP3    H263034   5.059   8.113   7.329
21053TIP3   OH263035   3.968   8.044   7.731
21053TIP3    H163036   4.027   8.115   7.757
21053TIP3    H263037   4.013   8.001   7.657
21054TIP3   OH263038   4.025   8.897   7.840
21054TIP3    H163039   4.005   8.982   7.801
21054TIP3    H263040   3.951   8.878   7.897
21055TIP3   OH263041   3.420   8.582   7.069
21055TIP3    H163042   3.385   8.597   6.981
21055TIP3    H263043   3.441   8.669   7.102
21056TIP3   OH263044   4.861   9.102   7.316
21056TIP3    H163045   4.774   9.092   7.354
21056TIP3    H263046   4.858   9.186   7.270
21057TIP3   OH263047   5.155   8.003   7.675
21057TIP3    H163048   5.069   8.036   7.648
21057TIP3    H263049   5.215   8.035   7.607
21058TIP3   OH263050   4.459   7.648   7.666
21058TIP3    H163051   4.446   7.555   7.680
21058TIP3    H263052   4.380   7.689   7.701
21059TIP3   OH263053   4.567   9.150   6.985
21059TIP3    H163054   4.612   9.067   6.970
21059TIP3    H263055   4.625   9.216   6.948
21060TIP3   OH263056   4.708   8.933   6.897
21060TIP3    H163057   4.673   8.856   6.853
21060TIP3    H263058   4.744   8.900   6.979
21061TIP3   OH263059   5.091   9.016   7.657
21061TIP3    H163060   5.081   8.938   7.601
21061TIP3    H263061   5.076   9.090   7.597
21062TIP3   OH263062   4.383   8.411   6.914
21062TIP3    H163063   4.302   8.458   6.895
21062TIP3    H263064   4.428   8.404   6.830
21063TIP3   OH263065   4.350   8.197   6.634
21063TIP3    H163066   4.417   8.249   6.679
21063TIP3    H263067   4.400   8.131   6.586
21064TIP3   OH263068   5.285   8.652   7.500
21064TIP3    H163069   5.204   8.703   7.509
21064TIP3    H263070   5.317   8.674   7.413
21065TIP3   OH263071   4.731   8.492   6.891
21065TIP3    H163072   4.675   8.516   6.965
21065TIP3    H263073   4.814   8.466   6.931
21066TIP3   OH263074   4.963   8.532   7.799
21066TIP3    H163075   4.965   8.613   7.851
21066TIP3    H263076   4.880   8.536   7.753
21067TIP3   OH263077   3.963   8.492   7.306
21067TIP3    H163078   3.914   8.436   7.246
21067TIP3    H263079   4.038   8.438   7.333
21068TIP3   OH263080   4.093   8.900   7.453
21068TIP3    H163081   4.071   8.860   7.369
21068TIP3    H263082   4.181   8.868   7.473
21069TIP3   OH263083   4.095   8.462   7.658
21069TIP3    H163084   4.128   8.438   7.571
21069TIP3    H263085   4.140   8.544   7.678
21070TIP3   OH263086   4.620   9.097   7.436
21070TIP3    H163087   4.613   9.175   7.490
21070TIP3    H263088   4.609   9.024   7.497
21071TIP3   OH263089   4.233   9.021   7.978
21071TIP3    H163090   4.178   9.080   8.029
21071TIP3    H263091   4.171   8.964   7.933
21072TIP3   OH263092   4.577   8.350   6.713
21072TIP3    H163093   4.630   8.408   6.766
21072TIP3    H263094   4.599   8.372   6.622
21073TIP3   OH263095   0.722   3.959   0.082
21073TIP3    H163096   0.730   4.042   0.128
21073TIP3    H263097   0.630   3.935   0.089
21074TIP3   OH263098   4.311   9.033   6.995
21074TIP3    H163099   4.392   9.082   7.006
21074TIP3    H263100   4.254   9.092   6.945
21075TIP3   OH263101   0.761   4.569   0.069
21075TIP3    H163102   0.729   4.563  -0.021
21075TIP3    H263103   0.687   4.541   0.123
21076TIP3   OH263104   5.086   7.593   6.761
21076TIP3    H163105   5.007   7.611   6.812
21076TIP3    H263106   5.101   7.673   6.711
21077TIP3   OH263107   3.813   8.334   7.132
21077TIP3    H163108   3.765   8.378   7.062
21077TIP3    H263109   3.799   8.241   7.117
21078TIP3   OH263110   4.887   8.960   6.309
21078TIP3    H163111   4.893   9.054   6.295
21078TIP3    H263112   4.977   8.928   6.297
21079TIP3   OH263113   0.345   4.094   0.016
21079TIP3    H163114   0.281   4.070  -0.051
21079TIP3    H263115   0.383   4.010   0.044
21080TIP3   OH263116   8.593   0.118   7.703
21080TIP3    H163117   8.597   0.024   7.717
21080TIP3    H263118   8.512   0.146   7.747
21081TIP3   OH263119   4.431   9.151   7.838
21081TIP3    H163120   4.434   9.241   7.870
21081TIP3    H263121   4.364   9.108   7.891
21082TIP3   OH263122   7.460   0.035   6.791
21082TIP3    H163123   7.416   0.013   6.709
21082TIP3    H263124   7.430   0.124   6.811
21083TIP3   OH263125   3.631   9.129   7.177
21083TIP3    H163126   3.688   9.115   7.252
21083TIP3    H263127   3.575   9.051   7.175
21084TIP3   OH263128   4.398   9.175   6.432
21084TIP3    H163129   4.454   9.108   6.394
21084TIP3    H263130   4.430   9.185   6.521
21085TIP3   OH263131   4.445   9.224   6.704
21085TIP3    H163132   4.358   9.232   6.743
21085TIP3    H263133   4.498   9.182   6.772
21086TIP3   OH263134   5.218   8.490   7.978
21086TIP3    H163135   5.138   8.504   7.928
21086TIP3    H263136   5.236   8.396   7.970
21087TIP3   OH263137   0.546   4.281   0.009
21087TIP3    H163138   0.600   4.263   0.086
21087TIP3    H263139   0.477   4.215   0.012
21088TIP3   OH263140   4.210   7.723   7.787
21088TIP3    H163141   4.124   7.691   7.761
21088TIP3    H263142   4.192   7.804   7.834
21089TIP3   OH263143   1.481   3.217  -0.017
21089TIP3    H163144   1.549   3.191   0.045
21089TIP3    H263145   1.399   3.197   0.028
21090TIP3   OH263146   4.985   8.267   7.901
21090TIP3    H163147   4.939   8.262   7.985
21090TIP3    H263148   4.963   8.354   7.867
21091TIP3   OH263149   4.649   8.397   6.456
21091TIP3    H163150   4.612   8.371   6.372
21091TIP3    H263151   4.728   8.446   6.433
21092TIP3   OH263152   4.368   7.768   6.753
21092TIP3    H163153   4.318   7.801   6.828
21092TIP3    H263154   4.321   7.690   6.726
21093TIP3   OH263155   4.144   8.240   7.807
21093TIP3    H163156   4.098   8.260   7.889
21093TIP3    H263157   4.130   8.318   7.753
21094TIP3   OH263158   4.029   8.121   7.317
21094TIP3    H163159   3.938   8.101   7.336
21094TIP3    H263160   4.045   8.083   7.231
21095TIP3   OH263161   4.519   8.208   7.046
21095TIP3    H163162   4.466   8.279   7.008
21095TIP3    H263163   4.574   8.178   6.973
21096TIP3   OH263164   1.429   3.868   0.135
21096TIP3    H163165   1.405   3.797   0.195
21096TIP3    H263166   1.520   3.886   0.155
21097TIP3   OH263167   4.677   8.237   7.285
21097TIP3    H163168   4.617   8.271   7.218
21097TIP3    H263169   4.711   8.155   7.247
21098TIP3   OH263170   0.695   3.647   0.017
21098TIP3    H163171   0.734   3.707   0.081
21098TIP3    H263172   0.685   3.564   0.064
21099TIP3   OH263173   4.009   7.749   6.735
21099TIP3    H163174   3.978   7.746   6.826
21099TIP3    H263175   3.945   7.803   6.689
21100TIP3   OH263176   3.558   7.791   7.597
21100TIP3    H163177   3.633   7.821   7.648
21100TIP3    H263178   3.596   7.756   7.516
21101TIP3   OH263179   3.534   7.774   7.117
21101TIP3    H163180   3.576   7.807   7.038
21101TIP3    H263181   3.470   7.842   7.141
21102TIP3   OH263182   4.685   8.482   7.711
21102TIP3    H163183   4.719   8.414   7.653
21102TIP3    H263184   4.659   8.434   7.790
21103TIP3   OH263185   4.349   7.944   7.385
21103TIP3    H163186   4.270   7.945   7.439
21103TIP3    H263187   4.421   7.940   7.448
21104TIP3   OH263188   3.788   8.002   7.391
21104TIP3    H163189   3.696   8.013   7.365
21104TIP3    H263190   3.808   7.911   7.370
21105TIP3   OH263191   4.067   7.992   7.076
21105TIP3    H163192   4.159   8.010   7.058
21105TIP3    H263193   4.021   8.021   6.997
21106TIP3   OH263194   4.848   8.023   7.584
21106TIP3    H163195   4.818   8.036   7.674
21106TIP3    H263196   4.786   7.962   7.546
21107TIP3   OH263197   3.902   8.017   6.858
21107TIP3    H163198   3.831   7.983   6.803
21107TIP3    H263199   3.957   8.066   6.798
21108TIP3   OH263200   8.284   0.473   7.800
21108TIP3    H163201   8.283   0.492   7.706
21108TIP3    H263202   8.367   0.509   7.831
21109TIP3   OH263203   0.713   4.204   0.226
21109TIP3    H163204   0.793   4.231   0.270
21109TIP3    H263205   0.648   4.197   0.297
21110TIP3   OH263206   4.441   8.272   7.480
21110TIP3    H163207   4.515   8.236   7.430
21110TIP3    H263208   4.450   8.233   7.566
21111TIP3   OH263209   3.971   7.755   7.356
21111TIP3    H163210   3.931   7.682   7.403
21111TIP3    H263211   3.971   7.727   7.265
21112TIP3   OH263212   4.417   8.171   7.771
21112TIP3    H163213   4.330   8.207   7.784
21112TIP3    H263214   4.475   8.229   7.820
21113TIP3   OH263215   4.151   8.560   6.865
21113TIP3    H163216   4.073   8.510   6.841
21113TIP3    H263217   4.133   8.593   6.953
21114TIP3   OH263218   5.054   8.798   7.493
21114TIP3    H163219   5.079   8.847   7.414
21114TIP3    H263220   4.970   8.757   7.470
21115TIP3   OH263221   4.619   7.874   6.729
21115TIP3    H163222   4.525   7.858   6.729
21115TIP3    H263223   4.628   7.967   6.749
21116TIP3   OH263224   4.550   8.878   7.863
21116TIP3    H163225   4.581   8.854   7.950
21116TIP3    H263226   4.516   8.967   7.873
21117TIP3   OH263227   4.684   8.122   6.829
21117TIP3    H163228   4.778   8.129   6.846
21117TIP3    H263229   4.663   8.201   6.779
21118TIP3   OH263230   3.845   8.582   7.540
21118TIP3    H163231   3.881   8.557   7.455
21118TIP3    H263232   3.886   8.523   7.603
21119TIP3   OH263233   4.299   8.713   6.689
21119TIP3    H163234   4.253   8.797   6.693
21119TIP3    H263235   4.247   8.655   6.745
21120TIP3   OH263236   0.456   3.888   0.158
21120TIP3    H163237   0.485   3.871   0.248
21120TIP3    H263238   0.395   3.817   0.139
21121TIP3   OH263239   1.187   3.997   0.170
21121TIP3    H163240   1.129   3.939   0.122
21121TIP3    H263241   1.275   3.967   0.147
21122TIP3   OH263242   4.712   9.142   7.760
21122TIP3    H163243   4.616   9.139   7.768
21122TIP3    H263244   4.741   9.193   7.835
21123TIP3   OH263245   5.122   8.212   6.663
21123TIP3    H163246   5.062   8.164   6.605
21123TIP3    H263247   5.123   8.301   6.628
21124TIP3   OH263248   5.340   9.066   7.746
21124TIP3    H163249   5.244   9.064   7.742
21124TIP3    H263250   5.369   9.038   7.659
21125TIP3   OH263251   4.823   9.029   6.574
21125TIP3    H163252   4.799   8.959   6.635
21125TIP3    H263253   4.835   8.985   6.490
21126TIP3   OH263254   4.818   8.658   7.413
21126TIP3    H163255   4.726   8.635   7.427
21126TIP3    H263256   4.855   8.582   7.368
21127TIP3   OH263257   3.949   8.892   7.172
21127TIP3    H163258   3.958   8.968   7.115
21127TIP3    H263259   3.859   8.862   7.158
21128TIP3   OH263260   3.508   8.190   6.868
21128TIP3    H163261   3.561   8.268   6.883
21128TIP3    H263262   3.435   8.198   6.929
21129TIP3   OH263263   4.084   8.654   7.111
21129TIP3    H163264   4.055   8.743   7.130
21129TIP3    H263265   4.050   8.602   7.184
21130TIP3   OH263266   7.485  -0.006   7.638
21130TIP3    H163267   7.529   0.057   7.581
21130TIP3    H263268   7.556  -0.047   7.688
21131TIP3   OH263269   3.866   9.131   7.022
21131TIP3    H163270   3.780   9.142   7.063
21131TIP3    H263271   3.904   9.219   7.021
21132TIP3   OH263272   4.606   8.865   7.595
21132TIP3    H163273   4.595   8.863   7.690
21132TIP3    H263274   4.685   8.813   7.579
21133TIP3   OH263275   4.577   8.757   6.478
21133TIP3    H163276   4.630   8.734   6.555
21133TIP3    H263277   4.488   8.731   6.501
21134TIP3   OH263278   8.117   0.162   7.644
21134TIP3    H163279   8.041   0.103   7.639
21134TIP3    H263280   8.105   0.224   7.573
21135TIP3   OH263281   8.184  -0.003   6.296
21135TIP3    H163282   8.227   0.065   6.244
21135TIP3    H263283   8.104   0.037   6.329
21136TIP3   OH263284   0.671   3.390   0.161
21136TIP3    H163285   0.577   3.394   0.175
21136TIP3    H263286   0.703   3.332   0.231
21137TIP3   OH263287   4.740   8.692   6.695
21137TIP3    H163288   4.726   8.627   6.764
21137TIP3    H263289   4.835   8.691   6.680
21138TIP3   OH263290   3.656   9.091   7.790
21138TIP3    H163291   3.707   9.019   7.827
21138TIP3    H263292   3.677   9.167   7.844
21139TIP3   OH263293   3.941   8.735   6.493
21139TIP3    H163294   3.943   8.656   6.439
21139TIP3    H263295   3.903   8.706   6.576
21140TIP3   OH263296   3.868   8.770   6.787
21140TIP3    H163297   3.951   8.723   6.792
21140TIP3    H263298   3.892   8.861   6.770
21141TIP3   OH263299   3.630   8.427   6.950
21141TIP3    H163300   3.568   8.487   6.991
21141TIP3    H263301   3.663   8.475   6.874
21142TIP3   OH263302   4.776   8.071   7.842
21142TIP3    H163303   4.852   8.113   7.881
21142TIP3    H263304   4.761   7.993   7.896
21143TIP3   OH263305   4.654   7.826   7.006
21143TIP3    H163306   4.642   7.847   6.913
21143TIP3    H263307   4.694   7.904   7.044
21144TIP3   OH263308   4.156   8.943   6.699
21144TIP3    H163309   4.073   8.974   6.735
21144TIP3    H263310   4.174   9.003   6.627
21145TIP3   OH263311   4.344   7.999   7.103
21145TIP3    H163312   4.407   8.069   7.085
21145TIP3    H263313   4.346   7.989   7.198
21146TIP3   OH263314   4.615   8.324   7.920
21146TIP3    H163315   4.633   8.378   7.997
21146TIP3    H263316   4.668   8.245   7.933
21147TIP3   OH263317   4.481   7.757   7.211
21147TIP3    H163318   4.487   7.818   7.284
21147TIP3    H263319   4.538   7.794   7.143
21148TIP3   OH263320   3.909   9.037   6.763
21148TIP3    H163321   3.875   9.100   6.701
21148TIP3    H263322   3.888   9.074   6.849
21149TIP3   OH263323   3.994   7.733   7.020
21149TIP3    H163324   3.990   7.826   7.042
21149TIP3    H263325   4.083   7.720   6.987
21150TIP3   OH263326   5.251   8.224   7.897
21150TIP3    H163327   5.156   8.223   7.906
21150TIP3    H263328   5.267   8.182   7.812
21151TIP3   OH263329   4.905   8.417   7.288
21151TIP3    H163330   4.830   8.359   7.300
21151TIP3    H263331   4.977   8.374   7.334
21152TIP3   OH263332   3.617   8.664   6.758
21152TIP3    H163333   3.688   8.726   6.774
21152TIP3    H263334   3.656   8.595   6.705
21153TIP3   OH263335   3.557   7.921   6.893
21153TIP3    H163336   3.565   8.017   6.887
21153TIP3    H263337   3.481   7.900   6.838
21154TIP3   OH263338   8.141   0.135   7.234
21154TIP3    H163339   8.096   0.181   7.163
21154TIP3    H263340   8.234   0.151   7.219
21155TIP3   OH263341   3.947   7.640   7.763
21155TIP3    H163342   3.916   7.607   7.678
21155TIP3    H263343   3.939   7.565   7.822
21156TIP3   OH263344   3.471   8.901   7.180
21156TIP3    H163345   3.389   8.922   7.135
21156TIP3    H263346   3.531   8.877   7.110
21157TIP3   OH263347   0.407   4.745   0.213
21157TIP3    H163348   0.500   4.733   0.235
21157TIP3    H263349   0.378   4.659   0.183
21158TIP3   OH263350   0.894   4.758   0.226
21158TIP3    H163351   0.972   4.709   0.251
21158TIP3    H263352   0.843   4.696   0.172
21159TIP3   OH263353   4.108   8.938   6.394
21159TIP3    H163354   4.052   8.872   6.434
21159TIP3    H263355   4.181   8.888   6.358
21160TIP3   OH263356   1.495   4.655  -0.004
21160TIP3    H163357   1.488   4.583   0.059
21160TIP3    H263358   1.576   4.700   0.020
21161TIP3   OH263359   4.546   8.984   6.300
21161TIP3    H163360   4.588   8.921   6.358
21161TIP3    H263361   4.600   8.984   6.221
21162TIP3   OH263362   0.509   4.175   0.408
21162TIP3    H163363   0.529   4.081   0.411
21162TIP3    H263364   0.422   4.179   0.367
21163TIP3   OH263365   1.116   4.272   0.187
21163TIP3    H163366   1.078   4.285   0.100
21163TIP3    H263367   1.150   4.182   0.184
21164TIP3   OH263368   4.263   8.658   6.418
21164TIP3    H163369   4.261   8.672   6.513
21164TIP3    H263370   4.264   8.563   6.407
21165TIP3   OH263371   4.875   8.903   7.793
21165TIP3    H163372   4.952   8.944   7.751
21165TIP3    H263373   4.805   8.967   7.782
21166TIP3   OH263374   0.632   3.918   0.394
21166TIP3    H163375   0.705   3.861   0.371
21166TIP3    H263376   0.655   3.953   0.481
21167TIP3   OH263377   0.958   3.805   0.052
21167TIP3    H163378   0.886   3.867   0.060
21167TIP3    H263379   1.011   3.838  -0.021
21168TIP3   OH263380   4.068   8.123   6.675
21168TIP3    H163381   4.025   8.143   6.592
21168TIP3    H263382   4.155   8.162   6.668
21169TIP3   OH263383   1.479   4.206   0.190
21169TIP3    H163384   1.563   4.187   0.148
21169TIP3    H263385   1.475   4.146   0.264
21170TIP3   OH263386   4.883   8.489   6.331
21170TIP3    H163387   4.863   8.439   6.252
21170TIP3    H263388   4.853   8.578   6.312
21171TIP3   OH263389   1.084   3.595   0.185
21171TIP3    H163390   1.088   3.515   0.132
21171TIP3    H263391   1.042   3.659   0.127
21172TIP3   OH263392   4.354   8.002   7.991
21172TIP3    H163393   4.383   8.042   7.909
21172TIP3    H263394   4.263   7.979   7.975
21173TIP3   OH263395   4.382   8.536   7.864
21173TIP3    H163396   4.467   8.542   7.820
21173TIP3    H263397   4.329   8.603   7.822
21174TIP3   OH263398   1.700   3.884   0.245
21174TIP3    H163399   1.745   3.800   0.260
21174TIP3    H263400   1.769   3.943   0.214
21175TIP3   OH263401   5.007   8.758   7.979
21175TIP3    H163402   4.947   8.809   7.924
21175TIP3    H263403   5.094   8.776   7.942
21176TIP3   OH263404   0.953   3.711   0.407
21176TIP3    H163405   0.892   3.640   0.427
21176TIP3    H263406   0.996   3.683   0.326
21177TIP3   OH263407   1.219   3.146   0.056
21177TIP3    H163408   1.173   3.227   0.036
21177TIP3    H263409   1.153   3.077   0.047
21178TIP3   OH263410   1.345   3.650   0.276
21178TIP3    H163411   1.342   3.641   0.371
21178TIP3    H263412   1.257   3.626   0.247
21179TIP3   OH263413   1.585   3.597   0.130
21179TIP3    H163414   1.512   3.600   0.190
21179TIP3    H263415   1.659   3.568   0.183
21180TIP3   OH263416   1.813   3.537   0.280
21180TIP3    H163417   1.826   3.444   0.298
21180TIP3    H263418   1.809   3.578   0.367
21181TIP3   OH263419   0.805   3.486   0.468
21181TIP3    H163420   0.810   3.398   0.432
21181TIP3    H263421   0.840   3.478   0.557
21182TIP3   OH263422   1.317   3.155   0.312
21182TIP3    H163423   1.384   3.087   0.312
21182TIP3    H263424   1.276   3.148   0.226
21183TIP3   OH263425   1.380   3.370   0.473
21183TIP3    H163426   1.360   3.300   0.411
21183TIP3    H263427   1.303   3.428   0.469
21184TIP3   OH263428   7.135  -0.011   6.574
21184TIP3    H163429   7.229  -0.021   6.558
21184TIP3    H263430   7.103   0.033   6.495
21185TIP3   OH263431   3.354   8.597   6.799
21185TIP3    H163432   3.443   8.625   6.780
21185TIP3    H263433   3.345   8.512   6.755
21186TIP3   OH263434   3.257   9.210   7.208
21186TIP3    H163435   3.190   9.163   7.158
21186TIP3    H263436   3.298   9.142   7.261
21187TIP3   OH263437   8.391   0.229   7.193
21187TIP3    H163438   8.419   0.260   7.279
21187TIP3    H263439   8.453   0.268   7.132
21188TIP3   OH263440   8.421   0.243   7.476
21188TIP3    H163441   8.379   0.158   7.469
21188TIP3    H263442   8.498   0.227   7.530
21189TIP3   OH263443   1.926   4.538   0.044
21189TIP3    H163444   1.856   4.545   0.109
21189TIP3    H263445   1.975   4.619   0.053
21190TIP3   OH263446   5.020   8.675   6.669
21190TIP3    H163447   5.085   8.739   6.639
21190TIP3    H263448   5.060   8.635   6.746
21191TIP3   OH263449   5.145   8.542   6.873
21191TIP3    H163450   5.081   8.500   6.930
21191TIP3    H263451   5.209   8.580   6.933
21192TIP3   OH263452   5.198   8.933   7.300
21192TIP3    H163453   5.252   8.869   7.254
21192TIP3    H263454   5.192   9.008   7.241
21193TIP3   OH263455   5.030   9.234   7.499
21193TIP3    H163456   4.961   9.275   7.551
21193TIP3    H263457   4.983   9.186   7.430
21194TIP3   OH263458   5.081   8.452   6.518
21194TIP3    H163459   5.013   8.451   6.451
21194TIP3    H263460   5.058   8.526   6.575
21195TIP3   OH263461   4.955   8.121   6.472
21195TIP3    H163462   4.912   8.164   6.397
21195TIP3    H263463   4.930   8.029   6.464
21196TIP3   OH263464   4.960   8.398   7.020
21196TIP3    H163465   4.968   8.302   7.013
21196TIP3    H263466   4.946   8.413   7.114
21197TIP3   OH263467   3.588   8.479   7.757
21197TIP3    H163468   3.587   8.444   7.668
21197TIP3    H263469   3.681   8.479   7.781
21198TIP3   OH263470   5.251   8.822   7.872
21198TIP3    H163471   5.321   8.758   7.865
21198TIP3    H263472   5.277   8.893   7.813
21199TIP3   OH263473   5.435   8.627   7.894
21199TIP3    H163474   5.360   8.580   7.930
21199TIP3    H263475   5.509   8.567   7.905
21200TIP3   OH263476   4.898   7.857   6.461
21200TIP3    H163477   4.972   7.826   6.514
21200TIP3    H263478   4.826   7.798   6.484
21201TIP3   OH263479   4.958   8.113   6.913
21201TIP3    H163480   4.995   8.026   6.930
21201TIP3    H263481   5.013   8.150   6.844
21202TIP3   OH263482   5.120   8.292   7.408
21202TIP3    H163483   5.202   8.314   7.365
21202TIP3    H263484   5.129   8.325   7.497
21203TIP3   OH263485   5.184   8.434   7.640
21203TIP3    H163486   5.108   8.465   7.689
21203TIP3    H263487   5.218   8.511   7.595
21204TIP3   OH263488   0.539   3.541   0.441
21204TIP3    H163489   0.635   3.536   0.440
21204TIP3    H263490   0.511   3.457   0.478
21205TIP3   OH263491   2.367   3.399   0.192
21205TIP3    H163492   2.428   3.336   0.153
21205TIP3    H263493   2.343   3.457   0.120
21206TIP3   OH263494   5.065   7.863   6.953
21206TIP3    H163495   5.115   7.850   7.033
21206TIP3    H263496   5.006   7.788   6.949
21207TIP3   OH263497   3.767   7.851   7.770
21207TIP3    H163498   3.825   7.775   7.781
21207TIP3    H263499   3.826   7.926   7.764
21208TIP3   OH263500   3.568   8.127   7.841
21208TIP3    H163501   3.614   8.116   7.758
21208TIP3    H263502   3.606   8.206   7.879
21209TIP3   OH263503   5.508   8.164   8.000
21209TIP3    H163504   5.425   8.204   8.027
21209TIP3    H263505   5.483   8.092   7.944
21210TIP3   OH263506   5.148   7.800   6.582
21210TIP3    H163507   5.185   7.728   6.532
21210TIP3    H263508   5.213   7.870   6.576
21211TIP3   OH263509   3.551   7.632   7.346
21211TIP3    H163510   3.459   7.625   7.371
21211TIP3    H263511   3.550   7.687   7.268
21212TIP3   OH263512   7.978   0.094   6.850
21212TIP3    H163513   8.023   0.076   6.768
21212TIP3    H263514   8.033   0.158   6.895
21213TIP3   OH263515   0.502   3.092   0.158
21213TIP3    H163516   0.456   3.081   0.241
21213TIP3    H263517   0.436   3.126   0.098
21214TIP3   OH263518   0.548   4.509   0.244
21214TIP3    H163519   0.463   4.471   0.226
21214TIP3    H263520   0.565   4.491   0.336
21215TIP3   OH263521   3.988   9.169   7.782
21215TIP3    H163522   3.940   9.244   7.747
21215TIP3    H263523   4.075   9.176   7.742
21216TIP3   OH263524   7.703   0.177   7.925
21216TIP3    H163525   7.747   0.174   8.010
21216TIP3    H263526   7.765   0.222   7.868
21217TIP3   OH263527   7.892   0.311   7.785
21217TIP3    H163528   7.965   0.267   7.742
21217TIP3    H263529   7.933   0.379   7.838
21218TIP3   OH263530   5.407   7.923   7.879
21218TIP3    H163531   5.317   7.918   7.848
21218TIP3    H263532   5.441   7.834   7.869
21219TIP3   OH263533   6.934   0.166   7.786
21219TIP3    H163534   6.842   0.187   7.769
21219TIP3    H263535   6.954   0.212   7.867
21220TIP3   OH263536   7.176   0.168   7.662
21220TIP3    H163537   7.092   0.170   7.707
21220TIP3    H263538   7.158   0.201   7.574
21221TIP3   OH263539   7.593   0.194   7.469
21221TIP3    H163540   7.531   0.207   7.396
21221TIP3    H263541   7.588   0.276   7.518
21222TIP3   OH263542   7.865   0.130   7.510
21222TIP3    H163543   7.773   0.148   7.490
21222TIP3    H263544   7.913   0.203   7.471
21223TIP3   OH263545   8.065   0.323   7.425
21223TIP3    H163546   8.057   0.407   7.380
21223TIP3    H263547   8.095   0.263   7.357
21224TIP3   OH263548   3.578   9.184   7.544
21224TIP3    H163549   3.606   9.188   7.636
21224TIP3    H263550   3.659   9.166   7.495
21225TIP3   OH263551   3.777   9.083   7.403
21225TIP3    H163552   3.795   9.001   7.449
21225TIP3    H263553   3.863   9.125   7.396
21226TIP3   OH263554   4.036   9.184   7.413
21226TIP3    H163555   4.066   9.095   7.393
21226TIP3    H263556   4.079   9.205   7.496
21227TIP3   OH263557   4.605   7.833   7.484
21227TIP3    H163558   4.568   7.771   7.547
21227TIP3    H263559   4.686   7.792   7.454
21228TIP3   OH263560   5.135   7.719   7.399
21228TIP3    H163561   5.174   7.771   7.330
21228TIP3    H263562   5.042   7.744   7.400
21229TIP3   OH263563   5.233   7.824   7.166
21229TIP3    H163564   5.303   7.770   7.129
21229TIP3    H263565   5.264   7.914   7.154
21230TIP3   OH263566   3.860   7.544   7.511
21230TIP3    H163567   3.768   7.517   7.515
21230TIP3    H263568   3.909   7.462   7.512
21231TIP3   OH263569   3.650   7.421   7.164
21231TIP3    H163570   3.676   7.475   7.089
21231TIP3    H263571   3.619   7.484   7.229
21232TIP3   OH263572   4.849   7.725   7.382
21232TIP3    H163573   4.863   7.692   7.294
21232TIP3    H263574   4.835   7.647   7.436
21233TIP3   OH263575   4.879   7.648   6.942
21233TIP3    H163576   4.796   7.696   6.947
21233TIP3    H263577   4.865   7.569   6.993
21234TIP3   OH263578   3.345   8.994   6.959
21234TIP3    H163579   3.270   8.954   6.915
21234TIP3    H263580   3.350   9.083   6.922
21235TIP3   OH263581   3.763   7.576   6.929
21235TIP3    H163582   3.809   7.516   6.870
21235TIP3    H263583   3.831   7.630   6.968
21236TIP3   OH263584   4.138   9.180   6.521
21236TIP3    H163585   4.225   9.203   6.489
21236TIP3    H263586   4.112   9.105   6.467
21237TIP3   OH263587   8.119   0.055   6.616
21237TIP3    H163588   8.113  -0.040   6.606
21237TIP3    H263589   8.078   0.090   6.537
21238TIP3   OH263590   0.804   3.210   0.406
21238TIP3    H163591   0.767   3.141   0.460
21238TIP3    H263592   0.897   3.212   0.430
21239TIP3   OH263593   1.052   3.206   0.524
21239TIP3    H163594   1.136   3.182   0.485
21239TIP3    H263595   1.037   3.139   0.591
21240TIP3   OH263596   3.444   9.015   6.582
21240TIP3    H163597   3.449   9.044   6.673
21240TIP3    H263598   3.528   8.972   6.566
21241TIP3   OH263599   1.878   3.268   0.312
21241TIP3    H163600   1.894   3.238   0.402
21241TIP3    H263601   1.963   3.265   0.269
21242TIP3   OH263602   8.348   0.205   7.803
21242TIP3    H163603   8.272   0.171   7.756
21242TIP3    H263604   8.333   0.299   7.810
21243TIP3   OH263605   6.346   8.807   6.570
21243TIP3    H163606   6.321   8.898   6.558
21243TIP3    H263607   6.273   8.757   6.535
21244TIP3   OH263608   6.344   8.806   6.944
21244TIP3    H163609   6.368   8.795   7.035
21244TIP3    H263610   6.296   8.726   6.922
21245TIP3   OH263611   5.649   8.708   7.318
21245TIP3    H163612   5.677   8.641   7.380
21245TIP3    H263613   5.723   8.769   7.314
21246TIP3   OH263614   6.588   9.111   6.633
21246TIP3    H163615   6.580   9.045   6.702
21246TIP3    H263616   6.617   9.190   6.678
21247TIP3   OH263617   5.619   9.116   7.043
21247TIP3    H163618   5.608   9.021   7.046
21247TIP3    H263619   5.713   9.129   7.038
21248TIP3   OH263620   5.324   8.324   6.828
21248TIP3    H163621   5.278   8.406   6.843
21248TIP3    H263622   5.256   8.266   6.791
21249TIP3   OH263623   5.385   8.608   6.999
21249TIP3    H163624   5.432   8.533   7.036
21249TIP3    H263625   5.443   8.641   6.930
21250TIP3   OH263626   9.510   0.338   6.650
21250TIP3    H163627   9.553   0.269   6.600
21250TIP3    H263628   9.498   0.301   6.738
21251TIP3   OH263629   6.149   9.038   6.999
21251TIP3    H163630   6.183   8.964   6.948
21251TIP3    H263631   6.228   9.086   7.027
21252TIP3   OH263632   7.163   8.356   6.991
21252TIP3    H163633   7.184   8.435   7.042
21252TIP3    H263634   7.180   8.382   6.900
21253TIP3   OH263635   6.556   8.546   7.037
21253TIP3    H163636   6.598   8.471   7.079
21253TIP3    H263637   6.548   8.522   6.945
21254TIP3   OH263638   5.896   8.199   6.994
21254TIP3    H163639   5.874   8.272   6.936
21254TIP3    H263640   5.851   8.124   6.956
21255TIP3   OH263641   5.532   8.401   7.104
21255TIP3    H163642   5.612   8.384   7.154
21255TIP3    H263643   5.541   8.347   7.026
21256TIP3   OH263644   5.972   8.598   6.894
21256TIP3    H163645   6.063   8.574   6.912
21256TIP3    H263646   5.930   8.516   6.866
21257TIP3   OH263647   7.208   8.555   7.173
21257TIP3    H163648   7.128   8.598   7.142
21257TIP3    H263649   7.196   8.547   7.268
21258TIP3   OH263650   5.891   8.184   7.432
21258TIP3    H163651   5.832   8.220   7.365
21258TIP3    H263652   5.844   8.198   7.515
21259TIP3   OH263653   6.241   9.035   6.440
21259TIP3    H163654   6.198   9.012   6.358
21259TIP3    H263655   6.200   9.116   6.468
21260TIP3   OH263656   5.997   8.960   7.229
21260TIP3    H163657   5.935   9.022   7.267
21260TIP3    H263658   6.042   9.009   7.160
21261TIP3   OH263659   6.769   8.306   6.788
21261TIP3    H163660   6.798   8.231   6.839
21261TIP3    H263661   6.832   8.375   6.809
21262TIP3   OH263662   5.766   8.299   7.215
21262TIP3    H163663   5.823   8.371   7.242
21262TIP3    H263664   5.813   8.256   7.143
21263TIP3   OH263665   5.821   9.153   7.326
21263TIP3    H163666   5.803   9.239   7.287
21263TIP3    H263667   5.747   9.136   7.383
21264TIP3   OH263668   5.223   8.844   6.561
21264TIP3    H163669   5.181   8.869   6.479
21264TIP3    H263670   5.253   8.927   6.599
21265TIP3   OH263671   0.111   0.093   6.782
21265TIP3    H163672   0.030   0.094   6.834
21265TIP3    H263673   0.119   0.182   6.749
21266TIP3   OH263674   6.956   8.268   7.166
21266TIP3    H163675   6.870   8.298   7.138
21266TIP3    H263676   7.014   8.286   7.092
21267TIP3   OH263677   6.246   7.905   7.144
21267TIP3    H163678   6.241   7.811   7.163
21267TIP3    H263679   6.172   7.943   7.191
21268TIP3   OH263680   9.630   0.166   6.468
21268TIP3    H163681   9.678   0.084   6.456
21268TIP3    H263682   9.689   0.233   6.435
21269TIP3   OH263683   6.508   9.188   6.383
21269TIP3    H163684   6.464   9.111   6.347
21269TIP3    H263685   6.543   9.158   6.467
21270TIP3   OH263686   6.175   8.659   6.408
21270TIP3    H163687   6.101   8.714   6.380
21270TIP3    H263688   6.229   8.650   6.329
21271TIP3   OH263689   6.141   8.448   6.121
21271TIP3    H163690   6.204   8.502   6.169
21271TIP3    H263691   6.195   8.386   6.073
21272TIP3   OH263692   7.078   8.889   6.976
21272TIP3    H163693   7.003   8.947   6.989
21272TIP3    H263694   7.121   8.924   6.898
21273TIP3   OH263695   6.526   8.748   6.375
21273TIP3    H163696   6.471   8.773   6.450
21273TIP3    H263697   6.610   8.724   6.415
21274TIP3   OH263698   6.698   8.793   7.233
21274TIP3    H163699   6.745   8.849   7.295
21274TIP3    H263700   6.623   8.846   7.206
21275TIP3   OH263701   5.759   8.744   6.790
21275TIP3    H163702   5.717   8.689   6.724
21275TIP3    H263703   5.835   8.694   6.818
21276TIP3   OH263704   5.889   9.155   6.940
21276TIP3    H163705   5.868   9.113   6.856
21276TIP3    H263706   5.977   9.125   6.960
21277TIP3   OH263707   5.898   8.717   7.143
21277TIP3    H163708   5.929   8.701   7.054
21277TIP3    H263709   5.937   8.801   7.168
21278TIP3   OH263710   9.681   0.116   6.924
21278TIP3    H163711   9.677   0.194   6.980
21278TIP3    H263712   9.669   0.043   6.984
21279TIP3   OH263713   9.295   0.036   7.461
21279TIP3    H163714   9.237   0.095   7.510
21279TIP3    H263715   9.236  -0.024   7.416
21280TIP3   OH263716   6.369   8.604   6.202
21280TIP3    H163717   6.424   8.661   6.255
21280TIP3    H263718   6.393   8.625   6.112
21281TIP3   OH263719   5.783   8.833   7.567
21281TIP3    H163720   5.791   8.917   7.612
21281TIP3    H263721   5.691   8.809   7.578
21282TIP3   OH263722   9.375   0.047   6.476
21282TIP3    H163723   9.456   0.097   6.491
21282TIP3    H263724   9.314   0.111   6.439
21283TIP3   OH263725   9.094   0.194   7.562
21283TIP3    H163726   9.060   0.201   7.473
21283TIP3    H263727   9.016   0.180   7.616
21284TIP3   OH263728   6.891   7.855   6.243
21284TIP3    H163729   6.821   7.852   6.308
21284TIP3    H263730   6.881   7.939   6.199
21285TIP3   OH263731   5.624   8.586   6.592
21285TIP3    H163732   5.562   8.634   6.538
21285TIP3    H263733   5.581   8.503   6.610
21286TIP3   OH263734   6.682   9.216   5.794
21286TIP3    H163735   6.688   9.311   5.783
21286TIP3    H263736   6.772   9.185   5.783
21287TIP3   OH263737   5.405   8.971   7.503
21287TIP3    H163738   5.342   8.948   7.434
21287TIP3    H263739   5.443   8.887   7.529
21288TIP3   OH263740   5.261   9.165   7.138
21288TIP3    H163741   5.356   9.156   7.125
21288TIP3    H263742   5.252   9.244   7.191
21289TIP3   OH263743   9.480   0.174   7.321
21289TIP3    H163744   9.498   0.245   7.383
21289TIP3    H263745   9.416   0.119   7.365
21290TIP3   OH263746   9.258   0.294   6.276
21290TIP3    H163747   9.211   0.275   6.195
21290TIP3    H263748   9.226   0.380   6.303
21291TIP3   OH263749   8.696   0.139   6.663
21291TIP3    H163750   8.745   0.134   6.745
21291TIP3    H263751   8.636   0.064   6.666
21292TIP3   OH263752   9.461   0.192   5.919
21292TIP3    H163753   9.518   0.124   5.882
21292TIP3    H263754   9.492   0.203   6.009
21293TIP3   OH263755   9.509   0.240   6.191
21293TIP3    H163756   9.421   0.251   6.229
21293TIP3    H263757   9.560   0.201   6.262
21294TIP3   OH263758   6.937   8.752   7.380
21294TIP3    H163759   7.003   8.820   7.366
21294TIP3    H263760   6.987   8.675   7.408
21295TIP3   OH263761   5.608   9.156   7.494
21295TIP3    H163762   5.660   9.139   7.572
21295TIP3    H263763   5.536   9.093   7.499
21296TIP3   OH263764   6.007   7.981   7.274
21296TIP3    H163765   5.921   7.947   7.248
21296TIP3    H263766   5.987   8.061   7.323
21297TIP3   OH263767   6.545   8.091   7.471
21297TIP3    H163768   6.613   8.067   7.534
21297TIP3    H263769   6.463   8.074   7.517
21298TIP3   OH263770   6.770   8.512   7.378
21298TIP3    H163771   6.724   8.517   7.462
21298TIP3    H263772   6.776   8.602   7.348
21299TIP3   OH263773   6.443   8.651   5.942
21299TIP3    H163774   6.409   8.626   5.856
21299TIP3    H263775   6.521   8.703   5.923
21300TIP3   OH263776   6.152   8.025   6.248
21300TIP3    H163777   6.116   8.024   6.337
21300TIP3    H263778   6.118   7.945   6.207
21301TIP3   OH263779   5.940   8.496   7.294
21301TIP3    H163780   5.894   8.515   7.376
21301TIP3    H263781   5.927   8.573   7.240
21302TIP3   OH263782   5.824   8.378   6.805
21302TIP3    H163783   5.734   8.356   6.827
21302TIP3    H263784   5.837   8.341   6.717
21303TIP3   OH263785   6.482   8.746   7.613
21303TIP3    H163786   6.457   8.672   7.668
21303TIP3    H263787   6.577   8.739   7.605
21304TIP3   OH263788   5.760   8.522   7.505
21304TIP3    H163789   5.792   8.586   7.569
21304TIP3    H263790   5.750   8.441   7.554
21305TIP3   OH263791   5.810   8.003   6.214
21305TIP3    H163792   5.802   7.996   6.309
21305TIP3    H263793   5.733   8.052   6.187
21306TIP3   OH263794   5.355   8.047   7.082
21306TIP3    H163795   5.428   8.076   7.136
21306TIP3    H263796   5.395   8.012   7.003
21307TIP3   OH263797   5.329   8.030   6.601
21307TIP3    H163798   5.374   8.064   6.524
21307TIP3    H263799   5.267   8.099   6.625
21308TIP3   OH263800   6.424   8.733   7.191
21308TIP3    H163801   6.483   8.679   7.139
21308TIP3    H263802   6.429   8.696   7.279
21309TIP3   OH263803   6.151   8.221   6.874
21309TIP3    H163804   6.067   8.213   6.919
21309TIP3    H263805   6.216   8.196   6.940
21310TIP3   OH263806   5.587   8.257   6.876
21310TIP3    H163807   5.495   8.266   6.851
21310TIP3    H263808   5.609   8.167   6.855
21311TIP3   OH263809   5.862   8.261   6.558
21311TIP3    H163810   5.947   8.269   6.515
21311TIP3    H263811   5.799   8.276   6.487
21312TIP3   OH263812   6.631   8.282   7.067
21312TIP3    H163813   6.606   8.294   7.159
21312TIP3    H263814   6.590   8.200   7.041
21313TIP3   OH263815   5.699   8.285   6.344
21313TIP3    H163816   5.624   8.243   6.301
21313TIP3    H263817   5.750   8.322   6.272
21314TIP3   OH263818   5.765   9.076   7.711
21314TIP3    H163819   5.846   9.108   7.751
21314TIP3    H263820   5.702   9.074   7.783
21315TIP3   OH263821   6.237   8.524   6.978
21315TIP3    H163822   6.291   8.449   6.956
21315TIP3    H263823   6.229   8.521   7.073
21316TIP3   OH263824   5.760   8.015   6.844
21316TIP3    H163825   5.724   7.941   6.894
21316TIP3    H263826   5.813   7.975   6.776
21317TIP3   OH263827   6.213   8.434   7.250
21317TIP3    H163828   6.126   8.467   7.274
21317TIP3    H263829   6.273   8.483   7.305
21318TIP3   OH263830   5.950   8.818   6.353
21318TIP3    H163831   5.880   8.753   6.340
21318TIP3    H263832   5.935   8.852   6.441
21319TIP3   OH263833   6.851   9.042   6.985
21319TIP3    H163834   6.877   9.093   6.910
21319TIP3    H263835   6.765   9.007   6.962
21320TIP3   OH263836   6.409   8.122   6.228
21320TIP3    H163837   6.314   8.112   6.223
21320TIP3    H263838   6.422   8.216   6.239
21321TIP3   OH263839   6.334   9.126   7.351
21321TIP3    H163840   6.384   9.103   7.430
21321TIP3    H263841   6.306   9.216   7.366
21322TIP3   OH263842   6.485   8.373   6.317
21322TIP3    H163843   6.578   8.388   6.331
21322TIP3    H263844   6.454   8.455   6.277
21323TIP3   OH263845   5.641   8.837   7.028
21323TIP3    H163846   5.678   8.812   6.944
21323TIP3    H263847   5.682   8.778   7.091
21324TIP3   OH263848   6.092   8.968   6.172
21324TIP3    H163849   6.048   9.053   6.176
21324TIP3    H263850   6.042   8.912   6.231
21325TIP3   OH263851   5.520   8.761   7.642
21325TIP3    H163852   5.545   8.749   7.734
21325TIP3    H263853   5.454   8.694   7.626
21326TIP3   OH263854   6.239   8.862   7.664
21326TIP3    H163855   6.177   8.811   7.612
21326TIP3    H263856   6.325   8.838   7.630
21327TIP3   OH263857   9.749   0.144   7.272
21327TIP3    H163858   9.657   0.143   7.247
21327TIP3    H263859   9.750   0.172   7.363
21328TIP3   OH263860   6.917   8.468   6.150
21328TIP3    H163861   6.858   8.420   6.092
21328TIP3    H263862   6.918   8.557   6.115
21329TIP3   OH263863   0.086   0.047   6.060
21329TIP3    H163864   0.061  -0.020   6.124
21329TIP3    H263865   0.098  -0.002   5.979
21330TIP3   OH263866   6.605   8.918   6.900
21330TIP3    H163867   6.513   8.891   6.906
21330TIP3    H263868   6.649   8.846   6.856
21331TIP3   OH263869   5.741   9.144   6.649
21331TIP3    H163870   5.745   9.225   6.598
21331TIP3    H263871   5.648   9.129   6.663
21332TIP3   OH263872   5.305   8.450   6.357
21332TIP3    H163873   5.353   8.531   6.375
21332TIP3    H263874   5.229   8.453   6.415
21333TIP3   OH263875   5.881   8.910   6.598
21333TIP3    H163876   5.848   8.999   6.612
21333TIP3    H263877   5.846   8.859   6.671
21334TIP3   OH263878   9.278   0.246   7.122
21334TIP3    H163879   9.312   0.324   7.079
21334TIP3    H263880   9.352   0.212   7.172
21335TIP3   OH263881   8.929   0.145   6.506
21335TIP3    H163882   8.844   0.150   6.550
21335TIP3    H263883   8.962   0.234   6.507
21336TIP3   OH263884   6.399   9.121   7.081
21336TIP3    H163885   6.388   9.112   7.176
21336TIP3    H263886   6.483   9.078   7.063
21337TIP3   OH263887   6.374   9.012   5.965
21337TIP3    H163888   6.428   8.989   6.040
21337TIP3    H263889   6.285   8.989   5.992
21338TIP3   OH263890   0.181   0.254   5.783
21338TIP3    H163891   0.226   0.326   5.737
21338TIP3    H263892   0.100   0.294   5.816
21339TIP3   OH263893   5.734   8.264   7.650
21339TIP3    H163894   5.640   8.270   7.664
21339TIP3    H263895   5.766   8.207   7.720
21340TIP3   OH263896   6.536   8.945   6.177
21340TIP3    H163897   6.522   8.882   6.249
21340TIP3    H263898   6.631   8.947   6.166
21341TIP3   OH263899   8.717   0.111   7.284
21341TIP3    H163900   8.768   0.035   7.312
21341TIP3    H263901   8.747   0.183   7.340
21342TIP3   OH263902   5.741   8.993   5.963
21342TIP3    H163903   5.756   8.904   5.933
21342TIP3    H263904   5.723   8.985   6.057
21343TIP3   OH263905   5.688   9.002   6.235
21343TIP3    H163906   5.758   8.973   6.295
21343TIP3    H263907   5.689   9.097   6.240
21344TIP3   OH263908   5.422   8.697   6.438
21344TIP3    H163909   5.357   8.737   6.496
21344TIP3    H263910   5.438   8.763   6.370
21345TIP3   OH263911   6.571   8.322   7.323
21345TIP3    H163912   6.644   8.374   7.357
21345TIP3    H263913   6.562   8.250   7.385
21346TIP3   OH263914   6.469   8.145   6.506
21346TIP3    H163915   6.405   8.137   6.435
21346TIP3    H263916   6.553   8.123   6.466
21347TIP3   OH263917   5.949   9.199   6.182
21347TIP3    H163918   5.865   9.224   6.221
21347TIP3    H263919   5.970   9.271   6.123
21348TIP3   OH263920   6.175   8.265   6.600
21348TIP3    H163921   6.157   8.355   6.573
21348TIP3    H263922   6.147   8.262   6.692
21349TIP3   OH263923   6.405   8.570   7.411
21349TIP3    H163924   6.417   8.632   7.483
21349TIP3    H263925   6.471   8.502   7.426
21350TIP3   OH263926   6.284   7.987   6.696
21350TIP3    H163927   6.286   8.044   6.773
21350TIP3    H263928   6.339   8.032   6.632
21351TIP3   OH263929   8.960   0.035   6.251
21351TIP3    H163930   8.931   0.101   6.188
21351TIP3    H263931   8.946   0.075   6.337
21352TIP3   OH263932   5.796   7.985   6.489
21352TIP3    H163933   5.790   8.073   6.527
21352TIP3    H263934   5.889   7.963   6.495
21353TIP3   OH263935   7.035   8.466   7.372
21353TIP3    H163936   6.944   8.478   7.398
21353TIP3    H263937   7.030   8.411   7.293
21354TIP3   OH263938   6.709   8.676   6.770
21354TIP3    H163939   6.640   8.629   6.816
21354TIP3    H263940   6.790   8.643   6.809
21355TIP3   OH263941   5.416   8.904   6.242
21355TIP3    H163942   5.476   8.978   6.254
21355TIP3    H263943   5.457   8.849   6.176
21356TIP3   OH263944   5.358   8.181   6.376
21356TIP3    H163945   5.357   8.276   6.372
21356TIP3    H263946   5.276   8.154   6.335
21357TIP3   OH263947   0.109   0.357   6.698
21357TIP3    H163948   0.068   0.425   6.644
21357TIP3    H263949   0.201   0.383   6.704
21358TIP3   OH263950   5.744   7.897   7.251
21358TIP3    H163951   5.714   7.865   7.166
21358TIP3    H263952   5.736   7.822   7.309
21359TIP3   OH263953   5.284   9.117   6.632
21359TIP3    H163954   5.212   9.147   6.688
21359TIP3    H263955   5.264   9.155   6.546
21360TIP3   OH263956   8.703   0.408   7.693
21360TIP3    H163957   8.787   0.415   7.739
21360TIP3    H263958   8.681   0.315   7.697
21361TIP3   OH263959   5.904   9.196   5.875
21361TIP3    H163960   5.846   9.131   5.914
21361TIP3    H263961   5.980   9.147   5.844
21362TIP3   OH263962   6.342   9.239   5.786
21362TIP3    H163963   6.384   9.178   5.846
21362TIP3    H263964   6.399   9.240   5.709
21363TIP3   OH263965   5.570   9.056   7.904
21363TIP3    H163966   5.589   8.962   7.904
21363TIP3    H263967   5.485   9.062   7.861
21364TIP3   OH263968   5.551   8.716   6.095
21364TIP3    H163969   5.602   8.684   6.169
21364TIP3    H263970   5.614   8.722   6.023
21365TIP3   OH263971   6.174   9.140   7.667
21365TIP3    H163972   6.151   9.166   7.578
21365TIP3    H263973   6.219   9.056   7.657
21366TIP3   OH263974   6.057   8.912   5.903
21366TIP3    H163975   6.060   8.929   5.997
21366TIP3    H263976   6.056   8.817   5.896
21367TIP3   OH263977   6.632   9.128   7.270
21367TIP3    H163978   6.713   9.167   7.238
21367TIP3    H263979   6.572   9.202   7.280
21368TIP3   OH263980   5.692   8.794   7.883
21368TIP3    H163981   5.766   8.736   7.863
21368TIP3    H263982   5.712   8.829   7.970
21369TIP3   OH263983   5.757   8.618   6.318
21369TIP3    H163984   5.729   8.580   6.402
21369TIP3    H263985   5.793   8.544   6.269
21370TIP3   OH263986   6.024   8.684   7.542
21370TIP3    H163987   5.949   8.743   7.546
21370TIP3    H263988   6.075   8.716   7.467
21371TIP3   OH263989   5.858   8.411   6.158
21371TIP3    H163990   5.829   8.415   6.067
21371TIP3    H263991   5.954   8.418   6.152
21372TIP3   OH263992   6.679   8.746   5.817
21372TIP3    H163993   6.658   8.697   5.738
21372TIP3    H263994   6.649   8.835   5.799
21373TIP3   OH263995   6.140   8.469   7.673
21373TIP3    H163996   6.148   8.391   7.618
21373TIP3    H263997   6.104   8.536   7.615
21374TIP3   OH263998   6.151   8.259   7.476
21374TIP3    H163999   6.179   8.299   7.394
21374TIP3    H264000   6.059   8.237   7.461
21375TIP3   OH264001   6.181   8.792   7.350
21375TIP3    H164002   6.262   8.791   7.299
21375TIP3    H264003   6.129   8.862   7.310
21376TIP3   OH264004   6.013   8.588   7.891
21376TIP3    H164005   5.952   8.518   7.914
21376TIP3    H264006   6.055   8.558   7.810
21377TIP3   OH264007   6.281   8.021   7.542
21377TIP3    H164008   6.235   8.103   7.523
21377TIP3    H264009   6.213   7.954   7.534
21378TIP3   OH264010   6.398   8.536   7.758
21378TIP3    H164011   6.418   8.514   7.850
21378TIP3    H264012   6.309   8.506   7.745
21379TIP3   OH264013   6.619   8.488   7.601
21379TIP3    H164014   6.547   8.485   7.664
21379TIP3    H264015   6.689   8.438   7.642
21380TIP3   OH264016   6.803   8.356   7.738
21380TIP3    H164017   6.858   8.285   7.770
21380TIP3    H264018   6.825   8.431   7.793
21381TIP3   OH264019   5.867   8.363   7.955
21381TIP3    H164020   5.872   8.275   7.919
21381TIP3    H264021   5.902   8.354   8.044
21382TIP3   OH264022   6.378   8.027   7.798
21382TIP3    H164023   6.446   7.960   7.797
21382TIP3    H264024   6.338   8.022   7.711
21383TIP3   OH264025   6.429   8.240   7.965
21383TIP3    H164026   6.416   8.170   7.901
21383TIP3    H264027   6.354   8.298   7.953
21384TIP3   OH264028   8.932   0.235   6.060
21384TIP3    H164029   9.026   0.231   6.045
21384TIP3    H264030   8.898   0.284   5.986
21385TIP3   OH264031   5.146   8.856   6.279
21385TIP3    H164032   5.238   8.880   6.267
21385TIP3    H264033   5.138   8.769   6.239
21386TIP3   OH264034   8.323   0.227   6.695
21386TIP3    H164035   8.257   0.168   6.658
21386TIP3    H264036   8.369   0.174   6.760
21387TIP3   OH264037   8.462   0.082   6.882
21387TIP3    H164038   8.451   0.007   6.940
21387TIP3    H264039   8.514   0.144   6.933
21388TIP3   OH264040   6.817   8.932   6.155
21388TIP3    H164041   6.883   8.995   6.127
21388TIP3    H264042   6.853   8.891   6.233
21389TIP3   OH264043   6.938   8.798   6.356
21389TIP3    H164044   6.876   8.759   6.417
21389TIP3    H264045   7.007   8.834   6.412
21390TIP3   OH264046   6.963   9.172   6.781
21390TIP3    H164047   7.046   9.136   6.747
21390TIP3    H264048   6.959   9.261   6.745
21391TIP3   OH264049   6.878   8.708   6.005
21391TIP3    H164050   6.809   8.709   5.938
21391TIP3    H264051   6.855   8.780   6.063
21392TIP3   OH264052   6.752   8.377   5.957
21392TIP3    H164053   6.707   8.420   5.884
21392TIP3    H264054   6.726   8.285   5.949
21393TIP3   OH264055   6.755   8.652   6.503
21393TIP3    H164056   6.769   8.558   6.499
21393TIP3    H264057   6.744   8.670   6.597
21394TIP3   OH264058   5.385   8.729   7.249
21394TIP3    H164059   5.380   8.699   7.159
21394TIP3    H264060   5.478   8.731   7.269
21395TIP3   OH264061   6.692   8.113   5.946
21395TIP3    H164062   6.768   8.086   5.999
21395TIP3    H264063   6.622   8.053   5.973
21396TIP3   OH264064   6.757   8.367   6.395
21396TIP3    H164065   6.797   8.283   6.419
21396TIP3    H264066   6.813   8.401   6.326
21397TIP3   OH264067   6.917   8.546   6.885
21397TIP3    H164068   7.002   8.568   6.846
21397TIP3    H264069   6.921   8.580   6.974
21398TIP3   OH264070   6.975   8.677   7.113
21398TIP3    H164071   6.920   8.708   7.186
21398TIP3    H264072   7.007   8.757   7.071
21399TIP3   OH264073   5.601   8.415   7.926
21399TIP3    H164074   5.697   8.412   7.927
21399TIP3    H264075   5.574   8.332   7.966
21400TIP3   OH264076   6.869   8.113   6.443
21400TIP3    H164077   6.908   8.101   6.530
21400TIP3    H264078   6.808   8.041   6.434
21401TIP3   OH264079   5.563   8.107   7.256
21401TIP3    H164080   5.621   8.031   7.268
21401TIP3    H264081   5.622   8.182   7.251
21402TIP3   OH264082   5.365   8.382   7.328
21402TIP3    H164083   5.412   8.375   7.245
21402TIP3    H264084   5.393   8.466   7.365
21403TIP3   OH264085   7.289   8.409   7.443
21403TIP3    H164086   7.199   8.440   7.437
21403TIP3    H264087   7.284   8.316   7.422
21404TIP3   OH264088   6.945   8.064   6.061
21404TIP3    H164089   6.981   7.989   6.014
21404TIP3    H264090   7.012   8.131   6.054
21405TIP3   OH264091   5.346   7.887   6.830
21405TIP3    H164092   5.254   7.883   6.857
21405TIP3    H264093   5.345   7.943   6.753
21406TIP3   OH264094  -0.024   0.352   6.337
21406TIP3    H164095   0.019   0.332   6.254
21406TIP3    H264096   0.035   0.414   6.380
21407TIP3   OH264097   5.565   7.967   7.646
21407TIP3    H164098   5.519   7.959   7.729
21407TIP3    H264099   5.500   8.002   7.586
21408TIP3   OH264100   8.872   0.155   7.737
21408TIP3    H164101   8.785   0.125   7.709
21408TIP3    H264102   8.877   0.132   7.829
21409TIP3   OH264103   9.052   0.186   7.271
21409TIP3    H164104   9.001   0.258   7.233
21409TIP3    H264105   9.138   0.194   7.229
21410TIP3   OH264106   7.195   8.165   7.362
21410TIP3    H164107   7.104   8.159   7.332
21410TIP3    H264108   7.230   8.076   7.352
21411TIP3   OH264109   8.723   0.443   7.297
21411TIP3    H164110   8.638   0.477   7.268
21411TIP3    H264111   8.731   0.472   7.388
21412TIP3   OH264112   8.956   0.412   7.147
21412TIP3    H164113   8.874   0.428   7.194
21412TIP3    H264114   8.942   0.449   7.060
21413TIP3   OH264115   9.390   0.461   6.952
21413TIP3    H164116   9.324   0.469   6.882
21413TIP3    H264117   9.366   0.528   7.016
21414TIP3   OH264118   9.660   0.402   6.984
21414TIP3    H164119   9.565   0.412   6.982
21414TIP3    H264120   9.689   0.432   6.898
21415TIP3   OH264121   8.641   0.233   7.040
21415TIP3    H164122   8.665   0.210   7.130
21415TIP3    H264123   8.711   0.193   6.987
21416TIP3   OH264124   8.835   0.105   6.895
21416TIP3    H164125   8.849   0.024   6.943
21416TIP3    H264126   8.922   0.145   6.890
21417TIP3   OH264127   9.100   0.200   6.899
21417TIP3    H164128   9.130   0.110   6.885
21417TIP3    H264129   9.141   0.226   6.982
21418TIP3   OH264130   6.398   8.088   6.956
21418TIP3    H164131   6.363   8.033   7.025
21418TIP3    H264132   6.479   8.045   6.929
21419TIP3   OH264133   6.928   8.005   6.908
21419TIP3    H164134   6.973   8.024   6.826
21419TIP3    H264135   6.839   7.981   6.881
21420TIP3   OH264136   7.030   8.099   6.670
21420TIP3    H164137   7.083   8.028   6.633
21420TIP3    H264138   7.073   8.179   6.640
21421TIP3   OH264139   5.657   7.804   7.001
21421TIP3    H164140   5.566   7.775   7.003
21421TIP3    H264141   5.708   7.723   6.999
21422TIP3   OH264142   5.442   7.678   6.649
21422TIP3    H164143   5.473   7.732   6.577
21422TIP3    H264144   5.415   7.740   6.717
21423TIP3   OH264145   6.096   7.844   6.884
21423TIP3    H164146   6.164   7.880   6.826
21423TIP3    H264147   6.120   7.874   6.971
21424TIP3   OH264148   6.633   7.974   6.852
21424TIP3    H164149   6.675   7.933   6.776
21424TIP3    H264150   6.623   7.903   6.915
21425TIP3   OH264151   6.670   7.917   6.421
21425TIP3    H164152   6.582   7.881   6.413
21425TIP3    H264153   6.714   7.858   6.482
21426TIP3   OH264154   8.425   0.008   6.430
21426TIP3    H164155   8.343  -0.028   6.396
21426TIP3    H264156   8.418   0.102   6.415
21427TIP3   OH264157   5.562   7.836   6.412
21427TIP3    H164158   5.607   7.772   6.357
21427TIP3    H264159   5.632   7.889   6.449
21428TIP3   OH264160   6.073   8.014   6.514
21428TIP3    H164161   6.119   7.952   6.570
21428TIP3    H264162   6.104   8.100   6.543
21429TIP3   OH264163   9.201   0.195   6.009
21429TIP3    H164164   9.288   0.220   5.977
21429TIP3    H264165   9.176   0.121   5.953
21430TIP3   OH264166   0.116   0.312   6.102
21430TIP3    H164167   0.109   0.217   6.092
21430TIP3    H264168   0.074   0.347   6.024
21431TIP3   OH264169   5.867   8.086   7.894
21431TIP3    H164170   5.830   8.017   7.949
21431TIP3    H264171   5.959   8.089   7.918
21432TIP3   OH264172   2.848   3.462   0.011
21432TIP3    H164173   2.933   3.441  -0.027
21432TIP3    H264174   2.834   3.394   0.077
21433TIP3   OH264175   8.505   0.032   6.069
21433TIP3    H164176   8.503   0.060   6.161
21433TIP3    H264177   8.592  -0.007   6.058
21434TIP3   OH264178   6.943   8.122   7.794
21434TIP3    H164179   6.956   8.088   7.882
21434TIP3    H264180   7.032   8.128   7.758
21435TIP3   OH264181   7.118   8.576   6.314
21435TIP3    H164182   7.080   8.662   6.333
21435TIP3    H264183   7.046   8.526   6.275
21436TIP3   OH264184   7.178   8.860   6.473
21436TIP3    H164185   7.223   8.789   6.519
21436TIP3    H264186   7.247   8.907   6.427
21437TIP3   OH264187   7.684   8.459   6.486
21437TIP3    H164188   7.673   8.531   6.423
21437TIP3    H264189   7.638   8.385   6.446
21438TIP3   OH264190   8.361   8.522   6.091
21438TIP3    H164191   8.370   8.533   6.185
21438TIP3    H264192   8.401   8.601   6.053
21439TIP3   OH264193   7.325   8.661   6.588
21439TIP3    H164194   7.404   8.647   6.639
21439TIP3    H264195   7.336   8.607   6.510
21440TIP3   OH264196   7.747   8.855   6.381
21440TIP3    H164197   7.842   8.847   6.386
21440TIP3    H264198   7.717   8.768   6.353
21441TIP3   OH264199   7.658   8.423   6.898
21441TIP3    H164200   7.621   8.474   6.826
21441TIP3    H264201   7.622   8.463   6.977
21442TIP3   OH264202   7.559   8.579   6.699
21442TIP3    H164203   7.611   8.654   6.726
21442TIP3    H264204   7.611   8.537   6.630
21443TIP3   OH264205   7.020   9.100   6.047
21443TIP3    H164206   6.975   9.126   5.966
21443TIP3    H264207   7.050   9.183   6.085
21444TIP3   OH264208   8.037   8.159   6.615
21444TIP3    H164209   8.037   8.069   6.648
21444TIP3    H264210   7.974   8.205   6.671
21445TIP3   OH264211   7.953   8.896   5.862
21445TIP3    H164212   7.889   8.967   5.855
21445TIP3    H264213   8.025   8.923   5.805
21446TIP3   OH264214   7.931   8.707   5.600
21446TIP3    H164215   7.982   8.750   5.669
21446TIP3    H264216   7.993   8.647   5.559
21447TIP3   OH264217   7.567   9.015   6.264
21447TIP3    H164218   7.516   8.956   6.208
21447TIP3    H264219   7.632   8.957   6.306
21448TIP3   OH264220   8.181   8.873   5.689
21448TIP3    H164221   8.236   8.938   5.734
21448TIP3    H264222   8.195   8.890   5.596
21449TIP3   OH264223   8.673   8.108   5.729
21449TIP3    H164224   8.596   8.122   5.784
21449TIP3    H264225   8.684   8.190   5.682
21450TIP3   OH264226   7.420   8.850   6.083
21450TIP3    H164227   7.354   8.891   6.027
21450TIP3    H264228   7.386   8.763   6.102
21451TIP3   OH264229   0.686   0.395   6.167
21451TIP3    H164230   0.704   0.408   6.260
21451TIP3    H264231   0.616   0.329   6.164
21452TIP3   OH264232   1.462   0.449   5.409
21452TIP3    H164233   1.514   0.383   5.362
21452TIP3    H264234   1.495   0.445   5.499
21453TIP3   OH264235   7.809   8.234   6.761
21453TIP3    H164236   7.719   8.206   6.743
21453TIP3    H264237   7.799   8.318   6.804
21454TIP3   OH264238   8.240   8.919   5.428
21454TIP3    H164239   8.203   8.886   5.346
21454TIP3    H264240   8.325   8.954   5.404
21455TIP3   OH264241   7.950   8.284   5.735
21455TIP3    H164242   7.923   8.284   5.827
21455TIP3    H264243   7.915   8.203   5.700
21456TIP3   OH264244   7.617   8.631   6.290
21456TIP3    H164245   7.527   8.607   6.312
21456TIP3    H264246   7.633   8.591   6.205
21457TIP3   OH264247   8.100   8.711   6.006
21457TIP3    H164248   8.046   8.780   5.968
21457TIP3    H264249   8.150   8.676   5.932
21458TIP3   OH264250   7.605   8.259   5.701
21458TIP3    H164251   7.602   8.253   5.796
21458TIP3    H264252   7.527   8.309   5.677
21459TIP3   OH264253   7.166   8.300   6.560
21459TIP3    H164254   7.222   8.341   6.626
21459TIP3    H264255   7.220   8.296   6.482
21460TIP3   OH264256   7.129   8.291   6.094
21460TIP3    H164257   7.175   8.322   6.016
21460TIP3    H264258   7.066   8.360   6.114
21461TIP3   OH264259   7.937   8.465   6.359
21461TIP3    H164260   7.865   8.460   6.422
21461TIP3    H264261   8.016   8.461   6.412
21462TIP3   OH264262   7.381   8.513   6.364
21462TIP3    H164263   7.290   8.520   6.335
21462TIP3    H264264   7.407   8.425   6.336
21463TIP3   OH264265   7.649   8.506   6.051
21463TIP3    H164266   7.743   8.521   6.040
21463TIP3    H264267   7.610   8.534   5.968
21464TIP3   OH264268   7.491   8.547   5.827
21464TIP3    H164269   7.420   8.501   5.782
21464TIP3    H264270   7.545   8.582   5.756
21465TIP3   OH264271   7.552   8.275   6.329
21465TIP3    H164272   7.527   8.192   6.370
21465TIP3    H264273   7.618   8.250   6.264
21466TIP3   OH264274   7.741   9.081   5.837
21466TIP3    H164275   7.675   9.012   5.827
21466TIP3    H264276   7.731   9.111   5.927
21467TIP3   OH264277   8.198   8.394   5.686
21467TIP3    H164278   8.106   8.375   5.703
21467TIP3    H264279   8.211   8.482   5.720
21468TIP3   OH264280   8.269   8.633   5.794
21468TIP3    H164281   8.364   8.630   5.809
21468TIP3    H264282   8.256   8.716   5.748
21469TIP3   OH264283   7.422   9.032   6.497
21469TIP3    H164284   7.468   9.049   6.415
21469TIP3    H264285   7.489   8.992   6.554
21470TIP3   OH264286   7.878   9.224   5.639
21470TIP3    H164287   7.853   9.312   5.666
21470TIP3    H264288   7.843   9.167   5.708
21471TIP3   OH264289   8.718   8.714   5.619
21471TIP3    H164290   8.651   8.662   5.574
21471TIP3    H264291   8.716   8.799   5.575
21472TIP3   OH264292   1.005   0.153   6.156
21472TIP3    H164293   1.042   0.230   6.113
21472TIP3    H264294   0.912   0.156   6.134
21473TIP3   OH264295   7.100   8.707   5.842
21473TIP3    H164296   7.148   8.787   5.862
21473TIP3    H264297   7.026   8.708   5.902
21474TIP3   OH264298   7.701   9.175   6.092
21474TIP3    H164299   7.651   9.256   6.106
21474TIP3    H264300   7.657   9.110   6.147
21475TIP3   OH264301   0.860   0.430   5.955
21475TIP3    H164302   0.792   0.425   6.022
21475TIP3    H264303   0.942   0.425   6.003
21476TIP3   OH264304   1.630   0.031   5.449
21476TIP3    H164305   1.676   0.010   5.530
21476TIP3    H264306   1.539   0.006   5.466
21477TIP3   OH264307   7.468   8.506   7.101
21477TIP3    H164308   7.377   8.514   7.130
21477TIP3    H264309   7.508   8.445   7.162
21478TIP3   OH264310   7.537   9.249   5.450
21478TIP3    H164311   7.552   9.159   5.420
21478TIP3    H264312   7.517   9.240   5.543
21479TIP3   OH264313   0.951   0.019   5.721
21479TIP3    H164314   1.026  -0.014   5.770
21479TIP3    H264315   0.954   0.114   5.732
21480TIP3   OH264316   7.217   8.953   5.924
21480TIP3    H164317   7.152   8.992   5.983
21480TIP3    H264318   7.232   9.019   5.857
21481TIP3   OH264319   8.241   8.319   5.963
21481TIP3    H164320   8.227   8.348   5.872
21481TIP3    H264321   8.281   8.395   6.006
21482TIP3   OH264322   1.212   0.230   5.683
21482TIP3    H164323   1.120   0.247   5.702
21482TIP3    H264324   1.236   0.296   5.618
21483TIP3   OH264325   7.927   8.513   6.087
21483TIP3    H164326   7.991   8.580   6.066
21483TIP3    H264327   7.933   8.502   6.182
21484TIP3   OH264328   8.079   8.243   6.185
21484TIP3    H164329   8.091   8.304   6.258
21484TIP3    H264330   8.136   8.277   6.116
21485TIP3   OH264331   0.951   0.297   5.736
21485TIP3    H164332   0.931   0.357   5.665
21485TIP3    H264333   0.913   0.338   5.814
21486TIP3   OH264334   7.596   8.243   5.977
21486TIP3    H164335   7.589   8.332   6.012
21486TIP3    H264336   7.689   8.221   5.984
21487TIP3   OH264337   7.212   9.160   5.729
21487TIP3    H164338   7.272   9.234   5.741
21487TIP3    H264339   7.255   9.105   5.663
21488TIP3   OH264340   7.151   8.436   5.865
21488TIP3    H164341   7.155   8.532   5.860
21488TIP3    H264342   7.068   8.413   5.824
21489TIP3   OH264343   7.539   8.152   6.737
21489TIP3    H164344   7.513   8.115   6.653
21489TIP3    H264345   7.537   8.078   6.798
21490TIP3   OH264346   0.546   0.128   6.115
21490TIP3    H164347   0.480   0.159   6.178
21490TIP3    H264348   0.522   0.171   6.033
21491TIP3   OH264349   1.169   0.208   5.362
21491TIP3    H164350   1.109   0.145   5.401
21491TIP3    H264351   1.242   0.155   5.331
21492TIP3   OH264352   1.603   0.259   5.276
21492TIP3    H164353   1.639   0.187   5.328
21492TIP3    H264354   1.650   0.253   5.192
21493TIP3   OH264355   7.349   8.972   5.582
21493TIP3    H164356   7.397   8.938   5.657
21493TIP3    H264357   7.414   8.977   5.512
21494TIP3   OH264358   7.851   9.165   5.378
21494TIP3    H164359   7.849   9.185   5.472
21494TIP3    H264360   7.851   9.070   5.375
21495TIP3   OH264361   7.554   8.875   5.806
21495TIP3    H164362   7.527   8.836   5.889
21495TIP3    H264363   7.590   8.802   5.756
21496TIP3   OH264364   7.654   8.670   5.643
21496TIP3    H164365   7.626   8.672   5.552
21496TIP3    H264366   7.749   8.676   5.640
21497TIP3   OH264367   8.468   9.004   5.300
21497TIP3    H164368   8.448   8.954   5.221
21497TIP3    H264369   8.442   9.094   5.278
21498TIP3   OH264370   0.931   0.495   5.549
21498TIP3    H164371   1.026   0.490   5.536
21498TIP3    H264372   0.899   0.540   5.471
21499TIP3   OH264373   6.942   9.114   5.763
21499TIP3    H164374   7.034   9.137   5.753
21499TIP3    H264375   6.935   9.026   5.726
21500TIP3   OH264376   0.314   0.484   6.179
21500TIP3    H164377   0.248   0.424   6.144
21500TIP3    H264378   0.366   0.430   6.239
21501TIP3   OH264379   0.466   0.344   6.358
21501TIP3    H164380   0.449   0.278   6.425
21501TIP3    H264381   0.455   0.428   6.403
21502TIP3   OH264382   8.671   8.939   5.475
21502TIP3    H164383   8.600   8.959   5.414
21502TIP3    H264384   8.677   9.016   5.531
21503TIP3   OH264385   8.536   8.633   5.437
21503TIP3    H164386   8.494   8.671   5.360
21503TIP3    H264387   8.512   8.540   5.433
21504TIP3   OH264388   7.179   8.978   6.737
21504TIP3    H164389   7.181   8.953   6.644
21504TIP3    H264390   7.258   9.031   6.748
21505TIP3   OH264391   8.479   8.370   5.421
21505TIP3    H164392   8.558   8.344   5.469
21505TIP3    H264393   8.411   8.312   5.454
21506TIP3   OH264394   8.543   8.619   5.840
21506TIP3    H164395   8.573   8.535   5.875
21506TIP3    H264396   8.621   8.657   5.800
21507TIP3   OH264397   8.644   8.383   5.952
21507TIP3    H164398   8.726   8.349   5.987
21507TIP3    H264399   8.589   8.306   5.939
21508TIP3   OH264400   7.362   8.366   6.736
21508TIP3    H164401   7.425   8.296   6.755
21508TIP3    H264402   7.414   8.447   6.743
21509TIP3   OH264403   7.162   8.635   6.814
21509TIP3    H164404   7.212   8.641   6.733
21509TIP3    H264405   7.172   8.720   6.856
21510TIP3   OH264406   8.724   8.313   5.530
21510TIP3    H164407   8.762   8.234   5.492
21510TIP3    H264408   8.798   8.360   5.568
21511TIP3   OH264409   7.134   8.122   6.304
21511TIP3    H164410   7.049   8.144   6.343
21511TIP3    H264411   7.145   8.185   6.233
21512TIP3   OH264412   7.355   8.207   7.131
21512TIP3    H164413   7.303   8.202   7.212
21512TIP3    H264414   7.297   8.252   7.068
21513TIP3   OH264415   8.180   8.352   6.444
21513TIP3    H164416   8.145   8.297   6.513
21513TIP3    H264417   8.260   8.308   6.415
21514TIP3   OH264418   7.436   8.042   6.470
21514TIP3    H164419   7.368   8.016   6.532
21514TIP3    H264420   7.502   7.973   6.476
21515TIP3   OH264421   7.894   8.100   6.375
21515TIP3    H164422   7.947   8.147   6.312
21515TIP3    H264423   7.926   8.128   6.460
21516TIP3   OH264424   8.398   8.227   6.338
21516TIP3    H164425   8.438   8.196   6.257
21516TIP3    H264426   8.418   8.160   6.403
21517TIP3   OH264427   8.472   8.164   5.915
21517TIP3    H164428   8.387   8.207   5.924
21517TIP3    H264429   8.462   8.081   5.962
21518TIP3   OH264430   0.423   0.266   5.919
21518TIP3    H164431   0.340   0.232   5.884
21518TIP3    H264432   0.418   0.360   5.901
21519TIP3   OH264433   7.362   8.103   5.887
21519TIP3    H164434   7.407   8.033   5.840
21519TIP3    H264435   7.431   8.150   5.933
21520TIP3   OH264436   7.872   8.263   6.001
21520TIP3    H164437   7.932   8.215   6.059
21520TIP3    H264438   7.884   8.355   6.023
21521TIP3   OH264439   1.194   0.450   5.487
21521TIP3    H164440   1.281   0.479   5.460
21521TIP3    H264441   1.176   0.375   5.432
21522TIP3   OH264442   0.501   0.289   5.556
21522TIP3    H164443   0.494   0.319   5.646
21522TIP3    H264444   0.589   0.251   5.550
21523TIP3   OH264445   9.410   8.542   5.190
21523TIP3    H164446   9.394   8.486   5.266
21523TIP3    H264447   9.324   8.574   5.164
21524TIP3   OH264448   8.957   8.572   5.582
21524TIP3    H164449   8.976   8.597   5.492
21524TIP3    H264450   8.876   8.619   5.603
21525TIP3   OH264451   8.942   8.693   5.342
21525TIP3    H164452   8.941   8.787   5.364
21525TIP3    H264453   8.851   8.674   5.316
21526TIP3   OH264454   8.900   8.362   5.740
21526TIP3    H164455   8.857   8.396   5.818
21526TIP3    H264456   8.939   8.440   5.699
21527TIP3   OH264457   9.038   8.171   5.604
21527TIP3    H164458   9.063   8.230   5.533
21527TIP3    H264459   8.992   8.228   5.666
21528TIP3   OH264460   9.146   8.348   5.375
21528TIP3    H164461   9.193   8.282   5.325
21528TIP3    H264462   9.210   8.380   5.439
21529TIP3   OH264463   1.211   9.085   7.268
21529TIP3    H164464   1.239   9.020   7.204
21529TIP3    H264465   1.238   9.169   7.229
21530TIP3   OH264466   6.536   0.430   7.663
21530TIP3    H164467   6.447   0.466   7.659
21530TIP3    H264468   6.570   0.442   7.574
21531TIP3   OH264469   5.903   0.325   7.279
21531TIP3    H164470   5.966   0.326   7.351
21531TIP3    H264471   5.926   0.401   7.226
21532TIP3   OH264472   6.112   0.352   7.453
21532TIP3    H164473   6.110   0.297   7.531
21532TIP3    H264474   6.195   0.401   7.460
21533TIP3   OH264475   5.452   0.483   6.813
21533TIP3    H164476   5.505   0.558   6.838
21533TIP3    H264477   5.501   0.441   6.742
21534TIP3   OH264478   2.928   9.152   6.914
21534TIP3    H164479   2.847   9.168   6.963
21534TIP3    H264480   2.941   9.231   6.863
21535TIP3   OH264481   5.467   0.087   6.910
21535TIP3    H164482   5.442   0.085   7.002
21535TIP3    H264483   5.430   0.007   6.873
21536TIP3   OH264484   5.641   0.509   7.132
21536TIP3    H164485   5.590   0.577   7.087
21536TIP3    H264486   5.709   0.485   7.068
21537TIP3   OH264487   5.125   0.064   6.870
21537TIP3    H164488   5.124   0.053   6.965
21537TIP3    H264489   5.048   0.117   6.851
21538TIP3   OH264490   5.207   0.264   7.144
21538TIP3    H164491   5.283   0.319   7.125
21538TIP3    H264492   5.137   0.302   7.092
21539TIP3   OH264493   4.984   0.336   7.003
21539TIP3    H164494   4.929   0.302   6.932
21539TIP3    H264495   5.025   0.414   6.966
21540TIP3   OH264496   5.015   0.011   7.425
21540TIP3    H164497   4.995   0.028   7.517
21540TIP3    H264498   5.103   0.045   7.413
21541TIP3   OH264499   5.717   0.198   6.874
21541TIP3    H164500   5.624   0.181   6.886
21541TIP3    H264501   5.727   0.292   6.888
21542TIP3   OH264502   5.814   0.458   6.931
21542TIP3    H164503   5.899   0.441   6.973
21542TIP3    H264504   5.827   0.542   6.887
21543TIP3   OH264505   6.223   0.522   6.822
21543TIP3    H164506   6.163   0.480   6.761
21543TIP3    H264507   6.242   0.607   6.783
21544TIP3   OH264508   5.761   0.132   7.150
21544TIP3    H164509   5.747   0.162   7.060
21544TIP3    H264510   5.804   0.206   7.193
21545TIP3   OH264511   5.471   0.322   7.251
21545TIP3    H164512   5.533   0.378   7.204
21545TIP3    H264513   5.467   0.360   7.339
21546TIP3   OH264514   5.601   0.044   7.365
21546TIP3    H164515   5.628   0.089   7.445
21546TIP3    H264516   5.648   0.089   7.295
21547TIP3   OH264517   5.112   0.007   7.136
21547TIP3    H164518   5.098   0.096   7.169
21547TIP3    H264519   5.206  -0.008   7.150
21548TIP3   OH264520   5.166   0.482   6.858
21548TIP3    H164521   5.136   0.431   6.783
21548TIP3    H264522   5.262   0.478   6.853
21549TIP3   OH264523   6.055   0.446   6.620
21549TIP3    H164524   6.040   0.468   6.528
21549TIP3    H264525   6.034   0.353   6.626
21550TIP3   OH264526   6.083   0.695   7.181
21550TIP3    H164527   6.089   0.600   7.172
21550TIP3    H264528   6.092   0.711   7.274
21551TIP3   OH264529   6.004   0.183   6.617
21551TIP3    H164530   6.080   0.147   6.664
21551TIP3    H264531   5.934   0.120   6.634
21552TIP3   OH264532   6.065   0.430   7.053
21552TIP3    H164533   6.094   0.342   7.078
21552TIP3    H264534   6.127   0.458   6.986
21553TIP3   OH264535   6.173   0.180   7.100
21553TIP3    H164536   6.217   0.168   7.185
21553TIP3    H264537   6.109   0.109   7.097
21554TIP3   OH264538   6.256   0.118   6.731
21554TIP3    H164539   6.292   0.046   6.679
21554TIP3    H264540   6.323   0.186   6.726
21555TIP3   OH264541   5.710   0.120   7.611
21555TIP3    H164542   5.701   0.112   7.706
21555TIP3    H264543   5.804   0.124   7.595
21556TIP3   OH264544   6.249   0.044   7.559
21556TIP3    H164545   6.280   0.093   7.482
21556TIP3    H264546   6.154   0.049   7.554
21557TIP3   OH264547   6.340   0.144   7.319
21557TIP3    H164548   6.407   0.089   7.277
21557TIP3    H264549   6.369   0.233   7.304
21558TIP3   OH264550   1.493   8.955   7.288
21558TIP3    H164551   1.521   9.005   7.211
21558TIP3    H264552   1.465   9.021   7.351
21559TIP3   OH264553   2.166   9.095   7.520
21559TIP3    H164554   2.218   9.149   7.461
21559TIP3    H264555   2.141   9.154   7.591
21560TIP3   OH264556   2.708   9.272   7.541
21560TIP3    H164557   2.682   9.245   7.452
21560TIP3    H264558   2.700   9.192   7.593
21561TIP3   OH264559   2.720   9.208   7.094
21561TIP3    H164560   2.636   9.253   7.104
21561TIP3    H264561   2.707   9.124   7.138
21562TIP3   OH264562   1.601   9.122   7.078
21562TIP3    H164563   1.645   9.065   7.015
21562TIP3    H264564   1.672   9.174   7.116
21563TIP3   OH264565   5.399   0.050   7.177
21563TIP3    H164566   5.463   0.028   7.245
21563TIP3    H264567   5.382   0.144   7.190
21564TIP3   OH264568   6.432   0.648   6.979
21564TIP3    H164569   6.395   0.727   7.018
21564TIP3    H264570   6.355   0.594   6.958
21565TIP3   OH264571   8.264   0.677   7.146
21565TIP3    H164572   8.291   0.756   7.193
21565TIP3    H264573   8.288   0.694   7.055
21566TIP3   OH264574   7.648   0.844   7.182
21566TIP3    H164575   7.705   0.768   7.198
21566TIP3    H264576   7.622   0.835   7.090
21567TIP3   OH264577   7.001   0.518   7.148
21567TIP3    H164578   6.986   0.593   7.090
21567TIP3    H264579   6.957   0.445   7.105
21568TIP3   OH264580   7.700   0.608   6.775
21568TIP3    H164581   7.770   0.594   6.839
21568TIP3    H264582   7.745   0.642   6.697
21569TIP3   OH264583   6.639   0.712   7.258
21569TIP3    H164584   6.722   0.690   7.300
21569TIP3    H264585   6.646   0.674   7.170
21570TIP3   OH264586   7.087   0.907   7.066
21570TIP3    H164587   7.173   0.867   7.071
21570TIP3    H264588   7.035   0.846   7.014
21571TIP3   OH264589   8.343   0.874   7.328
21571TIP3    H164590   8.269   0.925   7.294
21571TIP3    H264591   8.376   0.925   7.401
21572TIP3   OH264592   7.010   0.499   7.588
21572TIP3    H164593   6.954   0.541   7.523
21572TIP3    H264594   6.959   0.501   7.669
21573TIP3   OH264595   7.909   0.615   6.946
21573TIP3    H164596   7.926   0.557   7.020
21573TIP3    H264597   7.959   0.694   6.965
21574TIP3   OH264598   6.876   0.613   7.371
21574TIP3    H164599   6.932   0.688   7.391
21574TIP3    H264600   6.918   0.571   7.296
21575TIP3   OH264601   8.061   0.575   7.309
21575TIP3    H164602   7.979   0.617   7.283
21575TIP3    H264603   8.125   0.606   7.245
21576TIP3   OH264604   7.357   0.221   7.304
21576TIP3    H164605   7.346   0.127   7.312
21576TIP3    H264606   7.279   0.258   7.345
21577TIP3   OH264607   7.246   0.744   6.299
21577TIP3    H164608   7.301   0.809   6.343
21577TIP3    H264609   7.306   0.700   6.238
21578TIP3   OH264610   7.897   1.092   7.421
21578TIP3    H164611   7.915   1.186   7.409
21578TIP3    H264612   7.803   1.084   7.407
21579TIP3   OH264613   7.989   0.168   6.398
21579TIP3    H164614   7.910   0.184   6.449
21579TIP3    H264615   8.004   0.248   6.349
21580TIP3   OH264616   8.117   1.061   7.605
21580TIP3    H164617   8.037   1.058   7.553
21580TIP3    H264618   8.142   0.969   7.617
21581TIP3   OH264619   7.117   0.303   7.427
21581TIP3    H164620   7.032   0.269   7.399
21581TIP3    H264621   7.096   0.383   7.475
21582TIP3   OH264622   7.886   0.829   7.530
21582TIP3    H164623   7.845   0.829   7.616
21582TIP3    H264624   7.877   0.920   7.499
21583TIP3   OH264625   7.265   0.342   6.397
21583TIP3    H164626   7.232   0.346   6.487
21583TIP3    H264627   7.228   0.261   6.362
21584TIP3   OH264628   7.043   0.818   7.437
21584TIP3    H164629   7.018   0.865   7.517
21584TIP3    H264630   7.064   0.887   7.375
21585TIP3   OH264631   6.934   0.694   6.957
21585TIP3    H164632   6.843   0.671   6.973
21585TIP3    H264633   6.952   0.661   6.869
21586TIP3   OH264634   7.433   0.785   6.685
21586TIP3    H164635   7.356   0.837   6.664
21586TIP3    H264636   7.476   0.771   6.601
21587TIP3   OH264637   7.568   0.800   6.922
21587TIP3    H164638   7.513   0.825   6.847
21587TIP3    H264639   7.616   0.723   6.892
21588TIP3   OH264640   6.919   0.318   6.366
21588TIP3    H164641   6.914   0.319   6.462
21588TIP3    H264642   6.845   0.371   6.337
21589TIP3   OH264643   6.459   0.365   7.232
21589TIP3    H164644   6.533   0.398   7.282
21589TIP3    H264645   6.497   0.335   7.150
21590TIP3   OH264646   6.438   0.343   6.755
21590TIP3    H164647   6.483   0.377   6.678
21590TIP3    H264648   6.378   0.414   6.780
21591TIP3   OH264649   7.633   1.035   7.367
21591TIP3    H164650   7.636   0.971   7.295
21591TIP3    H264651   7.554   1.012   7.416
21592TIP3   OH264652   7.260   0.508   7.020
21592TIP3    H164653   7.175   0.512   7.064
21592TIP3    H264654   7.320   0.552   7.081
21593TIP3   OH264655   6.694   0.577   7.023
21593TIP3    H164656   6.602   0.583   6.996
21593TIP3    H264657   6.720   0.488   6.999
21594TIP3   OH264658   6.970   0.574   6.715
21594TIP3    H164659   7.060   0.594   6.690
21594TIP3    H264660   6.918   0.597   6.638
21595TIP3   OH264661   7.756   0.593   7.223
21595TIP3    H164662   7.730   0.566   7.312
21595TIP3    H264663   7.707   0.534   7.166
21596TIP3   OH264664   6.791   0.583   6.498
21596TIP3    H164665   6.731   0.550   6.431
21596TIP3    H264666   6.837   0.655   6.456
21597TIP3   OH264667   7.347   0.802   7.112
21597TIP3    H164668   7.420   0.806   7.050
21597TIP3    H264669   7.368   0.868   7.178
21598TIP3   OH264670   6.870   0.339   6.993
21598TIP3    H164671   6.841   0.257   7.034
21598TIP3    H264672   6.915   0.310   6.913
21599TIP3   OH264673   7.513   0.459   6.365
21599TIP3    H164674   7.419   0.439   6.373
21599TIP3    H264675   7.519   0.553   6.385
21600TIP3   OH264676   7.587   0.721   6.451
21600TIP3    H164677   7.676   0.704   6.482
21600TIP3    H264678   7.593   0.805   6.407
21601TIP3   OH264679   8.022   0.780   6.307
21601TIP3    H164680   7.961   0.739   6.245
21601TIP3    H264681   8.028   0.871   6.278
21602TIP3   OH264682   7.557   0.402   6.644
21602TIP3    H164683   7.543   0.424   6.551
21602TIP3    H264684   7.596   0.481   6.681
21603TIP3   OH264685   7.258   0.578   6.747
21603TIP3    H164686   7.322   0.646   6.728
21603TIP3    H264687   7.255   0.573   6.843
21604TIP3   OH264688   7.542   0.817   7.583
21604TIP3    H164689   7.512   0.904   7.609
21604TIP3    H264690   7.634   0.814   7.609
21605TIP3   OH264691   7.393   0.310   6.851
21605TIP3    H164692   7.369   0.387   6.903
21605TIP3    H264693   7.453   0.344   6.785
21606TIP3   OH264694   6.905   0.306   6.644
21606TIP3    H164695   6.899   0.398   6.668
21606TIP3    H264696   6.998   0.286   6.649
21607TIP3   OH264697   8.154   0.791   7.543
21607TIP3    H164698   8.058   0.784   7.537
21607TIP3    H264699   8.184   0.778   7.453
21608TIP3   OH264700   7.796   0.977   6.910
21608TIP3    H164701   7.732   0.911   6.935
21608TIP3    H264702   7.874   0.956   6.961
21609TIP3   OH264703   6.452   0.502   6.537
21609TIP3    H164704   6.482   0.590   6.514
21609TIP3    H264705   6.382   0.483   6.475
21610TIP3   OH264706   6.855   0.212   7.404
21610TIP3    H164707   6.826   0.188   7.316
21610TIP3    H264708   6.839   0.134   7.457
21611TIP3   OH264709   6.950   0.740   6.344
21611TIP3    H164710   6.925   0.690   6.265
21611TIP3    H264711   7.046   0.743   6.340
21612TIP3   OH264712   7.270   0.719   7.797
21612TIP3    H164713   7.181   0.686   7.806
21612TIP3    H264714   7.259   0.813   7.784
21613TIP3   OH264715   7.369   0.374   7.668
21613TIP3    H164716   7.290   0.413   7.705
21613TIP3    H264717   7.348   0.282   7.657
21614TIP3   OH264718   7.754   0.789   7.773
21614TIP3    H164719   7.690   0.782   7.845
21614TIP3    H264720   7.838   0.769   7.814
21615TIP3   OH264721   7.974   0.739   7.935
21615TIP3    H164722   7.989   0.645   7.941
21615TIP3    H264723   7.987   0.772   8.024
21616TIP3   OH264724   7.491   0.347   7.944
21616TIP3    H164725   7.554   0.275   7.950
21616TIP3    H264726   7.457   0.341   7.854
21617TIP3   OH264727   1.124   5.181   0.007
21617TIP3    H164728   1.090   5.098  -0.027
21617TIP3    H264729   1.049   5.222   0.050
21618TIP3   OH264730   7.854   0.701   6.107
21618TIP3    H164731   7.832   0.729   6.018
21618TIP3    H264732   7.833   0.607   6.108
21619TIP3   OH264733   7.889   0.954   6.658
21619TIP3    H164734   7.895   0.858   6.667
21619TIP3    H264735   7.869   0.985   6.746
21620TIP3   OH264736   8.303   1.237   7.518
21620TIP3    H164737   8.243   1.179   7.566
21620TIP3    H264738   8.390   1.200   7.534
21621TIP3   OH264739   7.801   0.436   6.099
21621TIP3    H164740   7.877   0.404   6.147
21621TIP3    H264741   7.730   0.375   6.122
21622TIP3   OH264742   7.851   0.677   6.549
21622TIP3    H164743   7.893   0.592   6.563
21622TIP3    H264744   7.908   0.722   6.486
21623TIP3   OH264745   8.021   0.864   7.036
21623TIP3    H164746   8.101   0.887   6.989
21623TIP3    H264747   8.034   0.899   7.124
21624TIP3   OH264748   8.101   0.994   7.263
21624TIP3    H164749   8.025   1.023   7.313
21624TIP3    H264750   8.150   1.074   7.244
21625TIP3   OH264751   8.534   0.575   7.828
21625TIP3    H164752   8.596   0.525   7.775
21625TIP3    H264753   8.516   0.653   7.776
21626TIP3   OH264754   7.970   0.435   6.590
21626TIP3    H164755   8.020   0.422   6.670
21626TIP3    H264756   7.910   0.360   6.587
21627TIP3   OH264757   6.672   0.421   7.405
21627TIP3    H164758   6.737   0.350   7.411
21627TIP3    H264759   6.724   0.500   7.397
21628TIP3   OH264760   6.535   0.706   7.512
21628TIP3    H164761   6.551   0.688   7.420
21628TIP3    H264762   6.507   0.798   7.514
21629TIP3   OH264763   8.392   0.738   7.653
21629TIP3    H164764   8.302   0.771   7.642
21629TIP3    H264765   8.397   0.662   7.595
21630TIP3   OH264766   8.050   0.375   6.216
21630TIP3    H164767   8.090   0.303   6.168
21630TIP3    H264768   8.117   0.444   6.215
21631TIP3   OH264769   6.452   0.203   6.985
21631TIP3    H164770   6.359   0.198   7.007
21631TIP3    H264771   6.455   0.257   6.906
21632TIP3   OH264772   6.678   0.240   7.789
21632TIP3    H164773   6.629   0.223   7.870
21632TIP3    H264774   6.632   0.311   7.746
21633TIP3   OH264775   8.311   0.498   7.518
21633TIP3    H164776   8.222   0.496   7.482
21633TIP3    H264777   8.343   0.408   7.505
21634TIP3   OH264778   7.531   0.416   7.160
21634TIP3    H164779   7.473   0.345   7.190
21634TIP3    H264780   7.587   0.374   7.095
21635TIP3   OH264781   8.038   0.299   7.043
21635TIP3    H164782   8.078   0.346   6.969
21635TIP3    H264783   7.944   0.314   7.033
21636TIP3   OH264784   8.137   0.397   6.805
21636TIP3    H164785   8.205   0.342   6.767
21636TIP3    H264786   8.167   0.486   6.792
21637TIP3   OH264787   6.764   0.127   7.158
21637TIP3    H164788   6.672   0.101   7.147
21637TIP3    H264789   6.813   0.045   7.149
21638TIP3   OH264790   6.559  -0.006   6.804
21638TIP3    H164791   6.587   0.046   6.728
21638TIP3    H264792   6.524   0.059   6.866
21639TIP3   OH264793   7.210   0.158   7.034
21639TIP3    H164794   7.263   0.204   6.969
21639TIP3    H264795   7.229   0.201   7.117
21640TIP3   OH264796   7.753   0.303   7.017
21640TIP3    H164797   7.755   0.268   6.928
21640TIP3    H264798   7.741   0.225   7.072
21641TIP3   OH264799   7.784   0.224   6.580
21641TIP3    H164800   7.698   0.267   6.588
21641TIP3    H264801   7.772   0.140   6.625
21642TIP3   OH264802   6.671   0.152   6.566
21642TIP3    H164803   6.716   0.090   6.508
21642TIP3    H264804   6.741   0.208   6.600
21643TIP3   OH264805   7.181   0.331   6.664
21643TIP3    H164806   7.241   0.280   6.718
21643TIP3    H264807   7.200   0.422   6.686
21644TIP3   OH264808   0.388   4.930   0.006
21644TIP3    H164809   0.394   4.879   0.087
21644TIP3    H264810   0.435   5.012   0.026
21645TIP3   OH264811   0.709   4.953   0.116
21645TIP3    H164812   0.789   4.918   0.077
21645TIP3    H264813   0.714   4.929   0.208
21646TIP3   OH264814   8.048   0.474   7.944
21646TIP3    H164815   8.065   0.438   8.031
21646TIP3    H264816   8.132   0.468   7.899
21647TIP3   OH264817   8.228   0.906   6.466
21647TIP3    H164818   8.194   0.988   6.502
21647TIP3    H264819   8.151   0.854   6.446
21648TIP3   OH264820   9.406   1.118   6.668
21648TIP3    H164821   9.478   1.062   6.696
21648TIP3    H264822   9.409   1.115   6.572
21649TIP3   OH264823   8.799   0.774   6.632
21649TIP3    H164824   8.782   0.849   6.575
21649TIP3    H264825   8.751   0.702   6.592
21650TIP3   OH264826   9.498   0.860   6.259
21650TIP3    H164827   9.566   0.849   6.326
21650TIP3    H264828   9.544   0.898   6.184
21651TIP3   OH264829   8.424   0.953   6.754
21651TIP3    H164830   8.512   0.955   6.792
21651TIP3    H264831   8.438   0.927   6.663
21652TIP3   OH264832   8.892   1.176   6.517
21652TIP3    H164833   8.973   1.134   6.548
21652TIP3    H264834   8.836   1.103   6.490
21653TIP3   OH264835   8.791   0.759   7.075
21653TIP3    H164836   8.738   0.794   7.003
21653TIP3    H264837   8.742   0.780   7.154
21654TIP3   OH264838   9.712   0.874   6.432
21654TIP3    H164839   9.692   0.800   6.490
21654TIP3    H264840   9.794   0.910   6.467
21655TIP3   OH264841   8.673   0.871   6.855
21655TIP3    H164842   8.726   0.948   6.876
21655TIP3    H264843   8.718   0.831   6.781
21656TIP3   OH264844   9.153   0.476   6.786
21656TIP3    H164845   9.140   0.383   6.800
21656TIP3    H264846   9.081   0.518   6.831
21657TIP3   OH264847   9.040   0.990   5.789
21657TIP3    H164848   9.083   1.067   5.825
21657TIP3    H264849   9.099   0.961   5.719
21658TIP3   OH264850   9.785   0.424   5.884
21658TIP3    H164851   9.706   0.440   5.936
21658TIP3    H264852   9.799   0.506   5.837
21659TIP3   OH264853   8.912   0.554   6.913
21659TIP3    H164854   8.825   0.523   6.887
21659TIP3    H264855   8.896   0.637   6.958
21660TIP3   OH264856   9.062   0.599   5.885
21660TIP3    H164857   9.031   0.604   5.975
21660TIP3    H264858   9.023   0.518   5.851
21661TIP3   OH264859   8.841   1.079   6.924
21661TIP3    H164860   8.795   1.088   7.008
21661TIP3    H264861   8.835   1.166   6.884
21662TIP3   OH264862   8.730   0.953   6.444
21662TIP3    H164863   8.639   0.931   6.462
21662TIP3    H264864   8.746   0.918   6.356
21663TIP3   OH264865   9.230   1.041   6.169
21663TIP3    H164866   9.151   1.092   6.151
21663TIP3    H264867   9.269   1.027   6.083
21664TIP3   OH264868   9.371   1.069   6.397
21664TIP3    H164869   9.311   1.081   6.323
21664TIP3    H264870   9.419   0.989   6.376
21665TIP3   OH264871   8.695   1.091   7.154
21665TIP3    H164872   8.685   1.158   7.222
21665TIP3    H264873   8.661   1.011   7.193
21666TIP3   OH264874   8.714   0.575   5.853
21666TIP3    H164875   8.712   0.575   5.949
21666TIP3    H264876   8.640   0.630   5.828
21667TIP3   OH264877   8.259   0.619   6.721
21667TIP3    H164878   8.328   0.656   6.776
21667TIP3    H264879   8.303   0.591   6.641
21668TIP3   OH264880   8.232   0.601   6.237
21668TIP3    H164881   8.281   0.635   6.162
21668TIP3    H264882   8.174   0.672   6.263
21669TIP3   OH264883   9.056   0.765   6.508
21669TIP3    H164884   8.971   0.770   6.553
21669TIP3    H264885   9.118   0.801   6.571
21670TIP3   OH264886   8.491   0.837   6.509
21670TIP3    H164887   8.398   0.842   6.486
21670TIP3    H264888   8.515   0.746   6.489
21671TIP3   OH264889   8.767   0.828   6.203
21671TIP3    H164890   8.856   0.853   6.180
21671TIP3    H264891   8.715   0.853   6.126
21672TIP3   OH264892   9.530   0.843   6.707
21672TIP3    H164893   9.496   0.838   6.796
21672TIP3    H264894   9.471   0.788   6.655
21673TIP3   OH264895   8.591   0.840   5.984
21673TIP3    H164896   8.525   0.810   5.921
21673TIP3    H264897   8.633   0.914   5.940
21674TIP3   OH264898   9.135   1.067   6.594
21674TIP3    H164899   9.217   1.071   6.544
21674TIP3    H264900   9.161   1.090   6.683
21675TIP3   OH264901   8.662   0.594   6.482
21675TIP3    H164902   8.632   0.515   6.527
21675TIP3    H264903   8.712   0.561   6.407
21676TIP3   OH264904   9.111   1.001   6.919
21676TIP3    H164905   9.019   1.021   6.900
21676TIP3    H264906   9.155   1.086   6.917
21677TIP3   OH264907   9.308   0.717   5.848
21677TIP3    H164908   9.215   0.696   5.860
21677TIP3    H264909   9.314   0.810   5.871
21678TIP3   OH264910   9.385   0.975   5.935
21678TIP3    H164911   9.474   0.962   5.967
21678TIP3    H264912   9.387   1.060   5.892
21679TIP3   OH264913   9.801   1.020   5.801
21679TIP3    H164914   9.742   0.993   5.730
21679TIP3    H264915   9.828   1.108   5.776
21680TIP3   OH264916   8.638   0.842   7.295
21680TIP3    H164917   8.543   0.840   7.303
21680TIP3    H264918   8.670   0.781   7.362
21681TIP3   OH264919   9.357   0.655   6.128
21681TIP3    H164920   9.340   0.681   6.037
21681TIP3    H264921   9.393   0.734   6.168
21682TIP3   OH264922   9.055   0.834   6.237
21682TIP3    H164923   9.118   0.904   6.220
21682TIP3    H264924   9.050   0.827   6.332
21683TIP3   OH264925   9.190   0.566   6.339
21683TIP3    H164926   9.170   0.640   6.396
21683TIP3    H264927   9.248   0.601   6.272
21684TIP3   OH264928   8.703   0.561   6.128
21684TIP3    H164929   8.694   0.652   6.157
21684TIP3    H264930   8.796   0.543   6.136
21685TIP3   OH264931   8.257   0.756   6.012
21685TIP3    H164932   8.273   0.850   6.007
21685TIP3    H264933   8.169   0.744   5.976
21686TIP3   OH264934   8.649   0.472   6.888
21686TIP3    H164935   8.618   0.442   6.802
21686TIP3    H264936   8.639   0.396   6.945
21687TIP3   OH264937   8.751   0.997   5.826
21687TIP3    H164938   8.723   0.948   5.748
21687TIP3    H264939   8.847   0.991   5.823
21688TIP3   OH264940   9.058   0.810   7.109
21688TIP3    H164941   9.081   0.875   7.043
21688TIP3    H264942   8.963   0.803   7.104
21689TIP3   OH264943   9.191   0.575   7.130
21689TIP3    H164944   9.144   0.658   7.121
21689TIP3    H264945   9.123   0.511   7.149
21690TIP3   OH264946   9.643   0.958   5.586
21690TIP3    H164947   9.624   0.981   5.495
21690TIP3    H264948   9.624   0.864   5.591
21691TIP3   OH264949   9.648   1.216   6.144
21691TIP3    H164950   9.657   1.122   6.131
21691TIP3    H264951   9.655   1.228   6.239
21692TIP3   OH264952   9.597   0.692   5.583
21692TIP3    H164953   9.673   0.662   5.632
21692TIP3    H264954   9.526   0.632   5.609
21693TIP3   OH264955   9.658   0.942   6.038
21693TIP3    H164956   9.693   0.855   6.055
21693TIP3    H264957   9.707   0.974   5.963
21694TIP3   OH264958   8.502   0.965   7.546
21694TIP3    H164959   8.591   0.960   7.582
21694TIP3    H264960   8.453   0.898   7.594
21695TIP3   OH264961   9.756   0.690   6.077
21695TIP3    H164962   9.809   0.675   6.155
21695TIP3    H264963   9.697   0.616   6.072
21696TIP3   OH264964   8.464   0.679   6.901
21696TIP3    H164965   8.528   0.608   6.906
21696TIP3    H264966   8.517   0.758   6.887
21697TIP3   OH264967   8.266   0.964   6.974
21697TIP3    H164968   8.314   0.950   6.892
21697TIP3    H264969   8.281   1.056   6.995
21698TIP3   OH264970   0.044   0.633   5.700
21698TIP3    H164971   0.087   0.560   5.656
21698TIP3    H264972   0.111   0.702   5.701
21699TIP3   OH264973   8.249   0.456   6.464
21699TIP3    H164974   8.158   0.457   6.494
21699TIP3    H264975   8.250   0.515   6.389
21700TIP3   OH264976   8.468   0.541   7.284
21700TIP3    H164977   8.420   0.537   7.366
21700TIP3    H264978   8.406   0.577   7.221
21701TIP3   OH264979   9.324   0.670   6.631
21701TIP3    H164980   9.268   0.607   6.676
21701TIP3    H264981   9.382   0.617   6.576
21702TIP3   OH264982   0.025   0.570   6.544
21702TIP3    H164983   0.065   0.603   6.464
21702TIP3    H264984  -0.069   0.569   6.526
21703TIP3   OH264985   0.123   0.643   6.298
21703TIP3    H164986   0.194   0.586   6.269
21703TIP3    H264987   0.147   0.730   6.266
21704TIP3   OH264988   8.560   0.378   6.640
21704TIP3    H164989   8.469   0.349   6.641
21704TIP3    H264990   8.611   0.297   6.636
21705TIP3   OH264991   8.345   0.252   6.285
21705TIP3    H164992   8.378   0.307   6.214
21705TIP3    H264993   8.319   0.314   6.353
21706TIP3   OH264994   9.007   0.413   6.520
21706TIP3    H164995   9.061   0.465   6.461
21706TIP3    H264996   9.021   0.453   6.606
21707TIP3   OH264997   9.551   0.555   6.495
21707TIP3    H164998   9.541   0.516   6.408
21707TIP3    H264999   9.537   0.482   6.555
21708TIP3   OH265000   9.578   0.479   6.065
21708TIP3    H165001   9.494   0.524   6.077
21708TIP3    H265002   9.567   0.396   6.111
21709TIP3   OH265003   8.467   0.410   6.051
21709TIP3    H165004   8.514   0.349   5.994
21709TIP3    H265005   8.535   0.467   6.087
21710TIP3   OH265006   8.980   0.587   6.151
21710TIP3    H165007   9.037   0.538   6.210
21710TIP3    H265008   8.995   0.679   6.172
21711TIP3   OH265009   8.767   0.658   7.538
21711TIP3    H165010   8.752   0.584   7.597
21711TIP3    H265011   8.862   0.662   7.528
21712TIP3   OH265012   0.223   1.166   5.909
21712TIP3    H165013   0.216   1.231   5.978
21712TIP3    H265014   0.159   1.099   5.932
21713TIP3   OH265015   1.077   0.843   5.354
21713TIP3    H165016   1.047   0.877   5.438
21713TIP3    H265017   1.021   0.766   5.338
21714TIP3   OH265018   0.713   0.834   5.334
21714TIP3    H165019   0.705   0.828   5.429
21714TIP3    H265020   0.640   0.890   5.307
21715TIP3   OH265021   0.222   0.844   6.155
21715TIP3    H165022   0.295   0.892   6.196
21715TIP3    H265023   0.262   0.802   6.079
21716TIP3   OH265024   0.230   0.861   5.720
21716TIP3    H165025   0.278   0.900   5.647
21716TIP3    H265026   0.175   0.932   5.753
21717TIP3   OH265027   0.597   1.072   5.485
21717TIP3    H165028   0.524   1.054   5.426
21717TIP3    H265029   0.639   1.150   5.449
21718TIP3   OH265030   0.688   0.802   5.607
21718TIP3    H165031   0.653   0.880   5.650
21718TIP3    H265032   0.767   0.780   5.657
21719TIP3   OH265033   0.258   1.015   5.490
21719TIP3    H165034   0.267   1.110   5.498
21719TIP3    H265035   0.166   1.001   5.469
21720TIP3   OH265036   0.732   1.240   5.319
21720TIP3    H165037   0.692   1.206   5.239
21720TIP3    H265038   0.823   1.260   5.295
21721TIP3   OH265039   0.236   0.691   5.928
21721TIP3    H165040   0.149   0.703   5.965
21721TIP3    H265041   0.243   0.757   5.860
21722TIP3   OH265042   0.537   0.614   6.058
21722TIP3    H165043   0.447   0.589   6.080
21722TIP3    H265044   0.590   0.540   6.087
21723TIP3   OH265045   0.341   0.500   5.763
21723TIP3    H165046   0.374   0.559   5.695
21723TIP3    H265047   0.311   0.558   5.833
21724TIP3   OH265048   0.458   0.662   5.532
21724TIP3    H165049   0.503   0.600   5.475
21724TIP3    H265050   0.527   0.718   5.567
21725TIP3   OH265051   0.247   6.770   1.528
21725TIP3    H165052   0.257   6.863   1.508
21725TIP3    H265053   0.334   6.733   1.515
21726TIP3   OH265054   9.524   6.980   1.629
21726TIP3    H165055   9.592   6.915   1.612
21726TIP3    H265056   9.538   7.006   1.720
21727TIP3   OH265057   0.018   6.227   1.671
21727TIP3    H165058  -0.018   6.183   1.594
21727TIP3    H265059   0.107   6.250   1.646
21728TIP3   OH265060   0.224   6.825   1.792
21728TIP3    H165061   0.164   6.760   1.829
21728TIP3    H265062   0.228   6.802   1.699
21729TIP3   OH265063   0.280   7.043   1.516
21729TIP3    H165064   0.330   7.110   1.469
21729TIP3    H265065   0.198   7.086   1.539
21730TIP3   OH265066   9.252   6.723   1.591
21730TIP3    H165067   9.209   6.672   1.660
21730TIP3    H265068   9.339   6.684   1.583
21731TIP3   OH265069   9.702   6.783   1.504
21731TIP3    H165070   9.752   6.800   1.583
21731TIP3    H265071   9.765   6.792   1.433
21732TIP3   OH265072   0.251   6.303   1.552
21732TIP3    H165073   0.237   6.248   1.475
21732TIP3    H265074   0.222   6.390   1.526
21733TIP3   OH265075   0.276   7.121   1.797
21733TIP3    H165076   0.294   7.032   1.767
21733TIP3    H265077   0.214   7.156   1.733
21734TIP3   OH265078   1.059   6.780   1.208
21734TIP3    H165079   1.115   6.716   1.164
21734TIP3    H265080   1.109   6.807   1.285
21735TIP3   OH265081   0.987   7.072   1.450
21735TIP3    H165082   0.991   7.141   1.383
21735TIP3    H265083   1.058   7.094   1.510
21736TIP3   OH265084   0.768   6.727   1.446
21736TIP3    H165085   0.795   6.799   1.502
21736TIP3    H265086   0.829   6.728   1.373
21737TIP3   OH265087   1.223   6.939   1.068
21737TIP3    H165088   1.184   6.963   1.151
21737TIP3    H265089   1.315   6.967   1.075
21738TIP3   OH265090   1.039   7.284   1.284
21738TIP3    H165091   1.132   7.304   1.270
21738TIP3    H265092   0.994   7.327   1.211
21739TIP3   OH265093   0.497   6.669   1.488
21739TIP3    H165094   0.590   6.692   1.496
21739TIP3    H265095   0.498   6.580   1.455
21740TIP3   OH265096   0.467   7.274   1.914
21740TIP3    H165097   0.396   7.230   1.868
21740TIP3    H265098   0.481   7.222   1.992
21741TIP3   OH265099   0.526   7.039   1.656
21741TIP3    H165100   0.447   7.014   1.608
21741TIP3    H265101   0.517   7.133   1.670
21742TIP3   OH265102   1.289   7.193   1.145
21742TIP3    H165103   1.322   7.266   1.093
21742TIP3    H265104   1.343   7.193   1.224
21743TIP3   OH265105   0.601   7.080   1.301
21743TIP3    H165106   0.598   7.101   1.394
21743TIP3    H265107   0.687   7.041   1.287
21744TIP3   OH265108   7.884   8.326   1.626
21744TIP3    H165109   7.870   8.420   1.610
21744TIP3    H265110   7.976   8.311   1.601
21745TIP3   OH265111   7.882   8.611   1.650
21745TIP3    H165112   7.943   8.661   1.595
21745TIP3    H265113   7.809   8.671   1.666
21746TIP3   OH265114   7.836   5.422   0.537
21746TIP3    H165115   7.841   5.509   0.496
21746TIP3    H265116   7.821   5.362   0.464
21747TIP3   OH265117   9.576   8.460   2.016
21747TIP3    H165118   9.580   8.412   2.099
21747TIP3    H265119   9.601   8.550   2.039
21748TIP3   OH265120   9.233   8.926   2.032
21748TIP3    H165121   9.289   8.867   1.980
21748TIP3    H265122   9.278   8.932   2.117
21749TIP3   OH265123   9.218   8.384   1.830
21749TIP3    H165124   9.208   8.375   1.735
21749TIP3    H265125   9.197   8.476   1.847
21750TIP3   OH265126   9.381   8.769   1.865
21750TIP3    H165127   9.416   8.686   1.834
21750TIP3    H265128   9.432   8.836   1.820
21751TIP3   OH265129   9.496   8.545   1.758
21751TIP3    H165130   9.496   8.473   1.695
21751TIP3    H265131   9.536   8.508   1.837
21752TIP3   OH265132   9.173   8.019   1.742
21752TIP3    H165133   9.088   8.057   1.718
21752TIP3    H265134   9.224   8.020   1.661
21753TIP3   OH265135   9.148   7.808   1.501
21753TIP3    H165136   9.215   7.861   1.543
21753TIP3    H265137   9.196   7.745   1.447
21754TIP3   OH265138   9.529   8.107   1.759
21754TIP3    H165139   9.492   8.125   1.846
21754TIP3    H265140   9.619   8.079   1.777
21755TIP3   OH265141   9.377   7.970   1.568
21755TIP3    H165142   9.432   8.027   1.623
21755TIP3    H265143   9.402   7.992   1.479
21756TIP3   OH265144   9.124   8.639   1.852
21756TIP3    H165145   9.190   8.706   1.872
21756TIP3    H265146   9.049   8.688   1.820
21757TIP3   OH265147   0.084   7.212   1.620
21757TIP3    H165148  -0.001   7.225   1.662
21757TIP3    H265149   0.098   7.292   1.569
21758TIP3   OH265150   9.687   8.581   1.175
21758TIP3    H165151   9.692   8.675   1.160
21758TIP3    H265152   9.776   8.549   1.163
21759TIP3   OH265153   8.999   8.898   1.653
21759TIP3    H165154   8.948   8.880   1.574
21759TIP3    H265155   8.959   8.977   1.689
21760TIP3   OH265156   9.198   8.797   1.295
21760TIP3    H165157   9.255   8.729   1.259
21760TIP3    H265158   9.229   8.808   1.385
21761TIP3   OH265159   9.246   8.843   1.564
21761TIP3    H165160   9.159   8.857   1.602
21761TIP3    H265161   9.298   8.808   1.637
21762TIP3   OH265162   9.451   8.022   1.316
21762TIP3    H165163   9.413   7.993   1.233
21762TIP3    H265164   9.532   8.067   1.292
21763TIP3   OH265165   9.148   7.417   1.607
21763TIP3    H165166   9.162   7.426   1.701
21763TIP3    H265167   9.160   7.324   1.589
21764TIP3   OH265168   9.338   7.833   1.872
21764TIP3    H165169   9.290   7.894   1.816
21764TIP3    H265170   9.394   7.783   1.812
21765TIP3   OH265171   8.795   7.365   1.609
21765TIP3    H165172   8.819   7.422   1.682
21765TIP3    H265173   8.729   7.415   1.561
21766TIP3   OH265174   8.699   7.637   1.697
21766TIP3    H165175   8.628   7.605   1.641
21766TIP3    H265176   8.747   7.699   1.642
21767TIP3   OH265177   8.940   8.177   1.724
21767TIP3    H165178   8.873   8.115   1.694
21767TIP3    H265179   8.934   8.174   1.819
21768TIP3   OH265180   9.409   7.500   1.577
21768TIP3    H165181   9.313   7.502   1.574
21768TIP3    H265182   9.434   7.588   1.605
21769TIP3   OH265183   9.500   7.739   1.674
21769TIP3    H165184   9.592   7.745   1.701
21769TIP3    H265185   9.485   7.817   1.621
21770TIP3   OH265186   9.102   8.334   1.559
21770TIP3    H165187   9.060   8.420   1.558
21770TIP3    H265188   9.044   8.280   1.613
21771TIP3   OH265189   0.120   7.832   1.527
21771TIP3    H165190   0.061   7.785   1.468
21771TIP3    H265191   0.124   7.921   1.491
21772TIP3   OH265192   9.625   8.650   1.438
21772TIP3    H165193   9.599   8.576   1.493
21772TIP3    H265194   9.638   8.610   1.351
21773TIP3   OH265195   8.688   8.718   1.860
21773TIP3    H165196   8.601   8.743   1.889
21773TIP3    H265197   8.743   8.795   1.878
21774TIP3   OH265198   9.379   8.376   1.343
21774TIP3    H165199   9.427   8.354   1.423
21774TIP3    H265200   9.288   8.353   1.363
21775TIP3   OH265201   9.716   8.857   1.161
21775TIP3    H165202   9.755   8.924   1.105
21775TIP3    H265203   9.637   8.898   1.195
21776TIP3   OH265204   9.541   8.321   1.573
21776TIP3    H165205   9.528   8.247   1.632
21776TIP3    H265206   9.633   8.316   1.547
21777TIP3   OH265207   8.749   8.355   1.342
21777TIP3    H165208   8.758   8.266   1.309
21777TIP3    H265209   8.725   8.345   1.434
21778TIP3   OH265210   8.698   8.359   1.615
21778TIP3    H165211   8.777   8.346   1.666
21778TIP3    H265212   8.688   8.454   1.609
21779TIP3   OH265213   9.376   7.470   1.845
21779TIP3    H165214   9.392   7.456   1.752
21779TIP3    H265215   9.461   7.498   1.880
21780TIP3   OH265216   8.958   8.564   1.562
21780TIP3    H165217   8.868   8.583   1.589
21780TIP3    H265218   8.979   8.633   1.499
21781TIP3   OH265219   8.697   8.629   1.606
21781TIP3    H165220   8.666   8.700   1.550
21781TIP3    H265221   8.689   8.663   1.695
21782TIP3   OH265222   8.412   8.267   1.594
21782TIP3    H165223   8.468   8.342   1.615
21782TIP3    H265224   8.468   8.210   1.542
21783TIP3   OH265225   9.678   8.993   2.081
21783TIP3    H165226   9.624   9.045   2.022
21783TIP3    H265227   9.766   9.030   2.071
21784TIP3   OH265228   8.909   8.561   1.253
21784TIP3    H165229   8.852   8.493   1.290
21784TIP3    H265230   8.983   8.513   1.216
21785TIP3   OH265231   9.346   8.604   1.163
21785TIP3    H165232   9.393   8.543   1.220
21785TIP3    H265233   9.397   8.607   1.082
21786TIP3   OH265234   8.558   8.073   1.465
21786TIP3    H165235   8.602   8.044   1.545
21786TIP3    H265236   8.628   8.080   1.400
21787TIP3   OH265237   9.067   8.278   1.284
21787TIP3    H165238   9.062   8.294   1.378
21787TIP3    H265239   9.064   8.183   1.275
21788TIP3   OH265240   8.746   7.984   1.672
21788TIP3    H165241   8.748   7.951   1.762
21788TIP3    H265242   8.783   7.913   1.620
21789TIP3   OH265243   8.868   7.774   1.535
21789TIP3    H165244   8.837   7.778   1.444
21789TIP3    H265245   8.963   7.783   1.528
21790TIP3   OH265246   9.683   8.110   1.196
21790TIP3    H165247   9.665   8.061   1.116
21790TIP3    H265248   9.653   8.199   1.177
21791TIP3   OH265249   8.669   8.842   1.435
21791TIP3    H165250   8.763   8.839   1.420
21791TIP3    H265251   8.634   8.892   1.361
21792TIP3   OH265252   8.139   8.241   1.588
21792TIP3    H165253   8.224   8.267   1.625
21792TIP3    H265254   8.144   8.146   1.581
21793TIP3   OH265255   0.134   9.096   2.066
21793TIP3    H165256   0.166   9.170   2.117
21793TIP3    H265257   0.165   9.113   1.977
21794TIP3   OH265258   0.017   8.298   1.534
21794TIP3    H165259   0.082   8.361   1.501
21794TIP3    H265260   0.059   8.258   1.610
21795TIP3   OH265261   0.144   8.166   1.736
21795TIP3    H165262   0.082   8.123   1.796
21795TIP3    H265263   0.213   8.200   1.793
21796TIP3   OH265264   0.184   8.548   2.089
21796TIP3    H165265   0.260   8.491   2.084
21796TIP3    H265266   0.212   8.630   2.049
21797TIP3   OH265267   0.080   8.072   1.384
21797TIP3    H165268   0.014   8.071   1.315
21797TIP3    H265269   0.057   8.147   1.438
21798TIP3   OH265270   9.751   7.744   1.337
21798TIP3    H165271   9.715   7.784   1.258
21798TIP3    H265272   9.727   7.651   1.330
21799TIP3   OH265273   9.759   8.016   1.880
21799TIP3    H165274   9.765   7.925   1.854
21799TIP3    H265275   9.740   8.013   1.974
21800TIP3   OH265276   9.697   7.479   1.328
21800TIP3    H165277   9.771   7.446   1.378
21800TIP3    H265278   9.626   7.418   1.346
21801TIP3   OH265279  -0.024   7.758   1.755
21801TIP3    H165280   0.006   7.669   1.776
21801TIP3    H265281   0.031   7.784   1.681
21802TIP3   OH265282   0.062   7.487   1.816
21802TIP3    H165283   0.114   7.483   1.896
21802TIP3    H265284   0.025   7.400   1.807
21803TIP3   OH265285   0.148   7.419   1.448
21803TIP3    H165286   0.186   7.348   1.396
21803TIP3    H265287   0.212   7.491   1.442
21804TIP3   OH265288   9.508   8.945   1.712
21804TIP3    H165289   9.563   8.940   1.633
21804TIP3    H265290   9.546   9.016   1.763
21805TIP3   OH265291   9.668   7.266   1.786
21805TIP3    H165292   9.584   7.311   1.783
21805TIP3    H265293   9.677   7.237   1.877
21806TIP3   OH265294   8.153   8.634   1.726
21806TIP3    H165295   8.077   8.580   1.747
21806TIP3    H265296   8.116   8.719   1.703
21807TIP3   OH265297   8.938   8.799   1.387
21807TIP3    H165298   9.025   8.825   1.354
21807TIP3    H265299   8.913   8.726   1.331
21808TIP3   OH265300   9.656   8.917   1.480
21808TIP3    H165301   9.647   8.822   1.470
21808TIP3    H265302   9.611   8.953   1.403
21809TIP3   OH265303   8.242   8.637   1.451
21809TIP3    H165304   8.232   8.641   1.546
21809TIP3    H265305   8.327   8.596   1.437
21810TIP3   OH265306   1.339   8.441   1.448
21810TIP3    H165307   1.315   8.529   1.419
21810TIP3    H265308   1.275   8.383   1.407
21811TIP3   OH265309   1.265   8.429   1.800
21811TIP3    H165310   1.341   8.418   1.857
21811TIP3    H265311   1.300   8.417   1.712
21812TIP3   OH265312   0.658   8.353   2.189
21812TIP3    H165313   0.669   8.295   2.264
21812TIP3    H265314   0.742   8.351   2.144
21813TIP3   OH265315   1.589   8.738   1.494
21813TIP3    H165316   1.591   8.668   1.559
21813TIP3    H265317   1.615   8.816   1.542
21814TIP3   OH265318   0.619   8.739   1.918
21814TIP3    H165319   0.608   8.644   1.915
21814TIP3    H265320   0.712   8.753   1.896
21815TIP3   OH265321   0.323   7.947   1.689
21815TIP3    H165322   0.278   8.030   1.703
21815TIP3    H265323   0.254   7.888   1.657
21816TIP3   OH265324   0.385   8.223   1.856
21816TIP3    H165325   0.428   8.151   1.901
21816TIP3    H265326   0.446   8.248   1.787
21817TIP3   OH265327   1.239   9.202   1.512
21817TIP3    H165328   1.283   9.133   1.464
21817TIP3    H265329   1.229   9.167   1.601
21818TIP3   OH265330   1.125   8.658   1.872
21818TIP3    H165331   1.153   8.572   1.839
21818TIP3    H265332   1.203   8.713   1.865
21819TIP3   OH265333   0.865   7.830   1.872
21819TIP3    H165334   0.847   7.901   1.811
21819TIP3    H265335   0.834   7.752   1.828
21820TIP3   OH265336   0.531   8.026   1.972
21820TIP3    H165337   0.603   8.002   2.030
21820TIP3    H265338   0.542   7.970   1.895
21821TIP3   OH265339   0.959   8.214   1.763
21821TIP3    H165340   1.051   8.190   1.758
21821TIP3    H265341   0.912   8.138   1.729
21822TIP3   OH265342   1.238   8.656   1.307
21822TIP3    H165343   1.199   8.632   1.223
21822TIP3    H265344   1.195   8.739   1.330
21823TIP3   OH265345   0.985   8.582   2.101
21823TIP3    H165346   0.925   8.653   2.125
21823TIP3    H265347   1.041   8.619   2.033
21824TIP3   OH265348   0.758   7.943   2.098
21824TIP3    H165349   0.827   8.009   2.104
21824TIP3    H265350   0.792   7.879   2.036
21825TIP3   OH265351   0.220   8.465   1.426
21825TIP3    H165352   0.181   8.489   1.342
21825TIP3    H265353   0.250   8.547   1.463
21826TIP3   OH265354   1.642   8.966   1.650
21826TIP3    H165355   1.561   8.963   1.702
21826TIP3    H265356   1.646   9.057   1.619
21827TIP3   OH265357   1.367   9.026   1.341
21827TIP3    H165358   1.410   8.943   1.321
21827TIP3    H265359   1.423   9.093   1.301
21828TIP3   OH265360   1.503   8.811   1.246
21828TIP3    H165361   1.472   8.733   1.199
21828TIP3    H265362   1.539   8.777   1.328
21829TIP3   OH265363   1.182   8.297   1.264
21829TIP3    H165364   1.100   8.343   1.243
21829TIP3    H265365   1.225   8.286   1.179
21830TIP3   OH265366   1.141   8.068   0.985
21830TIP3    H165367   1.205   8.121   1.033
21830TIP3    H265368   1.193   8.006   0.935
21831TIP3   OH265369   1.513   8.366   1.246
21831TIP3    H165370   1.459   8.396   1.319
21831TIP3    H265371   1.593   8.334   1.286
21832TIP3   OH265372   0.757   8.367   1.651
21832TIP3    H165373   0.715   8.311   1.586
21832TIP3    H265374   0.831   8.315   1.683
21833TIP3   OH265375   0.876   8.773   1.803
21833TIP3    H165376   0.859   8.735   1.717
21833TIP3    H265377   0.963   8.740   1.827
21834TIP3   OH265378   0.884   8.339   2.018
21834TIP3    H165379   0.919   8.312   1.933
21834TIP3    H265380   0.936   8.416   2.042
21835TIP3   OH265381   1.423   8.972   1.823
21835TIP3    H165382   1.400   9.065   1.824
21835TIP3    H265383   1.366   8.933   1.889
21836TIP3   OH265384   1.366   8.224   1.061
21836TIP3    H165385   1.421   8.281   1.116
21836TIP3    H265386   1.391   8.247   0.972
21837TIP3   OH265387   1.110   8.908   1.343
21837TIP3    H165388   1.187   8.962   1.356
21837TIP3    H265389   1.047   8.966   1.301
21838TIP3   OH265390   0.622   8.209   1.460
21838TIP3    H165391   0.559   8.254   1.404
21838TIP3    H265392   0.584   8.123   1.474
21839TIP3   OH265393   1.683   8.837   0.662
21839TIP3    H165394   1.690   8.931   0.647
21839TIP3    H265395   1.773   8.804   0.651
21840TIP3   OH265396   0.267   8.800   1.997
21840TIP3    H165397   0.361   8.795   1.981
21840TIP3    H265398   0.255   8.879   2.048
21841TIP3   OH265399   0.991   9.154   1.141
21841TIP3    H165400   0.945   9.132   1.060
21841TIP3    H265401   0.958   9.240   1.165
21842TIP3   OH265402   0.428   9.001   1.527
21842TIP3    H165403   0.478   8.993   1.609
21842TIP3    H265404   0.367   8.927   1.529
21843TIP3   OH265405   1.195   9.053   0.784
21843TIP3    H165406   1.251   8.985   0.745
21843TIP3    H265407   1.227   9.062   0.873
21844TIP3   OH265408   1.242   9.102   1.056
21844TIP3    H165409   1.154   9.112   1.092
21844TIP3    H265410   1.291   9.056   1.124
21845TIP3   OH265411   1.441   8.279   0.807
21845TIP3    H165412   1.407   8.248   0.723
21845TIP3    H265413   1.524   8.321   0.786
21846TIP3   OH265414   1.162   7.644   1.109
21846TIP3    H165415   1.136   7.657   1.199
21846TIP3    H265416   1.110   7.569   1.079
21847TIP3   OH265417   0.813   8.005   1.666
21847TIP3    H165418   0.724   7.977   1.685
21847TIP3    H265419   0.835   7.963   1.583
21848TIP3   OH265420   1.312   8.086   1.390
21848TIP3    H165421   1.261   8.158   1.352
21848TIP3    H265422   1.365   8.054   1.318
21849TIP3   OH265423   0.812   7.622   1.081
21849TIP3    H165424   0.803   7.619   1.176
21849TIP3    H265425   0.735   7.670   1.050
21850TIP3   OH265426   0.379   7.692   1.917
21850TIP3    H165427   0.466   7.710   1.952
21850TIP3    H265428   0.394   7.633   1.843
21851TIP3   OH265429   0.328   7.650   1.467
21851TIP3    H165430   0.374   7.682   1.390
21851TIP3    H265431   0.267   7.720   1.490
21852TIP3   OH265432   1.094   7.880   1.717
21852TIP3    H165433   1.017   7.841   1.759
21852TIP3    H265434   1.166   7.857   1.775
21853TIP3   OH265435   0.583   7.878   1.744
21853TIP3    H165436   0.492   7.887   1.718
21853TIP3    H265437   0.607   7.790   1.717
21854TIP3   OH265438   0.852   7.874   1.429
21854TIP3    H165439   0.946   7.888   1.412
21854TIP3    H265440   0.810   7.899   1.347
21855TIP3   OH265441   0.696   7.909   1.206
21855TIP3    H165442   0.625   7.863   1.160
21855TIP3    H265443   0.750   7.946   1.136
21856TIP3   OH265444   0.763   7.644   1.700
21856TIP3    H165445   0.729   7.567   1.746
21856TIP3    H265446   0.793   7.611   1.616
21857TIP3   OH265447   0.945   8.440   1.217
21857TIP3    H165448   0.876   8.375   1.205
21857TIP3    H265449   0.931   8.474   1.306
21858TIP3   OH265450   1.406   7.765   1.056
21858TIP3    H165451   1.313   7.749   1.076
21858TIP3    H265452   1.426   7.846   1.103
21859TIP3   OH265453   1.498   8.003   1.175
21859TIP3    H165454   1.593   8.004   1.170
21859TIP3    H265455   1.471   8.077   1.121
21860TIP3   OH265456   0.647   8.466   1.884
21860TIP3    H165457   0.683   8.438   1.800
21860TIP3    H265458   0.682   8.404   1.948
21861TIP3   OH265459   1.093   8.590   1.040
21861TIP3    H165460   1.049   8.675   1.043
21861TIP3    H265461   1.041   8.534   1.097
21862TIP3   OH265462   1.931   8.046   0.914
21862TIP3    H165463   1.838   8.020   0.910
21862TIP3    H265464   1.929   8.142   0.905
21863TIP3   OH265465   1.621   8.905   0.926
21863TIP3    H165466   1.594   8.833   0.984
21863TIP3    H265467   1.634   8.862   0.841
21864TIP3   OH265468   0.741   8.765   1.516
21864TIP3    H165469   0.745   8.846   1.464
21864TIP3    H265470   0.648   8.747   1.526
21865TIP3   OH265471   0.305   8.070   1.222
21865TIP3    H165472   0.352   8.152   1.239
21865TIP3    H265473   0.229   8.074   1.280
21866TIP3   OH265474   0.882   8.533   1.465
21866TIP3    H165475   0.847   8.621   1.479
21866TIP3    H265476   0.845   8.480   1.535
21867TIP3   OH265477   1.018   9.101   1.964
21867TIP3    H165478   1.060   9.180   1.931
21867TIP3    H265479   1.076   9.069   2.032
21868TIP3   OH265480   0.662   9.005   1.371
21868TIP3    H165481   0.577   9.010   1.415
21868TIP3    H265482   0.695   9.095   1.372
21869TIP3   OH265483   1.373   8.636   0.831
21869TIP3    H165484   1.426   8.611   0.907
21869TIP3    H265485   1.284   8.608   0.853
21870TIP3   OH265486   1.714   9.114   0.648
21870TIP3    H165487   1.756   9.181   0.594
21870TIP3    H265488   1.634   9.155   0.680
21871TIP3   OH265489   1.532   8.572   1.050
21871TIP3    H165490   1.522   8.504   1.117
21871TIP3    H265491   1.623   8.567   1.023
21872TIP3   OH265492   0.455   8.992   2.130
21872TIP3    H165493   0.497   8.906   2.132
21872TIP3    H265494   0.485   9.034   2.211
21873TIP3   OH265495   0.742   8.615   0.828
21873TIP3    H165496   0.755   8.526   0.797
21873TIP3    H265497   0.722   8.605   0.921
21874TIP3   OH265498   0.688   8.622   1.100
21874TIP3    H165499   0.758   8.593   1.158
21874TIP3    H265500   0.690   8.718   1.106
21875TIP3   OH265501   0.420   8.317   1.302
21875TIP3    H165502   0.356   8.358   1.360
21875TIP3    H265503   0.437   8.383   1.235
21876TIP3   OH265504   1.377   7.743   1.331
21876TIP3    H165505   1.385   7.715   1.240
21876TIP3    H265506   1.458   7.716   1.373
21877TIP3   OH265507   0.951   8.822   1.050
21877TIP3    H165508   0.865   8.845   1.085
21877TIP3    H265509   0.968   8.887   0.983
21878TIP3   OH265510   1.126   7.886   1.447
21878TIP3    H165511   1.204   7.937   1.425
21878TIP3    H265512   1.120   7.890   1.542
21879TIP3   OH265513   0.695   8.896   1.115
21879TIP3    H165514   0.665   8.961   1.052
21879TIP3    H265515   0.679   8.937   1.201
21880TIP3   OH265516   0.800   7.610   1.359
21880TIP3    H165517   0.792   7.701   1.388
21880TIP3    H265518   0.893   7.590   1.366
21881TIP3   OH265519   0.415   8.525   1.107
21881TIP3    H165520   0.474   8.599   1.119
21881TIP3    H265521   0.457   8.470   1.042
21882TIP3   OH265522   0.356   7.800   1.244
21882TIP3    H165523   0.357   7.896   1.239
21882TIP3    H265524   0.278   7.775   1.194
21883TIP3   OH265525   4.941   0.005   1.587
21883TIP3    H165526   4.901   0.060   1.519
21883TIP3    H265527   5.035   0.012   1.570
21884TIP3   OH265528   0.283   8.738   1.496
21884TIP3    H165529   0.211   8.769   1.552
21884TIP3    H265530   0.264   8.776   1.410
21885TIP3   OH265531   0.906   8.818   0.742
21885TIP3    H165532   0.848   8.750   0.778
21885TIP3    H265533   0.980   8.769   0.706
21886TIP3   OH265534   1.342   8.861   0.651
21886TIP3    H165535   1.385   8.797   0.708
21886TIP3    H265536   1.395   8.861   0.571
21887TIP3   OH265537   0.551   8.337   0.960
21887TIP3    H165538   0.602   8.304   1.033
21887TIP3    H265539   0.613   8.342   0.888
21888TIP3   OH265540   1.058   8.533   0.770
21888TIP3    H165541   1.060   8.549   0.864
21888TIP3    H265542   1.058   8.438   0.761
21889TIP3   OH265543   0.758   8.238   1.184
21889TIP3    H165544   0.731   8.197   1.266
21889TIP3    H265545   0.793   8.165   1.133
21890TIP3   OH265546   0.858   8.033   1.021
21890TIP3    H165547   0.830   8.037   0.930
21890TIP3    H265548   0.953   8.039   1.017
21891TIP3   OH265549   1.674   8.367   0.682
21891TIP3    H165550   1.656   8.317   0.602
21891TIP3    H265551   1.645   8.456   0.662
21892TIP3   OH265552   0.666   9.098   0.926
21892TIP3    H165553   0.760   9.093   0.909
21892TIP3    H265554   0.630   9.145   0.851
21893TIP3   OH265555   0.146   8.476   1.145
21893TIP3    H165556   0.238   8.500   1.132
21893TIP3    H265557   0.138   8.390   1.104
21894TIP3   OH265558   0.060   9.088   1.556
21894TIP3    H165559  -0.008   9.031   1.520
21894TIP3    H265560   0.103   9.034   1.622
21895TIP3   OH265561   0.194   8.942   1.745
21895TIP3    H165562   0.183   8.869   1.805
21895TIP3    H265563   0.250   9.004   1.792
21896TIP3   OH265564   5.203   0.102   1.546
21896TIP3    H165565   5.193   0.140   1.633
21896TIP3    H265566   5.215   0.177   1.488
21897TIP3   OH265567   1.805   8.555   1.007
21897TIP3    H165568   1.881   8.611   0.989
21897TIP3    H265569   1.812   8.537   1.101
21898TIP3   OH265570   1.813   8.440   1.261
21898TIP3    H165571   1.829   8.353   1.224
21898TIP3    H265572   1.900   8.477   1.274
21899TIP3   OH265573   1.875   8.327   0.863
21899TIP3    H165574   1.807   8.327   0.795
21899TIP3    H265575   1.854   8.402   0.919
21900TIP3   OH265576   1.679   8.001   0.824
21900TIP3    H165577   1.696   8.050   0.743
21900TIP3    H265578   1.679   7.909   0.797
21901TIP3   OH265579   0.403   8.389   2.080
21901TIP3    H165580   0.395   8.339   1.999
21901TIP3    H265581   0.493   8.373   2.110
21902TIP3   OH265582   1.693   7.732   0.799
21902TIP3    H165583   1.764   7.702   0.857
21902TIP3    H265584   1.617   7.679   0.825
21903TIP3   OH265585   0.342   7.514   1.699
21903TIP3    H165586   0.248   7.503   1.715
21903TIP3    H265587   0.347   7.564   1.618
21904TIP3   OH265588   1.511   9.209   1.204
21904TIP3    H165589   1.549   9.187   1.119
21904TIP3    H265590   1.571   9.275   1.240
21905TIP3   OH265591   3.952   0.020   1.999
21905TIP3    H165592   3.889   0.062   2.058
21905TIP3    H265593   3.951   0.074   1.920
21906TIP3   OH265594   4.389   0.087   1.814
21906TIP3    H165595   4.320   0.084   1.747
21906TIP3    H265596   4.381   0.174   1.852
21907TIP3   OH265597   4.652  -0.001   1.849
21907TIP3    H165598   4.565   0.036   1.834
21907TIP3    H265599   4.712   0.070   1.828
21908TIP3   OH265600   4.828   0.199   1.776
21908TIP3    H165601   4.856   0.288   1.755
21908TIP3    H265602   4.881   0.143   1.719
21909TIP3   OH265603   0.373   9.095   1.893
21909TIP3    H165604   0.394   9.078   1.985
21909TIP3    H265605   0.446   9.057   1.844
21910TIP3   OH265606   0.570   8.965   1.758
21910TIP3    H165607   0.585   8.885   1.809
21910TIP3    H265608   0.655   9.008   1.755
21911TIP3   OH265609   0.832   9.063   1.761
21911TIP3    H165610   0.863   8.973   1.750
21911TIP3    H265611   0.866   9.089   1.847
21912TIP3   OH265612   0.674   7.428   1.831
21912TIP3    H165613   0.590   7.383   1.845
21912TIP3    H265614   0.720   7.417   1.914
21913TIP3   OH265615   0.431   7.298   1.504
21913TIP3    H165616   0.470   7.353   1.436
21913TIP3    H265617   0.418   7.358   1.578
21914TIP3   OH265618   0.158   8.868   1.295
21914TIP3    H165619   0.076   8.833   1.261
21914TIP3    H265620   0.153   8.962   1.278
21915TIP3   OH265621   0.562   7.457   1.279
21915TIP3    H165622   0.607   7.394   1.222
21915TIP3    H265623   0.632   7.511   1.315
21916TIP3   OH265624   1.083   7.626   1.381
21916TIP3    H165625   1.169   7.587   1.399
21916TIP3    H265626   1.095   7.719   1.402
21917TIP3   OH265627   0.935   9.056   0.874
21917TIP3    H165628   1.022   9.081   0.841
21917TIP3    H265629   0.909   8.983   0.818
21918TIP3   OH265630   1.645   9.170   0.968
21918TIP3    H165631   1.641   9.075   0.956
21918TIP3    H265632   1.605   9.205   0.889
21919TIP3   OH265633   0.238   8.892   0.934
21919TIP3    H165634   0.235   8.923   1.025
21919TIP3    H265635   0.325   8.853   0.924
21920TIP3   OH265636   2.016   8.719   0.918
21920TIP3    H165637   1.981   8.737   0.830
21920TIP3    H265638   2.045   8.805   0.949
21921TIP3   OH265639   6.040   0.147   0.626
21921TIP3    H165640   5.988   0.148   0.546
21921TIP3    H265641   6.027   0.234   0.665
21922TIP3   OH265642   2.226   9.256   1.006
21922TIP3    H165643   2.285   9.230   1.077
21922TIP3    H265644   2.153   9.195   1.011
21923TIP3   OH265645   6.254   0.064   0.257
21923TIP3    H165646   6.312  -0.006   0.229
21923TIP3    H265647   6.283   0.086   0.346
21924TIP3   OH265648   6.287   0.111   0.530
21924TIP3    H165649   6.203   0.142   0.565
21924TIP3    H265650   6.289   0.018   0.553
21925TIP3   OH265651   2.812   8.837   0.523
21925TIP3    H165652   2.773   8.923   0.538
21925TIP3    H265653   2.845   8.811   0.610
21926TIP3   OH265654   2.477   9.084   1.041
21926TIP3    H165655   2.503   9.130   0.961
21926TIP3    H265656   2.449   8.997   1.011
21927TIP3   OH265657   2.102   8.331   0.704
21927TIP3    H165658   2.148   8.412   0.727
21927TIP3    H265659   2.030   8.326   0.766
21928TIP3   OH265660   5.725   0.043   0.845
21928TIP3    H165661   5.641   0.042   0.890
21928TIP3    H265662   5.739   0.134   0.821
21929TIP3   OH265663   6.693   0.106   0.068
21929TIP3    H165664   6.769   0.162   0.054
21929TIP3    H265665   6.645   0.149   0.139
21930TIP3   OH265666   2.538   8.871   0.315
21930TIP3    H165667   2.548   8.782   0.281
21930TIP3    H265668   2.523   8.859   0.409
21931TIP3   OH265669   2.487   8.884   0.592
21931TIP3    H165670   2.532   8.868   0.675
21931TIP3    H265671   2.481   8.979   0.585
21932TIP3   OH265672   2.219   8.571   0.773
21932TIP3    H165673   2.172   8.601   0.850
21932TIP3    H265674   2.225   8.649   0.717
21933TIP3   OH265675   2.738   9.093   0.554
21933TIP3    H165676   2.652   9.120   0.586
21933TIP3    H265677   2.763   9.160   0.491
21934TIP3   OH265678   2.477   9.155   0.602
21934TIP3    H165679   2.452   9.218   0.535
21934TIP3    H265680   2.469   9.204   0.684
21935TIP3   OH265681   2.210   8.787   0.593
21935TIP3    H165682   2.269   8.863   0.597
21935TIP3    H265683   2.250   8.730   0.528
21936TIP3   OH265684   2.126   8.043   0.678
21936TIP3    H165685   2.160   8.131   0.699
21936TIP3    H265686   2.078   8.017   0.757
21937TIP3   OH265687   2.080   8.996   0.998
21937TIP3    H165688   1.996   9.026   1.032
21937TIP3    H265689   2.080   9.026   0.907
21938TIP3   OH265690   2.701   9.071   0.229
21938TIP3    H165691   2.642   9.005   0.265
21938TIP3    H265692   2.774   9.020   0.193
21939TIP3   OH265693   3.147   9.106   0.141
21939TIP3    H165694   3.218   9.053   0.179
21939TIP3    H265695   3.175   9.124   0.052
21940TIP3   OH265696   2.339   8.603   0.437
21940TIP3    H165697   2.374   8.543   0.503
21940TIP3    H265698   2.406   8.607   0.369
21941TIP3   OH265699   2.845   8.790   0.251
21941TIP3    H165700   2.829   8.800   0.345
21941TIP3    H265701   2.847   8.695   0.237
21942TIP3   OH265702   5.725   0.107   0.403
21942TIP3    H165703   5.820   0.107   0.393
21942TIP3    H265704   5.693   0.160   0.331
21943TIP3   OH265705   1.943   8.731   0.635
21943TIP3    H165706   2.034   8.756   0.619
21943TIP3    H265707   1.934   8.646   0.593
21944TIP3   OH265708   5.110   0.104   1.048
21944TIP3    H165709   5.049   0.041   1.010
21944TIP3    H265710   5.164   0.052   1.107
21945TIP3   OH265711   1.990   9.201   1.230
21945TIP3    H165712   1.968   9.128   1.289
21945TIP3    H265713   2.047   9.257   1.282
21946TIP3   OH265714   5.464   0.103   1.363
21946TIP3    H165715   5.486   0.082   1.455
21946TIP3    H265716   5.548   0.096   1.317
21947TIP3   OH265717   1.952   9.124   0.791
21947TIP3    H165718   1.872   9.087   0.754
21947TIP3    H265719   1.950   9.216   0.765
21948TIP3   OH265720   5.995   0.073   0.353
21948TIP3    H165721   6.079   0.101   0.318
21948TIP3    H265722   5.972  -0.005   0.301
21949TIP3   OH265723   2.035   9.150   0.421
21949TIP3    H165724   2.037   9.181   0.512
21949TIP3    H265725   2.120   9.109   0.407
21950TIP3   OH265726   0.891   0.838   1.880
21950TIP3    H165727   0.809   0.809   1.839
21950TIP3    H265728   0.864   0.874   1.965
21951TIP3   OH265729   0.466   0.137   1.629
21951TIP3    H165730   0.527   0.197   1.673
21951TIP3    H265731   0.521   0.074   1.585
21952TIP3   OH265732   0.665   0.285   1.727
21952TIP3    H165733   0.734   0.292   1.793
21952TIP3    H265734   0.706   0.314   1.646
21953TIP3   OH265735   0.996   0.897   1.325
21953TIP3    H165736   1.002   0.992   1.311
21953TIP3    H265737   1.085   0.865   1.315
21954TIP3   OH265738   0.326   1.234   1.795
21954TIP3    H165739   0.275   1.208   1.718
21954TIP3    H265740   0.298   1.323   1.813
21955TIP3   OH265741   0.505   1.111   1.445
21955TIP3    H165742   0.562   1.045   1.406
21955TIP3    H265743   0.541   1.124   1.533
21956TIP3   OH265744   0.566   1.158   1.707
21956TIP3    H165745   0.483   1.175   1.751
21956TIP3    H265746   0.624   1.124   1.776
21957TIP3   OH265747   0.754   0.332   1.470
21957TIP3    H165748   0.722   0.308   1.383
21957TIP3    H265749   0.832   0.384   1.454
21958TIP3   OH265750   0.403   0.644   1.688
21958TIP3    H165751   0.365   0.731   1.699
21958TIP3    H265752   0.352   0.588   1.747
21959TIP3   OH265753   1.244   0.158   1.661
21959TIP3    H165754   1.182   0.107   1.610
21959TIP3    H265755   1.230   0.249   1.632
21960TIP3   OH265756   0.918   0.967   1.588
21960TIP3    H165757   0.926   0.901   1.656
21960TIP3    H265758   0.943   0.923   1.507
21961TIP3   OH265759   0.679   0.693   1.489
21961TIP3    H165760   0.740   0.667   1.558
21961TIP3    H265761   0.593   0.670   1.524
21962TIP3   OH265762   1.024   1.175   1.310
21962TIP3    H165763   1.069   1.245   1.263
21962TIP3    H265764   0.943   1.216   1.342
21963TIP3   OH265765   0.840   0.616   1.692
21963TIP3    H165766   0.823   0.590   1.783
21963TIP3    H265767   0.936   0.621   1.686
21964TIP3   OH265768   0.056   0.677   1.492
21964TIP3    H165769   0.083   0.601   1.440
21964TIP3    H265770   0.035   0.641   1.578
21965TIP3   OH265771   0.257   0.878   1.694
21965TIP3    H165772   0.163   0.895   1.686
21965TIP3    H265773   0.297   0.935   1.629
21966TIP3   OH265774   9.793   0.945   1.728
21966TIP3    H165775   9.762   1.003   1.658
21966TIP3    H265776   9.805   1.003   1.803
21967TIP3   OH265777   0.219   0.882   1.400
21967TIP3    H165778   0.165   0.812   1.438
21967TIP3    H265779   0.292   0.836   1.360
21968TIP3   OH265780   0.653   0.922   1.312
21968TIP3    H165781   0.698   0.864   1.373
21968TIP3    H265782   0.710   0.924   1.235
21969TIP3   OH265783   9.707   0.444   1.619
21969TIP3    H165784   9.725   0.356   1.652
21969TIP3    H265785   9.743   0.444   1.530
21970TIP3   OH265786   0.359   0.590   1.425
21970TIP3    H165787   0.371   0.609   1.519
21970TIP3    H265788   0.362   0.495   1.419
21971TIP3   OH265789   0.166   0.165   1.669
21971TIP3    H165790   0.112   0.146   1.592
21971TIP3    H265791   0.256   0.150   1.639
21972TIP3   OH265792   0.988   0.427   1.347
21972TIP3    H165793   0.970   0.380   1.265
21972TIP3    H265794   0.960   0.517   1.329
21973TIP3   OH265795   9.771   1.155   1.566
21973TIP3    H165796   9.867   1.160   1.564
21973TIP3    H265797   9.742   1.212   1.495
21974TIP3   OH265798   1.118   0.618   1.679
21974TIP3    H165799   1.179   0.685   1.647
21974TIP3    H265800   1.165   0.575   1.751
21975TIP3   OH265801   1.256   0.481   1.867
21975TIP3    H165802   1.200   0.452   1.938
21975TIP3    H265803   1.332   0.520   1.910
21976TIP3   OH265804   1.184   0.392   1.534
21976TIP3    H165805   1.117   0.393   1.466
21976TIP3    H265806   1.164   0.468   1.588
21977TIP3   OH265807   1.066   0.056   1.490
21977TIP3    H165808   1.025   0.107   1.420
21977TIP3    H265809   1.041  -0.034   1.472
21978TIP3   OH265810   7.541   9.031   1.469
21978TIP3    H165811   7.617   9.007   1.521
21978TIP3    H265812   7.468   8.984   1.509
21979TIP3   OH265813   7.784   8.990   1.595
21979TIP3    H165814   7.825   8.913   1.557
21979TIP3    H265815   7.853   9.056   1.596
21980TIP3   OH265816   0.812   1.271   1.854
21980TIP3    H165817   0.868   1.264   1.777
21980TIP3    H265818   0.853   1.339   1.908
21981TIP3   OH265819   0.247   1.124   1.534
21981TIP3    H165820   0.335   1.145   1.505
21981TIP3    H265821   0.218   1.053   1.476
21982TIP3   OH265822   0.963   1.234   1.627
21982TIP3    H165823   0.952   1.139   1.618
21982TIP3    H265824   0.922   1.270   1.548
21983TIP3   OH265825   9.374   0.987   1.610
21983TIP3    H165826   9.396   1.050   1.680
21983TIP3    H265827   9.456   0.942   1.592
21984TIP3   OH265828   2.463   0.750   1.568
21984TIP3    H165829   2.442   0.843   1.559
21984TIP3    H265830   2.378   0.706   1.564
21985TIP3   OH265831   2.447   0.752   1.953
21985TIP3    H165832   2.468   0.725   2.043
21985TIP3    H265833   2.404   0.676   1.914
21986TIP3   OH265834   2.692   1.058   1.651
21986TIP3    H165835   2.692   0.988   1.717
21986TIP3    H265836   2.732   1.132   1.695
21987TIP3   OH265837   1.753   1.036   2.105
21987TIP3    H165838   1.728   0.954   2.063
21987TIP3    H265839   1.834   1.062   2.060
21988TIP3   OH265840   1.432   0.255   1.837
21988TIP3    H165841   1.400   0.344   1.851
21988TIP3    H265842   1.373   0.219   1.771
21989TIP3   OH265843   1.516   0.540   1.941
21989TIP3    H165844   1.575   0.478   1.985
21989TIP3    H265845   1.573   0.589   1.881
21990TIP3   OH265846   2.347   1.515   1.668
21990TIP3    H165847   2.392   1.451   1.613
21990TIP3    H265848   2.343   1.474   1.754
21991TIP3   OH265849   2.255   0.970   2.006
21991TIP3    H165850   2.289   0.897   1.954
21991TIP3    H265851   2.330   1.029   2.016
21992TIP3   OH265852   3.278   0.316   2.017
21992TIP3    H165853   3.265   0.403   2.054
21992TIP3    H265854   3.292   0.331   1.924
21993TIP3   OH265855   2.676   0.480   2.055
21993TIP3    H165856   2.711   0.391   2.066
21993TIP3    H265857   2.644   0.481   1.965
21994TIP3   OH265858   2.046   0.137   1.972
21994TIP3    H165859   1.996   0.204   1.926
21994TIP3    H265860   1.985   0.099   2.035
21995TIP3   OH265861   2.703   0.231   1.640
21995TIP3    H165862   2.769   0.213   1.707
21995TIP3    H265863   2.753   0.265   1.566
21996TIP3   OH265864   2.092   0.536   1.865
21996TIP3    H165865   2.179   0.504   1.887
21996TIP3    H265866   2.040   0.458   1.849
21997TIP3   OH265867   2.350   0.976   1.447
21997TIP3    H165868   2.292   0.951   1.375
21997TIP3    H265869   2.312   1.057   1.481
21998TIP3   OH265870   2.911   0.230   1.819
21998TIP3    H165871   2.916   0.187   1.905
21998TIP3    H265872   2.962   0.310   1.829
21999TIP3   OH265873   1.318   0.784   1.586
21999TIP3    H165874   1.300   0.807   1.494
21999TIP3    H265875   1.375   0.854   1.617
22000TIP3   OH265876   2.762   1.293   1.812
22000TIP3    H165877   2.673   1.291   1.848
22000TIP3    H265878   2.769   1.380   1.771
22001TIP3   OH265879   3.039   0.171   2.066
22001TIP3    H165880   3.000   0.207   2.146
22001TIP3    H265881   3.124   0.215   2.059
22002TIP3   OH265882   2.474   1.348   1.490
22002TIP3    H165883   2.517   1.265   1.471
22002TIP3    H265884   2.531   1.414   1.450
22003TIP3   OH265885   2.603   1.127   1.400
22003TIP3    H165886   2.545   1.051   1.393
22003TIP3    H265887   2.659   1.107   1.475
22004TIP3   OH265888   2.283   0.595   1.397
22004TIP3    H165889   2.198   0.635   1.416
22004TIP3    H265890   2.308   0.630   1.312
22005TIP3   OH265891   2.244   0.381   1.139
22005TIP3    H165892   2.286   0.392   1.224
22005TIP3    H265893   2.307   0.331   1.087
22006TIP3   OH265894   3.185   0.837   1.994
22006TIP3    H165895   3.108   0.892   2.010
22006TIP3    H265896   3.224   0.872   1.914
22007TIP3   OH265897   2.620   0.689   1.342
22007TIP3    H165898   2.559   0.705   1.415
22007TIP3    H265899   2.700   0.657   1.384
22008TIP3   OH265900   1.856   0.673   1.818
22008TIP3    H165901   1.818   0.642   1.736
22008TIP3    H265902   1.940   0.629   1.824
22009TIP3   OH265903   1.981   1.084   1.955
22009TIP3    H165904   1.965   1.061   1.863
22009TIP3    H265905   2.069   1.051   1.972
22010TIP3   OH265906   2.065   0.654   2.112
22010TIP3    H165907   2.085   0.634   2.020
22010TIP3    H265908   2.128   0.722   2.136
22011TIP3   OH265909   2.517   1.306   1.928
22011TIP3    H165910   2.509   1.386   1.980
22011TIP3    H265911   2.511   1.235   1.992
22012TIP3   OH265912   2.221   1.223   1.493
22012TIP3    H165913   2.296   1.281   1.507
22012TIP3    H265914   2.155   1.279   1.452
22013TIP3   OH265915   9.522   9.027   1.264
22013TIP3    H165916   9.443   9.045   1.314
22013TIP3    H265917   9.537   9.108   1.214
22014TIP3   OH265918   1.739   0.522   1.603
22014TIP3    H165919   1.710   0.609   1.575
22014TIP3    H265920   1.663   0.466   1.589
22015TIP3   OH265921   2.790   1.158   0.812
22015TIP3    H165922   2.798   1.252   0.796
22015TIP3    H265923   2.878   1.124   0.797
22016TIP3   OH265924   2.099   1.473   1.292
22016TIP3    H165925   2.052   1.449   1.212
22016TIP3    H265926   2.065   1.560   1.315
22017TIP3   OH265927   1.536   1.320   1.678
22017TIP3    H165928   1.585   1.315   1.761
22017TIP3    H265929   1.481   1.242   1.678
22018TIP3   OH265930   2.305   1.369   0.932
22018TIP3    H165931   2.359   1.297   0.901
22018TIP3    H265932   2.332   1.383   1.022
22019TIP3   OH265933   2.349   1.419   1.203
22019TIP3    H165934   2.263   1.429   1.243
22019TIP3    H265935   2.403   1.379   1.272
22020TIP3   OH265936   8.799   9.204   1.263
22020TIP3    H165937   8.767   9.205   1.353
22020TIP3    H265938   8.759   9.126   1.224
22021TIP3   OH265939   1.920   0.326   1.817
22021TIP3    H165940   1.831   0.301   1.841
22021TIP3    H265941   1.931   0.291   1.728
22022TIP3   OH265942   2.428   0.411   1.546
22022TIP3    H165943   2.371   0.478   1.508
22022TIP3    H265944   2.485   0.383   1.475
22023TIP3   OH265945   2.586   0.435   1.789
22023TIP3    H165946   2.525   0.468   1.723
22023TIP3    H265947   2.619   0.353   1.752
22024TIP3   OH265948   8.451   9.181   1.227
22024TIP3    H165949   8.446   9.177   1.323
22024TIP3    H265950   8.375   9.233   1.201
22025TIP3   OH265951   1.438  -0.032   1.609
22025TIP3    H165952   1.484   0.001   1.532
22025TIP3    H265953   1.377   0.038   1.632
22026TIP3   OH265954   2.540   0.667   2.198
22026TIP3    H165955   2.597   0.608   2.149
22026TIP3    H265956   2.597   0.702   2.267
22027TIP3   OH265957   2.292   0.148   1.866
22027TIP3    H165958   2.204   0.141   1.901
22027TIP3    H265959   2.349   0.134   1.941
22028TIP3   OH265960   1.696   0.187   1.904
22028TIP3    H165961   1.610   0.200   1.864
22028TIP3    H265962   1.722   0.099   1.876
22029TIP3   OH265963   1.964   0.193   1.581
22029TIP3    H165964   2.056   0.210   1.558
22029TIP3    H265965   1.915   0.215   1.502
22030TIP3   OH265966   2.732   0.220   2.076
22030TIP3    H165967   2.708   0.202   2.167
22030TIP3    H265968   2.689   0.150   2.026
22031TIP3   OH265969   1.807   0.220   1.358
22031TIP3    H165970   1.732   0.181   1.314
22031TIP3    H265971   1.859   0.259   1.288
22032TIP3   OH265972   2.346   0.477   1.956
22032TIP3    H165973   2.418   0.429   1.915
22032TIP3    H265974   2.340   0.442   2.044
22033TIP3   OH265975   8.377   9.166   1.848
22033TIP3    H165976   8.410   9.089   1.893
22033TIP3    H265977   8.451   9.196   1.794
22034TIP3   OH265978   2.062   0.751   1.383
22034TIP3    H165979   1.986   0.698   1.361
22034TIP3    H265980   2.038   0.793   1.465
22035TIP3   OH265981   2.956   0.983   2.007
22035TIP3    H165982   2.989   1.045   1.942
22035TIP3    H265983   2.871   0.955   1.973
22036TIP3   OH265984   2.515   0.072   1.236
22036TIP3    H165985   2.422   0.049   1.238
22036TIP3    H265986   2.517   0.167   1.246
22037TIP3   OH265987   2.588   0.335   1.322
22037TIP3    H165988   2.674   0.318   1.360
22037TIP3    H265989   2.607   0.380   1.240
22038TIP3   OH265990   1.719   0.774   2.027
22038TIP3    H165991   1.761   0.760   1.942
22038TIP3    H265992   1.745   0.698   2.080
22039TIP3   OH265993   2.203   0.907   1.203
22039TIP3    H165994   2.159   0.992   1.200
22039TIP3    H265995   2.145   0.852   1.256
22040TIP3   OH265996   3.025   0.406   1.164
22040TIP3    H165997   2.962   0.360   1.109
22040TIP3    H265998   3.027   0.495   1.128
22041TIP3   OH265999   2.698   1.205   1.075
22041TIP3    H166000   2.756   1.190   1.149
22041TIP3    H266001   2.750   1.179   0.998
22042TIP3   OH266002   2.709   0.849   1.929
22042TIP3    H166003   2.617   0.823   1.920
22042TIP3    H266004   2.758   0.782   1.881
22043TIP3   OH266005   1.851   1.085   1.681
22043TIP3    H166006   1.834   1.160   1.624
22043TIP3    H266007   1.787   1.019   1.653
22044TIP3   OH266008   1.405   0.382   1.368
22044TIP3    H166009   1.449   0.466   1.377
22044TIP3    H266010   1.330   0.387   1.429
22045TIP3   OH266011   2.010   0.859   1.633
22045TIP3    H166012   1.974   0.947   1.631
22045TIP3    H266013   1.941   0.805   1.672
22046TIP3   OH266014   2.122   1.427   2.111
22046TIP3    H166015   2.159   1.503   2.065
22046TIP3    H266016   2.186   1.407   2.179
22047TIP3   OH266017   1.767   1.323   1.518
22047TIP3    H166018   1.683   1.323   1.565
22047TIP3    H266019   1.796   1.414   1.520
22048TIP3   OH266020   2.521   1.075   2.085
22048TIP3    H166021   2.500   1.037   2.171
22048TIP3    H266022   2.584   1.014   2.047
22049TIP3   OH266023   2.492   0.889   1.056
22049TIP3    H166024   2.510   0.983   1.064
22049TIP3    H266025   2.404   0.884   1.020
22050TIP3   OH266026   2.818   1.433   0.798
22050TIP3    H166027   2.865   1.501   0.750
22050TIP3    H266028   2.739   1.476   0.830
22051TIP3   OH266029   1.855   0.933   0.978
22051TIP3    H166030   1.855   0.843   0.945
22051TIP3    H266031   1.838   0.923   1.072
22052TIP3   OH266032   1.802   0.934   1.250
22052TIP3    H166033   1.800   0.901   1.340
22052TIP3    H266034   1.803   1.030   1.259
22053TIP3   OH266035   1.506   0.621   1.436
22053TIP3    H166036   1.462   0.665   1.509
22053TIP3    H266037   1.573   0.684   1.407
22054TIP3   OH266038   2.565   0.022   1.508
22054TIP3    H166039   2.546   0.043   1.416
22054TIP3    H266040   2.599   0.103   1.545
22055TIP3   OH266041   2.065   1.140   1.198
22055TIP3    H166042   1.978   1.154   1.235
22055TIP3    H266043   2.073   1.207   1.130
22056TIP3   OH266044   2.253   0.203   1.603
22056TIP3    H166045   2.314   0.275   1.584
22056TIP3    H266046   2.259   0.190   1.698
22057TIP3   OH266047   8.934   9.180   1.714
22057TIP3    H166048   8.916   9.260   1.764
22057TIP3    H266049   8.994   9.208   1.645
22058TIP3   OH266050   1.805   1.212   1.264
22058TIP3    H166051   1.774   1.279   1.203
22058TIP3    H266052   1.789   1.249   1.351
22059TIP3   OH266053   8.438   9.166   1.500
22059TIP3    H166054   8.430   9.254   1.538
22059TIP3    H266055   8.530   9.143   1.512
22060TIP3   OH266056   2.809   0.616   1.791
22060TIP3    H166057   2.736   0.554   1.796
22060TIP3    H266058   2.882   0.570   1.833
22061TIP3   OH266059   1.510   0.862   1.236
22061TIP3    H166060   1.576   0.914   1.282
22061TIP3    H266061   1.561   0.801   1.182
22062TIP3   OH266062   1.466   0.118   1.386
22062TIP3    H166063   1.469   0.214   1.385
22062TIP3    H266064   1.381   0.096   1.347
22063TIP3   OH266065   2.780   1.567   1.736
22063TIP3    H166066   2.735   1.615   1.666
22063TIP3    H266067   2.873   1.582   1.719
22064TIP3   OH266068   1.393   1.075   1.665
22064TIP3    H166069   1.303   1.101   1.682
22064TIP3    H266070   1.403   1.084   1.570
22065TIP3   OH266071   2.015   1.137   0.893
22065TIP3    H166072   1.956   1.070   0.928
22065TIP3    H266073   2.087   1.087   0.854
22066TIP3   OH266074   2.463   1.165   0.806
22066TIP3    H166075   2.545   1.168   0.855
22066TIP3    H266076   2.489   1.178   0.715
22067TIP3   OH266077   1.656   0.657   1.108
22067TIP3    H166078   1.707   0.629   1.185
22067TIP3    H266079   1.720   0.661   1.037
22068TIP3   OH266080   2.182   0.859   0.923
22068TIP3    H166081   2.159   0.871   1.015
22068TIP3    H266082   2.180   0.764   0.910
22069TIP3   OH266083   1.868   0.555   1.336
22069TIP3    H166084   1.834   0.523   1.419
22069TIP3    H266085   1.896   0.477   1.289
22070TIP3   OH266086   1.963   0.347   1.171
22070TIP3    H166087   1.930   0.351   1.081
22070TIP3    H266088   2.057   0.361   1.164
22071TIP3   OH266089   2.787   0.680   0.841
22071TIP3    H166090   2.758   0.629   0.765
22071TIP3    H266091   2.757   0.769   0.823
22072TIP3   OH266092   1.774   1.421   1.078
22072TIP3    H166093   1.868   1.411   1.061
22072TIP3    H266094   1.740   1.463   0.999
22073TIP3   OH266095   1.254   0.795   1.294
22073TIP3    H166096   1.343   0.824   1.278
22073TIP3    H266097   1.250   0.707   1.258
22074TIP3   OH266098   1.166   1.410   1.701
22074TIP3    H166099   1.100   1.349   1.669
22074TIP3    H266100   1.211   1.363   1.771
22075TIP3   OH266101   1.291   1.280   1.898
22075TIP3    H166102   1.297   1.198   1.946
22075TIP3    H266103   1.339   1.343   1.952
22076TIP3   OH266104   3.035   1.660   1.695
22076TIP3    H166105   3.059   1.716   1.769
22076TIP3    H266106   3.084   1.695   1.621
22077TIP3   OH266107   2.923   0.863   1.167
22077TIP3    H166108   2.942   0.957   1.173
22077TIP3    H266109   2.967   0.825   1.244
22078TIP3   OH266110   3.050   0.730   1.375
22078TIP3    H166111   2.980   0.698   1.432
22078TIP3    H266112   3.102   0.788   1.431
22079TIP3   OH266113   3.076   1.114   1.799
22079TIP3    H166114   3.147   1.062   1.762
22079TIP3    H266115   3.085   1.200   1.758
22080TIP3   OH266116   2.934   1.413   2.014
22080TIP3    H166117   2.865   1.479   2.022
22080TIP3    H266118   2.905   1.357   1.943
22081TIP3   OH266119   2.988   0.641   1.020
22081TIP3    H166120   2.920   0.643   0.952
22081TIP3    H266121   2.973   0.720   1.071
22082TIP3   OH266122   2.845   0.321   0.980
22082TIP3    H166123   2.823   0.361   0.895
22082TIP3    H266124   2.823   0.229   0.970
22083TIP3   OH266125   2.847   0.595   1.517
22083TIP3    H166126   2.867   0.502   1.517
22083TIP3    H266127   2.838   0.618   1.609
22084TIP3   OH266128   2.802   0.054   0.964
22084TIP3    H166129   2.876   0.023   1.017
22084TIP3    H266130   2.730  -0.004   0.985
22085TIP3   OH266131   2.855   0.303   1.412
22085TIP3    H166132   2.894   0.217   1.427
22085TIP3    H266133   2.911   0.344   1.346
22086TIP3   OH266134   3.026   0.487   1.903
22086TIP3    H166135   3.110   0.509   1.863
22086TIP3    H266136   3.030   0.522   1.992
22087TIP3   OH266137   3.074   0.624   2.134
22087TIP3    H166138   3.018   0.667   2.199
22087TIP3    H266139   3.121   0.695   2.092
22088TIP3   OH266140   2.967   0.057   1.452
22088TIP3    H166141   3.017   0.046   1.533
22088TIP3    H266142   2.907  -0.017   1.451
22089TIP3   OH266143   9.586   9.234   1.085
22089TIP3    H166144   9.623   9.163   1.032
22089TIP3    H266145   9.650   9.305   1.079
22090TIP3   OH266146   8.008   9.082   1.844
22090TIP3    H166147   7.921   9.102   1.879
22090TIP3    H266148   8.014   9.133   1.763
22091TIP3   OH266149   2.613   1.531   1.350
22091TIP3    H166150   2.662   1.509   1.271
22091TIP3    H266151   2.672   1.588   1.399
22092TIP3   OH266152   1.809   1.613   2.165
22092TIP3    H166153   1.723   1.605   2.205
22092TIP3    H266154   1.792   1.635   2.074
22093TIP3   OH266155   2.226   1.641   1.963
22093TIP3    H166156   2.159   1.638   1.895
22093TIP3    H266157   2.224   1.731   1.994
22094TIP3   OH266158   2.493   1.564   2.024
22094TIP3    H166159   2.410   1.594   1.988
22094TIP3    H266160   2.557   1.628   1.994
22095TIP3   OH266161   2.675   1.753   1.924
22095TIP3    H166162   2.686   1.841   1.889
22095TIP3    H266163   2.720   1.696   1.861
22096TIP3   OH266164   1.486   1.424   2.033
22096TIP3    H166165   1.470   1.411   2.127
22096TIP3    H266166   1.559   1.366   2.013
22097TIP3   OH266167   1.683   1.282   1.908
22097TIP3    H166168   1.703   1.193   1.936
22097TIP3    H266169   1.768   1.325   1.900
22098TIP3   OH266170   1.942   1.385   1.910
22098TIP3    H166171   1.973   1.297   1.889
22098TIP3    H266172   1.979   1.403   1.996
22099TIP3   OH266173   9.053   9.275   2.004
22099TIP3    H166174   9.024   9.199   2.054
22099TIP3    H266175   9.122   9.241   1.947
22100TIP3   OH266176   9.565   9.149   1.884
22100TIP3    H166177   9.607   9.206   1.820
22100TIP3    H266178   9.485   9.195   1.908
22101TIP3   OH266179   3.140   0.023   1.660
22101TIP3    H166180   3.210  -0.029   1.623
22101TIP3    H266181   3.169   0.114   1.649
22102TIP3   OH266182   8.059   8.871   1.648
22102TIP3    H166183   8.108   8.924   1.585
22102TIP3    H266184   8.045   8.929   1.723
22103TIP3   OH266185   8.800   9.008   1.891
22103TIP3    H166186   8.832   9.084   1.843
22103TIP3    H266187   8.725   9.041   1.942
22104TIP3   OH266188   9.271   9.160   1.884
22104TIP3    H166189   9.286   9.135   1.793
22104TIP3    H266190   9.264   9.077   1.930
22105TIP3   OH266191   9.316   9.085   1.445
22105TIP3    H166192   9.233   9.131   1.455
22105TIP3    H266193   9.303   9.001   1.489
22106TIP3   OH266194   1.264   1.183   1.445
22106TIP3    H166195   1.182   1.150   1.410
22106TIP3    H266196   1.257   1.278   1.437
22107TIP3   OH266197   8.203   9.016   1.428
22107TIP3    H166198   8.250   8.953   1.373
22107TIP3    H266199   8.272   9.070   1.467
22108TIP3   OH266200   8.716   9.188   1.529
22108TIP3    H166201   8.770   9.138   1.590
22108TIP3    H266202   8.737   9.280   1.548
22109TIP3   OH266203   2.042   1.375   1.023
22109TIP3    H166204   2.129   1.400   0.991
22109TIP3    H266205   2.016   1.301   0.968
22110TIP3   OH266206   2.752   1.486   1.116
22110TIP3    H166207   2.742   1.391   1.108
22110TIP3    H266208   2.712   1.521   1.036
22111TIP3   OH266209   1.347   1.215   1.086
22111TIP3    H166210   1.344   1.231   1.180
22111TIP3    H266211   1.431   1.170   1.071
22112TIP3   OH266212   4.250   1.010   1.073
22112TIP3    H166213   4.226   1.101   1.054
22112TIP3    H266214   4.176   0.959   1.041
22113TIP3   OH266215   4.253   1.003   1.449
22113TIP3    H166216   4.272   0.987   1.542
22113TIP3    H266217   4.204   0.926   1.421
22114TIP3   OH266218   3.559   0.905   1.812
22114TIP3    H166219   3.574   0.884   1.905
22114TIP3    H266220   3.634   0.959   1.788
22115TIP3   OH266221   4.492   1.304   1.137
22115TIP3    H166222   4.482   1.237   1.204
22115TIP3    H266223   4.519   1.382   1.185
22116TIP3   OH266224   3.528   1.314   1.551
22116TIP3    H166225   3.514   1.220   1.553
22116TIP3    H266226   3.622   1.324   1.532
22117TIP3   OH266227   3.228   0.518   1.331
22117TIP3    H166228   3.183   0.601   1.349
22117TIP3    H266229   3.160   0.463   1.291
22118TIP3   OH266230   3.293   0.809   1.501
22118TIP3    H166231   3.340   0.732   1.534
22118TIP3    H266232   3.339   0.832   1.421
22119TIP3   OH266233   4.113   1.755   1.132
22119TIP3    H166234   4.174   1.703   1.080
22119TIP3    H266235   4.128   1.726   1.222
22120TIP3   OH266236   4.040   1.226   1.499
22120TIP3    H166237   4.073   1.153   1.446
22120TIP3    H266238   4.118   1.280   1.514
22121TIP3   OH266239   4.476   0.735   1.529
22121TIP3    H166240   4.508   0.647   1.550
22121TIP3    H266241   4.431   0.725   1.445
22122TIP3   OH266242   3.798   0.396   1.497
22122TIP3    H166243   3.778   0.469   1.439
22122TIP3    H266244   3.754   0.321   1.458
22123TIP3   OH266245   4.491   0.490   1.121
22123TIP3    H166246   4.558   0.475   1.187
22123TIP3    H266247   4.538   0.523   1.045
22124TIP3   OH266248   3.435   0.596   1.606
22124TIP3    H166249   3.516   0.576   1.654
22124TIP3    H266250   3.441   0.542   1.527
22125TIP3   OH266251   3.875   0.794   1.396
22125TIP3    H166252   3.966   0.770   1.410
22125TIP3    H266253   3.834   0.713   1.365
22126TIP3   OH266254   3.797   0.378   1.937
22126TIP3    H166255   3.740   0.414   1.869
22126TIP3    H266256   3.739   0.365   2.012
22127TIP3   OH266257   4.142   1.232   0.943
22127TIP3    H166258   4.101   1.207   0.861
22127TIP3    H266259   4.103   1.317   0.965
22128TIP3   OH266260   3.876   1.157   1.731
22128TIP3    H166261   3.839   1.235   1.772
22128TIP3    H266262   3.942   1.190   1.671
22129TIP3   OH266263   4.695   0.486   1.297
22129TIP3    H166264   4.678   0.421   1.365
22129TIP3    H266265   4.790   0.497   1.297
22130TIP3   OH266266   3.672   0.492   1.719
22130TIP3    H166267   3.731   0.564   1.737
22130TIP3    H266268   3.711   0.448   1.643
22131TIP3   OH266269   3.152   1.039   1.050
22131TIP3    H166270   3.085   1.065   0.987
22131TIP3    H266271   3.127   1.082   1.131
22132TIP3   OH266272   4.834   0.483   1.663
22132TIP3    H166273   4.741   0.473   1.642
22132TIP3    H266274   4.880   0.450   1.585
22133TIP3   OH266275   4.153   0.096   1.654
22133TIP3    H166276   4.140   0.002   1.668
22133TIP3    H266277   4.077   0.137   1.696
22134TIP3   OH266278   4.291   1.607   0.994
22134TIP3    H166279   4.325   1.523   0.965
22134TIP3    H266280   4.333   1.671   0.936
22135TIP3   OH266281   4.407   1.385   0.885
22135TIP3    H166282   4.366   1.311   0.841
22135TIP3    H266283   4.441   1.347   0.967
22136TIP3   OH266284   4.083   0.861   0.903
22136TIP3    H166285   4.003   0.911   0.887
22136TIP3    H266286   4.127   0.859   0.818
22137TIP3   OH266287   4.045   0.644   0.622
22137TIP3    H166288   4.108   0.697   0.669
22137TIP3    H266289   4.098   0.581   0.574
22138TIP3   OH266290   4.430   0.943   0.878
22138TIP3    H166291   4.374   0.969   0.952
22138TIP3    H266292   4.513   0.920   0.918
22139TIP3   OH266293   3.661   0.939   1.291
22139TIP3    H166294   3.618   0.886   1.224
22139TIP3    H266295   3.737   0.888   1.317
22140TIP3   OH266296   3.791   1.352   1.441
22140TIP3    H166297   3.766   1.317   1.356
22140TIP3    H266298   3.875   1.311   1.460
22141TIP3   OH266299   3.812   0.906   1.648
22141TIP3    H166300   3.831   0.894   1.555
22141TIP3    H266301   3.838   0.996   1.667
22142TIP3   OH266302   4.274   0.800   0.701
22142TIP3    H166303   4.328   0.859   0.753
22142TIP3    H266304   4.296   0.822   0.610
22143TIP3   OH266305   4.017   1.483   0.973
22143TIP3    H166306   4.072   1.550   1.013
22143TIP3    H266307   3.946   1.532   0.931
22144TIP3   OH266308   4.786   0.045   0.750
22144TIP3    H166309   4.705   0.062   0.799
22144TIP3    H266310   4.800   0.124   0.698
22145TIP3   OH266311   3.527   0.783   1.097
22145TIP3    H166312   3.468   0.833   1.041
22145TIP3    H266313   3.481   0.700   1.111
22146TIP3   OH266314   4.585   1.411   0.296
22146TIP3    H166315   4.590   1.506   0.286
22146TIP3    H266316   4.675   1.381   0.286
22147TIP3   OH266317   3.177   1.352   1.680
22147TIP3    H166318   3.245   1.358   1.613
22147TIP3    H266319   3.143   1.441   1.688
22148TIP3   OH266320   3.893   1.728   0.780
22148TIP3    H166321   3.848   1.711   0.698
22148TIP3    H266322   3.863   1.815   0.806
22149TIP3   OH266323   3.338   1.584   1.162
22149TIP3    H166324   3.378   1.574   1.249
22149TIP3    H266325   3.286   1.505   1.150
22150TIP3   OH266326   4.097   1.628   0.418
22150TIP3    H166327   4.154   1.560   0.383
22150TIP3    H266328   4.126   1.640   0.508
22151TIP3   OH266329   4.141   1.674   0.685
22151TIP3    H166330   4.056   1.685   0.727
22151TIP3    H266331   4.198   1.640   0.755
22152TIP3   OH266332   3.914   0.181   1.772
22152TIP3    H166333   3.830   0.144   1.747
22152TIP3    H266334   3.892   0.261   1.821
22153TIP3   OH266335   4.349   0.848   0.445
22153TIP3    H166336   4.312   0.822   0.360
22153TIP3    H266337   4.426   0.900   0.422
22154TIP3   OH266338   4.059   0.220   0.750
22154TIP3    H166339   4.026   0.222   0.840
22154TIP3    H266340   4.021   0.141   0.712
22155TIP3   OH266341   3.851   0.686   1.793
22155TIP3    H166342   3.815   0.716   1.876
22155TIP3    H266343   3.840   0.761   1.734
22156TIP3   OH266344   3.728   0.574   1.308
22156TIP3    H166345   3.637   0.553   1.327
22156TIP3    H266346   3.743   0.537   1.221
22157TIP3   OH266347   4.220   0.664   1.036
22157TIP3    H166348   4.167   0.733   0.997
22157TIP3    H266349   4.274   0.632   0.964
22158TIP3   OH266350   4.375   0.693   1.271
22158TIP3    H166351   4.313   0.725   1.207
22158TIP3    H266352   4.410   0.612   1.232
22159TIP3   OH266353   3.714   0.197   0.717
22159TIP3    H166354   3.705   0.194   0.812
22159TIP3    H266355   3.638   0.249   0.688
22160TIP3   OH266356   3.259   0.248   1.581
22160TIP3    H166357   3.333   0.276   1.636
22160TIP3    H266358   3.299   0.213   1.502
22161TIP3   OH266359   3.233   0.226   1.104
22161TIP3    H166360   3.277   0.261   1.026
22161TIP3    H266361   3.170   0.294   1.128
22162TIP3   OH266362   4.393   0.931   1.705
22162TIP3    H166363   4.423   0.863   1.644
22162TIP3    H266364   4.330   0.886   1.761
22163TIP3   OH266365   4.058   0.398   1.375
22163TIP3    H166366   3.972   0.395   1.417
22163TIP3    H266367   4.120   0.399   1.448
22164TIP3   OH266368   3.490   0.453   1.380
22164TIP3    H166369   3.399   0.464   1.353
22164TIP3    H266370   3.511   0.363   1.355
22165TIP3   OH266371   3.762   0.452   1.066
22165TIP3    H166372   3.854   0.467   1.041
22165TIP3    H266373   3.712   0.473   0.987
22166TIP3   OH266374   4.550   0.468   1.573
22166TIP3    H166375   4.526   0.479   1.665
22166TIP3    H266376   4.484   0.410   1.538
22167TIP3   OH266377   3.603   0.480   0.846
22167TIP3    H166378   3.529   0.439   0.803
22167TIP3    H266379   3.654   0.518   0.774
22168TIP3   OH266380   4.141   0.727   1.470
22168TIP3    H166381   4.207   0.681   1.418
22168TIP3    H266382   4.144   0.684   1.555
22169TIP3   OH266383   3.668   0.212   1.348
22169TIP3    H166384   3.631   0.135   1.392
22169TIP3    H266385   3.710   0.176   1.269
22170TIP3   OH266386   4.117   0.628   1.740
22170TIP3    H166387   4.023   0.645   1.751
22170TIP3    H266388   4.157   0.660   1.820
22171TIP3   OH266389   3.854   1.013   0.858
22171TIP3    H166390   3.784   0.950   0.843
22171TIP3    H266391   3.836   1.048   0.945
22172TIP3   OH266392   4.311   0.326   0.718
22172TIP3    H166393   4.217   0.309   0.722
22172TIP3    H266394   4.320   0.419   0.738
22173TIP3   OH266395   4.382   0.576   0.820
22173TIP3    H166396   4.477   0.582   0.831
22173TIP3    H266397   4.359   0.652   0.767
22174TIP3   OH266398   3.558   1.039   1.532
22174TIP3    H166399   3.583   1.013   1.444
22174TIP3    H266400   3.574   0.961   1.585
22175TIP3   OH266401   3.997   1.165   0.678
22175TIP3    H166402   3.953   1.250   0.681
22175TIP3    H266403   3.945   1.109   0.735
22176TIP3   OH266404   4.820   0.666   0.652
22176TIP3    H166405   4.762   0.616   0.594
22176TIP3    H266406   4.820   0.754   0.615
22177TIP3   OH266407   4.521   1.482   0.560
22177TIP3    H166408   4.496   1.415   0.623
22177TIP3    H266409   4.534   1.435   0.478
22178TIP3   OH266410   4.507   1.107   1.399
22178TIP3    H166411   4.417   1.078   1.414
22178TIP3    H266412   4.548   1.036   1.350
22179TIP3   OH266413   3.642   1.340   1.154
22179TIP3    H166414   3.643   1.421   1.103
22179TIP3    H266415   3.549   1.319   1.163
22180TIP3   OH266416   3.213   0.645   0.860
22180TIP3    H166417   3.257   0.729   0.876
22180TIP3    H266418   3.135   0.648   0.916
22181TIP3   OH266419   3.786   1.108   1.104
22181TIP3    H166420   3.750   1.196   1.115
22181TIP3    H266421   3.747   1.056   1.174
22182TIP3   OH266422   3.567   1.580   1.008
22182TIP3    H166423   3.483   1.584   1.053
22182TIP3    H266424   3.599   1.670   1.010
22183TIP3   OH266425   4.280   1.340   1.556
22183TIP3    H166426   4.287   1.345   1.651
22183TIP3    H266427   4.361   1.297   1.528
22184TIP3   OH266428   4.278   1.207   0.466
22184TIP3    H166429   4.329   1.186   0.543
22184TIP3    H266430   4.188   1.185   0.489
22185TIP3   OH266431   4.615   1.687   0.285
22185TIP3    H166432   4.660   1.758   0.240
22185TIP3    H266433   4.535   1.727   0.319
22186TIP3   OH266434   4.439   1.144   0.683
22186TIP3    H166435   4.427   1.079   0.752
22186TIP3    H266436   4.534   1.144   0.667
22187TIP3   OH266437   3.364   1.570   1.781
22187TIP3    H166438   3.375   1.475   1.790
22187TIP3    H266439   3.377   1.604   1.869
22188TIP3   OH266440   3.648   1.189   0.464
22188TIP3    H166441   3.656   1.099   0.433
22188TIP3    H266442   3.628   1.180   0.557
22189TIP3   OH266443   3.594   1.197   0.734
22189TIP3    H166444   3.656   1.169   0.802
22189TIP3    H266445   3.593   1.292   0.741
22190TIP3   OH266446   3.335   0.890   0.932
22190TIP3    H166447   3.272   0.931   0.992
22190TIP3    H266448   3.346   0.955   0.863
22191TIP3   OH266449   4.489   0.515   1.838
22191TIP3    H166450   4.539   0.572   1.897
22191TIP3    H266451   4.423   0.474   1.894
22192TIP3   OH266452   4.353   0.278   0.995
22192TIP3    H166453   4.337   0.297   0.902
22192TIP3    H266454   4.389   0.360   1.029
22193TIP3   OH266455   3.856   1.397   0.686
22193TIP3    H166456   3.769   1.418   0.721
22193TIP3    H266457   3.873   1.467   0.623
22194TIP3   OH266458   4.050   0.455   1.100
22194TIP3    H166459   4.110   0.528   1.080
22194TIP3    H266460   4.049   0.452   1.195
22195TIP3   OH266461   4.192   0.190   1.205
22195TIP3    H166462   4.172   0.268   1.256
22195TIP3    H266463   4.249   0.221   1.134
22196TIP3   OH266464   3.599   1.471   0.753
22196TIP3    H166465   3.569   1.536   0.690
22196TIP3    H266466   3.582   1.510   0.838
22197TIP3   OH266467   3.701   0.183   0.993
22197TIP3    H166468   3.695   0.273   1.025
22197TIP3    H266469   3.795   0.163   0.999
22198TIP3   OH266470   4.607   0.852   1.281
22198TIP3    H166471   4.519   0.816   1.268
22198TIP3    H266472   4.634   0.819   1.367
22199TIP3   OH266473   3.317   1.097   0.744
22199TIP3    H166474   3.371   1.175   0.758
22199TIP3    H266475   3.363   1.048   0.676
22200TIP3   OH266476   3.261   0.376   0.879
22200TIP3    H166477   3.263   0.472   0.877
22200TIP3    H266478   3.180   0.353   0.832
22201TIP3   OH266479   3.652   0.096   1.751
22201TIP3    H166480   3.620   0.066   1.666
22201TIP3    H266481   3.639   0.021   1.809
22202TIP3   OH266482   3.207   1.350   1.142
22202TIP3    H166483   3.146   1.299   1.195
22202TIP3    H266484   3.161   1.363   1.059
22203TIP3   OH266485   3.809   1.393   0.378
22203TIP3    H166486   3.750   1.327   0.414
22203TIP3    H266487   3.883   1.342   0.344
22204TIP3   OH266488   4.247   1.434   0.287
22204TIP3    H166489   4.289   1.373   0.347
22204TIP3    H266490   4.304   1.436   0.211
22205TIP3   OH266491   3.456   0.913   0.594
22205TIP3    H166492   3.505   0.881   0.670
22205TIP3    H266493   3.521   0.918   0.524
22206TIP3   OH266494   3.965   1.110   0.406
22206TIP3    H166495   3.963   1.126   0.501
22206TIP3    H266496   3.960   1.014   0.398
22207TIP3   OH266497   3.666   0.813   0.823
22207TIP3    H166498   3.629   0.775   0.903
22207TIP3    H266499   3.697   0.738   0.773
22208TIP3   OH266500   3.761   0.607   0.659
22208TIP3    H166501   3.731   0.611   0.568
22208TIP3    H266502   3.856   0.614   0.654
22209TIP3   OH266503   4.585   0.942   0.319
22209TIP3    H166504   4.562   0.892   0.240
22209TIP3    H266505   4.553   1.030   0.301
22210TIP3   OH266506   4.065   0.451   1.967
22210TIP3    H166507   4.077   0.475   1.875
22210TIP3    H266508   3.974   0.422   1.972
22211TIP3   OH266509   3.569   1.672   0.563
22211TIP3    H166510   3.663   1.667   0.547
22211TIP3    H266511   3.534   1.718   0.487
22212TIP3   OH266512   3.043   1.056   0.765
22212TIP3    H166513   3.136   1.078   0.770
22212TIP3    H266514   3.042   0.965   0.734
22213TIP3   OH266515   2.956   1.662   1.190
22213TIP3    H166516   2.892   1.599   1.158
22213TIP3    H266517   3.006   1.615   1.256
22214TIP3   OH266518   3.085   1.533   1.384
22214TIP3    H166519   3.075   1.439   1.399
22214TIP3    H266520   3.147   1.562   1.451
22215TIP3   OH266521   4.719   1.130   0.656
22215TIP3    H166522   4.784   1.193   0.626
22215TIP3    H266523   4.759   1.089   0.733
22216TIP3   OH266524   4.843   0.994   0.858
22216TIP3    H166525   4.780   0.955   0.919
22216TIP3    H266526   4.911   1.031   0.914
22217TIP3   OH266527   4.780   0.903   0.508
22217TIP3    H166528   4.713   0.904   0.440
22217TIP3    H266529   4.758   0.979   0.563
22218TIP3   OH266530   4.654   0.574   0.461
22218TIP3    H166531   4.612   0.616   0.387
22218TIP3    H266532   4.630   0.481   0.452
22219TIP3   OH266533   4.659   0.848   1.009
22219TIP3    H166534   4.663   0.754   0.993
22219TIP3    H266535   4.649   0.856   1.104
22220TIP3   OH266536   3.289   0.917   1.753
22220TIP3    H166537   3.277   0.892   1.661
22220TIP3    H266538   3.384   0.920   1.764
22221TIP3   OH266539   4.598   0.309   0.450
22221TIP3    H166540   4.671   0.277   0.503
22221TIP3    H266541   4.525   0.251   0.471
22222TIP3   OH266542   4.661   0.567   0.904
22222TIP3    H166543   4.696   0.480   0.919
22222TIP3    H266544   4.713   0.603   0.832
22223TIP3   OH266545   4.762   0.314   0.942
22223TIP3    H166546   4.812   0.296   1.022
22223TIP3    H266547   4.700   0.241   0.935
22224TIP3   OH266548   3.467   0.302   1.755
22224TIP3    H166549   3.525   0.227   1.767
22224TIP3    H266550   3.525   0.378   1.750
22225TIP3   OH266551   3.276   0.576   1.837
22225TIP3    H166552   3.320   0.575   1.752
22225TIP3    H266553   3.275   0.668   1.863
22226TIP3   OH266554   4.849   0.251   0.573
22226TIP3    H166555   4.885   0.180   0.520
22226TIP3    H266556   4.913   0.322   0.564
22227TIP3   OH266557   3.250   0.082   1.332
22227TIP3    H166558   3.158   0.078   1.359
22227TIP3    H266559   3.249   0.139   1.255
22228TIP3   OH266560   4.395   1.788   0.822
22228TIP3    H166561   4.449   1.768   0.745
22228TIP3    H266562   4.459   1.811   0.890
22229TIP3   OH266563   3.466   0.134   2.120
22229TIP3    H166564   3.437   0.125   2.210
22229TIP3    H266565   3.404   0.198   2.082
22230TIP3   OH266566   3.594   1.815   1.621
22230TIP3    H166567   3.563   1.866   1.696
22230TIP3    H266568   3.588   1.875   1.547
22231TIP3   OH266569   3.279   1.669   1.542
22231TIP3    H166570   3.309   1.649   1.631
22231TIP3    H266571   3.348   1.633   1.486
22232TIP3   OH266572   3.470   1.542   1.398
22232TIP3    H166573   3.487   1.461   1.447
22232TIP3    H266574   3.556   1.581   1.386
22233TIP3   OH266575   3.737   1.639   1.391
22233TIP3    H166576   3.770   1.550   1.396
22233TIP3    H266577   3.734   1.669   1.482
22234TIP3   OH266578   4.319   0.293   1.498
22234TIP3    H166579   4.269   0.226   1.545
22234TIP3    H266580   4.377   0.244   1.440
22235TIP3   OH266581   4.842   0.192   1.403
22235TIP3    H166582   4.874   0.226   1.319
22235TIP3    H266583   4.747   0.186   1.392
22236TIP3   OH266584   4.933   0.277   1.159
22236TIP3    H166585   4.998   0.218   1.119
22236TIP3    H266586   4.963   0.365   1.135
22237TIP3   OH266587   0.294   9.240   1.504
22237TIP3    H166588   0.203   9.211   1.504
22237TIP3    H266589   0.344   9.158   1.500
22238TIP3   OH266590   0.084   9.113   1.152
22238TIP3    H166591   0.111   9.168   1.078
22238TIP3    H266592   0.052   9.175   1.218
22239TIP3   OH266593   4.006   0.033   1.383
22239TIP3    H166594   4.065   0.084   1.326
22239TIP3    H266595   4.019   0.072   1.470
22240TIP3   OH266596   4.566   0.178   1.363
22240TIP3    H166597   4.548   0.144   1.276
22240TIP3    H266598   4.546   0.105   1.422
22241TIP3   OH266599   4.579   0.103   0.933
22241TIP3    H166600   4.494   0.146   0.939
22241TIP3    H266601   4.567   0.019   0.976
22242TIP3   OH266602   3.067   1.435   0.920
22242TIP3    H166603   2.982   1.402   0.892
22242TIP3    H266604   3.057   1.530   0.924
22243TIP3   OH266605   3.465   0.029   0.917
22243TIP3    H166606   3.511  -0.032   0.859
22243TIP3    H266607   3.534   0.085   0.952
22244TIP3   OH266608   3.978   0.207   1.015
22244TIP3    H166609   4.034   0.155   1.073
22244TIP3    H266610   3.998   0.298   1.037
22245TIP3   OH266611   3.838   1.631   0.511
22245TIP3    H166612   3.924   1.657   0.479
22245TIP3    H266613   3.813   1.557   0.455
22246TIP3   OH266614   4.557   1.749   0.604
22246TIP3    H166615   4.553   1.654   0.590
22246TIP3    H266616   4.519   1.786   0.524
22247TIP3   OH266617   3.143   1.471   0.573
22247TIP3    H166618   3.137   1.488   0.667
22247TIP3    H266619   3.228   1.429   0.562
22248TIP3   OH266620   5.014   0.771   0.820
22248TIP3    H166621   4.976   0.858   0.833
22248TIP3    H266622   4.946   0.722   0.774
22249TIP3   OH266623   5.087   1.055   0.966
22249TIP3    H166624   5.146   0.991   1.006
22249TIP3    H266625   5.142   1.101   0.903
22250TIP3   OH266626   5.573   0.633   0.984
22250TIP3    H166627   5.584   0.700   0.917
22250TIP3    H266628   5.587   0.550   0.939
22251TIP3   OH266629   5.209   0.831   1.095
22251TIP3    H166630   5.303   0.839   1.107
22251TIP3    H266631   5.199   0.779   1.015
22252TIP3   OH266632   4.920   1.298   0.551
22252TIP3    H166633   4.877   1.325   0.470
22252TIP3    H266634   4.949   1.380   0.591
22253TIP3   OH266635   5.837   0.901   0.103
22253TIP3    H166636   5.892   0.946   0.167
22253TIP3    H266637   5.896   0.842   0.056
22254TIP3   OH266638   6.576   0.296   0.233
22254TIP3    H166639   6.497   0.308   0.286
22254TIP3    H266640   6.581   0.375   0.179
22255TIP3   OH266641   5.313   1.022   0.564
22255TIP3    H166642   5.247   1.076   0.520
22255TIP3    H266643   5.264   0.946   0.595
22256TIP3   OH266644   9.390   5.742   7.920
22256TIP3    H166645   9.379   5.698   7.835
22256TIP3    H266646   9.481   5.770   7.921
22257TIP3   OH266647   5.861   0.480   0.230
22257TIP3    H166648   5.843   0.479   0.324
22257TIP3    H266649   5.820   0.401   0.197
22258TIP3   OH266650   5.520   0.807   0.774
22258TIP3    H166651   5.428   0.797   0.800
22258TIP3    H266652   5.523   0.776   0.684
22259TIP3   OH266653   5.511   0.455   0.201
22259TIP3    H166654   5.511   0.449   0.296
22259TIP3    H266655   5.432   0.504   0.180
22260TIP3   OH266656   5.037   0.504   1.067
22260TIP3    H166657   5.117   0.521   1.116
22260TIP3    H266658   5.067   0.469   0.983
22261TIP3   OH266659   5.029   0.482   0.591
22261TIP3    H166660   5.075   0.514   0.513
22261TIP3    H266661   4.967   0.551   0.613
22262TIP3   OH266662   5.272   0.701   0.857
22262TIP3    H166663   5.182   0.717   0.830
22262TIP3    H266664   5.290   0.612   0.826
22263TIP3   OH266665   5.549   0.691   0.530
22263TIP3    H166666   5.632   0.733   0.507
22263TIP3    H266667   5.489   0.718   0.460
22264TIP3   OH266668   5.385   0.744   0.324
22264TIP3    H166669   5.316   0.698   0.277
22264TIP3    H266670   5.443   0.778   0.255
22265TIP3   OH266671   5.601   1.276   0.339
22265TIP3    H166672   5.555   1.192   0.331
22265TIP3    H266673   5.620   1.284   0.432
22266TIP3   OH266674   6.104   0.603   0.204
22266TIP3    H166675   6.012   0.576   0.206
22266TIP3    H266676   6.101   0.696   0.183
22267TIP3   OH266677   5.003   0.902   0.344
22267TIP3    H166678   5.051   0.983   0.363
22267TIP3    H266679   4.928   0.904   0.403
22268TIP3   OH266680   8.700   6.064   7.953
22268TIP3    H166681   8.722   5.977   7.919
22268TIP3    H266682   8.678   6.049   8.045
22269TIP3   OH266683   5.374   1.441   0.224
22269TIP3    H166684   5.424   1.375   0.272
22269TIP3    H266685   5.399   1.524   0.265
22270TIP3   OH266686   5.111   1.149   0.424
22270TIP3    H166687   5.050   1.191   0.484
22270TIP3    H266688   5.129   1.215   0.358
22271TIP3   OH266689   6.183   0.528   0.457
22271TIP3    H166690   6.155   0.550   0.368
22271TIP3    H266691   6.154   0.601   0.511
22272TIP3   OH266692   5.814   0.770   0.552
22272TIP3    H166693   5.901   0.730   0.556
22272TIP3    H266694   5.782   0.766   0.642
22273TIP3   OH266695   6.041   0.406   0.706
22273TIP3    H166696   5.961   0.427   0.754
22273TIP3    H266697   6.049   0.477   0.642
22274TIP3   OH266698   5.492   0.429   0.476
22274TIP3    H166699   5.501   0.518   0.508
22274TIP3    H266700   5.557   0.379   0.526
22275TIP3   OH266701   5.108   1.353   0.226
22275TIP3    H166702   5.167   1.428   0.239
22275TIP3    H266703   5.154   1.296   0.165
22276TIP3   OH266704   5.055   0.632   0.366
22276TIP3    H166705   5.058   0.727   0.362
22276TIP3    H266706   4.973   0.608   0.324
22277TIP3   OH266707   5.429   0.351   1.265
22277TIP3    H166708   5.419   0.336   1.171
22277TIP3    H266709   5.448   0.264   1.301
22278TIP3   OH266710   4.973   1.555   0.628
22278TIP3    H166711   4.918   1.607   0.686
22278TIP3    H266712   4.976   1.606   0.546
22279TIP3   OH266713   8.852   6.267   7.846
22279TIP3    H166714   8.801   6.196   7.884
22279TIP3    H266715   8.937   6.263   7.888
22280TIP3   OH266716   5.253   1.166   0.086
22280TIP3    H166717   5.300   1.128   0.160
22280TIP3    H266718   5.318   1.171   0.016
22281TIP3   OH266719   9.014   5.983   7.891
22281TIP3    H166720   9.013   5.997   7.985
22281TIP3    H266721   9.024   5.889   7.881
22282TIP3   OH266722   5.439   1.060   0.307
22282TIP3    H166723   5.417   1.031   0.395
22282TIP3    H266724   5.477   0.983   0.265
22283TIP3   OH266725   5.558   0.861   0.145
22283TIP3    H166726   5.529   0.866   0.054
22283TIP3    H266727   5.653   0.869   0.141
22284TIP3   OH266728   4.842   1.308   0.263
22284TIP3    H166729   4.934   1.332   0.256
22284TIP3    H266730   4.836   1.220   0.226
22285TIP3   OH266731   9.631   5.460   7.944
22285TIP3    H166732   9.699   5.492   7.884
22285TIP3    H266733   9.625   5.367   7.926
22286TIP3   OH266734   9.631   5.190   7.912
22286TIP3    H166735   9.716   5.172   7.951
22286TIP3    H266736   9.571   5.128   7.953
22287TIP3   OH266737   5.245   0.538   1.240
22287TIP3    H166738   5.292   0.456   1.254
22287TIP3    H266739   5.310   0.598   1.203
22288TIP3   OH266740   6.620   0.534   0.004
22288TIP3    H166741   6.672   0.462  -0.033
22288TIP3    H266742   6.679   0.575   0.068
22289TIP3   OH266743   5.041   0.351   0.827
22289TIP3    H166744   4.948   0.336   0.841
22289TIP3    H266745   5.046   0.400   0.745
22290TIP3   OH266746   5.351   0.267   1.019
22290TIP3    H166747   5.266   0.229   0.998
22290TIP3    H266748   5.415   0.208   0.978
22291TIP3   OH266749   5.145   0.128   0.637
22291TIP3    H166750   5.177   0.181   0.564
22291TIP3    H266751   5.116   0.191   0.703
22292TIP3   OH266752   6.364   0.342   0.386
22292TIP3    H166753   6.295   0.406   0.406
22292TIP3    H266754   6.345   0.268   0.444
22293TIP3   OH266755   4.871   1.684   0.401
22293TIP3    H166756   4.784   1.657   0.372
22293TIP3    H266757   4.859   1.774   0.432
22294TIP3   OH266758   5.262   0.286   0.402
22294TIP3    H166759   5.307   0.225   0.345
22294TIP3    H266760   5.331   0.343   0.437
22295TIP3   OH266761   5.802   0.463   0.500
22295TIP3    H166762   5.787   0.400   0.570
22295TIP3    H266763   5.759   0.543   0.530
22296TIP3   OH266764   4.939   1.728   0.058
22296TIP3    H166765   4.918   1.749   0.149
22296TIP3    H266766   5.025   1.685   0.063
22297TIP3   OH266767   8.638   2.459   1.472
22297TIP3    H166768   8.645   2.551   1.446
22297TIP3    H266769   8.725   2.423   1.454
22298TIP3   OH266770   8.392   1.911   1.605
22298TIP3    H166771   8.372   1.850   1.533
22298TIP3    H266772   8.480   1.943   1.585
22299TIP3   OH266773   8.670   2.521   1.736
22299TIP3    H166774   8.621   2.459   1.790
22299TIP3    H266775   8.666   2.485   1.648
22300TIP3   OH266776   8.344   2.242   1.618
22300TIP3    H166777   8.398   2.194   1.681
22300TIP3    H266778   8.257   2.242   1.656
22301TIP3   OH266779   8.660   2.742   1.456
22301TIP3    H166780   8.668   2.790   1.373
22301TIP3    H266781   8.570   2.758   1.483
22302TIP3   OH266782   8.290   2.471   1.462
22302TIP3    H166783   8.338   2.397   1.499
22302TIP3    H266784   8.333   2.487   1.378
22303TIP3   OH266785   7.987   2.152   1.584
22303TIP3    H166786   7.976   2.163   1.678
22303TIP3    H266787   8.038   2.071   1.574
22304TIP3   OH266788   8.628   1.994   1.500
22304TIP3    H166789   8.619   1.936   1.424
22304TIP3    H266790   8.601   2.080   1.469
22305TIP3   OH266791   8.842   1.950   1.676
22305TIP3    H166792   8.764   1.968   1.624
22305TIP3    H266793   8.824   1.991   1.761
22306TIP3   OH266794   8.688   1.622   1.654
22306TIP3    H166795   8.673   1.678   1.579
22306TIP3    H266796   8.680   1.533   1.620
22307TIP3   OH266797   0.296   2.317   1.736
22307TIP3    H166798   0.268   2.406   1.714
22307TIP3    H266799   0.222   2.262   1.711
22308TIP3   OH266800   0.534   2.616   1.800
22308TIP3    H166801   0.534   2.537   1.854
22308TIP3    H266802   0.575   2.683   1.855
22309TIP3   OH266803   0.196   3.084   1.805
22309TIP3    H166804   0.233   3.000   1.777
22309TIP3    H266805   0.133   3.060   1.873
22310TIP3   OH266806   1.062   1.895   2.153
22310TIP3    H166807   1.129   1.929   2.213
22310TIP3    H266808   1.112   1.865   2.077
22311TIP3   OH266809   0.543   1.779   1.789
22311TIP3    H166810   0.612   1.769   1.855
22311TIP3    H266811   0.587   1.823   1.716
22312TIP3   OH266812   0.191   2.537   1.605
22312TIP3    H166813   0.144   2.506   1.527
22312TIP3    H266814   0.145   2.618   1.629
22313TIP3   OH266815   0.756   1.791   1.963
22313TIP3    H166816   0.756   1.768   2.056
22313TIP3    H266817   0.810   1.869   1.957
22314TIP3   OH266818   8.941   2.323   1.736
22314TIP3    H166819   8.934   2.349   1.644
22314TIP3    H266820   9.000   2.389   1.775
22315TIP3   OH266821   0.603   2.836   1.976
22315TIP3    H166822   0.513   2.833   2.008
22315TIP3    H266823   0.607   2.916   1.924
22316TIP3   OH266824   0.319   2.894   1.642
22316TIP3    H166825   0.366   2.813   1.621
22316TIP3    H266826   0.375   2.963   1.605
22317TIP3   OH266827   0.459   2.683   1.544
22317TIP3    H166828   0.414   2.607   1.506
22317TIP3    H266829   0.490   2.652   1.629
22318TIP3   OH266830   0.127   2.166   1.565
22318TIP3    H166831   0.046   2.213   1.546
22318TIP3    H266832   0.173   2.161   1.481
22319TIP3   OH266833   0.089   1.949   1.282
22319TIP3    H166834   0.153   1.998   1.333
22319TIP3    H266835   0.140   1.882   1.236
22320TIP3   OH266836   1.039   2.399   2.133
22320TIP3    H166837   0.960   2.442   2.164
22320TIP3    H266838   1.060   2.442   2.051
22321TIP3   OH266839   0.475   2.246   1.543
22321TIP3    H166840   0.420   2.270   1.618
22321TIP3    H266841   0.557   2.217   1.583
22322TIP3   OH266842   9.608   2.670   2.046
22322TIP3    H166843   9.613   2.588   1.997
22322TIP3    H266844   9.670   2.659   2.119
22323TIP3   OH266845   0.353   2.829   2.098
22323TIP3    H166846   0.260   2.851   2.091
22323TIP3    H266847   0.355   2.746   2.144
22324TIP3   OH266848   0.318   2.105   1.364
22324TIP3    H166849   0.373   2.161   1.418
22324TIP3    H266850   0.342   2.127   1.274
22325TIP3   OH266851   0.059   2.787   1.642
22325TIP3    H166852   0.139   2.837   1.656
22325TIP3    H266853  -0.001   2.849   1.602
22326TIP3   OH266854   0.829   1.347   1.412
22326TIP3    H166855   0.751   1.364   1.464
22326TIP3    H266856   0.844   1.429   1.364
22327TIP3   OH266857   0.632   2.713   0.960
22327TIP3    H166858   0.638   2.807   0.948
22327TIP3    H266859   0.721   2.681   0.949
22328TIP3   OH266860   9.732   3.032   1.436
22328TIP3    H166861   9.696   3.001   1.353
22328TIP3    H266862   9.686   3.114   1.453
22329TIP3   OH266863   0.143   2.929   1.084
22329TIP3    H166864   0.199   2.861   1.047
22329TIP3    H266865   0.173   2.938   1.175
22330TIP3   OH266866   0.189   2.978   1.356
22330TIP3    H166867   0.103   2.987   1.396
22330TIP3    H266868   0.243   2.935   1.424
22331TIP3   OH266869   0.391   2.154   1.107
22331TIP3    H166870   0.357   2.124   1.023
22331TIP3    H266871   0.473   2.198   1.086
22332TIP3   OH266872   0.105   1.524   1.412
22332TIP3    H166873   0.075   1.524   1.503
22332TIP3    H266874   0.065   1.446   1.374
22333TIP3   OH266875   0.265   1.967   1.696
22333TIP3    H166876   0.213   2.037   1.657
22333TIP3    H266877   0.321   1.937   1.624
22334TIP3   OH266878   0.435   2.003   1.924
22334TIP3    H166879   0.362   2.023   1.866
22334TIP3    H266880   0.461   1.914   1.901
22335TIP3   OH266881   9.558   1.499   1.383
22335TIP3    H166882   9.552   1.490   1.478
22335TIP3    H266883   9.478   1.545   1.358
22336TIP3   OH266884   9.067   1.535   1.757
22336TIP3    H166885   9.126   1.572   1.692
22336TIP3    H266886   9.059   1.603   1.824
22337TIP3   OH266887   9.618   1.733   1.714
22337TIP3    H166888   9.698   1.784   1.699
22337TIP3    H266889   9.554   1.771   1.653
22338TIP3   OH266890   9.440   1.790   1.510
22338TIP3    H166891   9.365   1.745   1.471
22338TIP3    H266892   9.492   1.817   1.434
22339TIP3   OH266893   9.693   2.318   1.524
22339TIP3    H166894   9.627   2.251   1.509
22339TIP3    H266895   9.684   2.342   1.616
22340TIP3   OH266896   0.791   2.548   2.161
22340TIP3    H166897   0.830   2.603   2.093
22340TIP3    H266898   0.717   2.505   2.117
22341TIP3   OH266899   0.355   1.630   1.375
22341TIP3    H166900   0.262   1.612   1.386
22341TIP3    H266901   0.365   1.721   1.403
22342TIP3   OH266902   0.427   1.875   1.482
22342TIP3    H166903   0.521   1.879   1.499
22342TIP3    H266904   0.409   1.953   1.430
22343TIP3   OH266905   0.038   2.464   1.338
22343TIP3    H166906  -0.003   2.550   1.344
22343TIP3    H266907  -0.012   2.409   1.398
22344TIP3   OH266908   0.866   1.964   1.315
22344TIP3    H166909   0.806   1.916   1.259
22344TIP3    H266910   0.867   2.053   1.280
22345TIP3   OH266911   0.567   2.783   1.226
22345TIP3    H166912   0.544   2.716   1.290
22345TIP3    H266913   0.579   2.735   1.144
22346TIP3   OH266914   0.564   2.411   2.069
22346TIP3    H166915   0.473   2.381   2.070
22346TIP3    H266916   0.612   2.340   2.025
22347TIP3   OH266917   9.490   2.610   1.761
22347TIP3    H166918   9.492   2.699   1.727
22347TIP3    H266919   9.412   2.607   1.817
22348TIP3   OH266920   9.053   1.944   1.511
22348TIP3    H166921   9.100   2.026   1.527
22348TIP3    H266922   8.980   1.946   1.574
22349TIP3   OH266923   9.645   2.385   1.784
22349TIP3    H166924   9.597   2.467   1.778
22349TIP3    H266925   9.586   2.326   1.832
22350TIP3   OH266926   9.426   2.875   1.657
22350TIP3    H166927   9.357   2.887   1.722
22350TIP3    H266928   9.482   2.952   1.666
22351TIP3   OH266929   0.322   2.512   1.131
22351TIP3    H166930   0.377   2.488   1.205
22351TIP3    H266931   0.234   2.484   1.156
22352TIP3   OH266932   0.662   2.990   0.947
22352TIP3    H166933   0.705   3.061   0.900
22352TIP3    H266934   0.582   3.030   0.981
22353TIP3   OH266935   0.484   2.443   1.345
22353TIP3    H166936   0.470   2.380   1.415
22353TIP3    H266937   0.579   2.443   1.332
22354TIP3   OH266938   9.488   2.490   1.129
22354TIP3    H166939   9.504   2.400   1.098
22354TIP3    H266940   9.469   2.480   1.222
22355TIP3   OH266941   9.433   2.496   1.401
22355TIP3    H166942   9.499   2.463   1.462
22355TIP3    H266943   9.441   2.592   1.408
22356TIP3   OH266944   9.157   2.184   1.578
22356TIP3    H166945   9.129   2.197   1.669
22356TIP3    H266946   9.206   2.263   1.557
22357TIP3   OH266947   0.405   1.577   1.655
22357TIP3    H166948   0.387   1.602   1.564
22357TIP3    H266949   0.442   1.656   1.694
22358TIP3   OH266950   9.701   2.698   1.349
22358TIP3    H166951   9.614   2.718   1.382
22358TIP3    H266952   9.717   2.765   1.282
22359TIP3   OH266953   0.112   1.749   1.747
22359TIP3    H166954   0.171   1.821   1.726
22359TIP3    H266955   0.081   1.768   1.836
22360TIP3   OH266956   0.242   1.487   1.854
22360TIP3    H166957   0.240   1.552   1.923
22360TIP3    H266958   0.296   1.526   1.785
22361TIP3   OH266959   9.442   2.770   1.405
22361TIP3    H166960   9.414   2.838   1.344
22361TIP3    H266961   9.431   2.808   1.491
22362TIP3   OH266962   9.559   1.477   1.662
22362TIP3    H166963   9.549   1.568   1.689
22362TIP3    H266964   9.653   1.462   1.664
22363TIP3   OH266965   0.643   2.184   1.940
22363TIP3    H166966   0.572   2.120   1.949
22363TIP3    H266967   0.717   2.143   1.983
22364TIP3   OH266968   9.162   2.421   1.396
22364TIP3    H166969   9.239   2.477   1.409
22364TIP3    H266970   9.194   2.349   1.341
22365TIP3   OH266971   9.119   1.681   1.520
22365TIP3    H166972   9.108   1.776   1.524
22365TIP3    H266973   9.030   1.647   1.526
22366TIP3   OH266974   0.622   3.079   1.856
22366TIP3    H166975   0.579   3.139   1.796
22366TIP3    H266976   0.715   3.103   1.852
22367TIP3   OH266977   9.050   2.574   1.806
22367TIP3    H166978   8.963   2.588   1.843
22367TIP3    H266979   9.036   2.581   1.711
22368TIP3   OH266980   9.652   2.692   1.042
22368TIP3    H166981   9.594   2.626   1.079
22368TIP3    H266982   9.728   2.643   1.011
22369TIP3   OH266983   0.291   2.737   0.952
22369TIP3    H166984   0.330   2.673   1.012
22369TIP3    H266985   0.348   2.735   0.875
22370TIP3   OH266986   9.296   2.217   1.259
22370TIP3    H166987   9.338   2.177   1.335
22370TIP3    H266988   9.365   2.220   1.193
22371TIP3   OH266989   0.005   2.410   1.069
22371TIP3    H166990   0.007   2.425   1.164
22371TIP3    H266991   0.005   2.315   1.060
22372TIP3   OH266992   9.509   2.115   1.486
22372TIP3    H166993   9.468   2.077   1.563
22372TIP3    H266994   9.541   2.039   1.436
22373TIP3   OH266995   9.606   1.909   1.321
22373TIP3    H166996   9.578   1.911   1.229
22373TIP3    H266997   9.702   1.915   1.316
22374TIP3   OH266998   0.626   2.244   0.983
22374TIP3    H166999   0.607   2.193   0.904
22374TIP3    H267000   0.595   2.332   0.962
22375TIP3   OH267001   9.415   2.978   1.226
22375TIP3    H167002   9.510   2.972   1.213
22375TIP3    H267003   9.383   3.023   1.148
22376TIP3   OH267004   8.892   2.358   1.435
22376TIP3    H167005   8.984   2.382   1.429
22376TIP3    H267006   8.889   2.267   1.404
22377TIP3   OH267007   0.862   3.221   1.852
22377TIP3    H167008   0.922   3.260   1.915
22377TIP3    H267009   0.881   3.266   1.770
22378TIP3   OH267010   0.764   2.430   1.322
22378TIP3    H167011   0.831   2.491   1.293
22378TIP3    H267012   0.802   2.389   1.400
22379TIP3   OH267013   0.888   2.297   1.527
22379TIP3    H167014   0.824   2.254   1.583
22379TIP3    H267015   0.952   2.334   1.588
22380TIP3   OH267016   0.920   2.675   1.951
22380TIP3    H167017   0.991   2.617   1.922
22380TIP3    H267018   0.922   2.748   1.890
22381TIP3   OH267019   0.783   3.003   2.125
22381TIP3    H167020   0.712   3.018   2.187
22381TIP3    H267021   0.750   2.933   2.068
22382TIP3   OH267022   0.826   2.206   1.170
22382TIP3    H167023   0.757   2.205   1.103
22382TIP3    H267024   0.802   2.279   1.227
22383TIP3   OH267025   0.697   1.876   1.123
22383TIP3    H167026   0.656   1.913   1.046
22383TIP3    H267027   0.675   1.783   1.119
22384TIP3   OH267028   0.703   2.151   1.673
22384TIP3    H167029   0.712   2.056   1.667
22384TIP3    H267030   0.688   2.168   1.766
22385TIP3   OH267031   0.643   1.611   1.112
22385TIP3    H167032   0.718   1.582   1.163
22385TIP3    H267033   0.572   1.552   1.137
22386TIP3   OH267034   0.701   1.867   1.564
22386TIP3    H167035   0.736   1.780   1.582
22386TIP3    H267036   0.759   1.902   1.496
22387TIP3   OH267037   0.862   2.064   2.046
22387TIP3    H167038   0.949   2.081   2.012
22387TIP3    H267039   0.876   2.036   2.137
22388TIP3   OH267040   0.807   1.618   1.601
22388TIP3    H167041   0.861   1.606   1.680
22388TIP3    H267042   0.749   1.542   1.599
22389TIP3   OH267043   0.891   1.555   1.231
22389TIP3    H167044   0.930   1.481   1.186
22389TIP3    H267045   0.959   1.623   1.230
22390TIP3   OH267046   0.459   3.080   1.500
22390TIP3    H167047   0.506   3.062   1.419
22390TIP3    H267048   0.506   3.153   1.539
22391TIP3   OH267049   0.867   1.462   2.038
22391TIP3    H167050   0.954   1.499   2.019
22391TIP3    H267051   0.808   1.538   2.037
22392TIP3   OH267052   0.979   1.582   1.807
22392TIP3    H167053   1.052   1.529   1.776
22392TIP3    H267054   1.011   1.672   1.803
22393TIP3   OH267055   0.592   1.467   1.995
22393TIP3    H167056   0.598   1.487   1.901
22393TIP3    H267057   0.664   1.406   2.012
22394TIP3   OH267058   0.626   1.404   1.593
22394TIP3    H167059   0.540   1.447   1.604
22394TIP3    H267060   0.615   1.319   1.635
22395TIP3   OH267061   8.905   2.703   1.594
22395TIP3    H167062   8.823   2.677   1.551
22395TIP3    H267063   8.920   2.792   1.564
22396TIP3   OH267064   9.312   1.359   1.546
22396TIP3    H167065   9.354   1.276   1.526
22396TIP3    H267066   9.361   1.393   1.621
22397TIP3   OH267067   0.033   1.500   1.680
22397TIP3    H167068   0.101   1.469   1.739
22397TIP3    H267069   0.032   1.595   1.689
22398TIP3   OH267070   9.683   2.930   1.175
22398TIP3    H167071   9.769   2.955   1.142
22398TIP3    H267072   9.656   2.858   1.119
22399TIP3   OH267073   0.600   3.048   1.265
22399TIP3    H167074   0.594   2.953   1.256
22399TIP3    H267075   0.557   3.083   1.187
22400TIP3   OH267076   8.984   2.762   1.231
22400TIP3    H167077   8.993   2.819   1.307
22400TIP3    H267078   9.070   2.721   1.221
22401TIP3   OH267079   2.090   2.568   1.224
22401TIP3    H167080   2.066   2.659   1.205
22401TIP3    H267081   2.017   2.516   1.191
22402TIP3   OH267082   2.084   2.569   1.607
22402TIP3    H167083   2.114   2.544   1.694
22402TIP3    H267084   2.049   2.488   1.570
22403TIP3   OH267085   1.392   2.468   1.962
22403TIP3    H167086   1.399   2.435   2.051
22403TIP3    H267087   1.478   2.505   1.942
22404TIP3   OH267088   2.331   2.867   1.285
22404TIP3    H167089   2.326   2.795   1.348
22404TIP3    H267090   2.365   2.941   1.335
22405TIP3   OH267091   1.366   2.873   1.704
22405TIP3    H167092   1.354   2.778   1.703
22405TIP3    H267093   1.459   2.885   1.683
22406TIP3   OH267094   1.069   2.083   1.479
22406TIP3    H167095   1.019   2.163   1.494
22406TIP3    H267096   1.004   2.018   1.451
22407TIP3   OH267097   1.133   2.363   1.649
22407TIP3    H167098   1.176   2.287   1.689
22407TIP3    H267099   1.185   2.380   1.570
22408TIP3   OH267100   1.991   3.331   1.305
22408TIP3    H167101   2.032   3.264   1.251
22408TIP3    H267102   1.973   3.286   1.388
22409TIP3   OH267103   1.892   2.790   1.657
22409TIP3    H167104   1.921   2.711   1.611
22409TIP3    H267105   1.973   2.837   1.676
22410TIP3   OH267106   2.904   2.126   1.651
22410TIP3    H167107   2.894   2.218   1.672
22410TIP3    H267108   2.929   2.125   1.558
22411TIP3   OH267109   2.304   2.295   1.686
22411TIP3    H167110   2.348   2.212   1.704
22411TIP3    H267111   2.270   2.286   1.597
22412TIP3   OH267112   1.638   1.954   1.648
22412TIP3    H167113   1.618   2.026   1.588
22412TIP3    H267114   1.594   1.878   1.609
22413TIP3   OH267115   2.336   2.046   1.274
22413TIP3    H167116   2.404   2.029   1.340
22413TIP3    H267117   2.385   2.080   1.199
22414TIP3   OH267118   1.280   2.158   1.754
22414TIP3    H167119   1.356   2.133   1.806
22414TIP3    H267120   1.283   2.100   1.678
22415TIP3   OH267121   1.715   2.352   1.552
22415TIP3    H167122   1.808   2.329   1.562
22415TIP3    H267123   1.674   2.272   1.519
22416TIP3   OH267124   1.639   1.940   2.090
22416TIP3    H167125   1.579   1.972   2.022
22416TIP3    H267126   1.581   1.915   2.162
22417TIP3   OH267127   1.983   2.790   1.094
22417TIP3    H167128   1.943   2.763   1.011
22417TIP3    H267129   1.939   2.872   1.117
22418TIP3   OH267130   1.729   2.714   1.882
22418TIP3    H167131   1.671   2.788   1.905
22418TIP3    H267132   1.789   2.751   1.817
22419TIP3   OH267133   2.544   2.049   1.445
22419TIP3    H167134   2.546   1.992   1.522
22419TIP3    H267135   2.597   2.124   1.470
22420TIP3   OH267136   1.513   2.052   1.869
22420TIP3    H167137   1.577   2.121   1.887
22420TIP3    H267138   1.550   2.004   1.794
22421TIP3   OH267139   0.968   2.598   1.213
22421TIP3    H167140   0.925   2.623   1.131
22421TIP3    H267141   0.997   2.680   1.250
22422TIP3   OH267142   2.397   3.087   1.436
22422TIP3    H167143   2.317   3.081   1.489
22422TIP3    H267144   2.397   3.177   1.403
22423TIP3   OH267145   2.688   2.009   1.805
22423TIP3    H167146   2.605   2.042   1.771
22423TIP3    H267147   2.755   2.046   1.748
22424TIP3   OH267148   1.992   1.652   1.803
22424TIP3    H167149   1.980   1.558   1.818
22424TIP3    H267150   1.917   1.693   1.844
22425TIP3   OH267151   2.108   3.161   1.123
22425TIP3    H167152   2.153   3.077   1.109
22425TIP3    H267153   2.168   3.226   1.086
22426TIP3   OH267154   2.249   2.944   1.036
22426TIP3    H167155   2.215   2.866   0.992
22426TIP3    H267156   2.283   2.913   1.119
22427TIP3   OH267157   1.923   2.421   1.052
22427TIP3    H167158   1.844   2.470   1.030
22427TIP3    H267159   1.971   2.414   0.969
22428TIP3   OH267160   1.884   2.204   0.771
22428TIP3    H167161   1.949   2.254   0.820
22428TIP3    H267162   1.936   2.138   0.724
22429TIP3   OH267163   2.823   2.646   1.631
22429TIP3    H167164   2.747   2.704   1.643
22429TIP3    H267165   2.865   2.679   1.551
22430TIP3   OH267166   2.271   2.502   1.029
22430TIP3    H167167   2.216   2.526   1.104
22430TIP3    H267168   2.354   2.475   1.068
22431TIP3   OH267169   1.504   2.498   1.442
22431TIP3    H167170   1.460   2.443   1.377
22431TIP3    H267171   1.579   2.446   1.471
22432TIP3   OH267172   1.628   2.902   1.593
22432TIP3    H167173   1.609   2.867   1.507
22432TIP3    H267174   1.718   2.874   1.612
22433TIP3   OH267175   1.646   2.467   1.800
22433TIP3    H167176   1.672   2.447   1.710
22433TIP3    H267177   1.684   2.553   1.818
22434TIP3   OH267178   2.170   3.102   1.575
22434TIP3    H167179   2.134   3.180   1.617
22434TIP3    H267180   2.148   3.031   1.636
22435TIP3   OH267181   2.112   2.363   0.851
22435TIP3    H167182   2.169   2.418   0.905
22435TIP3    H267183   2.136   2.383   0.761
22436TIP3   OH267184   1.853   3.042   1.130
22436TIP3    H167185   1.933   3.092   1.142
22436TIP3    H267186   1.792   3.103   1.088
22437TIP3   OH267187   2.624   1.602   0.899
22437TIP3    H167188   2.546   1.620   0.951
22437TIP3    H267189   2.639   1.683   0.850
22438TIP3   OH267190   1.367   2.344   1.249
22438TIP3    H167191   1.302   2.385   1.192
22438TIP3    H267192   1.333   2.255   1.263
22439TIP3   OH267193   2.428   2.970   0.448
22439TIP3    H167194   2.434   3.065   0.435
22439TIP3    H267195   2.517   2.938   0.437
22440TIP3   OH267196   0.999   2.920   1.782
22440TIP3    H167197   1.094   2.906   1.774
22440TIP3    H267198   0.990   2.993   1.843
22441TIP3   OH267199   1.735   3.287   0.929
22441TIP3    H167200   1.690   3.265   0.847
22441TIP3    H267201   1.703   3.374   0.952
22442TIP3   OH267202   1.173   3.133   1.315
22442TIP3    H167203   1.222   3.127   1.398
22442TIP3    H267204   1.118   3.055   1.314
22443TIP3   OH267205   1.939   3.185   0.571
22443TIP3    H167206   1.995   3.117   0.533
22443TIP3    H267207   1.971   3.195   0.661
22444TIP3   OH267208   1.987   3.234   0.844
22444TIP3    H167209   1.899   3.244   0.882
22444TIP3    H267210   2.037   3.187   0.912
22445TIP3   OH267211   1.752   1.737   1.919
22445TIP3    H167212   1.667   1.700   1.896
22445TIP3    H267213   1.731   1.816   1.970
22446TIP3   OH267214   2.188   2.412   0.595
22446TIP3    H167215   2.153   2.381   0.511
22446TIP3    H267216   2.270   2.455   0.573
22447TIP3   OH267217   1.898   1.781   0.900
22447TIP3    H167218   1.868   1.781   0.991
22447TIP3    H267219   1.863   1.700   0.863
22448TIP3   OH267220   1.694   2.248   1.945
22448TIP3    H167221   1.643   2.268   2.024
22448TIP3    H267222   1.679   2.323   1.887
22449TIP3   OH267223   1.567   2.134   1.458
22449TIP3    H167224   1.478   2.108   1.479
22449TIP3    H267225   1.585   2.095   1.372
22450TIP3   OH267226   2.062   2.222   1.186
22450TIP3    H167227   2.009   2.291   1.146
22450TIP3    H267228   2.116   2.189   1.114
22451TIP3   OH267229   2.217   2.249   1.424
22451TIP3    H167230   2.157   2.279   1.355
22451TIP3    H267231   2.254   2.168   1.389
22452TIP3   OH267232   1.554   1.756   0.866
22452TIP3    H167233   1.550   1.750   0.961
22452TIP3    H267234   1.474   1.803   0.841
22453TIP3   OH267235   1.100   1.809   1.725
22453TIP3    H167236   1.170   1.834   1.784
22453TIP3    H267237   1.143   1.761   1.655
22454TIP3   OH267238   1.072   1.782   1.252
22454TIP3    H167239   1.120   1.817   1.177
22454TIP3    H267240   1.011   1.852   1.276
22455TIP3   OH267241   2.209   2.496   1.842
22455TIP3    H167242   2.254   2.431   1.787
22455TIP3    H267243   2.233   2.471   1.931
22456TIP3   OH267244   1.898   1.960   1.524
22456TIP3    H167245   1.815   1.954   1.571
22456TIP3    H267246   1.965   1.954   1.593
22457TIP3   OH267247   1.332   2.010   1.528
22457TIP3    H167248   1.240   2.017   1.503
22457TIP3    H267249   1.355   1.919   1.510
22458TIP3   OH267250   1.602   2.012   1.217
22458TIP3    H167251   1.695   2.022   1.196
22458TIP3    H267252   1.557   2.031   1.135
22459TIP3   OH267253   2.385   2.035   1.720
22459TIP3    H167254   2.349   2.043   1.809
22459TIP3    H267255   2.330   1.969   1.679
22460TIP3   OH267256   1.440   2.045   0.995
22460TIP3    H167257   1.367   1.999   0.953
22460TIP3    H267258   1.493   2.078   0.922
22461TIP3   OH267259   1.982   2.284   1.617
22461TIP3    H167260   2.051   2.246   1.563
22461TIP3    H267261   1.990   2.240   1.701
22462TIP3   OH267262   1.505   1.769   1.498
22462TIP3    H167263   1.469   1.695   1.547
22462TIP3    H267264   1.558   1.729   1.429
22463TIP3   OH267265   1.955   2.171   1.893
22463TIP3    H167266   1.864   2.198   1.909
22463TIP3    H267267   2.007   2.222   1.955
22464TIP3   OH267268   1.690   2.573   1.004
22464TIP3    H167269   1.623   2.507   0.992
22464TIP3    H267270   1.676   2.606   1.093
22465TIP3   OH267271   2.591   2.798   1.642
22465TIP3    H167272   2.623   2.850   1.568
22465TIP3    H267273   2.510   2.758   1.610
22466TIP3   OH267274   2.151   1.886   0.865
22466TIP3    H167275   2.057   1.868   0.873
22466TIP3    H267276   2.160   1.978   0.890
22467TIP3   OH267277   2.223   2.133   0.970
22467TIP3    H167278   2.317   2.135   0.985
22467TIP3    H267279   2.205   2.210   0.916
22468TIP3   OH267280   1.395   2.600   1.679
22468TIP3    H167281   1.427   2.569   1.594
22468TIP3    H267282   1.412   2.528   1.739
22469TIP3   OH267283   1.836   2.722   0.825
22469TIP3    H167284   1.792   2.807   0.831
22469TIP3    H267285   1.786   2.665   0.883
22470TIP3   OH267286   2.662   2.221   0.802
22470TIP3    H167287   2.602   2.173   0.746
22470TIP3    H267288   2.663   2.310   0.766
22471TIP3   OH267289   2.363   3.039   0.713
22471TIP3    H167290   2.340   2.970   0.774
22471TIP3    H267291   2.376   2.994   0.629
22472TIP3   OH267292   2.350   2.669   1.552
22472TIP3    H167293   2.259   2.640   1.562
22472TIP3    H267294   2.394   2.595   1.508
22473TIP3   OH267295   1.485   2.900   1.306
22473TIP3    H167296   1.488   2.979   1.253
22473TIP3    H267297   1.392   2.878   1.312
22474TIP3   OH267298   1.048   2.204   1.007
22474TIP3    H167299   1.096   2.284   1.028
22474TIP3    H267300   0.973   2.206   1.067
22475TIP3   OH267301   1.626   2.665   1.251
22475TIP3    H167302   1.592   2.753   1.268
22475TIP3    H267303   1.591   2.612   1.323
22476TIP3   OH267304   1.757   3.235   1.758
22476TIP3    H167305   1.788   3.314   1.712
22476TIP3    H267306   1.824   3.219   1.825
22477TIP3   OH267307   1.405   3.138   1.157
22477TIP3    H167308   1.321   3.143   1.203
22477TIP3    H267309   1.438   3.228   1.159
22478TIP3   OH267310   2.153   2.876   1.738
22478TIP3    H167311   2.169   2.855   1.830
22478TIP3    H267312   2.218   2.825   1.690
22479TIP3   OH267313   2.118   2.768   0.618
22479TIP3    H167314   2.173   2.745   0.693
22479TIP3    H267315   2.030   2.740   0.644
22480TIP3   OH267316   2.459   3.248   0.435
22480TIP3    H167317   2.504   3.318   0.389
22480TIP3    H267318   2.377   3.287   0.465
22481TIP3   OH267319   2.281   2.703   0.834
22481TIP3    H167320   2.267   2.638   0.903
22481TIP3    H267321   2.375   2.701   0.819
22482TIP3   OH267322   1.202   3.127   1.952
22482TIP3    H167323   1.213   3.035   1.927
22482TIP3    H267324   1.274   3.144   2.013
22483TIP3   OH267325   1.484   2.747   0.616
22483TIP3    H167326   1.500   2.658   0.585
22483TIP3    H267327   1.465   2.737   0.709
22484TIP3   OH267328   1.431   2.755   0.888
22484TIP3    H167329   1.502   2.723   0.944
22484TIP3    H267330   1.436   2.850   0.895
22485TIP3   OH267331   1.165   2.450   1.089
22485TIP3    H167332   1.101   2.490   1.148
22485TIP3    H267333   1.182   2.516   1.023
22486TIP3   OH267334   2.311   2.078   1.981
22486TIP3    H167335   2.389   2.117   2.019
22486TIP3    H267336   2.282   2.014   2.045
22487TIP3   OH267337   2.193   1.839   1.146
22487TIP3    H167338   2.181   1.859   1.053
22487TIP3    H267339   2.233   1.918   1.182
22488TIP3   OH267340   1.695   2.954   0.836
22488TIP3    H167341   1.610   2.978   0.873
22488TIP3    H267342   1.713   3.022   0.771
22489TIP3   OH267343   1.887   2.017   1.251
22489TIP3    H167344   1.950   2.085   1.232
22489TIP3    H267345   1.889   2.008   1.346
22490TIP3   OH267346   2.031   1.747   1.353
22490TIP3    H167347   2.023   1.823   1.411
22490TIP3    H267348   2.090   1.777   1.283
22491TIP3   OH267349   1.439   3.030   0.903
22491TIP3    H167350   1.409   3.096   0.840
22491TIP3    H267351   1.424   3.069   0.989
22492TIP3   OH267352   1.543   1.742   1.140
22492TIP3    H167353   1.537   1.829   1.180
22492TIP3    H267354   1.635   1.717   1.148
22493TIP3   OH267355   2.445   2.429   1.428
22493TIP3    H167356   2.371   2.369   1.437
22493TIP3    H267357   2.518   2.383   1.470
22494TIP3   OH267358   1.160   2.659   0.893
22494TIP3    H167359   1.224   2.729   0.906
22494TIP3    H267360   1.201   2.601   0.829
22495TIP3   OH267361   1.104   1.935   1.027
22495TIP3    H167362   1.101   2.030   1.024
22495TIP3    H267363   1.020   1.907   0.990
22496TIP3   OH267364   2.380   3.356   1.363
22496TIP3    H167365   2.346   3.414   1.294
22496TIP3    H267366   2.474   3.353   1.346
22497TIP3   OH267367   1.490   1.657   1.901
22497TIP3    H167368   1.459   1.625   1.817
22497TIP3    H267369   1.476   1.585   1.962
22498TIP3   OH267370   1.031   2.877   1.285
22498TIP3    H167371   0.957   2.902   1.341
22498TIP3    H267372   1.008   2.911   1.198
22499TIP3   OH267373   1.648   2.950   0.529
22499TIP3    H167374   1.592   2.883   0.566
22499TIP3    H267375   1.725   2.901   0.497
22500TIP3   OH267376   2.086   2.993   0.438
22500TIP3    H167377   2.127   2.930   0.498
22500TIP3    H267378   2.143   2.993   0.361
22501TIP3   OH267379   1.296   2.470   0.747
22501TIP3    H167380   1.345   2.434   0.821
22501TIP3    H267381   1.360   2.475   0.676
22502TIP3   OH267382   1.800   2.666   0.556
22502TIP3    H167383   1.804   2.681   0.651
22502TIP3    H267384   1.802   2.571   0.547
22503TIP3   OH267385   1.503   2.371   0.971
22503TIP3    H167386   1.475   2.330   1.053
22503TIP3    H267387   1.538   2.299   0.919
22504TIP3   OH267388   1.603   2.167   0.809
22504TIP3    H167389   1.575   2.167   0.717
22504TIP3    H267390   1.699   2.171   0.805
22505TIP3   OH267391   2.422   2.501   0.470
22505TIP3    H167392   2.404   2.449   0.391
22505TIP3    H267393   2.391   2.589   0.449
22506TIP3   OH267394   1.903   2.014   2.137
22506TIP3    H167395   1.927   2.032   2.046
22506TIP3    H267396   1.813   1.981   2.131
22507TIP3   OH267397   1.411   3.232   0.713
22507TIP3    H167398   1.505   3.224   0.698
22507TIP3    H267399   1.377   3.278   0.637
22508TIP3   OH267400   0.890   2.610   0.929
22508TIP3    H167401   0.982   2.634   0.918
22508TIP3    H267402   0.883   2.523   0.891
22509TIP3   OH267403   0.802   3.221   1.346
22509TIP3    H167404   0.736   3.163   1.309
22509TIP3    H267405   0.847   3.169   1.412
22510TIP3   OH267406   0.937   3.077   1.537
22510TIP3    H167407   0.927   2.999   1.591
22510TIP3    H267408   0.993   3.136   1.587
22511TIP3   OH267409   2.559   2.687   0.809
22511TIP3    H167410   2.627   2.748   0.779
22511TIP3    H267411   2.597   2.645   0.886
22512TIP3   OH267412   2.682   2.554   1.010
22512TIP3    H167413   2.620   2.511   1.069
22512TIP3    H267414   2.750   2.589   1.068
22513TIP3   OH267415   2.712   2.928   1.440
22513TIP3    H167416   2.787   2.883   1.401
22513TIP3    H267417   2.708   3.012   1.393
22514TIP3   OH267418   2.622   2.463   0.657
22514TIP3    H167419   2.553   2.462   0.590
22514TIP3    H267420   2.598   2.536   0.714
22515TIP3   OH267421   2.492   2.133   0.611
22515TIP3    H167422   2.454   2.170   0.531
22515TIP3    H267423   2.470   2.040   0.608
22516TIP3   OH267424   2.499   2.407   1.159
22516TIP3    H167425   2.508   2.312   1.152
22516TIP3    H267426   2.486   2.423   1.253
22517TIP3   OH267427   1.127   2.498   1.890
22517TIP3    H167428   1.121   2.459   1.803
22517TIP3    H267429   1.220   2.490   1.913
22518TIP3   OH267430   2.438   1.869   0.601
22518TIP3    H167431   2.513   1.838   0.651
22518TIP3    H267432   2.367   1.808   0.623
22519TIP3   OH267433   2.499   2.122   1.051
22519TIP3    H167434   2.535   2.035   1.070
22519TIP3    H267435   2.555   2.157   0.982
22520TIP3   OH267436   2.661   2.296   1.539
22520TIP3    H167437   2.745   2.320   1.500
22520TIP3    H267438   2.662   2.335   1.626
22521TIP3   OH267439   2.709   2.439   1.765
22521TIP3    H167440   2.670   2.480   1.843
22521TIP3    H267441   2.752   2.511   1.719
22522TIP3   OH267442   2.604   1.872   1.092
22522TIP3    H167443   2.654   1.859   1.172
22522TIP3    H267444   2.545   1.797   1.089
22523TIP3   OH267445   1.305   1.861   1.902
22523TIP3    H167446   1.356   1.782   1.920
22523TIP3    H267447   1.368   1.932   1.902
22524TIP3   OH267448   1.115   2.138   1.980
22524TIP3    H167449   1.166   2.143   1.899
22524TIP3    H267450   1.124   2.225   2.020
22525TIP3   OH267451   2.688   1.811   0.719
22525TIP3    H167452   2.726   1.737   0.672
22525TIP3    H267453   2.755   1.879   0.715
22526TIP3   OH267454   1.091   1.639   1.481
22526TIP3    H167455   1.000   1.636   1.511
22526TIP3    H267456   1.089   1.696   1.404
22527TIP3   OH267457   2.259   3.346   0.992
22527TIP3    H167458   2.292   3.318   0.906
22527TIP3    H267459   2.321   3.413   1.021
22528TIP3   OH267460   1.419   3.387   1.790
22528TIP3    H167461   1.369   3.445   1.848
22528TIP3    H267462   1.431   3.437   1.710
22529TIP3   OH267463   1.844   3.450   1.606
22529TIP3    H167464   1.782   3.458   1.534
22529TIP3    H267465   1.840   3.534   1.650
22530TIP3   OH267466   2.089   3.344   1.667
22530TIP3    H167467   2.001   3.372   1.642
22530TIP3    H267468   2.143   3.422   1.653
22531TIP3   OH267469   1.120   3.221   1.692
22531TIP3    H167470   1.148   3.206   1.782
22531TIP3    H267471   1.191   3.187   1.639
22532TIP3   OH267472   1.313   3.099   1.546
22532TIP3    H167473   1.330   3.017   1.594
22532TIP3    H267474   1.399   3.141   1.542
22533TIP3   OH267475   1.578   3.195   1.548
22533TIP3    H167476   1.610   3.106   1.534
22533TIP3    H267477   1.611   3.218   1.635
22534TIP3   OH267478   2.154   1.848   1.641
22534TIP3    H167479   2.109   1.778   1.689
22534TIP3    H267480   2.223   1.804   1.592
22535TIP3   OH267481   2.678   1.733   1.543
22535TIP3    H167482   2.714   1.781   1.468
22535TIP3    H267483   2.584   1.748   1.538
22536TIP3   OH267484   2.774   1.835   1.306
22536TIP3    H167485   2.841   1.779   1.268
22536TIP3    H267486   2.806   1.924   1.291
22537TIP3   OH267487   1.401   1.558   1.652
22537TIP3    H167488   1.310   1.528   1.656
22537TIP3    H267489   1.453   1.478   1.652
22538TIP3   OH267490   1.179   1.431   1.299
22538TIP3    H167491   1.216   1.486   1.230
22538TIP3    H267492   1.158   1.492   1.370
22539TIP3   OH267493   1.842   1.598   1.532
22539TIP3    H167494   1.906   1.644   1.476
22539TIP3    H267495   1.863   1.628   1.620
22540TIP3   OH267496   2.391   1.737   1.519
22540TIP3    H167497   2.394   1.701   1.430
22540TIP3    H267498   2.379   1.661   1.575
22541TIP3   OH267499   2.420   1.659   1.082
22541TIP3    H167500   2.334   1.701   1.091
22541TIP3    H267501   2.411   1.576   1.128
22542TIP3   OH267502   0.904   2.999   1.080
22542TIP3    H167503   0.822   2.963   1.048
22542TIP3    H267504   0.895   3.094   1.069
22543TIP3   OH267505   1.308   1.592   1.062
22543TIP3    H167506   1.352   1.525   1.009
22543TIP3    H267507   1.378   1.643   1.101
22544TIP3   OH267508   1.819   1.766   1.165
22544TIP3    H167509   1.874   1.713   1.223
22544TIP3    H267510   1.841   1.857   1.189
22545TIP3   OH267511   1.679   3.189   0.661
22545TIP3    H167512   1.766   3.213   0.629
22545TIP3    H267513   1.653   3.115   0.605
22546TIP3   OH267514   2.386   3.306   0.752
22546TIP3    H167515   2.385   3.210   0.743
22546TIP3    H267516   2.347   3.338   0.671
22547TIP3   OH267517   0.984   3.029   0.722
22547TIP3    H167518   0.980   3.049   0.815
22547TIP3    H267519   1.069   2.987   0.710
22548TIP3   OH267520   2.863   2.334   0.967
22548TIP3    H167521   2.818   2.417   0.981
22548TIP3    H267522   2.795   2.276   0.931
22549TIP3   OH267523   2.920   2.617   1.130
22549TIP3    H167524   2.965   2.543   1.172
22549TIP3    H267525   2.986   2.654   1.071
22550TIP3   OH267526   3.424   2.211   1.139
22550TIP3    H167527   3.413   2.281   1.074
22550TIP3    H267528   3.383   2.135   1.098
22551TIP3   OH267529   4.132   2.254   0.744
22551TIP3    H167530   4.126   2.268   0.839
22551TIP3    H267531   4.125   2.341   0.706
22552TIP3   OH267532   3.065   2.414   1.240
22552TIP3    H167533   3.145   2.398   1.290
22552TIP3    H267534   3.074   2.359   1.162
22553TIP3   OH267535   3.496   2.606   1.030
22553TIP3    H167536   3.588   2.588   1.048
22553TIP3    H267537   3.460   2.522   1.003
22554TIP3   OH267538   3.437   2.190   1.535
22554TIP3    H167539   3.370   2.237   1.485
22554TIP3    H267540   3.423   2.218   1.625
22555TIP3   OH267541   3.299   2.331   1.349
22555TIP3    H167542   3.352   2.409   1.370
22555TIP3    H267543   3.348   2.287   1.279
22556TIP3   OH267544   2.763   2.853   0.700
22556TIP3    H167545   2.722   2.878   0.617
22556TIP3    H267546   2.792   2.937   0.737
22557TIP3   OH267547   3.787   1.917   1.272
22557TIP3    H167548   3.790   1.825   1.297
22557TIP3    H267549   3.716   1.954   1.324
22558TIP3   OH267550   3.703   2.660   0.519
22558TIP3    H167551   3.635   2.727   0.510
22558TIP3    H267552   3.766   2.681   0.450
22559TIP3   OH267553   3.676   2.461   0.254
22559TIP3    H167554   3.731   2.503   0.321
22559TIP3    H267555   3.735   2.399   0.210
22560TIP3   OH267556   3.310   2.767   0.919
22560TIP3    H167557   3.259   2.709   0.862
22560TIP3    H267558   3.377   2.710   0.957
22561TIP3   OH267559   3.925   2.625   0.340
22561TIP3    H167560   3.977   2.694   0.382
22561TIP3    H267561   3.938   2.639   0.247
22562TIP3   OH267562   4.421   1.859   0.385
22562TIP3    H167563   4.343   1.874   0.439
22562TIP3    H267564   4.433   1.940   0.337
22563TIP3   OH267565   3.163   2.604   0.739
22563TIP3    H167566   3.098   2.643   0.681
22563TIP3    H267567   3.132   2.514   0.752
22564TIP3   OH267568   2.961   3.378   0.800
22564TIP3    H167569   2.976   3.393   0.893
22564TIP3    H267570   2.916   3.294   0.796
22565TIP3   OH267571   3.716   3.402   0.043
22565TIP3    H167572   3.779   3.338   0.011
22565TIP3    H267573   3.751   3.431   0.127
22566TIP3   OH267574   3.552   1.987   1.409
22566TIP3    H167575   3.470   1.947   1.377
22566TIP3    H267576   3.524   2.066   1.454
22567TIP3   OH267577   3.988   2.674   0.083
22567TIP3    H167578   3.945   2.642   0.003
22567TIP3    H267579   4.074   2.703   0.054
22568TIP3   OH267580   3.697   2.037   0.387
22568TIP3    H167581   3.668   2.037   0.478
22568TIP3    H267582   3.659   1.957   0.350
22569TIP3   OH267583   3.361   2.384   0.943
22569TIP3    H167584   3.271   2.358   0.964
22569TIP3    H267585   3.377   2.346   0.857
22570TIP3   OH267586   3.831   2.452   0.646
22570TIP3    H167587   3.788   2.533   0.616
22570TIP3    H267588   3.889   2.428   0.573
22571TIP3   OH267589   3.352   2.013   0.352
22571TIP3    H167590   3.347   2.007   0.448
22571TIP3    H267591   3.272   2.059   0.327
22572TIP3   OH267592   2.896   2.058   1.222
22572TIP3    H167593   2.972   2.086   1.273
22572TIP3    H267594   2.933   2.020   1.142
22573TIP3   OH267595   2.869   2.039   0.740
22573TIP3    H167596   2.916   2.073   0.664
22573TIP3    H267597   2.808   2.108   0.763
22574TIP3   OH267598   3.689   2.211   1.019
22574TIP3    H167599   3.605   2.207   1.064
22574TIP3    H267600   3.752   2.236   1.087
22575TIP3   OH267601   3.126   2.266   1.016
22575TIP3    H167602   3.034   2.273   0.990
22575TIP3    H267603   3.150   2.176   0.996
22576TIP3   OH267604   3.394   2.265   0.703
22576TIP3    H167605   3.488   2.274   0.688
22576TIP3    H267606   3.353   2.288   0.620
22577TIP3   OH267607   3.235   2.303   0.480
22577TIP3    H167608   3.164   2.255   0.438
22577TIP3    H267609   3.288   2.336   0.407
22578TIP3   OH267610   3.299   2.026   0.982
22578TIP3    H167611   3.264   1.950   1.029
22578TIP3    H267612   3.353   1.988   0.913
22579TIP3   OH267613   3.484   2.835   0.489
22579TIP3    H167614   3.419   2.765   0.480
22579TIP3    H267615   3.476   2.864   0.580
22580TIP3   OH267616   3.943   2.148   0.340
22580TIP3    H167617   3.851   2.127   0.355
22580TIP3    H267618   3.955   2.236   0.375
22581TIP3   OH267619   4.017   2.387   0.451
22581TIP3    H167620   4.112   2.381   0.459
22581TIP3    H267621   4.003   2.466   0.398
22582TIP3   OH267622   3.172   2.793   1.156
22582TIP3    H167623   3.210   2.809   1.070
22582TIP3    H267624   3.237   2.739   1.201
22583TIP3   OH267625   3.618   2.979   0.291
22583TIP3    H167626   3.607   3.068   0.324
22583TIP3    H267627   3.585   2.923   0.361
22584TIP3   OH267628   4.468   2.464   0.260
22584TIP3    H167629   4.391   2.419   0.225
22584TIP3    H267630   4.462   2.552   0.224
22585TIP3   OH267631   3.286   3.147   0.807
22585TIP3    H167632   3.326   3.223   0.765
22585TIP3    H267633   3.193   3.153   0.786
22586TIP3   OH267634   2.844   2.461   0.494
22586TIP3    H167635   2.893   2.541   0.514
22586TIP3    H267636   2.770   2.462   0.554
22587TIP3   OH267637   3.445   2.927   0.745
22587TIP3    H167638   3.399   3.010   0.757
22587TIP3    H267639   3.397   2.865   0.800
22588TIP3   OH267640   3.134   3.429   0.596
22588TIP3    H167641   3.072   3.414   0.667
22588TIP3    H267642   3.220   3.412   0.635
22589TIP3   OH267643   3.902   3.015   0.086
22589TIP3    H167644   3.948   3.006   0.170
22589TIP3    H267645   3.812   2.990   0.106
22590TIP3   OH267646   3.279   2.999   0.104
22590TIP3    H167647   3.293   2.909   0.073
22590TIP3    H267648   3.259   2.989   0.197
22591TIP3   OH267649   3.227   3.012   0.376
22591TIP3    H167650   3.304   2.980   0.424
22591TIP3    H267651   3.233   3.107   0.383
22592TIP3   OH267652   2.962   2.706   0.576
22592TIP3    H167653   2.897   2.746   0.634
22592TIP3    H267654   2.978   2.772   0.509
22593TIP3   OH267655   3.978   2.072   0.617
22593TIP3    H167656   3.966   2.102   0.527
22593TIP3    H267657   4.033   2.140   0.657
22594TIP3   OH267658   3.492   3.235   0.329
22594TIP3    H167659   3.402   3.255   0.353
22594TIP3    H267660   3.493   3.241   0.233
22595TIP3   OH267661   3.671   2.261   0.744
22595TIP3    H167662   3.731   2.329   0.715
22595TIP3    H267663   3.681   2.258   0.839
22596TIP3   OH267664   3.823   2.001   0.843
22596TIP3    H167665   3.812   2.077   0.899
22596TIP3    H267666   3.878   2.032   0.771
22597TIP3   OH267667   3.227   3.289   0.381
22597TIP3    H167668   3.204   3.351   0.312
22597TIP3    H267669   3.194   3.329   0.462
22598TIP3   OH267670   3.339   1.998   0.628
22598TIP3    H167671   3.333   2.085   0.666
22598TIP3    H267672   3.432   1.975   0.635
22599TIP3   OH267673   2.956   2.915   0.381
22599TIP3    H167674   3.020   2.985   0.393
22599TIP3    H267675   2.996   2.857   0.316
22600TIP3   OH267676   2.899   2.191   0.516
22600TIP3    H167677   2.896   2.287   0.511
22600TIP3    H267678   2.819   2.162   0.473
22601TIP3   OH267679   3.285   1.906   1.388
22601TIP3    H167680   3.254   1.875   1.303
22601TIP3    H267681   3.275   1.831   1.446
22602TIP3   OH267682   2.820   3.134   0.773
22602TIP3    H167683   2.744   3.158   0.826
22602TIP3    H267684   2.800   3.166   0.685
22603TIP3   OH267685   3.448   3.192   0.019
22603TIP3    H167686   3.386   3.126   0.049
22603TIP3    H267687   3.521   3.142  -0.018
22604TIP3   OH267688   7.161   7.868   7.921
22604TIP3    H167689   7.180   7.787   7.968
22604TIP3    H267690   7.204   7.857   7.836
22605TIP3   OH267691   3.092   2.727   0.234
22605TIP3    H167692   3.141   2.690   0.308
22605TIP3    H267693   3.156   2.731   0.163
22606TIP3   OH267694   3.594   2.919   0.031
22606TIP3    H167695   3.591   2.939   0.124
22606TIP3    H267696   3.595   2.823   0.027
22607TIP3   OH267697   3.300   2.627   0.460
22607TIP3    H167698   3.271   2.585   0.540
22607TIP3    H267699   3.334   2.556   0.406
22608TIP3   OH267700   3.398   2.424   0.295
22608TIP3    H167701   3.370   2.424   0.204
22608TIP3    H267702   3.493   2.429   0.290
22609TIP3   OH267703   7.481   7.365   7.952
22609TIP3    H167704   7.455   7.322   7.871
22609TIP3    H267705   7.465   7.458   7.936
22610TIP3   OH267706   3.195   3.493   0.204
22610TIP3    H167707   3.288   3.484   0.187
22610TIP3    H267708   3.160   3.536   0.126
22611TIP3   OH267709   2.686   2.866   0.417
22611TIP3    H167710   2.778   2.890   0.405
22611TIP3    H267711   2.679   2.779   0.378
22612TIP3   OH267712   2.587   3.478   0.822
22612TIP3    H167713   2.518   3.428   0.778
22612TIP3    H267714   2.623   3.418   0.887
22613TIP3   OH267715   2.662   3.307   1.015
22613TIP3    H167716   2.699   3.233   1.063
22613TIP3    H267717   2.634   3.368   1.083
22614TIP3   OH267718   4.407   2.690   0.137
22614TIP3    H167719   4.341   2.706   0.069
22614TIP3    H267720   4.420   2.776   0.178
22615TIP3   OH267721   4.268   2.387   0.088
22615TIP3    H167722   4.232   2.423   0.007
22615TIP3    H267723   4.249   2.294   0.083
22616TIP3   OH267724   2.921   2.734   1.389
22616TIP3    H167725   2.924   2.703   1.298
22616TIP3    H267726   3.000   2.788   1.398
22617TIP3   OH267727   4.225   2.121   0.070
22617TIP3    H167728   4.301   2.095   0.122
22617TIP3    H267729   4.153   2.067   0.103
22618TIP3   OH267730   4.287   2.372   0.495
22618TIP3    H167731   4.319   2.285   0.519
22618TIP3    H267732   4.364   2.427   0.497
22619TIP3   OH267733   4.403   2.131   0.578
22619TIP3    H167734   4.469   2.111   0.645
22619TIP3    H267735   4.342   2.058   0.583
22620TIP3   OH267736   3.106   2.119   1.395
22620TIP3    H167737   3.165   2.044   1.403
22620TIP3    H267738   3.164   2.195   1.386
22621TIP3   OH267739   2.911   2.389   1.475
22621TIP3    H167740   2.955   2.385   1.390
22621TIP3    H267741   2.920   2.480   1.502
22622TIP3   OH267742   4.461   2.056   0.189
22622TIP3    H167743   4.504   1.981   0.148
22622TIP3    H267744   4.529   2.123   0.196
22623TIP3   OH267745   2.887   1.902   0.973
22623TIP3    H167746   2.794   1.892   0.996
22623TIP3    H267747   2.886   1.955   0.893
22624TIP3   OH267748   3.094   1.972   1.792
22624TIP3    H167749   3.043   1.966   1.873
22624TIP3    H267750   3.035   2.017   1.731
22625TIP3   OH267751   3.948   2.112   1.135
22625TIP3    H167752   3.884   2.048   1.165
22625TIP3    H267753   4.006   2.063   1.076
22626TIP3   OH267754   3.194   1.815   1.140
22626TIP3    H167755   3.103   1.784   1.142
22626TIP3    H267756   3.247   1.736   1.138
22627TIP3   OH267757   2.976   1.689   0.784
22627TIP3    H167758   3.012   1.744   0.714
22627TIP3    H267759   2.956   1.750   0.855
22628TIP3   OH267760   3.641   1.851   1.020
22628TIP3    H167761   3.699   1.901   0.962
22628TIP3    H267762   3.662   1.884   1.108
22629TIP3   OH267763   4.140   1.987   0.991
22629TIP3    H167764   4.176   1.965   0.906
22629TIP3    H267765   4.136   1.904   1.039
22630TIP3   OH267766   4.216   1.918   0.569
22630TIP3    H167767   4.129   1.957   0.575
22630TIP3    H267768   4.208   1.834   0.614
22631TIP3   OH267769   2.699   3.257   0.569
22631TIP3    H167770   2.616   3.224   0.534
22631TIP3    H267771   2.696   3.351   0.552
22632TIP3   OH267772   3.103   1.848   0.551
22632TIP3    H167773   3.147   1.782   0.497
22632TIP3    H267774   3.174   1.899   0.589
22633TIP3   OH267775   3.615   2.015   0.651
22633TIP3    H167776   3.672   1.963   0.708
22633TIP3    H267777   3.631   2.106   0.677
22634TIP3   OH267778   3.444   3.451   0.108
22634TIP3    H167779   3.531   3.483   0.084
22634TIP3    H267780   3.437   3.366   0.064
22635TIP3   OH267781   2.780   3.284   0.208
22635TIP3    H167782   2.776   3.310   0.300
22635TIP3    H267783   2.866   3.244   0.198
22636TIP3   OH267784   8.378   6.853   7.817
22636TIP3    H167785   8.396   6.907   7.894
22636TIP3    H267786   8.308   6.899   7.771
22637TIP3   OH267787   4.634   2.269   0.168
22637TIP3    H167788   4.704   2.317   0.125
22637TIP3    H267789   4.574   2.336   0.200
22638TIP3   OH267790   7.975   7.088   7.987
22638TIP3    H167791   7.956   7.177   8.016
22638TIP3    H267792   7.890   7.048   7.973
22639TIP3   OH267793   4.642   2.102   0.412
22639TIP3    H167794   4.565   2.125   0.465
22639TIP3    H267795   4.691   2.184   0.404
22640TIP3   OH267796   4.777   1.927   0.252
22640TIP3    H167797   4.794   1.979   0.174
22640TIP3    H267798   4.723   1.984   0.308
22641TIP3   OH267799   4.871   2.077   0.035
22641TIP3    H167800   4.942   2.040  -0.017
22641TIP3    H267801   4.906   2.159   0.069
22642TIP3   OH267802   9.502   3.765   0.885
22642TIP3    H167803   9.547   3.793   0.965
22642TIP3    H267804   9.557   3.696   0.849
22643TIP3   OH267805   0.466   3.161   1.049
22643TIP3    H167806   0.388   3.176   1.102
22643TIP3    H267807   0.480   3.243   1.002
22644TIP3   OH267808   0.050   3.959   0.734
22644TIP3    H167809   0.006   3.925   0.656
22644TIP3    H267810   0.132   3.996   0.701
22645TIP3   OH267811   9.542   3.338   0.988
22645TIP3    H167812   9.532   3.344   1.083
22645TIP3    H267813   9.505   3.252   0.966
22646TIP3   OH267814   9.212   3.308   1.023
22646TIP3    H167815   9.186   3.295   1.114
22646TIP3    H267816   9.132   3.335   0.979
22647TIP3   OH267817   9.800   3.414   1.021
22647TIP3    H167818   9.705   3.410   1.007
22647TIP3    H267819   9.820   3.507   1.025
22648TIP3   OH267820   0.100   3.661   1.065
22648TIP3    H167821   0.182   3.654   1.113
22648TIP3    H267822   0.107   3.745   1.019
22649TIP3   OH267823   0.503   3.771   0.949
22649TIP3    H167824   0.438   3.725   0.896
22649TIP3    H267825   0.511   3.857   0.908
22650TIP3   OH267826   0.027   3.436   1.298
22650TIP3    H167827   0.008   3.411   1.207
22650TIP3    H267828   0.105   3.490   1.292
22651TIP3   OH267829   0.272   4.058   0.607
22651TIP3    H167830   0.249   4.012   0.526
22651TIP3    H267831   0.240   4.147   0.595
22652TIP3   OH267832   0.448   4.020   0.805
22652TIP3    H167833   0.408   4.004   0.719
22652TIP3    H267834   0.380   4.065   0.855
22653TIP3   OH267835   0.323   3.695   0.757
22653TIP3    H167836   0.288   3.721   0.672
22653TIP3    H267837   0.309   3.601   0.762
22654TIP3   OH267838   0.279   3.429   0.753
22654TIP3    H167839   0.355   3.398   0.801
22654TIP3    H267840   0.210   3.366   0.773
22655TIP3   OH267841   0.339   3.682   1.189
22655TIP3    H167842   0.373   3.600   1.225
22655TIP3    H267843   0.415   3.726   1.153
22656TIP3   OH267844   0.444   3.431   1.244
22656TIP3    H167845   0.495   3.419   1.324
22656TIP3    H267846   0.386   3.355   1.241
22657TIP3   OH267847   0.528   3.370   0.866
22657TIP3    H167848   0.568   3.295   0.822
22657TIP3    H267849   0.597   3.437   0.867
22658TIP3   OH267850   0.531   3.295   1.703
22658TIP3    H167851   0.569   3.341   1.628
22658TIP3    H267852   0.436   3.300   1.688
22659TIP3   OH267853   0.614   3.391   1.458
22659TIP3    H167854   0.683   3.336   1.420
22659TIP3    H267855   0.643   3.481   1.443
22660TIP3   OH267856   0.260   3.287   1.646
22660TIP3    H167857   0.237   3.243   1.564
22660TIP3    H267858   0.238   3.224   1.714
22661TIP3   OH267859   0.263   3.215   1.233
22661TIP3    H167860   0.172   3.247   1.230
22661TIP3    H267861   0.257   3.131   1.280
22662TIP3   OH267862   8.992   3.068   1.277
22662TIP3    H167863   9.009   3.031   1.190
22662TIP3    H267864   8.972   3.160   1.261
22663TIP3   OH267865   9.514   3.334   1.251
22663TIP3    H167866   9.499   3.283   1.331
22663TIP3    H267867   9.473   3.418   1.269
22664TIP3   OH267868   1.705   4.371   0.873
22664TIP3    H167869   1.699   4.462   0.844
22664TIP3    H267870   1.616   4.337   0.862
22665TIP3   OH267871   0.715   3.883   1.117
22665TIP3    H167872   0.652   3.947   1.151
22665TIP3    H267873   0.664   3.803   1.104
22666TIP3   OH267874   1.282   3.767   1.275
22666TIP3    H167875   1.263   3.837   1.212
22666TIP3    H267876   1.234   3.691   1.241
22667TIP3   OH267877   1.971   3.860   0.913
22667TIP3    H167878   2.040   3.852   0.980
22667TIP3    H267879   2.018   3.883   0.833
22668TIP3   OH267880   1.368   4.158   1.189
22668TIP3    H167881   1.458   4.124   1.190
22668TIP3    H267882   1.316   4.087   1.150
22669TIP3   OH267883   1.623   4.590   0.757
22669TIP3    H167884   1.542   4.550   0.727
22669TIP3    H267885   1.623   4.677   0.717
22670TIP3   OH267886   2.183   3.865   1.087
22670TIP3    H167887   2.179   3.790   1.147
22670TIP3    H267888   2.268   3.905   1.105
22671TIP3   OH267889   1.188   3.854   1.526
22671TIP3    H167890   1.174   3.935   1.478
22671TIP3    H267891   1.208   3.789   1.459
22672TIP3   OH267892   1.628   3.465   1.434
22672TIP3    H167893   1.616   3.372   1.449
22672TIP3    H267894   1.553   3.507   1.478
22673TIP3   OH267895   1.794   4.775   0.632
22673TIP3    H167896   1.813   4.687   0.600
22673TIP3    H267897   1.856   4.789   0.704
22674TIP3   OH267898   1.521   4.020   0.406
22674TIP3    H167899   1.581   4.076   0.456
22674TIP3    H267900   1.578   3.957   0.362
22675TIP3   OH267901   1.890   4.323   0.670
22675TIP3    H167902   1.825   4.339   0.739
22675TIP3    H267903   1.971   4.306   0.718
22676TIP3   OH267904   1.135   4.310   1.058
22676TIP3    H167905   1.079   4.266   0.994
22676TIP3    H267906   1.224   4.280   1.038
22677TIP3   OH267907   1.754   4.163   0.484
22677TIP3    H167908   1.795   4.229   0.541
22677TIP3    H267909   1.775   4.192   0.395
22678TIP3   OH267910   2.261   3.417   0.534
22678TIP3    H167911   2.182   3.433   0.585
22678TIP3    H267912   2.277   3.499   0.487
22679TIP3   OH267913   0.990   4.148   0.884
22679TIP3    H167914   0.939   4.182   0.811
22679TIP3    H267915   0.965   4.056   0.890
22680TIP3   OH267916   2.066   4.765   0.096
22680TIP3    H167917   2.056   4.857   0.071
22680TIP3    H267918   2.156   4.743   0.069
22681TIP3   OH267919   1.580   4.993   0.190
22681TIP3    H167920   1.635   4.927   0.147
22681TIP3    H267921   1.606   4.989   0.282
22682TIP3   OH267922   1.623   5.006   0.461
22682TIP3    H167923   1.591   5.059   0.534
22682TIP3    H267924   1.686   4.946   0.501
22683TIP3   OH267925   1.398   3.541   1.552
22683TIP3    H167926   1.304   3.524   1.545
22683TIP3    H267927   1.403   3.629   1.590
22684TIP3   OH267928   1.822   4.229   0.228
22684TIP3    H167929   1.789   4.197   0.144
22684TIP3    H267930   1.905   4.270   0.207
22685TIP3   OH267931   1.535   3.595   0.536
22685TIP3    H167932   1.505   3.596   0.627
22685TIP3    H267933   1.500   3.513   0.501
22686TIP3   OH267934   1.212   3.949   1.086
22686TIP3    H167935   1.121   3.925   1.107
22686TIP3    H267936   1.228   3.910   1.001
22687TIP3   OH267937   1.688   4.039   0.810
22687TIP3    H167938   1.637   4.108   0.768
22687TIP3    H267939   1.746   4.006   0.741
22688TIP3   OH267940   1.823   4.051   1.072
22688TIP3    H167941   1.791   4.098   0.994
22688TIP3    H267942   1.874   3.978   1.036
22689TIP3   OH267943   1.189   3.568   0.503
22689TIP3    H167944   1.188   3.563   0.599
22689TIP3    H267945   1.113   3.622   0.481
22690TIP3   OH267946   0.739   3.605   1.357
22690TIP3    H167947   0.807   3.639   1.415
22690TIP3    H267948   0.787   3.566   1.284
22691TIP3   OH267949   0.711   3.596   0.890
22691TIP3    H167950   0.758   3.631   0.814
22691TIP3    H267951   0.649   3.665   0.914
22692TIP3   OH267952   1.538   3.764   1.157
22692TIP3    H167953   1.453   3.762   1.202
22692TIP3    H267954   1.602   3.777   1.226
22693TIP3   OH267955   0.984   3.833   1.163
22693TIP3    H167956   0.890   3.842   1.149
22693TIP3    H267957   1.000   3.739   1.153
22694TIP3   OH267958   1.241   3.822   0.850
22694TIP3    H167959   1.333   3.837   0.828
22694TIP3    H267960   1.194   3.843   0.770
22695TIP3   OH267961   2.020   3.816   1.375
22695TIP3    H167962   1.960   3.858   1.436
22695TIP3    H267963   1.964   3.763   1.319
22696TIP3   OH267964   1.079   3.845   0.629
22696TIP3    H167965   1.006   3.808   0.579
22696TIP3    H267966   1.131   3.892   0.564
22697TIP3   OH267967   1.624   4.083   1.261
22697TIP3    H167968   1.695   4.076   1.197
22697TIP3    H267969   1.656   4.037   1.338
22698TIP3   OH267970   1.144   3.581   1.134
22698TIP3    H167971   1.109   3.507   1.182
22698TIP3    H267972   1.191   3.542   1.060
22699TIP3   OH267973   1.609   3.994   1.564
22699TIP3    H167974   1.525   4.040   1.562
22699TIP3    H267975   1.666   4.051   1.616
22700TIP3   OH267976   1.786   3.698   0.499
22700TIP3    H167977   1.693   3.681   0.508
22700TIP3    H267978   1.796   3.790   0.526
22701TIP3   OH267979   1.853   3.940   0.607
22701TIP3    H167980   1.948   3.938   0.618
22701TIP3    H267981   1.837   4.018   0.553
22702TIP3   OH267982   1.465   4.541   0.448
22702TIP3    H167983   1.419   4.619   0.479
22702TIP3    H267984   1.449   4.475   0.515
22703TIP3   OH267985   2.293   4.016   0.437
22703TIP3    H167986   2.229   3.982   0.374
22703TIP3    H267987   2.302   4.108   0.414
22704TIP3   OH267988   2.013   4.834   0.362
22704TIP3    H167989   1.973   4.752   0.390
22704TIP3    H267990   2.027   4.823   0.268
22705TIP3   OH267991   0.684   4.017   0.643
22705TIP3    H167992   0.734   4.097   0.659
22705TIP3    H267993   0.611   4.021   0.705
22706TIP3   OH267994   1.753   4.580   0.257
22706TIP3    H167995   1.808   4.560   0.332
22706TIP3    H267996   1.666   4.552   0.282
22707TIP3   OH267997   2.047   5.026   0.044
22707TIP3    H167998   2.065   5.083  -0.031
22707TIP3    H267999   2.013   5.086   0.111
22708TIP3   OH268000   1.918   4.525   0.475
22708TIP3    H168001   1.896   4.457   0.538
22708TIP3    H268002   2.013   4.519   0.464
22709TIP3   OH268003   1.117   4.561   0.255
22709TIP3    H168004   1.136   4.473   0.221
22709TIP3    H268005   1.104   4.549   0.349
22710TIP3   OH268006   1.080   4.562   0.533
22710TIP3    H168007   1.135   4.498   0.578
22710TIP3    H268008   1.106   4.646   0.570
22711TIP3   OH268009   0.788   4.264   0.728
22711TIP3    H168010   0.776   4.328   0.798
22711TIP3    H268011   0.819   4.316   0.654
22712TIP3   OH268012   1.831   3.652   0.782
22712TIP3    H168013   1.817   3.673   0.689
22712TIP3    H268014   1.867   3.732   0.819
22713TIP3   OH268015   1.317   4.792   0.487
22713TIP3    H168016   1.237   4.836   0.459
22713TIP3    H268017   1.382   4.812   0.420
22714TIP3   OH268018   1.527   3.830   0.886
22714TIP3    H168019   1.588   3.900   0.867
22714TIP3    H268020   1.529   3.822   0.982
22715TIP3   OH268021   1.669   3.561   0.991
22715TIP3    H168022   1.649   3.638   1.044
22715TIP3    H268023   1.727   3.594   0.922
22716TIP3   OH268024   1.181   3.555   0.779
22716TIP3    H168025   1.174   3.644   0.813
22716TIP3    H268026   1.274   3.534   0.787
22717TIP3   OH268027   0.791   4.473   0.525
22717TIP3    H168028   0.844   4.550   0.544
22717TIP3    H268029   0.845   4.420   0.468
22718TIP3   OH268030   0.740   3.746   0.666
22718TIP3    H168031   0.742   3.842   0.659
22718TIP3    H268032   0.658   3.721   0.622
22719TIP3   OH268033   1.131   3.462   1.543
22719TIP3    H168034   1.098   3.436   1.457
22719TIP3    H268035   1.117   3.385   1.598
22720TIP3   OH268036   1.289   4.758   0.171
22720TIP3    H168037   1.231   4.689   0.201
22720TIP3    H268038   1.363   4.712   0.130
22721TIP3   OH268039   1.727   4.802   0.070
22721TIP3    H168040   1.772   4.743   0.130
22721TIP3    H268041   1.783   4.805  -0.007
22722TIP3   OH268042   0.935   4.282   0.388
22722TIP3    H168043   0.981   4.242   0.462
22722TIP3    H268044   1.000   4.287   0.319
22723TIP3   OH268045   1.432   4.475   0.188
22723TIP3    H168046   1.437   4.494   0.281
22723TIP3    H268047   1.435   4.380   0.182
22724TIP3   OH268048   1.089   4.172   0.585
22724TIP3    H168049   1.134   4.196   0.666
22724TIP3    H268050   1.147   4.109   0.543
22725TIP3   OH268051   1.241   3.978   0.448
22725TIP3    H168052   1.214   3.981   0.356
22725TIP3    H268053   1.337   3.986   0.446
22726TIP3   OH268054   2.057   4.314   0.106
22726TIP3    H168055   2.040   4.263   0.027
22726TIP3    H268056   2.025   4.401   0.085
22727TIP3   OH268057   1.499   3.764   1.695
22727TIP3    H168058   1.549   3.831   1.649
22727TIP3    H268059   1.475   3.805   1.779
22728TIP3   OH268060   1.069   5.058   0.346
22728TIP3    H168061   1.157   5.042   0.310
22728TIP3    H268062   1.016   5.082   0.270
22729TIP3   OH268063   0.525   4.411   0.556
22729TIP3    H168064   0.617   4.438   0.551
22729TIP3    H268065   0.523   4.325   0.515
22730TIP3   OH268066   2.202   4.496   0.461
22730TIP3    H168067   2.277   4.531   0.413
22730TIP3    H268068   2.238   4.467   0.544
22731TIP3   OH268069   2.256   4.278   0.290
22731TIP3    H168070   2.189   4.275   0.222
22731TIP3    H268071   2.224   4.341   0.354
22732TIP3   OH268072   2.119   3.947   0.239
22732TIP3    H168073   2.082   3.982   0.158
22732TIP3    H268074   2.101   3.854   0.237
22733TIP3   OH268075   2.200   4.170   0.720
22733TIP3    H168076   2.153   4.087   0.730
22733TIP3    H268077   2.159   4.228   0.784
22734TIP3   OH268078   2.076   3.681   0.233
22734TIP3    H168079   2.152   3.653   0.284
22734TIP3    H268080   2.006   3.622   0.261
22735TIP3   OH268081   2.124   3.908   0.677
22735TIP3    H168082   2.164   3.822   0.694
22735TIP3    H268083   2.183   3.950   0.614
22736TIP3   OH268084   2.244   3.671   0.727
22736TIP3    H168085   2.294   3.659   0.808
22736TIP3    H268086   2.182   3.598   0.726
22737TIP3   OH268087   0.948   3.670   1.513
22737TIP3    H168088   1.007   3.601   1.544
22737TIP3    H268089   0.964   3.743   1.574
22738TIP3   OH268090   2.323   3.626   0.353
22738TIP3    H168091   2.364   3.552   0.309
22738TIP3    H268092   2.391   3.693   0.355
22739TIP3   OH268093   0.727   3.444   1.113
22739TIP3    H168094   0.638   3.450   1.148
22739TIP3    H268095   0.727   3.505   1.039
22740TIP3   OH268096   1.797   3.664   1.287
22740TIP3    H168097   1.743   3.596   1.328
22740TIP3    H268098   1.854   3.616   1.227
22741TIP3   OH268099   2.302   3.573   1.205
22741TIP3    H168100   2.346   3.599   1.124
22741TIP3    H268101   2.210   3.564   1.180
22742TIP3   OH268102   2.403   3.635   0.954
22742TIP3    H168103   2.473   3.579   0.920
22742TIP3    H268104   2.425   3.723   0.923
22743TIP3   OH268105   1.038   3.372   1.290
22743TIP3    H168106   0.947   3.343   1.294
22743TIP3    H268107   1.089   3.290   1.288
22744TIP3   OH268108   0.820   3.245   0.937
22744TIP3    H168109   0.854   3.301   0.867
22744TIP3    H268110   0.794   3.306   1.006
22745TIP3   OH268111   1.482   3.408   1.170
22745TIP3    H168112   1.542   3.458   1.114
22745TIP3    H268113   1.499   3.443   1.258
22746TIP3   OH268114   2.029   3.548   1.149
22746TIP3    H168115   2.021   3.512   1.061
22746TIP3    H268116   2.015   3.473   1.207
22747TIP3   OH268117   2.056   3.471   0.719
22747TIP3    H168118   1.971   3.515   0.727
22747TIP3    H268119   2.043   3.387   0.764
22748TIP3   OH268120   0.944   3.406   0.700
22748TIP3    H168121   0.990   3.342   0.646
22748TIP3    H268122   1.014   3.459   0.739
22749TIP3   OH268123   1.457   3.580   0.802
22749TIP3    H168124   1.513   3.528   0.861
22749TIP3    H268125   1.476   3.671   0.825
22750TIP3   OH268126   1.324   5.006   0.272
22750TIP3    H168127   1.414   5.022   0.244
22750TIP3    H268128   1.301   4.922   0.232
22751TIP3   OH268129   2.506   4.179   0.559
22751TIP3    H168130   2.496   4.220   0.645
22751TIP3    H268131   2.441   4.109   0.558
22752TIP3   OH268132   3.302   3.861  -0.023
22752TIP3    H168133   3.345   3.869   0.062
22752TIP3    H268134   3.270   3.770  -0.025
22753TIP3   OH268135   2.973   3.816  -0.017
22753TIP3    H168136   2.973   3.811   0.078
22753TIP3    H268137   2.905   3.880  -0.038
22754TIP3   OH268138   2.502   3.836   0.809
22754TIP3    H168139   2.578   3.885   0.839
22754TIP3    H268140   2.532   3.791   0.730
22755TIP3   OH268141   2.514   3.859   0.376
22755TIP3    H168142   2.552   3.896   0.297
22755TIP3    H268143   2.447   3.922   0.402
22756TIP3   OH268144   2.880   4.070   0.118
22756TIP3    H168145   2.804   4.049   0.063
22756TIP3    H268146   2.929   4.134   0.066
22757TIP3   OH268147   2.477   4.268   0.131
22757TIP3    H168148   2.533   4.338   0.166
22757TIP3    H268149   2.400   4.268   0.188
22758TIP3   OH268150   2.972   3.796   0.257
22758TIP3    H168151   2.959   3.876   0.307
22758TIP3    H268152   3.060   3.767   0.281
22759TIP3   OH268153   2.535   4.002   0.148
22759TIP3    H168154   2.535   4.097   0.146
22759TIP3    H268155   2.448   3.977   0.114
22760TIP3   OH268156   5.985   9.162   7.849
22760TIP3    H168157   6.037   9.147   7.928
22760TIP3    H268158   6.047   9.151   7.777
22761TIP3   OH268159   6.307   8.844   7.931
22761TIP3    H168160   6.251   8.830   7.854
22761TIP3    H268161   6.390   8.873   7.895
22762TIP3   OH268162   2.321   4.693   0.014
22762TIP3    H168163   2.388   4.708   0.081
22762TIP3    H268164   2.326   4.600  -0.006
22763TIP3   OH268165   2.513   3.685   0.582
22763TIP3    H168166   2.423   3.695   0.613
22763TIP3    H268167   2.522   3.753   0.515
22764TIP3   OH268168   2.814   3.606   0.706
22764TIP3    H168169   2.725   3.580   0.729
22764TIP3    H268170   2.868   3.529   0.726
22765TIP3   OH268171   2.617   3.494   0.417
22765TIP3    H168172   2.652   3.551   0.349
22765TIP3    H268173   2.589   3.553   0.487
22766TIP3   OH268174   2.737   3.656   0.184
22766TIP3    H168175   2.781   3.593   0.127
22766TIP3    H268176   2.808   3.708   0.222
22767TIP3   OH268177   8.252   0.860   7.907
22767TIP3    H168178   8.318   0.803   7.867
22767TIP3    H268179   8.169   0.816   7.888
22768TIP3   OH268180   1.688   5.257   0.331
22768TIP3    H168181   1.622   5.320   0.303
22768TIP3    H268182   1.637   5.180   0.358
   9.80000   9.23953   8.00167   0.00000   0.00000  -3.26667   0.00000  -3.26667  -4.61976
